Title
44434
    1GLY      N    1   2.130   4.056   4.762  0.3043 -0.4151  0.3096
    1GLY    HT1    2   2.150   4.143   4.710  2.0217 -1.2228 -0.4169
    1GLY    HT2    3   2.146   4.068   4.864  0.3391 -2.7367  0.6079
    1GLY    HT3    4   2.028   4.038   4.749  0.5107 -0.9778 -0.5532
    1GLY     CA    5   2.213   3.933   4.731  0.2521 -0.2557 -0.1014
    1GLY    HA1    6   2.210   3.911   4.625 -0.7908 -1.3099  0.1306
    1GLY    HA2    7   2.169   3.849   4.782 -0.9136  0.2784 -0.2067
    1GLY      C    8   2.355   3.948   4.780 -0.0358  0.0105  0.9741
    1GLY      O    9   2.385   4.050   4.838 -0.3490 -0.2739 -0.2172
    2PRO      N   10   2.445   3.854   4.755 -0.4385  0.0989  0.3953
    2PRO     CD   11   2.415   3.720   4.700 -0.1510  0.0569  0.6001
    2PRO    HD1   12   2.414   3.743   4.592 -0.3691  0.9972  0.7964
    2PRO    HD2   13   2.324   3.673   4.743  2.4351 -2.0597  4.1248
    2PRO     CA   14   2.587   3.861   4.796 -0.0041 -0.1364  0.0099
    2PRO     HA   15   2.594   3.866   4.904 -0.4573  0.1645  0.0285
    2PRO     CB   16   2.645   3.727   4.737 -0.0627  0.0280 -0.0995
    2PRO    HB1   17   2.726   3.690   4.804 -0.0638 -1.4721 -0.8930
    2PRO    HB2   18   2.678   3.743   4.632  0.2651 -1.3550 -0.2189
    2PRO     CG   19   2.531   3.631   4.746 -0.1493  0.1786 -0.8140
    2PRO    HG1   20   2.555   3.543   4.682 -0.0053 -0.1911 -0.2590
    2PRO    HG2   21   2.531   3.597   4.852 -0.1170 -0.0260 -0.8807
    2PRO      C   22   2.655   3.989   4.739  0.3003  0.8072 -0.5659
    2PRO      O   23   2.631   4.039   4.629 -0.0994 -0.6520 -0.3959
    3GLY      N   24   2.751   4.040   4.819  0.6188  0.7567  0.4039
    3GLY     HN   25   2.756   4.003   4.912  3.0679 -3.9077 -1.3664
    3GLY     CA   26   2.845   4.146   4.779  0.4420  0.0044  0.5399
    3GLY    HA1   27   2.924   4.148   4.852  0.8245 -0.7339  0.1489
    3GLY    HA2   28   2.796   4.241   4.763  2.0129  0.5845 -1.0874
    3GLY      C   29   2.909   4.122   4.639  0.0291  0.0800  0.5765
    3GLY      O   30   2.963   4.016   4.619  0.4347 -0.2022 -0.2147
    4ASP      N   31   2.925   4.232   4.560  0.2907 -0.5436  0.0896
    4ASP     HN   32   2.872   4.315   4.577  2.8584  1.2800 -0.5260
    4ASP     CA   33   3.001   4.226   4.436 -0.8281 -1.1082  0.5461
    4ASP     HA   34   2.952   4.151   4.376 -2.4620 -0.6628  1.3000
    4ASP     CB   35   3.015   4.366   4.364  0.1540 -0.0363  0.5061
    4ASP    HB1   36   3.091   4.372   4.283  0.4551 -1.7168  0.6349
    4ASP    HB2   37   3.065   4.437   4.433 -0.0840  0.2703  0.3621
    4ASP     CG   38   2.882   4.421   4.322 -0.8254  0.0619 -0.4499
    4ASP    OD1   39   2.848   4.541   4.344 -0.0505  0.1618  0.5240
    4ASP    OD2   40   2.818   4.347   4.245  0.0412  0.7563 -0.1316
    4ASP      C   41   3.141   4.176   4.454 -0.5462  0.0924  0.1110
    4ASP      O   42   3.206   4.217   4.550  0.0792  0.2244 -0.3190
    5PRO      N   43   3.188   4.086   4.360  0.2347 -0.2467 -0.1397
    5PRO     CD   44   3.124   4.043   4.233  0.2365 -0.4294  0.4405
    5PRO    HD1   45   3.142   4.124   4.160  0.3957 -0.7335  0.1447
    5PRO    HD2   46   3.020   4.009   4.257  0.4138 -0.4622  1.1854
    5PRO     CA   47   3.322   4.025   4.373 -0.2229  0.8569  0.6703
    5PRO     HA   48   3.320   3.954   4.455  0.6207  2.1953  1.8638
    5PRO     CB   49   3.355   3.949   4.236 -0.2129 -0.3649 -1.2984
    5PRO    HB1   50   3.425   3.863   4.246  1.2736  0.9898  0.2965
    5PRO    HB2   51   3.398   4.019   4.161 -1.4646  0.0570 -1.6379
    5PRO     CG   52   3.208   3.915   4.191 -0.0366  0.6795 -0.5677
    5PRO    HG1   53   3.201   3.890   4.083 -1.7512  2.1375 -0.8347
    5PRO    HG2   54   3.167   3.831   4.250 -1.1041  2.5615  1.4552
    5PRO      C   55   3.431   4.119   4.409  0.0906 -0.4281 -0.7623
    5PRO      O   56   3.452   4.215   4.334 -0.1732 -0.3201 -0.3254
    6GLY      N   57   3.486   4.098   4.527 -0.1188  0.6492  0.2802
    6GLY     HN   58   3.457   4.019   4.581 -1.3135 -0.0899 -1.4219
    6GLY     CA   59   3.600   4.170   4.582  0.6863  0.6486  1.0725
    6GLY    HA1   60   3.642   4.106   4.658 -0.4477  0.4278  1.5179
    6GLY    HA2   61   3.572   4.258   4.637 -0.7912  1.2604 -0.6171
    6GLY      C   62   3.711   4.209   4.485 -0.0449 -0.1127 -0.4503
    6GLY      O   63   3.753   4.131   4.401  0.3209 -0.3495 -0.8113
    7SER      N   64   3.774   4.329   4.496 -0.1048  0.1146  0.4321
    7SER     HN   65   3.735   4.403   4.550 -2.9581  0.2257 -1.6828
    7SER     CA   66   3.871   4.375   4.398  0.0682  0.0730  0.1122
    7SER     HA   67   3.818   4.375   4.304  1.3683 -3.2377 -0.6943
    7SER     CB   68   3.915   4.523   4.426  0.1990  1.1142 -0.0203
    7SER    HB1   69   3.989   4.560   4.351 -1.4964  0.2616 -2.1647
    7SER    HB2   70   3.961   4.522   4.527 -0.8741 -0.8250  0.4632
    7SER     OG   71   3.805   4.612   4.416 -0.3390 -0.2242 -0.0447
    7SER    HG1   72   3.766   4.618   4.328  0.9313  4.5011 -0.4242
    7SER      C   73   4.002   4.285   4.388  0.4752 -0.2200  0.1984
    7SER      O   74   4.054   4.231   4.486 -0.4709 -0.3068  0.0240
    8GLY      N   75   4.061   4.270   4.267 -0.4039  0.1151 -0.7659
    8GLY     HN   76   4.008   4.304   4.189  0.9221 -0.4155 -1.9294
    8GLY     CA   77   4.185   4.192   4.244  0.0281 -0.6221 -0.9217
    8GLY    HA1   78   4.194   4.172   4.138 -1.7467  1.2658 -1.4631
    8GLY    HA2   79   4.175   4.099   4.297 -1.3649 -1.4077 -2.5031
    8GLY      C   80   4.314   4.262   4.303  0.1230  0.6084  0.2076
    8GLY      O   81   4.315   4.379   4.334 -0.4657  0.5441  0.3622
    9ASN      N   82   4.426   4.187   4.304  0.5015  0.3394 -0.8405
    9ASN     HN   83   4.421   4.096   4.264  0.3579 -1.7846  3.7807
    9ASN     CA   84   4.549   4.233   4.363 -0.0899 -0.0063 -0.2120
    9ASN     HA   85   4.524   4.305   4.439  0.2909 -2.1188  1.9677
    9ASN     CB   86   4.608   4.105   4.443  0.0087  0.4999  1.2110
    9ASN    HB1   87   4.714   4.130   4.465  0.4783  0.5520 -0.9755
    9ASN    HB2   88   4.616   4.027   4.364  1.0784  0.8849  0.9288
    9ASN     CG   89   4.534   4.058   4.567 -0.3254  0.5914  0.1780
    9ASN    OD1   90   4.447   4.128   4.624  0.1658 -0.2688  0.3652
    9ASN    ND2   91   4.578   3.939   4.621  0.0747  0.0126 -0.0358
    9ASN   HD21   92   4.532   3.903   4.703 -0.2582 -0.5322 -0.4577
    9ASN   HD22   93   4.630   3.884   4.557 -0.9634 -1.1919  0.1285
    9ASN      C   94   4.638   4.295   4.260  0.2943  0.6283  0.6008
    9ASN      O   95   4.633   4.255   4.143 -0.2223 -0.2879 -0.2126
   10PRO      N   96   4.718   4.407   4.291 -0.3576 -0.3030  0.5565
   10PRO     CD   97   4.705   4.487   4.417  0.1421  0.1277  0.1802
   10PRO    HD1   98   4.730   4.418   4.500  2.2896  1.0138  0.3088
   10PRO    HD2   99   4.596   4.504   4.429 -0.0990 -0.5915 -0.9402
   10PRO     CA  100   4.810   4.473   4.204 -0.6041 -1.1630  0.3805
   10PRO     HA  101   4.755   4.510   4.119 -0.4930 -1.8189  0.0195
   10PRO     CB  102   4.870   4.590   4.281 -0.1797 -0.1450  0.6228
   10PRO    HB1  103   4.876   4.675   4.209 -0.1649 -0.8604 -0.2314
   10PRO    HB2  104   4.973   4.566   4.314 -0.4406 -1.5023  0.4828
   10PRO     CG  105   4.784   4.611   4.408  0.0696  0.0794 -0.1425
   10PRO    HG1  106   4.853   4.614   4.494 -1.6568 -0.4939  1.2766
   10PRO    HG2  107   4.729   4.708   4.406  0.3566  0.2324 -1.4345
   10PRO      C  108   4.913   4.383   4.132  0.0836  0.1024  0.2148
   10PRO      O  109   4.981   4.304   4.203  0.2249 -0.0304 -0.8044
   11GLY      N  110   4.937   4.397   3.998 -0.1197  0.4930  0.3943
   11GLY     HN  111   4.886   4.463   3.943 -0.6354  0.3212  0.6531
   11GLY     CA  112   5.044   4.329   3.920  0.4689  0.4577  0.7163
   11GLY    HA1  113   5.039   4.378   3.825  2.2213 -1.0408 -0.1751
   11GLY    HA2  114   5.017   4.224   3.918  1.0942  0.2967  0.7283
   11GLY      C  115   5.178   4.341   3.976 -0.2958 -0.0202 -0.0043
   11GLY      O  116   5.208   4.444   4.042 -0.0352 -0.1683  0.1574
   12SER      N  117   5.259   4.235   3.947 -0.5960 -0.5681 -0.1545
   12SER     HN  118   5.218   4.150   3.915 -0.6231 -0.7739  0.4107
   12SER     CA  119   5.407   4.249   3.945 -0.0425  0.0400 -0.5882
   12SER     HA  120   5.440   4.232   4.047  0.6090 -0.4762 -0.8837
   12SER     CB  121   5.472   4.134   3.861 -0.0688 -0.1911 -0.1827
   12SER    HB1  122   5.580   4.158   3.857 -0.0456 -0.4565 -1.7639
   12SER    HB2  123   5.430   4.122   3.759  0.5459  0.2474 -0.4929
   12SER     OG  124   5.452   4.017   3.936  0.0173  0.4823  0.1543
   12SER    HG1  125   5.363   3.988   3.918 -0.2563  0.9181  0.8040
   12SER      C  126   5.478   4.377   3.898  0.0414  0.4982  0.0354
   12SER      O  127   5.455   4.427   3.788  0.0106  0.3974 -0.6358
   13GLY      N  128   5.566   4.432   3.982 -0.8181  0.2278  0.6804
   13GLY     HN  129   5.594   4.392   4.069 -3.1348  2.9722  2.7950
   13GLY     CA  130   5.652   4.543   3.938 -0.3781  0.1523  0.8232
   13GLY    HA1  131   5.705   4.571   4.028  1.8399 -1.4911  0.0653
   13GLY    HA2  132   5.588   4.621   3.899 -2.0500 -2.1389 -1.1703
   13GLY      C  133   5.766   4.518   3.835  0.1064  0.7425  0.1132
   13GLY      O  134   5.781   4.408   3.773 -0.3731  0.2960  0.5804
   14ASP      N  135   5.844   4.630   3.811  0.0204 -0.1409 -0.1693
   14ASP     HN  136   5.823   4.714   3.860 -1.4808 -0.6498  0.0811
   14ASP     CA  137   5.932   4.638   3.700  0.5240 -0.1221  0.0191
   14ASP     HA  138   5.878   4.598   3.615 -0.5296  0.0059  0.6219
   14ASP     CB  139   5.977   4.785   3.678  0.2402 -0.3502  0.6696
   14ASP    HB1  140   6.053   4.793   3.597  1.4958 -0.8193  1.7853
   14ASP    HB2  141   6.013   4.835   3.770  4.0140  0.5680 -1.2233
   14ASP     CG  142   5.865   4.863   3.613  0.1669 -0.4665  0.1558
   14ASP    OD1  143   5.798   4.947   3.676 -0.4992  0.0604  0.0411
   14ASP    OD2  144   5.828   4.839   3.494  0.0285 -0.2078  0.0218
   14ASP      C  145   6.051   4.549   3.722 -0.3304 -0.5796 -0.3993
   14ASP      O  146   6.088   4.515   3.834  0.6259  0.2284  0.5673
   15PRO      N  147   6.113   4.490   3.614 -0.4379  0.0715  0.0971
   15PRO     CD  148   6.110   4.546   3.480 -0.2086 -0.4746 -0.0151
   15PRO    HD1  149   6.164   4.643   3.474  0.5811 -0.8937  0.2494
   15PRO    HD2  150   6.009   4.548   3.434  0.1770 -2.3637 -1.0064
   15PRO     CA  151   6.214   4.388   3.636  0.8366 -0.5162 -0.5102
   15PRO     HA  152   6.184   4.314   3.709 -1.4109  0.4810 -0.3970
   15PRO     CB  153   6.217   4.325   3.500 -0.2116 -0.6933  0.2600
   15PRO    HB1  154   6.124   4.263   3.495  1.0042 -2.3706 -2.7768
   15PRO    HB2  155   6.312   4.268   3.488  0.1766 -0.6552  2.8826
   15PRO     CG  156   6.180   4.436   3.395  0.2319 -0.2047 -0.2195
   15PRO    HG1  157   6.279   4.471   3.359  0.1000  2.0662  1.4766
   15PRO    HG2  158   6.118   4.393   3.314 -0.0699  1.2289 -0.7791
   15PRO      C  159   6.351   4.445   3.683 -0.4841  0.2322 -0.1063
   15PRO    OT1  160   6.405   4.542   3.628  0.1218  0.2175  0.0456
   15PRO    OT2  161   6.407   4.397   3.784  0.5515  0.0950 -0.1063
   16LIT    LIT  162   5.927   3.986   5.476  0.1187  1.2491  0.4740
   17LIT    LIT  163   3.839   7.723   1.630  0.0737  0.0904  0.6552
   18LIT    LIT  164   7.527   4.950   1.950  0.4964 -0.6157  0.0211
   19LIT    LIT  165   4.588   5.794   5.828  0.3288  1.4432 -0.6571
   20LIT    LIT  166   6.869   2.180   5.993  0.0611 -0.4171  0.3974
   21LIT    LIT  167   5.608   5.184   2.524 -0.1246 -0.0958  0.3212
   22LIT    LIT  168   1.528   0.493   3.789  0.7968  0.5137  0.0404
   23LIT    LIT  169   2.178   2.040   5.389 -0.1781 -0.8859 -0.5550
   24LIT    LIT  170   5.579   2.495   0.637 -0.8066 -0.7948  0.3561
   25LIT    LIT  171   4.493   7.086   2.836  0.1958  0.5795 -0.4457
   26LIT    LIT  172   1.438   6.317   4.870 -0.6493  0.4578  0.6938
   27LIT    LIT  173   5.678   0.248   4.465  0.2594  0.8950 -0.2986
   28LIT    LIT  174   0.258   2.834   6.891 -0.0054  0.2049  0.0213
   29LIT    LIT  175   4.290   5.229   4.030  0.3002  0.7906  0.8644
   30LIT    LIT  176   1.933   2.660   5.640  0.5809 -0.8008 -1.2137
   31LIT    LIT  177   5.209   3.604   0.294  0.3506 -0.4031 -0.3352
   32LIT    LIT  178   0.110   6.991   3.622  0.7696  0.4865  0.7416
   33LIT    LIT  179   1.706   2.104   4.852  0.3731 -0.5286  0.3940
   34LIT    LIT  180   3.835   7.857   6.417  0.4180  0.1400  0.5642
   35LIT    LIT  181   1.216   5.985   5.539 -0.0346 -0.8220 -0.7614
   36LIT    LIT  182   5.410   6.429   4.073  0.4756 -0.7873  0.6686
   37LIT    LIT  183   2.666   4.739   5.879  1.0147  0.5036  0.1097
   38LIT    LIT  184   4.094   7.348   2.683  0.4183  0.0605  0.0252
   39LIT    LIT  185   4.134   0.620   5.460 -0.5592  0.3003  0.1562
   40LIT    LIT  186   6.835   5.797   1.410  0.2583 -0.3583 -0.3912
   41LIT    LIT  187   6.539   4.521   3.771 -0.1769 -0.9458  0.8018
   42LIT    LIT  188   5.784   1.765   2.065 -0.0318 -0.5385  0.5051
   43LIT    LIT  189   4.162   1.196   2.712 -0.0845  0.4940  0.4533
   44LIT    LIT  190   7.223   3.373   0.488 -1.2256  0.3033  0.3786
   45LIT    LIT  191   8.453   4.751   0.218 -0.5656 -0.3087  0.5926
   46LIT    LIT  192   1.790   6.249   3.548 -0.0336 -0.1841 -0.7410
   47LIT    LIT  193   1.681   2.600   0.343  0.2840 -0.6797 -0.1759
   48LIT    LIT  194   7.121   6.109   5.400  0.4423 -0.7166  0.2838
   49LIT    LIT  195   5.495   4.012   4.333 -0.6263 -0.1602  0.3547
   50LIT    LIT  196   2.428   4.421   4.950 -0.8517  0.4512  0.5036
   51LIT    LIT  197   8.154   3.945   3.431 -0.2498  0.7549  0.3562
   52LIT    LIT  198   4.438   5.977   0.431  0.2743  0.0631 -0.8495
   53LIT    LIT  199   1.370   3.414   3.436 -0.5672 -0.1476  0.0847
   54LIT    LIT  200   2.149   2.674   1.809 -0.4114 -0.1521  0.9003
   55LIT    LIT  201   3.013   4.086   0.280  0.3807 -0.0563  0.1636
   56LIT    LIT  202   3.258   5.271   4.775 -0.1274 -0.4217 -0.3693
   57LIT    LIT  203   4.903   2.370   6.706 -0.5744 -0.8266  0.2022
   58LIT    LIT  204   7.063   5.827   6.342 -0.4503 -1.1619  0.8125
   59LIT    LIT  205   6.569   7.593   4.937 -0.9693  0.3908 -1.1149
   60CLA    CLA  206   0.307   7.120   4.210  0.0396 -0.1533  0.2230
   61CLA    CLA  207   5.584   2.024   1.187  0.1304  0.1828 -0.1670
   62CLA    CLA  208   2.533   7.033   3.819  0.3496 -0.6966 -0.0006
   63CLA    CLA  209   2.269   2.245   5.460  0.0528 -0.1146 -0.3514
   64CLA    CLA  210   7.539   5.232   4.307  0.7078 -0.0732  0.1190
   65CLA    CLA  211   7.475   4.328   5.728 -0.0754 -0.4320  0.1824
   66CLA    CLA  212   1.987   5.590   4.248 -0.0700 -0.1891 -0.0610
   67CLA    CLA  213   4.382   6.087   5.561  0.0147  0.1844 -0.1322
   68CLA    CLA  214   4.691   6.924   6.046  0.2204  0.2552 -0.0956
   69CLA    CLA  215   8.211   6.006   3.076  0.0637  0.0837 -0.3122
   70CLA    CLA  216   3.903   7.177   1.130  0.0113  0.0283 -0.4216
   71CLA    CLA  217   6.859   0.216   6.289  0.1257  0.1465 -0.1260
   72CLA    CLA  218   1.518   3.605   3.481  0.3640  0.0816  0.0955
   73CLA    CLA  219   7.226   2.851   4.448  0.5210  0.1733 -0.2831
   74CLA    CLA  220   4.911   6.441   0.653 -0.0907 -0.0763  0.2026
   75CLA    CLA  221   4.278   7.360   2.540  0.1027  0.0931 -0.3912
   76CLA    CLA  222   0.608   4.380   3.239  0.2568  0.1862 -0.2408
   77CLA    CLA  223   2.271   0.539   6.360 -0.3866  0.0737  0.0628
   78CLA    CLA  224   3.854   7.792   6.196  0.3388 -0.1640 -0.0348
   79CLA    CLA  225   0.149   1.229   4.319 -0.2012 -0.2450 -0.0608
   80CLA    CLA  226   7.320   5.993   5.432 -0.0897 -0.0992  0.1522
   81CLA    CLA  227   6.029   2.060   0.844 -0.5200  0.0967 -0.2443
   82CLA    CLA  228   2.447   1.327   6.279 -0.4758 -0.0673 -0.1635
   83CLA    CLA  229   4.282   5.714   1.923  0.0168  0.0128 -0.1038
   84CLA    CLA  230   3.619   3.840   5.578 -0.1018 -0.0031 -0.0642
   85CLA    CLA  231   3.673   7.333   6.660 -0.2175 -0.3266  0.2035
   86CLA    CLA  232   2.588   3.977   2.403  0.4186 -0.2085 -0.2110
   87CLA    CLA  233   1.101   3.892   6.541 -0.6652 -0.6420  0.0586
   88CLA    CLA  234   6.411   6.024   1.458  0.5070  0.0910 -0.1951
   89CLA    CLA  235   1.843   2.521   5.811 -0.3127 -0.0435  0.0806
   90CLA    CLA  236   7.083   1.114   1.567  0.2783 -0.3791 -0.0468
   91CLA    CLA  237   4.695   3.198   6.670  0.0904 -0.1536  0.6818
   92CLA    CLA  238   5.230   0.904   5.494 -0.3275  0.0711 -0.0334
   93CLA    CLA  239   4.163   3.681   3.511  0.3187 -0.4953 -0.1154
   94CLA    CLA  240   5.888   0.179   3.874  0.0037  0.5184  0.3558
   95CLA    CLA  241   4.521   4.866   5.100 -0.2048  0.2179  0.1747
   96CLA    CLA  242   4.450   5.860   0.625  0.0475  0.1483  0.0640
   97CLA    CLA  243   4.445   3.039   3.844  0.0296 -0.1302  0.4897
   98CLA    CLA  244   2.388   2.695   1.823 -0.1144 -0.0487 -0.0051
   99CLA    CLA  245   8.124   5.904   2.356  0.1371 -0.0246 -0.1610
  100CLA    CLA  246   1.687   6.136   0.989  0.2016 -0.2190 -0.3885
  101CLA    CLA  247   2.226   1.469   0.411  0.0815 -0.4887  0.0209
  102TIP3   OH2  248   0.537   6.401   1.259 -0.4284 -0.3355 -0.1317
  102TIP3    H1  249   0.570   6.444   1.179  1.2241 -0.8099  0.2820
  102TIP3    H2  250   0.615   6.372   1.304 -1.3984 -0.6347  1.3731
  103TIP3   OH2  251   2.337   1.144   2.215  0.9821  0.1295 -0.2735
  103TIP3    H1  252   2.267   1.209   2.209  1.1564  0.2903 -0.5842
  103TIP3    H2  253   2.292   1.059   2.213  0.4059  0.2089  4.1942
  104TIP3   OH2  254   7.176   7.356   2.096  0.1111  0.4760 -0.2858
  104TIP3    H1  255   7.120   7.325   2.167 -2.2027  1.6408 -1.5243
  104TIP3    H2  256   7.262   7.369   2.136 -0.6242 -0.8907  1.7900
  105TIP3   OH2  257   2.945   0.201   1.198 -0.1019 -0.5883  0.0530
  105TIP3    H1  258   2.895   0.274   1.162 -0.5361 -0.8409  0.1466
  105TIP3    H2  259   2.912   0.124   1.151 -0.9951 -0.9840  1.3296
  106TIP3   OH2  260   0.581   7.392   2.851  0.2276 -0.1381  0.5272
  106TIP3    H1  261   0.612   7.442   2.775 -0.8247 -1.3011 -0.7117
  106TIP3    H2  262   0.540   7.458   2.907  0.2536  0.6388 -0.3404
  107TIP3   OH2  263   0.445   7.942   2.278  0.1778 -0.4555  0.6218
  107TIP3    H1  264   0.417   7.965   2.190 -1.9753  1.1910  1.6762
  107TIP3    H2  265   0.411   7.854   2.292 -0.5492 -0.2348  0.2491
  108TIP3   OH2  266   7.691   6.200   2.147 -0.2849 -0.1520 -0.5482
  108TIP3    H1  267   7.714   6.287   2.181 -1.2824 -0.7867  1.9078
  108TIP3    H2  268   7.610   6.178   2.193  0.0273 -2.4459 -1.0448
  109TIP3   OH2  269   7.561   7.159   3.975 -0.4723 -0.2856  0.2414
  109TIP3    H1  270   7.621   7.095   4.013 -0.5352 -1.4584 -1.5657
  109TIP3    H2  271   7.477   7.114   3.970 -1.2043  0.8776  1.4535
  110TIP3   OH2  272   0.160   6.848   4.400  0.1426  0.3186 -0.3371
  110TIP3    H1  273   0.231   6.872   4.340  0.0157 -0.3844 -0.7725
  110TIP3    H2  274   0.088   6.906   4.376 -0.1614 -0.4626 -1.3810
  111TIP3   OH2  275   2.248   1.532   0.080  0.2706  0.1779  0.8699
  111TIP3    H1  276   2.187   1.465   0.051  1.1955 -0.7098  0.9462
  111TIP3    H2  277   2.233   1.540   0.175 -0.5000  0.7601  0.6977
  112TIP3   OH2  278   3.788   0.391   1.062 -0.3684 -0.4610  0.0816
  112TIP3    H1  279   3.708   0.438   1.083 -0.7257 -0.7629 -0.5826
  112TIP3    H2  280   3.837   0.451   1.006 -0.0095 -0.1723  0.7033
  113TIP3   OH2  281   3.011   0.244   2.941  0.3886  0.0641 -0.0310
  113TIP3    H1  282   3.042   0.167   2.894 -1.1875 -0.6281  0.0213
  113TIP3    H2  283   3.010   0.218   3.033 -0.6553 -0.0364 -0.0671
  114TIP3   OH2  284   1.907   7.638   2.185 -0.4086 -1.0512  0.0937
  114TIP3    H1  285   1.865   7.685   2.258 -1.0735 -0.3467 -0.7292
  114TIP3    H2  286   1.974   7.585   2.227 -0.4137 -0.2372  1.1700
  115TIP3   OH2  287   4.097   6.435   0.227  0.2421  0.4445 -0.1723
  115TIP3    H1  288   4.149   6.502   0.183  1.1051  1.3792  2.1951
  115TIP3    H2  289   4.018   6.481   0.256  0.1400  0.0805  0.1320
  116TIP3   OH2  290   2.570   7.035   2.660 -0.1839 -0.0537 -0.6086
  116TIP3    H1  291   2.598   7.036   2.752  0.9127  0.3750 -0.9312
  116TIP3    H2  292   2.583   6.944   2.633 -0.5383 -0.1883 -0.3277
  117TIP3   OH2  293   4.711   0.158   0.161  0.7139  0.4536 -0.1836
  117TIP3    H1  294   4.731   0.231   0.221 -2.4740  1.1717  0.1100
  117TIP3    H2  295   4.654   0.100   0.212  1.4719 -1.1676 -1.1326
  118TIP3   OH2  296   2.816   7.399   2.983  0.4299  0.1905  0.2030
  118TIP3    H1  297   2.885   7.435   3.038 -0.1959 -2.6340  3.0163
  118TIP3    H2  298   2.739   7.397   3.040 -1.2833  0.7871 -2.0321
  119TIP3   OH2  299   0.727   7.442   0.463  0.0575  0.2803  0.0719
  119TIP3    H1  300   0.717   7.520   0.517  0.5130 -0.6853  1.5623
  119TIP3    H2  301   0.754   7.374   0.523 -2.7855 -1.6877 -0.7449
  120TIP3   OH2  302   1.696   7.339   2.678 -0.4583 -0.1767 -1.3821
  120TIP3    H1  303   1.638   7.282   2.628 -1.0772  0.1249 -1.0121
  120TIP3    H2  304   1.643   7.370   2.751 -0.0099  0.5655 -1.3595
  121TIP3   OH2  305   7.286   3.559   6.365  0.1830 -0.2190  0.1588
  121TIP3    H1  306   7.289   3.509   6.447 -4.3373  3.3975  2.7589
  121TIP3    H2  307   7.194   3.558   6.340  1.1954  0.3745 -3.9763
  122TIP3   OH2  308   1.987   7.649   0.079  0.6559 -0.5545  0.1795
  122TIP3    H1  309   1.955   7.739   0.077  0.2669 -0.6798  0.7722
  122TIP3    H2  310   2.069   7.652   0.031  1.5630  0.4741  1.7657
  123TIP3   OH2  311   3.667   1.444   0.140 -0.3577 -0.3724  0.3638
  123TIP3    H1  312   3.734   1.485   0.085 -2.0984  0.3262 -1.2719
  123TIP3    H2  313   3.695   1.353   0.146 -0.4995 -0.6534 -2.3530
  124TIP3   OH2  314   0.850   6.358   2.132 -0.1762  0.2586 -0.0796
  124TIP3    H1  315   0.788   6.429   2.150 -2.9279 -2.1251  0.1833
  124TIP3    H2  316   0.854   6.309   2.214 -0.8819 -1.7952 -1.2421
  125TIP3   OH2  317   0.965   7.420   1.714 -0.0236 -0.0131  0.7161
  125TIP3    H1  318   1.034   7.366   1.752 -0.2112 -1.1427 -0.5160
  125TIP3    H2  319   0.942   7.376   1.632 -0.5712  1.6225 -0.0437
  126TIP3   OH2  320   5.708   1.791   1.741 -0.1529  0.0772 -0.4831
  126TIP3    H1  321   5.757   1.735   1.680  1.4418  2.0841 -1.1095
  126TIP3    H2  322   5.753   1.875   1.737 -0.5641  0.5063  2.8500
  127TIP3   OH2  323   0.692   6.407   2.408 -0.2123  0.2930  0.2396
  127TIP3    H1  324   0.685   6.312   2.411  0.5615  0.2070 -0.2636
  127TIP3    H2  325   0.783   6.425   2.433  0.2159  0.7620 -1.5813
  128TIP3   OH2  326   5.610   0.953   1.329  0.0551  0.3870 -0.4152
  128TIP3    H1  327   5.574   0.996   1.406  0.4298  1.0043 -0.5819
  128TIP3    H2  328   5.700   0.983   1.324  0.7669 -1.5662  0.2942
  129TIP3   OH2  329   8.378   7.962   1.519  0.2525 -0.4251 -0.7334
  129TIP3    H1  330   8.329   7.952   1.438  0.2615  0.4519 -0.8498
  129TIP3    H2  331   8.312   7.982   1.585  0.4523  0.9887 -0.9333
  130TIP3   OH2  332   2.465   7.491   0.284  0.0785  0.2442  0.1826
  130TIP3    H1  333   2.520   7.546   0.228  1.7080 -1.4743  0.0479
  130TIP3    H2  334   2.420   7.433   0.223  0.3410 -0.2881  0.4899
  131TIP3   OH2  335   1.210   7.279   2.854  0.4386  0.2147  0.7103
  131TIP3    H1  336   1.165   7.256   2.773 -0.5030 -0.4893  1.4212
  131TIP3    H2  337   1.302   7.287   2.829  0.0694  0.6919 -0.5629
  132TIP3   OH2  338   1.762   6.970   0.670  0.7230  0.3765  0.4330
  132TIP3    H1  339   1.772   6.956   0.576  1.3090  0.9971  0.3926
  132TIP3    H2  340   1.719   6.891   0.703 -0.0995  0.4546 -0.4609
  133TIP3   OH2  341   0.142   6.228   3.392  0.1975  0.0719 -0.2038
  133TIP3    H1  342   0.069   6.179   3.354  0.3994  0.8150 -1.5949
  133TIP3    H2  343   0.191   6.162   3.442 -0.6111 -0.7323 -0.4488
  134TIP3   OH2  344   3.225   6.956   3.753  0.0723 -0.4536  0.0095
  134TIP3    H1  345   3.159   6.959   3.684  0.4438  1.4665 -0.2671
  134TIP3    H2  346   3.236   7.047   3.780  0.5017 -1.0905  2.0600
  135TIP3   OH2  347   1.131   6.367   3.946 -0.7282 -0.2483  0.0618
  135TIP3    H1  348   1.101   6.277   3.936  0.0590 -0.4734 -0.3203
  135TIP3    H2  349   1.217   6.368   3.905 -0.6384  0.6268  0.2645
  136TIP3   OH2  350   5.718   2.744   1.535 -0.4146 -0.2299 -0.0333
  136TIP3    H1  351   5.671   2.669   1.498 -0.7506 -0.9584  1.8035
  136TIP3    H2  352   5.710   2.813   1.469 -3.0686 -0.7239 -0.2906
  137TIP3   OH2  353   2.910   1.556   1.239 -0.2012  0.6472  0.1988
  137TIP3    H1  354   2.855   1.529   1.165 -0.1944  1.8184 -0.2538
  137TIP3    H2  355   2.931   1.475   1.285 -0.1937 -0.0979 -1.1001
  138TIP3   OH2  356   0.746   6.083   3.799 -0.4166 -0.6152  0.1866
  138TIP3    H1  357   0.692   6.069   3.722  1.7477 -2.5065 -1.0676
  138TIP3    H2  358   0.685   6.081   3.872 -2.4493  0.7354 -1.4205
  139TIP3   OH2  359   5.958   2.161   1.172  0.2434 -0.2970  0.3929
  139TIP3    H1  360   5.949   2.252   1.199 -0.7262 -1.1379  3.0670
  139TIP3    H2  361   6.019   2.164   1.098  1.0008  2.4082  1.0698
  140TIP3   OH2  362   3.975   0.084   2.003  0.1163  0.6979 -0.4688
  140TIP3    H1  363   3.945   0.166   1.965  1.3367  0.5870 -1.7251
  140TIP3    H2  364   4.053   0.061   1.952  0.5252 -0.5841  0.6986
  141TIP3   OH2  365   0.301   6.005   0.112  0.5349  0.2535 -0.1320
  141TIP3    H1  366   0.287   6.046   0.197  1.4282  0.0624  0.1048
  141TIP3    H2  367   0.270   5.915   0.122 -2.1209  1.0185 -0.8580
  142TIP3   OH2  368   1.777   7.099   3.064  0.2608 -0.3020 -0.2443
  142TIP3    H1  369   1.769   7.090   3.159 -2.3568 -0.4486 -0.4385
  142TIP3    H2  370   1.806   7.189   3.051  0.9887 -0.3907  0.7037
  143TIP3   OH2  371   6.768   0.877   2.397  0.8620 -0.3751  0.5138
  143TIP3    H1  372   6.794   0.836   2.315  1.2307 -1.4911  1.1757
  143TIP3    H2  373   6.849   0.883   2.447  1.3277  3.5552 -0.5538
  144TIP3   OH2  374   0.508   7.884   1.646 -0.5649  0.3439  0.3592
  144TIP3    H1  375   0.520   7.907   1.738 -0.5505 -0.6304  0.6057
  144TIP3    H2  376   0.581   7.927   1.601  0.3133 -0.4274  1.0178
  145TIP3   OH2  377   1.635   6.634   1.266 -0.5889  0.2222 -0.3891
  145TIP3    H1  378   1.618   6.651   1.359  2.4032  2.4397 -0.1597
  145TIP3    H2  379   1.719   6.588   1.265 -2.1765 -2.7580 -1.8772
  146TIP3   OH2  380   3.091   1.249   2.477  0.0057 -0.3583  0.2427
  146TIP3    H1  381   3.146   1.194   2.533 -0.4523 -0.0545  1.0004
  146TIP3    H2  382   3.116   1.338   2.498  0.7127 -0.2528 -0.9565
  147TIP3   OH2  383   4.140   0.250   1.093  0.2122 -0.5789 -0.2235
  147TIP3    H1  384   4.167   0.262   1.002  0.6175 -0.7467 -0.1266
  147TIP3    H2  385   4.184   0.320   1.140  1.1280 -1.3371  0.0617
  148TIP3   OH2  386   4.413   0.723   0.290  0.9204 -0.0783 -0.6753
  148TIP3    H1  387   4.444   0.648   0.239  3.6025 -0.1099  0.9222
  148TIP3    H2  388   4.409   0.795   0.227  2.3714 -0.5666 -1.3519
  149TIP3   OH2  389   2.520   6.265   2.686 -0.3798  0.1368  0.0654
  149TIP3    H1  390   2.474   6.192   2.728  0.2090 -0.8551 -0.9989
  149TIP3    H2  391   2.518   6.335   2.751 -2.2416 -0.3303  0.5334
  150TIP3   OH2  392   4.962   1.784   1.568  0.2987 -0.0123 -0.1071
  150TIP3    H1  393   5.018   1.710   1.546 -0.2640 -0.6719  0.6276
  150TIP3    H2  394   4.982   1.850   1.502  1.9429 -0.2242  0.1727
  151TIP3   OH2  395   4.498   1.529   0.744 -0.2883  0.8576  0.7942
  151TIP3    H1  396   4.490   1.526   0.649 -1.6193 -1.3693  0.9544
  151TIP3    H2  397   4.446   1.605   0.770 -0.3127  1.1906 -0.2235
  152TIP3   OH2  398   0.685   7.193   1.693  0.1975  0.8305  0.3315
  152TIP3    H1  399   0.683   7.099   1.674 -1.1016  0.9803 -0.3460
  152TIP3    H2  400   0.694   7.235   1.607 -1.3062  1.3845  0.4372
  153TIP3   OH2  401   3.109   2.262   1.621  0.6104  0.2031  0.3049
  153TIP3    H1  402   3.158   2.255   1.702 -0.5068  0.7430  1.0351
  153TIP3    H2  403   3.056   2.182   1.618 -0.6524  1.0009  0.9863
  154TIP3   OH2  404   1.187   6.702   2.111  0.5217 -0.2506  0.1919
  154TIP3    H1  405   1.108   6.696   2.165  1.4313  1.8568  1.8397
  154TIP3    H2  406   1.164   6.657   2.030 -2.4285  0.4226  0.5900
  155TIP3   OH2  407   2.161   2.145   2.252  0.0712 -0.2642 -0.1955
  155TIP3    H1  408   2.087   2.100   2.293  0.6556  0.0743  1.3014
  155TIP3    H2  409   2.176   2.221   2.308  1.2055 -0.0404 -0.7905
  156TIP3   OH2  410   2.113   7.277   3.615 -0.6563  0.0160 -0.4177
  156TIP3    H1  411   2.152   7.358   3.584  1.8163 -0.9973 -0.0789
  156TIP3    H2  412   2.110   7.287   3.710 -1.5010  0.2191 -0.4686
  157TIP3   OH2  413   1.358   6.730   4.675  0.0030 -0.6566  0.1478
  157TIP3    H1  414   1.405   6.745   4.593  1.2184 -1.9348  0.5809
  157TIP3    H2  415   1.305   6.652   4.658 -1.5957  0.4654 -0.1653
  158TIP3   OH2  416   7.047   5.778   2.825  0.5674 -0.1305 -0.1463
  158TIP3    H1  417   7.013   5.867   2.813  0.1038 -0.3998 -0.8169
  158TIP3    H2  418   7.065   5.772   2.919 -0.4672  0.2868  0.0808
  159TIP3   OH2  419   5.058   0.392   1.936  0.3293  0.2471 -0.4536
  159TIP3    H1  420   5.128   0.345   1.981  0.8073  1.8694  0.5272
  159TIP3    H2  421   4.991   0.405   2.003 -0.6084 -0.6655 -1.2054
  160TIP3   OH2  422   2.194   6.445   3.083  0.0758  0.0125  0.0055
  160TIP3    H1  423   2.208   6.524   3.030  1.0677  0.0237  0.2710
  160TIP3    H2  424   2.220   6.471   3.172 -0.6853 -0.2778  0.3114
  161TIP3   OH2  425   0.410   7.863   0.951 -0.0173  0.3229  0.1938
  161TIP3    H1  426   0.320   7.887   0.929 -0.7177 -1.6699  0.7857
  161TIP3    H2  427   0.405   7.770   0.973  2.0467  0.4018  1.0671
  162TIP3   OH2  428   2.520   1.888   3.039  0.7054  0.0405  0.1035
  162TIP3    H1  429   2.518   1.797   3.009  1.3779  0.2547 -0.6105
  162TIP3    H2  430   2.522   1.940   2.958 -2.2803  0.7856  0.4103
  163TIP3   OH2  431   8.355   2.882   6.710 -0.5449 -0.2572  0.5953
  163TIP3    H1  432   8.348   2.825   6.786  1.3037 -1.2483  0.0488
  163TIP3    H2  433   8.419   2.839   6.653 -1.1716  0.9610 -1.0817
  164TIP3   OH2  434   0.374   6.575   3.051 -0.1327 -0.1848  1.1372
  164TIP3    H1  435   0.381   6.527   3.133  1.4788 -0.1439  1.0365
  164TIP3    H2  436   0.439   6.645   3.058 -0.1065 -0.0653 -0.0993
  165TIP3   OH2  437   8.152   6.414   1.745 -0.8372  0.5661  0.0239
  165TIP3    H1  438   8.101   6.492   1.768  1.4837  2.7806 -2.0251
  165TIP3    H2  439   8.100   6.370   1.678 -1.8602  0.6829  0.7300
  166TIP3   OH2  440   3.261   7.449   2.921  0.4919 -0.5489 -0.2533
  166TIP3    H1  441   3.285   7.523   2.865 -0.5614 -1.1859 -1.5540
  166TIP3    H2  442   3.232   7.381   2.861  0.2020 -1.5700  1.0112
  167TIP3   OH2  443   3.864   2.064   3.215 -0.2168 -0.3387  0.0011
  167TIP3    H1  444   3.915   2.064   3.133 -1.9317 -0.0486 -1.0866
  167TIP3    H2  445   3.929   2.084   3.283  1.1083  0.1322 -1.3603
  168TIP3   OH2  446   4.890   2.357   1.921 -0.0224 -0.5640  0.4821
  168TIP3    H1  447   4.962   2.420   1.913  0.0218 -0.6977 -0.2013
  168TIP3    H2  448   4.934   2.272   1.929 -0.1205 -0.8399 -1.7264
  169TIP3   OH2  449   7.205   1.095   0.966  0.5547  0.1626  0.0441
  169TIP3    H1  450   7.248   1.056   0.890 -0.7931  2.0427 -1.7400
  169TIP3    H2  451   7.259   1.171   0.988 -0.4664  1.1148 -0.6758
  170TIP3   OH2  452   1.969   7.079   1.144  0.4013 -0.4964  0.1772
  170TIP3    H1  453   1.923   7.115   1.068  1.6936  0.4047 -0.1910
  170TIP3    H2  454   1.971   6.984   1.128  1.9806 -0.1709 -1.6548
  171TIP3   OH2  455   2.782   6.794   2.224  0.0582 -0.9168 -0.0199
  171TIP3    H1  456   2.820   6.855   2.287  0.8917 -0.7037 -0.7160
  171TIP3    H2  457   2.695   6.829   2.207  0.9371  0.7414 -1.2645
  172TIP3   OH2  458   2.507   7.651   0.961 -0.4439  0.3732 -0.5906
  172TIP3    H1  459   2.537   7.561   0.963  0.7397  0.7810  0.5253
  172TIP3    H2  460   2.476   7.668   1.050 -0.8186  1.0136 -0.8397
  173TIP3   OH2  461   7.883   6.832   1.241 -0.2103  0.2262  0.0718
  173TIP3    H1  462   7.924   6.782   1.170  0.0933 -1.3871  1.3581
  173TIP3    H2  463   7.789   6.815   1.231 -0.1334 -0.3384  0.3056
  174TIP3   OH2  464   3.323   0.757   0.964 -0.1836 -0.9233  0.2465
  174TIP3    H1  465   3.239   0.714   0.946 -1.2510  1.3855 -0.3933
  174TIP3    H2  466   3.343   0.805   0.884 -0.3694  1.9655  1.8654
  175TIP3   OH2  467   0.155   7.389   0.862  0.1748  0.1598 -0.2285
  175TIP3    H1  468   0.100   7.427   0.794 -0.1369  0.4994  0.2120
  175TIP3    H2  469   0.103   7.316   0.897  0.3890 -0.0970 -0.4407
  176TIP3   OH2  470   3.951   0.196   3.285  0.1549  0.9335 -0.5301
  176TIP3    H1  471   3.861   0.181   3.314  0.5769 -0.3561  0.1531
  176TIP3    H2  472   4.000   0.211   3.366  0.8196  0.1865 -0.7927
  177TIP3   OH2  473   5.558   1.441   1.862 -0.2725 -0.6252 -0.4373
  177TIP3    H1  474   5.593   1.464   1.948  1.1376 -0.3333 -1.0825
  177TIP3    H2  475   5.483   1.499   1.850 -0.5576 -0.7588  0.6408
  178TIP3   OH2  476   5.343   2.154   2.101 -0.1419 -0.1985 -0.4946
  178TIP3    H1  477   5.424   2.118   2.065  0.2737  1.1151 -0.8735
  178TIP3    H2  478   5.346   2.131   2.194  0.1315 -1.1154 -0.7259
  179TIP3   OH2  479   1.095   0.383   1.194  0.0494  0.7688 -0.1915
  179TIP3    H1  480   1.126   0.294   1.210 -0.0099  0.7609 -0.1228
  179TIP3    H2  481   1.174   0.437   1.200  0.1152  0.6982 -0.4203
  180TIP3   OH2  482   1.843   7.422   1.249 -0.0389 -0.6618 -0.3938
  180TIP3    H1  483   1.834   7.507   1.207 -0.2199 -1.0832 -1.2247
  180TIP3    H2  484   1.932   7.393   1.228 -0.1910 -0.9524 -0.6531
  181TIP3   OH2  485   4.754   2.672   2.440  0.2638 -0.1701  0.2525
  181TIP3    H1  486   4.770   2.658   2.346 -0.1575 -1.7586  0.4005
  181TIP3    H2  487   4.825   2.623   2.483 -0.0481 -0.1641  0.7714
  182TIP3   OH2  488   3.492   7.686   1.743  0.2843 -0.0495 -0.1771
  182TIP3    H1  489   3.573   7.639   1.724  0.8209  1.3859 -1.5306
  182TIP3    H2  490   3.426   7.641   1.692  0.5064 -0.2765 -0.2641
  183TIP3   OH2  491   3.488   0.383   1.130  0.5163 -0.4481  0.3737
  183TIP3    H1  492   3.492   0.289   1.110  2.0051 -0.4869  0.7481
  183TIP3    H2  493   3.399   0.409   1.109  0.0289 -2.0049  0.4948
  184TIP3   OH2  494   4.389   1.152   0.624 -0.2953 -0.5535  0.1939
  184TIP3    H1  495   4.330   1.084   0.591  0.6137 -1.6728  0.8802
  184TIP3    H2  496   4.454   1.164   0.555  0.9557 -2.1085  1.0731
  185TIP3   OH2  497   1.334   7.566   2.009  0.1145  0.1421 -0.1866
  185TIP3    H1  498   1.280   7.628   1.960  1.3312  0.3521 -1.3096
  185TIP3    H2  499   1.401   7.539   1.947 -0.5862 -2.5847  0.1834
  186TIP3   OH2  500   5.576   0.577   1.097 -0.1565 -0.0583  0.1685
  186TIP3    H1  501   5.541   0.505   1.044 -1.0220  0.0482  0.5839
  186TIP3    H2  502   5.499   0.616   1.139  0.5529 -0.4140  1.8424
  187TIP3   OH2  503   2.554   7.961   1.673  0.0701 -0.5859  0.9288
  187TIP3    H1  504   2.613   8.031   1.701  1.5191 -1.1693 -0.5573
  187TIP3    H2  505   2.558   7.963   1.577 -1.9762 -0.9471  0.8195
  188TIP3   OH2  506   7.259   0.401   2.920  0.7275  0.0795 -0.4186
  188TIP3    H1  507   7.280   0.482   2.873  0.8105 -0.9583 -2.2251
  188TIP3    H2  508   7.169   0.381   2.895  1.0109 -0.8654 -0.7090
  189TIP3   OH2  509   8.479   3.115   5.969  0.8555  0.0512  0.6458
  189TIP3    H1  510   8.388   3.094   5.952  0.9004 -0.0223  0.5007
  189TIP3    H2  511   8.529   3.062   5.907  0.9572  0.7052  0.1646
  190TIP3   OH2  512   2.395   7.689   3.845  0.4543  0.0713  0.1045
  190TIP3    H1  513   2.351   7.657   3.924  2.1741  0.6050  1.3148
  190TIP3    H2  514   2.472   7.633   3.837  0.0206 -0.3089 -1.5044
  191TIP3   OH2  515   5.593   0.135   0.926 -0.1219 -0.2915 -0.3480
  191TIP3    H1  516   5.571   0.067   0.989  1.6280 -0.4890  0.0772
  191TIP3    H2  517   5.682   0.114   0.898  0.1415  1.3477 -0.8058
  192TIP3   OH2  518   5.800   2.035   0.108 -0.4797  0.5147  0.4764
  192TIP3    H1  519   5.843   2.032   0.023 -0.9336  0.5463  0.2444
  192TIP3    H2  520   5.806   1.946   0.141  0.9754  0.8111  1.0535
  193TIP3   OH2  521   5.939   5.110   6.043 -0.3155  0.6612 -0.0736
  193TIP3    H1  522   5.855   5.153   6.057  0.2173  1.0018  2.4834
  193TIP3    H2  523   5.920   5.038   5.983 -1.8772  2.3536 -1.6719
  194TIP3   OH2  524   7.863   3.287   0.415 -0.0571  0.0370 -0.0032
  194TIP3    H1  525   7.853   3.276   0.321  0.6611  0.1917 -0.1021
  194TIP3    H2  526   7.948   3.247   0.436 -0.1830  0.0559  0.5642
  195TIP3   OH2  527   2.072   7.867   3.025 -0.1863  0.3184  0.5725
  195TIP3    H1  528   2.114   7.825   2.950  2.5009 -0.5545  2.4683
  195TIP3    H2  529   2.000   7.809   3.048  0.9367 -1.1111  0.5990
  196TIP3   OH2  530   3.737   7.534   2.928  0.5245  0.2666  0.8000
  196TIP3    H1  531   3.727   7.629   2.932  0.1084  0.2275  0.7943
  196TIP3    H2  532   3.796   7.512   3.000  1.0944  0.5883  0.4348
  197TIP3   OH2  533   6.867   2.281   1.767  0.0589  0.7893  0.1867
  197TIP3    H1  534   6.898   2.292   1.857  0.9584 -3.1227  0.4745
  197TIP3    H2  535   6.935   2.228   1.725 -1.0264  1.3880 -2.4070
  198TIP3   OH2  536   7.022   1.282   1.308 -0.0678 -0.2262 -0.0838
  198TIP3    H1  537   7.023   1.221   1.381  0.7984 -0.9692 -0.7035
  198TIP3    H2  538   6.972   1.236   1.240  0.1633 -0.0508 -0.3740
  199TIP3   OH2  539   3.551   0.269   0.756 -0.0815  0.6073 -0.2879
  199TIP3    H1  540   3.535   0.189   0.707 -1.6428 -0.3503  1.6755
  199TIP3    H2  541   3.514   0.339   0.702  0.7695 -0.0529 -1.7446
  200TIP3   OH2  542   7.291   2.697   1.553 -0.2527  0.2786  0.3518
  200TIP3    H1  543   7.271   2.764   1.618 -0.0483  3.2851 -2.5301
  200TIP3    H2  544   7.208   2.653   1.537 -0.3561 -0.3075  2.3830
  201TIP3   OH2  545   6.382   0.122   3.544  0.3524 -0.3027  0.1986
  201TIP3    H1  546   6.296   0.121   3.586  0.2332 -1.6748 -0.0400
  201TIP3    H2  547   6.427   0.196   3.583 -0.9333  0.4234  0.3402
  202TIP3   OH2  548   4.471   0.452   1.515 -0.1585 -0.0149  0.5897
  202TIP3    H1  549   4.466   0.359   1.538 -1.0250 -0.5323 -1.5404
  202TIP3    H2  550   4.554   0.482   1.552  0.7356 -1.9614  0.2240
  203TIP3   OH2  551   0.495   4.783   6.784 -0.4426  0.2944 -0.1477
  203TIP3    H1  552   0.582   4.813   6.756 -0.6256  0.4627 -0.5516
  203TIP3    H2  553   0.497   4.789   6.879 -0.5046  1.7022 -0.2243
  204TIP3   OH2  554   5.114   0.469   2.269  0.5343 -0.2963  0.1978
  204TIP3    H1  555   5.026   0.500   2.248  0.8468  0.2394 -0.3327
  204TIP3    H2  556   5.161   0.547   2.297  0.6941 -0.6703  0.9698
  205TIP3   OH2  557   4.814   1.616   0.378  0.4032 -0.2305  0.4125
  205TIP3    H1  558   4.822   1.704   0.341  0.2642 -0.5938 -0.4943
  205TIP3    H2  559   4.728   1.616   0.421  0.5198  0.1617  0.6509
  206TIP3   OH2  560   5.504   1.273   0.385  0.2409 -0.2087 -0.1476
  206TIP3    H1  561   5.471   1.184   0.372  2.2309 -1.1148  0.6857
  206TIP3    H2  562   5.567   1.264   0.457  0.0168  1.9982  0.3467
  207TIP3   OH2  563   5.607   0.783   2.437 -0.2853  0.8272  0.0347
  207TIP3    H1  564   5.577   0.752   2.351 -1.3251 -2.4402  1.4869
  207TIP3    H2  565   5.691   0.825   2.420 -0.6912  0.6275 -2.6516
  208TIP3   OH2  566   7.402   1.067   3.306 -0.2885 -0.5635  0.0186
  208TIP3    H1  567   7.389   0.993   3.365 -0.7664 -0.4533  0.0517
  208TIP3    H2  568   7.445   1.133   3.360 -1.4078 -0.1757  0.4601
  209TIP3   OH2  569   3.244   7.414   2.022  0.1550  0.2204 -0.4178
  209TIP3    H1  570   3.194   7.371   2.091  0.9875  0.2097  0.1809
  209TIP3    H2  571   3.264   7.345   1.959 -1.6886  0.4824 -1.3062
  210TIP3   OH2  572   8.068   1.153   1.509 -0.9676  0.0988  0.5445
  210TIP3    H1  573   8.131   1.125   1.576  0.6828 -0.7706 -1.3227
  210TIP3    H2  574   8.028   1.232   1.546  2.4224  1.6700  1.1458
  211TIP3   OH2  575   6.698   1.522   1.002 -0.0508 -0.3491  0.3150
  211TIP3    H1  576   6.790   1.498   0.996  0.5844  1.7812  0.7682
  211TIP3    H2  577   6.660   1.499   0.917  1.8987  2.5506 -1.4337
  212TIP3   OH2  578   4.316   1.342   4.776 -0.2443 -0.6378 -0.5076
  212TIP3    H1  579   4.251   1.317   4.710 -0.6467 -0.6188 -0.1256
  212TIP3    H2  580   4.271   1.406   4.830  0.0340 -0.7597 -0.1302
  213TIP3   OH2  581   5.054   1.961   0.668 -0.4016 -0.6022 -0.0306
  213TIP3    H1  582   5.048   2.014   0.589  2.3102 -0.7666 -0.3938
  213TIP3    H2  583   5.042   1.871   0.638 -0.1248 -0.5999 -0.1495
  214TIP3   OH2  584   1.376   4.622   6.728 -0.4326 -0.2614  0.1416
  214TIP3    H1  585   1.287   4.603   6.758 -0.1829  0.3260  1.2541
  214TIP3    H2  586   1.425   4.541   6.746 -0.9065 -0.8710 -1.1988
  215TIP3   OH2  587   1.574   2.608   2.105 -0.0360  0.6469 -0.4263
  215TIP3    H1  588   1.545   2.651   2.185  2.4292  2.8613 -0.6158
  215TIP3    H2  589   1.657   2.567   2.129 -0.7244 -1.1967 -1.1281
  216TIP3   OH2  590   2.806   2.752   0.340 -0.3596 -0.3260 -0.4582
  216TIP3    H1  591   2.779   2.842   0.327  0.6424 -0.0504 -0.6590
  216TIP3    H2  592   2.778   2.731   0.430 -1.0444  0.0078 -0.5915
  217TIP3   OH2  593   2.405   1.376   1.698  0.1783  0.1994 -0.2446
  217TIP3    H1  594   2.437   1.286   1.701  0.9736  0.5237  1.0374
  217TIP3    H2  595   2.320   1.373   1.744  0.3800  0.1743  0.1282
  218TIP3   OH2  596   3.157   3.839   1.642  0.2497  0.1115 -0.5520
  218TIP3    H1  597   3.132   3.871   1.556  0.9421  1.9853 -0.0916
  218TIP3    H2  598   3.223   3.902   1.672  1.3980 -1.5784  0.5536
  219TIP3   OH2  599   0.612   7.997   1.874 -0.3866 -0.6618  0.0778
  219TIP3    H1  600   0.679   8.038   1.818 -0.0820 -0.6341  0.4604
  219TIP3    H2  601   0.659   7.972   1.953 -0.8256 -0.6835  0.3322
  220TIP3   OH2  602   8.202   7.235   0.439 -0.4613 -0.2292 -0.2647
  220TIP3    H1  603   8.203   7.308   0.501  0.8045 -0.2819 -0.2194
  220TIP3    H2  604   8.155   7.165   0.485 -0.5924  0.1426  0.1654
  221TIP3   OH2  605   1.485   1.641   0.996 -0.6121 -0.3702  0.0232
  221TIP3    H1  606   1.491   1.550   1.024 -3.8140 -0.4495  0.7001
  221TIP3    H2  607   1.423   1.640   0.923 -1.2005  1.3374  0.4627
  222TIP3   OH2  608   1.964   3.913   2.510  0.3857  0.7929  0.4857
  222TIP3    H1  609   1.946   3.821   2.492  2.7448  0.5105 -0.7061
  222TIP3    H2  610   1.976   3.917   2.605  2.4603 -0.5929  0.3162
  223TIP3   OH2  611   3.202   1.594   0.226 -0.1552 -0.7332  0.1840
  223TIP3    H1  612   3.216   1.679   0.267 -1.1436 -0.9961  1.0983
  223TIP3    H2  613   3.272   1.539   0.260  1.5857  0.1775 -1.8258
  224TIP3   OH2  614   1.270   3.112   2.024 -0.1098  0.1472 -0.1128
  224TIP3    H1  615   1.226   3.041   2.071  0.4219  0.7284  1.2901
  224TIP3    H2  616   1.361   3.082   2.014 -0.2424 -0.0159 -0.8655
  225TIP3   OH2  617   2.799   2.906   1.609 -0.1520 -0.0959 -0.8114
  225TIP3    H1  618   2.767   2.819   1.631 -0.3298 -0.0250 -0.7860
  225TIP3    H2  619   2.764   2.963   1.678  1.0854 -0.2172 -0.0560
  226TIP3   OH2  620   2.812   2.566   1.331  0.0551 -0.1751 -0.6883
  226TIP3    H1  621   2.823   2.473   1.352 -1.9971 -0.2534  0.1230
  226TIP3    H2  622   2.827   2.570   1.236  0.5057 -1.2790 -0.6769
  227TIP3   OH2  623   2.756   1.260   0.361  0.5597 -0.1284 -0.3318
  227TIP3    H1  624   2.775   1.178   0.315  1.0888 -1.5730  2.3456
  227TIP3    H2  625   2.837   1.310   0.355  0.6444 -0.3403 -0.9244
  228TIP3   OH2  626   3.739   3.976   2.487  0.0103  0.0952 -0.2210
  228TIP3    H1  627   3.835   3.973   2.478 -0.0754 -0.8151 -0.9855
  228TIP3    H2  628   3.707   3.966   2.397 -0.8017  0.0393  0.0775
  229TIP3   OH2  629   2.745   3.067   0.037  0.3453  0.6556 -0.0712
  229TIP3    H1  630   2.810   3.063  -0.032  2.4546  1.0919  1.8397
  229TIP3    H2  631   2.727   3.160   0.050 -1.3916  0.5119 -1.2139
  230TIP3   OH2  632   2.100   1.676   2.390 -0.1029  0.8078  0.0644
  230TIP3    H1  633   2.054   1.602   2.350  0.7638  0.2059  0.1885
  230TIP3    H2  634   2.123   1.733   2.316  0.0449  0.5009 -0.1260
  231TIP3   OH2  635   2.216   1.316   2.450  0.2707 -0.3373 -0.1117
  231TIP3    H1  636   2.250   1.386   2.394  0.2183 -1.0939 -1.1099
  231TIP3    H2  637   2.157   1.267   2.392  0.1363 -1.0669  0.6453
  232TIP3   OH2  638   3.135   0.238   1.700 -0.2500 -0.9034  0.1982
  232TIP3    H1  639   3.124   0.289   1.619  1.3063  0.0957  0.5989
  232TIP3    H2  640   3.049   0.199   1.715 -1.1354  0.5980 -0.8073
  233TIP3   OH2  641   0.392   0.580   2.662 -0.9065 -0.5891  0.6969
  233TIP3    H1  642   0.335   0.523   2.610  0.0776 -1.1232  0.1974
  233TIP3    H2  643   0.409   0.530   2.742 -2.0923  0.0638  1.3623
  234TIP3   OH2  644   3.057   5.099   2.063  0.7997  0.2709 -0.3202
  234TIP3    H1  645   3.012   5.073   2.143  2.1799 -0.1118  0.3382
  234TIP3    H2  646   2.988   5.140   2.010 -0.6711 -1.6967 -0.0004
  235TIP3   OH2  647   2.029   1.136   2.337 -0.4802  0.0722  0.0454
  235TIP3    H1  648   1.968   1.100   2.401  0.6069 -2.7385 -0.4052
  235TIP3    H2  649   1.985   1.126   2.253  0.1886 -1.0630 -0.1782
  236TIP3   OH2  650   2.939   5.400   1.653  0.0116  0.2801  0.2430
  236TIP3    H1  651   2.952   5.492   1.628 -1.6185  0.6800  0.8117
  236TIP3    H2  652   2.996   5.351   1.594  0.7247  1.6336 -0.2298
  237TIP3   OH2  653   2.145   2.902   0.826  0.4164 -0.1600  0.2509
  237TIP3    H1  654   2.208   2.833   0.808 -2.9302 -3.0435 -1.0413
  237TIP3    H2  655   2.136   2.948   0.742 -1.1007 -1.4426 -0.3097
  238TIP3   OH2  656   8.405   0.099   2.765  0.0520  0.2576  0.2949
  238TIP3    H1  657   8.356   0.173   2.801 -2.1879  0.4271 -2.8861
  238TIP3    H2  658   8.426   0.126   2.675  1.1244 -2.0878 -0.2054
  239TIP3   OH2  659   5.210   2.692   0.725  0.1563 -0.4163 -0.0301
  239TIP3    H1  660   5.234   2.608   0.686  0.8133 -0.1834 -0.1311
  239TIP3    H2  661   5.131   2.718   0.678 -0.1356 -1.0467  0.1030
  240TIP3   OH2  662   2.969   2.664   0.637 -0.1704  0.0455 -0.3842
  240TIP3    H1  663   2.975   2.643   0.730  0.0965  0.3067 -0.3430
  240TIP3    H2  664   2.878   2.691   0.624 -0.0474  0.5989 -0.0788
  241TIP3   OH2  665   2.058   2.515   1.763  0.0453  0.2435 -0.0394
  241TIP3    H1  666   1.965   2.492   1.760  0.3277 -0.8518 -0.6221
  241TIP3    H2  667   2.097   2.465   1.691  1.1273  0.4997  0.3671
  242TIP3   OH2  668   2.642   3.227   2.120 -0.2403 -1.1164 -0.2433
  242TIP3    H1  669   2.625   3.253   2.030 -4.0092 -0.1298  0.6875
  242TIP3    H2  670   2.660   3.310   2.166 -0.4525 -1.3996  0.3525
  243TIP3   OH2  671   2.074   2.795   1.664  0.3542  0.3956  0.0291
  243TIP3    H1  672   1.989   2.769   1.629  0.5553 -1.4147  0.8357
  243TIP3    H2  673   2.088   2.884   1.631 -1.2625  0.2165 -1.1578
  244TIP3   OH2  674   2.817   2.443   3.371  0.3373 -0.0919 -0.4666
  244TIP3    H1  675   2.819   2.356   3.411  0.9426  0.0110 -0.2652
  244TIP3    H2  676   2.828   2.426   3.277  4.2478 -0.0236 -0.0853
  245TIP3   OH2  677   3.280   2.259   0.806 -0.1375  0.0913 -0.3066
  245TIP3    H1  678   3.204   2.224   0.759 -0.1738 -1.9019  1.1600
  245TIP3    H2  679   3.344   2.188   0.804  1.1087  1.1833 -0.1711
  246TIP3   OH2  680   4.128   3.927   0.203 -0.0182 -0.5643 -0.0841
  246TIP3    H1  681   4.127   3.855   0.266  1.0077 -0.6911 -0.2101
  246TIP3    H2  682   4.136   3.885   0.118 -0.1870 -0.3394 -0.2119
  247TIP3   OH2  683   2.017   1.608   1.685  0.0313  0.5214 -0.0765
  247TIP3    H1  684   1.948   1.674   1.692  1.4954  2.0553  0.4871
  247TIP3    H2  685   2.021   1.568   1.772 -0.7374 -0.1947 -0.3668
  248TIP3   OH2  686   4.811   0.644   2.620  0.0541  0.1476 -0.0638
  248TIP3    H1  687   4.866   0.616   2.548  0.7319  1.1291  0.0668
  248TIP3    H2  688   4.864   0.629   2.699 -0.0893  0.5196  0.1081
  249TIP3   OH2  689   2.774   4.027   1.483  0.3640  0.0536  0.2073
  249TIP3    H1  690   2.782   4.031   1.578 -1.2600  1.3518  0.3182
  249TIP3    H2  691   2.709   3.958   1.468 -2.0089  2.1986  0.2477
  250TIP3   OH2  692   4.166   1.034   4.144 -0.9445  0.5894 -0.2651
  250TIP3    H1  693   4.215   1.008   4.066 -1.7752 -2.4485  0.1321
  250TIP3    H2  694   4.190   1.125   4.159  3.1666 -0.2268 -1.1453
  251TIP3   OH2  695   1.319   3.370   1.184 -0.3311  0.1873 -0.3065
  251TIP3    H1  696   1.322   3.298   1.247 -1.5098  1.4871  1.2616
  251TIP3    H2  697   1.365   3.441   1.226  0.5115  0.4844 -1.7094
  252TIP3   OH2  698   0.970   2.626   2.388  0.1144 -0.2335 -0.0358
  252TIP3    H1  699   0.927   2.638   2.473  0.7395 -1.6925  0.5097
  252TIP3    H2  700   1.059   2.656   2.402  0.1478 -0.2304 -0.2547
  253TIP3   OH2  701   3.017   1.448   0.387 -0.4120  0.4741  0.1774
  253TIP3    H1  702   3.048   1.520   0.331 -0.8354  0.4715 -0.0687
  253TIP3    H2  703   2.947   1.488   0.439 -1.2355  0.0342 -0.5713
  254TIP3   OH2  704   2.403   2.230   1.720 -0.0376  0.0074  0.2037
  254TIP3    H1  705   2.473   2.274   1.768  0.9575 -0.7797 -0.5189
  254TIP3    H2  706   2.424   2.137   1.725 -1.0514 -0.2415  0.0020
  255TIP3   OH2  707   1.257   1.430   0.477 -0.1978 -0.6190  0.2185
  255TIP3    H1  708   1.349   1.420   0.451  0.0114 -0.3963  0.8504
  255TIP3    H2  709   1.207   1.409   0.399  0.4408  2.0293 -0.9523
  256TIP3   OH2  710   2.673   2.710   0.994  0.1262  0.1159  0.0973
  256TIP3    H1  711   2.726   2.650   1.047 -0.3401 -0.1257  0.2883
  256TIP3    H2  712   2.733   2.782   0.972  0.8799 -0.7419 -0.6924
  257TIP3   OH2  713   0.340   7.929   1.301 -0.0577 -0.1154  0.1407
  257TIP3    H1  714   0.385   7.990   1.359 -0.9829  0.1508  0.5846
  257TIP3    H2  715   0.409   7.873   1.267  0.3634 -0.9785  2.3389
  258TIP3   OH2  716   2.231   2.624   1.492  0.0821 -0.4848  0.6154
  258TIP3    H1  717   2.198   2.544   1.532 -0.1612 -0.3503  0.6847
  258TIP3    H2  718   2.324   2.607   1.477  0.2001 -0.5056  1.3287
  259TIP3   OH2  719   0.564   0.897   3.925 -0.3851 -0.3915  0.6601
  259TIP3    H1  720   0.614   0.849   3.859 -0.3762 -1.4249  1.4062
  259TIP3    H2  721   0.473   0.872   3.910 -0.8276  2.1199 -1.2263
  260TIP3   OH2  722   0.371   7.673   0.390 -0.4253  0.1866 -0.7426
  260TIP3    H1  723   0.402   7.673   0.481 -0.3076 -0.1212 -0.7825
  260TIP3    H2  724   0.278   7.693   0.396 -0.0542  2.0014 -0.6773
  261TIP3   OH2  725   4.802   1.430   2.112 -0.4976 -0.8357  0.2409
  261TIP3    H1  726   4.781   1.337   2.110 -1.8822 -0.5293 -3.6561
  261TIP3    H2  727   4.747   1.469   2.043 -0.0942  2.8941  1.8827
  262TIP3   OH2  728   1.550   0.522   3.050  0.0790  0.0270 -0.6154
  262TIP3    H1  729   1.615   0.592   3.056  0.2208 -0.2885  1.6639
  262TIP3    H2  730   1.466   0.568   3.055  0.1547  0.1228 -0.2490
  263TIP3   OH2  731   2.760   2.553   2.183 -0.4127  0.8097 -0.0186
  263TIP3    H1  732   2.835   2.528   2.130 -1.2085 -1.8713  0.0822
  263TIP3    H2  733   2.795   2.620   2.242  1.1667  1.7423 -1.9305
  264TIP3   OH2  734   3.610   2.941   1.825 -0.2497  0.8184 -0.1097
  264TIP3    H1  735   3.677   2.936   1.894 -0.9490 -0.1037  0.5240
  264TIP3    H2  736   3.640   3.011   1.767  0.2975  1.6962  1.1978
  265TIP3   OH2  737   3.003   1.405   2.795  0.5269 -0.7082 -0.1775
  265TIP3    H1  738   3.062   1.378   2.725  1.3657  0.2553  0.1632
  265TIP3    H2  739   3.027   1.495   2.814  0.7667 -1.1869  1.8427
  266TIP3   OH2  740   2.482   1.054   1.629  0.0791 -0.2653 -0.1095
  266TIP3    H1  741   2.421   1.039   1.557  0.3412 -0.3962 -0.3043
  266TIP3    H2  742   2.567   1.068   1.587 -0.2214  2.2035  0.0593
  267TIP3   OH2  743   1.641   7.800   1.387  0.2184 -0.6726 -0.2087
  267TIP3    H1  744   1.727   7.841   1.395  0.1799 -0.3641 -1.2997
  267TIP3    H2  745   1.659   7.707   1.379  0.2568 -1.0619  3.4548
  268TIP3   OH2  746   1.086   4.284   1.861  0.2303  0.2920 -0.5049
  268TIP3    H1  747   1.130   4.199   1.867 -0.2478  0.0139 -0.8418
  268TIP3    H2  748   0.997   4.266   1.893  0.1786  0.7046 -0.4217
  269TIP3   OH2  749   4.024   2.260   1.061 -0.0230  0.0481  0.9858
  269TIP3    H1  750   3.970   2.313   1.002 -1.1312 -1.5204  0.5715
  269TIP3    H2  751   3.973   2.254   1.141 -0.8759 -2.1176  0.3196
  270TIP3   OH2  752   1.711   2.183   0.357  0.2761 -0.2407 -0.0496
  270TIP3    H1  753   1.651   2.224   0.294  1.3833 -0.5393 -1.3184
  270TIP3    H2  754   1.681   2.214   0.442 -0.2261  1.4836 -0.8414
  271TIP3   OH2  755   3.940   0.100   0.433  0.1753  0.2736 -0.8242
  271TIP3    H1  756   3.926   0.089   0.527 -2.0145  0.3782 -1.1075
  271TIP3    H2  757   3.923   0.013   0.396  1.1677  0.1996 -1.1061
  272TIP3   OH2  758   7.473   7.897   0.562  0.5717  0.4337  0.2073
  272TIP3    H1  759   7.428   7.813   0.571 -0.3583  0.6735 -1.9654
  272TIP3    H2  760   7.512   7.912   0.648 -1.1702 -1.1166  1.3028
  273TIP3   OH2  761   0.216   1.323   0.185 -0.0275 -0.5938 -0.3625
  273TIP3    H1  762   0.122   1.335   0.197  0.0485 -0.7805  0.4320
  273TIP3    H2  763   0.257   1.380   0.251  0.4146 -0.5119 -0.7011
  274TIP3   OH2  764   2.584   1.457   2.741  0.1779  0.2932 -0.0425
  274TIP3    H1  765   2.518   1.516   2.704 -1.3159 -0.6478  1.0799
  274TIP3    H2  766   2.614   1.501   2.820 -0.8349 -0.3720  0.7196
  275TIP3   OH2  767   2.591   0.486   3.527  0.2401  0.3194 -0.4979
  275TIP3    H1  768   2.562   0.539   3.454 -0.9922 -1.0251 -1.0057
  275TIP3    H2  769   2.566   0.397   3.503  1.7260 -0.4157  0.6015
  276TIP3   OH2  770   4.208   2.413   2.397 -0.8285  0.3246 -0.0854
  276TIP3    H1  771   4.303   2.420   2.407 -0.6099 -1.0060 -1.0995
  276TIP3    H2  772   4.185   2.328   2.436 -1.6325  0.7363  0.3542
  277TIP3   OH2  773   1.966   1.811   2.997  0.1380 -0.0641 -0.2103
  277TIP3    H1  774   1.930   1.757   2.926  0.2706 -0.4032 -0.0252
  277TIP3    H2  775   1.974   1.750   3.070  1.5595 -0.1147 -0.3930
  278TIP3   OH2  776   3.565   2.141   3.262  0.4187 -0.4766 -0.0224
  278TIP3    H1  777   3.632   2.082   3.228  1.3924  1.2675 -1.2311
  278TIP3    H2  778   3.567   2.216   3.202 -1.0389  0.6072  1.2578
  279TIP3   OH2  779   0.634   7.456   2.453 -0.0295  0.0851 -0.2218
  279TIP3    H1  780   0.636   7.492   2.364 -1.3232 -1.3676 -0.8625
  279TIP3    H2  781   0.559   7.499   2.494 -0.3031 -0.3160 -0.3022
  280TIP3   OH2  782   1.831   4.229   2.203 -0.0294  0.4291 -0.3116
  280TIP3    H1  783   1.844   4.135   2.190 -0.3329  0.2329  0.7747
  280TIP3    H2  784   1.798   4.237   2.292 -0.6353  1.5187 -0.6219
  281TIP3   OH2  785   1.004   1.905   3.453  0.2167  0.2175  0.4144
  281TIP3    H1  786   0.951   1.984   3.436  1.5329  1.5484  2.2962
  281TIP3    H2  787   1.094   1.934   3.440  0.8432 -0.4300  3.0404
  282TIP3   OH2  788   3.352   3.969   2.388  0.6928 -0.3329  0.1282
  282TIP3    H1  789   3.437   4.000   2.358 -0.0854  0.8548 -0.9455
  282TIP3    H2  790   3.352   3.876   2.368  1.3775 -0.1510 -0.7675
  283TIP3   OH2  791   8.228   6.258   6.672  0.2700  0.3737 -0.5372
  283TIP3    H1  792   8.317   6.272   6.704  0.5169  0.2086 -1.1516
  283TIP3    H2  793   8.225   6.301   6.587  0.3539 -1.2837 -1.4004
  284TIP3   OH2  794   6.087   7.139   5.779  0.0127 -0.2253 -0.5931
  284TIP3    H1  795   6.103   7.230   5.754  0.9265 -0.0045  0.7835
  284TIP3    H2  796   6.085   7.140   5.874  0.1514 -1.6722 -0.5707
  285TIP3   OH2  797   1.934   0.094   2.863  0.2170 -0.2558 -0.1672
  285TIP3    H1  798   1.935  -0.000   2.878 -3.1020 -0.5197 -1.2719
  285TIP3    H2  799   1.941   0.133   2.950 -1.2224 -1.5591  0.5376
  286TIP3   OH2  800   0.986   1.887   0.520 -0.0067 -0.5010 -0.0059
  286TIP3    H1  801   0.897   1.868   0.551 -0.2337 -0.5474 -0.6944
  286TIP3    H2  802   0.974   1.952   0.451  0.4800 -0.6490 -0.2278
  287TIP3   OH2  803   3.489   1.851   1.826  0.0439 -0.3496 -0.1080
  287TIP3    H1  804   3.406   1.863   1.779  0.2068  0.2432 -0.2516
  287TIP3    H2  805   3.464   1.809   1.908 -0.3675 -0.4026 -0.2544
  288TIP3   OH2  806   3.702   1.079   1.043  0.5451 -0.0805 -0.4343
  288TIP3    H1  807   3.705   1.160   1.095 -2.6802  0.2822 -0.6988
  288TIP3    H2  808   3.666   1.106   0.959 -1.9523 -2.0047 -0.0364
  289TIP3   OH2  809   6.197   6.682   6.265  0.0286  0.1155 -0.2626
  289TIP3    H1  810   6.238   6.608   6.222  0.0339  0.3031 -0.5804
  289TIP3    H2  811   6.173   6.742   6.194 -2.5857 -0.8812 -0.2839
  290TIP3   OH2  812   0.426   7.801   6.734  0.1888 -0.0865  0.5240
  290TIP3    H1  813   0.499   7.756   6.691 -0.7591 -0.1490 -1.0334
  290TIP3    H2  814   0.376   7.731   6.776  0.3435 -0.1724  0.5649
  291TIP3   OH2  815   3.273   2.866   0.899 -0.3785  0.1300  0.0324
  291TIP3    H1  816   3.206   2.915   0.850  0.5689  1.9451  0.4886
  291TIP3    H2  817   3.253   2.885   0.991 -0.4127 -0.9354  0.2526
  292TIP3   OH2  818   2.719   2.018   0.290 -0.1250  0.7023 -0.3456
  292TIP3    H1  819   2.797   1.967   0.310 -0.7526 -1.1278 -2.3888
  292TIP3    H2  820   2.678   2.034   0.376  1.8291  0.6536  0.6174
  293TIP3   OH2  821   6.290   2.200   1.110 -0.3612 -0.4115  0.6258
  293TIP3    H1  822   6.313   2.251   1.032  0.3098 -0.9938  0.4399
  293TIP3    H2  823   6.325   2.113   1.093 -0.6362 -0.6697  1.3735
  294TIP3   OH2  824   5.903   2.148   0.518 -0.2462 -0.1815 -0.0649
  294TIP3    H1  825   5.815   2.142   0.555 -0.5046  1.9015 -0.2644
  294TIP3    H2  826   5.961   2.130   0.591 -0.8111  0.6988  0.6160
  295TIP3   OH2  827   1.916   3.399   2.628  0.0581 -0.2758 -0.2774
  295TIP3    H1  828   1.942   3.310   2.652  1.7396 -0.3487 -2.2086
  295TIP3    H2  829   1.954   3.454   2.696  1.0807 -0.8504 -0.3654
  296TIP3   OH2  830   8.237   3.079   4.585 -0.5141  0.1857 -0.0668
  296TIP3    H1  831   8.172   3.106   4.520  0.5469  0.5466 -0.9946
  296TIP3    H2  832   8.234   3.147   4.652 -0.8538  0.3809 -0.2798
  297TIP3   OH2  833   3.430   0.184   3.103  0.5388  0.3416 -0.1266
  297TIP3    H1  834   3.420   0.181   3.008  1.6703 -0.4590 -0.2311
  297TIP3    H2  835   3.343   0.162   3.137 -0.3026  2.2158 -0.9544
  298TIP3   OH2  836   5.869   4.343   5.940  0.0255  0.2106  0.4071
  298TIP3    H1  837   5.847   4.301   5.857  1.2446  2.2865 -1.0259
  298TIP3    H2  838   5.947   4.296   5.970 -0.4397 -0.5738  0.4041
  299TIP3   OH2  839   2.662   1.747   1.536  1.0081 -0.1545 -0.2115
  299TIP3    H1  840   2.606   1.670   1.525 -0.2438  0.7193 -0.1763
  299TIP3    H2  841   2.673   1.754   1.631  0.1647  0.3674 -0.1490
  300TIP3   OH2  842   4.187   2.309   2.155 -0.4230  0.0025 -0.2108
  300TIP3    H1  843   4.171   2.374   2.087 -0.0524  0.9367  0.5841
  300TIP3    H2  844   4.178   2.357   2.237  0.9158 -0.7042  0.3713
  301TIP3   OH2  845   0.958   6.865   5.903 -0.7228 -0.1207 -0.2271
  301TIP3    H1  846   1.023   6.904   5.961 -2.7653  3.0326  0.0702
  301TIP3    H2  847   0.971   6.908   5.819 -0.9534 -1.1607 -0.8122
  302TIP3   OH2  848   3.757   1.938   2.133 -0.0127  0.1435  0.1975
  302TIP3    H1  849   3.853   1.936   2.142 -0.0964 -0.8448  0.9330
  302TIP3    H2  850   3.726   1.872   2.195 -0.9973 -1.5604 -2.0357
  303TIP3   OH2  851   0.753   6.933   3.131 -0.0882 -0.2657  0.1989
  303TIP3    H1  852   0.742   7.024   3.104  0.6832  0.1202  1.1652
  303TIP3    H2  853   0.839   6.908   3.098 -0.1929 -0.5755  0.1542
  304TIP3   OH2  854   4.120   0.873   1.629 -0.4064  0.0103 -0.5424
  304TIP3    H1  855   4.122   0.791   1.580  1.9813  0.0005 -0.4788
  304TIP3    H2  856   4.129   0.942   1.563  0.3100  0.1032 -0.3508
  305TIP3   OH2  857   4.087   0.678   0.947  0.4263  0.8204  0.1051
  305TIP3    H1  858   4.101   0.586   0.969  1.0309  0.6200 -1.0866
  305TIP3    H2  859   4.169   0.721   0.968  0.3789  0.9626  0.0039
  306TIP3   OH2  860   6.234   2.397   2.923  0.2642  0.2787  0.5742
  306TIP3    H1  861   6.233   2.383   3.018 -0.6036  0.4932  0.5999
  306TIP3    H2  862   6.235   2.309   2.886 -0.5668  0.1793  0.7772
  307TIP3   OH2  863   5.992   1.591   2.481  0.5517 -0.0065 -0.1660
  307TIP3    H1  864   6.080   1.584   2.443  1.4115  0.1728  1.7122
  307TIP3    H2  865   6.006   1.640   2.563 -0.8608 -2.3860  1.5528
  308TIP3   OH2  866   3.031   0.729   3.141 -0.3793  0.1203  0.0790
  308TIP3    H1  867   2.986   0.811   3.159 -0.2620  0.2092 -0.0345
  308TIP3    H2  868   3.045   0.728   3.047  2.7890  1.6392  0.4584
  309TIP3   OH2  869   5.097   1.257   0.132 -0.2163  0.0063  0.1356
  309TIP3    H1  870   5.160   1.323   0.159 -0.3411  0.1667  0.0347
  309TIP3    H2  871   5.135   1.218   0.053  0.3626 -0.7682  0.7830
  310TIP3   OH2  872   5.594   1.743   2.640  0.2638 -0.9297  0.0858
  310TIP3    H1  873   5.586   1.836   2.620 -0.4588 -1.0003  0.0444
  310TIP3    H2  874   5.545   1.698   2.570 -1.1711 -1.2338  1.2682
  311TIP3   OH2  875   8.405   5.469   6.880 -0.5695 -0.1500  0.8696
  311TIP3    H1  876   8.374   5.385   6.914 -0.5950  0.3602  2.1257
  311TIP3    H2  877   8.333   5.530   6.896  0.1332  0.5039  1.5911
  312TIP3   OH2  878   4.697   1.173   2.179  0.2667  0.4948 -0.1020
  312TIP3    H1  879   4.730   1.093   2.220 -0.3497  0.0259 -0.5147
  312TIP3    H2  880   4.614   1.148   2.139  0.7170  1.0157 -1.3922
  313TIP3   OH2  881   2.672   0.743   0.199 -0.5439 -0.0228 -0.0321
  313TIP3    H1  882   2.705   0.717   0.113  1.7254  0.3473  0.6863
  313TIP3    H2  883   2.629   0.827   0.184  2.1622  1.3506 -0.3868
  314TIP3   OH2  884   7.051   1.777   1.695  0.0218  0.5491  0.3240
  314TIP3    H1  885   7.057   1.720   1.772  0.1642  1.3104  0.8774
  314TIP3    H2  886   6.959   1.772   1.669 -0.2100  0.9766  1.0647
  315TIP3   OH2  887   2.226   7.518   1.910 -0.5687 -0.4173 -0.6004
  315TIP3    H1  888   2.274   7.579   1.966  1.0092  0.7926 -3.1702
  315TIP3    H2  889   2.187   7.455   1.971  2.4899 -0.1715  1.7580
  316TIP3   OH2  890   8.488   7.301   1.139  0.0374  0.5555 -0.0022
  316TIP3    H1  891   8.428   7.284   1.212  0.7233  0.4322  0.5326
  316TIP3    H2  892   8.555   7.359   1.175  1.5804 -1.2141  0.0888
  317TIP3   OH2  893   2.112   7.327   1.188  0.2385  0.4424 -0.5201
  317TIP3    H1  894   2.207   7.334   1.189  0.4045 -1.1856 -1.4836
  317TIP3    H2  895   2.096   7.233   1.177 -1.4335  0.9359 -2.6304
  318TIP3   OH2  896   6.727   3.106   0.907  0.2336 -0.1728 -0.3698
  318TIP3    H1  897   6.757   3.134   0.820  0.2994  0.2617 -0.2032
  318TIP3    H2  898   6.758   3.015   0.914 -2.3878 -1.2964 -2.0826
  319TIP3   OH2  899   1.600   1.162   0.551 -0.4293 -0.2197  0.0178
  319TIP3    H1  900   1.589   1.101   0.624 -1.2148 -0.4453 -0.2718
  319TIP3    H2  901   1.691   1.189   0.555  0.1836 -2.1396 -0.3965
  320TIP3   OH2  902   8.425   3.576   5.150  0.8130  0.7963  0.2444
  320TIP3    H1  903   8.490   3.507   5.161  0.6757  0.4475 -1.0659
  320TIP3    H2  904   8.472   3.646   5.104  0.8912  1.4947  1.3724
  321TIP3   OH2  905   1.938   7.972   0.576  0.1642  0.4118 -0.0082
  321TIP3    H1  906   2.009   7.920   0.614 -0.3987 -0.5491 -0.2473
  321TIP3    H2  907   1.945   8.057   0.619  1.2877  0.2396  0.1736
  322TIP3   OH2  908   7.772   7.706   6.658  0.1495 -0.0425  0.1284
  322TIP3    H1  909   7.821   7.771   6.607 -3.3348  1.6697 -1.2160
  322TIP3    H2  910   7.760   7.748   6.743 -0.7800  0.4755 -0.2452
  323TIP3   OH2  911   4.714   3.311   1.308  0.5173 -0.3960  0.1507
  323TIP3    H1  912   4.758   3.238   1.350  0.6816  0.3142  1.2383
  323TIP3    H2  913   4.674   3.360   1.380  2.7016  2.1005 -0.2439
  324TIP3   OH2  914   4.547   1.676   0.454  0.0766 -0.2476  0.4477
  324TIP3    H1  915   4.465   1.631   0.476 -0.2651  0.6216  0.9983
  324TIP3    H2  916   4.519   1.752   0.402  0.6380 -0.6161 -0.3991
  325TIP3   OH2  917   3.820   0.175   1.612  0.5365  1.0104  0.3933
  325TIP3    H1  918   3.841   0.145   1.524 -2.2029 -0.1445  0.0802
  325TIP3    H2  919   3.760   0.249   1.599  1.0654  1.6168  1.2887
  326TIP3   OH2  920   3.142   2.795   1.622  0.4646  0.1912  0.3198
  326TIP3    H1  921   3.056   2.837   1.628  0.1201 -0.1251 -2.0486
  326TIP3    H2  922   3.204   2.860   1.655 -0.2365  1.9452 -1.7973
  327TIP3   OH2  923   5.254   1.267   1.102 -0.0990 -0.5746 -0.0517
  327TIP3    H1  924   5.317   1.288   1.034  0.4120 -0.1917  0.5336
  327TIP3    H2  925   5.282   1.319   1.178 -0.1797 -1.6011  0.7000
  328TIP3   OH2  926   4.579   0.920   3.068 -0.1220 -0.0993 -0.3543
  328TIP3    H1  927   4.618   0.839   3.037  1.3516  0.8994 -1.1353
  328TIP3    H2  928   4.652   0.979   3.081 -1.3499  1.8639 -1.9915
  329TIP3   OH2  929   7.916   7.326   3.946 -0.2055 -0.0648  0.6405
  329TIP3    H1  930   7.954   7.327   3.858 -1.5480 -0.0593  0.0444
  329TIP3    H2  931   7.925   7.235   3.976 -3.5011 -1.0949 -1.2159
  330TIP3   OH2  932   4.576   2.658   1.228 -0.4623  0.0273 -0.3401
  330TIP3    H1  933   4.583   2.742   1.273  1.2183 -1.2862  1.9179
  330TIP3    H2  934   4.535   2.599   1.292  0.5343 -1.4844 -1.0640
  331TIP3   OH2  935   4.997   0.377   0.145  0.2163 -0.2072  0.0324
  331TIP3    H1  936   5.004   0.303   0.084  0.1505  0.4935 -0.8293
  331TIP3    H2  937   4.914   0.363   0.191  0.2442 -0.7096 -0.0695
  332TIP3   OH2  938   5.653   7.923   6.168  0.0736  0.1115 -0.3334
  332TIP3    H1  939   5.568   7.965   6.182  0.4491  0.3382  1.4004
  332TIP3    H2  940   5.707   7.956   6.239  1.3587 -0.7260 -0.9138
  333TIP3   OH2  941   0.618   7.713   0.012  0.2263 -0.0909 -0.1192
  333TIP3    H1  942   0.539   7.733  -0.039  0.4276  2.0847  0.3863
  333TIP3    H2  943   0.588   7.653   0.080 -0.5427 -1.0065 -1.2437
  334TIP3   OH2  944   2.055   2.558   1.137 -0.4046 -0.0789  0.4418
  334TIP3    H1  945   2.146   2.570   1.109 -0.6484 -1.2926 -0.9406
  334TIP3    H2  946   2.027   2.478   1.092 -2.3948  0.7205  0.2479
  335TIP3   OH2  947   1.471   7.151   0.122 -0.9469  0.5751 -0.0263
  335TIP3    H1  948   1.559   7.124   0.147 -1.7134  0.5274  2.7715
  335TIP3    H2  949   1.484   7.226   0.065  0.9079  0.8996  0.7924
  336TIP3   OH2  950   2.422   6.701   1.391  0.4735  0.1200  0.0519
  336TIP3    H1  951   2.399   6.784   1.432  1.0861  0.6571 -0.6917
  336TIP3    H2  952   2.496   6.721   1.333  0.6589 -0.9434 -0.0997
  337TIP3   OH2  953   1.334   6.831   1.351 -0.6982  0.4236  0.9561
  337TIP3    H1  954   1.394   6.887   1.400  0.6248 -2.0138  2.2158
  337TIP3    H2  955   1.381   6.813   1.269 -0.6950  0.3316  0.9786
  338TIP3   OH2  956   0.316   5.533   6.820 -0.3208 -0.2141 -0.3000
  338TIP3    H1  957   0.240   5.528   6.762 -1.6084  0.8739  1.2541
  338TIP3    H2  958   0.280   5.536   6.908  1.3301  3.4881  0.3685
  339TIP3   OH2  959   4.805   1.737   2.176  0.4966 -0.4435 -0.5893
  339TIP3    H1  960   4.766   1.707   2.258 -1.7241  0.3408 -1.3198
  339TIP3    H2  961   4.825   1.657   2.128 -1.9038 -0.8550 -0.9456
  340TIP3   OH2  962   4.494   4.753   6.589 -0.4203 -0.2418 -0.1268
  340TIP3    H1  963   4.528   4.707   6.512 -0.8411  0.2611 -0.6215
  340TIP3    H2  964   4.554   4.730   6.660 -0.0228 -0.7020 -0.6112
  341TIP3   OH2  965   4.042   0.581   1.879 -0.4191 -0.5943 -0.2767
  341TIP3    H1  966   4.112   0.584   1.814  0.2090 -1.4482  0.3488
  341TIP3    H2  967   3.980   0.649   1.852 -1.3570 -2.5118 -3.1320
  342TIP3   OH2  968   4.276   1.191   1.029  0.1040 -0.4971 -0.2991
  342TIP3    H1  969   4.343   1.222   0.969  0.7006 -0.4876  0.3669
  342TIP3    H2  970   4.288   1.244   1.108 -0.4696 -0.7214 -0.0562
  343TIP3   OH2  971   3.613   0.149   0.994  0.5681 -0.0068  0.6298
  343TIP3    H1  972   3.584   0.214   0.929  0.1385 -1.5866 -0.7727
  343TIP3    H2  973   3.690   0.190   1.034 -1.3015  2.5667  1.7277
  344TIP3   OH2  974   1.671   7.453   0.395 -0.1626 -0.4863 -0.1983
  344TIP3    H1  975   1.684   7.390   0.465 -1.0514 -0.2928  0.1554
  344TIP3    H2  976   1.734   7.428   0.327  1.4765 -0.0029  1.1177
  345TIP3   OH2  977   8.460   4.620   6.867 -0.3960  0.0832  0.3430
  345TIP3    H1  978   8.481   4.584   6.781 -0.1336  1.1574 -0.0576
  345TIP3    H2  979   8.373   4.660   6.855  0.2536  1.4764  0.1739
  346TIP3   OH2  980   1.845   6.118   0.284  0.3763  0.2456 -0.4176
  346TIP3    H1  981   1.887   6.124   0.370  0.5479  2.1794 -0.6097
  346TIP3    H2  982   1.763   6.073   0.300 -0.2061  1.7719  1.0092
  347TIP3   OH2  983   6.398   1.726   3.023  0.5973 -0.0922 -0.0827
  347TIP3    H1  984   6.485   1.766   3.012  0.2149  0.8137  0.1271
  347TIP3    H2  985   6.417   1.636   3.049  1.4801  0.1395  0.1249
  348TIP3   OH2  986   6.555   5.212   6.482  0.1724 -0.0415 -0.0846
  348TIP3    H1  987   6.553   5.278   6.412  2.7217  0.0700 -0.1015
  348TIP3    H2  988   6.606   5.253   6.552  0.6780 -1.4925  0.4165
  349TIP3   OH2  989   1.986   2.037   1.299  0.1629  0.4522  1.0757
  349TIP3    H1  990   2.027   2.119   1.324  0.2061  0.5610  0.6473
  349TIP3    H2  991   2.038   2.004   1.226  0.4707 -0.2269  1.5888
  350TIP3   OH2  992   6.215   2.878   1.640 -0.0668  0.3197  0.3389
  350TIP3    H1  993   6.306   2.908   1.636 -0.1646  0.5759  0.0143
  350TIP3    H2  994   6.219   2.786   1.613 -0.0694  0.6844 -0.9294
  351TIP3   OH2  995   3.157   1.447   0.958  0.6398 -0.4590 -0.1790
  351TIP3    H1  996   3.145   1.366   1.006  2.0985 -1.2814 -1.1804
  351TIP3    H2  997   3.116   1.430   0.873  0.6909 -0.0444 -0.2867
  352TIP3   OH2  998   5.121   2.494   1.673 -0.1810 -0.7447 -0.1927
  352TIP3    H1  999   5.032   2.498   1.638 -0.3192 -0.0947  0.2191
  352TIP3    H2 1000   5.153   2.407   1.649 -0.3172 -0.3633 -1.8248
  353TIP3   OH2 1001   7.221   1.746   2.131 -0.6054  0.3312 -0.1452
  353TIP3    H1 1002   7.197   1.835   2.105 -3.0318 -0.1857  0.2095
  353TIP3    H2 1003   7.191   1.737   2.221 -0.7401 -0.9479 -0.2942
  354TIP3   OH2 1004   6.679   3.443   6.243 -0.2149  0.5609  0.0846
  354TIP3    H1 1005   6.649   3.505   6.308  0.4841  0.9003  0.0904
  354TIP3    H2 1006   6.650   3.358   6.276  1.2565  0.5875  1.5048
  355TIP3   OH2 1007   3.714   1.172   0.113  0.0882  0.2971  0.6059
  355TIP3    H1 1008   3.670   1.123   0.044 -1.6342 -0.4527  2.1754
  355TIP3    H2 1009   3.803   1.137   0.116 -0.5366 -1.3495  0.3721
  356TIP3   OH2 1010   7.884   6.057   6.781  0.2504 -0.1873  0.4117
  356TIP3    H1 1011   7.884   6.150   6.761  0.4013 -0.7019 -2.2002
  356TIP3    H2 1012   7.957   6.045   6.841  1.4097  1.0914 -0.7048
  357TIP3   OH2 1013   0.314   7.683   6.350  0.5998 -0.3393  0.0504
  357TIP3    H1 1014   0.295   7.658   6.259  2.0357  1.0017 -0.6540
  357TIP3    H2 1015   0.331   7.600   6.394 -3.2874 -1.2958 -0.0738
  358TIP3   OH2 1016   3.254   0.683   2.036  0.2794  0.5992 -0.2088
  358TIP3    H1 1017   3.178   0.694   1.980  0.2161  3.2045  0.3074
  358TIP3    H2 1018   3.250   0.592   2.065 -2.0227  0.4043 -1.0499
  359TIP3   OH2 1019   6.120   5.462   6.693 -0.0126 -0.6222  0.3979
  359TIP3    H1 1020   6.172   5.532   6.652  0.1918 -0.9318  0.1311
  359TIP3    H2 1021   6.096   5.498   6.778 -1.1298  0.3512 -0.3102
  360TIP3   OH2 1022   8.159   6.060   5.092  0.4787 -0.1037 -0.2254
  360TIP3    H1 1023   8.196   6.034   5.176 -1.4382 -1.4679  0.2281
  360TIP3    H2 1024   8.115   6.143   5.110  0.5044 -0.1402  0.0054
  361TIP3   OH2 1025   5.563   2.803   2.779 -0.5377 -0.3586  0.1487
  361TIP3    H1 1026   5.498   2.765   2.719 -0.1835  1.8866 -1.7142
  361TIP3    H2 1027   5.622   2.731   2.799 -1.2826 -1.4135 -1.3515
  362TIP3   OH2 1028   4.193   2.420   0.388  0.6411 -0.5113 -0.3188
  362TIP3    H1 1029   4.137   2.484   0.344 -0.2546 -2.3244 -1.9058
  362TIP3    H2 1030   4.139   2.389   0.462  0.5759 -0.3454 -0.2970
  363TIP3   OH2 1031   3.585   2.212   0.344  0.6807 -0.0084  0.1972
  363TIP3    H1 1032   3.500   2.178   0.373  0.6152  1.1307  1.3930
  363TIP3    H2 1033   3.564   2.266   0.267  0.6461 -1.7123 -1.0050
  364TIP3   OH2 1034   5.297   1.210   2.171  0.0859 -0.1050 -0.2009
  364TIP3    H1 1035   5.382   1.173   2.147  0.3081 -0.4258  1.0552
  364TIP3    H2 1036   5.251   1.138   2.215 -0.2492  0.5205  0.4779
  365TIP3   OH2 1037   4.200   0.706   1.395 -0.2347  0.0268 -0.1502
  365TIP3    H1 1038   4.283   0.750   1.412 -0.7243  0.1046  2.1302
  365TIP3    H2 1039   4.225   0.624   1.353  0.9990 -0.0216  0.6631
  366TIP3   OH2 1040   2.698   1.543   0.946  0.0142 -0.2115 -0.1211
  366TIP3    H1 1041   2.707   1.463   0.999  0.5709 -0.7528 -1.0206
  366TIP3    H2 1042   2.654   1.514   0.867  1.4665  0.0869 -1.0635
  367TIP3   OH2 1043   4.886   2.177   0.166 -0.2373  0.1759 -0.1026
  367TIP3    H1 1044   4.790   2.174   0.167 -0.3603  1.0491 -3.5293
  367TIP3    H2 1045   4.907   2.270   0.154  1.0704  0.0233  0.8764
  368TIP3   OH2 1046   6.138   3.381   1.075 -0.0499 -0.3966 -0.2731
  368TIP3    H1 1047   6.207   3.345   1.020  0.6187  1.1569 -0.4461
  368TIP3    H2 1048   6.173   3.373   1.164 -0.2840 -0.9886 -0.2264
  369TIP3   OH2 1049   6.663   7.187   5.978 -0.7080 -0.4660  0.0509
  369TIP3    H1 1050   6.574   7.221   5.968 -0.6200 -0.2474  0.0138
  369TIP3    H2 1051   6.692   7.168   5.889 -1.2929 -2.0180  0.1673
  370TIP3   OH2 1052   5.520   3.777   2.514 -0.6064 -0.0046 -0.1146
  370TIP3    H1 1053   5.614   3.759   2.518 -0.7373 -0.8732 -0.9515
  370TIP3    H2 1054   5.506   3.844   2.581  0.0739 -2.2163  2.3506
  371TIP3   OH2 1055   0.568   7.287   6.772  0.2733  0.0595 -0.3700
  371TIP3    H1 1056   0.618   7.368   6.782  0.8897 -0.3782  0.1290
  371TIP3    H2 1057   0.622   7.220   6.814 -0.6911 -0.4435  0.0708
  372TIP3   OH2 1058   0.851   7.728   1.667  0.2421 -0.4266 -0.0959
  372TIP3    H1 1059   0.810   7.785   1.602  3.6369  1.0920 -1.0601
  372TIP3    H2 1060   0.842   7.776   1.750 -0.6314 -0.4918 -0.1545
  373TIP3   OH2 1061   5.352   3.022   1.195 -0.1091  0.6856  0.1677
  373TIP3    H1 1062   5.320   3.072   1.271  0.2185  0.3076  0.5595
  373TIP3    H2 1063   5.358   3.086   1.125  1.5361  1.4739  0.9971
  374TIP3   OH2 1064   4.070   0.881   1.986  0.0583 -0.0816 -0.2649
  374TIP3    H1 1065   4.135   0.928   1.935 -0.8830 -2.7209 -4.1368
  374TIP3    H2 1066   3.986   0.916   1.956 -0.4613 -0.7930  0.3442
  375TIP3   OH2 1067   5.920   0.626   1.573 -0.6533 -0.2536 -0.3813
  375TIP3    H1 1068   5.947   0.701   1.625 -0.7727 -0.0287 -0.6455
  375TIP3    H2 1069   5.976   0.554   1.604 -1.7430 -0.4887  1.1265
  376TIP3   OH2 1070   3.589   1.492   1.371  0.1298 -0.2579 -0.2411
  376TIP3    H1 1071   3.647   1.556   1.329 -0.4930  0.7547  0.3974
  376TIP3    H2 1072   3.622   1.486   1.461  0.1713 -0.8221 -0.2950
  377TIP3   OH2 1073   1.886   0.388   3.536  0.4682  0.1088  0.2652
  377TIP3    H1 1074   1.876   0.476   3.500  2.3825  0.1515 -0.2209
  377TIP3    H2 1075   1.932   0.401   3.619  0.3142 -0.3890  0.4299
  378TIP3   OH2 1076   6.913   5.492   5.168  0.1447  0.0746 -0.1892
  378TIP3    H1 1077   6.891   5.445   5.087  0.2687  0.9532 -0.7366
  378TIP3    H2 1078   7.001   5.462   5.190 -0.3993 -1.1531  0.3351
  379TIP3   OH2 1079   3.676   2.100   1.159 -0.3297  0.1521 -0.2783
  379TIP3    H1 1080   3.634   2.162   1.100 -4.0990  0.3345  2.4262
  379TIP3    H2 1081   3.745   2.150   1.201 -2.1229  2.0285  0.5051
  380TIP3   OH2 1082   2.826   0.011   0.537 -0.0722  0.2078 -0.4409
  380TIP3    H1 1083   2.823   0.101   0.569  1.5005  0.0058  0.3322
  380TIP3    H2 1084   2.843   0.020   0.443 -1.7885  0.7394 -0.7222
  381TIP3   OH2 1085   3.882   0.436   2.914 -0.0860  0.7133 -0.9410
  381TIP3    H1 1086   3.803   0.474   2.875 -0.7376  0.0614 -0.2550
  381TIP3    H2 1087   3.953   0.467   2.857 -1.1871 -1.7244 -3.7550
  382TIP3   OH2 1088   3.199   4.647   1.069 -0.3174 -0.0282  0.6188
  382TIP3    H1 1089   3.226   4.724   1.119  2.5504 -1.7219  1.8191
  382TIP3    H2 1090   3.218   4.670   0.978  0.1869  0.8487  0.9398
  383TIP3   OH2 1091   4.629   0.496   1.872  0.3696  0.3415  1.1329
  383TIP3    H1 1092   4.559   0.556   1.897  0.2360  0.4603  0.4770
  383TIP3    H2 1093   4.696   0.552   1.833 -0.4068 -0.1004 -0.8851
  384TIP3   OH2 1094   4.405   0.628   1.076 -0.0706 -0.2705  0.3117
  384TIP3    H1 1095   4.428   0.613   1.168  0.4688 -1.4003  0.0062
  384TIP3    H2 1096   4.404   0.540   1.037 -0.9517  0.1422 -0.6102
  385TIP3   OH2 1097   4.666   3.478   2.129 -0.2562  0.0088  0.1396
  385TIP3    H1 1098   4.577   3.454   2.154 -0.2446 -2.0146 -1.6264
  385TIP3    H2 1099   4.722   3.440   2.197 -0.6454 -0.2307  0.3245
  386TIP3   OH2 1100   2.888   1.560   2.195  0.3388 -0.3142 -0.0373
  386TIP3    H1 1101   2.906   1.574   2.288 -0.2650 -0.1803  0.0621
  386TIP3    H2 1102   2.896   1.466   2.183  2.2403 -0.1430 -0.2437
  387TIP3   OH2 1103   1.756   7.320   0.659 -0.4531 -0.1567  0.2515
  387TIP3    H1 1104   1.850   7.308   0.649 -0.1297  2.1529  0.2359
  387TIP3    H2 1105   1.738   7.300   0.751  0.4712  1.7710  0.8731
  388TIP3   OH2 1106   4.948   1.723   3.135 -0.4627  0.3210 -0.1100
  388TIP3    H1 1107   4.885   1.666   3.090 -0.8960  0.3284  0.4900
  388TIP3    H2 1108   4.983   1.779   3.065 -0.7526 -0.0205 -0.5322
  389TIP3   OH2 1109   3.068   2.162   2.559 -0.2394  0.1868  0.1289
  389TIP3    H1 1110   3.010   2.136   2.488 -1.2669  1.1555  0.5928
  389TIP3    H2 1111   3.052   2.256   2.569 -1.2452 -0.2267  2.6528
  390TIP3   OH2 1112   6.777   3.938   6.517 -0.1259 -0.1818  0.1265
  390TIP3    H1 1113   6.870   3.958   6.502 -0.0658 -0.6480 -0.1480
  390TIP3    H2 1114   6.764   3.952   6.610  0.2524 -0.2219  0.1863
  391TIP3   OH2 1115   1.700   1.153   2.848  0.2724  0.6813  0.3362
  391TIP3    H1 1116   1.765   1.196   2.792  1.8140 -1.1193  0.6969
  391TIP3    H2 1117   1.618   1.197   2.827  1.2276  1.5743 -1.6703
  392TIP3   OH2 1118   6.376   6.871   6.549  0.2504  0.2635 -0.0091
  392TIP3    H1 1119   6.460   6.839   6.515 -0.4905 -0.5642 -1.1082
  392TIP3    H2 1120   6.384   6.966   6.547  1.3374  0.1934  0.3550
  393TIP3   OH2 1121   5.610   2.154   1.979 -0.5843  0.6686  0.5239
  393TIP3    H1 1122   5.631   2.240   1.943  0.4126  0.8109  1.4359
  393TIP3    H2 1123   5.534   2.125   1.928 -1.4430  2.4342  0.7622
  394TIP3   OH2 1124   3.484   3.099   2.210  0.2643 -0.4236 -0.1255
  394TIP3    H1 1125   3.543   3.132   2.278  0.5269  1.7940 -1.4008
  394TIP3    H2 1126   3.522   3.014   2.185  0.6239 -0.8934  1.8900
  395TIP3   OH2 1127   7.626   7.202   6.450 -0.2014 -0.0025  0.4201
  395TIP3    H1 1128   7.706   7.248   6.474 -0.0002  1.0840 -2.2539
  395TIP3    H2 1129   7.630   7.120   6.501  1.2368  1.2337  2.3715
  396TIP3   OH2 1130   4.959   2.663   0.595 -0.0392  0.1390  0.0551
  396TIP3    H1 1131   4.903   2.633   0.524 -1.0856 -0.7679  1.2494
  396TIP3    H2 1132   4.911   2.643   0.675  1.5248  0.2894  1.0694
  397TIP3   OH2 1133   5.400   5.941   6.562 -0.5202  0.3234  0.3351
  397TIP3    H1 1134   5.425   5.851   6.583  1.6040  1.0333  0.9690
  397TIP3    H2 1135   5.414   5.989   6.643  0.9298  1.7315 -0.7304
  398TIP3   OH2 1136   4.935   2.376   1.217 -0.4326  0.4837  0.3917
  398TIP3    H1 1137   4.949   2.442   1.149 -1.5450  0.8528  0.5005
  398TIP3    H2 1138   4.966   2.295   1.178 -0.9450  0.7144 -0.5268
  399TIP3   OH2 1139   7.158   2.331   6.834 -0.1549  0.6566 -0.3637
  399TIP3    H1 1140   7.137   2.250   6.787  0.6971  0.7463 -0.9038
  399TIP3    H2 1141   7.196   2.302   6.916  1.0344  0.5043 -0.9605
  400TIP3   OH2 1142   0.649   6.303   3.121 -0.1238  0.0409  0.1381
  400TIP3    H1 1143   0.572   6.303   3.065  0.0076  0.5380 -0.0491
  400TIP3    H2 1144   0.696   6.223   3.098  0.1461  0.4504 -0.7608
  401TIP3   OH2 1145   2.092   7.942   1.607 -0.0951 -0.1219  0.4494
  401TIP3    H1 1146   2.036   8.012   1.640 -0.0400 -0.0809  0.4568
  401TIP3    H2 1147   2.089   7.875   1.675  0.8984  0.4343  1.0583
  402TIP3   OH2 1148   3.777   0.805   3.452  0.1966  0.1340  0.3793
  402TIP3    H1 1149   3.850   0.743   3.449 -0.3194 -0.4248 -1.3151
  402TIP3    H2 1150   3.699   0.751   3.440 -0.3658  0.9483  0.3175
  403TIP3   OH2 1151   4.897   1.014   1.991  0.0769  0.2752 -0.0207
  403TIP3    H1 1152   4.988   0.989   2.003  0.7405  2.2711 -0.6189
  403TIP3    H2 1153   4.881   1.081   2.058 -1.6052 -1.5597  1.4794
  404TIP3   OH2 1154   3.390   1.897   0.339  0.0456 -0.5234  0.2213
  404TIP3    H1 1155   3.325   1.955   0.300  1.3777  0.0843 -1.1265
  404TIP3    H2 1156   3.351   1.870   0.422 -1.1869  1.2007  0.2269
  405TIP3   OH2 1157   0.538   6.973   0.745 -0.5086 -0.5885  0.6311
  405TIP3    H1 1158   0.456   6.948   0.787 -0.8660 -0.4813  0.0060
  405TIP3    H2 1159   0.514   6.990   0.654  0.3499 -1.3317  0.2585
  406TIP3   OH2 1160   6.023   0.356   2.064  0.0887 -0.2340  0.0382
  406TIP3    H1 1161   6.112   0.391   2.056 -1.0111  2.8158  0.3145
  406TIP3    H2 1162   5.976   0.395   1.991 -1.3203 -0.8090  0.6321
  407TIP3   OH2 1163   2.585   1.809   0.994  0.1760 -0.2269  0.1137
  407TIP3    H1 1164   2.618   1.719   0.995 -0.5058 -0.4830 -0.0645
  407TIP3    H2 1165   2.585   1.835   1.086 -0.1553 -0.6082  0.2256
  408TIP3   OH2 1166   2.340   7.763   0.370  0.1286  0.1866 -0.5758
  408TIP3    H1 1167   2.427   7.787   0.402 -0.5913  1.3495  0.5961
  408TIP3    H2 1168   2.356   7.712   0.290  1.8707  0.2870 -0.3079
  409TIP3   OH2 1169   3.129   3.333   1.347  0.4605  0.2466  0.1928
  409TIP3    H1 1170   3.094   3.324   1.259 -1.7137  2.5625  0.7619
  409TIP3    H2 1171   3.207   3.386   1.337  0.2107  0.5142 -0.3469
  410TIP3   OH2 1172   4.717   0.696   3.040  0.0235  0.2133  0.1947
  410TIP3    H1 1173   4.680   0.636   2.975  1.0931  0.8910 -1.0576
  410TIP3    H2 1174   4.728   0.643   3.118  0.6028 -1.1245 -0.7903
  411TIP3   OH2 1175   0.074   7.772   0.647  0.0249  0.4569  0.1768
  411TIP3    H1 1176   0.029   7.845   0.604  0.2202  0.8882  0.7005
  411TIP3    H2 1177   0.123   7.813   0.719  2.0214  0.1420 -0.9497
  412TIP3   OH2 1178   1.806   2.018   2.635 -0.5176 -0.1604  0.0670
  412TIP3    H1 1179   1.845   1.934   2.613  0.1518  0.1173  0.1977
  412TIP3    H2 1180   1.777   2.054   2.551 -0.1105 -0.1777 -0.0810
  413TIP3   OH2 1181   4.057   1.012   1.280  0.1519  0.2354 -0.7360
  413TIP3    H1 1182   4.104   0.953   1.222  0.1740  0.0055 -0.4830
  413TIP3    H2 1183   4.116   1.028   1.353 -1.5186 -2.9449  1.4162
  414TIP3   OH2 1184   2.469   1.323   0.286 -0.6440  0.3161 -0.3053
  414TIP3    H1 1185   2.404   1.376   0.332  0.0616 -0.7306  1.9766
  414TIP3    H2 1186   2.545   1.321   0.345  0.0010 -1.6861 -1.1578
  415TIP3   OH2 1187   2.989   3.369   1.582  0.2664  0.4068  0.5950
  415TIP3    H1 1188   3.052   3.366   1.510 -1.0808 -0.0399 -0.5778
  415TIP3    H2 1189   2.913   3.413   1.546 -0.9634 -1.0988  1.3233
  416TIP3   OH2 1190   4.175   2.278   0.153 -0.0089 -0.0599 -0.0797
  416TIP3    H1 1191   4.194   2.357   0.204 -1.1529  0.3300 -0.2432
  416TIP3    H2 1192   4.131   2.220   0.214 -0.0334 -0.1948 -0.2253
  417TIP3   OH2 1193   6.666   2.532   1.069  0.1303  0.2181  0.2254
  417TIP3    H1 1194   6.651   2.615   1.024  1.5683  0.2050 -0.3042
  417TIP3    H2 1195   6.619   2.542   1.152 -0.6472  1.1156 -0.3041
  418TIP3   OH2 1196   5.699   3.026   2.637 -0.2654  0.2677 -0.3055
  418TIP3    H1 1197   5.671   2.940   2.669 -0.4634  0.6923  0.6896
  418TIP3    H2 1198   5.624   3.059   2.588 -0.2175 -0.0951 -0.6253
  419TIP3   OH2 1199   3.264   2.545   0.846  0.3773 -0.3857  0.0136
  419TIP3    H1 1200   3.335   2.571   0.786  0.5544 -0.5803  0.1355
  419TIP3    H2 1201   3.245   2.454   0.821 -1.2592  0.3305 -1.4098
  420TIP3   OH2 1202   5.851   0.917   2.276  0.1172  0.2488  0.0028
  420TIP3    H1 1203   5.893   0.995   2.312 -1.1088  0.7086  0.4446
  420TIP3    H2 1204   5.767   0.948   2.243 -0.8791 -1.0854  1.2201
  421TIP3   OH2 1205   5.652   1.705   1.226  0.4221  0.5563 -0.3057
  421TIP3    H1 1206   5.737   1.748   1.221  0.1222  1.0813 -1.0379
  421TIP3    H2 1207   5.593   1.773   1.261  0.4428 -0.0095  0.8361
  422TIP3   OH2 1208   6.834   3.161   0.182  0.7393  0.4018 -0.2334
  422TIP3    H1 1209   6.767   3.103   0.218  0.7648 -0.8773 -2.1770
  422TIP3    H2 1210   6.916   3.130   0.221  0.4858  0.5431  0.4230
  423TIP3   OH2 1211   5.794   2.524   3.121  0.0466 -0.0057 -0.1780
  423TIP3    H1 1212   5.818   2.614   3.143  0.5667 -0.2765  0.3582
  423TIP3    H2 1213   5.838   2.507   3.038  0.6851 -0.0680  0.1689
  424TIP3   OH2 1214   4.010   2.539   0.199 -0.1636  0.4070  0.1550
  424TIP3    H1 1215   3.940   2.476   0.184 -2.0575  2.1622  1.2679
  424TIP3    H2 1216   4.048   2.554   0.113 -1.5391 -0.1863 -0.5697
  425TIP3   OH2 1217   4.331   0.754   0.827  0.0279 -0.3940 -0.0169
  425TIP3    H1 1218   4.362   0.702   0.901  2.3631 -1.5090 -1.6658
  425TIP3    H2 1219   4.258   0.704   0.792  0.5943 -1.2478 -0.0085
  426TIP3   OH2 1220   6.335   0.615   0.589 -0.3010  0.6833  0.6321
  426TIP3    H1 1221   6.415   0.571   0.562  0.6419  2.2234  0.8404
  426TIP3    H2 1222   6.284   0.624   0.508 -0.4933 -0.7532  0.5906
  427TIP3   OH2 1223   2.994   1.852   2.579 -0.3548 -0.2554 -0.4614
  427TIP3    H1 1224   2.926   1.899   2.531  1.2090  0.6680 -1.8054
  427TIP3    H2 1225   3.069   1.849   2.520  0.8202 -1.2123  1.0149
  428TIP3   OH2 1226   3.379   2.853   3.122 -0.3380  0.2424 -0.1847
  428TIP3    H1 1227   3.367   2.934   3.171 -3.1330 -0.0752 -0.2574
  428TIP3    H2 1228   3.361   2.877   3.031 -2.7464 -0.7140 -0.0129
  429TIP3   OH2 1229   3.692   0.398   1.946 -0.0146  1.0383 -0.3009
  429TIP3    H1 1230   3.646   0.389   1.863 -1.0365 -1.6680  0.5010
  429TIP3    H2 1231   3.780   0.366   1.929 -0.0692  0.9860 -0.4860
  430TIP3   OH2 1232   4.439   1.411   0.271 -0.2525  0.3714  0.0283
  430TIP3    H1 1233   4.368   1.398   0.334  0.9192  0.8021  1.4691
  430TIP3    H2 1234   4.415   1.491   0.225 -1.2023 -0.0339 -0.1941
  431TIP3   OH2 1235   7.319   2.865   1.816 -0.8153  0.6007  0.4487
  431TIP3    H1 1236   7.351   2.955   1.810 -1.1493  0.6064 -2.1439
  431TIP3    H2 1237   7.231   2.873   1.853 -0.6414  1.2943  0.7163
  432TIP3   OH2 1238   4.652   2.361   3.470  0.2461  0.5315 -0.5540
  432TIP3    H1 1239   4.568   2.317   3.486  0.2692  0.8714  0.5721
  432TIP3    H2 1240   4.631   2.454   3.474  0.9885  0.6275  1.5163
  433TIP3   OH2 1241   2.367   7.349   1.201  0.4439 -0.5037 -0.1067
  433TIP3    H1 1242   2.448   7.358   1.151  0.6769 -0.2255  0.3202
  433TIP3    H2 1243   2.392   7.368   1.291 -0.0935 -0.4326  0.0289
  434TIP3   OH2 1244   5.264   0.025   1.027 -0.2850 -0.0787 -0.7037
  434TIP3    H1 1245   5.237   0.043   0.938  0.6146  0.3817 -0.8841
  434TIP3    H2 1246   5.210   0.083   1.081 -0.4056  0.0714 -0.9861
  435TIP3   OH2 1247   7.837   6.242   0.949 -0.5402 -0.9411  0.0177
  435TIP3    H1 1248   7.907   6.184   0.977 -0.1645 -0.7124 -0.4564
  435TIP3    H2 1249   7.758   6.202   0.986 -0.4025 -2.2598 -1.0511
  436TIP3   OH2 1250   5.131   0.327   0.706 -0.3351 -0.3017  0.0588
  436TIP3    H1 1251   5.144   0.239   0.741 -1.0088  0.7161  3.0273
  436TIP3    H2 1252   5.218   0.368   0.708 -0.3881 -0.2164  0.6555
  437TIP3   OH2 1253   5.335   1.801   2.817  0.1436  0.5528  0.0894
  437TIP3    H1 1254   5.401   1.778   2.752 -1.8498 -1.0417 -1.4771
  437TIP3    H2 1255   5.332   1.896   2.817  1.3529  0.5915 -0.9411
  438TIP3   OH2 1256   1.484   0.677   2.240  0.2122 -0.4227  0.2413
  438TIP3    H1 1257   1.474   0.617   2.166  0.3891 -0.4172  0.2137
  438TIP3    H2 1258   1.479   0.620   2.317 -0.6537 -0.3441  0.2486
  439TIP3   OH2 1259   3.564   1.157   0.373  0.2605 -0.1025  0.4237
  439TIP3    H1 1260   3.488   1.165   0.315 -0.0171 -1.4206  0.5793
  439TIP3    H2 1261   3.639   1.165   0.315 -0.0170 -1.0042 -0.0678
  440TIP3   OH2 1262   3.572   0.663   0.880 -0.1120 -0.4185 -0.2133
  440TIP3    H1 1263   3.504   0.627   0.938  0.7768  0.3636  1.3618
  440TIP3    H2 1264   3.541   0.645   0.792 -1.6756 -1.3473  0.5103
  441TIP3   OH2 1265   5.864   1.336   4.068 -0.0153  0.3310 -0.1896
  441TIP3    H1 1266   5.851   1.406   4.131  2.3435  0.8720 -0.2557
  441TIP3    H2 1267   5.934   1.368   4.010 -0.4757 -1.1259 -1.6038
  442TIP3   OH2 1268   4.284   0.436   0.885 -0.3636 -0.2332  0.2652
  442TIP3    H1 1269   4.218   0.397   0.827 -0.0373  2.4770 -2.0328
  442TIP3    H2 1270   4.366   0.392   0.861 -0.8004 -1.5377  1.1011
  443TIP3   OH2 1271   4.533   0.601   2.847 -0.0240  0.0871  0.1420
  443TIP3    H1 1272   4.552   0.542   2.774  1.3458  0.8791 -0.1524
  443TIP3    H2 1273   4.466   0.660   2.812 -0.4807 -0.4988  0.0241
  444TIP3   OH2 1274   7.117   6.231   5.758 -0.1745 -0.1774 -0.0603
  444TIP3    H1 1275   7.042   6.223   5.817  0.5510 -0.3280  0.8520
  444TIP3    H2 1276   7.182   6.170   5.794  0.4055  0.0023 -0.8045
  445TIP3   OH2 1277   6.400   5.063   6.859  0.0613 -0.6874 -0.1428
  445TIP3    H1 1278   6.421   5.025   6.774 -0.7267 -2.8873  0.6319
  445TIP3    H2 1279   6.318   5.110   6.845  0.6393  0.1369 -0.8981
  446TIP3   OH2 1280   3.985   0.273   2.481  0.2859 -0.0971  0.0245
  446TIP3    H1 1281   3.932   0.299   2.557 -1.5715 -1.9206 -0.6265
  446TIP3    H2 1282   4.002   0.356   2.435  2.3008  1.1921  2.9141
  447TIP3   OH2 1283   6.189   5.183   6.710  0.4096  0.4992  0.2059
  447TIP3    H1 1284   6.185   5.276   6.733 -0.6211  0.0527  2.0079
  447TIP3    H2 1285   6.097   5.155   6.706  0.6828 -0.2523 -1.1843
  448TIP3   OH2 1286   3.162   1.901   0.172  0.3502  0.0262  0.1627
  448TIP3    H1 1287   3.072   1.896   0.207  0.0476 -3.3794 -0.8935
  448TIP3    H2 1288   3.151   1.928   0.081  0.2974 -1.0798 -0.1722
  449TIP3   OH2 1289   3.617   1.789   0.483  0.0762  0.2525  0.4677
  449TIP3    H1 1290   3.585   1.746   0.562 -0.1560 -1.6426 -0.6277
  449TIP3    H2 1291   3.540   1.835   0.448 -0.3427 -0.6103  0.2430
  450TIP3   OH2 1292   6.533   5.821   5.713 -0.0183  0.4949 -0.1995
  450TIP3    H1 1293   6.512   5.843   5.623 -0.4177  1.8912  0.2124
  450TIP3    H2 1294   6.466   5.758   5.739 -0.4529  0.7859 -0.6050
  451TIP3   OH2 1295   2.390   2.061   2.373  0.0512 -0.0009 -0.4659
  451TIP3    H1 1296   2.380   2.084   2.466  1.9926 -1.1752  0.0739
  451TIP3    H2 1297   2.327   2.117   2.327 -2.2558 -0.6773  1.7233
  452TIP3   OH2 1298   3.834   0.092   2.253  0.3870 -0.3052 -0.1691
  452TIP3    H1 1299   3.892   0.077   2.179 -0.5451  2.0870 -1.4445
  452TIP3    H2 1300   3.893   0.110   2.327  1.2924  0.1143 -0.9845
  453TIP3   OH2 1301   7.538   6.081   6.685 -0.1014  0.1515 -0.1476
  453TIP3    H1 1302   7.562   6.028   6.761 -0.4767 -0.7008 -0.6176
  453TIP3    H2 1303   7.607   6.063   6.621 -1.3197 -1.4019 -1.0716
  454TIP3   OH2 1304   2.240   7.134   1.561  0.1447  0.6256  0.4718
  454TIP3    H1 1305   2.265   7.179   1.642 -0.2825  0.6127  0.6124
  454TIP3    H2 1306   2.256   7.198   1.493  1.7606  0.1846  0.4214
  455TIP3   OH2 1307   8.016   6.033   4.230 -0.7423  0.5996 -0.4226
  455TIP3    H1 1308   8.002   5.963   4.294 -4.5211  1.4041 -0.2581
  455TIP3    H2 1309   8.043   5.988   4.150 -0.5390 -0.8016  0.4288
  456TIP3   OH2 1310   7.595   3.915   6.912  0.0778 -0.4991  0.1663
  456TIP3    H1 1311   7.610   4.001   6.952 -0.9466 -0.5140  0.6033
  456TIP3    H2 1312   7.664   3.907   6.847  0.9588  0.0992  1.0133
  457TIP3   OH2 1313   3.548   5.408   1.102  0.4087  0.4320  0.1354
  457TIP3    H1 1314   3.490   5.458   1.160  0.3736  0.4498  0.0852
  457TIP3    H2 1315   3.586   5.340   1.158 -1.0865 -0.7536 -0.2717
  458TIP3   OH2 1316   4.440   3.638   1.164 -0.0146 -0.3688  0.3238
  458TIP3    H1 1317   4.348   3.665   1.175 -0.4911  0.0699 -3.8126
  458TIP3    H2 1318   4.436   3.543   1.153  0.3502 -0.6802  2.6255
  459TIP3   OH2 1319   1.113   1.557   2.566  0.0425  0.0415  0.2707
  459TIP3    H1 1320   1.139   1.649   2.556  1.4851 -0.5317 -1.4280
  459TIP3    H2 1321   1.152   1.530   2.649 -0.2502  0.8938  0.6998
  460TIP3   OH2 1322   4.070   2.109   3.398 -0.3891  0.3290  0.3892
  460TIP3    H1 1323   4.110   2.195   3.410  0.0839 -0.0832  1.8897
  460TIP3    H2 1324   4.141   2.055   3.364 -0.5696  0.4192 -0.1358
  461TIP3   OH2 1325   4.409   2.569   1.991  0.3705 -0.0724 -0.1021
  461TIP3    H1 1326   4.427   2.479   1.966  0.6521 -0.5692  1.8678
  461TIP3    H2 1327   4.494   2.605   2.016  0.4763  1.1462 -2.0846
  462TIP3   OH2 1328   5.642   4.139   1.544 -0.1672  0.9413  0.5927
  462TIP3    H1 1329   5.548   4.139   1.526 -0.1977  0.6095  0.7575
  462TIP3    H2 1330   5.669   4.230   1.531 -0.0888  0.6143 -1.6305
  463TIP3   OH2 1331   1.166   3.911   5.867  0.2674 -0.0747  0.2942
  463TIP3    H1 1332   1.227   3.869   5.927  0.0512 -0.1968  0.4322
  463TIP3    H2 1333   1.112   3.967   5.923  0.0631 -0.1909  0.2182
  464TIP3   OH2 1334   6.772   1.556   2.847 -0.0631  0.5726  0.3072
  464TIP3    H1 1335   6.717   1.571   2.770 -1.1363 -0.1988  0.9145
  464TIP3    H2 1336   6.857   1.594   2.823  0.2026 -1.3623 -2.0059
  465TIP3   OH2 1337   6.027   2.442   2.379 -0.6450 -0.0218  0.0923
  465TIP3    H1 1338   6.030   2.537   2.393 -1.1076 -0.0158  0.1823
  465TIP3    H2 1339   6.064   2.405   2.459 -0.0890  0.0911 -0.1111
  466TIP3   OH2 1340   8.011   5.967   5.939 -0.0408  0.6353  0.0037
  466TIP3    H1 1341   8.059   5.885   5.931 -1.3280  0.1177 -2.8021
  466TIP3    H2 1342   8.030   6.015   5.859 -3.0802  1.0114 -0.5477
  467TIP3   OH2 1343   7.122   5.755   5.197 -0.0777 -0.2976  0.0644
  467TIP3    H1 1344   7.170   5.817   5.252 -0.5991  0.7589 -0.6687
  467TIP3    H2 1345   7.141   5.669   5.236 -0.9002  0.4841  2.2349
  468TIP3   OH2 1346   2.746   0.416   1.166 -0.2267 -0.8431  0.5567
  468TIP3    H1 1347   2.667   0.372   1.196 -2.0385  0.2426 -2.3628
  468TIP3    H2 1348   2.714   0.492   1.118  2.6670  0.5457  0.7275
  469TIP3   OH2 1349   5.849   3.340   0.505 -0.4014  0.2039  0.1674
  469TIP3    H1 1350   5.821   3.277   0.439  1.4973 -0.8150  0.2978
  469TIP3    H2 1351   5.910   3.397   0.459  2.3850 -1.6385  1.4095
  470TIP3   OH2 1352   8.279   7.668   6.423  0.1041  0.0227 -0.8716
  470TIP3    H1 1353   8.212   7.603   6.403 -1.3174  1.1599  0.0762
  470TIP3    H2 1354   8.233   7.752   6.415  1.6086  0.8541 -0.9125
  471TIP3   OH2 1355   0.818   4.139   5.269  0.1586 -0.3450  0.8053
  471TIP3    H1 1356   0.785   4.215   5.317  0.8025 -0.4120  1.3627
  471TIP3    H2 1357   0.746   4.076   5.271 -0.9341  0.8201 -0.9725
  472TIP3   OH2 1358   0.253   6.515   6.606 -0.3181 -0.7821 -0.4619
  472TIP3    H1 1359   0.251   6.555   6.693 -0.3043 -0.5839 -0.5541
  472TIP3    H2 1360   0.335   6.465   6.605  0.4760  0.5210 -0.9502
  473TIP3   OH2 1361   8.527   6.023   5.027 -0.2408  0.2989  0.0435
  473TIP3    H1 1362   8.459   5.986   5.083  0.4342 -0.7962  0.1489
  473TIP3    H2 1363   8.493   6.013   4.938 -1.5048  2.4289  0.2433
  474TIP3   OH2 1364   7.844   4.451   5.886 -0.3170 -0.1124 -0.0383
  474TIP3    H1 1365   7.781   4.473   5.817  0.0479 -0.1550 -0.3825
  474TIP3    H2 1366   7.930   4.468   5.847 -0.0968 -0.5273  0.2691
  475TIP3   OH2 1367   7.837   0.959   1.152  0.1657  0.6111 -0.1300
  475TIP3    H1 1368   7.851   1.039   1.202 -0.9777  0.5524  0.3081
  475TIP3    H2 1369   7.808   0.988   1.066 -0.3909  0.6738  0.0754
  476TIP3   OH2 1370   6.247   6.146   6.274  0.4100  0.0427  0.1263
  476TIP3    H1 1371   6.255   6.147   6.179 -0.4946 -0.7189  0.0362
  476TIP3    H2 1372   6.213   6.233   6.296 -1.4435 -0.5066 -0.4568
  477TIP3   OH2 1373   7.699   6.934   5.216 -0.1571 -0.3967 -0.2632
  477TIP3    H1 1374   7.742   7.012   5.251  0.6858 -1.1559  0.4121
  477TIP3    H2 1375   7.651   6.898   5.291  0.7203 -1.3875 -0.1647
  478TIP3   OH2 1376   3.065   1.478   0.681 -0.4903 -0.3077 -0.6496
  478TIP3    H1 1377   3.034   1.564   0.710  1.0837  0.0928 -0.0875
  478TIP3    H2 1378   2.985   1.429   0.662 -1.4035  1.4281 -1.4314
  479TIP3   OH2 1379   7.890   0.464   0.776 -0.2374  0.5972 -0.3915
  479TIP3    H1 1380   7.888   0.449   0.681 -0.5504  0.4091 -0.3551
  479TIP3    H2 1381   7.920   0.380   0.812  1.1122  1.0608 -0.4136
  480TIP3   OH2 1382   7.106   3.663   0.168 -0.5075  0.3917 -0.0242
  480TIP3    H1 1383   7.153   3.638   0.089  0.8269  2.0153  0.2278
  480TIP3    H2 1384   7.014   3.670   0.140  0.0808  1.9104 -1.6791
  481TIP3   OH2 1385   5.676   3.334   1.165  0.0650 -0.5223 -0.7002
  481TIP3    H1 1386   5.581   3.346   1.162  0.1754  1.1338  1.0769
  481TIP3    H2 1387   5.707   3.374   1.084 -0.5346  1.7408  0.1357
  482TIP3   OH2 1388   1.011   5.670   6.754 -0.7834  0.3649  0.8856
  482TIP3    H1 1389   1.070   5.597   6.772  0.2476  0.7184 -0.8238
  482TIP3    H2 1390   0.940   5.661   6.817  0.3784 -0.9143  2.0408
  483TIP3   OH2 1391   5.064   3.610   1.309 -0.0966  0.3541 -0.2186
  483TIP3    H1 1392   5.008   3.682   1.279 -0.0981 -0.3796 -2.0553
  483TIP3    H2 1393   5.013   3.567   1.378 -0.7179  1.2214 -0.1269
  484TIP3   OH2 1394   5.778   1.875   0.532 -0.0063 -0.3542 -0.3620
  484TIP3    H1 1395   5.778   1.971   0.525 -0.7061 -0.2785  0.6257
  484TIP3    H2 1396   5.716   1.847   0.464  1.5710 -0.2173 -1.8877
  485TIP3   OH2 1397   0.377   5.993   6.207 -0.5984 -0.1631 -0.1914
  485TIP3    H1 1398   0.341   6.071   6.251 -1.6327 -1.1800  0.7799
  485TIP3    H2 1399   0.458   6.025   6.167 -0.5570  1.2257  0.9251
  486TIP3   OH2 1400   1.100   5.035   6.389  0.5654  0.2371 -0.0362
  486TIP3    H1 1401   1.180   5.074   6.423 -0.4733  1.8374  0.6400
  486TIP3    H2 1402   1.095   4.950   6.431  1.8235  0.1952  0.0439
  487TIP3   OH2 1403   6.329   1.336   1.377  0.0882  0.1501  0.0962
  487TIP3    H1 1404   6.277   1.384   1.311  0.0685  2.6015  1.8426
  487TIP3    H2 1405   6.417   1.372   1.368 -0.1168  1.1572  2.0037
  488TIP3   OH2 1406   6.208   2.790   0.312 -0.1196 -0.1009 -0.7861
  488TIP3    H1 1407   6.202   2.696   0.293 -0.4358 -0.4445  0.9073
  488TIP3    H2 1408   6.296   2.802   0.347 -0.5032  0.0147  0.1458
  489TIP3   OH2 1409   3.490   3.783   0.636  0.2386 -0.2768 -0.0653
  489TIP3    H1 1410   3.493   3.696   0.597 -0.0494 -0.1006 -0.4870
  489TIP3    H2 1411   3.580   3.800   0.665  0.3741 -0.5542 -0.3276
  490TIP3   OH2 1412   6.348   2.761   1.101 -0.1478 -0.5128  0.4572
  490TIP3    H1 1413   6.317   2.673   1.077  1.1051 -1.0074  0.6218
  490TIP3    H2 1414   6.416   2.780   1.036 -1.2091  0.8071 -0.2669
  491TIP3   OH2 1415   0.646   5.736   6.569  0.4587 -0.1502 -0.2646
  491TIP3    H1 1416   0.613   5.691   6.491  0.0600 -0.5888  0.1483
  491TIP3    H2 1417   0.602   5.821   6.568  0.2857 -0.2404 -0.3998
  492TIP3   OH2 1418   7.189   3.536   0.386  0.5009  0.1087  0.1540
  492TIP3    H1 1419   7.154   3.568   0.303 -0.8452 -1.5574  0.0397
  492TIP3    H2 1420   7.155   3.596   0.452 -2.1911 -1.1815 -0.0169
  493TIP3   OH2 1421   3.586   1.310   2.371 -0.2240  0.2285 -0.1373
  493TIP3    H1 1422   3.630   1.353   2.444  0.4792  0.8560 -0.9082
  493TIP3    H2 1423   3.497   1.295   2.402 -0.2925  1.6513  0.4056
  494TIP3   OH2 1424   0.056   6.321   5.755  0.0812  0.8594 -0.4893
  494TIP3    H1 1425   0.080   6.230   5.734 -0.5374  0.7179 -0.5978
  494TIP3    H2 1426   0.118   6.346   5.824  0.5136  0.4883 -0.7388
  495TIP3   OH2 1427   6.696   0.614   1.545  0.0717  0.4835 -0.0710
  495TIP3    H1 1428   6.785   0.640   1.568  0.8668 -1.7319 -0.5804
  495TIP3    H2 1429   6.705   0.563   1.465 -1.6482  0.0835 -0.0306
  496TIP3   OH2 1430   3.805   0.872   0.551  0.1317  0.1875  0.0534
  496TIP3    H1 1431   3.795   0.783   0.516 -0.0277  0.4216 -0.5127
  496TIP3    H2 1432   3.817   0.860   0.645  2.2180 -0.5670 -0.2791
  497TIP3   OH2 1433   7.016   5.662   6.687 -0.6557 -0.4409 -0.1920
  497TIP3    H1 1434   7.027   5.571   6.715 -1.2978 -0.8281 -1.1801
  497TIP3    H2 1435   6.923   5.679   6.700 -0.3184  0.4632  1.1277
  498TIP3   OH2 1436   6.190   5.647   6.235  0.4957  0.1609  0.5334
  498TIP3    H1 1437   6.239   5.690   6.164  0.7740 -0.5708  0.2764
  498TIP3    H2 1438   6.182   5.556   6.207 -0.9003  0.2334  0.6411
  499TIP3   OH2 1439   7.200   2.994   1.008  0.2864  0.8054  0.6945
  499TIP3    H1 1440   7.139   2.954   1.070 -2.3085  2.1046 -0.9124
  499TIP3    H2 1441   7.227   3.076   1.050 -3.0529  2.6900 -0.6150
  500TIP3   OH2 1442   6.235   1.886   2.056 -0.0567  0.1890  0.0977
  500TIP3    H1 1443   6.165   1.909   1.995  0.1562  0.8629  0.1058
  500TIP3    H2 1444   6.309   1.942   2.030 -0.3424  1.3549  1.7276
  501TIP3   OH2 1445   7.406   7.738   5.631 -0.1026  0.3560  0.0816
  501TIP3    H1 1446   7.311   7.735   5.615  0.0523  0.4609 -0.9404
  501TIP3    H2 1447   7.443   7.680   5.564  0.5142 -0.1482  0.8501
  502TIP3   OH2 1448   5.938   3.825   0.075  0.7164  0.2484  0.3202
  502TIP3    H1 1449   5.868   3.858   0.019  0.2259 -1.1792  0.0566
  502TIP3    H2 1450   5.941   3.731   0.056  1.8487  0.0809  1.2696
  503TIP3   OH2 1451   8.199   5.691   5.001  0.1653 -0.1247  0.3211
  503TIP3    H1 1452   8.117   5.705   5.048 -0.3128 -0.7854 -0.2999
  503TIP3    H2 1453   8.235   5.779   4.989 -0.7314  0.2218  0.1141
  504TIP3   OH2 1454   8.184   3.070   0.807  0.0529  0.3327 -0.1643
  504TIP3    H1 1455   8.151   3.160   0.806  1.7767  0.9931 -0.6676
  504TIP3    H2 1456   8.116   3.019   0.851 -0.8903  1.9050  0.2288
  505TIP3   OH2 1457   6.063   2.848   0.083 -0.3854 -0.1380 -0.2285
  505TIP3    H1 1458   6.060   2.944   0.080 -0.6146 -0.1091  0.9831
  505TIP3    H2 1459   6.118   2.828   0.159 -0.4664 -0.9743 -0.3883
  506TIP3   OH2 1460   4.166   1.292   0.507 -0.3582  0.4607  0.4843
  506TIP3    H1 1461   4.073   1.275   0.519 -0.0011 -1.7603  0.2590
  506TIP3    H2 1462   4.208   1.250   0.582  0.5038  1.1706  0.4127
  507TIP3   OH2 1463   1.207   5.482   6.805 -0.4572 -0.5934  0.3598
  507TIP3    H1 1464   1.179   5.406   6.857 -0.6053 -1.1778 -0.5643
  507TIP3    H2 1465   1.243   5.444   6.725 -2.1266  0.3570 -0.8837
  508TIP3   OH2 1466   6.176   3.736   0.409 -0.4192  0.4352 -0.2259
  508TIP3    H1 1467   6.115   3.800   0.447 -1.2546  0.7498 -2.0495
  508TIP3    H2 1468   6.213   3.781   0.333  0.5906 -0.4958 -0.2813
  509TIP3   OH2 1469   3.673   0.790   1.104 -0.0947  0.7093 -0.2781
  509TIP3    H1 1470   3.683   0.885   1.098 -0.4382  0.8171  0.7341
  509TIP3    H2 1471   3.655   0.761   1.015 -2.9232  1.9373 -0.1383
  510TIP3   OH2 1472   7.391   3.277   0.513  1.0150 -0.7839  0.1812
  510TIP3    H1 1473   7.484   3.297   0.506  1.0347 -1.0926 -0.5645
  510TIP3    H2 1474   7.385   3.206   0.576  1.1264  0.3063  1.4322
  511TIP3   OH2 1475   7.043   2.060   1.712 -0.1994  0.3292  0.3203
  511TIP3    H1 1476   7.125   2.091   1.750 -0.4942 -0.2785  1.4836
  511TIP3    H2 1477   7.043   1.965   1.729 -0.7096  0.1795 -0.4921
  512TIP3   OH2 1478   0.405   2.253   0.031  0.3091  0.6486  0.3418
  512TIP3    H1 1479   0.351   2.238   0.109  0.4671  0.4223  0.4070
  512TIP3    H2 1480   0.398   2.347   0.016 -1.4536  0.3793 -0.6390
  513TIP3   OH2 1481   1.001   4.812   6.564  0.0735 -0.9275  0.3321
  513TIP3    H1 1482   1.028   4.785   6.476 -1.1414 -2.0119  0.2710
  513TIP3    H2 1483   1.042   4.748   6.622  2.1693  0.7151  0.7038
  514TIP3   OH2 1484   1.219   5.541   6.523 -0.2607 -0.5802 -0.0660
  514TIP3    H1 1485   1.143   5.507   6.476  0.5806 -1.4800 -0.7950
  514TIP3    H2 1486   1.195   5.630   6.546 -1.6035 -0.9163 -0.1413
  515TIP3   OH2 1487   1.417   6.350   3.897 -0.3827 -0.3952 -0.3250
  515TIP3    H1 1488   1.490   6.298   3.932 -0.4909  0.1637  0.7417
  515TIP3    H2 1489   1.425   6.341   3.802  0.4948 -1.1387 -0.1882
  516TIP3   OH2 1490   8.178   6.637   6.322 -0.1171  0.3583  0.2964
  516TIP3    H1 1491   8.139   6.618   6.407  1.6567 -0.3705  0.9725
  516TIP3    H2 1492   8.114   6.606   6.258 -0.4714 -1.2024  1.3807
  517TIP3   OH2 1493   7.815   1.554   0.307  0.4088 -0.3208  0.3336
  517TIP3    H1 1494   7.797   1.501   0.385 -2.2743 -0.1263 -0.1174
  517TIP3    H2 1495   7.852   1.492   0.244  0.3384 -0.9764  0.9344
  518TIP3   OH2 1496   7.358   7.205   6.029 -0.2177  0.0360 -0.2189
  518TIP3    H1 1497   7.345   7.164   6.114 -1.3061 -1.7047 -1.2089
  518TIP3    H2 1498   7.311   7.149   5.967  0.6514  1.2086 -1.9879
  519TIP3   OH2 1499   2.906   7.122   0.243 -0.1674  0.1958 -0.3083
  519TIP3    H1 1500   2.831   7.180   0.253 -1.2262 -1.3924  1.2758
  519TIP3    H2 1501   2.938   7.107   0.332 -0.0435 -1.7688 -0.6534
  520TIP3   OH2 1502   6.434   4.109   0.448 -0.3946 -0.1674 -0.4948
  520TIP3    H1 1503   6.362   4.102   0.511 -0.3699 -3.9174 -0.7785
  520TIP3    H2 1504   6.513   4.100   0.500 -0.2427  0.1754 -0.6617
  521TIP3   OH2 1505   7.223   2.185   1.988  0.0477  0.2210  0.4208
  521TIP3    H1 1506   7.268   2.180   1.903  0.7516 -1.1800  0.8679
  521TIP3    H2 1507   7.294   2.199   2.051 -0.4622  1.0884  0.8053
  522TIP3   OH2 1508   8.013   1.866   0.093  0.2188 -0.0903  0.3400
  522TIP3    H1 1509   8.064   1.947   0.091  1.0736 -0.6207  0.5575
  522TIP3    H2 1510   7.928   1.890   0.055  0.6011  0.8133  0.0480
  523TIP3   OH2 1511   5.995   1.748   1.412  0.4501  0.4501  0.3910
  523TIP3    H1 1512   6.075   1.759   1.360 -0.7162  1.4316 -1.2406
  523TIP3    H2 1513   5.945   1.828   1.396 -1.4105 -0.6870  0.3958
  524TIP3   OH2 1514   7.194   5.761   6.218  0.0501  0.3197 -0.5020
  524TIP3    H1 1515   7.201   5.670   6.189  1.4389 -0.4170  1.9810
  524TIP3    H2 1516   7.253   5.809   6.159  0.2696 -0.5987 -1.0396
  525TIP3   OH2 1517   7.362   4.976   4.746 -0.5784 -0.2065  0.3779
  525TIP3    H1 1518   7.394   4.889   4.771  1.1466  0.1955 -0.3598
  525TIP3    H2 1519   7.414   5.000   4.670 -0.1508  2.0039  1.3292
  526TIP3   OH2 1520   7.709   6.729   6.343  0.6459  0.0530  0.6149
  526TIP3    H1 1521   7.652   6.771   6.279  1.5310  1.2778  0.6192
  526TIP3    H2 1522   7.648   6.694   6.409 -0.2893 -1.6516 -1.1194
  527TIP3   OH2 1523   3.786   0.705   6.868 -0.2386  0.0572  0.2099
  527TIP3    H1 1524   3.835   0.786   6.849  0.1785 -0.0734  0.7395
  527TIP3    H2 1525   3.830   0.638   6.816 -0.2838  0.0717  0.1520
  528TIP3   OH2 1526   7.227   7.512   6.884  0.7470 -0.1906  0.0353
  528TIP3    H1 1527   7.201   7.473   6.967  0.5515 -0.0163  0.0562
  528TIP3    H2 1528   7.153   7.496   6.826  0.8425 -0.2245 -0.0774
  529TIP3   OH2 1529   3.490   1.174   1.704  0.2558  0.2426  0.2108
  529TIP3    H1 1530   3.505   1.082   1.683 -0.2635 -0.0089  0.9264
  529TIP3    H2 1531   3.483   1.217   1.619 -1.0790 -0.6384 -0.1418
  530TIP3   OH2 1532   5.436   1.587   0.563  0.0647  0.1736  0.3387
  530TIP3    H1 1533   5.430   1.580   0.659 -1.4181  2.2297  0.4284
  530TIP3    H2 1534   5.486   1.510   0.537  1.7612  0.3337  2.9079
  531TIP3   OH2 1535   7.670   0.389   4.432  0.4129  0.1212  0.6831
  531TIP3    H1 1536   7.622   0.423   4.508  1.9038  2.8675  0.4384
  531TIP3    H2 1537   7.625   0.425   4.356 -0.1100 -1.3459  0.2701
  532TIP3   OH2 1538   7.122   2.490   2.237 -0.0133  0.1907  0.3607
  532TIP3    H1 1539   7.036   2.512   2.273  0.3240  1.2411  0.5336
  532TIP3    H2 1540   7.181   2.557   2.271  0.6755  0.1132 -0.6451
  533TIP3   OH2 1541   1.005   7.581   5.326 -0.4000  0.2328  0.4203
  533TIP3    H1 1542   1.068   7.560   5.257  1.7881 -0.0567  2.4489
  533TIP3    H2 1543   1.005   7.677   5.330 -2.4388  0.3802 -1.6256
  534TIP3   OH2 1544   5.378   1.754   0.367 -0.1488 -0.0559 -0.2005
  534TIP3    H1 1545   5.374   1.690   0.438 -0.3776 -0.1090 -0.2587
  534TIP3    H2 1546   5.300   1.735   0.314 -1.2430  1.4560  0.8140
  535TIP3   OH2 1547   3.834   2.899   1.097  0.1236 -0.1634 -0.7461
  535TIP3    H1 1548   3.923   2.876   1.121  0.5498  0.8258 -1.3553
  535TIP3    H2 1549   3.834   2.902   1.002 -0.8398 -1.2468 -0.7918
  536TIP3   OH2 1550   5.042   2.147   1.083  0.2773 -0.3358  0.1232
  536TIP3    H1 1551   5.122   2.102   1.110  2.2644  2.8269 -0.2446
  536TIP3    H2 1552   5.039   2.137   0.988  0.7760  0.3531  0.0299
  537TIP3   OH2 1553   0.988   5.373   6.059 -0.3870 -0.4811  0.2022
  537TIP3    H1 1554   0.919   5.346   5.999 -0.5020  1.4387 -0.5787
  537TIP3    H2 1555   0.981   5.469   6.062  1.9627 -0.2809  0.4194
  538TIP3   OH2 1556   4.469   2.483   1.413  0.3197  0.2134  0.0788
  538TIP3    H1 1557   4.478   2.508   1.505  0.6056  4.8148 -1.0622
  538TIP3    H2 1558   4.377   2.461   1.403  0.7347 -2.5808  1.9052
  539TIP3   OH2 1559   7.639   3.400   0.535  0.1996  0.0876 -0.1661
  539TIP3    H1 1560   7.609   3.476   0.485 -2.3177 -0.1263  0.9533
  539TIP3    H2 1561   7.717   3.371   0.488 -0.2454  1.8181 -2.0985
  540TIP3   OH2 1562   8.342   6.800   6.102 -0.1161 -0.5558 -0.6999
  540TIP3    H1 1563   8.330   6.848   6.185  1.9896 -2.2680  0.6399
  540TIP3    H2 1564   8.253   6.775   6.077 -0.7689 -0.2306  1.1949
  541TIP3   OH2 1565   6.881   1.444   1.646 -0.3006  0.1670 -0.2102
  541TIP3    H1 1566   6.972   1.425   1.670 -0.5367  1.2627  1.6431
  541TIP3    H2 1567   6.844   1.485   1.724 -2.0845  0.7352 -1.3343
  542TIP3   OH2 1568   6.978   5.998   6.315  0.1065 -0.3117 -0.1022
  542TIP3    H1 1569   6.946   6.085   6.339 -0.0166 -0.4599  0.2805
  542TIP3    H2 1570   6.923   5.971   6.242  1.4883  0.7842 -1.5713
  543TIP3   OH2 1571   5.282   2.265   0.066 -0.2565  0.3289 -0.1123
  543TIP3    H1 1572   5.348   2.204   0.034 -2.2941 -1.1879 -1.5553
  543TIP3    H2 1573   5.252   2.227   0.149 -1.5632 -0.6939 -1.0372
  544TIP3   OH2 1574   0.441   5.127   3.965  0.1435  0.0258 -0.2982
  544TIP3    H1 1575   0.473   5.110   4.053 -1.2770 -0.2838  0.1676
  544TIP3    H2 1576   0.500   5.078   3.908 -0.6083 -2.0243  0.6652
  545TIP3   OH2 1577   4.977   0.962   0.251 -0.4472 -0.3481 -0.0821
  545TIP3    H1 1578   4.929   0.994   0.327  0.2849  1.3882 -0.3096
  545TIP3    H2 1579   5.015   1.041   0.212  1.1341 -1.4654 -0.8907
  546TIP3   OH2 1580   7.898   6.598   5.689  0.6103 -0.2321 -0.0917
  546TIP3    H1 1581   7.804   6.589   5.671  0.7201  0.1798 -0.8630
  546TIP3    H2 1582   7.903   6.610   5.784 -0.1679  0.4499 -0.1328
  547TIP3   OH2 1583   8.233   2.392   1.207  0.4030  0.2512 -0.1946
  547TIP3    H1 1584   8.285   2.424   1.281  0.1810  0.8020 -0.2760
  547TIP3    H2 1585   8.166   2.459   1.194  1.6651  1.1818 -2.1837
  548TIP3   OH2 1586   6.286   7.386   6.333 -0.4402 -0.4638 -0.9487
  548TIP3    H1 1587   6.343   7.412   6.260 -0.3450  1.4732 -0.2100
  548TIP3    H2 1588   6.273   7.467   6.383 -1.8470 -1.4213  0.2622
  549TIP3   OH2 1589   0.361   7.045   6.663  0.3659 -0.5248 -0.0736
  549TIP3    H1 1590   0.452   7.046   6.694  1.0687 -1.1637 -2.0426
  549TIP3    H2 1591   0.317   7.113   6.714  1.8456 -0.5397  1.2314
  550TIP3   OH2 1592   0.713   4.405   5.401 -0.4960  0.0431 -0.2328
  550TIP3    H1 1593   0.727   4.360   5.485  2.6038  1.8618  0.2999
  550TIP3    H2 1594   0.619   4.422   5.399 -0.9999 -2.1437  1.7602
  551TIP3   OH2 1595   8.035   6.532   6.524 -0.2155 -0.0207  0.0453
  551TIP3    H1 1596   7.962   6.504   6.468 -0.1041 -0.2378  0.0114
  551TIP3    H2 1597   8.016   6.493   6.610  0.4583 -1.0230 -0.2574
  552TIP3   OH2 1598   6.651   4.354   0.271  0.3436 -0.7715 -0.0895
  552TIP3    H1 1599   6.637   4.445   0.243  1.4460 -0.3176  0.7687
  552TIP3    H2 1600   6.564   4.322   0.293  0.0596  0.3811  0.5125
  553TIP3   OH2 1601   3.845   2.346   0.167  0.5486 -0.8233  0.1501
  553TIP3    H1 1602   3.888   2.274   0.211 -0.8691 -0.7073  1.7509
  553TIP3    H2 1603   3.759   2.312   0.142  0.6658 -0.3369 -0.9630
  554TIP3   OH2 1604   3.784   2.019   0.494 -0.1940  0.3535 -0.3965
  554TIP3    H1 1605   3.714   2.047   0.436 -1.3867  0.2096  0.9601
  554TIP3    H2 1606   3.771   1.925   0.504 -0.0417  0.3845  0.1418
  555TIP3   OH2 1607   5.881   2.450   1.228  0.0236  0.1984 -0.3984
  555TIP3    H1 1608   5.815   2.500   1.179  0.4221  2.4461  1.2499
  555TIP3    H2 1609   5.921   2.515   1.287  0.7461 -2.0384  1.6668
  556TIP3   OH2 1610   5.635   4.644   1.699  0.2240  0.6819 -0.0613
  556TIP3    H1 1611   5.614   4.552   1.682 -0.7128  0.8883 -0.0114
  556TIP3    H2 1612   5.567   4.674   1.758  0.9152  1.2315  0.4631
  557TIP3   OH2 1613   6.160   3.193   0.709 -0.0310  0.0522  0.3036
  557TIP3    H1 1614   6.142   3.141   0.787  1.6516  1.2067  1.5048
  557TIP3    H2 1615   6.255   3.187   0.697 -0.1842  0.4799 -1.2285
  558TIP3   OH2 1616   7.125   0.829   1.023  0.0119  0.2885 -0.7068
  558TIP3    H1 1617   7.204   0.847   1.075 -1.3706 -0.6999  1.8637
  558TIP3    H2 1618   7.112   0.909   0.972 -0.2251  2.6303  2.7877
  559TIP3   OH2 1619   5.497   2.387   0.197  0.1326  0.1398  0.0592
  559TIP3    H1 1620   5.403   2.397   0.183 -0.1655 -0.8276  1.2846
  559TIP3    H2 1621   5.518   2.301   0.160  0.1021 -0.6249  1.7493
  560TIP3   OH2 1622   6.559   2.245   1.318 -0.0742 -0.1660  0.6364
  560TIP3    H1 1623   6.491   2.281   1.375  0.0671  1.4905 -0.2019
  560TIP3    H2 1624   6.511   2.203   1.247 -0.2352 -0.1032  0.7075
  561TIP3   OH2 1625   0.355   3.497   0.487  0.0848  0.3397 -0.3766
  561TIP3    H1 1626   0.377   3.442   0.411  1.4589  0.9874 -0.4536
  561TIP3    H2 1627   0.260   3.505   0.484 -0.2333 -2.6121  0.0173
  562TIP3   OH2 1628   4.244   1.334   2.627 -0.3495  0.2673  0.0634
  562TIP3    H1 1629   4.215   1.376   2.547 -1.7610  0.7855  0.8374
  562TIP3    H2 1630   4.340   1.337   2.622 -0.4050 -0.2421 -1.8630
  563TIP3   OH2 1631   0.503   5.904   4.682  0.0674 -0.5637 -0.0119
  563TIP3    H1 1632   0.516   5.995   4.710 -0.8388 -0.0011 -1.3546
  563TIP3    H2 1633   0.411   5.901   4.654  0.2666 -1.7248 -0.5575
  564TIP3   OH2 1634   0.749   7.492   6.851  0.2543  0.1679  0.7315
  564TIP3    H1 1635   0.839   7.466   6.829  0.5216  0.7694  1.1078
  564TIP3    H2 1636   0.740   7.580   6.814 -0.7578 -0.5602 -0.8309
  565TIP3   OH2 1637   6.582   0.986   0.538 -0.0214 -0.6497 -0.1144
  565TIP3    H1 1638   6.643   0.978   0.611  0.0739 -1.3253 -0.2638
  565TIP3    H2 1639   6.497   1.004   0.580  0.5110  1.6641  0.0256
  566TIP3   OH2 1640   0.124   5.091   6.769  0.7861 -0.3677  0.3196
  566TIP3    H1 1641   0.159   5.071   6.856 -0.3947  2.8137  1.5799
  566TIP3    H2 1642   0.159   5.177   6.748  0.2509 -0.6710 -1.9559
  567TIP3   OH2 1643   4.979   4.524   1.490  0.0471  0.2232  0.5860
  567TIP3    H1 1644   4.959   4.472   1.568 -0.8759 -1.2518 -0.5982
  567TIP3    H2 1645   5.048   4.474   1.445 -1.2230 -0.3096 -0.8426
  568TIP3   OH2 1646   1.324   6.113   6.303  0.0772  0.2818 -0.1701
  568TIP3    H1 1647   1.274   6.032   6.295 -0.4116  0.3039  2.4098
  568TIP3    H2 1648   1.278   6.164   6.369  1.3051  1.9677 -0.5837
  569TIP3   OH2 1649   6.728   2.516   1.904  0.1017  0.1240 -0.7643
  569TIP3    H1 1650   6.638   2.492   1.883  0.3354 -2.6959  1.2438
  569TIP3    H2 1651   6.781   2.462   1.845  0.5579 -2.2124  1.6950
  570TIP3   OH2 1652   7.425   1.234   0.516  0.1043 -0.3676 -0.3065
  570TIP3    H1 1653   7.393   1.287   0.443 -1.2593 -1.0389 -0.2202
  570TIP3    H2 1654   7.383   1.149   0.503 -1.5128  0.0190  2.2104
  571TIP3   OH2 1655   7.740   1.349   2.405  0.3314 -0.4166  0.3105
  571TIP3    H1 1656   7.757   1.336   2.312 -1.4060 -0.6310  0.0175
  571TIP3    H2 1657   7.679   1.279   2.429 -1.1896  1.1323  1.0312
  572TIP3   OH2 1658   1.564   6.620   6.678 -0.0052  0.3196 -0.2380
  572TIP3    H1 1659   1.515   6.650   6.601 -0.6531 -1.7325 -0.6567
  572TIP3    H2 1660   1.530   6.674   6.750 -1.1022  0.6438 -0.9767
  573TIP3   OH2 1661   6.382   2.741   4.562  0.6103  0.0712  0.0323
  573TIP3    H1 1662   6.388   2.798   4.486  1.9789  0.2222  0.2426
  573TIP3    H2 1663   6.460   2.686   4.556  0.2149 -0.5758  0.7970
  574TIP3   OH2 1664   7.438   0.771   0.133 -1.4324  0.3676  0.2454
  574TIP3    H1 1665   7.432   0.866   0.148 -1.8309  0.4483 -0.4125
  574TIP3    H2 1666   7.531   0.756   0.113 -1.4518  0.6765 -0.0733
  575TIP3   OH2 1667   5.432   0.179   2.737 -0.0374  0.5918  0.1561
  575TIP3    H1 1668   5.476   0.130   2.668 -2.4481  0.3721 -1.2712
  575TIP3    H2 1669   5.432   0.120   2.812  0.8936  0.0743 -0.2500
  576TIP3   OH2 1670   0.949   1.613   0.796 -0.4461 -0.1315 -0.0103
  576TIP3    H1 1671   0.916   1.556   0.727 -1.0733 -0.7467  0.7862
  576TIP3    H2 1672   0.870   1.648   0.838 -0.0696  0.0249  0.5672
  577TIP3   OH2 1673   1.241   6.452   6.893 -0.3392  0.0809  0.0448
  577TIP3    H1 1674   1.310   6.405   6.846 -1.3318 -0.8710 -0.4604
  577TIP3    H2 1675   1.183   6.384   6.926 -0.3258  0.8062  1.6267
  578TIP3   OH2 1676   8.491   5.892   3.691 -0.2046  0.4212 -0.0026
  578TIP3    H1 1677   8.402   5.917   3.715 -0.0779 -0.3935  1.3476
  578TIP3    H2 1678   8.480   5.832   3.618 -0.7085  1.0398 -0.4449
  579TIP3   OH2 1679   2.012   7.822   6.374  0.2356  0.0590  0.5685
  579TIP3    H1 1680   2.069   7.749   6.397  0.1364 -0.3728 -0.4987
  579TIP3    H2 1681   2.016   7.826   6.278 -0.7318  0.6695  0.5460
  580TIP3   OH2 1682   3.261   0.051   6.185  0.3219  0.2403 -0.1194
  580TIP3    H1 1683   3.255   0.006   6.269  1.4354  1.8001  0.8378
  580TIP3    H2 1684   3.223   0.137   6.201  1.4012  0.8930 -0.9449
  581TIP3   OH2 1685   6.029   3.317   1.413  0.0238 -0.3593 -0.1719
  581TIP3    H1 1686   6.117   3.280   1.412 -1.0472 -3.1177  1.1832
  581TIP3    H2 1687   5.975   3.248   1.452 -2.2384  2.3970  1.7249
  582TIP3   OH2 1688   8.498   2.466   0.129 -0.3575  0.5612 -0.5833
  582TIP3    H1 1689   8.492   2.474   0.225  0.1260  0.3885 -0.5372
  582TIP3    H2 1690   8.454   2.544   0.096  0.5166  1.2289 -0.1946
  583TIP3   OH2 1691   0.568   6.517   6.357  0.0884  0.8241  0.0584
  583TIP3    H1 1692   0.614   6.485   6.279  0.0531  0.2260  0.2833
  583TIP3    H2 1693   0.560   6.611   6.343 -0.3791  0.6445 -0.9018
  584TIP3   OH2 1694   3.305   2.186   5.538  0.3544 -0.0522 -0.2756
  584TIP3    H1 1695   3.241   2.151   5.600 -0.5907 -0.4376 -1.4657
  584TIP3    H2 1696   3.312   2.279   5.560  2.0723 -0.6972  2.1940
  585TIP3   OH2 1697   2.007   6.059   6.609  0.2388 -0.1993 -0.2562
  585TIP3    H1 1698   2.075   6.126   6.605 -0.0003  0.0322 -0.3922
  585TIP3    H2 1699   2.040   5.988   6.553  1.7451 -1.3238  1.9830
  586TIP3   OH2 1700   7.738   5.468   5.402  0.3550 -0.2441 -0.3389
  586TIP3    H1 1701   7.831   5.449   5.392  0.2360 -1.6813  1.0769
  586TIP3    H2 1702   7.725   5.475   5.497 -1.1435 -1.0635 -0.4675
  587TIP3   OH2 1703   3.981   2.170   0.359  0.0540 -0.0210  0.1000
  587TIP3    H1 1704   3.922   2.124   0.420 -0.6999  1.4562  0.5039
  587TIP3    H2 1705   4.034   2.227   0.415  2.8639 -2.3300 -0.1063
  588TIP3   OH2 1706   7.039   2.310   0.488  0.2866 -0.2202 -0.6201
  588TIP3    H1 1707   7.121   2.261   0.493  0.4376 -0.2017 -2.6553
  588TIP3    H2 1708   6.972   2.247   0.514  0.5372 -1.3508 -2.6604
  589TIP3   OH2 1709   7.889   3.619   6.881 -0.4804  0.3155 -0.2909
  589TIP3    H1 1710   7.967   3.672   6.862 -0.8862  1.6625  1.6628
  589TIP3    H2 1711   7.844   3.611   6.796  1.2305  0.4047 -1.2266
  590TIP3   OH2 1712  -0.011   6.374   6.696  0.2273 -0.3586  0.4284
  590TIP3    H1 1713   0.033   6.291   6.717  0.4539 -0.3288  0.0719
  590TIP3    H2 1714   0.040   6.410   6.624 -0.6028 -0.4975 -0.2375
  591TIP3   OH2 1715   7.177   5.350   5.559  0.2540 -0.6297  0.3474
  591TIP3    H1 1716   7.083   5.363   5.572  0.4611  0.5852  0.7315
  591TIP3    H2 1717   7.195   5.263   5.594 -0.3378  0.0339  2.3359
  592TIP3   OH2 1718   6.035   2.024   1.884  0.7553  0.1518 -0.0463
  592TIP3    H1 1719   5.983   2.000   1.807  0.4927 -0.1112  0.2148
  592TIP3    H2 1720   6.078   2.106   1.859  0.6711  0.0644 -0.4742
  593TIP3   OH2 1721   6.829   0.801   1.713  0.3718 -0.0806  0.1185
  593TIP3    H1 1722   6.764   0.809   1.783  0.5498 -3.2154  0.7014
  593TIP3    H2 1723   6.791   0.851   1.640 -2.4844 -1.3846  0.6176
  594TIP3   OH2 1724   5.843   1.079   3.504 -0.3124 -0.5352 -0.1378
  594TIP3    H1 1725   5.785   1.023   3.556 -0.0292 -1.1133 -0.4344
  594TIP3    H2 1726   5.806   1.167   3.511 -0.6606 -0.7332  0.4815
  595TIP3   OH2 1727   6.006   2.969   0.399 -0.6757  0.3272  0.3205
  595TIP3    H1 1728   6.063   3.026   0.450  0.3017 -0.1901 -0.1909
  595TIP3    H2 1729   6.057   2.890   0.384 -0.4941  0.9319 -2.5013
  596TIP3   OH2 1730   1.200   3.524   6.901 -0.1209  0.2522  0.0244
  596TIP3    H1 1731   1.250   3.461   6.953  1.7696 -1.2234 -3.4151
  596TIP3    H2 1732   1.243   3.608   6.918  1.3428 -0.4397 -0.1671
  597TIP3   OH2 1733   6.202   1.703   1.214  0.7123  0.0884  0.5660
  597TIP3    H1 1734   6.119   1.716   1.169  0.6088  1.3221  1.1072
  597TIP3    H2 1735   6.242   1.629   1.168 -0.1585  0.2210 -0.4369
  598TIP3   OH2 1736   6.018   4.670   1.215  0.2812 -0.3642 -0.3469
  598TIP3    H1 1737   5.970   4.660   1.297 -1.3505 -0.2339 -1.2661
  598TIP3    H2 1738   6.106   4.639   1.235 -0.2975 -1.0325  1.2456
  599TIP3   OH2 1739   4.167   1.657   1.886  0.3513 -0.0069 -0.1686
  599TIP3    H1 1740   4.144   1.750   1.891  1.0300  0.1265  0.6256
  599TIP3    H2 1741   4.113   1.615   1.953  0.2779 -0.1364 -0.3079
  600TIP3   OH2 1742   4.304   1.970   3.073 -0.1343  0.0064  0.3428
  600TIP3    H1 1743   4.374   1.943   3.133  1.0289 -1.1998 -1.5112
  600TIP3    H2 1744   4.349   2.006   2.997 -1.5873  1.2641  0.0481
  601TIP3   OH2 1745   7.234   0.340   3.214  0.5700  0.1822  0.3308
  601TIP3    H1 1746   7.296   0.328   3.142 -0.4617  2.0277 -0.9040
  601TIP3    H2 1747   7.188   0.421   3.193 -3.0647 -1.7037  0.6132
  602TIP3   OH2 1748   6.891   1.729   0.350  0.8232  0.3842 -0.3901
  602TIP3    H1 1749   6.930   1.648   0.315  1.2035  0.8982 -1.1801
  602TIP3    H2 1750   6.962   1.769   0.401  0.4268 -0.1081  0.5720
  603TIP3   OH2 1751   8.207   3.597   0.884 -0.1879  0.3899  0.4441
  603TIP3    H1 1752   8.139   3.538   0.852 -0.4304  0.8806  0.0492
  603TIP3    H2 1753   8.213   3.665   0.817  1.3766 -0.1785 -0.0072
  604TIP3   OH2 1754   3.124   1.718   0.479  0.3315  0.3920  0.2395
  604TIP3    H1 1755   3.165   1.776   0.544  0.7503  0.5110 -0.1301
  604TIP3    H2 1756   3.110   1.636   0.526  2.2743 -0.1090 -0.0191
  605TIP3   OH2 1757   7.185   3.479   0.649  0.2860  0.1962  0.6680
  605TIP3    H1 1758   7.102   3.525   0.654 -0.2681 -0.9833  3.5412
  605TIP3    H2 1759   7.220   3.483   0.738  2.9406  0.0025 -0.3226
  606TIP3   OH2 1760   5.231   7.867   2.044  0.7901 -0.5634 -0.1450
  606TIP3    H1 1761   5.195   7.827   2.123 -0.7367 -0.8114 -0.9397
  606TIP3    H2 1762   5.304   7.920   2.075  0.7862 -1.3735  1.3152
  607TIP3   OH2 1763   8.474   2.044   1.886  0.4639  1.2357  0.0868
  607TIP3    H1 1764   8.502   2.132   1.909  0.8443  1.2537 -0.4321
  607TIP3    H2 1765   8.494   2.035   1.793 -0.8392  1.0807 -0.1969
  608TIP3   OH2 1766   5.696   3.409   0.905 -0.4232 -0.2378  0.3748
  608TIP3    H1 1767   5.610   3.414   0.862  0.3223 -1.1704 -1.2782
  608TIP3    H2 1768   5.740   3.490   0.881 -0.6885  0.0599  0.8898
  609TIP3   OH2 1769   5.358   3.963   1.894  0.6455  0.5256 -0.1708
  609TIP3    H1 1770   5.344   3.869   1.907  1.9365  0.2266 -0.8877
  609TIP3    H2 1771   5.288   4.005   1.945 -1.1689 -0.8553 -1.4368
  610TIP3   OH2 1772   6.100   3.472   0.798 -0.7693  0.1453 -0.1229
  610TIP3    H1 1773   6.123   3.392   0.751  0.9178 -0.5475  1.8155
  610TIP3    H2 1774   6.114   3.451   0.890  0.0598  2.7939  0.3947
  611TIP3   OH2 1775   4.455   1.091   2.058 -0.1786  0.5565  0.3452
  611TIP3    H1 1776   4.398   1.164   2.036 -2.6553 -1.5220 -0.4262
  611TIP3    H2 1777   4.417   1.016   2.011  0.9767 -1.6562  2.8186
  612TIP3   OH2 1778   3.315   2.573   0.015 -0.7823 -0.0848 -0.4657
  612TIP3    H1 1779   3.299   2.658   0.055 -0.3913 -0.3114  0.1752
  612TIP3    H2 1780   3.247   2.516   0.050 -0.6791 -0.1855 -0.4279
  613TIP3   OH2 1781   5.196   1.646   3.308  0.0429 -0.0362  0.3218
  613TIP3    H1 1782   5.155   1.730   3.290  0.0865 -0.3965 -1.6086
  613TIP3    H2 1783   5.230   1.654   3.397 -0.5493  1.7362  0.4050
  614TIP3   OH2 1784   5.540   4.830   0.626  0.2036  0.2565 -0.1310
  614TIP3    H1 1785   5.497   4.906   0.664 -0.1529 -0.2291  0.4545
  614TIP3    H2 1786   5.572   4.781   0.702  1.0193  0.1693 -0.5271
  615TIP3   OH2 1787   6.351   2.018   4.393  0.2243  0.5028  0.2369
  615TIP3    H1 1788   6.335   2.087   4.458 -0.6648 -0.3886  0.9619
  615TIP3    H2 1789   6.273   1.963   4.396  1.4601 -1.2396  0.5138
  616TIP3   OH2 1790   8.252   5.989   5.581  0.6792  0.4370 -0.6092
  616TIP3    H1 1791   8.254   5.901   5.543  0.0311 -0.0479  0.4636
  616TIP3    H2 1792   8.321   5.989   5.647  0.5137  0.6509 -0.4348
  617TIP3   OH2 1793   0.093   2.552   1.459  0.0656  0.3945 -0.1381
  617TIP3    H1 1794   0.101   2.615   1.531 -1.4646  0.1324  0.2704
  617TIP3    H2 1795   0.171   2.567   1.406  0.0391  2.2080  0.3045
  618TIP3   OH2 1796   1.599   6.022   6.602  0.2397  0.1447  0.3376
  618TIP3    H1 1797   1.532   5.999   6.667 -0.8134  0.1524 -0.7240
  618TIP3    H2 1798   1.570   6.107   6.568  1.4894  0.7608  0.7791
  619TIP3   OH2 1799   2.986   6.525   6.627  0.1297  0.3220  0.0176
  619TIP3    H1 1800   3.034   6.608   6.627 -1.4482  1.2643 -1.1496
  619TIP3    H2 1801   3.020   6.477   6.702  1.1841  1.9625  0.6018
  620TIP3   OH2 1802   7.999   3.285   0.819  0.4901 -0.0608  0.2888
  620TIP3    H1 1803   7.995   3.285   0.915 -0.5890 -0.2203  0.2525
  620TIP3    H2 1804   7.920   3.239   0.792  0.7671  0.0230 -0.6879
  621TIP3   OH2 1805   8.351   2.060   0.569  0.3472  0.2530 -0.5194
  621TIP3    H1 1806   8.346   2.094   0.480  0.2696 -1.1930 -1.0836
  621TIP3    H2 1807   8.439   2.023   0.575 -0.1352 -0.9229 -0.4830
  622TIP3   OH2 1808   8.092   2.140   1.346 -0.0571 -0.1161 -0.2854
  622TIP3    H1 1809   8.151   2.212   1.326  0.3313 -0.4956 -0.5186
  622TIP3    H2 1810   8.129   2.098   1.424 -0.0521 -0.3174 -0.3947
  623TIP3   OH2 1811   6.846   3.850   0.350  0.0060 -0.1054  0.0957
  623TIP3    H1 1812   6.836   3.936   0.311 -1.7363 -0.6509 -0.7458
  623TIP3    H2 1813   6.845   3.790   0.275  0.7036 -0.8765  0.7018
  624TIP3   OH2 1814   5.977   2.973   1.740  0.2164  0.4535  0.0782
  624TIP3    H1 1815   6.063   2.940   1.711 -0.1624 -0.9233  0.4660
  624TIP3    H2 1816   5.936   2.897   1.782 -2.1095  0.4271 -2.1397
  625TIP3   OH2 1817   0.188   6.839   5.815  0.2316 -0.0275  0.2470
  625TIP3    H1 1818   0.166   6.770   5.753  0.4400 -1.0711  1.3067
  625TIP3    H2 1819   0.240   6.795   5.882  0.1504  1.1058  1.0714
  626TIP3   OH2 1820   7.467   2.169   0.683  0.0033  0.2490  0.4663
  626TIP3    H1 1821   7.491   2.080   0.708  0.3195  0.4711  0.9839
  626TIP3    H2 1822   7.427   2.161   0.597 -0.7546 -0.4976  0.8835
  627TIP3   OH2 1823   7.097   3.217   0.474 -0.4506 -0.2737  0.4611
  627TIP3    H1 1824   7.024   3.168   0.512  0.0685 -0.2844  1.4578
  627TIP3    H2 1825   7.122   3.167   0.397 -2.6473  0.6637 -0.9364
  628TIP3   OH2 1826   1.557   7.770   5.012  0.1229 -0.0065 -0.4208
  628TIP3    H1 1827   1.641   7.783   4.967  0.1334  0.6974 -0.1881
  628TIP3    H2 1828   1.491   7.786   4.945  0.1591  0.1087 -0.4287
  629TIP3   OH2 1829   6.680   3.793   0.817 -0.3162  0.1329 -0.0020
  629TIP3    H1 1830   6.640   3.720   0.769 -1.0179  0.2642  0.3856
  629TIP3    H2 1831   6.705   3.756   0.901 -1.2107  0.4859  0.4211
  630TIP3   OH2 1832   2.721   4.438   6.375  0.0927 -0.0340 -0.1736
  630TIP3    H1 1833   2.739   4.489   6.453  0.5260  0.7630 -0.7862
  630TIP3    H2 1834   2.688   4.354   6.408 -0.8669  0.7249  0.8214
  631TIP3   OH2 1835   8.470   2.747   0.274  0.3761 -0.6641  0.0479
  631TIP3    H1 1836   8.441   2.742   0.182  0.6228 -1.7467  0.0299
  631TIP3    H2 1837   8.426   2.826   0.308 -0.3868 -0.7287 -0.7628
  632TIP3   OH2 1838   4.545   7.666   5.483  0.6426 -0.7323 -0.6546
  632TIP3    H1 1839   4.496   7.748   5.491  0.7779 -0.8447  1.7272
  632TIP3    H2 1840   4.582   7.668   5.395 -2.2670  0.1266 -1.9021
  633TIP3   OH2 1841   7.740   2.228   1.289  0.0438  0.3828 -0.6421
  633TIP3    H1 1842   7.773   2.314   1.263 -1.6901  1.0952 -0.5536
  633TIP3    H2 1843   7.788   2.167   1.235 -0.3559  1.5730 -2.3914
  634TIP3   OH2 1844   0.845   5.822   6.371 -0.3959  0.0306  0.0692
  634TIP3    H1 1845   0.807   5.827   6.458 -2.4502 -1.5038 -0.7166
  634TIP3    H2 1846   0.774   5.845   6.311  1.4351  2.7869 -1.1610
  635TIP3   OH2 1847   6.455   2.016   1.996  0.0568 -1.0264  0.4801
  635TIP3    H1 1848   6.465   2.051   1.908 -0.5099 -1.7930  0.1017
  635TIP3    H2 1849   6.544   2.013   2.032  0.1779  0.2334  0.3147
  636TIP3   OH2 1850   6.891   3.194   3.149  0.2432  0.1892  0.2816
  636TIP3    H1 1851   6.890   3.142   3.230 -0.7676 -1.2139 -0.6090
  636TIP3    H2 1852   6.965   3.159   3.099 -1.4298 -1.5914 -1.0424
  637TIP3   OH2 1853   7.680   1.186   1.976 -0.3950  0.4212 -0.5104
  637TIP3    H1 1854   7.747   1.211   2.039 -1.6034  1.1701  0.4966
  637TIP3    H2 1855   7.599   1.180   2.027 -1.3680  0.9251 -1.9391
  638TIP3   OH2 1856   6.511   3.521   1.515 -0.3120  0.4878 -0.1677
  638TIP3    H1 1857   6.436   3.577   1.534 -0.1651  0.1557  1.4259
  638TIP3    H2 1858   6.497   3.442   1.567  0.1115 -0.4613 -1.4475
  639TIP3   OH2 1859   8.436   4.603   6.559  0.2597 -0.8715 -0.1389
  639TIP3    H1 1860   8.464   4.516   6.589 -0.4554 -1.0051  0.1617
  639TIP3    H2 1861   8.340   4.598   6.560  0.2087  0.2055  0.7372
  640TIP3   OH2 1862   0.032   1.205   1.081 -0.2624  0.4648 -0.3947
  640TIP3    H1 1863   0.002   1.180   1.168  0.1194 -0.0181 -0.3986
  640TIP3    H2 1864  -0.022   1.154   1.021  0.6789 -0.5588 -0.3984
  641TIP3   OH2 1865   4.863   1.318   1.318  0.4450 -0.3141  0.0630
  641TIP3    H1 1866   4.818   1.244   1.277 -0.7229 -0.1527  1.0226
  641TIP3    H2 1867   4.792   1.377   1.344  1.2928  0.5019  0.5474
  642TIP3   OH2 1868   1.789   5.890   6.726  0.2434  0.1125  0.3165
  642TIP3    H1 1869   1.731   5.941   6.670 -0.8094  1.0044  2.1566
  642TIP3    H2 1870   1.874   5.891   6.681 -0.6186  0.6096 -1.3389
  643TIP3   OH2 1871   7.738   7.851   6.242  0.1797  0.0057  0.2516
  643TIP3    H1 1872   7.643   7.862   6.248  0.3482  1.3470  0.5558
  643TIP3    H2 1873   7.758   7.869   6.150 -0.0332 -1.7327 -0.1480
  644TIP3   OH2 1874   5.907   2.242   0.251  0.0346  0.1149  0.1041
  644TIP3    H1 1875   5.896   2.227   0.345  1.3128  0.2535  0.2883
  644TIP3    H2 1876   5.847   2.180   0.210 -0.5590  0.0738  1.0107
  645TIP3   OH2 1877   5.861   1.050   1.356  0.6207 -0.7232 -0.1250
  645TIP3    H1 1878   5.870   1.047   1.451 -2.3020 -0.0649  0.2230
  645TIP3    H2 1879   5.922   1.118   1.328  0.8956 -0.3461  1.3633
  646TIP3   OH2 1880   6.289   2.503   1.054 -0.6832  0.4861 -0.0852
  646TIP3    H1 1881   6.351   2.458   0.996  0.3074  1.5042  0.1767
  646TIP3    H2 1882   6.226   2.435   1.078  0.0254 -0.4330 -0.7785
  647TIP3   OH2 1883   2.297   5.002   6.328  0.2670  0.3918  0.4048
  647TIP3    H1 1884   2.248   4.978   6.407 -1.7239  0.0576 -0.8871
  647TIP3    H2 1885   2.303   4.921   6.278  1.2794  0.6627  0.0683
  648TIP3   OH2 1886   4.807   7.167   6.239  0.2765 -0.4651 -0.2150
  648TIP3    H1 1887   4.901   7.154   6.227  0.1220 -0.0690 -1.9341
  648TIP3    H2 1888   4.766   7.095   6.192 -0.3060  0.1493 -0.6639
  649TIP3   OH2 1889   8.425   4.172   0.508  0.8206  0.8684  0.1576
  649TIP3    H1 1890   8.448   4.085   0.476 -1.4130  0.1177  0.5574
  649TIP3    H2 1891   8.453   4.172   0.600 -0.2197  0.1697  0.4749
  650TIP3   OH2 1892   2.704   6.486   4.708  0.0587  0.0284 -0.0058
  650TIP3    H1 1893   2.617   6.456   4.735 -0.1526  1.5602  1.0643
  650TIP3    H2 1894   2.707   6.577   4.736  1.2491  0.5723 -1.8813
  651TIP3   OH2 1895   7.465   1.681   0.014 -0.3415  0.1807  0.1785
  651TIP3    H1 1896   7.505   1.727  -0.060 -0.7128 -2.5721 -1.8414
  651TIP3    H2 1897   7.527   1.691   0.086  2.0071 -0.4736 -1.7043
  652TIP3   OH2 1898   0.871   5.698   5.574  0.0684 -0.1996 -0.2526
  652TIP3    H1 1899   0.916   5.654   5.646  0.7283  0.0384 -0.5126
  652TIP3    H2 1900   0.796   5.741   5.615 -1.0290 -2.1701 -0.1115
  653TIP3   OH2 1901   0.432   6.900   5.069 -0.3973 -0.1366  0.1291
  653TIP3    H1 1902   0.385   6.849   5.003  0.1386 -0.7088  0.1772
  653TIP3    H2 1903   0.394   6.987   5.064 -1.1165 -0.4607 -0.1744
  654TIP3   OH2 1904   1.144   2.035   2.544  0.2017  0.0418  0.3188
  654TIP3    H1 1905   1.137   2.054   2.637 -1.0782  0.1672  0.2079
  654TIP3    H2 1906   1.161   1.940   2.540 -1.1406 -0.2272  0.6516
  655TIP3   OH2 1907   0.313   2.917   1.877 -0.0943 -0.2371 -0.1995
  655TIP3    H1 1908   0.229   2.962   1.868  0.1196  0.0829 -0.6198
  655TIP3    H2 1909   0.363   2.943   1.800  0.7705  0.3885  0.5580
  656TIP3   OH2 1910   7.895   4.601   2.364 -0.8010  0.2343 -0.2917
  656TIP3    H1 1911   7.823   4.540   2.380  0.0723 -0.5397  0.6944
  656TIP3    H2 1912   7.960   4.550   2.316 -0.1158  0.4174  0.4335
  657TIP3   OH2 1913   8.502   3.803   2.058  0.6957  0.2236  0.0551
  657TIP3    H1 1914   8.453   3.786   2.138  0.4311  0.8856  0.0431
  657TIP3    H2 1915   8.494   3.898   2.046 -0.4967 -0.0550 -1.5401
  658TIP3   OH2 1916   0.513   2.540   2.198  0.3001  0.2190  0.9359
  658TIP3    H1 1917   0.532   2.446   2.198  0.2618  0.1913 -1.1500
  658TIP3    H2 1918   0.562   2.574   2.272 -0.1688 -1.5441  2.0973
  659TIP3   OH2 1919   2.096   2.822   2.786 -0.3492 -0.1959  0.3134
  659TIP3    H1 1920   2.011   2.828   2.829 -1.7949  0.4515 -2.4983
  659TIP3    H2 1921   2.128   2.913   2.782 -0.2310 -0.2450  0.0661
  660TIP3   OH2 1922   8.337   1.202   1.976  0.8018  0.2990 -0.0308
  660TIP3    H1 1923   8.398   1.264   1.935  0.7747 -0.0007 -0.5361
  660TIP3    H2 1924   8.261   1.201   1.917 -0.3015  1.7177  1.3068
  661TIP3   OH2 1925   2.189   0.572   3.263 -0.5207 -0.0848 -0.0064
  661TIP3    H1 1926   2.164   0.482   3.281  0.9867 -0.3793  0.7693
  661TIP3    H2 1927   2.172   0.584   3.170 -1.5358 -0.8977  0.0715
  662TIP3   OH2 1928   5.869   3.356   3.605 -0.1693  0.0668 -0.0742
  662TIP3    H1 1929   5.881   3.338   3.512  1.5962  0.2102  0.1104
  662TIP3    H2 1930   5.896   3.447   3.616  0.1061 -0.0987  0.6584
  663TIP3   OH2 1931   0.195   2.629   3.548 -0.1460 -0.3720  0.4167
  663TIP3    H1 1932   0.167   2.629   3.640 -2.7950 -1.5561 -0.3446
  663TIP3    H2 1933   0.206   2.722   3.526 -1.3946  0.0154  1.3859
  664TIP3   OH2 1934   1.044   4.373   1.608 -0.4380 -0.3523 -0.2707
  664TIP3    H1 1935   1.081   4.345   1.691  0.1769  0.5606 -0.2290
  664TIP3    H2 1936   1.098   4.329   1.542 -2.0198 -2.4699 -0.1993
  665TIP3   OH2 1937   1.466   3.346   3.278 -0.2990  0.3133 -0.1462
  665TIP3    H1 1938   1.473   3.413   3.211  0.6434  0.8262  0.4510
  665TIP3    H2 1939   1.533   3.282   3.254 -1.1664 -0.3986 -0.6913
  666TIP3   OH2 1940   7.504   1.155   0.952  0.3366 -0.2365 -0.2581
  666TIP3    H1 1941   7.468   1.067   0.947 -0.8755  0.1683  0.9872
  666TIP3    H2 1942   7.596   1.145   0.929  0.1827 -1.8143 -0.2050
  667TIP3   OH2 1943   0.733   2.200   2.332 -0.2938 -0.0969  0.0113
  667TIP3    H1 1944   0.730   2.229   2.240  2.8963 -3.1529 -1.1877
  667TIP3    H2 1945   0.823   2.217   2.359 -0.2503 -2.3539  1.4406
  668TIP3   OH2 1946   1.151   3.678   0.374 -0.3066  0.2237 -0.1133
  668TIP3    H1 1947   1.127   3.610   0.311 -1.6035  0.8643 -0.3352
  668TIP3    H2 1948   1.091   3.750   0.354  1.3133  1.5804 -0.1376
  669TIP3   OH2 1949   0.524   1.594   1.329  0.3711 -0.0031  0.4008
  669TIP3    H1 1950   0.498   1.623   1.242  0.3434  0.7620  0.6611
  669TIP3    H2 1951   0.592   1.529   1.314  0.4333  0.2020 -0.1895
  670TIP3   OH2 1952   1.425   3.407   2.454  0.1874  0.0223 -0.1999
  670TIP3    H1 1953   1.399   3.367   2.371 -1.2422 -0.2742  0.3784
  670TIP3    H2 1954   1.440   3.499   2.432  0.0767 -0.1119 -0.8522
  671TIP3   OH2 1955   7.598   3.979   2.124  0.2957 -0.4458 -0.3741
  671TIP3    H1 1956   7.568   4.001   2.035 -1.1641 -0.5137  0.0793
  671TIP3    H2 1957   7.625   3.888   2.118  2.0666  0.1127 -1.1983
  672TIP3   OH2 1958   7.284   3.879   3.572 -0.0739 -0.0317 -0.0322
  672TIP3    H1 1959   7.376   3.861   3.555 -0.4484  0.4521 -2.6768
  672TIP3    H2 1960   7.283   3.969   3.604  0.2323  0.5329 -1.5632
  673TIP3   OH2 1961   8.217   2.103   2.150 -0.5715 -0.1404  0.7755
  673TIP3    H1 1962   8.179   2.119   2.064 -3.0121  1.2674  2.0411
  673TIP3    H2 1963   8.246   2.190   2.179  0.1679 -0.5895  1.3910
  674TIP3   OH2 1964   1.806   2.128   3.584  0.1182  0.2084  0.0762
  674TIP3    H1 1965   1.797   2.045   3.538 -0.7907 -0.2071  0.9831
  674TIP3    H2 1966   1.864   2.110   3.657  0.5266  0.5591 -0.1560
  675TIP3   OH2 1967   6.893   2.936   3.334  1.0887  0.6455 -0.1391
  675TIP3    H1 1968   6.806   2.975   3.324 -0.3977 -2.2392  0.9959
  675TIP3    H2 1969   6.885   2.850   3.293  3.2754  0.1166  0.4832
  676TIP3   OH2 1970   1.200   3.504   3.373  0.1379 -0.3807 -0.5216
  676TIP3    H1 1971   1.123   3.482   3.322  0.0502  1.0834 -1.0427
  676TIP3    H2 1972   1.195   3.599   3.385  2.0864 -0.1987 -0.9503
  677TIP3   OH2 1973   1.810   1.445   2.572 -0.0434 -0.0443 -0.1275
  677TIP3    H1 1974   1.865   1.379   2.613  0.6591  0.7095  0.1592
  677TIP3    H2 1975   1.780   1.405   2.491 -0.1417 -0.9508  0.3514
  678TIP3   OH2 1976   0.079   3.079   1.733  0.2417 -0.1176  0.0962
  678TIP3    H1 1977  -0.005   3.066   1.690  0.4270 -1.5949  0.1515
  678TIP3    H2 1978   0.144   3.055   1.667  0.6294  1.0597  0.0376
  679TIP3   OH2 1979   0.895   6.563   1.477  0.4268 -0.4946 -0.2852
  679TIP3    H1 1980   0.911   6.564   1.383 -1.5154  2.2366 -0.6466
  679TIP3    H2 1981   0.917   6.651   1.506  1.4006 -1.4187  1.9331
  680TIP3   OH2 1982   7.222   3.184   3.025  0.5553 -0.1112 -0.0314
  680TIP3    H1 1983   7.224   3.211   2.933 -0.9084  0.8146  0.2014
  680TIP3    H2 1984   7.222   3.266   3.074 -1.3637 -0.5553  0.7324
  681TIP3   OH2 1985   0.569   3.020   3.469  0.3911  0.2401  0.2029
  681TIP3    H1 1986   0.624   3.098   3.480  1.3344 -0.5322  1.1348
  681TIP3    H2 1987   0.489   3.052   3.429 -0.0613  2.0367  2.4297
  682TIP3   OH2 1988   0.548   3.422   2.242  0.2174  0.1535  0.3377
  682TIP3    H1 1989   0.638   3.421   2.210  0.0820 -1.0495 -0.0370
  682TIP3    H2 1990   0.553   3.459   2.330  0.9807  0.7820  0.0244
  683TIP3   OH2 1991   7.377   3.949   1.526 -0.1972  0.0516 -0.3741
  683TIP3    H1 1992   7.286   3.961   1.551  0.2231  1.6897  0.4400
  683TIP3    H2 1993   7.417   3.904   1.600  0.2171  1.6372  0.3950
  684TIP3   OH2 1994   7.633   3.407   1.915  0.0756  0.2299 -0.1866
  684TIP3    H1 1995   7.685   3.451   1.849  1.8655  0.1708  1.1364
  684TIP3    H2 1996   7.656   3.314   1.906 -2.7643 -0.3555 -2.1622
  685TIP3   OH2 1997   1.459   1.083   3.826 -0.4595  0.0508 -0.5216
  685TIP3    H1 1998   1.415   1.127   3.899 -0.4075  1.3948 -1.2710
  685TIP3    H2 1999   1.539   1.133   3.813  0.4316 -1.3096 -0.3076
  686TIP3   OH2 2000   1.713   3.404   3.641 -0.5851 -0.7060 -0.2089
  686TIP3    H1 2001   1.779   3.354   3.594 -0.1162  0.0470 -0.3676
  686TIP3    H2 2002   1.664   3.450   3.572 -0.8006 -0.6983 -0.0507
  687TIP3   OH2 2003   1.504   2.526   2.982  0.3370 -0.2358  0.5529
  687TIP3    H1 2004   1.574   2.545   3.045  0.9811 -1.0482  0.1021
  687TIP3    H2 2005   1.546   2.538   2.896 -0.1223 -0.5675  0.2824
  688TIP3   OH2 2006   7.557   2.828   1.315  0.6066  0.1407  0.1370
  688TIP3    H1 2007   7.504   2.828   1.234 -0.7234  2.1546  0.9526
  688TIP3    H2 2008   7.501   2.872   1.379  2.1963 -0.2276  1.7956
  689TIP3   OH2 2009   0.492   3.277   3.817  0.0610  0.3536 -0.0030
  689TIP3    H1 2010   0.410   3.260   3.770 -0.1231 -0.7835  0.6919
  689TIP3    H2 2011   0.560   3.264   3.752 -0.2055 -0.9902 -0.0431
  690TIP3   OH2 2012   0.973   4.761   3.062 -0.2148  0.1473  0.0195
  690TIP3    H1 2013   0.983   4.794   3.151  2.1737 -0.0143 -0.1470
  690TIP3    H2 2014   0.943   4.836   3.011  0.6356  0.8559  0.5404
  691TIP3   OH2 2015   2.476   4.936   3.020 -0.1019  0.0174 -0.0787
  691TIP3    H1 2016   2.513   4.944   3.108 -0.5515  2.3788 -0.0801
  691TIP3    H2 2017   2.552   4.923   2.964  0.1272 -2.4451  0.7087
  692TIP3   OH2 2018   5.151   5.646   3.002 -0.1731  0.0278  0.1230
  692TIP3    H1 2019   5.069   5.666   3.048 -0.5328  0.6286 -0.7778
  692TIP3    H2 2020   5.126   5.630   2.912  0.3815 -2.4959  0.3709
  693TIP3   OH2 2021   2.310   0.969   1.441  0.5031  0.6648 -0.2252
  693TIP3    H1 2022   2.246   0.927   1.499  0.8261  0.6286  0.1081
  693TIP3    H2 2023   2.276   0.954   1.353  1.9082 -2.5035 -0.2964
  694TIP3   OH2 2024   2.633   3.441   2.697  0.2194 -0.3004  0.3620
  694TIP3    H1 2025   2.566   3.386   2.737 -0.1959  0.0081  0.0940
  694TIP3    H2 2026   2.716   3.405   2.729 -0.1067  0.1353  1.7422
  695TIP3   OH2 2027   2.085   2.549   3.609  0.6674  0.2598 -0.1171
  695TIP3    H1 2028   2.023   2.482   3.578 -0.1331  0.2790  1.4299
  695TIP3    H2 2029   2.139   2.503   3.673  1.1448  0.7051 -0.2002
  696TIP3   OH2 2030   1.518   2.481   6.780 -0.7654 -0.4208  0.0142
  696TIP3    H1 2031   1.460   2.500   6.706 -0.4487 -0.3844 -0.2263
  696TIP3    H2 2032   1.604   2.469   6.740 -1.1868 -3.7798 -0.0243
  697TIP3   OH2 2033   3.777   5.137   0.357  0.1844 -0.5024  0.2400
  697TIP3    H1 2034   3.867   5.149   0.387  0.5674  1.0978 -1.4485
  697TIP3    H2 2035   3.734   5.220   0.376  0.2942  0.3554 -3.0214
  698TIP3   OH2 2036   4.056   4.182   2.046  0.4114 -1.0302 -0.2574
  698TIP3    H1 2037   4.092   4.094   2.052  1.5888 -0.4899  0.7401
  698TIP3    H2 2038   4.122   4.238   2.087  0.4079  0.5249 -2.2997
  699TIP3   OH2 2039   8.441   4.947   1.713 -0.1564 -0.0026 -0.0602
  699TIP3    H1 2040   8.436   5.005   1.789 -0.3016  0.3572 -0.3462
  699TIP3    H2 2041   8.507   4.882   1.737 -0.2278  0.0925  0.3874
  700TIP3   OH2 2042   3.726   3.836   0.790  0.1103  0.1848  0.0189
  700TIP3    H1 2043   3.763   3.913   0.834  2.1306  0.9863 -2.9020
  700TIP3    H2 2044   3.767   3.761   0.834  1.7765  0.9554 -0.1575
  701TIP3   OH2 2045   2.748   3.889   2.913  0.2030  0.5511 -0.8567
  701TIP3    H1 2046   2.711   3.831   2.979 -0.6721  1.4317 -0.5511
  701TIP3    H2 2047   2.727   3.847   2.830  2.2846 -1.1302 -0.5679
  702TIP3   OH2 2048   1.358   2.814   2.891  0.1763 -0.0532  0.0264
  702TIP3    H1 2049   1.380   2.888   2.835 -0.0100 -0.7867 -1.0317
  702TIP3    H2 2050   1.363   2.738   2.833  0.4172 -0.8790  1.1117
  703TIP3   OH2 2051   0.710   3.242   3.148 -0.6958 -0.1114  0.5605
  703TIP3    H1 2052   0.800   3.259   3.122 -0.8495 -1.2623 -0.8517
  703TIP3    H2 2053   0.681   3.323   3.190  0.6614  0.6292  0.1157
  704TIP3   OH2 2054   2.803   3.515   1.773  0.4220 -0.2345  0.1315
  704TIP3    H1 2055   2.857   3.590   1.794  1.0623 -0.7080  0.1921
  704TIP3    H2 2056   2.845   3.441   1.816 -0.2664 -0.6139  0.1735
  705TIP3   OH2 2057   3.562   2.570   1.255 -0.3375  0.0973 -0.3099
  705TIP3    H1 2058   3.578   2.495   1.198 -0.0167  1.5301 -2.1468
  705TIP3    H2 2059   3.476   2.602   1.228  0.3898  1.5701 -0.8803
  706TIP3   OH2 2060   2.379   6.042   2.137 -0.2022  0.5564  0.0937
  706TIP3    H1 2061   2.395   6.131   2.170 -2.4555  0.4676  1.5499
  706TIP3    H2 2062   2.437   5.987   2.189  0.2265  1.0170  0.1165
  707TIP3   OH2 2063   1.420   4.785   2.297  0.3873  0.2632  0.6067
  707TIP3    H1 2064   1.435   4.692   2.282 -0.5627 -0.0105  1.2978
  707TIP3    H2 2065   1.473   4.829   2.231  1.4067 -0.7487  0.7345
  708TIP3   OH2 2066   2.254   4.397   2.566  0.4454 -0.1567  0.3139
  708TIP3    H1 2067   2.194   4.373   2.636  1.3171 -0.8894  0.8207
  708TIP3    H2 2068   2.243   4.329   2.500  0.4336 -0.0853  0.2424
  709TIP3   OH2 2069   5.308   7.553   6.887 -0.2433  0.2401 -0.0710
  709TIP3    H1 2070   5.349   7.512   6.811  1.1791 -0.5964  1.0986
  709TIP3    H2 2071   5.221   7.513   6.892 -1.1172  1.7579 -2.3763
  710TIP3   OH2 2072   1.857   5.753   1.850  0.5066 -0.1187  1.1846
  710TIP3    H1 2073   1.804   5.796   1.918 -0.0148  1.7576 -0.3733
  710TIP3    H2 2074   1.838   5.659   1.861 -2.0476  0.4104  1.5797
  711TIP3   OH2 2075   3.062   2.674   0.371 -0.4613 -0.2377  0.1999
  711TIP3    H1 2076   2.976   2.708   0.347 -0.0770  1.5316  1.2916
  711TIP3    H2 2077   3.046   2.621   0.449 -0.8316 -1.4749 -0.6885
  712TIP3   OH2 2078   0.599   2.791   4.325  0.4702 -0.1163 -0.2301
  712TIP3    H1 2079   0.514   2.762   4.359  1.8694 -3.2062  0.7913
  712TIP3    H2 2080   0.597   2.767   4.233 -0.6052  1.8920 -0.7600
  713TIP3   OH2 2081   1.875   3.818   0.991 -0.2360 -0.5967  0.5083
  713TIP3    H1 2082   1.946   3.759   1.019  0.5500  0.0209 -0.1701
  713TIP3    H2 2083   1.917   3.904   0.985 -0.2226 -0.8216 -3.2297
  714TIP3   OH2 2084   3.481   5.658   2.724  0.2320  0.4415 -0.6093
  714TIP3    H1 2085   3.499   5.569   2.754 -0.6363  0.8666  1.2666
  714TIP3    H2 2086   3.539   5.671   2.649  0.6894 -1.5386 -0.6093
  715TIP3   OH2 2087   1.932   5.849   3.182 -0.0446 -0.3864 -0.2117
  715TIP3    H1 2088   1.866   5.877   3.119 -2.5303 -0.4236  2.2694
  715TIP3    H2 2089   1.994   5.797   3.131 -1.9176 -0.3249 -2.6335
  716TIP3   OH2 2090   3.009   4.612   3.225  0.1642 -0.3592 -0.4736
  716TIP3    H1 2091   2.984   4.609   3.133 -1.0126 -0.0308 -0.1632
  716TIP3    H2 2092   2.964   4.537   3.265  1.9411 -1.4620 -0.4621
  717TIP3   OH2 2093   1.395   3.124   0.919 -0.0778  1.0089  0.3568
  717TIP3    H1 2094   1.321   3.111   0.979  0.6981 -0.7731  0.9597
  717TIP3    H2 2095   1.437   3.204   0.950 -1.2066  1.5307  0.5735
  718TIP3   OH2 2096   5.062   4.489   6.689  0.3560  0.2177 -0.6584
  718TIP3    H1 2097   5.092   4.539   6.613 -0.3467  2.3395  0.4299
  718TIP3    H2 2098   4.973   4.463   6.668  0.7082 -0.5853 -1.2057
  719TIP3   OH2 2099   5.647   2.753   6.927  0.1358  1.1089 -0.5374
  719TIP3    H1 2100   5.568   2.730   6.976  0.9914  0.1108  0.3946
  719TIP3    H2 2101   5.615   2.796   6.848 -1.3597  0.2478 -0.4074
  720TIP3   OH2 2102   2.669   3.032   0.669  0.0818 -0.1591 -0.4374
  720TIP3    H1 2103   2.617   3.112   0.668 -1.7717 -1.3236  0.4282
  720TIP3    H2 2104   2.713   3.031   0.584  0.1202  1.7515 -0.4725
  721TIP3   OH2 2105   2.799   4.071   3.137 -0.4417 -0.1764 -0.0803
  721TIP3    H1 2106   2.883   4.089   3.179 -0.2545 -2.9506  0.8715
  721TIP3    H2 2107   2.822   4.022   3.058 -1.0420  1.2713 -1.1701
  722TIP3   OH2 2108   0.054   4.056   1.121  0.1357  0.2674 -0.1166
  722TIP3    H1 2109  -0.014   4.021   1.065 -0.0596  0.8244 -0.2323
  722TIP3    H2 2110   0.078   3.984   1.179  1.4641 -0.8121 -1.9592
  723TIP3   OH2 2111   3.162   2.402   3.736  0.3315 -0.2139 -0.0838
  723TIP3    H1 2112   3.131   2.373   3.651  0.0459  0.0573 -0.0727
  723TIP3    H2 2113   3.216   2.479   3.718 -0.8729  0.6912  0.1012
  724TIP3   OH2 2114   1.719   4.533   2.492  0.1058 -0.3446 -0.0153
  724TIP3    H1 2115   1.677   4.600   2.547  1.5712  0.6063 -0.0223
  724TIP3    H2 2116   1.692   4.554   2.403  1.7185  1.1413 -0.1768
  725TIP3   OH2 2117   1.736   1.515   6.332 -0.2618 -0.8607 -0.3295
  725TIP3    H1 2118   1.708   1.593   6.380  2.0670  0.4162 -0.9572
  725TIP3    H2 2119   1.790   1.467   6.394 -1.8420 -2.0913  0.1141
  726TIP3   OH2 2120   1.589   5.476   6.327  0.7336 -0.6184 -0.1472
  726TIP3    H1 2121   1.605   5.458   6.420  1.7725  0.9305 -0.0076
  726TIP3    H2 2122   1.531   5.553   6.328 -1.7770 -2.4157 -0.7638
  727TIP3   OH2 2123   0.876   3.762   0.075 -0.4090 -0.2008  0.2319
  727TIP3    H1 2124   0.786   3.734   0.056  0.5668 -1.9104 -2.1721
  727TIP3    H2 2125   0.931   3.701   0.025  2.0345  2.0707  0.0175
  728TIP3   OH2 2126   1.286   2.858   0.393  0.1272 -0.0885  0.1644
  728TIP3    H1 2127   1.234   2.910   0.454 -0.1547 -0.1142 -0.0530
  728TIP3    H2 2128   1.319   2.922   0.329  2.6611  0.3757  1.8679
  729TIP3   OH2 2129   1.523   3.385   1.868  0.1091 -0.4445 -0.3213
  729TIP3    H1 2130   1.617   3.376   1.883  0.0075  0.0462  0.6882
  729TIP3    H2 2131   1.513   3.469   1.824 -0.0314  0.4989  1.4722
  730TIP3   OH2 2132   0.637   4.787   0.203 -0.3387  0.3157  0.1680
  730TIP3    H1 2133   0.597   4.712   0.247 -0.0236 -0.2086 -0.4403
  730TIP3    H2 2134   0.690   4.829   0.271 -1.4893  0.7073  0.8392
  731TIP3   OH2 2135   0.927   4.242   0.235 -0.2228 -0.1063  0.0187
  731TIP3    H1 2136   0.974   4.222   0.154  0.7542 -0.9216  0.7702
  731TIP3    H2 2137   0.995   4.267   0.297 -1.2029  3.3057 -0.1792
  732TIP3   OH2 2138   5.235   6.057   6.376  0.0380 -0.3061  0.5333
  732TIP3    H1 2139   5.286   6.012   6.443  1.9418 -0.1221 -0.7414
  732TIP3    H2 2140   5.194   5.986   6.326  1.1338 -0.5697 -0.0132
  733TIP3   OH2 2141   1.339   5.381   2.156  0.2426 -0.4911  0.1229
  733TIP3    H1 2142   1.303   5.328   2.228  1.4626 -1.7601 -0.1872
  733TIP3    H2 2143   1.433   5.381   2.172  0.5186 -0.7913 -1.4811
  734TIP3   OH2 2144   0.036   3.448   3.224 -0.1524  0.1401  0.7623
  734TIP3    H1 2145  -0.031   3.380   3.236  0.5737 -0.3327  2.1901
  734TIP3    H2 2146   0.099   3.409   3.163 -0.4031  0.0178  0.5824
  735TIP3   OH2 2147   2.089   4.354   3.469 -0.3418  0.1841  0.2407
  735TIP3    H1 2148   2.052   4.413   3.534  0.1897  0.8938 -0.0988
  735TIP3    H2 2149   2.173   4.392   3.446 -0.2368 -0.4083 -0.3882
  736TIP3   OH2 2150   2.455   5.742   1.399  0.3109 -0.4045  0.3339
  736TIP3    H1 2151   2.522   5.673   1.394  1.6615  0.9117  0.0190
  736TIP3    H2 2152   2.471   5.785   1.483  3.0567  3.0688 -1.8578
  737TIP3   OH2 2153   3.674   4.773   2.069 -0.1536  0.0991 -0.1095
  737TIP3    H1 2154   3.682   4.808   1.980  0.4208 -0.4390 -0.2742
  737TIP3    H2 2155   3.644   4.682   2.056  2.6754 -0.9101  0.1046
  738TIP3   OH2 2156   7.959   3.372   2.145  0.1973 -0.0124  0.0066
  738TIP3    H1 2157   7.896   3.344   2.212 -0.1125  1.1625  0.2059
  738TIP3    H2 2158   7.988   3.458   2.173 -0.8790  1.0529 -2.0263
  739TIP3   OH2 2159   3.595   3.456   2.292 -0.1532  0.1958 -0.0916
  739TIP3    H1 2160   3.536   3.511   2.243 -1.0017 -0.7567 -0.1601
  739TIP3    H2 2161   3.600   3.496   2.379 -0.1466  0.8056 -0.3762
  740TIP3   OH2 2162   2.755   4.562   1.878  0.4881  0.2599  0.1733
  740TIP3    H1 2163   2.799   4.647   1.886  1.0681 -0.0703  0.4334
  740TIP3    H2 2164   2.697   4.573   1.803  2.5032  0.0192 -1.4360
  741TIP3   OH2 2165   1.695   2.602   1.513 -0.3500 -0.6774 -0.9478
  741TIP3    H1 2166   1.610   2.645   1.508 -0.0686 -0.1423 -1.1274
  741TIP3    H2 2167   1.740   2.627   1.432  0.8696  0.9349  0.2024
  742TIP3   OH2 2168   0.710   3.299   3.606 -0.0562 -0.7727 -0.0990
  742TIP3    H1 2169   0.738   3.358   3.676 -1.6406  0.2604 -0.3274
  742TIP3    H2 2170   0.790   3.282   3.555  0.4087  1.1942 -0.0411
  743TIP3   OH2 2171   4.320   6.275   6.773 -0.4976 -0.0152 -0.1963
  743TIP3    H1 2172   4.396   6.269   6.716  0.4825  0.2006  1.0538
  743TIP3    H2 2173   4.270   6.349   6.739 -0.1618 -0.1640 -1.0278
  744TIP3   OH2 2174   2.530   5.116   1.603 -0.0805 -0.4470  0.1483
  744TIP3    H1 2175   2.570   5.184   1.549  0.9615  0.7314  2.3446
  744TIP3    H2 2176   2.442   5.105   1.567 -0.2540  2.0541 -0.2484
  745TIP3   OH2 2177   1.228   3.587   4.136 -0.1968 -0.0765  0.2510
  745TIP3    H1 2178   1.192   3.656   4.192 -0.4400 -0.8636  1.0840
  745TIP3    H2 2179   1.214   3.506   4.186  0.5586 -0.6681 -0.4793
  746TIP3   OH2 2180   3.138   4.164   1.526  0.6292  0.5421  0.4087
  746TIP3    H1 2181   3.205   4.131   1.585  0.5327  0.8919  0.7148
  746TIP3    H2 2182   3.098   4.085   1.489  1.7397  0.3440 -0.3877
  747TIP3   OH2 2183   1.876   2.670   2.474 -0.3340 -0.0970  0.1079
  747TIP3    H1 2184   1.915   2.600   2.526  1.0101  0.4031 -0.2108
  747TIP3    H2 2185   1.861   2.630   2.388 -0.9062 -0.4092  0.3542
  748TIP3   OH2 2186   2.295   5.677   2.082  0.4825  0.1669  0.2850
  748TIP3    H1 2187   2.368   5.696   2.141  0.9694 -0.5211 -0.0861
  748TIP3    H2 2188   2.273   5.586   2.100  1.0777 -0.2628 -1.0587
  749TIP3   OH2 2189   2.181   2.981   3.065 -0.4512  0.5359  0.2204
  749TIP3    H1 2190   2.106   2.954   3.011  0.2258 -1.4657  0.2320
  749TIP3    H2 2191   2.153   2.965   3.155 -0.5238  1.1205  0.3017
  750TIP3   OH2 2192   3.101   3.727   2.367 -0.5268  0.1328  0.1291
  750TIP3    H1 2193   3.042   3.797   2.337 -1.0677 -0.0803  0.6716
  750TIP3    H2 2194   3.048   3.678   2.430  0.5452  0.4934  1.3236
  751TIP3   OH2 2195   0.281   3.203   3.669 -0.3196  0.0321 -0.9143
  751TIP3    H1 2196   0.309   3.260   3.598  0.8862  0.8579  0.1949
  751TIP3    H2 2197   0.186   3.216   3.675 -0.3402  0.3725 -2.0004
  752TIP3   OH2 2198   0.946   4.509   2.089  0.5670 -0.6250  0.5016
  752TIP3    H1 2199   0.965   4.532   1.998  1.5551  0.3090  0.9254
  752TIP3    H2 2200   1.031   4.515   2.133 -0.4340  2.5200  2.1994
  753TIP3   OH2 2201   2.883   5.083   2.284  0.3412 -0.1689  0.1558
  753TIP3    H1 2202   2.925   5.093   2.370 -1.1389 -0.5915  0.9406
  753TIP3    H2 2203   2.815   5.150   2.282  0.6397  0.1054 -0.8583
  754TIP3   OH2 2204   2.046   3.942   2.783 -0.2479  0.2121  0.3002
  754TIP3    H1 2205   1.967   3.942   2.837 -0.6830 -1.5794 -0.2829
  754TIP3    H2 2206   2.118   3.954   2.845 -1.0074  2.8100  0.7261
  755TIP3   OH2 2207   1.638   4.124   4.041 -0.4808  0.2225  0.2804
  755TIP3    H1 2208   1.607   4.035   4.029 -0.3663 -0.0056  1.6154
  755TIP3    H2 2209   1.680   4.147   3.959 -0.6006 -0.9145 -0.0955
  756TIP3   OH2 2210   2.654   4.827   0.910 -0.1709 -0.1643  0.2927
  756TIP3    H1 2211   2.595   4.899   0.932 -0.3798 -0.1920 -0.1717
  756TIP3    H2 2212   2.597   4.755   0.883 -0.0198 -1.0135  2.1822
  757TIP3   OH2 2213   3.803   5.020   1.530  0.1134  0.5980  0.0277
  757TIP3    H1 2214   3.819   5.033   1.436 -2.0181  2.0484 -0.1413
  757TIP3    H2 2215   3.721   4.971   1.534  0.9255 -0.7382  1.1297
  758TIP3   OH2 2216   1.278   1.828   1.069  0.1626 -0.6567  0.5889
  758TIP3    H1 2217   1.299   1.888   0.998 -0.4567 -0.2723  0.7298
  758TIP3    H2 2218   1.353   1.768   1.073 -0.1288 -1.1389 -0.8693
  759TIP3   OH2 2219   4.845   6.829   6.625  0.1931  0.3219 -0.5184
  759TIP3    H1 2220   4.842   6.770   6.550 -0.4868  0.0823 -0.3044
  759TIP3    H2 2221   4.920   6.887   6.607 -0.0021  0.3086 -1.4076
  760TIP3   OH2 2222   2.609   4.243   0.353  0.0006 -0.5199 -0.6395
  760TIP3    H1 2223   2.595   4.166   0.408  0.4759 -0.1991 -0.0607
  760TIP3    H2 2224   2.553   4.311   0.391  1.4937  0.1570  0.4134
  761TIP3   OH2 2225   7.130   1.223   6.740  0.2124 -0.4053  0.1672
  761TIP3    H1 2226   7.046   1.178   6.749 -0.0991  0.0844 -0.2355
  761TIP3    H2 2227   7.153   1.250   6.829 -1.2181  1.5184  0.0048
  762TIP3   OH2 2228   1.986   1.009   2.036 -0.2926 -0.4047  0.5912
  762TIP3    H1 2229   2.065   0.971   1.998  1.0582  1.3757  1.5655
  762TIP3    H2 2230   1.946   1.059   1.966  0.4591  0.2330  0.6175
  763TIP3   OH2 2231   3.618   3.403   0.879 -0.0411 -0.3014  0.0184
  763TIP3    H1 2232   3.711   3.405   0.901  0.4142 -0.1159 -1.8393
  763TIP3    H2 2233   3.598   3.310   0.867  0.3110 -0.2451 -1.1303
  764TIP3   OH2 2234   2.109   6.266   2.062 -0.4933 -0.0523  0.4285
  764TIP3    H1 2235   2.123   6.172   2.056 -0.5702 -0.0605  0.3580
  764TIP3    H2 2236   2.032   6.276   2.119 -1.7383 -0.1335 -1.1929
  765TIP3   OH2 2237   1.424   6.251   1.168  0.4666 -0.5827 -0.4407
  765TIP3    H1 2238   1.364   6.176   1.168  2.1610 -2.0520  3.3717
  765TIP3    H2 2239   1.499   6.222   1.115  1.0037 -1.5285  0.8169
  766TIP3   OH2 2240   2.948   1.312   2.199  0.2937 -0.2869  0.0298
  766TIP3    H1 2241   2.976   1.254   2.270  1.6260  2.5623  1.8999
  766TIP3    H2 2242   3.019   1.310   2.135  0.0824 -1.1075 -0.1896
  767TIP3   OH2 2243   2.800   4.633   0.391 -0.1070  0.6154 -0.3519
  767TIP3    H1 2244   2.763   4.678   0.467  1.2267 -1.0423  1.3353
  767TIP3    H2 2245   2.748   4.553   0.382  0.8205 -0.0431 -0.0749
  768TIP3   OH2 2246   0.683   1.594   1.781 -0.3335  0.0852 -0.6997
  768TIP3    H1 2247   0.660   1.578   1.690 -0.4088  1.4936 -0.9407
  768TIP3    H2 2248   0.724   1.681   1.781 -1.5957  0.7049  0.8174
  769TIP3   OH2 2249   0.384   2.209   0.741 -0.4326 -0.3746  0.5274
  769TIP3    H1 2250   0.338   2.289   0.767 -0.7546  0.5635 -2.7515
  769TIP3    H2 2251   0.469   2.240   0.709  0.9965 -1.7509  2.8283
  770TIP3   OH2 2252   7.907   0.927   5.718 -0.0771 -0.3800 -0.3446
  770TIP3    H1 2253   7.921   0.928   5.813 -1.2068 -0.9774 -0.1705
  770TIP3    H2 2254   7.860   1.009   5.700  1.4525  0.4638 -0.6071
  771TIP3   OH2 2255   2.959   4.570   2.633  0.0855  0.2356 -0.1077
  771TIP3    H1 2256   2.954   4.497   2.570 -1.2966 -0.2162  0.5127
  771TIP3    H2 2257   3.050   4.570   2.662  0.5209 -0.1369 -1.4100
  772TIP3   OH2 2258   3.152   3.000   2.553  0.6739  0.0262 -0.2436
  772TIP3    H1 2259   3.074   3.045   2.520  0.9035 -0.0257 -0.8471
  772TIP3    H2 2260   3.213   3.070   2.575  0.4728  0.0655  0.2021
  773TIP3   OH2 2261   2.129   3.879   0.035  0.4047  0.2605 -0.3647
  773TIP3    H1 2262   2.072   3.805   0.056  0.5353  0.7205  1.7134
  773TIP3    H2 2263   2.217   3.841   0.033  0.3208  0.0866 -0.7512
  774TIP3   OH2 2264   2.121   5.312   2.337  0.3347 -0.0959  0.2768
  774TIP3    H1 2265   2.144   5.220   2.328 -4.1592 -1.3082  0.2883
  774TIP3    H2 2266   2.150   5.352   2.254  1.2867 -1.6968 -0.1795
  775TIP3   OH2 2267   0.732   2.885   2.518 -0.1423  0.1589  0.3277
  775TIP3    H1 2268   0.790   2.809   2.527  0.7066  0.8388  0.6013
  775TIP3    H2 2269   0.683   2.887   2.600 -1.0535 -0.8246 -0.1832
  776TIP3   OH2 2270   8.116   6.166   0.683 -0.2698 -0.1417 -0.0855
  776TIP3    H1 2271   8.202   6.143   0.646 -0.0519 -0.7154  0.7686
  776TIP3    H2 2272   8.134   6.240   0.740  0.1237 -1.8967  2.1347
  777TIP3   OH2 2273   0.888   5.896   3.608 -0.3330 -0.0951  0.0807
  777TIP3    H1 2274   0.897   5.957   3.535 -0.6681  0.0843  0.1879
  777TIP3    H2 2275   0.845   5.947   3.677 -0.8752 -0.5246  0.0689
  778TIP3   OH2 2276   8.204   1.471   5.345  0.7232 -0.0668  0.0265
  778TIP3    H1 2277   8.163   1.556   5.328  0.4423 -0.3579 -0.7834
  778TIP3    H2 2278   8.159   1.437   5.422  0.3585  0.2178 -0.0624
  779TIP3   OH2 2279   8.299   4.533   1.519 -0.5876  0.1841  0.0085
  779TIP3    H1 2280   8.313   4.626   1.504 -0.1756  0.5367  2.3771
  779TIP3    H2 2281   8.384   4.501   1.549 -1.4869 -0.3010  2.1422
  780TIP3   OH2 2282   1.186   4.471   2.246  0.4752  0.7541 -0.4648
  780TIP3    H1 2283   1.193   4.428   2.331 -1.1388  0.3563 -0.5271
  780TIP3    H2 2284   1.254   4.430   2.192  0.4158 -0.1367  0.1413
  781TIP3   OH2 2285   2.103   4.286   2.331 -0.4344  0.1953 -0.2328
  781TIP3    H1 2286   2.147   4.298   2.247  1.8196  0.5187  0.9510
  781TIP3    H2 2287   2.010   4.281   2.309  0.2090 -0.8998 -2.8449
  782TIP3   OH2 2288   2.972   1.612   3.028 -0.5369 -0.2378 -0.0605
  782TIP3    H1 2289   2.899   1.557   3.058 -1.1759  2.0098  2.7188
  782TIP3    H2 2290   2.931   1.690   2.992  0.4638  0.1556 -0.3708
  783TIP3   OH2 2291   0.437   3.050   3.975 -0.0327 -1.0106  0.6140
  783TIP3    H1 2292   0.505   2.985   3.994  0.8153 -0.5654 -0.8353
  783TIP3    H2 2293   0.483   3.119   3.927 -1.4793 -0.6048 -0.2093
  784TIP3   OH2 2294   0.623   5.798   3.748  0.7323 -0.3642  0.6602
  784TIP3    H1 2295   0.631   5.708   3.718  2.4879  0.4090 -1.2907
  784TIP3    H2 2296   0.712   5.826   3.768  0.7810  2.1634 -2.5743
  785TIP3   OH2 2297   3.344   3.978   3.536 -0.0532  0.3640  0.0941
  785TIP3    H1 2298   3.405   3.904   3.542 -0.9495 -0.5566 -1.5438
  785TIP3    H2 2299   3.262   3.944   3.572 -0.9059  0.0122 -2.0795
  786TIP3   OH2 2300   8.246   2.172   1.028  0.0885  0.2632  0.0722
  786TIP3    H1 2301   8.208   2.242   1.082 -0.0391  0.1659  0.1107
  786TIP3    H2 2302   8.315   2.215   0.978  0.7517  0.1824  0.9104
  787TIP3   OH2 2303   7.923   7.899   2.637 -0.6041  0.2173 -0.6042
  787TIP3    H1 2304   7.954   7.886   2.547 -1.0143  0.2898 -0.7581
  787TIP3    H2 2305   7.972   7.835   2.688 -2.3469 -1.7377 -1.3091
  788TIP3   OH2 2306   2.081   2.509   2.185 -0.1793 -0.2030 -0.1716
  788TIP3    H1 2307   2.139   2.584   2.171 -0.0289  0.3286  3.0293
  788TIP3    H2 2308   2.137   2.433   2.166  0.3307  0.4084 -1.1859
  789TIP3   OH2 2309   1.475   2.110   3.337 -0.6379 -0.4053 -0.5751
  789TIP3    H1 2310   1.515   2.188   3.376 -0.4158 -1.3478  1.1442
  789TIP3    H2 2311   1.512   2.105   3.249 -2.5316  2.8338 -1.6655
  790TIP3   OH2 2312   2.048   1.490   3.583  0.5513  0.2692  0.2759
  790TIP3    H1 2313   1.998   1.515   3.660 -1.1964  0.7652 -0.9942
  790TIP3    H2 2314   1.998   1.419   3.543  2.5767 -1.5090  0.7660
  791TIP3   OH2 2315   1.818   1.427   2.967 -0.1660  0.1658  0.2737
  791TIP3    H1 2316   1.745   1.380   2.927 -0.4027 -0.4746  1.4339
  791TIP3    H2 2317   1.783   1.459   3.050  0.2478  1.6758 -0.1061
  792TIP3   OH2 2318   1.961   2.751   3.429 -0.6155  0.3742  0.0952
  792TIP3    H1 2319   1.982   2.730   3.338 -0.4465  1.0578 -0.0336
  792TIP3    H2 2320   2.000   2.681   3.480 -0.8266 -0.0847 -0.3738
  793TIP3   OH2 2321   3.475   0.646   0.606 -0.1178  0.6489  0.4410
  793TIP3    H1 2322   3.562   0.638   0.564 -1.0857  1.7869 -1.8695
  793TIP3    H2 2323   3.414   0.613   0.539 -1.4421 -0.6944  2.2697
  794TIP3   OH2 2324   3.349   1.331   1.851 -0.1275  0.5127  0.3880
  794TIP3    H1 2325   3.361   1.414   1.806  0.0195  0.9176  1.1571
  794TIP3    H2 2326   3.407   1.270   1.806 -2.1749  0.1681 -1.8722
  795TIP3   OH2 2327   2.182   3.942   3.365 -0.0948  0.0380 -0.3490
  795TIP3    H1 2328   2.090   3.921   3.379 -0.2368  0.8328 -0.0760
  795TIP3    H2 2329   2.181   4.012   3.299  0.3386 -0.3247 -0.7414
  796TIP3   OH2 2330   2.295   3.483   4.084 -0.5470  0.2218 -0.2653
  796TIP3    H1 2331   2.350   3.427   4.139  0.7413  1.4169 -0.3195
  796TIP3    H2 2332   2.329   3.470   3.995 -1.5663 -0.4389 -0.5819
  797TIP3   OH2 2333   2.356   2.687   2.151 -0.3089  0.7069  0.2826
  797TIP3    H1 2334   2.383   2.670   2.061  0.4145  2.1999  0.1977
  797TIP3    H2 2335   2.365   2.782   2.161 -1.1342  0.6530  1.6900
  798TIP3   OH2 2336   1.763   6.126   5.905 -0.2663 -0.1668 -0.2057
  798TIP3    H1 2337   1.829   6.081   5.852 -0.0802 -0.0647 -0.0608
  798TIP3    H2 2338   1.787   6.107   5.995  0.3079  0.9091 -0.1158
  799TIP3   OH2 2339   1.758   5.541   2.550 -0.1323 -0.4727 -0.0894
  799TIP3    H1 2340   1.818   5.469   2.532  1.2434  0.7225 -0.4020
  799TIP3    H2 2341   1.785   5.610   2.489 -1.1991  0.4324  0.4476
  800TIP3   OH2 2342   2.168   4.667   1.014  0.2924  0.0975  0.5049
  800TIP3    H1 2343   2.144   4.671   1.107 -0.0810  3.3423  0.3157
  800TIP3    H2 2344   2.090   4.696   0.968  1.1040  0.3731 -0.7134
  801TIP3   OH2 2345   1.482   1.711   2.898  0.1069  0.5088 -0.0291
  801TIP3    H1 2346   1.508   1.751   2.815 -0.4655 -1.0521 -0.9816
  801TIP3    H2 2347   1.529   1.628   2.901 -0.1037  0.4174  1.0813
  802TIP3   OH2 2348   1.618   2.315   3.412 -0.5513  0.1339  0.0391
  802TIP3    H1 2349   1.652   2.241   3.463 -0.7890 -0.8841 -1.2580
  802TIP3    H2 2350   1.657   2.304   3.325 -0.2749  1.7623 -0.0589
  803TIP3   OH2 2351   1.965   2.082   0.315  0.1584  0.0544 -0.6605
  803TIP3    H1 2352   1.945   1.988   0.317  1.1596 -0.1422  1.9445
  803TIP3    H2 2353   1.880   2.124   0.300 -0.5944 -1.1977  0.0063
  804TIP3   OH2 2354   2.782   2.076   0.665 -0.6395 -0.0164  0.7584
  804TIP3    H1 2355   2.701   2.027   0.647  0.0209 -0.1663 -2.0756
  804TIP3    H2 2356   2.848   2.008   0.679 -0.5341  0.0720  0.6935
  805TIP3   OH2 2357   3.768   5.184   1.810  0.4949  0.0833 -0.6952
  805TIP3    H1 2358   3.678   5.199   1.782  0.1430  0.9810  0.8425
  805TIP3    H2 2359   3.808   5.135   1.738 -2.6483 -4.9762  0.7759
  806TIP3   OH2 2360   1.081   4.599   3.731 -0.2858  0.0191  0.4556
  806TIP3    H1 2361   1.072   4.656   3.807  0.5943  0.3358  0.3299
  806TIP3    H2 2362   1.158   4.545   3.751  1.5990  1.9328 -1.3649
  807TIP3   OH2 2363   0.900   5.814   1.631 -0.7796  0.1863 -0.1861
  807TIP3    H1 2364   0.967   5.882   1.627 -2.0355  1.4691 -0.0789
  807TIP3    H2 2365   0.824   5.854   1.588 -1.8774 -0.7395  0.8709
  808TIP3   OH2 2366   7.742   2.884   2.715 -0.0456  0.3958  0.3003
  808TIP3    H1 2367   7.699   2.810   2.673  1.1463  0.7727 -1.6459
  808TIP3    H2 2368   7.684   2.959   2.698 -0.2900  0.2844  0.6232
  809TIP3   OH2 2369   2.987   4.770   0.232  0.3105 -0.5406  0.2030
  809TIP3    H1 2370   3.060   4.708   0.230  0.1205 -0.7493 -0.4346
  809TIP3    H2 2371   2.916   4.722   0.272  0.9232  0.1092  2.1040
  810TIP3   OH2 2372   4.803   2.061   1.445 -0.1883  0.5856  0.6506
  810TIP3    H1 2373   4.831   2.019   1.364  0.7064  0.0750  1.2135
  810TIP3    H2 2374   4.759   2.141   1.416  0.6312  0.6986 -0.3258
  811TIP3   OH2 2375   2.604   4.583   2.094  0.1765  0.2973 -0.2042
  811TIP3    H1 2376   2.649   4.578   2.009 -0.7883 -3.0179 -0.5747
  811TIP3    H2 2377   2.654   4.524   2.151 -0.5145  0.7755  0.9101
  812TIP3   OH2 2378   2.619   3.306   1.858 -0.6115  0.0753  0.1811
  812TIP3    H1 2379   2.685   3.367   1.827 -0.6794  0.5274  0.9172
  812TIP3    H2 2380   2.561   3.292   1.783 -0.0348  0.1544 -0.2742
  813TIP3   OH2 2381   2.000   3.270   0.457 -0.2087 -0.5217 -0.4060
  813TIP3    H1 2382   2.038   3.351   0.492 -0.2146  0.7835 -3.2690
  813TIP3    H2 2383   2.038   3.200   0.511  1.4048  1.2163  0.7863
  814TIP3   OH2 2384   1.088   4.379   2.799 -0.2726  0.1134 -0.5821
  814TIP3    H1 2385   1.096   4.293   2.840 -1.1479  0.5499  0.5307
  814TIP3    H2 2386   1.174   4.419   2.808 -0.2522 -0.0971  0.1556
  815TIP3   OH2 2387   2.975   0.704   1.405 -0.0183  0.4099  0.7147
  815TIP3    H1 2388   2.955   0.780   1.460  1.0184  1.8938 -0.9281
  815TIP3    H2 2389   3.052   0.730   1.355  0.3326 -1.7249  0.0935
  816TIP3   OH2 2390   3.322   2.650   1.103  0.1753  0.2742 -0.3434
  816TIP3    H1 2391   3.301   2.663   1.011  0.5213  0.8195 -0.3479
  816TIP3    H2 2392   3.299   2.733   1.145  0.9683  0.3838 -0.1165
  817TIP3   OH2 2393   4.457   4.970   0.776  0.4507  0.4496  0.1319
  817TIP3    H1 2394   4.510   4.937   0.704  1.3882  2.7935 -0.3057
  817TIP3    H2 2395   4.514   4.965   0.853  0.6923  1.2558  0.0125
  818TIP3   OH2 2396   1.405   1.159   6.548 -0.5950  0.1571 -0.5355
  818TIP3    H1 2397   1.358   1.226   6.598  1.0279 -0.5152  1.9852
  818TIP3    H2 2398   1.350   1.081   6.556 -0.8048  0.3005 -0.5805
  819TIP3   OH2 2399   3.020   3.926   1.414  0.0096  0.1963  0.2677
  819TIP3    H1 2400   2.929   3.954   1.422  0.0583  0.7103 -0.8928
  819TIP3    H2 2401   3.021   3.868   1.338  1.0183  1.8204 -0.9948
  820TIP3   OH2 2402   2.731   5.917   2.008  0.2138 -0.0700 -0.2725
  820TIP3    H1 2403   2.726   6.005   2.046 -1.4129 -0.9534  1.6738
  820TIP3    H2 2404   2.649   5.907   1.959  0.0237 -0.7723  0.1712
  821TIP3   OH2 2405   0.482   3.658   1.177  0.8020 -0.3633 -0.2111
  821TIP3    H1 2406   0.558   3.657   1.235  1.8564 -0.7716 -1.5959
  821TIP3    H2 2407   0.493   3.581   1.121 -0.7932 -0.6059 -0.2133
  822TIP3   OH2 2408   2.318   6.059   1.009  0.4901 -0.1103  0.1158
  822TIP3    H1 2409   2.291   6.151   1.010  1.2424  0.1312 -0.8917
  822TIP3    H2 2410   2.411   6.062   0.987  0.4161 -1.1321 -0.3704
  823TIP3   OH2 2411   3.299   2.070   1.295 -0.4143  0.1041  0.3009
  823TIP3    H1 2412   3.352   2.124   1.237  0.9171 -0.4217  0.9968
  823TIP3    H2 2413   3.259   2.005   1.237  0.9083 -0.4197 -0.0468
  824TIP3   OH2 2414   8.402   4.977   2.680  0.1768  0.4110 -0.3783
  824TIP3    H1 2415   8.350   5.030   2.739  0.8989  0.1456  0.4982
  824TIP3    H2 2416   8.420   5.035   2.605 -1.4811  0.4532 -0.7606
  825TIP3   OH2 2417   1.768   2.515   1.762  0.1273  0.3785  0.7498
  825TIP3    H1 2418   1.750   2.552   1.675 -1.7032 -2.1631 -0.0286
  825TIP3    H2 2419   1.688   2.467   1.784  1.3872 -0.8014  2.9004
  826TIP3   OH2 2420   2.804   3.693   0.208 -0.0146 -0.3431  0.4460
  826TIP3    H1 2421   2.709   3.683   0.208 -0.2180  1.3300 -0.4674
  826TIP3    H2 2422   2.836   3.624   0.151 -0.5990 -1.5614  1.5783
  827TIP3   OH2 2423   0.298   5.457   2.715 -0.2237  0.8699  0.3368
  827TIP3    H1 2424   0.227   5.436   2.775  0.2967 -1.7567  0.0988
  827TIP3    H2 2425   0.265   5.432   2.629  0.1148  1.8899 -0.1010
  828TIP3   OH2 2426   3.522   6.149   0.169 -0.1421  0.4115  0.1277
  828TIP3    H1 2427   3.492   6.120   0.255 -1.6538 -1.3066 -0.9367
  828TIP3    H2 2428   3.477   6.091   0.107  2.7238  0.0402 -1.7071
  829TIP3   OH2 2429   1.815   4.622   0.953 -0.4351 -0.1193 -0.3179
  829TIP3    H1 2430   1.884   4.556   0.952 -2.2513 -2.0920  0.9520
  829TIP3    H2 2431   1.781   4.624   0.864 -0.0442 -0.5353 -0.4731
  830TIP3   OH2 2432   2.629   3.303   0.325  0.2977 -0.1077 -0.4441
  830TIP3    H1 2433   2.621   3.396   0.303 -0.0187 -0.0251  0.0064
  830TIP3    H2 2434   2.639   3.302   0.420  1.1638 -0.4911 -0.5361
  831TIP3   OH2 2435   2.400   4.670   0.795 -0.5215  0.1771  0.4784
  831TIP3    H1 2436   2.410   4.577   0.813  0.1358 -0.2534 -1.9286
  831TIP3    H2 2437   2.306   4.686   0.805 -0.6690 -0.7826  0.7187
  832TIP3   OH2 2438   2.536   3.592   0.195 -0.2383 -0.1313  0.0445
  832TIP3    H1 2439   2.468   3.572   0.260  0.2466  3.2181  1.6716
  832TIP3    H2 2440   2.497   3.569   0.111 -2.0104 -1.6490  1.2409
  833TIP3   OH2 2441   3.199   4.341   1.042 -0.4037  0.0713 -0.1072
  833TIP3    H1 2442   3.216   4.435   1.034  0.5441 -0.1465 -0.8449
  833TIP3    H2 2443   3.273   4.300   0.997  0.3870 -1.0913  2.1741
  834TIP3   OH2 2444   4.814   1.978   1.168 -0.3467  0.2920  0.2614
  834TIP3    H1 2445   4.857   1.920   1.105 -4.5891 -1.1841 -1.4403
  834TIP3    H2 2446   4.829   2.066   1.133  1.2767 -0.1828 -0.2825
  835TIP3   OH2 2447   1.396   4.332   2.115  0.0967  0.0670 -0.1569
  835TIP3    H1 2448   1.369   4.241   2.123  1.1354 -0.0244  2.5317
  835TIP3    H2 2449   1.405   4.346   2.020  0.6851 -2.8124 -0.5568
  836TIP3   OH2 2450   0.985   3.366   1.012 -0.3550 -0.4015  0.1214
  836TIP3    H1 2451   1.080   3.374   1.005 -0.1090 -3.0196 -0.0756
  836TIP3    H2 2452   0.951   3.393   0.927  0.1601  0.7614  0.2676
  837TIP3   OH2 2453   1.109   1.111   6.853  0.1641  0.0900 -0.5149
  837TIP3    H1 2454   1.174   1.049   6.821  0.9754  0.7917 -0.2311
  837TIP3    H2 2455   1.053   1.060   6.912  1.8160 -0.0096  0.9940
  838TIP3   OH2 2456   1.429   2.713   1.561 -0.3572  0.0061 -0.5137
  838TIP3    H1 2457   1.338   2.741   1.572 -0.5723 -0.1858 -1.6940
  838TIP3    H2 2458   1.478   2.794   1.549  0.2738  0.4133  4.1476
  839TIP3   OH2 2459   1.207   4.654   5.140  0.3832 -0.3250  0.2639
  839TIP3    H1 2460   1.196   4.560   5.148 -1.5275 -0.0651  0.9964
  839TIP3    H2 2461   1.141   4.681   5.077  1.3090  0.4544 -0.3971
  840TIP3   OH2 2462   1.899   1.086   1.533  0.3774  0.4485  0.8986
  840TIP3    H1 2463   1.924   0.998   1.505 -1.9806 -0.1665  0.6008
  840TIP3    H2 2464   1.826   1.110   1.475 -0.8823  1.4235  2.8149
  841TIP3   OH2 2465   3.348   3.434   0.928 -0.2557 -0.1112 -0.2079
  841TIP3    H1 2466   3.439   3.423   0.957 -0.1586 -0.8461 -0.7613
  841TIP3    H2 2467   3.354   3.500   0.859 -0.2115  0.1940  0.0857
  842TIP3   OH2 2468   6.856   6.653   5.824  0.0341  0.0887 -0.3684
  842TIP3    H1 2469   6.907   6.609   5.892  4.1123  1.9659 -2.0482
  842TIP3    H2 2470   6.850   6.590   5.753 -0.9172 -0.5009  0.2240
  843TIP3   OH2 2471   2.514   3.031   0.183  0.1749 -0.2833  0.5395
  843TIP3    H1 2472   2.588   3.021   0.123  0.4291 -1.0009  0.9538
  843TIP3    H2 2473   2.462   2.951   0.171 -0.1890 -0.0738  0.7058
  844TIP3   OH2 2474   3.048   5.488   1.878 -0.0634  0.4156 -0.1449
  844TIP3    H1 2475   2.989   5.459   1.808  0.0814  0.2106 -0.1807
  844TIP3    H2 2476   2.993   5.493   1.956 -0.6641  2.4617 -0.6705
  845TIP3   OH2 2477   3.883   3.306   0.688 -0.1262  0.2710  0.4120
  845TIP3    H1 2478   3.874   3.311   0.783  0.2203  0.6138  0.4283
  845TIP3    H2 2479   3.960   3.359   0.668 -0.1644  0.1556 -0.0549
  846TIP3   OH2 2480   3.384   5.519   0.609 -0.7205  0.0672 -0.2840
  846TIP3    H1 2481   3.296   5.481   0.609 -0.7707  0.1426  0.9808
  846TIP3    H2 2482   3.430   5.471   0.678  0.3511 -0.2261 -1.1935
  847TIP3   OH2 2483   2.332   3.167   0.858 -0.0003  0.5809 -0.6066
  847TIP3    H1 2484   2.326   3.199   0.948 -0.2607  1.0635 -0.7935
  847TIP3    H2 2485   2.349   3.073   0.868  0.3018  0.6863 -0.0559
  848TIP3   OH2 2486   2.378   3.508   0.559 -0.1749  0.0183 -0.6197
  848TIP3    H1 2487   2.293   3.531   0.522 -0.7826 -0.9802  0.1294
  848TIP3    H2 2488   2.426   3.591   0.562 -0.7441  0.4110 -1.9813
  849TIP3   OH2 2489   4.369   4.329   0.227  0.0201 -0.2266  0.0974
  849TIP3    H1 2490   4.294   4.348   0.172  0.6347  0.0674 -0.6450
  849TIP3    H2 2491   4.441   4.379   0.188  0.9339 -1.6256 -0.0574
  850TIP3   OH2 2492   3.880   3.323   1.001  0.4907 -0.0175 -0.0203
  850TIP3    H1 2493   3.974   3.329   0.979  0.2952  0.2251 -0.8310
  850TIP3    H2 2494   3.878   3.294   1.092  1.3458 -1.6977 -0.5303
  851TIP3   OH2 2495   5.525   2.388   0.802 -0.2254  0.4801  0.5239
  851TIP3    H1 2496   5.552   2.296   0.792 -2.6038 -0.0845 -0.9900
  851TIP3    H2 2497   5.517   2.400   0.896  0.0259 -0.8830  0.7354
  852TIP3   OH2 2498   4.602   2.941   0.784 -0.3664  0.1439  0.0716
  852TIP3    H1 2499   4.615   3.036   0.793 -1.2634  0.1086  2.0606
  852TIP3    H2 2500   4.507   2.931   0.779 -0.2283 -0.5825 -1.1566
  853TIP3   OH2 2501   2.555   5.698   0.786  0.9191 -0.2305 -0.1595
  853TIP3    H1 2502   2.472   5.708   0.833  1.6745 -0.0555  1.1599
  853TIP3    H2 2503   2.611   5.766   0.823  1.6263 -0.2826 -1.1177
  854TIP3   OH2 2504   3.709   2.828   2.740 -0.0370  0.4081  0.3173
  854TIP3    H1 2505   3.793   2.844   2.698 -0.5024  2.2913  0.0764
  854TIP3    H2 2506   3.657   2.907   2.722 -1.9346 -0.8033  0.2467
  855TIP3   OH2 2507   3.930   2.886   3.081  0.1944 -0.3664 -0.0432
  855TIP3    H1 2508   3.932   2.982   3.084  0.6717 -0.3384 -1.1087
  855TIP3    H2 2509   4.019   2.859   3.101 -0.0268 -0.6073  0.6411
  856TIP3   OH2 2510   2.474   4.896   1.374 -0.4778  0.3159 -0.3187
  856TIP3    H1 2511   2.452   4.929   1.461 -0.8652 -2.6893  0.8032
  856TIP3    H2 2512   2.389   4.874   1.334 -0.1586 -0.9273 -0.3398
  857TIP3   OH2 2513   4.611   2.682   2.726 -0.5701 -0.0727 -0.2829
  857TIP3    H1 2514   4.638   2.591   2.715 -1.2183 -0.2246 -0.6099
  857TIP3    H2 2515   4.515   2.679   2.730 -0.6434  0.7060 -1.2842
  858TIP3   OH2 2516   1.935   2.937   2.498  0.2440  0.0294  0.4173
  858TIP3    H1 2517   1.918   2.846   2.474 -0.2609  0.0600  0.6429
  858TIP3    H2 2518   1.979   2.974   2.422 -0.3907 -0.1544 -0.0465
  859TIP3   OH2 2519   0.909   3.187   6.542 -0.0469  0.4393  0.7598
  859TIP3    H1 2520   0.849   3.179   6.468  0.5509  1.1053  0.2035
  859TIP3    H2 2521   0.961   3.107   6.540  0.1685  0.5912  0.2814
  860TIP3   OH2 2522   4.703   1.774   0.726 -0.0417  0.0082 -0.7789
  860TIP3    H1 2523   4.700   1.717   0.649  0.0304  2.8035 -2.9019
  860TIP3    H2 2524   4.634   1.839   0.711 -1.8668 -0.9268  2.8186
  861TIP3   OH2 2525   5.593   2.511   1.470  0.0832  0.2429  0.1830
  861TIP3    H1 2526   5.507   2.486   1.435  0.2483  1.2163 -0.9478
  861TIP3    H2 2527   5.647   2.433   1.458 -0.4127 -0.0939  0.1156
  862TIP3   OH2 2528   4.871   6.107   1.312  0.3929 -0.0030  0.6182
  862TIP3    H1 2529   4.813   6.179   1.288 -1.1211 -0.5086  2.6201
  862TIP3    H2 2530   4.899   6.128   1.401 -0.0104 -1.8347  1.1891
  863TIP3   OH2 2531   2.204   4.629   2.422 -0.0670  0.1600  0.2320
  863TIP3    H1 2532   2.221   4.550   2.473 -2.1623 -0.6385 -0.2324
  863TIP3    H2 2533   2.259   4.620   2.345 -0.3599 -0.8987  0.1352
  864TIP3   OH2 2534   7.791   1.973   5.862  0.2651 -0.1235  0.1816
  864TIP3    H1 2535   7.883   1.949   5.872 -0.0434 -1.5898 -0.4046
  864TIP3    H2 2536   7.779   2.047   5.922  2.3939  1.6350 -1.4364
  865TIP3   OH2 2537   1.726   1.949   5.443  0.2971 -0.6980 -0.0241
  865TIP3    H1 2538   1.643   1.920   5.404  0.7833  0.2911 -1.8692
  865TIP3    H2 2539   1.740   1.890   5.517 -1.6517 -1.3902 -0.1798
  866TIP3   OH2 2540   6.209   0.865   2.102  0.1646 -0.1802  0.2731
  866TIP3    H1 2541   6.282   0.892   2.046  0.5851  0.1470  0.9697
  866TIP3    H2 2542   6.246   0.795   2.157 -0.0319  0.0120  0.6522
  867TIP3   OH2 2543   3.209   1.972   0.991 -0.2738  0.0026  0.2592
  867TIP3    H1 2544   3.160   1.891   1.006 -0.2834  0.1231  0.9050
  867TIP3    H2 2545   3.301   1.946   0.997 -0.2819  0.2452  1.6502
  868TIP3   OH2 2546   3.888   4.731   1.685 -0.0537 -0.1326  0.3406
  868TIP3    H1 2547   3.979   4.746   1.713  0.1001 -1.4693  0.5874
  868TIP3    H2 2548   3.894   4.723   1.590  0.0092  0.3831  0.3031
  869TIP3   OH2 2549   4.097   6.002   2.272 -0.4638 -0.0395  0.0001
  869TIP3    H1 2550   4.018   5.950   2.257 -0.3901 -0.3287  0.6113
  869TIP3    H2 2551   4.084   6.043   2.357  0.1350 -0.2579  0.2034
  870TIP3   OH2 2552   4.080   5.018   1.618  0.9764  0.0337 -0.6388
  870TIP3    H1 2553   3.997   5.023   1.570 -0.0840 -0.7004  1.0692
  870TIP3    H2 2554   4.094   5.107   1.650 -1.4078 -0.6732  2.6722
  871TIP3   OH2 2555   6.770   5.546   5.772 -0.2925  0.1560  0.0791
  871TIP3    H1 2556   6.857   5.580   5.752 -0.9468  1.3319 -0.8850
  871TIP3    H2 2557   6.730   5.531   5.686 -1.4640  0.7851  0.5035
  872TIP3   OH2 2558   4.601   2.546   0.528  0.6951  0.0045 -0.2073
  872TIP3    H1 2559   4.566   2.561   0.616 -0.8264 -0.4626 -0.7139
  872TIP3    H2 2560   4.640   2.630   0.502 -0.0699  0.5385  0.3714
  873TIP3   OH2 2561   5.939   6.301   6.564 -0.3917 -0.0200 -0.1238
  873TIP3    H1 2562   5.850   6.275   6.586 -0.4377  1.1485  1.1248
  873TIP3    H2 2563   5.994   6.251   6.624 -0.2728 -0.0922 -0.2954
  874TIP3   OH2 2564   2.059   5.883   0.491  0.2002 -0.4801 -0.1298
  874TIP3    H1 2565   2.152   5.871   0.469  0.1559 -0.2566 -0.4487
  874TIP3    H2 2566   2.037   5.806   0.543  0.6236 -0.4226  0.1401
  875TIP3   OH2 2567   2.793   4.050   1.757 -0.4930 -0.3331  0.3101
  875TIP3    H1 2568   2.728   4.024   1.823 -0.3309  0.1157  0.6476
  875TIP3    H2 2569   2.806   4.143   1.772  1.0343 -0.6270  0.9581
  876TIP3   OH2 2570   4.251   2.453   1.180  0.0428 -0.0793  0.1243
  876TIP3    H1 2571   4.176   2.398   1.156  0.2149  0.1990 -1.0362
  876TIP3    H2 2572   4.220   2.502   1.257 -0.4475 -1.0604  0.5701
  877TIP3   OH2 2573   0.097   1.424   5.970 -0.1514 -0.2534 -0.4322
  877TIP3    H1 2574   0.122   1.511   5.939 -0.3161 -0.1442 -0.2540
  877TIP3    H2 2575   0.020   1.439   6.025 -1.0838 -0.6725 -1.5885
  878TIP3   OH2 2576   2.125   1.589   6.181 -0.1219 -0.3098  0.1453
  878TIP3    H1 2577   2.212   1.563   6.212 -0.4726 -3.2100 -1.1482
  878TIP3    H2 2578   2.083   1.628   6.258  1.4058 -1.1993  1.4638
  879TIP3   OH2 2579   0.472   0.469   6.269 -0.1453  0.2025 -0.5599
  879TIP3    H1 2580   0.521   0.550   6.286 -1.9973  1.4974 -1.1841
  879TIP3    H2 2581   0.399   0.497   6.214 -0.6264 -1.9743 -1.0600
  880TIP3   OH2 2582   3.489   6.128   1.074  0.0613 -0.2414 -0.4301
  880TIP3    H1 2583   3.485   6.058   1.139 -2.0200  1.9946  1.9452
  880TIP3    H2 2584   3.577   6.164   1.082 -0.6060  0.9068  2.1825
  881TIP3   OH2 2585   4.529   2.913   1.778 -0.2289  0.4052  0.8461
  881TIP3    H1 2586   4.508   2.955   1.861  1.2513  0.4261  1.2254
  881TIP3    H2 2587   4.521   2.982   1.713 -2.9178  0.0337  0.7272
  882TIP3   OH2 2588   1.960   3.152   2.666  0.4534  0.4823  0.6664
  882TIP3    H1 2589   1.960   3.073   2.613  1.3499  0.4224  0.7465
  882TIP3    H2 2590   1.919   3.126   2.749  0.4349  0.1861  0.5627
  883TIP3   OH2 2591   1.402   6.156   0.195 -0.7965 -0.3731 -0.2132
  883TIP3    H1 2592   1.355   6.080   0.161  0.4576 -1.8946  1.3370
  883TIP3    H2 2593   1.470   6.174   0.130 -0.8582 -0.8107 -0.3994
  884TIP3   OH2 2594   3.574   5.050   2.360  0.4904 -0.4165 -0.3259
  884TIP3    H1 2595   3.652   5.053   2.415  0.2444  1.1468 -0.0549
  884TIP3    H2 2596   3.604   5.076   2.273  0.5083 -1.0297 -0.5060
  885TIP3   OH2 2597   5.121   1.373   1.511  0.1959 -0.5036 -0.1351
  885TIP3    H1 2598   5.041   1.358   1.461  1.2723  1.7130 -2.6222
  885TIP3    H2 2599   5.170   1.291   1.504 -0.9321 -1.1653 -0.3232
  886TIP3   OH2 2600   5.400   7.437   6.090 -0.0754  0.8445  0.6007
  886TIP3    H1 2601   5.310   7.461   6.112 -0.4248  1.9918 -1.8232
  886TIP3    H2 2602   5.451   7.517   6.102 -0.0766  1.1947 -1.4570
  887TIP3   OH2 2603   0.168   5.781   2.340 -0.3280 -0.0472  0.0784
  887TIP3    H1 2604   0.195   5.845   2.275 -0.1786 -0.8304 -0.6336
  887TIP3    H2 2605   0.087   5.816   2.377 -0.7675  0.0594 -0.9973
  888TIP3   OH2 2606   0.635   1.780   1.529 -0.6359  0.2888  0.1626
  888TIP3    H1 2607   0.595   1.727   1.460 -0.1343  0.5036 -0.2964
  888TIP3    H2 2608   0.721   1.804   1.495 -1.4559  2.7126 -0.3353
  889TIP3   OH2 2609   4.211   3.809   1.613  0.0602 -0.3989 -0.5110
  889TIP3    H1 2610   4.205   3.718   1.642 -1.0338 -0.0905  0.2582
  889TIP3    H2 2611   4.288   3.844   1.656  1.1040 -1.2491 -1.6360
  890TIP3   OH2 2612   6.141   7.978   5.983 -0.4933 -0.5761 -0.2810
  890TIP3    H1 2613   6.184   8.056   6.018 -0.8340 -1.4870  2.2740
  890TIP3    H2 2614   6.047   7.995   5.995 -0.5948 -1.1463 -0.2539
  891TIP3   OH2 2615   3.851   4.842   0.777  0.9163 -0.3433  0.1211
  891TIP3    H1 2616   3.777   4.866   0.722  0.3547  0.2224  1.1169
  891TIP3    H2 2617   3.836   4.750   0.799  0.6532 -0.3037  0.0998
  892TIP3   OH2 2618   6.807   6.570   6.507 -0.1111 -0.2299  0.1005
  892TIP3    H1 2619   6.749   6.504   6.545  0.1589  0.0374  0.9903
  892TIP3    H2 2620   6.895   6.531   6.514 -0.0268 -0.0598 -0.0080
  893TIP3   OH2 2621   4.939   7.338   6.035 -0.1759 -0.5190 -0.0043
  893TIP3    H1 2622   4.951   7.267   5.972 -2.0318  2.5830 -4.0399
  893TIP3    H2 2623   4.862   7.311   6.085 -1.1442 -1.1816 -1.7906
  894TIP3   OH2 2624   5.363   3.014   0.061  0.1151 -0.0430  0.0017
  894TIP3    H1 2625   5.324   3.084   0.115  0.2489 -0.0822  0.1488
  894TIP3    H2 2626   5.315   3.019  -0.021  0.6065  0.6990 -0.2505
  895TIP3   OH2 2627   2.262   6.217   1.559 -0.0618  0.0311 -0.4917
  895TIP3    H1 2628   2.270   6.152   1.629  0.8292  0.0131 -0.6063
  895TIP3    H2 2629   2.281   6.170   1.479 -0.0391  0.2886 -0.6395
  896TIP3   OH2 2630   2.317   4.254   1.806  0.3331 -0.1836  0.2657
  896TIP3    H1 2631   2.331   4.190   1.875  1.6365  0.9779  1.1137
  896TIP3    H2 2632   2.253   4.315   1.842  0.7960  0.2588  0.3471
  897TIP3   OH2 2633   1.815   5.151   0.154 -0.1567 -0.8606  0.8543
  897TIP3    H1 2634   1.872   5.091   0.105 -0.1734 -0.2783  0.1055
  897TIP3    H2 2635   1.875   5.210   0.199 -0.1461  0.5366 -0.9184
  898TIP3   OH2 2636   5.901   3.600   0.975  0.3072  0.1071  0.3476
  898TIP3    H1 2637   5.979   3.564   0.932  0.0737 -0.6739  0.5756
  898TIP3    H2 2638   5.925   3.606   1.067  1.0553  2.4394  0.0394
  899TIP3   OH2 2639   4.751   3.062   3.308  0.0052 -0.0753 -0.1314
  899TIP3    H1 2640   4.657   3.053   3.293  0.2692 -1.0983 -1.2842
  899TIP3    H2 2641   4.776   2.983   3.354 -0.1770  1.4964  2.7495
  900TIP3   OH2 2642   8.051   7.775   2.840  0.1134 -0.1831  0.1108
  900TIP3    H1 2643   8.114   7.706   2.820  1.1176  0.7049  0.1753
  900TIP3    H2 2644   8.007   7.745   2.920  1.8576  0.1317  1.2138
  901TIP3   OH2 2645   1.360   2.052   0.029  0.0478 -0.0788  0.3980
  901TIP3    H1 2646   1.276   2.044   0.075 -0.4031  0.3736 -0.3391
  901TIP3    H2 2647   1.339   2.040  -0.063  0.8465 -0.2722  0.2373
  902TIP3   OH2 2648   3.796   1.932   1.571  0.2094 -0.0189 -0.3461
  902TIP3    H1 2649   3.724   1.967   1.519 -0.0901  0.4480  0.3807
  902TIP3    H2 2650   3.753   1.889   1.645  0.6166 -0.9978 -0.6725
  903TIP3   OH2 2651   2.291   5.680   0.875 -0.3764  0.0219 -0.5761
  903TIP3    H1 2652   2.245   5.764   0.869 -0.2459  0.2396  1.0884
  903TIP3    H2 2653   2.228   5.616   0.845 -0.0922  0.8131 -2.9896
  904TIP3   OH2 2654   5.168   1.684   1.392 -0.1464 -0.4268  0.6232
  904TIP3    H1 2655   5.170   1.604   1.340  1.3891  0.1713 -0.2757
  904TIP3    H2 2656   5.258   1.696   1.423 -0.0880  1.5476 -0.2107
  905TIP3   OH2 2657   3.366   3.241   1.174 -0.2154  0.0800 -0.3225
  905TIP3    H1 2658   3.433   3.179   1.149  0.0915  0.4648 -0.4555
  905TIP3    H2 2659   3.301   3.237   1.104 -0.4616 -0.4837 -0.0622
  906TIP3   OH2 2660   5.734   2.248   1.400  0.7496  0.1867  0.1322
  906TIP3    H1 2661   5.713   2.181   1.336  1.2449  0.1050  0.0505
  906TIP3    H2 2662   5.802   2.301   1.357  0.1575  0.9123  0.0788
  907TIP3   OH2 2663   5.021   2.897   1.094  0.0144 -0.3763  0.1993
  907TIP3    H1 2664   4.983   2.822   1.140  1.0324 -0.6221  0.6599
  907TIP3    H2 2665   5.079   2.858   1.029  2.2866 -0.0083  1.9275
  908TIP3   OH2 2666   3.447   3.260   0.587 -0.2033  0.2603  0.2479
  908TIP3    H1 2667   3.438   3.206   0.665  0.5308 -1.3942 -0.7838
  908TIP3    H2 2668   3.381   3.225   0.526 -0.4192  1.1985 -0.0618
  909TIP3   OH2 2669   4.338   3.372   0.179 -0.3214  0.4791 -0.2138
  909TIP3    H1 2670   4.416   3.387   0.233 -0.0050 -1.2710 -0.1615
  909TIP3    H2 2671   4.265   3.388   0.239  0.0026  0.6836  0.1336
  910TIP3   OH2 2672   2.411   2.939   2.034  0.1219  0.3157  0.2120
  910TIP3    H1 2673   2.432   2.881   1.961  0.1663  1.5647 -0.7923
  910TIP3    H2 2674   2.324   2.973   2.014 -0.3470 -0.1853  1.3183
  911TIP3   OH2 2675   6.555   7.643   5.783  0.1257  0.2161 -0.2663
  911TIP3    H1 2676   6.601   7.624   5.865  0.1034 -0.8397 -0.4932
  911TIP3    H2 2677   6.533   7.737   5.789  0.1088  0.1458  0.9365
  912TIP3   OH2 2678   5.732   4.158   6.688  0.2866 -0.4732 -0.1877
  912TIP3    H1 2679   5.800   4.122   6.631 -1.3760 -0.7963 -2.0400
  912TIP3    H2 2680   5.779   4.216   6.748  2.1193 -0.1506 -1.8754
  913TIP3   OH2 2681   3.723   4.289   0.115 -0.1380  0.1683 -0.0259
  913TIP3    H1 2682   3.710   4.363   0.174  0.5454  0.0239  0.3153
  913TIP3    H2 2683   3.812   4.258   0.135  0.0489  0.0356 -1.0413
  914TIP3   OH2 2684   3.034   3.716   0.637  0.4070  0.4868 -0.1566
  914TIP3    H1 2685   3.017   3.674   0.553  0.2998 -0.9143  0.5504
  914TIP3    H2 2686   2.955   3.699   0.689  0.9144  0.3814  0.5977
  915TIP3   OH2 2687   4.841   2.626   2.184  0.1136  0.2506  0.2998
  915TIP3    H1 2688   4.932   2.604   2.164 -0.6092  0.6430 -4.0360
  915TIP3    H2 2689   4.790   2.570   2.125 -2.3163  2.2131  0.4817
  916TIP3   OH2 2690   2.855   1.892   2.017  0.4272 -0.8108  0.3283
  916TIP3    H1 2691   2.867   1.980   2.053  0.9889 -0.4398 -0.7369
  916TIP3    H2 2692   2.823   1.840   2.091 -1.2798  0.6112  0.6457
  917TIP3   OH2 2693   4.246   5.283   0.614  0.5286 -0.3689  0.4146
  917TIP3    H1 2694   4.308   5.220   0.650  0.6381 -0.2508  0.4326
  917TIP3    H2 2695   4.301   5.354   0.581  0.3672  0.1921  1.3059
  918TIP3   OH2 2696   4.130   4.782   1.778 -0.1137  0.4971  0.1740
  918TIP3    H1 2697   4.159   4.791   1.869 -0.8585  1.7327  0.2917
  918TIP3    H2 2698   4.126   4.871   1.744  0.2862  0.0370 -1.1219
  919TIP3   OH2 2699   5.276   2.266   0.458 -0.1778 -0.4210  0.0020
  919TIP3    H1 2700   5.333   2.203   0.414  0.6801  0.0709  0.3972
  919TIP3    H2 2701   5.192   2.221   0.464  0.0546 -1.0120 -0.9232
  920TIP3   OH2 2702   1.509   1.052   6.109 -0.0358  0.2545  0.2151
  920TIP3    H1 2703   1.582   1.092   6.157  0.2076 -0.6479  0.6192
  920TIP3    H2 2704   1.457   1.008   6.177  1.0195 -2.1369 -0.4791
  921TIP3   OH2 2705   0.790   5.576   6.165 -0.3574 -0.4366  0.4880
  921TIP3    H1 2706   0.796   5.669   6.184 -1.3476 -0.2373 -0.1616
  921TIP3    H2 2707   0.730   5.542   6.231  0.0706 -0.6410  0.7789
  922TIP3   OH2 2708   8.321   0.227   6.404 -0.3594  0.3787 -0.0121
  922TIP3    H1 2709   8.272   0.289   6.350 -0.6160  0.5179  0.3798
  922TIP3    H2 2710   8.412   0.254   6.394 -0.5114  1.1185  0.5304
  923TIP3   OH2 2711   0.884   0.024   6.696 -0.1416  0.1490  0.0395
  923TIP3    H1 2712   0.964  -0.012   6.734  0.4697  1.4572  0.0250
  923TIP3    H2 2713   0.819   0.019   6.767  0.5414  1.0361  0.7427
  924TIP3   OH2 2714   5.450   5.015   6.140  0.4223 -0.1368 -0.1823
  924TIP3    H1 2715   5.448   5.107   6.168 -0.1441 -0.6030  1.3937
  924TIP3    H2 2716   5.457   5.019   6.045 -1.7192  1.5618 -0.3160
  925TIP3   OH2 2717   1.559   0.074   6.477 -0.1997  0.2577 -0.4293
  925TIP3    H1 2718   1.622   0.132   6.434  0.3688  0.2654  0.4041
  925TIP3    H2 2719   1.534   0.121   6.557 -0.1479 -0.4098 -0.0194
  926TIP3   OH2 2720   5.661   7.103   6.364  0.7710  0.1658  0.8865
  926TIP3    H1 2721   5.670   7.180   6.420 -2.0858  0.7808  0.5951
  926TIP3    H2 2722   5.607   7.133   6.291  0.0457 -1.9803  0.5132
  927TIP3   OH2 2723   0.905   1.549   6.132 -0.1424 -0.3166 -0.0466
  927TIP3    H1 2724   0.903   1.511   6.220  0.3469  0.5204  0.3345
  927TIP3    H2 2725   0.967   1.494   6.084 -0.2527 -0.6520  0.1903
  928TIP3   OH2 2726   5.339   2.586   1.832  0.0724  0.4799  0.0025
  928TIP3    H1 2727   5.383   2.640   1.766  1.6065 -1.2258 -0.3938
  928TIP3    H2 2728   5.262   2.552   1.788 -0.7396  2.0513  0.1556
  929TIP3   OH2 2729   4.280   4.980   0.107 -0.1446  0.2082 -0.4127
  929TIP3    H1 2730   4.360   4.928   0.098 -0.8957 -0.8963 -0.9338
  929TIP3    H2 2731   4.269   5.024   0.023  1.0509  2.0659  0.3799
  930TIP3   OH2 2732   2.606   5.076   1.852 -0.3348 -0.5240  0.1900
  930TIP3    H1 2733   2.595   5.104   1.761 -1.3488  1.1521  0.8038
  930TIP3    H2 2734   2.692   5.111   1.878 -1.2819  1.5266  0.7285
  931TIP3   OH2 2735   4.180   2.969   1.054  0.3040 -0.5076 -0.8498
  931TIP3    H1 2736   4.131   2.919   1.119  0.3322 -1.8809 -1.8674
  931TIP3    H2 2737   4.270   2.969   1.087  0.3778 -1.4711 -1.0301
  932TIP3   OH2 2738   8.183   1.135   5.645  0.2721  0.4848 -0.0785
  932TIP3    H1 2739   8.117   1.098   5.586 -1.5491  2.2634  0.7925
  932TIP3    H2 2740   8.256   1.157   5.588  0.5207 -2.3271 -0.9372
  933TIP3   OH2 2741   7.069   6.017   6.884  0.6158  0.5639  0.3920
  933TIP3    H1 2742   6.990   5.964   6.897  0.9922 -0.1380 -0.1253
  933TIP3    H2 2743   7.045   6.104   6.916  0.6926 -0.4447  3.3801
  934TIP3   OH2 2744   0.464   0.178   6.308  0.5922  0.1581 -0.1390
  934TIP3    H1 2745   0.510   0.262   6.314  0.7151 -0.0684  2.3223
  934TIP3    H2 2746   0.515   0.118   6.363 -0.7627 -0.9562 -0.0784
  935TIP3   OH2 2747   1.476   0.131   5.821  0.4143  0.4459 -0.2493
  935TIP3    H1 2748   1.447   0.058   5.766  0.9384  0.9725 -1.2343
  935TIP3    H2 2749   1.469   0.208   5.764 -0.2780  1.1953  0.8189
  936TIP3   OH2 2750   0.089   2.231   5.833  0.2509  0.3304  0.1472
  936TIP3    H1 2751   0.002   2.216   5.795  1.3906 -1.1454 -1.9936
  936TIP3    H2 2752   0.072   2.245   5.926 -2.1037 -2.0479  0.1387
  937TIP3   OH2 2753   2.433   2.897   0.941  0.0468  0.9009  0.5538
  937TIP3    H1 2754   2.504   2.852   0.986 -0.8563 -0.0889  1.0180
  937TIP3    H2 2755   2.431   2.858   0.854 -1.7143 -1.1338  1.4298
  938TIP3   OH2 2756   2.580   4.686   0.576  0.0440 -0.4443  0.5157
  938TIP3    H1 2757   2.506   4.681   0.636 -1.4614 -3.0624 -1.4437
  938TIP3    H2 2758   2.554   4.750   0.510  1.5759  2.2107  2.4076
  939TIP3   OH2 2759   5.654   5.361   1.123  0.5713  0.1327  0.0755
  939TIP3    H1 2760   5.627   5.278   1.084  0.9938 -0.3342  0.7570
  939TIP3    H2 2761   5.696   5.336   1.205 -0.6766  1.1217  1.0469
  940TIP3   OH2 2762   3.368   4.354   1.297 -0.5707 -0.6355  0.2067
  940TIP3    H1 2763   3.299   4.365   1.232  0.6381  1.1051 -0.8131
  940TIP3    H2 2764   3.402   4.265   1.281 -1.6321 -0.9693 -0.2046
  941TIP3   OH2 2765   3.439   3.861   2.079 -0.5147 -0.1964  0.1090
  941TIP3    H1 2766   3.371   3.831   2.019 -0.3569 -2.2180  0.8793
  941TIP3    H2 2767   3.438   3.797   2.150  2.3859 -0.4599 -0.0155
  942TIP3   OH2 2768   6.195   5.679   1.703 -0.0176  0.0337  0.2311
  942TIP3    H1 2769   6.132   5.610   1.723 -0.8032  1.1262  1.6092
  942TIP3    H2 2770   6.212   5.721   1.787  1.2321  0.8723 -0.4219
  943TIP3   OH2 2771   2.004   0.208   6.117 -0.2311 -0.1529  0.1201
  943TIP3    H1 2772   2.098   0.220   6.102 -0.6833  1.5668 -1.6087
  943TIP3    H2 2773   1.997   0.186   6.210  2.0266 -2.2834 -0.1758
  944TIP3   OH2 2774   2.078   4.269   2.765  0.2571  0.2721  0.5924
  944TIP3    H1 2775   1.983   4.286   2.766  0.0089 -1.0582  2.0844
  944TIP3    H2 2776   2.088   4.195   2.705  0.6049  1.6775 -1.1133
  945TIP3   OH2 2777   7.658   4.372   0.393 -0.1993  0.1848 -0.0500
  945TIP3    H1 2778   7.569   4.369   0.360 -0.0369  0.4866 -0.5349
  945TIP3    H2 2779   7.684   4.464   0.384 -0.3858  0.4099  1.5659
  946TIP3   OH2 2780   3.666   4.851   0.597  0.0712 -0.2164  0.3571
  946TIP3    H1 2781   3.683   4.818   0.509  1.1687 -0.3671  0.6263
  946TIP3    H2 2782   3.638   4.942   0.582 -3.0283 -1.2477 -0.3778
  947TIP3   OH2 2783   3.827   4.111   0.808  0.0393 -0.7458  0.2861
  947TIP3    H1 2784   3.797   4.152   0.889  1.3277 -0.1889  0.4918
  947TIP3    H2 2785   3.791   4.166   0.738 -3.3858 -2.7551  0.3373
  948TIP3   OH2 2786   2.345   4.373   0.692 -0.1901 -0.2377 -0.2275
  948TIP3    H1 2787   2.378   4.393   0.604  0.7568  2.6280  0.7146
  948TIP3    H2 2788   2.256   4.342   0.678 -0.9787  2.6898 -2.0309
  949TIP3   OH2 2789   1.541   2.211   5.797  0.1163 -0.2273 -0.1494
  949TIP3    H1 2790   1.558   2.229   5.889  0.6758 -0.9837 -0.1058
  949TIP3    H2 2791   1.618   2.244   5.751 -0.1965  0.2213 -0.3596
  950TIP3   OH2 2792   5.720   6.412   4.349  0.0049 -1.2562 -0.0919
  950TIP3    H1 2793   5.775   6.445   4.420 -0.3677  0.0990 -0.4137
  950TIP3    H2 2794   5.775   6.420   4.271 -0.6787  0.2862 -0.4462
  951TIP3   OH2 2795   2.449   3.450   1.124  0.4661 -0.2148  0.2397
  951TIP3    H1 2796   2.459   3.355   1.122 -1.3683 -0.4056 -1.6939
  951TIP3    H2 2797   2.410   3.468   1.210  1.9780 -1.0550  1.1208
  952TIP3   OH2 2798   5.754   7.203   5.815  0.0297 -0.0634 -0.1156
  952TIP3    H1 2799   5.764   7.277   5.876  0.1540 -0.3908  0.2647
  952TIP3    H2 2800   5.781   7.238   5.730  0.9959  0.0608  0.2379
  953TIP3   OH2 2801   1.854   3.418   2.244 -0.0488  0.5009 -0.1783
  953TIP3    H1 2802   1.939   3.396   2.283 -0.1345  1.6218  0.6705
  953TIP3    H2 2803   1.856   3.378   2.157  1.7464  1.3600 -0.5415
  954TIP3   OH2 2804   6.895   6.694   6.903  0.7962  0.1695  0.3681
  954TIP3    H1 2805   6.884   6.610   6.857  1.1970  0.8230 -0.9501
  954TIP3    H2 2806   6.989   6.697   6.923  0.8174  0.4083  0.2244
  955TIP3   OH2 2807   4.108   3.382   0.328  0.0164 -0.0198 -0.2994
  955TIP3    H1 2808   4.024   3.337   0.336  0.9072 -1.8395 -0.8280
  955TIP3    H2 2809   4.101   3.430   0.245 -0.7716  0.4459  0.0299
  956TIP3   OH2 2810   8.421   1.268   6.509  0.1631 -0.0943  0.1830
  956TIP3    H1 2811   8.327   1.267   6.491  0.1552  0.7828  0.1490
  956TIP3    H2 2812   8.462   1.252   6.424  0.0450 -0.7798  0.2500
  957TIP3   OH2 2813   4.394   5.057   0.348  0.2013 -0.2898  0.1658
  957TIP3    H1 2814   4.405   5.151   0.334  3.4764 -0.8867 -1.5970
  957TIP3    H2 2815   4.331   5.030   0.281 -0.5734  0.5930  0.5287
  958TIP3   OH2 2816   5.509   3.742   0.611 -0.1643 -0.0048  0.2359
  958TIP3    H1 2817   5.600   3.752   0.641  0.5834  1.1591 -2.3099
  958TIP3    H2 2818   5.456   3.783   0.679  1.2392 -0.3486  1.5587
  959TIP3   OH2 2819   0.212   0.873   6.812 -0.4393  0.2666  0.0416
  959TIP3    H1 2820   0.131   0.823   6.827 -1.6743  2.1974 -0.0269
  959TIP3    H2 2821   0.250   0.885   6.899 -0.3723 -0.3933  0.1056
  960TIP3   OH2 2822   0.012   1.286   6.813 -0.2202 -0.0663  0.4186
  960TIP3    H1 2823   0.059   1.210   6.779  1.0835  0.4495  1.0589
  960TIP3    H2 2824   0.041   1.359   6.758  0.8625  0.5230  1.7633
  961TIP3   OH2 2825   4.225   7.045   5.930  0.0894 -0.2660 -0.0595
  961TIP3    H1 2826   4.272   7.083   5.856 -0.1125  0.2803  0.0985
  961TIP3    H2 2827   4.194   7.119   5.981 -0.2136 -0.6354  0.3033
  962TIP3   OH2 2828   3.501   6.632   0.440  0.0690 -0.6790  0.0657
  962TIP3    H1 2829   3.527   6.693   0.509 -0.9656  0.4569 -0.5457
  962TIP3    H2 2830   3.557   6.655   0.365 -0.4181 -0.3919 -0.2098
  963TIP3   OH2 2831   4.848   2.725   0.233 -0.0608  0.4577 -0.6516
  963TIP3    H1 2832   4.891   2.807   0.255  0.3231  0.5700 -1.7754
  963TIP3    H2 2833   4.755   2.746   0.230 -0.4408 -0.2215  3.7226
  964TIP3   OH2 2834   4.110   7.384   1.199  0.2139  0.5338  0.6683
  964TIP3    H1 2835   4.035   7.325   1.191 -0.5783  1.3903  1.5545
  964TIP3    H2 2836   4.186   7.327   1.202 -0.0849 -0.2354 -3.5833
  965TIP3   OH2 2837   1.687   4.468   3.658  0.2384  0.6516  0.0841
  965TIP3    H1 2838   1.751   4.527   3.619  0.5470  0.1839 -0.1186
  965TIP3    H2 2839   1.737   4.390   3.681 -0.6055 -0.4369 -1.7111
  966TIP3   OH2 2840   2.595   5.397   3.780 -0.3110 -0.1910  0.5000
  966TIP3    H1 2841   2.560   5.483   3.755  1.0917  0.4799  0.8179
  966TIP3    H2 2842   2.667   5.417   3.840  0.6141 -1.5479 -0.1464
  967TIP3   OH2 2843   4.124   3.408   1.054  0.0330  0.1543  0.5185
  967TIP3    H1 2844   4.117   3.495   1.094  0.7867 -0.1628  1.3687
  967TIP3    H2 2845   4.172   3.356   1.119 -0.6327 -0.9664  0.1211
  968TIP3   OH2 2846   5.811   5.668   5.719 -0.3883  0.7706 -0.1344
  968TIP3    H1 2847   5.764   5.702   5.795 -0.0224  1.8448 -0.3678
  968TIP3    H2 2848   5.841   5.747   5.673 -0.1380  0.1255 -1.0915
  969TIP3   OH2 2849   6.771   1.720   2.304 -0.1262  0.6433 -0.0773
  969TIP3    H1 2850   6.770   1.628   2.275 -1.2193  0.0620  1.7126
  969TIP3    H2 2851   6.824   1.719   2.384  0.1746  1.6537 -0.2567
  970TIP3   OH2 2852   6.688   0.272   6.918 -0.2183 -0.6263  0.5476
  970TIP3    H1 2853   6.731   0.311   6.841 -0.8808  0.0418  0.5057
  970TIP3    H2 2854   6.618   0.218   6.881  0.1536 -1.1636  0.6391
  971TIP3   OH2 2855   3.869   2.764   0.774  0.3674 -0.1427  0.2801
  971TIP3    H1 2856   3.778   2.738   0.759  0.0926  1.4600 -0.9434
  971TIP3    H2 2857   3.876   2.850   0.735  2.6484 -0.5783 -0.3382
  972TIP3   OH2 2858   5.716   2.254   1.723 -0.2162 -0.0369 -0.2780
  972TIP3    H1 2859   5.654   2.320   1.755 -0.3579  0.4714 -1.5823
  972TIP3    H2 2860   5.801   2.283   1.755 -0.5043 -0.1381  0.5860
  973TIP3   OH2 2861   2.360   3.420   3.459  0.4999 -0.4816  0.1224
  973TIP3    H1 2862   2.334   3.465   3.378  0.6985 -0.7089 -0.0700
  973TIP3    H2 2863   2.390   3.491   3.516 -0.2663 -0.2506  0.2422
  974TIP3   OH2 2864   4.362   4.551   2.571  0.2519 -0.2279 -0.6635
  974TIP3    H1 2865   4.422   4.613   2.529  0.1928 -0.0934 -0.5472
  974TIP3    H2 2866   4.278   4.597   2.573  0.0273 -0.6063 -1.2780
  975TIP3   OH2 2867   2.479   5.385   0.634  0.3393  0.2495 -0.2399
  975TIP3    H1 2868   2.544   5.346   0.576  1.2308 -1.3584  1.7787
  975TIP3    H2 2869   2.438   5.309   0.678 -0.1932  1.4174  1.3314
  976TIP3   OH2 2870   3.030   3.179   2.295  0.0085  0.1070  0.2640
  976TIP3    H1 2871   3.093   3.155   2.226  0.5136 -1.1944  1.1437
  976TIP3    H2 2872   3.075   3.246   2.346  1.7883 -2.5690  2.3942
  977TIP3   OH2 2873   6.071   4.013   0.829  0.1117  0.3477  0.2494
  977TIP3    H1 2874   6.118   3.940   0.869 -0.7942 -0.2810  0.1881
  977TIP3    H2 2875   6.066   4.079   0.899 -1.5186 -0.7723  1.2252
  978TIP3   OH2 2876   0.341   7.459   6.736  0.2137  0.3006 -0.0252
  978TIP3    H1 2877   0.395   7.484   6.662 -1.3503 -1.7005 -1.8815
  978TIP3    H2 2878   0.398   7.406   6.792  0.9706  0.6210 -0.4940
  979TIP3   OH2 2879   1.494   3.681   2.392 -0.0770 -0.2860 -0.0813
  979TIP3    H1 2880   1.509   3.748   2.459  1.3425 -0.9376  0.2573
  979TIP3    H2 2881   1.560   3.700   2.324 -1.2564  0.1402 -1.1401
  980TIP3   OH2 2882   7.484   7.008   5.723 -0.2085 -0.0844 -0.3669
  980TIP3    H1 2883   7.534   6.935   5.761  0.7076  0.0046 -1.3892
  980TIP3    H2 2884   7.548   7.059   5.675 -1.3176 -0.0620 -1.8581
  981TIP3   OH2 2885   1.482   3.476   1.486 -0.9563  0.3224 -0.8183
  981TIP3    H1 2886   1.464   3.512   1.399  0.4586 -1.2838 -1.8109
  981TIP3    H2 2887   1.482   3.553   1.544 -0.4272  1.6160 -2.4707
  982TIP3   OH2 2888   4.243   1.306   1.296  0.1684 -0.2659 -0.2575
  982TIP3    H1 2889   4.147   1.311   1.291  0.1620  0.0951  0.2675
  982TIP3    H2 2890   4.273   1.378   1.241  0.1385 -0.2042 -0.1930
  983TIP3   OH2 2891   5.534   2.840   2.226 -0.1066  0.2272  0.2307
  983TIP3    H1 2892   5.626   2.855   2.203 -0.4200  0.3970 -0.9560
  983TIP3    H2 2893   5.492   2.925   2.216 -0.4796  0.0560  0.3271
  984TIP3   OH2 2894   3.930   3.639   1.473 -0.1785 -0.1712  0.2161
  984TIP3    H1 2895   3.919   3.674   1.562 -0.2669  0.6039 -0.0910
  984TIP3    H2 2896   3.844   3.603   1.451 -1.1010  2.5103 -0.7576
  985TIP3   OH2 2897   5.722   3.537   2.399 -0.0784  0.7170 -0.4068
  985TIP3    H1 2898   5.744   3.618   2.445 -1.0034 -0.0866  1.4620
  985TIP3    H2 2899   5.636   3.553   2.362 -1.1033 -0.0878  1.5934
  986TIP3   OH2 2900   4.767   5.032   5.132 -0.3292  0.1371  0.2987
  986TIP3    H1 2901   4.691   4.981   5.104 -0.2027  1.1113 -1.8694
  986TIP3    H2 2902   4.732   5.096   5.194 -1.4253  1.1801 -1.3891
  987TIP3   OH2 2903   3.869   0.815   2.366  0.0150  0.2122 -0.3171
  987TIP3    H1 2904   3.892   0.838   2.276 -0.3410  1.2147 -0.1642
  987TIP3    H2 2905   3.807   0.884   2.393 -0.1047 -0.2427  0.5925
  988TIP3   OH2 2906   2.571   6.240   1.686 -0.3820  0.7699  0.3270
  988TIP3    H1 2907   2.602   6.152   1.707 -0.6615  1.7894  5.5695
  988TIP3    H2 2908   2.476   6.230   1.676 -0.4109  0.4983  0.8828
  989TIP3   OH2 2909   2.714   3.435   0.951  0.2587 -0.5022 -0.4897
  989TIP3    H1 2910   2.624   3.432   0.916  1.1057  0.3507 -2.8444
  989TIP3    H2 2911   2.755   3.507   0.904  2.1888 -0.8911  0.5670
  990TIP3   OH2 2912   4.120   2.003   1.170  0.2822  0.0908 -0.0557
  990TIP3    H1 2913   4.115   2.091   1.132 -0.7422 -0.0557 -0.2484
  990TIP3    H2 2914   4.077   2.011   1.255 -1.4856 -0.6604 -0.8574
  991TIP3   OH2 2915   3.871   3.481   2.914 -0.0436  0.2233  0.1139
  991TIP3    H1 2916   3.889   3.551   2.852 -1.0446  0.2513 -0.1551
  991TIP3    H2 2917   3.955   3.438   2.927  0.4014  0.9468 -0.3695
  992TIP3   OH2 2918   6.712   0.769   5.716  0.1424  0.1468 -0.0506
  992TIP3    H1 2919   6.682   0.810   5.797  0.3278 -3.1610  1.8170
  992TIP3    H2 2920   6.803   0.796   5.708  0.9135 -1.5278  2.3368
  993TIP3   OH2 2921   4.762   6.324   6.232  0.0692 -0.3721 -0.0163
  993TIP3    H1 2922   4.825   6.381   6.188  2.3311 -0.4622  2.8963
  993TIP3    H2 2923   4.709   6.383   6.286  0.5045 -0.7196  0.8002
  994TIP3   OH2 2924   2.865   5.201   1.889  0.3931 -0.3109  0.5903
  994TIP3    H1 2925   2.843   5.278   1.942  0.1448  1.6122 -2.2095
  994TIP3    H2 2926   2.888   5.236   1.803  0.7233 -3.3486 -0.6379
  995TIP3   OH2 2927   3.620   3.224   2.434 -0.1447 -0.0350  0.2605
  995TIP3    H1 2928   3.607   3.310   2.394 -2.8466 -0.0511  1.0298
  995TIP3    H2 2929   3.708   3.228   2.471 -0.1089  2.2683  0.0135
  996TIP3   OH2 2930   2.772   2.321   0.577 -0.1191 -0.4756  0.1052
  996TIP3    H1 2931   2.686   2.363   0.569 -0.0956 -0.5964 -0.8667
  996TIP3    H2 2932   2.752   2.229   0.595 -0.2174 -0.6972 -1.0780
  997TIP3   OH2 2933   4.409   5.394   1.520 -0.1520  0.5782  0.8009
  997TIP3    H1 2934   4.337   5.434   1.569 -2.0386  0.5583 -1.8210
  997TIP3    H2 2935   4.460   5.468   1.488 -0.4238  0.6924  0.6279
  998TIP3   OH2 2936   4.276   4.661   3.247 -0.3483 -0.1491  0.4413
  998TIP3    H1 2937   4.259   4.659   3.341 -0.6044 -1.0942  0.3772
  998TIP3    H2 2938   4.372   4.653   3.240 -0.1504  1.8436  0.6829
  999TIP3   OH2 2939   5.338   6.994   6.246  0.3573 -0.2795  0.4417
  999TIP3    H1 2940   5.385   6.936   6.187  0.1388  0.1956 -0.2024
  999TIP3    H2 2941   5.361   7.082   6.217  1.3383 -0.0352  1.9363
 1000TIP3   OH2 2942   4.985   5.722   0.006  0.1037 -0.7236 -0.1880
 1000TIP3    H1 2943   4.953   5.733   0.095  0.1353 -0.3170 -0.2233
 1000TIP3    H2 2944   4.988   5.627  -0.008  0.8129 -0.8071  0.4983
 1001TIP3   OH2 2945   1.561   2.674   5.869 -0.3282 -0.2231 -0.2884
 1001TIP3    H1 2946   1.530   2.664   5.959  2.4537 -0.5132  0.7056
 1001TIP3    H2 2947   1.648   2.634   5.869  0.3457  1.0919 -2.7311
 1002TIP3   OH2 2948   4.899   6.134   0.606  0.8183  0.0120  0.4526
 1002TIP3    H1 2949   4.908   6.222   0.643  0.7135  1.1098 -2.0344
 1002TIP3    H2 2950   4.989   6.101   0.599  0.9933  0.6439 -0.2917
 1003TIP3   OH2 2951   5.392   3.907   0.839 -0.1977 -0.5251 -0.3623
 1003TIP3    H1 2952   5.308   3.877   0.876 -0.3581  0.0829 -0.2280
 1003TIP3    H2 2953   5.448   3.922   0.915  0.1219 -1.1771 -0.4641
 1004TIP3   OH2 2954   2.526   1.579   4.524 -0.2472 -0.0924  0.0327
 1004TIP3    H1 2955   2.601   1.617   4.570 -1.6839 -0.3556  2.6591
 1004TIP3    H2 2956   2.518   1.631   4.444 -0.4789  3.3563  2.2336
 1005TIP3   OH2 2957   2.303   4.162   2.078 -0.6985 -0.4000 -0.1477
 1005TIP3    H1 2958   2.225   4.128   2.120 -0.9855 -1.5176 -1.5362
 1005TIP3    H2 2959   2.361   4.086   2.070  0.2532  0.2721  0.2588
 1006TIP3   OH2 2960   2.791   3.506   1.428  0.9440 -0.0876  0.0506
 1006TIP3    H1 2961   2.774   3.453   1.350  1.6317 -0.8159  0.3929
 1006TIP3    H2 2962   2.704   3.526   1.463  0.6808 -1.0581 -0.0351
 1007TIP3   OH2 2963   5.112   3.965   2.061  0.7571 -0.3150  0.7822
 1007TIP3    H1 2964   5.155   3.945   2.145  2.2182  0.4807  0.2400
 1007TIP3    H2 2965   5.066   4.047   2.077 -0.1905 -0.9179  1.2209
 1008TIP3   OH2 2966   5.798   4.039   1.199 -0.1489  0.0249 -0.4738
 1008TIP3    H1 2967   5.706   4.022   1.178 -0.6233  0.1206  1.3572
 1008TIP3    H2 2968   5.837   4.068   1.117 -2.1230  1.4814 -0.9335
 1009TIP3   OH2 2969   5.801   3.115   1.042  0.3201 -0.1618 -0.2693
 1009TIP3    H1 2970   5.770   3.174   1.111 -2.5157 -0.2403 -1.4147
 1009TIP3    H2 2971   5.795   3.167   0.962  3.6227 -0.0681 -0.4999
 1010TIP3   OH2 2972   6.207   5.520   5.962 -0.0555  0.1055 -0.4817
 1010TIP3    H1 2973   6.291   5.481   5.987  0.4906  1.6828  0.2462
 1010TIP3    H2 2974   6.149   5.446   5.946  1.3110 -0.9948 -0.3879
 1011TIP3   OH2 2975   4.736   1.989   2.104  0.3694 -0.1146  0.0036
 1011TIP3    H1 2976   4.768   1.899   2.110 -1.3026 -0.8871 -1.9552
 1011TIP3    H2 2977   4.813   2.043   2.123  2.3682 -1.9200 -2.5901
 1012TIP3   OH2 2978   0.448   7.429   6.473  0.1162 -0.2409 -0.1651
 1012TIP3    H1 2979   0.442   7.372   6.396  0.0515 -0.9665  0.3683
 1012TIP3    H2 2980   0.542   7.447   6.481  0.0525  0.4070 -0.8210
 1013TIP3   OH2 2981   3.639   5.413   0.522 -0.3207 -0.2963  0.5879
 1013TIP3    H1 2982   3.716   5.460   0.553 -0.1694  0.1701 -0.4941
 1013TIP3    H2 2983   3.565   5.470   0.546 -0.4932 -1.5270  3.1619
 1014TIP3   OH2 2984   5.610   1.504   1.472  0.1231 -0.1556  0.6025
 1014TIP3    H1 2985   5.556   1.553   1.534  0.8907  1.4154  0.0571
 1014TIP3    H2 2986   5.667   1.570   1.433  0.8185 -1.4128 -0.5370
 1015TIP3   OH2 2987   6.310   6.461   6.077 -0.6203  0.4796 -0.3607
 1015TIP3    H1 2988   6.315   6.379   6.028  0.6058 -0.3102  1.0861
 1015TIP3    H2 2989   6.321   6.529   6.010  0.1442 -0.5603 -1.3105
 1016TIP3   OH2 2990   3.440   4.255   2.021 -0.3320  0.0056  0.2207
 1016TIP3    H1 2991   3.473   4.165   2.028 -2.2424 -0.7692 -0.4516
 1016TIP3    H2 2992   3.403   4.274   2.107 -0.1725  0.0609  0.2782
 1017TIP3   OH2 2993   3.682   2.411   0.561  0.2055  0.1421  0.3890
 1017TIP3    H1 2994   3.694   2.317   0.544 -0.0799  0.1919 -0.0964
 1017TIP3    H2 2995   3.676   2.450   0.474 -0.5623  0.4928  0.6017
 1018TIP3   OH2 2996   3.935   3.683   2.745  0.1143  0.4865  0.1478
 1018TIP3    H1 2997   3.997   3.750   2.773 -0.2293  0.5763  0.6941
 1018TIP3    H2 2998   3.975   3.645   2.667  0.8182  0.6054  0.4421
 1019TIP3   OH2 2999   5.288   0.813   0.126 -0.1555  0.2543 -0.4423
 1019TIP3    H1 3000   5.230   0.753   0.172 -0.4619  0.6179 -0.3523
 1019TIP3    H2 3001   5.342   0.852   0.195  0.0493  0.0772 -0.5012
 1020TIP3   OH2 3002   7.717   6.265   5.547 -0.1594 -0.3905 -0.1147
 1020TIP3    H1 3003   7.742   6.180   5.509  0.8802 -0.3758  0.5373
 1020TIP3    H2 3004   7.748   6.330   5.484 -2.3505 -0.5309 -1.4053
 1021TIP3   OH2 3005   3.162   4.097   0.151  0.4903 -0.1566  0.8040
 1021TIP3    H1 3006   3.240   4.153   0.148 -0.0301  0.5554  0.4087
 1021TIP3    H2 3007   3.184   4.024   0.094  0.5462  0.4686  0.0115
 1022TIP3   OH2 3008   4.388   2.827   0.387 -0.6220 -0.6501  0.3865
 1022TIP3    H1 3009   4.443   2.819   0.465 -1.3092  1.4857  1.1123
 1022TIP3    H2 3010   4.301   2.800   0.417 -0.6522 -0.9496  0.0391
 1023TIP3   OH2 3011   2.056   3.638   1.097 -0.1782 -0.4271 -0.0274
 1023TIP3    H1 3012   2.109   3.570   1.056  1.3755 -0.1308  1.4197
 1023TIP3    H2 3013   2.097   3.652   1.183 -0.2885  2.5033 -0.3943
 1024TIP3   OH2 3014   3.951   5.619   1.038 -0.7171  0.0269 -0.1078
 1024TIP3    H1 3015   3.975   5.701   0.994  2.1228 -0.4402  0.5015
 1024TIP3    H2 3016   3.985   5.550   0.981 -0.0560 -0.6534  1.0964
 1025TIP3   OH2 3017   2.652   5.721   2.187 -0.3123  0.8283 -0.5275
 1025TIP3    H1 3018   2.685   5.772   2.113 -1.7081 -0.3474 -1.9905
 1025TIP3    H2 3019   2.702   5.639   2.183  0.0948  1.0233  0.2748
 1026TIP3   OH2 3020   5.810   4.653   1.440 -0.1611  0.4481 -0.0175
 1026TIP3    H1 3021   5.852   4.578   1.481 -0.4299  1.3155  1.8978
 1026TIP3    H2 3022   5.724   4.621   1.414 -0.6308  0.3223  1.6323
 1027TIP3   OH2 3023   4.404   1.386   2.225  0.2833 -0.4051 -0.8411
 1027TIP3    H1 3024   4.359   1.359   2.145 -0.7808  0.5093 -0.5637
 1027TIP3    H2 3025   4.410   1.306   2.277  0.1558 -0.8109 -1.4498
 1028TIP3   OH2 3026   3.483   6.286   0.856  0.3210  0.0401 -0.0685
 1028TIP3    H1 3027   3.412   6.350   0.856  1.0265  0.8365 -0.3297
 1028TIP3    H2 3028   3.477   6.244   0.942 -2.0747 -1.7294 -1.0616
 1029TIP3   OH2 3029   1.960   6.088   1.189  0.4832 -0.1099  0.2551
 1029TIP3    H1 3030   1.973   6.155   1.256  1.3629  0.0715 -0.0833
 1029TIP3    H2 3031   1.906   6.131   1.123  1.1102  0.2954  0.0013
 1030TIP3   OH2 3032   2.291   4.720   3.034 -0.2465  0.6809  0.6508
 1030TIP3    H1 3033   2.361   4.783   3.017  0.7590 -1.2928 -3.3577
 1030TIP3    H2 3034   2.336   4.647   3.078 -0.1447  0.2510 -0.1507
 1031TIP3   OH2 3035   1.819   2.998   1.389 -0.3646 -0.0476 -0.1078
 1031TIP3    H1 3036   1.839   3.060   1.319  0.1106  0.9490  0.8995
 1031TIP3    H2 3037   1.880   2.926   1.374 -1.2729 -0.5268 -1.5862
 1032TIP3   OH2 3038   2.982   3.660   1.268 -0.2580  0.1783 -0.2925
 1032TIP3    H1 3039   2.936   3.620   1.342 -0.1081  3.0910  1.4602
 1032TIP3    H2 3040   3.062   3.608   1.259  0.2451  0.4272  2.3285
 1033TIP3   OH2 3041   5.242   7.490   6.426  0.1844  0.4163  0.3036
 1033TIP3    H1 3042   5.181   7.536   6.484 -0.1673 -0.2071  0.4300
 1033TIP3    H2 3043   5.236   7.536   6.343 -1.1570 -0.2118  0.0363
 1034TIP3   OH2 3044   1.030   0.585   6.378  0.3221  0.0008  0.0553
 1034TIP3    H1 3045   1.057   0.495   6.358  1.2710  0.5955 -1.4134
 1034TIP3    H2 3046   1.055   0.597   6.469 -0.3081 -1.4092  0.4313
 1035TIP3   OH2 3047   8.072   2.661   6.482  0.6220 -0.1730 -0.1485
 1035TIP3    H1 3048   8.075   2.590   6.417  1.4806 -0.0756 -0.2321
 1035TIP3    H2 3049   8.124   2.627   6.556 -0.5756 -0.3922  0.6024
 1036TIP3   OH2 3050   2.179   3.257   1.704 -0.4229 -0.5395  0.3814
 1036TIP3    H1 3051   2.129   3.179   1.677 -1.0653 -0.1538  0.4476
 1036TIP3    H2 3052   2.114   3.327   1.707  0.1814  0.0343  0.1905
 1037TIP3   OH2 3053   3.414   4.079   1.249 -0.4445 -0.6298  0.1760
 1037TIP3    H1 3054   3.455   4.001   1.288 -0.6967 -0.2366  1.2343
 1037TIP3    H2 3055   3.352   4.044   1.186  0.0652 -1.2747  0.0183
 1038TIP3   OH2 3056   5.495   3.323   0.365  0.0959 -0.2093  0.1300
 1038TIP3    H1 3057   5.542   3.244   0.390  0.1977  0.0992  0.9355
 1038TIP3    H2 3058   5.482   3.370   0.448 -1.2150 -0.0674 -0.1529
 1039TIP3   OH2 3059   2.384   1.782   2.327  0.3430 -0.1642  0.6319
 1039TIP3    H1 3060   2.461   1.769   2.382  1.1872  1.0942 -0.2260
 1039TIP3    H2 3061   2.366   1.876   2.331 -0.5423 -0.2952  0.0318
 1040TIP3   OH2 3062   4.486   2.004   1.497 -0.5360 -0.0907  0.3019
 1040TIP3    H1 3063   4.438   1.964   1.425  0.1978  1.4275 -1.0449
 1040TIP3    H2 3064   4.530   1.931   1.540  0.4884 -0.8036 -1.8963
 1041TIP3   OH2 3065   5.670   5.912   6.710 -0.2447  0.4255 -0.1156
 1041TIP3    H1 3066   5.726   5.848   6.753 -1.5133 -1.9954 -1.9461
 1041TIP3    H2 3067   5.718   5.936   6.631 -1.9184 -2.0211 -1.9373
 1042TIP3   OH2 3068   5.606   2.419   0.470 -0.4940  0.3408 -0.5494
 1042TIP3    H1 3069   5.595   2.325   0.464 -2.2810  0.4104  1.0056
 1042TIP3    H2 3070   5.601   2.451   0.380 -1.5159 -0.8770 -0.9200
 1043TIP3   OH2 3071   4.009   2.082   1.451  0.2161 -0.5794  0.1501
 1043TIP3    H1 3072   4.076   2.096   1.519  0.7273 -1.6847 -0.1061
 1043TIP3    H2 3073   3.941   2.030   1.495 -0.6478  0.8353  0.5060
 1044TIP3   OH2 3074   3.545   3.882   1.394 -0.1649 -0.1835 -0.5857
 1044TIP3    H1 3075   3.544   3.956   1.454  1.7642  0.1683 -0.9565
 1044TIP3    H2 3076   3.631   3.885   1.353  0.1140 -2.9205 -0.2804
 1045TIP3   OH2 3077   5.076   6.979   6.525 -0.3952 -0.1709  0.3342
 1045TIP3    H1 3078   5.155   6.927   6.510 -0.3806  0.2358 -1.0727
 1045TIP3    H2 3079   5.107   7.069   6.533 -0.5276 -0.2397  1.7168
 1046TIP3   OH2 3080   5.890   6.980   6.143 -0.9937 -0.0814  0.3900
 1046TIP3    H1 3081   5.816   6.957   6.087 -0.7522  0.8722 -0.3395
 1046TIP3    H2 3082   5.905   7.073   6.126  0.4480 -0.2934  0.4401
 1047TIP3   OH2 3083   1.098   0.684   6.671  0.2992 -0.7047  0.1663
 1047TIP3    H1 3084   1.146   0.633   6.735  1.4646  0.9239  0.6274
 1047TIP3    H2 3085   1.016   0.707   6.715  1.1723  0.5603  1.1720
 1048TIP3   OH2 3086   1.385   3.016   0.161 -0.0449 -0.4292  0.7062
 1048TIP3    H1 3087   1.468   3.057   0.185 -0.1229 -0.6927  1.4396
 1048TIP3    H2 3088   1.372   3.041   0.070  0.3036  0.5250  0.9064
 1049TIP3   OH2 3089   3.590   1.299   2.796  0.1385  0.7532  0.6993
 1049TIP3    H1 3090   3.495   1.295   2.803  0.0263  1.3360 -0.4265
 1049TIP3    H2 3091   3.621   1.228   2.853 -0.8870  1.7630  2.5645
 1050TIP3   OH2 3092   3.601   0.355   1.631  0.1524 -0.4055  0.1792
 1050TIP3    H1 3093   3.600   0.408   1.552  3.4757 -0.0420  0.2835
 1050TIP3    H2 3094   3.530   0.390   1.685 -0.7700  0.7459 -1.7356
 1051TIP3   OH2 3095   3.572   7.232   4.551 -0.3907  0.7433  0.0952
 1051TIP3    H1 3096   3.515   7.304   4.578 -1.2003 -0.4322  1.5805
 1051TIP3    H2 3097   3.632   7.219   4.625 -0.6463 -0.4982  0.0999
 1052TIP3   OH2 3098   4.348   1.880   1.298  0.0986  0.0959  0.2450
 1052TIP3    H1 3099   4.416   1.853   1.237 -0.3991 -0.3809 -0.1031
 1052TIP3    H2 3100   4.273   1.903   1.242  0.0880  0.9712  0.5994
 1053TIP3   OH2 3101   5.993   7.451   6.335 -0.5545  0.2069 -0.0513
 1053TIP3    H1 3102   6.087   7.453   6.351 -0.7376  0.5283  0.9903
 1053TIP3    H2 3103   5.968   7.543   6.328 -0.9292  0.1480  0.5005
 1054TIP3   OH2 3104   2.528   0.319   5.267 -0.1203 -0.0262  0.0100
 1054TIP3    H1 3105   2.540   0.257   5.195  2.4979  0.7767 -0.2933
 1054TIP3    H2 3106   2.590   0.289   5.335 -0.4739  0.9130  0.7596
 1055TIP3   OH2 3107   5.852   4.788   1.752  0.1157  0.1183 -0.2266
 1055TIP3    H1 3108   5.920   4.721   1.765  1.1031  1.2407  0.4633
 1055TIP3    H2 3109   5.790   4.747   1.692  1.3970 -0.9402 -0.8641
 1056TIP3   OH2 3110   6.730   7.230   5.447 -0.4202 -0.1243  0.2412
 1056TIP3    H1 3111   6.807   7.211   5.500 -0.3316 -0.9373 -0.1650
 1056TIP3    H2 3112   6.752   7.311   5.401  0.3310 -0.5257 -0.1226
 1057TIP3   OH2 3113   3.781   3.092   1.654  0.2458 -0.1055  0.4062
 1057TIP3    H1 3114   3.858   3.037   1.669  0.8301  0.5818 -0.0053
 1057TIP3    H2 3115   3.810   3.180   1.680 -0.0696  0.3433 -0.7631
 1058TIP3   OH2 3116   4.044   3.740   0.406 -0.1352  0.2173 -0.2829
 1058TIP3    H1 3117   3.959   3.714   0.443 -0.2670 -1.1649 -1.5010
 1058TIP3    H2 3118   4.097   3.762   0.483 -1.4422  0.6493  0.5220
 1059TIP3   OH2 3119   3.208   2.435   5.625  0.7336 -0.0663 -0.5043
 1059TIP3    H1 3120   3.159   2.386   5.559  0.4061 -1.4007  0.7307
 1059TIP3    H2 3121   3.148   2.505   5.653  0.6916  0.1968 -1.2385
 1060TIP3   OH2 3122   0.951   6.236   6.435  0.3038  0.1255 -0.0652
 1060TIP3    H1 3123   0.960   6.182   6.513 -2.6255  1.3416  1.1578
 1060TIP3    H2 3124   0.955   6.326   6.468 -0.6228  0.6482 -1.3628
 1061TIP3   OH2 3125   2.866   2.028   1.274  0.0757 -0.2658 -0.2622
 1061TIP3    H1 3126   2.776   2.000   1.287 -0.5099  1.8826  0.6419
 1061TIP3    H2 3127   2.918   1.948   1.286 -1.6804 -1.5045 -0.6967
 1062TIP3   OH2 3128   1.650   1.392   6.908  0.2126 -0.5336  0.2001
 1062TIP3    H1 3129   1.694   1.413   6.826 -1.7121 -0.1191 -0.7629
 1062TIP3    H2 3130   1.628   1.477   6.947 -3.3314 -0.6254 -1.3630
 1063TIP3   OH2 3131   6.088   3.478   2.217 -0.1196  1.1102  0.3094
 1063TIP3    H1 3132   6.055   3.485   2.128 -0.6713 -2.5013  0.1342
 1063TIP3    H2 3133   6.181   3.499   2.209 -0.4276  2.0877 -0.8735
 1064TIP3   OH2 3134   6.734   2.116   2.114 -0.0230 -0.1392 -0.8675
 1064TIP3    H1 3135   6.779   2.149   2.192  2.7646 -0.9895 -2.0595
 1064TIP3    H2 3136   6.723   2.193   2.058 -1.2807  0.3126 -0.0302
 1065TIP3   OH2 3137   7.134   4.990   1.750 -0.5460  0.0915  0.6411
 1065TIP3    H1 3138   7.061   5.033   1.706  0.8037  1.2974 -0.4665
 1065TIP3    H2 3139   7.109   4.897   1.754 -1.4385  0.2390 -1.1262
 1066TIP3   OH2 3140   4.940   2.454   3.521 -0.4576  0.6891  0.5350
 1066TIP3    H1 3141   4.877   2.498   3.579 -0.1999  2.1117 -0.2366
 1066TIP3    H2 3142   4.894   2.374   3.493 -1.1590  0.7359  1.5151
 1067TIP3   OH2 3143   5.809   2.903   2.111 -0.5068  0.2258  0.3663
 1067TIP3    H1 3144   5.872   2.835   2.136 -0.8652  0.0076  0.6954
 1067TIP3    H2 3145   5.860   2.983   2.106 -0.1847  0.0323  0.5288
 1068TIP3   OH2 3146   7.603   2.018   1.432  0.2990 -0.6337 -0.1020
 1068TIP3    H1 3147   7.642   2.103   1.411 -2.7347  0.5519 -1.2161
 1068TIP3    H2 3148   7.633   1.960   1.363  1.9697 -0.3476  0.3717
 1069TIP3   OH2 3149   6.247   1.775   0.468 -0.6791  0.2059  0.3859
 1069TIP3    H1 3150   6.169   1.798   0.518 -1.4166  1.3358 -1.2534
 1069TIP3    H2 3151   6.264   1.852   0.414 -0.3326 -1.2733 -1.6409
 1070TIP3   OH2 3152   8.287   6.005   6.825 -0.0978  0.3228 -0.2394
 1070TIP3    H1 3153   8.367   5.971   6.784  0.5572  0.7686  0.6504
 1070TIP3    H2 3154   8.268   6.086   6.777  0.5729  0.7561  0.2043
 1071TIP3   OH2 3155   0.766   6.150   6.248  0.3276 -0.3459 -0.6506
 1071TIP3    H1 3156   0.693   6.164   6.308  0.3249 -1.0705 -0.4803
 1071TIP3    H2 3157   0.843   6.179   6.296  0.7652 -3.8935  0.9761
 1072TIP3   OH2 3158   7.937   1.296   0.990  0.1787  0.1583 -0.0405
 1072TIP3    H1 3159   7.914   1.254   1.073 -2.1187  0.6328 -0.3816
 1072TIP3    H2 3160   7.931   1.389   1.008  0.7647  0.2741 -0.4500
 1073TIP3   OH2 3161   7.522   3.737   0.002 -0.7065  0.2623  0.4269
 1073TIP3    H1 3162   7.610   3.732  -0.036 -0.1963  0.3073  1.5578
 1073TIP3    H2 3163   7.532   3.798   0.075 -1.7917  0.6333  0.2741
 1074TIP3   OH2 3164   0.611   6.792   6.343 -0.0350  0.2640  0.5430
 1074TIP3    H1 3165   0.582   6.830   6.261 -0.0992  2.1360  1.4063
 1074TIP3    H2 3166   0.683   6.848   6.372  2.6006 -2.6257 -0.1357
 1075TIP3   OH2 3167   2.573   7.863   6.558  0.0306 -0.0996 -0.2733
 1075TIP3    H1 3168   2.663   7.895   6.571 -0.3898  0.2760  1.9233
 1075TIP3    H2 3169   2.519   7.941   6.567 -0.7231 -0.7935  1.2720
 1076TIP3   OH2 3170   8.423   7.160   6.881 -0.0470 -0.2521  0.3260
 1076TIP3    H1 3171   8.359   7.094   6.907 -0.3738 -0.2873 -0.5758
 1076TIP3    H2 3172   8.500   7.110   6.853  0.5194 -0.2057  1.7275
 1077TIP3   OH2 3173   5.644   2.835   1.032  0.3821  0.9999 -0.3201
 1077TIP3    H1 3174   5.571   2.785   1.068  0.4693  1.7839  0.9667
 1077TIP3    H2 3175   5.605   2.916   0.999  0.6786  1.4740  0.4804
 1078TIP3   OH2 3176   7.046   4.063   1.373 -0.3649 -0.5710  0.9137
 1078TIP3    H1 3177   6.977   4.124   1.348  0.6290  0.5274  0.8115
 1078TIP3    H2 3178   7.031   3.986   1.319  0.1169  0.7119 -1.1076
 1079TIP3   OH2 3179   6.995   2.961   0.513  0.3637 -0.0264 -0.0410
 1079TIP3    H1 3180   7.025   2.907   0.586 -1.6829 -2.4938 -0.9694
 1079TIP3    H2 3181   7.011   2.907   0.435 -3.3163 -0.0604 -0.8434
 1080TIP3   OH2 3182   6.158   2.252   0.163 -0.2346 -0.1683 -0.0945
 1080TIP3    H1 3183   6.227   2.310   0.194 -0.3735 -0.8164  1.4800
 1080TIP3    H2 3184   6.080   2.279   0.210 -0.6561 -0.6177 -0.5156
 1081TIP3   OH2 3185   6.983   4.060   0.221  0.8349 -0.2107 -0.0551
 1081TIP3    H1 3186   6.968   4.128   0.287 -0.0830 -1.9785  1.6047
 1081TIP3    H2 3187   7.060   4.014   0.252  0.5333 -0.9078 -0.3360
 1082TIP3   OH2 3188   5.251   4.647   0.938  0.3727 -0.1436  0.2485
 1082TIP3    H1 3189   5.249   4.693   1.022 -1.6169  0.6259 -0.1902
 1082TIP3    H2 3190   5.240   4.716   0.872 -1.5076 -1.0914 -0.4680
 1083TIP3   OH2 3191   6.220   3.701   0.715  0.5503  0.2754 -0.3825
 1083TIP3    H1 3192   6.156   3.635   0.741  2.1183 -2.3047 -2.7922
 1083TIP3    H2 3193   6.181   3.742   0.637  0.6181  0.5633 -0.2627
 1084TIP3   OH2 3194   6.438   5.883   6.070  0.5295 -0.2957 -0.2277
 1084TIP3    H1 3195   6.455   5.790   6.085  0.8010 -0.3679 -0.9563
 1084TIP3    H2 3196   6.354   5.885   6.024  1.2505 -0.2805 -1.5646
 1085TIP3   OH2 3197   7.520   7.600   6.119  0.4800  0.9120 -0.0663
 1085TIP3    H1 3198   7.501   7.536   6.188  2.8321  0.9162  0.6284
 1085TIP3    H2 3199   7.438   7.649   6.108 -0.3139  0.0334  1.7972
 1086TIP3   OH2 3200   0.492   1.934   6.397  0.0062 -0.1306 -0.0944
 1086TIP3    H1 3201   0.445   1.872   6.453 -0.2669 -0.2475 -0.4497
 1086TIP3    H2 3202   0.563   1.883   6.359 -0.0355 -0.1497 -0.1474
 1087TIP3   OH2 3203   3.235   0.060   5.892 -0.4198 -0.1724  0.4662
 1087TIP3    H1 3204   3.246   0.074   5.986 -0.5150  1.0906  0.2994
 1087TIP3    H2 3205   3.231  -0.035   5.883  1.7363 -0.4032  1.4944
 1088TIP3   OH2 3206   6.161   2.507   1.543 -0.6591 -0.0433  0.3563
 1088TIP3    H1 3207   6.093   2.559   1.500  0.8242  1.0810 -0.7124
 1088TIP3    H2 3208   6.189   2.444   1.476  0.8261  0.9252  0.0306
 1089TIP3   OH2 3209   4.436   4.746   1.305  0.5460 -0.0836 -0.0939
 1089TIP3    H1 3210   4.381   4.783   1.374  0.7987  0.1188 -0.0009
 1089TIP3    H2 3211   4.511   4.805   1.300  0.2474  0.2278 -0.9420
 1090TIP3   OH2 3212   5.372   1.615   2.519  0.4478 -0.7928 -0.1531
 1090TIP3    H1 3213   5.296   1.557   2.526  0.1281 -0.3379  0.1809
 1090TIP3    H2 3214   5.337   1.694   2.477  0.6387 -0.3968  0.4337
 1091TIP3   OH2 3215   3.272   4.710   0.819  0.2628  0.2567 -0.8364
 1091TIP3    H1 3216   3.358   4.688   0.784  0.5920  1.7487 -1.0118
 1091TIP3    H2 3217   3.221   4.735   0.742 -0.5575 -1.3459 -0.8189
 1092TIP3   OH2 3218   5.870   1.980   1.350 -0.1012  0.2300  0.1499
 1092TIP3    H1 3219   5.784   1.980   1.309 -0.2457  0.8271  0.4461
 1092TIP3    H2 3220   5.922   2.043   1.299  0.5713 -1.1234 -0.8642
 1093TIP3   OH2 3221   5.100   2.169   1.950 -0.2348 -0.2839 -0.3644
 1093TIP3    H1 3222   5.131   2.129   1.868  1.9158  2.7070 -1.0957
 1093TIP3    H2 3223   5.173   2.157   2.011 -0.7495 -0.1123  0.2843
 1094TIP3   OH2 3224   4.290   4.879   3.610  0.0571 -0.1135  0.1812
 1094TIP3    H1 3225   4.277   4.847   3.699  1.4524 -0.3483  0.3014
 1094TIP3    H2 3226   4.298   4.799   3.557  1.0326  0.0236  0.1157
 1095TIP3   OH2 3227   6.065   3.827   1.345  0.2214 -0.0428 -0.8861
 1095TIP3    H1 3228   6.035   3.743   1.310 -2.2460  0.4823 -0.1493
 1095TIP3    H2 3229   5.984   3.878   1.357  1.5218  1.7965  0.3094
 1096TIP3   OH2 3230   4.470   2.587   0.775  0.4729 -0.1401  0.3748
 1096TIP3    H1 3231   4.513   2.561   0.857  0.8234 -1.1939 -0.1356
 1096TIP3    H2 3232   4.429   2.671   0.795  0.0828 -0.6563  1.7991
 1097TIP3   OH2 3233   5.305   3.149   1.423 -0.2405  0.4842 -0.5277
 1097TIP3    H1 3234   5.259   3.197   1.491 -0.4933 -0.7970  0.2331
 1097TIP3    H2 3235   5.328   3.215   1.358 -1.7807  1.4037 -0.1692
 1098TIP3   OH2 3236   6.346   2.572   0.508 -0.4865 -0.1828  0.0362
 1098TIP3    H1 3237   6.342   2.533   0.421  0.0176  0.8937 -0.4750
 1098TIP3    H2 3238   6.255   2.571   0.540 -0.7127 -0.2938 -0.6168
 1099TIP3   OH2 3239   0.724   7.083   6.837 -0.4000 -0.8471 -0.1170
 1099TIP3    H1 3240   0.778   7.098   6.760  1.0397 -2.3740  0.5405
 1099TIP3    H2 3241   0.733   6.989   6.854 -1.3882 -0.6874  1.3961
 1100TIP3   OH2 3242   0.357   2.172   6.396 -0.2972  0.1713  0.0931
 1100TIP3    H1 3243   0.391   2.095   6.349  1.7228  1.6821 -0.9483
 1100TIP3    H2 3244   0.329   2.231   6.327 -3.5919 -0.3284  0.9100
 1101TIP3   OH2 3245   0.015   6.579   4.982  0.0753 -0.3428 -0.3007
 1101TIP3    H1 3246  -0.003   6.631   5.060 -1.8552 -0.7522 -0.4431
 1101TIP3    H2 3247   0.053   6.498   5.017 -0.4710 -0.3914  0.1951
 1102TIP3   OH2 3248   6.162   3.297   0.423 -0.0470  0.5323 -0.1825
 1102TIP3    H1 3249   6.145   3.270   0.513  1.2827  0.4876  0.0699
 1102TIP3    H2 3250   6.092   3.358   0.402 -0.8691 -0.1313  0.5793
 1103TIP3   OH2 3251   5.880   2.024   1.634 -0.8154 -0.4045  0.1339
 1103TIP3    H1 3252   5.884   2.010   1.540 -0.8276 -0.0747  0.0837
 1103TIP3    H2 3253   5.802   2.077   1.648 -0.2122  0.4684  0.2128
 1104TIP3   OH2 3254   7.767   6.212   6.404 -0.3318  0.3336 -0.4299
 1104TIP3    H1 3255   7.793   6.258   6.484 -0.2310 -1.0818  0.3693
 1104TIP3    H2 3256   7.850   6.179   6.368 -0.5145 -0.1158 -0.4372
 1105TIP3   OH2 3257   4.045   2.319   0.614 -0.0965 -0.8367  0.3202
 1105TIP3    H1 3258   4.117   2.338   0.674 -0.5615  0.2889  0.5373
 1105TIP3    H2 3259   3.974   2.288   0.670 -0.1040 -1.0207  0.2100
 1106TIP3   OH2 3260   7.851   1.389   0.062 -0.8672 -0.4583 -0.0931
 1106TIP3    H1 3261   7.879   1.298   0.050  1.3821  0.2940 -0.7741
 1106TIP3    H2 3262   7.832   1.420  -0.027  0.7010  0.4202 -0.1538
 1107TIP3   OH2 3263   5.049   3.017   0.199 -0.0659 -0.6414  0.0754
 1107TIP3    H1 3264   5.093   2.953   0.142  1.0304  0.2926 -0.1407
 1107TIP3    H2 3265   5.112   3.034   0.269 -1.2011 -1.3775  1.3010
 1108TIP3   OH2 3266   4.374   4.707   0.445  0.3586 -0.2342 -0.1135
 1108TIP3    H1 3267   4.282   4.732   0.459  0.3848 -0.7093  1.0227
 1108TIP3    H2 3268   4.423   4.763   0.505  0.6655 -1.0094  0.3721
 1109TIP3   OH2 3269   5.013   3.428   0.626 -0.3024 -0.3133 -0.1137
 1109TIP3    H1 3270   5.047   3.444   0.715 -2.1227  0.0537  0.5233
 1109TIP3    H2 3271   4.959   3.504   0.607 -0.7029 -0.8545 -1.1645
 1110TIP3   OH2 3272   5.039   4.448   0.961 -0.5832 -0.1207 -0.5493
 1110TIP3    H1 3273   5.102   4.516   0.938 -1.5292  0.7123 -0.7094
 1110TIP3    H2 3274   5.074   4.409   1.041  0.7089 -0.4145 -1.2392
 1111TIP3   OH2 3275   8.381   6.917   6.352  0.1369  0.4466  0.8056
 1111TIP3    H1 3276   8.295   6.890   6.384  0.3269 -1.8485 -0.4878
 1111TIP3    H2 3277   8.428   6.945   6.431 -0.5769 -1.7507  2.0514
 1112TIP3   OH2 3278   1.118   6.756   6.324 -0.3540 -0.1276  0.1087
 1112TIP3    H1 3279   1.076   6.836   6.354 -1.1680  0.3736 -2.2851
 1112TIP3    H2 3280   1.054   6.687   6.341 -0.8232  0.1573 -0.4975
 1113TIP3   OH2 3281   5.600   7.595   6.414  0.1194  0.4241  0.0421
 1113TIP3    H1 3282   5.551   7.620   6.336 -1.6787  0.2323  1.0793
 1113TIP3    H2 3283   5.585   7.666   6.476 -0.0677 -0.3376  0.8859
 1114TIP3   OH2 3284   4.885   3.048   0.501 -0.4095 -0.2484 -0.1452
 1114TIP3    H1 3285   4.838   3.072   0.421 -0.8008 -1.1622 -0.2042
 1114TIP3    H2 3286   4.853   3.110   0.567 -0.9469 -0.2147 -0.4284
 1115TIP3   OH2 3287   2.203   1.065   5.587 -0.0407 -0.0037 -0.0186
 1115TIP3    H1 3288   2.223   1.052   5.680 -0.2378 -0.9984 -0.1082
 1115TIP3    H2 3289   2.198   1.160   5.577 -1.7888  0.0752  1.3543
 1116TIP3   OH2 3290   2.150   0.779   5.600  0.1348  0.5300 -0.1709
 1116TIP3    H1 3291   2.240   0.756   5.578  0.2024  0.9413 -0.3390
 1116TIP3    H2 3292   2.149   0.875   5.599 -0.7081  0.5273 -1.7794
 1117TIP3   OH2 3293   7.131   1.125   0.648  0.0112 -0.8607  0.2178
 1117TIP3    H1 3294   7.196   1.194   0.658 -1.5949  0.4168  2.3591
 1117TIP3    H2 3295   7.056   1.167   0.607 -0.5654 -1.5744  0.5163
 1118TIP3   OH2 3296   2.633   7.204   6.752 -1.0522 -0.2721 -0.4844
 1118TIP3    H1 3297   2.619   7.274   6.689  3.9256 -0.8228 -2.4657
 1118TIP3    H2 3298   2.656   7.250   6.833  0.3543  0.4447 -1.2688
 1119TIP3   OH2 3299   2.353   4.728   0.032 -0.2075  0.5059 -0.1697
 1119TIP3    H1 3300   2.292   4.654   0.033  0.6865 -0.2487  2.2183
 1119TIP3    H2 3301   2.432   4.693  -0.009  0.7833 -0.4012  2.3964
 1120TIP3   OH2 3302   6.581   3.052   0.264 -0.3857  0.3917 -0.6212
 1120TIP3    H1 3303   6.498   3.097   0.245  0.6536  1.9438 -1.6548
 1120TIP3    H2 3304   6.598   3.071   0.356 -2.0652 -1.4529  0.0951
 1121TIP3   OH2 3305   0.584   7.613   5.190  0.0725  0.2154  0.3016
 1121TIP3    H1 3306   0.495   7.578   5.182  0.5617 -0.8045 -0.6962
 1121TIP3    H2 3307   0.609   7.593   5.281 -0.6134  0.2631  0.5028
 1122TIP3   OH2 3308   3.210   0.061   6.777  0.2472 -0.0693  0.2633
 1122TIP3    H1 3309   3.208  -0.031   6.748 -1.3739 -0.4715  1.5581
 1122TIP3    H2 3310   3.150   0.106   6.718  1.4761  0.2780 -0.7312
 1123TIP3   OH2 3311   5.554   3.367   0.103 -0.2923 -0.6580 -0.1396
 1123TIP3    H1 3312   5.538   3.333   0.192 -0.4035 -0.5906 -0.1332
 1123TIP3    H2 3313   5.596   3.294   0.057 -0.4879 -0.7895 -0.1111
 1124TIP3   OH2 3314   4.089   6.748   1.236 -0.3183 -0.5594  0.1494
 1124TIP3    H1 3315   4.184   6.753   1.227 -0.2274 -0.7635  0.9141
 1124TIP3    H2 3316   4.076   6.716   1.325 -1.0964 -1.1917 -0.1903
 1125TIP3   OH2 3317   5.157   3.427   0.351 -0.4925 -0.8226  0.2586
 1125TIP3    H1 3318   5.180   3.417   0.443 -0.6640 -0.2026  0.3753
 1125TIP3    H2 3319   5.148   3.338   0.318  0.0182 -1.0493  0.7297
 1126TIP3   OH2 3320   3.932   3.105   0.060  0.0189 -0.2993  0.5128
 1126TIP3    H1 3321   3.917   3.093   0.153 -1.7569 -1.5622  0.0823
 1126TIP3    H2 3322   4.013   3.156   0.055  0.3495 -0.5806  2.7147
 1127TIP3   OH2 3323   6.988   2.784   0.304 -0.8245  0.5313  0.0875
 1127TIP3    H1 3324   6.981   2.718   0.373 -3.0038  0.7260  0.0629
 1127TIP3    H2 3325   6.995   2.733   0.223 -0.8112  0.3254  0.2179
 1128TIP3   OH2 3326   4.351   6.328   1.340 -0.1508  0.7379  0.5700
 1128TIP3    H1 3327   4.364   6.329   1.435 -0.4857 -0.2303  0.6227
 1128TIP3    H2 3328   4.399   6.406   1.309  0.0041  1.0262  1.5181
 1129TIP3   OH2 3329   3.974   5.112   2.015 -0.5456 -0.0974 -0.1638
 1129TIP3    H1 3330   4.041   5.180   2.002 -0.0169 -0.6969 -0.6154
 1129TIP3    H2 3331   3.918   5.119   1.938 -0.7497  0.1161  0.0032
 1130TIP3   OH2 3332   0.506   7.882   0.292 -0.7804 -0.1612  0.0736
 1130TIP3    H1 3333   0.465   7.812   0.342 -0.3349 -0.6197 -0.2069
 1130TIP3    H2 3334   0.588   7.899   0.337 -0.2319 -0.7860 -0.6826
 1131TIP3   OH2 3335   0.695   2.306   0.391  0.2042 -0.3004  0.5951
 1131TIP3    H1 3336   0.728   2.242   0.453  1.0375 -0.4461  0.0114
 1131TIP3    H2 3337   0.762   2.375   0.390  0.0576 -0.1661  0.0625
 1132TIP3   OH2 3338   3.508   0.199   6.711  0.4558  0.4191  0.2971
 1132TIP3    H1 3339   3.560   0.237   6.641  0.1316  0.5116  0.1041
 1132TIP3    H2 3340   3.440   0.264   6.729 -0.2390 -0.1565 -0.1931
 1133TIP3   OH2 3341   6.942   6.962   5.824 -0.2314 -0.6134 -0.1024
 1133TIP3    H1 3342   6.966   6.987   5.913 -0.0699 -2.1260  0.3011
 1133TIP3    H2 3343   6.923   6.868   5.830  0.0794 -0.7978 -1.7110
 1134TIP3   OH2 3344   1.806  -0.013   3.535 -0.0907  0.1618  0.0591
 1134TIP3    H1 3345   1.789   0.058   3.474 -0.5910 -0.4935 -0.5822
 1134TIP3    H2 3346   1.756   0.010   3.613  0.2805  0.8387  0.0987
 1135TIP3   OH2 3347   5.642   3.002   2.959  0.2038 -0.2190 -0.4131
 1135TIP3    H1 3348   5.697   3.062   2.909 -1.0128  0.3177 -1.1381
 1135TIP3    H2 3349   5.611   2.938   2.894 -0.5829 -0.0996 -0.1681
 1136TIP3   OH2 3350   4.746   3.432   0.499  0.4061  0.1954 -0.4406
 1136TIP3    H1 3351   4.765   3.361   0.561  1.3710 -1.7366 -2.8154
 1136TIP3    H2 3352   4.820   3.491   0.507 -0.1371  0.6712  1.1915
 1137TIP3   OH2 3353   5.109   5.118   0.193  0.2814 -0.5455  0.2930
 1137TIP3    H1 3354   5.145   5.066   0.120 -3.5349 -1.5855 -0.9559
 1137TIP3    H2 3355   5.153   5.203   0.186  1.6627 -1.3902 -1.8060
 1138TIP3   OH2 3356   4.477   3.719   0.142  0.4465  0.1560 -0.2962
 1138TIP3    H1 3357   4.432   3.695   0.223 -0.4626 -0.4130 -0.9571
 1138TIP3    H2 3358   4.444   3.656   0.077  0.6158  1.0636 -1.2703
 1139TIP3   OH2 3359   5.878   3.863   2.160  0.5875  0.2828  0.0658
 1139TIP3    H1 3360   5.892   3.918   2.084  0.5104 -0.2780 -0.3571
 1139TIP3    H2 3361   5.963   3.856   2.202  0.9095 -0.5002 -0.7125
 1140TIP3   OH2 3362   4.026   2.188   2.645 -0.5794 -0.4615  0.7264
 1140TIP3    H1 3363   3.982   2.125   2.702 -2.3198 -0.5771 -0.6905
 1140TIP3    H2 3364   3.954   2.233   2.599  0.5809  3.0611  2.1975
 1141TIP3   OH2 3365   5.533   2.689   0.667  0.3661  0.6113  0.3264
 1141TIP3    H1 3366   5.444   2.708   0.695 -0.0903  2.7969 -2.4429
 1141TIP3    H2 3367   5.577   2.774   0.664  2.2246 -0.3030  0.5901
 1142TIP3   OH2 3368   5.314   1.474   1.337 -0.2079  0.0181 -0.7584
 1142TIP3    H1 3369   5.397   1.472   1.386 -0.5182  0.6616 -0.1856
 1142TIP3    H2 3370   5.251   1.433   1.396 -0.6023  0.8696 -0.5753
 1143TIP3   OH2 3371   4.523   4.499   3.109 -0.9715 -0.6058  0.1149
 1143TIP3    H1 3372   4.520   4.500   3.013  0.0677  1.4388  0.0852
 1143TIP3    H2 3373   4.543   4.589   3.134 -2.2937 -0.8878  2.3094
 1144TIP3   OH2 3374   5.430   2.628   0.312 -0.0272  0.2602  0.2804
 1144TIP3    H1 3375   5.500   2.686   0.283  1.4343 -1.5684  0.0532
 1144TIP3    H2 3376   5.445   2.547   0.264 -1.6867 -0.5069  1.0160
 1145TIP3   OH2 3377   5.475   2.987   0.864  0.0467 -0.1754 -0.0687
 1145TIP3    H1 3378   5.427   2.984   0.782 -1.2293  1.3543  0.5884
 1145TIP3    H2 3379   5.446   3.068   0.906  1.2041 -0.5711  1.5648
 1146TIP3   OH2 3380   6.470   3.589   0.762  0.1723 -0.0227 -0.3846
 1146TIP3    H1 3381   6.444   3.497   0.761 -0.2904  0.0801  1.0117
 1146TIP3    H2 3382   6.394   3.636   0.728 -0.9701  0.1440  2.2762
 1147TIP3   OH2 3383   5.597   2.409   3.267 -0.1200  0.0007 -0.0578
 1147TIP3    H1 3384   5.600   2.318   3.237 -1.2024  0.1145 -0.5171
 1147TIP3    H2 3385   5.653   2.456   3.205  2.2638 -0.6947  1.4834
 1148TIP3   OH2 3386   5.173   2.993   1.970  0.3316 -0.0117  0.4594
 1148TIP3    H1 3387   5.239   2.928   1.996  1.1433  0.2792 -0.8884
 1148TIP3    H2 3388   5.090   2.954   2.000  0.8761 -1.3500  0.2936
 1149TIP3   OH2 3389   5.736   3.579   0.091  0.5496 -0.1786 -0.5102
 1149TIP3    H1 3390   5.661   3.526   0.117  0.8775  0.6101  2.1367
 1149TIP3    H2 3391   5.722   3.594  -0.003 -1.5278 -1.7202 -0.5001
 1150TIP3   OH2 3392   8.211   7.890   5.622 -0.1487  0.0384  0.5210
 1150TIP3    H1 3393   8.266   7.822   5.661  0.1993  0.8970  1.5378
 1150TIP3    H2 3394   8.215   7.963   5.684 -1.3693  0.5995 -0.0482
 1151TIP3   OH2 3395   3.217   3.517   1.177 -0.1236 -0.8991  0.0979
 1151TIP3    H1 3396   3.249   3.605   1.197  0.5722 -1.2777  0.6443
 1151TIP3    H2 3397   3.279   3.484   1.112 -0.5753 -0.8674 -0.3536
 1152TIP3   OH2 3398   6.342   2.025   1.444  0.3078  0.1524  0.1914
 1152TIP3    H1 3399   6.431   1.990   1.444  0.8971  1.6263 -0.3988
 1152TIP3    H2 3400   6.295   1.970   1.506  1.3976 -1.2142 -0.1628
 1153TIP3   OH2 3401   2.792   3.033   2.332 -0.2798  0.0418 -0.2905
 1153TIP3    H1 3402   2.871   3.062   2.287  0.2155  0.9197  1.1020
 1153TIP3    H2 3403   2.787   2.939   2.314  1.5888 -0.2037  0.3394
 1154TIP3   OH2 3404   5.428   2.187   1.410  0.0227 -0.0721 -0.1422
 1154TIP3    H1 3405   5.485   2.166   1.484 -1.8636  0.6169  1.5878
 1154TIP3    H2 3406   5.470   2.147   1.335  0.4238 -3.5584  1.8174
 1155TIP3   OH2 3407   6.848   1.485   2.557 -0.6619 -0.1561  0.1737
 1155TIP3    H1 3408   6.883   1.427   2.490  0.0965  0.4501  0.0455
 1155TIP3    H2 3409   6.924   1.510   2.610 -0.6872  2.0949 -0.8015
 1156TIP3   OH2 3410   6.668   0.792   2.845 -0.1558 -0.3535  0.5318
 1156TIP3    H1 3411   6.761   0.810   2.856 -0.2971  0.5760  0.1697
 1156TIP3    H2 3412   6.647   0.735   2.919  0.7636 -0.8190  0.4448
 1157TIP3   OH2 3413   6.201   1.941   0.069 -0.1080 -0.3527 -0.4687
 1157TIP3    H1 3414   6.135   1.997   0.111 -0.1178  0.5096 -1.6184
 1157TIP3    H2 3415   6.204   1.863   0.124 -0.9756  0.2612  0.4712
 1158TIP3   OH2 3416   4.969   2.567   4.312 -0.2968 -0.1233 -0.0870
 1158TIP3    H1 3417   5.011   2.612   4.385 -0.0185  2.9962 -2.0511
 1158TIP3    H2 3418   4.880   2.603   4.309 -1.0323 -1.9071  0.0919
 1159TIP3   OH2 3419   6.500   6.560   6.722 -0.1127 -0.3941 -0.3435
 1159TIP3    H1 3420   6.418   6.516   6.740  0.4928 -1.5570 -0.3829
 1159TIP3    H2 3421   6.520   6.540   6.631 -0.4464  0.9958 -0.7401
 1160TIP3   OH2 3422   6.141   6.857   6.076 -0.3133  0.0724  0.2097
 1160TIP3    H1 3423   6.213   6.917   6.095  0.8679 -2.3009  3.6069
 1160TIP3    H2 3424   6.062   6.911   6.084  0.8890  1.9174 -0.1704
 1161TIP3   OH2 3425   1.857   6.741   6.164 -0.3462  0.6146 -0.5279
 1161TIP3    H1 3426   1.825   6.739   6.255  0.5791 -0.1663 -0.2141
 1161TIP3    H2 3427   1.928   6.678   6.163  2.3105  3.5056 -0.8077
 1162TIP3   OH2 3428   6.075   4.617   0.494 -0.0177  0.1886 -0.1236
 1162TIP3    H1 3429   6.067   4.528   0.460  1.0865  0.2750 -0.6504
 1162TIP3    H2 3430   6.156   4.650   0.454 -0.3316  1.3640  0.1982
 1163TIP3   OH2 3431   6.342   4.537   0.151 -0.1340  0.4098  0.2096
 1163TIP3    H1 3432   6.341   4.460   0.209  2.6096  1.1152  1.2992
 1163TIP3    H2 3433   6.403   4.514   0.082 -0.7663  0.8891 -0.5102
 1164TIP3   OH2 3434   7.857   7.237   6.916  0.2409  0.1008  0.1310
 1164TIP3    H1 3435   7.844   7.189   6.998  1.3470 -1.3551 -0.5226
 1164TIP3    H2 3436   7.905   7.177   6.860 -1.4009  0.6809 -1.9890
 1165TIP3   OH2 3437   4.708   2.363   1.377  0.1783 -0.4180 -0.3166
 1165TIP3    H1 3438   4.775   2.351   1.310 -0.1157  2.7653 -1.2426
 1165TIP3    H2 3439   4.647   2.427   1.340 -0.1872  1.1642  2.8166
 1166TIP3   OH2 3440   8.183   4.253   0.404  0.0782 -0.0553 -0.9046
 1166TIP3    H1 3441   8.268   4.219   0.430 -0.3024  0.1969  0.7512
 1166TIP3    H2 3442   8.135   4.176   0.371 -0.0431 -0.7630  0.8449
 1167TIP3   OH2 3443   7.083   4.914   0.920  0.1605 -0.0678  0.4153
 1167TIP3    H1 3444   7.157   4.948   0.871  0.9850 -2.2910  0.0484
 1167TIP3    H2 3445   7.009   4.970   0.895  1.5624  1.7559  0.2895
 1168TIP3   OH2 3446   6.916   2.831   1.176  0.0911  0.0896  0.0438
 1168TIP3    H1 3447   6.846   2.804   1.236 -1.0952  2.9092 -0.0214
 1168TIP3    H2 3448   6.996   2.820   1.227 -0.4547 -2.0324  0.5162
 1169TIP3   OH2 3449   7.192   6.591   5.377 -0.2166  0.0610 -0.1793
 1169TIP3    H1 3450   7.279   6.564   5.346 -0.3254  0.6598 -1.0169
 1169TIP3    H2 3451   7.182   6.547   5.462  1.3246  0.8122  0.4040
 1170TIP3   OH2 3452   6.032   2.920   1.217  0.1975 -0.2842 -0.6795
 1170TIP3    H1 3453   5.959   2.982   1.227  0.1463 -0.0656 -2.2717
 1170TIP3    H2 3454   6.004   2.862   1.146  0.9537 -1.1076 -0.3066
 1171TIP3   OH2 3455   6.101   3.129   0.118 -0.1025  0.3158 -0.2724
 1171TIP3    H1 3456   6.051   3.192   0.171  1.4233  1.1831  0.1537
 1171TIP3    H2 3457   6.125   3.178   0.040 -0.7307 -0.3951 -0.9157
 1172TIP3   OH2 3458   4.743   2.965   1.154 -0.1774  0.6244  0.1603
 1172TIP3    H1 3459   4.826   2.959   1.105 -0.5931  1.5013 -0.6717
 1172TIP3    H2 3460   4.758   3.035   1.217  0.2440 -0.2788  1.0744
 1173TIP3   OH2 3461   7.700   1.642   3.593  0.4290  0.0166  0.1634
 1173TIP3    H1 3462   7.663   1.654   3.505  1.3767  0.3117 -0.2020
 1173TIP3    H2 3463   7.704   1.730   3.630  1.0046  0.0202  0.0997
 1174TIP3   OH2 3464   6.663   6.384   5.854  0.1364 -0.0787 -0.5574
 1174TIP3    H1 3465   6.639   6.327   5.782 -1.5403 -2.1667  1.5557
 1174TIP3    H2 3466   6.583   6.432   5.875  0.1093 -0.7329  0.9613
 1175TIP3   OH2 3467   6.842   2.864   0.918 -0.2789 -0.1559 -0.1120
 1175TIP3    H1 3468   6.923   2.848   0.870  0.6333 -0.6846  1.5726
 1175TIP3    H2 3469   6.868   2.865   1.010 -1.9779  0.9781  0.3785
 1176TIP3   OH2 3470   4.057   4.250   0.981 -0.3085  0.1189 -0.6502
 1176TIP3    H1 3471   4.145   4.281   0.959  0.3254  0.9778  2.6817
 1176TIP3    H2 3472   4.010   4.329   1.008 -1.1824 -0.7395  0.3971
 1177TIP3   OH2 3473   7.155   6.504   5.634 -0.0934  0.1514 -0.3648
 1177TIP3    H1 3474   7.078   6.497   5.692  0.1246  0.3007 -0.0533
 1177TIP3    H2 3475   7.225   6.459   5.681 -0.3561 -1.2820 -1.3237
 1178TIP3   OH2 3476   5.979   3.096   1.971 -0.0810  0.1466  0.0011
 1178TIP3    H1 3477   5.980   3.058   1.884 -1.1376  1.0915 -0.4417
 1178TIP3    H2 3478   5.931   3.178   1.961  0.0600  0.4230  1.4051
 1179TIP3   OH2 3479   5.240   4.002   0.513  0.0467  0.4796 -0.4662
 1179TIP3    H1 3480   5.252   4.032   0.423  0.1805  1.4236 -0.1483
 1179TIP3    H2 3481   5.301   4.057   0.564  0.0515 -0.1202  0.1769
 1180TIP3   OH2 3482   0.107   2.376   0.381  0.2848 -0.3937 -0.1519
 1180TIP3    H1 3483   0.189   2.411   0.416  0.6242  0.4713 -1.7639
 1180TIP3    H2 3484   0.115   2.281   0.391  1.8099 -0.3694 -0.9862
 1181TIP3   OH2 3485   7.115   4.731   5.372  0.0193 -0.0366  0.4622
 1181TIP3    H1 3486   7.160   4.647   5.367  1.4224  0.4925  3.2798
 1181TIP3    H2 3487   7.061   4.724   5.451 -2.0325  0.7208 -0.8219
 1182TIP3   OH2 3488   3.465   0.966   6.183 -0.1033 -0.2949  0.5172
 1182TIP3    H1 3489   3.555   0.995   6.165 -0.4779  0.0342 -0.8321
 1182TIP3    H2 3490   3.462   0.959   6.279  1.5592 -0.9580  0.5516
 1183TIP3   OH2 3491   4.247   2.414   1.552  0.3968  0.0992  0.5091
 1183TIP3    H1 3492   4.325   2.442   1.600  0.1049 -1.3108  1.8210
 1183TIP3    H2 3493   4.204   2.351   1.609 -0.6630 -0.6372 -1.0496
 1184TIP3   OH2 3494   0.117   7.293   6.545 -0.1475 -0.0346 -0.0689
 1184TIP3    H1 3495   0.064   7.339   6.479  1.4153  0.4722 -0.9976
 1184TIP3    H2 3496   0.200   7.340   6.546  0.3987 -1.0010  1.1704
 1185TIP3   OH2 3497   1.501   2.762   6.571 -0.2400 -0.1453 -0.0501
 1185TIP3    H1 3498   1.584   2.751   6.617 -0.2575 -0.7535 -0.1615
 1185TIP3    H2 3499   1.462   2.674   6.570 -1.1459  0.2437  0.4950
 1186TIP3   OH2 3500   5.449   4.108   0.646  0.1622 -0.1938 -0.2145
 1186TIP3    H1 3501   5.427   4.027   0.693  0.6211  1.0644  2.2317
 1186TIP3    H2 3502   5.537   4.131   0.677  0.2251  0.9888 -1.2398
 1187TIP3   OH2 3503   5.739   4.169   0.705  0.0503  0.3116 -0.3117
 1187TIP3    H1 3504   5.794   4.233   0.658  1.7315 -0.6790  0.2788
 1187TIP3    H2 3505   5.781   4.085   0.688 -1.2564 -0.4518  0.2336
 1188TIP3   OH2 3506   5.878   1.598   1.605  0.6153 -0.0937 -0.0350
 1188TIP3    H1 3507   5.955   1.545   1.622  1.0606  0.7952  0.7269
 1188TIP3    H2 3508   5.897   1.642   1.522  1.1339  0.4837  0.3836
 1189TIP3   OH2 3509   5.108   1.180   5.578 -0.1831 -0.0042 -0.9910
 1189TIP3    H1 3510   5.041   1.123   5.614  0.5579 -0.3995 -0.2153
 1189TIP3    H2 3511   5.174   1.120   5.543  0.3999  0.3676 -0.5399
 1190TIP3   OH2 3512   1.275   0.045   6.250  0.4504 -0.3107 -0.5223
 1190TIP3    H1 3513   1.303   0.006   6.168 -1.4062 -0.7771 -0.9435
 1190TIP3    H2 3514   1.192   0.003   6.270  1.8620 -1.7530  2.6849
 1191TIP3   OH2 3515   7.385   6.600   6.098 -0.5064  0.1784 -0.8117
 1191TIP3    H1 3516   7.303   6.627   6.057 -0.1626  1.6482 -0.5593
 1191TIP3    H2 3517   7.439   6.679   6.099  1.1271 -0.8926 -1.4427
 1192TIP3   OH2 3518   6.251   0.628   1.098  0.0744 -0.1322  0.2757
 1192TIP3    H1 3519   6.228   0.589   1.014  0.3776 -0.0232  0.1424
 1192TIP3    H2 3520   6.167   0.654   1.136  0.0550  1.2793 -0.6956
 1193TIP3   OH2 3521   1.461   4.183   1.815 -0.2626 -0.0121 -0.3723
 1193TIP3    H1 3522   1.425   4.271   1.816  0.3039  0.2920 -2.9879
 1193TIP3    H2 3523   1.510   4.178   1.732 -0.3611 -2.7933 -0.3076
 1194TIP3   OH2 3524   0.188   5.966   6.018 -0.0962 -0.1851  0.8300
 1194TIP3    H1 3525   0.104   5.932   6.049 -1.5783  2.0497 -0.5241
 1194TIP3    H2 3526   0.239   5.981   6.097 -2.3432  1.7378  1.9865
 1195TIP3   OH2 3527   7.581   5.610   6.643 -0.0204  0.7039  0.1025
 1195TIP3    H1 3528   7.538   5.575   6.721 -1.2869  0.2345 -0.7960
 1195TIP3    H2 3529   7.518   5.671   6.606 -0.4567 -0.9000 -1.9163
 1196TIP3   OH2 3530   7.192   1.656   0.238  1.0287  0.0539  0.0035
 1196TIP3    H1 3531   7.176   1.745   0.207 -0.9270 -0.8397 -1.6592
 1196TIP3    H2 3532   7.259   1.622   0.179  0.2780 -0.2719 -0.6597
 1197TIP3   OH2 3533   4.705   2.738   1.656 -0.2790 -0.1764 -0.2610
 1197TIP3    H1 3534   4.782   2.780   1.696  0.1426 -3.0312  2.0663
 1197TIP3    H2 3535   4.632   2.794   1.681  0.5189  0.3247  1.0146
 1198TIP3   OH2 3536   1.498   5.713   6.086 -0.3530  0.3847  0.1307
 1198TIP3    H1 3537   1.538   5.782   6.140 -0.4476  0.8587 -0.4054
 1198TIP3    H2 3538   1.432   5.674   6.143 -0.8315  1.2452  0.1795
 1199TIP3   OH2 3539   5.111   4.082   2.478  0.1752 -0.0468 -0.1151
 1199TIP3    H1 3540   5.040   4.142   2.500 -1.3412 -1.4547 -1.0717
 1199TIP3    H2 3541   5.157   4.124   2.406 -2.1653 -0.9450 -2.1982
 1200TIP3   OH2 3542   2.322   7.049   6.571 -0.1962 -0.0200 -0.0825
 1200TIP3    H1 3543   2.267   6.980   6.535 -0.8637  0.6725 -0.3989
 1200TIP3    H2 3544   2.372   7.081   6.496  2.3886 -2.2204  0.6155
 1201TIP3   OH2 3545   6.362   3.890   1.341  0.0440 -0.2224 -0.1996
 1201TIP3    H1 3546   6.374   3.942   1.421 -0.2934 -1.7830  0.8928
 1201TIP3    H2 3547   6.272   3.859   1.347  0.3472 -1.1966 -0.6948
 1202TIP3   OH2 3548   7.080   2.882   0.773  0.7068  0.3736  0.5237
 1202TIP3    H1 3549   7.130   2.800   0.773 -0.5624 -0.4186  1.2278
 1202TIP3    H2 3550   7.129   2.940   0.832 -0.1271 -0.9774  2.5938
 1203TIP3   OH2 3551   5.788   4.377   0.551 -0.4307  0.3635 -0.2025
 1203TIP3    H1 3552   5.866   4.363   0.496 -0.0366  0.2206  0.3910
 1203TIP3    H2 3553   5.752   4.460   0.519 -0.6675 -0.1255 -1.2258
 1204TIP3   OH2 3554   1.328   3.302   0.600  0.3555  0.2330  0.4812
 1204TIP3    H1 3555   1.391   3.355   0.650  1.3057 -2.8605  2.6724
 1204TIP3    H2 3556   1.379   3.227   0.569 -1.5428 -0.6926 -0.4548
 1205TIP3   OH2 3557   6.978   5.077   0.606 -0.4693 -0.0087  0.4122
 1205TIP3    H1 3558   6.942   5.106   0.522  1.9380 -0.0710 -0.6708
 1205TIP3    H2 3559   7.026   5.153   0.639 -0.6829 -0.2673  1.3372
 1206TIP3   OH2 3560   7.989   3.590   1.750  0.5365  0.2584 -0.4910
 1206TIP3    H1 3561   8.040   3.657   1.795 -0.2476  1.0022 -0.7069
 1206TIP3    H2 3562   8.015   3.597   1.658 -1.3772  1.9704 -0.9373
 1207TIP3   OH2 3563   2.316   6.080   5.658  0.4560  0.0090 -0.0558
 1207TIP3    H1 3564   2.399   6.117   5.628  0.3161 -0.6307 -1.2599
 1207TIP3    H2 3565   2.298   6.009   5.597 -1.2392  0.4670 -0.1127
 1208TIP3   OH2 3566   5.725   0.479   2.300 -0.4910  0.4493  0.5699
 1208TIP3    H1 3567   5.782   0.554   2.318 -0.1913  0.3903 -0.1269
 1208TIP3    H2 3568   5.710   0.439   2.386  2.0565 -0.6495  0.5525
 1209TIP3   OH2 3569   8.142   2.228   0.645 -1.0948 -0.1354  0.1038
 1209TIP3    H1 3570   8.082   2.165   0.687 -0.9965  0.3928  1.0582
 1209TIP3    H2 3571   8.212   2.174   0.610 -2.0824 -0.7590 -0.9544
 1210TIP3   OH2 3572   6.329   4.191   0.121 -0.2062 -0.1301 -0.0398
 1210TIP3    H1 3573   6.260   4.219   0.182  0.0097 -0.1549  0.2163
 1210TIP3    H2 3574   6.297   4.110   0.083 -0.3638 -0.0886  0.0038
 1211TIP3   OH2 3575   2.236   0.804   6.536 -0.5674  0.2808 -0.2681
 1211TIP3    H1 3576   2.280   0.722   6.516 -0.6543 -0.2159  1.5145
 1211TIP3    H2 3577   2.306   0.862   6.567 -0.8692  0.1358  0.6739
 1212TIP3   OH2 3578   5.666   3.704   0.888 -0.2596 -0.4341 -0.0220
 1212TIP3    H1 3579   5.702   3.746   0.809 -0.8571  0.3168  0.0970
 1212TIP3    H2 3580   5.743   3.679   0.939  0.1182  0.8098  0.0452
 1213TIP3   OH2 3581   0.385   7.923   6.435 -0.5461 -0.3803  0.1792
 1213TIP3    H1 3582   0.333   7.930   6.515 -0.7194 -1.5260  0.1807
 1213TIP3    H2 3583   0.387   7.829   6.416 -0.5363 -0.1142 -1.1904
 1214TIP3   OH2 3584   0.120   4.273   1.375  0.1740  0.0952 -0.1115
 1214TIP3    H1 3585   0.083   4.280   1.287  1.1708  1.5394 -0.4279
 1214TIP3    H2 3586   0.110   4.360   1.413  1.7727  0.1015  0.3668
 1215TIP3   OH2 3587   6.625   1.922   1.486 -0.8488 -0.3615 -0.2100
 1215TIP3    H1 3588   6.640   1.847   1.544 -1.4014 -0.1813  0.1765
 1215TIP3    H2 3589   6.680   1.991   1.523  0.1184 -0.7445 -0.9173
 1216TIP3   OH2 3590   6.346   4.343   1.063 -0.1359  0.5527  0.1284
 1216TIP3    H1 3591   6.398   4.280   1.014 -1.0399  0.1281 -0.2940
 1216TIP3    H2 3592   6.407   4.415   1.081  1.4105 -1.1864  2.1678
 1217TIP3   OH2 3593   4.316   3.635   0.374  0.7958  0.0546  0.3070
 1217TIP3    H1 3594   4.229   3.606   0.348  1.2668  0.3238 -1.6428
 1217TIP3    H2 3595   4.303   3.725   0.404  0.2779 -0.1712  0.7621
 1218TIP3   OH2 3596   0.370   3.704   0.311 -0.1339  0.2697  0.0129
 1218TIP3    H1 3597   0.389   3.638   0.377 -0.9066  0.8353  0.8073
 1218TIP3    H2 3598   0.454   3.717   0.265  0.7711  0.8964  1.8001
 1219TIP3   OH2 3599   0.293   6.660   6.846  0.0206  0.2343  0.1824
 1219TIP3    H1 3600   0.344   6.714   6.906  1.1722 -1.9277  1.1889
 1219TIP3    H2 3601   0.272   6.581   6.896 -0.5993 -0.7992 -1.6582
 1220TIP3   OH2 3602   7.667   5.954   1.302  0.1064  0.0087  0.7624
 1220TIP3    H1 3603   7.757   5.939   1.329  0.1667  0.6855  0.9704
 1220TIP3    H2 3604   7.652   5.893   1.231  0.2545 -1.1453  1.7034
 1221TIP3   OH2 3605   0.535   1.396   0.420 -1.1147 -0.1861 -0.0603
 1221TIP3    H1 3606   0.446   1.382   0.453 -0.8604 -0.2409  0.5893
 1221TIP3    H2 3607   0.583   1.317   0.444 -1.1074 -0.5391 -1.1764
 1222TIP3   OH2 3608   6.802   1.963   0.216  0.8452  0.1376 -0.6221
 1222TIP3    H1 3609   6.836   2.034   0.271  0.5645  0.2921 -0.6447
 1222TIP3    H2 3610   6.835   1.883   0.256  0.2786  0.2237  0.0344
 1223TIP3   OH2 3611   0.531   6.735   5.500 -0.3521  0.4328  0.2208
 1223TIP3    H1 3612   0.559   6.713   5.589  0.9150 -0.1359 -0.2992
 1223TIP3    H2 3613   0.490   6.655   5.468  0.4775  0.1636 -0.1943
 1224TIP3   OH2 3614   5.938   2.697   2.597 -0.0844 -0.2008  0.1006
 1224TIP3    H1 3615   6.033   2.706   2.584 -0.1880 -0.2242 -0.6685
 1224TIP3    H2 3616   5.921   2.747   2.677  0.2063  1.9792 -1.1469
 1225TIP3   OH2 3617   7.600   2.694   0.803  0.5089  0.2594 -0.1106
 1225TIP3    H1 3618   7.677   2.711   0.749 -0.3901  4.1395 -0.2715
 1225TIP3    H2 3619   7.625   2.726   0.890 -0.0718 -0.7876  0.4511
 1226TIP3   OH2 3620   7.651   4.483   0.047 -0.3552 -0.2252  0.0838
 1226TIP3    H1 3621   7.615   4.466  -0.039  0.8440  0.0316 -0.4741
 1226TIP3    H2 3622   7.590   4.546   0.086 -0.7133 -0.0817 -0.7001
 1227TIP3   OH2 3623   0.437   2.267   0.410 -0.1423 -0.7741 -0.1915
 1227TIP3    H1 3624   0.527   2.285   0.383 -0.2332 -0.4772 -0.2949
 1227TIP3    H2 3625   0.407   2.348   0.451 -0.2701 -0.9657  0.0939
 1228TIP3   OH2 3626   8.477   2.404   2.450 -0.4626 -0.2244 -0.2960
 1228TIP3    H1 3627   8.467   2.385   2.544 -1.9667  0.6280 -0.2607
 1228TIP3    H2 3628   8.518   2.490   2.447  0.6002 -0.7299 -0.4330
 1229TIP3   OH2 3629   1.327   6.035   6.679 -0.0648 -0.4963 -0.3774
 1229TIP3    H1 3630   1.306   6.024   6.772 -0.7787 -1.3188 -0.6291
 1229TIP3    H2 3631   1.267   5.976   6.634 -0.3606  0.5862 -1.4282
 1230TIP3   OH2 3632   7.038   2.570   1.458 -0.0026 -0.0158  0.2237
 1230TIP3    H1 3633   7.041   2.493   1.515 -0.6383 -0.9377 -0.9421
 1230TIP3    H2 3634   7.043   2.534   1.369 -3.2548  1.0231 -0.4590
 1231TIP3   OH2 3635   6.303   3.214   1.422  0.5129  0.1390  0.4568
 1231TIP3    H1 3636   6.383   3.224   1.474  1.7003  0.9532 -1.4862
 1231TIP3    H2 3637   6.315   3.130   1.377  0.7533  0.7443 -0.6248
 1232TIP3   OH2 3638   7.798   2.703   0.287  0.5444  0.5458 -0.0364
 1232TIP3    H1 3639   7.888   2.726   0.265  1.2368 -2.1680 -0.2343
 1232TIP3    H2 3640   7.805   2.644   0.362 -0.9520 -0.6565 -0.7846
 1233TIP3   OH2 3641   1.464   6.290   6.856  0.0308  0.1862 -0.3715
 1233TIP3    H1 3642   1.471   6.242   6.938 -0.9490 -0.4378 -0.6454
 1233TIP3    H2 3643   1.548   6.276   6.813  0.0363 -0.6493 -0.1010
 1234TIP3   OH2 3644   3.017   4.513   0.723  0.3784  0.5113 -0.6180
 1234TIP3    H1 3645   2.946   4.530   0.660 -1.0741 -0.1605  0.7869
 1234TIP3    H2 3646   3.025   4.595   0.771  2.8849  1.7142 -2.9630
 1235TIP3   OH2 3647   5.846   0.510   6.739 -0.2406  0.1548  0.3701
 1235TIP3    H1 3648   5.764   0.548   6.708 -0.1121 -0.1561 -0.3470
 1235TIP3    H2 3649   5.906   0.520   6.666  0.0039 -0.7696  0.4444
 1236TIP3   OH2 3650   7.047   5.202   1.272  0.1007 -0.4343 -0.1948
 1236TIP3    H1 3651   7.021   5.224   1.362  1.1712 -0.1972  0.0618
 1236TIP3    H2 3652   7.068   5.287   1.232  1.1492 -0.6914 -0.1867
 1237TIP3   OH2 3653   1.989   5.814   6.449  0.7425 -0.3826  0.1218
 1237TIP3    H1 3654   2.065   5.782   6.402 -0.3586 -0.7208 -1.4717
 1237TIP3    H2 3655   1.914   5.772   6.406 -0.3673  0.2238  1.4109
 1238TIP3   OH2 3656   0.916   3.169   2.630 -0.1904 -0.1885 -0.2666
 1238TIP3    H1 3657   0.846   3.112   2.599 -0.0043 -0.8197  0.4596
 1238TIP3    H2 3658   0.954   3.122   2.704  0.1500  0.7531  0.1598
 1239TIP3   OH2 3659   2.972   7.232   6.794  0.4637 -0.4698 -0.1023
 1239TIP3    H1 3660   2.878   7.235   6.816  0.2719 -1.2751 -0.7773
 1239TIP3    H2 3661   2.997   7.324   6.786 -0.1843 -0.2337  0.4255
 1240TIP3   OH2 3662   1.907   5.479   2.967 -0.0419  0.5193 -0.1350
 1240TIP3    H1 3663   1.838   5.529   2.924 -0.6287  0.1380  0.3460
 1240TIP3    H2 3664   1.938   5.417   2.901 -1.2051 -0.3299  0.0995
 1241TIP3   OH2 3665   0.224   5.598   2.167 -0.7183 -0.0048 -0.0702
 1241TIP3    H1 3666   0.314   5.615   2.139 -1.0899  1.1880 -0.5652
 1241TIP3    H2 3667   0.209   5.660   2.238 -0.9124 -0.7217  0.5284
 1242TIP3   OH2 3668   0.202   4.219   3.835  0.3604 -0.1332  0.6745
 1242TIP3    H1 3669   0.261   4.285   3.798  0.4548 -0.6372 -0.0827
 1242TIP3    H2 3670   0.128   4.217   3.775  0.8160 -1.4236  0.1357
 1243TIP3   OH2 3671   7.590   0.586   4.674 -0.3978 -0.2513 -0.0926
 1243TIP3    H1 3672   7.518   0.609   4.615 -0.3565 -2.0880 -0.8928
 1243TIP3    H2 3673   7.565   0.501   4.710  0.0065  0.4416  1.8910
 1244TIP3   OH2 3674   2.990   3.244   1.036 -0.4672 -1.0917 -0.3094
 1244TIP3    H1 3675   2.904   3.262   1.074 -0.1593  0.8609 -0.4878
 1244TIP3    H2 3676   3.004   3.316   0.974  0.6406 -2.2295 -1.4052
 1245TIP3   OH2 3677   7.364   3.639   2.219  0.3313 -0.0076 -0.0197
 1245TIP3    H1 3678   7.325   3.723   2.242  1.0328  0.5657 -0.8761
 1245TIP3    H2 3679   7.455   3.660   2.194  0.4668 -0.9844 -0.3987
 1246TIP3   OH2 3680   6.561   5.272   1.689  0.0997  0.2965 -0.2834
 1246TIP3    H1 3681   6.577   5.220   1.768  4.0655 -1.5910 -2.2247
 1246TIP3    H2 3682   6.466   5.267   1.676 -0.0343 -3.6217  1.5419
 1247TIP3   OH2 3683   7.793   3.046   1.580  0.0197 -0.0064 -0.5273
 1247TIP3    H1 3684   7.749   3.006   1.655 -0.5554  0.5479 -0.5606
 1247TIP3    H2 3685   7.884   3.052   1.606  0.1181 -1.3521 -0.5290
 1248TIP3   OH2 3686   3.678   5.755   6.309 -0.1670  0.5334 -0.0392
 1248TIP3    H1 3687   3.676   5.702   6.389  0.3458  0.8944  0.2229
 1248TIP3    H2 3688   3.729   5.703   6.247 -0.0341  0.5225  0.0764
 1249TIP3   OH2 3689   8.048   3.931   0.715 -0.0756  0.2800 -0.1078
 1249TIP3    H1 3690   8.046   3.918   0.810 -0.1446  3.2973  0.3664
 1249TIP3    H2 3691   8.112   3.867   0.683 -0.4704 -1.1495  1.8940
 1250TIP3   OH2 3692   7.556   2.234   1.607 -0.5068  0.3232  0.0697
 1250TIP3    H1 3693   7.574   2.140   1.611  0.8782  0.6063  1.3762
 1250TIP3    H2 3694   7.518   2.248   1.521  0.2277 -1.2903 -0.5419
 1251TIP3   OH2 3695   7.625   5.925   1.995 -0.2868  0.1880 -0.5980
 1251TIP3    H1 3696   7.672   5.992   2.044  0.0389  0.0707 -0.7503
 1251TIP3    H2 3697   7.688   5.853   1.986 -0.2299  0.3468 -1.4972
 1252TIP3   OH2 3698   1.676   5.707   1.498 -0.3033  0.6915  0.1878
 1252TIP3    H1 3699   1.763   5.727   1.464 -0.7485  0.3858 -1.1736
 1252TIP3    H2 3700   1.678   5.613   1.516 -0.6604  0.4847 -0.8102
 1253TIP3   OH2 3701   2.924   4.414   1.580 -0.1977  0.3982  0.6381
 1253TIP3    H1 3702   3.008   4.380   1.548 -0.0916 -0.2508  1.5884
 1253TIP3    H2 3703   2.858   4.371   1.526  0.0910  1.0149 -0.2046
 1254TIP3   OH2 3704   7.299   6.401   2.057  0.0682  0.0335 -0.1591
 1254TIP3    H1 3705   7.275   6.334   2.121  1.9135  0.1737  0.7078
 1254TIP3    H2 3706   7.330   6.475   2.110  1.7378  0.0974 -1.1771
 1255TIP3   OH2 3707   7.697   4.085   5.760  0.1752 -0.1901  0.4507
 1255TIP3    H1 3708   7.662   4.030   5.829  1.0469 -0.2097  0.8755
 1255TIP3    H2 3709   7.632   4.155   5.750  0.3400  0.1615  1.7247
 1256TIP3   OH2 3710   7.643   4.609   3.894  0.3177 -0.4851 -0.2284
 1256TIP3    H1 3711   7.613   4.571   3.977  0.8626 -0.7401 -0.1449
 1256TIP3    H2 3712   7.657   4.533   3.837 -2.0722 -0.1885 -1.2399
 1257TIP3   OH2 3713   8.419   5.795   1.668  0.0777  0.1909  0.1332
 1257TIP3    H1 3714   8.427   5.721   1.728 -0.8787 -0.1640 -0.1707
 1257TIP3    H2 3715   8.382   5.865   1.721 -0.2230  0.0555  0.1024
 1258TIP3   OH2 3716   7.515   6.167   1.749 -0.2316  0.1701 -1.1616
 1258TIP3    H1 3717   7.605   6.187   1.774  0.0481 -0.6035 -1.5501
 1258TIP3    H2 3718   7.519   6.155   1.654 -1.0218  1.6336 -1.4085
 1259TIP3   OH2 3719   0.804   2.851   1.757  0.2821 -0.1605  0.2901
 1259TIP3    H1 3720   0.887   2.825   1.796 -0.5038 -1.5172  1.0980
 1259TIP3    H2 3721   0.794   2.943   1.781  1.5681  0.0266  0.1480
 1260TIP3   OH2 3722   0.640   4.951   1.117 -0.4448  0.8961 -0.1997
 1260TIP3    H1 3723   0.611   4.934   1.207 -0.2772  0.1275 -0.2880
 1260TIP3    H2 3724   0.688   4.872   1.092 -1.3567  0.6729 -1.3200
 1261TIP3   OH2 3725   6.679   3.916   1.401 -0.4533  0.4942 -0.4884
 1261TIP3    H1 3726   6.699   4.006   1.426 -0.7623 -0.1634  2.3377
 1261TIP3    H2 3727   6.584   3.915   1.388 -0.6694  0.2403  1.0465
 1262TIP3   OH2 3728   0.974   3.295   3.488  0.3271  0.1202  0.3119
 1262TIP3    H1 3729   1.001   3.360   3.424 -0.6244  0.0852 -0.1341
 1262TIP3    H2 3730   0.996   3.211   3.448 -0.4605  0.0898 -0.0724
 1263TIP3   OH2 3731   3.925   5.592   6.391 -0.3512 -0.2234  0.8462
 1263TIP3    H1 3732   3.844   5.562   6.433 -1.1660 -0.4105 -0.7831
 1263TIP3    H2 3733   3.909   5.578   6.297  1.3419  0.3124  0.4643
 1264TIP3   OH2 3734   5.673   0.877   6.061 -0.7501  0.6184 -0.1894
 1264TIP3    H1 3735   5.583   0.881   6.093  0.2699 -1.2058  3.1454
 1264TIP3    H2 3736   5.669   0.819   5.985 -2.1826 -0.5749  0.7719
 1265TIP3   OH2 3737   7.720   2.868   1.798 -0.2996 -0.1367  0.1163
 1265TIP3    H1 3738   7.676   2.792   1.759 -1.8361  0.7605  0.0838
 1265TIP3    H2 3739   7.805   2.834   1.825  0.2926 -1.1009 -2.8060
 1266TIP3   OH2 3740   0.706   4.659   3.083  0.5574 -0.1138  0.0137
 1266TIP3    H1 3741   0.641   4.589   3.076  0.7375 -0.2192 -0.5611
 1266TIP3    H2 3742   0.669   4.719   3.149 -0.5381  0.2955 -0.9573
 1267TIP3   OH2 3743   0.946   3.351   1.784  0.4751  0.0319  0.2032
 1267TIP3    H1 3744   0.934   3.445   1.796  1.2819  0.2188 -0.3812
 1267TIP3    H2 3745   0.959   3.316   1.872  0.5377  0.5178  0.3871
 1268TIP3   OH2 3746   7.378   7.720   1.619 -0.1811  0.0336  0.2271
 1268TIP3    H1 3747   7.328   7.695   1.696 -2.0223  0.7037 -0.7400
 1268TIP3    H2 3748   7.313   7.734   1.551  1.3881 -0.0333 -1.3225
 1269TIP3   OH2 3749   1.319   5.409   1.689  0.4059  0.1245 -0.5475
 1269TIP3    H1 3750   1.386   5.463   1.732  0.0324  0.4900 -0.4129
 1269TIP3    H2 3751   1.237   5.456   1.706 -0.0917 -1.1653  0.6831
 1270TIP3   OH2 3752   8.273   3.080   1.065  0.1088  0.3513 -0.0234
 1270TIP3    H1 3753   8.366   3.102   1.060  0.2438 -0.0770  0.5430
 1270TIP3    H2 3754   8.248   3.058   0.976  0.5403  0.5107 -0.1818
 1271TIP3   OH2 3755   0.359   5.106   0.543 -0.1150  0.1068  0.2397
 1271TIP3    H1 3756   0.438   5.123   0.492  0.3223 -0.7122  0.6160
 1271TIP3    H2 3757   0.369   5.160   0.622  0.7028 -0.9514  0.8860
 1272TIP3   OH2 3758   7.470   0.341   6.732  0.4645 -0.3982  0.2006
 1272TIP3    H1 3759   7.473   0.257   6.777 -0.5782 -1.4978 -1.7185
 1272TIP3    H2 3760   7.429   0.322   6.647 -1.7584  2.4076  0.5622
 1273TIP3   OH2 3761  -0.002   3.192   2.071  0.2034  0.5494 -0.3172
 1273TIP3    H1 3762   0.057   3.264   2.094  0.0655  0.3413  0.6879
 1273TIP3    H2 3763   0.040   3.150   1.996  1.5632  0.1072  0.6803
 1274TIP3   OH2 3764   2.090   3.533   2.786  0.6178 -0.6073  0.2152
 1274TIP3    H1 3765   2.147   3.486   2.848 -0.0300  0.3840  1.6049
 1274TIP3    H2 3766   2.140   3.611   2.764  0.4944 -0.5502  0.1413
 1275TIP3   OH2 3767   1.977   5.036   1.636 -0.0681  0.0952  0.2423
 1275TIP3    H1 3768   2.005   5.099   1.570 -0.7188  0.9443  0.7762
 1275TIP3    H2 3769   2.043   4.966   1.631 -1.4878 -1.0664 -3.0043
 1276TIP3   OH2 3770   7.168   2.167   1.365  0.1651 -0.0475 -0.2962
 1276TIP3    H1 3771   7.255   2.207   1.363  0.0104  0.4120  1.2389
 1276TIP3    H2 3772   7.131   2.195   1.449 -1.1264 -0.9553 -0.5493
 1277TIP3   OH2 3773   1.396   7.517   6.219 -0.1711  0.3528  0.2163
 1277TIP3    H1 3774   1.353   7.548   6.139 -0.3895 -0.5388 -0.0169
 1277TIP3    H2 3775   1.402   7.423   6.208  0.5069  0.3069  0.9139
 1278TIP3   OH2 3776   7.441   5.395   2.079 -0.2442  0.0621 -0.0923
 1278TIP3    H1 3777   7.463   5.379   1.987  0.1104  0.7944 -0.1410
 1278TIP3    H2 3778   7.354   5.357   2.090 -0.4228  0.2582 -0.8145
 1279TIP3   OH2 3779   8.029   6.071   1.445 -0.0580  0.3264 -0.2469
 1279TIP3    H1 3780   7.958   6.044   1.503 -0.5260  3.0034  0.5254
 1279TIP3    H2 3781   8.075   6.139   1.495  1.1806  0.7740 -1.9581
 1280TIP3   OH2 3782   2.559   5.385   1.891  0.4719  0.0345 -0.3684
 1280TIP3    H1 3783   2.501   5.331   1.946 -0.6269 -1.0071 -2.4796
 1280TIP3    H2 3784   2.506   5.462   1.869  0.5941  0.0312 -0.6771
 1281TIP3   OH2 3785   4.951   6.791   5.737 -0.4291  0.0824  0.3918
 1281TIP3    H1 3786   4.896   6.817   5.663  1.0335 -0.4989 -0.9144
 1281TIP3    H2 3787   4.907   6.715   5.774 -1.7704  1.0450  0.8359
 1282TIP3   OH2 3788   0.509   4.476   0.838  0.2477  0.1197  0.4919
 1282TIP3    H1 3789   0.442   4.511   0.897  0.8751  0.8937  0.7463
 1282TIP3    H2 3790   0.502   4.381   0.849 -0.8974  0.1792  0.4168
 1283TIP3   OH2 3791   7.512   2.410   6.619 -0.3280 -0.0245  0.0738
 1283TIP3    H1 3792   7.441   2.468   6.590  0.8675  0.6325 -1.6215
 1283TIP3    H2 3793   7.491   2.325   6.580 -1.0288 -0.2382  0.9099
 1284TIP3   OH2 3794   1.229   6.466   0.018  0.4500 -0.2742 -0.7532
 1284TIP3    H1 3795   1.297   6.532   0.032 -0.1442 -0.2371  2.3370
 1284TIP3    H2 3796   1.256   6.392   0.073 -1.1568 -0.8920 -0.7688
 1285TIP3   OH2 3797   0.089   4.764   0.647 -0.6720 -0.0300  0.5428
 1285TIP3    H1 3798   0.133   4.782   0.730 -0.6745 -1.6381  0.9186
 1285TIP3    H2 3799  -0.004   4.775   0.666 -0.4667  3.5712 -0.3044
 1286TIP3   OH2 3800   0.382   4.850   0.045 -0.1279 -0.2134  0.2463
 1286TIP3    H1 3801   0.420   4.930   0.082 -0.8464  0.2908 -0.0852
 1286TIP3    H2 3802   0.423   4.779   0.093  0.4262  0.3662  0.6344
 1287TIP3   OH2 3803   0.397   5.260   0.825 -0.1964  0.5529 -0.1051
 1287TIP3    H1 3804   0.401   5.306   0.908 -2.3325  0.8019 -0.1261
 1287TIP3    H2 3805   0.457   5.185   0.836 -0.3591  0.6619  1.5763
 1288TIP3   OH2 3806   2.104   4.267   0.614 -0.3458 -0.2307 -0.4839
 1288TIP3    H1 3807   2.013   4.291   0.595 -0.6497 -2.0520 -1.4310
 1288TIP3    H2 3808   2.097   4.184   0.663  0.8325 -0.7412 -1.1654
 1289TIP3   OH2 3809   1.261   4.178   1.532 -0.2920 -0.1887  0.9150
 1289TIP3    H1 3810   1.276   4.091   1.497  1.2098  1.7935 -3.7308
 1289TIP3    H2 3811   1.347   4.208   1.561 -0.4240  0.5320  0.5680
 1290TIP3   OH2 3812   2.080   4.041   1.614  0.1958 -0.5981  0.1986
 1290TIP3    H1 3813   2.173   4.053   1.595  0.3482 -0.6198  0.8949
 1290TIP3    H2 3814   2.078   3.970   1.679 -0.2432 -0.0530  0.7928
 1291TIP3   OH2 3815   2.921   5.694   1.555 -0.1041 -0.2508  0.1279
 1291TIP3    H1 3816   2.856   5.667   1.489 -1.3746  0.3081  1.1186
 1291TIP3    H2 3817   2.916   5.790   1.555  0.2997 -0.2307  0.6425
 1292TIP3   OH2 3818   6.148   2.255   5.251  0.2557  0.4033 -0.8317
 1292TIP3    H1 3819   6.195   2.190   5.199  0.3116 -0.8317  0.7092
 1292TIP3    H2 3820   6.067   2.210   5.276  0.8901  0.4301  1.3634
 1293TIP3   OH2 3821   6.923   4.506   0.500 -0.0858  0.0628  0.6180
 1293TIP3    H1 3822   6.928   4.559   0.580 -1.0446 -0.0261  0.7479
 1293TIP3    H2 3823   6.951   4.566   0.431  0.9531  0.0793  1.0375
 1294TIP3   OH2 3824   0.282   6.143   2.497  0.1556  0.0720 -0.3590
 1294TIP3    H1 3825   0.198   6.163   2.539  0.8900  0.1424  1.1237
 1294TIP3    H2 3826   0.331   6.226   2.501  1.0010 -0.4460  0.5321
 1295TIP3   OH2 3827   0.607   6.206   0.147 -0.5359  0.0484  0.3033
 1295TIP3    H1 3828   0.687   6.230   0.195  1.0572 -1.1887 -1.6722
 1295TIP3    H2 3829   0.537   6.214   0.213  1.0984  1.7300  1.9114
 1296TIP3   OH2 3830   3.507   2.917   6.853 -0.0227 -0.2070  0.1977
 1296TIP3    H1 3831   3.447   2.962   6.913 -1.1398 -0.4877 -0.6806
 1296TIP3    H2 3832   3.449   2.870   6.793  1.0596  0.5247 -1.4459
 1297TIP3   OH2 3833   7.570   6.633   1.389 -0.5107 -0.6200 -0.1696
 1297TIP3    H1 3834   7.604   6.718   1.362 -2.1139  0.2710  0.5546
 1297TIP3    H2 3835   7.528   6.649   1.473 -1.2470 -2.0435 -0.2446
 1298TIP3   OH2 3836   2.644   6.277   0.228 -0.0089  0.4489  0.9712
 1298TIP3    H1 3837   2.562   6.244   0.264  0.3514 -0.5775  0.8627
 1298TIP3    H2 3838   2.658   6.226   0.148  0.7812  0.5490  1.0397
 1299TIP3   OH2 3839   7.100   0.793   6.556  0.0158 -0.3322 -0.2235
 1299TIP3    H1 3840   7.126   0.795   6.648  0.1779 -0.3433 -0.2697
 1299TIP3    H2 3841   7.176   0.758   6.510  0.7445  1.7141 -0.6427
 1300TIP3   OH2 3842   0.879   5.845   0.357  0.3447  0.0131 -0.0052
 1300TIP3    H1 3843   0.966   5.869   0.326  0.3001 -0.9667 -0.9009
 1300TIP3    H2 3844   0.821   5.866   0.284  0.3014 -2.7810 -0.8105
 1301TIP3   OH2 3845   1.675   5.245   0.579  0.1370  0.1566  0.3196
 1301TIP3    H1 3846   1.602   5.261   0.519 -1.1510 -0.8447  1.5737
 1301TIP3    H2 3847   1.654   5.296   0.657  0.8623 -0.0228  0.6378
 1302TIP3   OH2 3848   1.252   3.208   1.386  0.1113  0.3817  0.5572
 1302TIP3    H1 3849   1.323   3.222   1.450  0.0306 -0.5130  0.8583
 1302TIP3    H2 3850   1.173   3.235   1.432  0.1836  0.8203  0.4288
 1303TIP3   OH2 3851   7.743   0.728   5.060 -0.0243 -0.2560 -0.1752
 1303TIP3    H1 3852   7.713   0.667   5.127  1.2394 -0.0049  0.6410
 1303TIP3    H2 3853   7.671   0.733   4.998 -1.6485  0.3104  1.7006
 1304TIP3   OH2 3854   2.905   5.116   2.568  0.6419  0.0436 -0.0238
 1304TIP3    H1 3855   2.834   5.161   2.613 -0.4719  0.3599 -2.0272
 1304TIP3    H2 3856   2.927   5.042   2.625 -0.3165  0.7538  1.2873
 1305TIP3   OH2 3857   8.011   1.355   5.693  0.1321  0.6556  0.1667
 1305TIP3    H1 3858   7.930   1.305   5.687  0.8361 -0.5190  0.1853
 1305TIP3    H2 3859   8.080   1.290   5.683  1.0755  1.6214  0.2712
 1306TIP3   OH2 3860   8.235   4.554   1.005  0.2696 -0.2132  0.0198
 1306TIP3    H1 3861   8.181   4.599   0.940  0.2715  0.7889  0.7015
 1306TIP3    H2 3862   8.174   4.494   1.049 -0.5289  1.6072  1.4481
 1307TIP3   OH2 3863   3.867   7.875   6.764 -0.0133  0.1973 -0.3538
 1307TIP3    H1 3864   3.786   7.824   6.771  0.0957  0.1000  0.2046
 1307TIP3    H2 3865   3.839   7.966   6.773  0.0430  0.1143  0.7403
 1308TIP3   OH2 3866   1.093   4.896   0.080 -0.1581  0.4561 -0.1383
 1308TIP3    H1 3867   1.130   4.811   0.106 -0.7408  0.2373 -0.0172
 1308TIP3    H2 3868   1.169   4.948   0.053  0.2287 -0.0214  0.0210
 1309TIP3   OH2 3869   2.871   5.982   2.677 -0.2645 -0.4798  0.4511
 1309TIP3    H1 3870   2.825   6.000   2.759 -0.4004 -1.2903  0.5558
 1309TIP3    H2 3871   2.802   5.982   2.611 -0.3721 -1.2818  0.5501
 1310TIP3   OH2 3872   2.763   6.266   0.482  0.2485 -0.4979 -0.8413
 1310TIP3    H1 3873   2.857   6.282   0.479  0.1064  0.4969 -0.1830
 1310TIP3    H2 3874   2.736   6.265   0.390  0.4881  1.7669 -0.9645
 1311TIP3   OH2 3875   1.168   6.785   2.812 -0.0752 -0.1699  0.0700
 1311TIP3    H1 3876   1.099   6.734   2.769  0.7336 -0.5006 -0.8467
 1311TIP3    H2 3877   1.204   6.841   2.743  1.5690 -1.0690  0.1755
 1312TIP3   OH2 3878   2.008   5.044   2.569  0.2209 -0.7428 -0.5431
 1312TIP3    H1 3879   2.008   4.949   2.582 -0.8186 -0.9414 -1.8093
 1312TIP3    H2 3880   2.093   5.073   2.601 -0.3235 -1.7850  1.9730
 1313TIP3   OH2 3881   0.696   1.789   6.354  0.7965  0.4497  0.3500
 1313TIP3    H1 3882   0.768   1.806   6.293  0.3602  1.5766  0.1326
 1313TIP3    H2 3883   0.726   1.824   6.437  0.0067  2.0873 -0.0329
 1314TIP3   OH2 3884   8.004   4.136   2.691 -0.0371  0.1853 -0.3199
 1314TIP3    H1 3885   7.988   4.186   2.611  1.0403 -2.8286 -2.5184
 1314TIP3    H2 3886   8.097   4.150   2.709  0.8957 -2.8396 -2.3615
 1315TIP3   OH2 3887   3.547   5.708   2.434  0.5015 -0.3772 -0.2623
 1315TIP3    H1 3888   3.505   5.643   2.378 -1.8057  1.2019 -0.4317
 1315TIP3    H2 3889   3.486   5.782   2.435  1.0465  0.1197  3.3547
 1316TIP3   OH2 3890   1.774   5.093   3.285  0.0404 -0.0857  0.4990
 1316TIP3    H1 3891   1.725   5.099   3.203 -0.6095 -1.1459  0.8082
 1316TIP3    H2 3892   1.838   5.164   3.279  0.2516 -0.3871 -1.0843
 1317TIP3   OH2 3893   1.091   4.428   1.273 -0.1693 -0.2005  0.1903
 1317TIP3    H1 3894   1.128   4.365   1.210 -0.6000 -0.5461  0.2809
 1317TIP3    H2 3895   1.036   4.375   1.331  2.5436 -0.3497  2.7175
 1318TIP3   OH2 3896   0.509   6.240   1.663 -0.0620  0.2220 -0.5178
 1318TIP3    H1 3897   0.447   6.307   1.692  1.7386  2.8044 -2.3889
 1318TIP3    H2 3898   0.571   6.231   1.735 -1.1864 -0.6374  0.3767
 1319TIP3   OH2 3899   1.629   4.448   1.071  0.1667 -0.3571 -0.6576
 1319TIP3    H1 3900   1.672   4.399   1.141  0.0879  0.4228 -0.0531
 1319TIP3    H2 3901   1.685   4.525   1.058 -0.0739 -0.2598 -1.1157
 1320TIP3   OH2 3902   3.152   6.654   0.982 -0.4276  0.1536  0.4818
 1320TIP3    H1 3903   3.157   6.562   1.006  0.4393  0.0428 -0.1061
 1320TIP3    H2 3904   3.080   6.659   0.919 -1.5724  0.1648  1.7633
 1321TIP3   OH2 3905   4.151   2.540   6.698 -0.2302 -0.5547  0.0573
 1321TIP3    H1 3906   4.116   2.523   6.610 -1.7110 -0.2130  0.5685
 1321TIP3    H2 3907   4.094   2.607   6.734  0.2725 -0.8146  1.3604
 1322TIP3   OH2 3908   2.687   4.978   3.973 -0.0433 -0.0072 -0.2899
 1322TIP3    H1 3909   2.625   4.984   3.900 -0.3637 -0.2266 -0.0392
 1322TIP3    H2 3910   2.693   5.068   4.007  0.4414  0.1787 -0.8573
 1323TIP3   OH2 3911   7.347   6.559   2.657  0.4908 -0.2844 -0.8309
 1323TIP3    H1 3912   7.426   6.517   2.623  0.0504 -1.0377 -0.9268
 1323TIP3    H2 3913   7.281   6.544   2.590  0.4985  1.1613 -1.1841
 1324TIP3   OH2 3914   1.540   5.906   1.628  0.1684 -0.3001 -0.4989
 1324TIP3    H1 3915   1.612   5.957   1.665 -0.8923 -0.1674  1.3964
 1324TIP3    H2 3916   1.584   5.833   1.583  1.5343  0.3368 -0.2166
 1325TIP3   OH2 3917   0.548   5.012   0.847 -0.0676  0.8702 -0.1185
 1325TIP3    H1 3918   0.549   5.007   0.942 -1.5718 -1.3575 -0.1852
 1325TIP3    H2 3919   0.638   5.036   0.823  0.1945  1.9893  1.8478
 1326TIP3   OH2 3920   2.240   3.900   3.025  0.0866  0.0559 -0.4948
 1326TIP3    H1 3921   2.267   3.816   2.986  1.2554 -0.1169  0.6433
 1326TIP3    H2 3922   2.322   3.941   3.051 -0.6939 -0.1982  2.5284
 1327TIP3   OH2 3923   2.468   3.663   1.332 -0.5456 -0.1851 -0.1221
 1327TIP3    H1 3924   2.516   3.592   1.375 -0.0564  0.0235 -0.3200
 1327TIP3    H2 3925   2.527   3.695   1.264 -0.8766  0.2245 -0.2226
 1328TIP3   OH2 3926   8.127   5.918   0.766 -0.2544  0.9147  0.1569
 1328TIP3    H1 3927   8.132   6.008   0.733  2.4741  0.5947 -0.4323
 1328TIP3    H2 3928   8.135   5.863   0.688  0.3057  0.1721  0.7308
 1329TIP3   OH2 3929   0.711   6.857   0.936 -0.2475  0.3928 -0.1472
 1329TIP3    H1 3930   0.662   6.831   1.015  0.4680  1.9730  0.8486
 1329TIP3    H2 3931   0.652   6.916   0.890 -0.2299  0.3503 -0.2245
 1330TIP3   OH2 3932   1.953   4.606   1.957 -0.0928 -0.1032  0.0155
 1330TIP3    H1 3933   1.956   4.701   1.968 -2.2220 -0.1195  0.9961
 1330TIP3    H2 3934   2.038   4.584   1.919  0.4514  2.1789 -0.1904
 1331TIP3   OH2 3935   1.634   6.283   0.136 -0.1512  0.2148 -0.1080
 1331TIP3    H1 3936   1.649   6.368   0.176 -1.6262  0.9581 -1.1007
 1331TIP3    H2 3937   1.716   6.235   0.150 -0.2147  0.8777  2.6983
 1332TIP3   OH2 3938   6.459   0.966   5.593  0.4402 -0.2881  0.1548
 1332TIP3    H1 3939   6.439   0.932   5.680 -1.6679  0.2422 -0.0974
 1332TIP3    H2 3940   6.385   1.024   5.573  1.7513  0.8998 -1.2857
 1333TIP3   OH2 3941   1.578   3.945   1.499 -0.5726 -0.1362  0.2248
 1333TIP3    H1 3942   1.615   3.963   1.412  1.1633  2.1677  1.3515
 1333TIP3    H2 3943   1.578   4.031   1.542  1.7616 -1.7571  3.6543
 1334TIP3   OH2 3944   1.629   6.410   0.522 -0.0841  0.7303 -0.0943
 1334TIP3    H1 3945   1.579   6.441   0.446  1.1157  2.3508 -0.2246
 1334TIP3    H2 3946   1.718   6.401   0.490  0.4791  1.6651  1.1907
 1335TIP3   OH2 3947   2.229   5.878   0.145  0.2538 -0.3790  0.1253
 1335TIP3    H1 3948   2.313   5.923   0.143 -0.1119  0.2598 -2.4746
 1335TIP3    H2 3949   2.168   5.937   0.101 -1.1390 -1.6463  0.2835
 1336TIP3   OH2 3950   0.385   5.364   0.222  0.0025  0.4849  0.1661
 1336TIP3    H1 3951   0.400   5.339   0.130  0.4214  1.6212 -0.0856
 1336TIP3    H2 3952   0.290   5.361   0.232  0.0337 -1.0483  0.1065
 1337TIP3   OH2 3953   2.484   5.882   2.343 -0.0032  0.9917 -1.2257
 1337TIP3    H1 3954   2.539   5.945   2.390 -0.9782  0.8109  0.1950
 1337TIP3    H2 3955   2.545   5.833   2.289  0.9566  2.1953 -1.2665
 1338TIP3   OH2 3956   7.680   0.042   5.897  0.3196 -0.0482 -0.4222
 1338TIP3    H1 3957   7.625  -0.000   5.832 -1.7401 -0.2953  1.4212
 1338TIP3    H2 3958   7.758  -0.013   5.903  0.1465 -0.4760 -2.0427
 1339TIP3   OH2 3959   7.410   1.162   6.626 -0.3320  0.2098 -0.0037
 1339TIP3    H1 3960   7.443   1.083   6.585  0.1684  0.1448  0.5150
 1339TIP3    H2 3961   7.315   1.156   6.617 -0.2368  0.1298 -1.0136
 1340TIP3   OH2 3962   0.593   5.656   2.409 -0.3465 -0.3701 -0.2348
 1340TIP3    H1 3963   0.514   5.688   2.452  0.6947 -0.0704  1.4804
 1340TIP3    H2 3964   0.568   5.646   2.317 -2.3436 -0.1816  0.2764
 1341TIP3   OH2 3965   2.793   5.186   1.029 -0.8520 -0.2359 -0.4900
 1341TIP3    H1 3966   2.752   5.246   0.966 -2.5181 -0.1369  0.6684
 1341TIP3    H2 3967   2.722   5.158   1.086  0.9190  1.0842  2.4962
 1342TIP3   OH2 3968   2.326   7.192   2.236  0.1152  0.4828  0.9412
 1342TIP3    H1 3969   2.300   7.100   2.231  1.2501  0.2128 -0.3200
 1342TIP3    H2 3970   2.244   7.241   2.236 -0.4507 -0.4300 -0.7021
 1343TIP3   OH2 3971   0.469   5.089   1.562 -0.3800  0.2227  0.1298
 1343TIP3    H1 3972   0.406   5.090   1.635 -0.2199  0.4964  0.2650
 1343TIP3    H2 3973   0.554   5.105   1.604 -0.4352  1.5848 -0.2705
 1344TIP3   OH2 3974   1.929   5.562   2.108  0.0601 -0.0239  0.2451
 1344TIP3    H1 3975   1.868   5.548   2.035 -1.2078  1.2133  1.0437
 1344TIP3    H2 3976   1.995   5.494   2.097  0.0374  0.2779 -2.2174
 1345TIP3   OH2 3977   2.222   4.301   1.155  0.2555  0.4436 -0.3935
 1345TIP3    H1 3978   2.264   4.366   1.211 -0.1265 -0.2484  0.7103
 1345TIP3    H2 3979   2.293   4.263   1.104  0.6367  0.9433 -0.2377
 1346TIP3   OH2 3980   2.455   6.621   0.852 -0.3016 -0.3872  0.3514
 1346TIP3    H1 3981   2.404   6.667   0.786 -1.0432 -0.9756  0.5064
 1346TIP3    H2 3982   2.448   6.529   0.827  0.9035 -0.4440  0.2252
 1347TIP3   OH2 3983   8.316   5.915   0.491 -0.3047  0.3044  0.3649
 1347TIP3    H1 3984   8.222   5.905   0.477 -0.7285  1.2127  2.3983
 1347TIP3    H2 3985   8.327   6.007   0.513  1.3546  0.6817 -1.8149
 1348TIP3   OH2 3986   3.428   5.861   2.120  0.1039  0.5092 -0.4326
 1348TIP3    H1 3987   3.340   5.828   2.140 -1.1262  2.5644 -2.1207
 1348TIP3    H2 3988   3.466   5.796   2.062 -1.1153  0.5695 -1.3214
 1349TIP3   OH2 3989   6.919   1.545   6.850 -0.0012 -0.3019 -0.0826
 1349TIP3    H1 3990   6.884   1.577   6.933  1.5910 -1.2969  0.9990
 1349TIP3    H2 3991   6.875   1.597   6.784 -3.5294 -1.5360  1.2005
 1350TIP3   OH2 3992   2.874   6.242   1.291 -0.2406  0.0665 -0.0784
 1350TIP3    H1 3993   2.860   6.337   1.293  0.0955  0.1109  0.0626
 1350TIP3    H2 3994   2.868   6.214   1.382 -2.2846 -0.3281 -0.3010
 1351TIP3   OH2 3995   5.885   3.488   5.792 -0.2668  0.1201  0.0441
 1351TIP3    H1 3996   5.953   3.428   5.821 -1.2148 -1.2907 -0.5908
 1351TIP3    H2 3997   5.823   3.492   5.865 -0.5756 -0.2608 -0.1918
 1352TIP3   OH2 3998   0.099   3.205   1.234  0.4910  0.6985 -0.2730
 1352TIP3    H1 3999   0.060   3.199   1.146 -2.1424  0.6761  0.8558
 1352TIP3    H2 4000   0.075   3.123   1.277 -0.0045  1.5804  1.1528
 1353TIP3   OH2 4001   1.956   6.956   1.425 -0.0967  0.3174 -0.1595
 1353TIP3    H1 4002   1.989   6.870   1.397 -1.3135  0.3183 -1.6623
 1353TIP3    H2 4003   1.944   7.005   1.343 -0.6779  1.4672  0.5944
 1354TIP3   OH2 4004   7.185   7.730   2.022 -1.0210  0.1689  0.6031
 1354TIP3    H1 4005   7.158   7.803   2.078 -0.1166 -0.2704  1.6289
 1354TIP3    H2 4006   7.250   7.682   2.074  1.4099  0.9317 -1.6202
 1355TIP3   OH2 4007   0.864   4.251   2.021  0.1498 -0.2824  0.4398
 1355TIP3    H1 4008   0.875   4.325   2.080  0.5641 -0.1177  0.1519
 1355TIP3    H2 4009   0.770   4.246   2.006  0.1164  0.1244  0.5315
 1356TIP3   OH2 4010   3.075   7.009   0.033 -0.5989  0.2395  0.0585
 1356TIP3    H1 4011   3.005   7.019   0.097 -2.1872  0.0301 -1.6051
 1356TIP3    H2 4012   3.143   7.071   0.061 -1.4833  0.5191  1.6189
 1357TIP3   OH2 4013   3.881   5.934   0.212  0.4951  0.5024  0.3544
 1357TIP3    H1 4014   3.964   5.889   0.226  0.3289  0.3610  0.9123
 1357TIP3    H2 4015   3.898   6.025   0.236  0.8130  0.7276 -0.7094
 1358TIP3   OH2 4016   3.705   7.319   1.324 -0.3144 -0.2438  0.0171
 1358TIP3    H1 4017   3.754   7.273   1.256 -0.3103 -2.3498  1.3816
 1358TIP3    H2 4018   3.771   7.341   1.390 -0.6366  0.0291  0.2523
 1359TIP3   OH2 4019   0.809   4.118   2.636  0.0398  0.3952 -0.1619
 1359TIP3    H1 4020   0.779   4.191   2.690  1.6695  0.3692  0.8106
 1359TIP3    H2 4021   0.771   4.134   2.550 -2.2509  0.6724  0.8685
 1360TIP3   OH2 4022   0.375   7.047   1.595  0.7237 -0.3829 -0.1434
 1360TIP3    H1 4023   0.297   7.044   1.540  0.2069 -0.5712  0.6065
 1360TIP3    H2 4024   0.430   7.114   1.554 -0.5670  0.9738  0.3323
 1361TIP3   OH2 4025   7.823   0.676   6.564 -0.2778  0.4643  0.3197
 1361TIP3    H1 4026   7.760   0.614   6.600 -1.6110  1.6798  0.1071
 1361TIP3    H2 4027   7.806   0.758   6.610 -0.1703  1.3160 -1.1179
 1362TIP3   OH2 4028   0.127   1.727   6.676  0.0643 -0.5795  0.3771
 1362TIP3    H1 4029   0.141   1.692   6.764  1.1460 -1.6927 -0.2244
 1362TIP3    H2 4030   0.107   1.650   6.622 -0.1428  0.0380 -0.4439
 1363TIP3   OH2 4031   0.724   6.333   0.804 -0.2130 -0.4346  0.2148
 1363TIP3    H1 4032   0.661   6.276   0.759  0.2689  1.7065 -3.3590
 1363TIP3    H2 4033   0.684   6.420   0.801  0.2476 -0.0839  3.2601
 1364TIP3   OH2 4034   0.774   4.772   2.827 -0.3920  0.0688  0.0364
 1364TIP3    H1 4035   0.737   4.726   2.752 -0.9225  0.7128 -0.1011
 1364TIP3    H2 4036   0.741   4.725   2.904 -0.3358 -0.2238 -0.1188
 1365TIP3   OH2 4037   7.865   2.159   6.847  0.2738  0.2505 -0.3127
 1365TIP3    H1 4038   7.914   2.230   6.889  0.9772  0.2442 -1.0974
 1365TIP3    H2 4039   7.789   2.145   6.903  0.2682  1.4513 -0.0113
 1366TIP3   OH2 4040   3.695   7.006   6.822  0.0903  0.0096  0.1762
 1366TIP3    H1 4041   3.618   7.048   6.861  0.1932  0.3858 -0.0307
 1366TIP3    H2 4042   3.672   6.913   6.820 -0.6437  0.1986 -0.5410
 1367TIP3   OH2 4043   1.230   5.135   1.604 -0.6208 -0.1209 -0.1260
 1367TIP3    H1 4044   1.175   5.150   1.527 -1.3580 -0.1971  0.3775
 1367TIP3    H2 4045   1.249   5.222   1.638 -0.8190 -0.1162 -0.0294
 1368TIP3   OH2 4046   0.015   5.811   0.968 -0.1336 -0.3424 -0.9213
 1368TIP3    H1 4047   0.055   5.828   0.882 -0.6415 -2.7204 -1.6837
 1368TIP3    H2 4048   0.066   5.864   1.029 -0.1197  1.8219 -2.7501
 1369TIP3   OH2 4049   4.073   6.078   6.704  0.2515  0.4560  0.2299
 1369TIP3    H1 4050   4.134   6.145   6.735  0.3271  0.9203 -0.9121
 1369TIP3    H2 4051   3.996   6.127   6.677  0.7898  0.2182 -1.8099
 1370TIP3   OH2 4052   3.510   5.060   0.733 -0.0766  0.3164  0.1449
 1370TIP3    H1 4053   3.582   5.089   0.789  1.3845 -0.6416 -1.2209
 1370TIP3    H2 4054   3.442   5.032   0.795  1.5888 -0.9255  1.4787
 1371TIP3   OH2 4055   1.844   5.532   0.560  1.0012  0.2262 -0.0647
 1371TIP3    H1 4056   1.833   5.553   0.468  2.5535 -1.1140 -0.5731
 1371TIP3    H2 4057   1.761   5.491   0.586 -0.3487  2.7870 -0.2047
 1372TIP3   OH2 4058   0.885   7.734   0.025  0.3348  0.1604 -0.0585
 1372TIP3    H1 4059   0.925   7.683   0.096  0.6800 -1.2034 -1.2289
 1372TIP3    H2 4060   0.791   7.724   0.039  0.4007 -0.5514 -0.1019
 1373TIP3   OH2 4061   3.552   2.382   1.049  0.5348 -0.4772 -0.2822
 1373TIP3    H1 4062   3.558   2.445   0.977  1.6630 -2.2808 -1.8090
 1373TIP3    H2 4063   3.458   2.371   1.063  0.3141  0.9449 -0.5094
 1374TIP3   OH2 4064   0.170   4.768   2.915 -0.3580 -0.4968  0.2524
 1374TIP3    H1 4065   0.134   4.768   3.003 -2.3337  0.5834 -0.5299
 1374TIP3    H2 4066   0.262   4.792   2.926 -0.2828 -1.5930  2.1160
 1375TIP3   OH2 4067   1.724   5.738   1.148 -0.0533 -0.0217  0.6177
 1375TIP3    H1 4068   1.635   5.703   1.140 -0.2997  0.9215 -0.9177
 1375TIP3    H2 4069   1.712   5.832   1.161  0.7368  0.2128 -0.3166
 1376TIP3   OH2 4070   0.765   4.414   0.890 -0.0420  0.0603 -0.8104
 1376TIP3    H1 4071   0.773   4.435   0.983  0.3708  1.4022 -1.1509
 1376TIP3    H2 4072   0.677   4.443   0.865 -0.6583 -1.5096 -0.5363
 1377TIP3   OH2 4073   2.540   4.843   2.062 -0.0981  0.4817 -0.1840
 1377TIP3    H1 4074   2.606   4.855   1.994  0.6875 -0.3364  0.4272
 1377TIP3    H2 4075   2.550   4.752   2.091 -3.8795 -0.8181 -2.5605
 1378TIP3   OH2 4076   1.476   4.499   2.316  0.1191 -0.3576  0.2508
 1378TIP3    H1 4077   1.452   4.454   2.235 -2.9045  2.4328 -0.5034
 1378TIP3    H2 4078   1.435   4.446   2.385 -1.2074 -0.2361 -0.4183
 1379TIP3   OH2 4079   0.684   6.934   1.569  0.4436 -0.1727  0.2224
 1379TIP3    H1 4080   0.763   6.879   1.569  0.5288 -0.0559  0.6483
 1379TIP3    H2 4081   0.611   6.872   1.572  0.4567 -0.3484 -2.5124
 1380TIP3   OH2 4082   2.719   3.340   1.221 -0.0297  0.2235  0.1270
 1380TIP3    H1 4083   2.726   3.246   1.205  3.1674  0.4529 -0.0599
 1380TIP3    H2 4084   2.682   3.374   1.139 -1.4818 -0.8576  0.2965
 1381TIP3   OH2 4085   2.133   5.879   1.124 -0.2408 -0.1100 -0.1947
 1381TIP3    H1 4086   2.068   5.949   1.135 -0.1506  0.0374 -0.5766
 1381TIP3    H2 4087   2.210   5.924   1.088 -0.3983 -0.5117 -1.0284
 1382TIP3   OH2 4088   1.623   4.893   1.759  0.3043  0.6656  0.4624
 1382TIP3    H1 4089   1.624   4.912   1.666 -1.2006 -0.1079  0.2697
 1382TIP3    H2 4090   1.530   4.880   1.780  0.8683 -2.1629  1.4330
 1383TIP3   OH2 4091   2.606   7.059   6.538  0.3887 -0.2220  0.3822
 1383TIP3    H1 4092   2.681   7.101   6.497  0.6247  0.5660  1.5878
 1383TIP3    H2 4093   2.591   7.109   6.618 -1.4382 -0.3569  0.1513
 1384TIP3   OH2 4094   1.710   3.709   1.209  0.6110 -0.0011  0.4895
 1384TIP3    H1 4095   1.771   3.707   1.284  0.2186  1.7654  0.8816
 1384TIP3    H2 4096   1.766   3.730   1.134  0.6076  0.9997  0.7517
 1385TIP3   OH2 4097   0.574   5.997   2.598 -0.6172 -0.1724  0.1884
 1385TIP3    H1 4098   0.517   6.057   2.646 -0.8129 -0.5195  0.3894
 1385TIP3    H2 4099   0.518   5.923   2.576 -0.7566  0.3555 -1.2983
 1386TIP3   OH2 4100   2.413   6.332   2.186 -0.3130  0.3146 -0.5655
 1386TIP3    H1 4101   2.326   6.324   2.147  0.6449  0.6941 -2.8980
 1386TIP3    H2 4102   2.431   6.426   2.185  0.3067  0.1974 -0.5207
 1387TIP3   OH2 4103   6.367   2.764   6.494 -0.1434  0.2991  0.1041
 1387TIP3    H1 4104   6.346   2.671   6.493  1.8945 -0.1894 -0.3714
 1387TIP3    H2 4105   6.303   2.804   6.435 -0.9062 -0.8198  0.1631
 1388TIP3   OH2 4106   1.248   7.000   0.026  0.6119  0.6127  0.3035
 1388TIP3    H1 4107   1.311   7.060   0.064  1.5984 -0.7121  0.7890
 1388TIP3    H2 4108   1.269   6.915   0.064 -0.1885 -0.2125 -1.0416
 1389TIP3   OH2 4109   4.246   7.149   6.856  0.2088  0.3954 -0.4854
 1389TIP3    H1 4110   4.245   7.181   6.766 -0.3774  3.0300  0.4185
 1389TIP3    H2 4111   4.271   7.225   6.908  3.9947 -1.9478  1.3184
 1390TIP3   OH2 4112   7.745   4.202   2.170 -0.1304  0.1903 -0.3392
 1390TIP3    H1 4113   7.688   4.129   2.148 -0.7389  0.6892 -0.4179
 1390TIP3    H2 4114   7.775   4.236   2.085  1.5331 -1.0394 -0.2793
 1391TIP3   OH2 4115   1.582   5.175   2.658  0.1944  0.1393 -0.3661
 1391TIP3    H1 4116   1.662   5.208   2.616  0.0806  0.9216  0.0254
 1391TIP3    H2 4117   1.528   5.144   2.585  1.2849 -1.3530 -0.5511
 1392TIP3   OH2 4118   0.256   5.982   1.030 -0.1043  0.1104  0.1086
 1392TIP3    H1 4119   0.231   6.060   1.080  1.6266  1.1303 -0.5386
 1392TIP3    H2 4120   0.349   5.971   1.050  0.5940  0.4508 -2.7299
 1393TIP3   OH2 4121   0.431   2.774   1.074  0.1196  0.0316 -0.1864
 1393TIP3    H1 4122   0.428   2.868   1.056 -3.9539 -0.1098 -0.7543
 1393TIP3    H2 4123   0.415   2.733   0.989 -1.3897 -1.0668  0.5915
 1394TIP3   OH2 4124   3.205   5.603   1.089 -0.2296  0.1437  0.4613
 1394TIP3    H1 4125   3.166   5.517   1.074  1.4704 -0.7043  0.8149
 1394TIP3    H2 4126   3.248   5.596   1.174 -0.8552  1.6389  0.9293
 1395TIP3   OH2 4127   1.852   5.748   2.316 -0.3244 -0.2862  0.2331
 1395TIP3    H1 4128   1.886   5.823   2.268 -0.3566  1.5229  2.9311
 1395TIP3    H2 4129   1.878   5.672   2.264  1.2926  1.4781 -1.6093
 1396TIP3   OH2 4130   2.567   6.030   0.888 -0.6471  0.3138 -0.0837
 1396TIP3    H1 4131   2.622   5.973   0.834 -1.6223  0.6607 -1.4534
 1396TIP3    H2 4132   2.630   6.079   0.941  0.2588 -1.0085  0.1078
 1397TIP3   OH2 4133   1.983   5.904   1.679 -0.0656 -0.0533  0.3278
 1397TIP3    H1 4134   1.976   5.879   1.587  2.2883 -0.1900  0.1606
 1397TIP3    H2 4135   1.925   5.843   1.725  0.9923 -1.9132 -0.7513
 1398TIP3   OH2 4136   4.312   5.082   2.606 -0.2412 -0.2779  0.0737
 1398TIP3    H1 4137   4.299   5.049   2.517  3.4491  0.5555 -0.8526
 1398TIP3    H2 4138   4.386   5.031   2.640 -0.5740  0.5315  2.0539
 1399TIP3   OH2 4139   6.095   7.724   6.147  0.8181 -0.0265  0.0774
 1399TIP3    H1 4140   6.111   7.812   6.113  0.8525  0.7240  1.9491
 1399TIP3    H2 4141   6.007   7.729   6.185  0.8943 -0.7512  0.3608
 1400TIP3   OH2 4142   7.906   5.463   0.094 -0.0119  0.1861 -0.2606
 1400TIP3    H1 4143   8.002   5.466   0.093 -0.0095  0.5512  0.6364
 1400TIP3    H2 4144   7.880   5.535   0.152 -0.7864 -0.6292  0.4328
 1401TIP3   OH2 4145   6.696   0.337   1.724  0.4067  0.5471 -0.4136
 1401TIP3    H1 4146   6.776   0.354   1.674  1.1403 -0.4164  0.4091
 1401TIP3    H2 4147   6.715   0.371   1.812  0.7085 -1.5403  0.3610
 1402TIP3   OH2 4148   2.881   6.727   0.554 -0.2931  0.0604  0.3843
 1402TIP3    H1 4149   2.947   6.742   0.487  0.2701  0.4072  1.0008
 1402TIP3    H2 4150   2.924   6.668   0.616 -0.9203 -0.5130  0.2719
 1403TIP3   OH2 4151   2.292   6.055   1.357  0.1412 -0.4772 -0.0640
 1403TIP3    H1 4152   2.375   6.007   1.351 -0.6197 -1.6905 -1.2415
 1403TIP3    H2 4153   2.248   6.036   1.274 -1.4423 -0.0949  0.6696
 1404TIP3   OH2 4154   1.295   6.494   1.222 -0.2230  0.2178  0.1125
 1404TIP3    H1 4155   1.349   6.565   1.187  0.0560  0.2507  0.5913
 1404TIP3    H2 4156   1.344   6.415   1.200  1.5117  0.3953  3.0101
 1405TIP3   OH2 4157   1.454   5.678   1.311  0.4356  0.5270 -0.1798
 1405TIP3    H1 4158   1.456   5.583   1.312 -1.6460  0.4651 -0.0042
 1405TIP3    H2 4159   1.526   5.705   1.368  0.8901 -0.9417 -0.0567
 1406TIP3   OH2 4160   0.025   3.432   1.386 -0.4753  0.4885  0.2065
 1406TIP3    H1 4161  -0.051   3.405   1.437 -1.4895  1.0752 -0.9807
 1406TIP3    H2 4162   0.046   3.355   1.333  1.1288 -0.4374  2.0919
 1407TIP3   OH2 4163   2.670   5.269   2.251 -0.0248 -0.2997  0.4904
 1407TIP3    H1 4164   2.615   5.223   2.315  0.3171 -0.5649  0.5978
 1407TIP3    H2 4165   2.713   5.338   2.302 -0.0842 -0.2369  0.4554
 1408TIP3   OH2 4166   1.337   5.937   2.708  0.0923  0.0129 -0.2999
 1408TIP3    H1 4167   1.289   5.946   2.790 -0.1839  1.2536 -0.5789
 1408TIP3    H2 4168   1.300   5.860   2.666  0.3921 -0.7621  0.8431
 1409TIP3   OH2 4169   8.212   1.956   6.405  0.2964  0.2027 -0.4475
 1409TIP3    H1 4170   8.135   1.934   6.458  1.2276 -1.0165  0.4416
 1409TIP3    H2 4171   8.187   1.932   6.316 -0.0723 -0.9804 -0.0398
 1410TIP3   OH2 4172   2.726   4.283   1.449  0.1853 -0.1115  0.3611
 1410TIP3    H1 4173   2.740   4.189   1.460 -1.8360 -0.4768  0.0839
 1410TIP3    H2 4174   2.634   4.291   1.425  0.5573  1.8810 -0.5539
 1411TIP3   OH2 4175   2.380   5.375   2.830  0.8421 -0.0283  0.6527
 1411TIP3    H1 4176   2.316   5.441   2.804  0.1738 -1.0809 -0.4037
 1411TIP3    H2 4177   2.345   5.293   2.796  2.9631 -0.5642 -0.2749
 1412TIP3   OH2 4178   2.865   6.354   0.788  0.3857 -0.1088 -0.3988
 1412TIP3    H1 4179   2.820   6.290   0.732 -2.7546  1.2014  0.4893
 1412TIP3    H2 4180   2.908   6.301   0.855  0.2619 -1.4367 -1.3467
 1413TIP3   OH2 4181   1.326   5.111   2.258  0.4202  0.1262  0.0452
 1413TIP3    H1 4182   1.376   5.068   2.327  0.8696  0.0258 -0.3391
 1413TIP3    H2 4183   1.366   5.080   2.176 -0.4573 -0.2009 -0.2765
 1414TIP3   OH2 4184   2.448   2.630   1.330  0.0310 -0.0477 -0.3693
 1414TIP3    H1 4185   2.452   2.535   1.338 -1.3266 -0.0436  0.5649
 1414TIP3    H2 4186   2.508   2.662   1.398 -0.0941 -0.2283 -0.1727
 1415TIP3   OH2 4187   3.422   5.338   0.023  0.2392  0.0654  0.1426
 1415TIP3    H1 4188   3.422   5.242   0.020 -2.7846  0.0677 -2.8276
 1415TIP3    H2 4189   3.513   5.363   0.008  0.8206 -2.3002 -0.4800
 1416TIP3   OH2 4190   1.352   3.761   2.157  0.3092 -0.2129 -0.2119
 1416TIP3    H1 4191   1.268   3.732   2.122 -0.7732 -1.1832  3.0346
 1416TIP3    H2 4192   1.374   3.696   2.223  1.4768  2.3366  2.0063
 1417TIP3   OH2 4193   1.154   3.510   0.155 -0.0414 -0.6393  0.0798
 1417TIP3    H1 4194   1.181   3.420   0.172 -1.0989 -1.0054 -0.1330
 1417TIP3    H2 4195   1.101   3.504   0.075  2.4016  0.6185 -1.7069
 1418TIP3   OH2 4196   0.057   5.710   1.295  0.1774 -0.2867  0.0065
 1418TIP3    H1 4197   0.133   5.683   1.244  0.0817 -0.3956 -0.0791
 1418TIP3    H2 4198   0.047   5.803   1.276  2.5784  0.6651  2.9539
 1419TIP3   OH2 4199   3.324   7.605   6.259  0.2783  0.2985  0.2719
 1419TIP3    H1 4200   3.343   7.628   6.350  1.1661 -0.1205  0.2048
 1419TIP3    H2 4201   3.234   7.633   6.245 -1.2203 -3.0917  2.4507
 1420TIP3   OH2 4202   2.206   3.746   2.668 -0.4874 -0.7577 -0.1750
 1420TIP3    H1 4203   2.228   3.750   2.575 -1.5866 -1.1493 -0.4648
 1420TIP3    H2 4204   2.166   3.830   2.688  1.1021 -0.0968  0.3195
 1421TIP3   OH2 4205   2.071   4.895   3.052  0.1094  0.1210  0.7796
 1421TIP3    H1 4206   2.130   4.825   3.079  1.1271 -0.0413 -1.7529
 1421TIP3    H2 4207   2.004   4.852   2.999  1.0428  1.1258 -1.2299
 1422TIP3   OH2 4208   5.270   2.707   6.549  0.4314  0.4706  0.1111
 1422TIP3    H1 4209   5.204   2.750   6.494  1.4514  1.9041 -0.0245
 1422TIP3    H2 4210   5.320   2.779   6.587  2.6953 -0.6065 -0.7216
 1423TIP3   OH2 4211   2.339   5.609   1.799 -0.3080  0.7190 -0.0218
 1423TIP3    H1 4212   2.282   5.564   1.862  0.7197  1.3599  1.4067
 1423TIP3    H2 4213   2.279   5.645   1.734 -1.4516  0.4669  0.8677
 1424TIP3   OH2 4214   0.085   5.434   3.349 -0.0982  0.6521 -0.3314
 1424TIP3    H1 4215  -0.007   5.439   3.321 -0.3443  0.8210  0.4948
 1424TIP3    H2 4216   0.101   5.518   3.393  1.2131  1.6991 -2.7054
 1425TIP3   OH2 4217   1.886   5.226   3.580  0.1489  0.0357  0.1820
 1425TIP3    H1 4218   1.882   5.224   3.484  2.3206 -0.8166  0.0669
 1425TIP3    H2 4219   1.933   5.146   3.603  0.2660  0.5921  1.9243
 1426TIP3   OH2 4220   8.300   6.550   0.115 -0.0192  0.5691 -0.5438
 1426TIP3    H1 4221   8.237   6.503   0.170 -1.0654  0.8234 -1.4939
 1426TIP3    H2 4222   8.331   6.484   0.053 -0.2986  0.7447 -0.8723
 1427TIP3   OH2 4223   0.369   6.588   2.322 -0.2443 -0.2462  0.3083
 1427TIP3    H1 4224   0.374   6.569   2.228 -0.1885 -0.9531  0.4498
 1427TIP3    H2 4225   0.280   6.623   2.335 -0.2663 -0.1882 -0.0010
 1428TIP3   OH2 4226   1.772   3.813   0.725  0.0821  0.1666 -0.0446
 1428TIP3    H1 4227   1.852   3.836   0.679  0.5264 -0.3843  0.4453
 1428TIP3    H2 4228   1.801   3.755   0.796 -0.6606  0.5390  0.5672
 1429TIP3   OH2 4229   0.865   5.774   2.589 -0.4054  0.4753  0.3185
 1429TIP3    H1 4230   0.777   5.803   2.562 -0.1757  0.8771 -0.0041
 1429TIP3    H2 4231   0.872   5.685   2.556 -1.2081 -0.0450  1.5186
 1430TIP3   OH2 4232   2.519   3.871   0.783  0.2133  0.6296 -0.7088
 1430TIP3    H1 4233   2.492   3.957   0.816  2.4496  1.0101  0.2014
 1430TIP3    H2 4234   2.515   3.813   0.860  2.3003  0.7878 -0.4437
 1431TIP3   OH2 4235   8.029   1.628   6.194 -0.2475 -0.0326 -0.3731
 1431TIP3    H1 4236   8.007   1.562   6.259  0.7801  0.9615  1.0156
 1431TIP3    H2 4237   7.954   1.689   6.196 -0.4022 -0.2207 -0.4216
 1432TIP3   OH2 4238   8.488   4.820   2.389  0.0523 -0.4100  0.0102
 1432TIP3    H1 4239   8.542   4.804   2.466 -0.9152  0.4838  0.9030
 1432TIP3    H2 4240   8.413   4.762   2.400  1.4618 -2.7033 -1.9426
 1433TIP3   OH2 4241   5.905   1.593   6.170 -0.6724 -0.3950  0.6898
 1433TIP3    H1 4242   5.923   1.654   6.099  1.2733 -0.4790  1.0818
 1433TIP3    H2 4243   5.975   1.527   6.163 -0.0088  0.0068  3.1255
 1434TIP3   OH2 4244   2.239   5.494   0.553  0.4532 -0.0591 -0.2104
 1434TIP3    H1 4245   2.223   5.409   0.510  0.0434  0.5740 -1.3487
 1434TIP3    H2 4246   2.317   5.480   0.606  0.1345 -1.2757 -0.0517
 1435TIP3   OH2 4247   1.109   4.760   0.671 -1.0095  0.5861 -0.5834
 1435TIP3    H1 4248   1.027   4.731   0.710 -1.9968  2.4838 -1.2014
 1435TIP3    H2 4249   1.116   4.852   0.696  1.1079  0.3694 -0.2634
 1436TIP3   OH2 4250   1.597   4.092   2.744 -0.1663 -0.1452  0.2035
 1436TIP3    H1 4251   1.514   4.115   2.785 -0.1133  0.8652 -0.2512
 1436TIP3    H2 4252   1.649   4.053   2.815 -1.1228 -1.0630  0.4220
 1437TIP3   OH2 4253   0.558   5.112   2.071 -0.2716 -0.0989  0.0798
 1437TIP3    H1 4254   0.588   5.022   2.057 -1.2276 -0.6012  1.2172
 1437TIP3    H2 4255   0.513   5.110   2.156 -0.5952  1.3746 -0.0417
 1438TIP3   OH2 4256   3.346   3.052   1.382 -0.2949  0.7697 -0.2023
 1438TIP3    H1 4257   3.332   3.131   1.329 -1.7975  1.2425  0.8621
 1438TIP3    H2 4258   3.440   3.037   1.377  0.3287  3.7409  1.0649
 1439TIP3   OH2 4259   0.406   6.293   2.987  0.4274  0.3050 -0.0746
 1439TIP3    H1 4260   0.368   6.376   3.015  0.1329  1.0692 -2.5753
 1439TIP3    H2 4261   0.367   6.276   2.901  2.1002 -1.3364 -0.5643
 1440TIP3   OH2 4262   2.562   1.558   5.929  0.4614 -0.3391  0.7881
 1440TIP3    H1 4263   2.635   1.609   5.894  0.4716 -1.5024 -0.9449
 1440TIP3    H2 4264   2.498   1.624   5.957  0.4159  0.6619 -1.5441
 1441TIP3   OH2 4265   3.587   7.278   1.592  0.6332  0.3639  0.0466
 1441TIP3    H1 4266   3.646   7.248   1.523  1.4390 -0.9712  1.2853
 1441TIP3    H2 4267   3.591   7.210   1.659 -1.0385  1.0596  0.9060
 1442TIP3   OH2 4268   2.668   7.299   0.301  0.2860  0.2922  0.9720
 1442TIP3    H1 4269   2.627   7.384   0.319 -0.2389  0.0895  0.7263
 1442TIP3    H2 4270   2.659   7.250   0.383  0.0430  0.2472  0.9167
 1443TIP3   OH2 4271   0.758   3.291   6.907  0.1396  0.0140  0.6828
 1443TIP3    H1 4272   0.715   3.271   6.824 -0.1907 -0.9581  1.0781
 1443TIP3    H2 4273   0.815   3.365   6.888  0.7182 -0.7545 -0.6161
 1444TIP3   OH2 4274   1.493   7.283   2.096  0.1979 -0.1047  0.0911
 1444TIP3    H1 4275   1.542   7.352   2.139 -0.9115  0.4375  0.5072
 1444TIP3    H2 4276   1.503   7.301   2.003 -0.8424  1.1578  0.2114
 1445TIP3   OH2 4277   3.790   7.477   6.248  0.2395  0.3822 -0.4459
 1445TIP3    H1 4278   3.715   7.484   6.308  1.3143 -1.2554  1.1610
 1445TIP3    H2 4279   3.838   7.558   6.261 -0.6949  0.9848 -0.6974
 1446TIP3   OH2 4280   1.218   4.561   0.360 -0.2613 -0.8078  0.1021
 1446TIP3    H1 4281   1.175   4.584   0.442  1.7026  0.3167  0.8636
 1446TIP3    H2 4282   1.268   4.482   0.380 -1.0067 -1.4358 -0.4589
 1447TIP3   OH2 4283   7.437   2.176   6.468 -0.7497  0.0389 -1.1757
 1447TIP3    H1 4284   7.447   2.160   6.375  0.9396  1.2036 -1.2152
 1447TIP3    H2 4285   7.434   2.089   6.508  0.2311 -0.4463 -2.1475
 1448TIP3   OH2 4286   7.319   6.039   5.908  0.0178 -0.0786 -0.2760
 1448TIP3    H1 4287   7.369   5.976   5.958  1.1162  0.1897 -1.0042
 1448TIP3    H2 4288   7.241   5.992   5.879 -0.9801 -0.0321  2.2384
 1449TIP3   OH2 4289   2.251   1.057   6.759  0.0831  0.3117  0.8413
 1449TIP3    H1 4290   2.264   1.089   6.670  1.3725 -2.4701 -0.0364
 1449TIP3    H2 4291   2.335   1.070   6.802  0.1644 -0.4373  0.9268
 1450TIP3   OH2 4292   4.463   6.427   0.434  0.0837 -0.3500  0.1823
 1450TIP3    H1 4293   4.525   6.414   0.506  0.8799  1.2691 -0.1776
 1450TIP3    H2 4294   4.434   6.517   0.443 -1.0479 -0.6219 -0.5820
 1451TIP3   OH2 4295   2.494   5.942   0.141 -0.1062  0.3023 -0.2516
 1451TIP3    H1 4296   2.581   5.952   0.101 -0.1143  0.1991 -0.2945
 1451TIP3    H2 4297   2.513   5.922   0.233 -0.0964  1.4218 -0.0004
 1452TIP3   OH2 4298   6.446   7.715   4.838 -0.3096 -0.0904  0.1486
 1452TIP3    H1 4299   6.381   7.741   4.903  0.2304  0.2079  0.5680
 1452TIP3    H2 4300   6.451   7.790   4.778 -1.5125 -0.7498 -0.7938
 1453TIP3   OH2 4301   0.347   2.053   6.667 -0.5442  0.7753 -0.2064
 1453TIP3    H1 4302   0.340   2.079   6.575  0.2640  0.7755 -0.2704
 1453TIP3    H2 4303   0.408   1.980   6.667  0.7446  1.8305  0.5158
 1454TIP3   OH2 4304   8.399   0.708   5.720  0.1739  0.3628 -0.0816
 1454TIP3    H1 4305   8.354   0.636   5.675  1.8278 -0.0120 -1.1858
 1454TIP3    H2 4306   8.388   0.783   5.661  0.2738  0.4803  0.0502
 1455TIP3   OH2 4307   3.343   5.026   0.946  0.7151  0.5880 -0.2539
 1455TIP3    H1 4308   3.362   4.953   1.005  1.8560  0.3279 -0.9222
 1455TIP3    H2 4309   3.248   5.025   0.936  0.5826  0.1782  0.9944
 1456TIP3   OH2 4310   2.613   5.204   0.475 -0.6261 -0.1061  1.0310
 1456TIP3    H1 4311   2.556   5.188   0.399  1.3617 -1.5663 -0.2048
 1456TIP3    H2 4312   2.691   5.244   0.438  0.0354 -0.0695  2.4308
 1457TIP3   OH2 4313   3.849   5.588   0.546  0.2802 -0.2598  0.6707
 1457TIP3    H1 4314   3.822   5.674   0.516 -0.6357 -1.4102 -1.9574
 1457TIP3    H2 4315   3.944   5.586   0.533  0.0205 -0.4045 -1.3782
 1458TIP3   OH2 4316   3.708   5.593   0.257 -0.2191 -0.3217 -0.2177
 1458TIP3    H1 4317   3.619   5.600   0.223  0.0334 -0.2676 -0.8609
 1458TIP3    H2 4318   3.711   5.506   0.296  0.3150 -1.4863 -2.7415
 1459TIP3   OH2 4319   4.452   2.942   1.141  0.1027  0.2466  0.1772
 1459TIP3    H1 4320   4.544   2.968   1.140 -0.0601  0.8031 -0.8516
 1459TIP3    H2 4321   4.453   2.850   1.116  0.3225  0.4641 -0.6387
 1460TIP3   OH2 4322   0.572   1.003   5.616 -0.6848  0.0434 -0.3371
 1460TIP3    H1 4323   0.644   1.015   5.555 -2.2181  1.1947 -1.9822
 1460TIP3    H2 4324   0.601   1.046   5.696  0.2269  1.0149 -1.1682
 1461TIP3   OH2 4325   4.375   5.658   0.056  0.8019  0.1266 -0.2237
 1461TIP3    H1 4326   4.378   5.752   0.039  1.1282  0.2428  0.4630
 1461TIP3    H2 4327   4.286   5.632   0.033  0.5365  0.7111  0.1416
 1462TIP3   OH2 4328   8.074   3.173   6.888 -0.3967 -0.5426  0.3420
 1462TIP3    H1 4329   8.084   3.107   6.820  1.7057 -0.5561  0.6261
 1462TIP3    H2 4330   8.151   3.229   6.879 -1.1931  0.7401  1.3166
 1463TIP3   OH2 4331   1.023   1.579   6.765 -0.1561 -0.4298 -0.2946
 1463TIP3    H1 4332   1.003   1.487   6.783  0.0996 -0.1078  1.7500
 1463TIP3    H2 4333   0.993   1.626   6.843  2.2632  0.8771 -0.0925
 1464TIP3   OH2 4334   4.472   5.784   1.686  0.3319 -0.2518 -0.0577
 1464TIP3    H1 4335   4.521   5.845   1.741 -0.8991  1.1345 -0.4782
 1464TIP3    H2 4336   4.396   5.760   1.739  0.4280 -0.8641 -0.1889
 1465TIP3   OH2 4337   0.391   0.423   6.541  0.2156 -0.0806 -0.5863
 1465TIP3    H1 4338   0.419   0.410   6.450 -1.6912 -0.5467 -1.1223
 1465TIP3    H2 4339   0.331   0.498   6.537 -0.0258 -0.2214  0.2714
 1466TIP3   OH2 4340   3.004   5.763   0.872  0.6578 -0.0471 -0.2695
 1466TIP3    H1 4341   3.059   5.773   0.950 -0.2773  0.2816  0.3701
 1466TIP3    H2 4342   2.988   5.669   0.865  1.3571 -0.1469 -0.4947
 1467TIP3   OH2 4343   0.401   4.575   6.208  0.0180  0.3172 -0.3024
 1467TIP3    H1 4344   0.364   4.647   6.258 -1.0441  0.0233 -0.6390
 1467TIP3    H2 4345   0.376   4.497   6.258  1.9168  0.2347  0.5305
 1468TIP3   OH2 4346   1.147   0.768   6.174  0.0201 -0.0306  0.0686
 1468TIP3    H1 4347   1.109   0.705   6.235 -1.3205 -2.2372 -2.9215
 1468TIP3    H2 4348   1.076   0.830   6.157  0.1226  0.0827  0.0492
 1469TIP3   OH2 4349   7.400   0.576   5.874 -0.0698 -0.4133 -0.3190
 1469TIP3    H1 4350   7.324   0.522   5.895 -2.4707  2.5871 -0.9149
 1469TIP3    H2 4351   7.437   0.599   5.959  0.4396 -2.1627 -0.0360
 1470TIP3   OH2 4352   4.619   6.155   2.203 -0.2432  0.4115 -0.3138
 1470TIP3    H1 4353   4.651   6.244   2.194 -0.0907  0.3023 -0.8645
 1470TIP3    H2 4354   4.539   6.163   2.255  1.0424  0.6145  1.6990
 1471TIP3   OH2 4355   2.959   5.679   1.179 -0.0696 -0.6160 -0.2694
 1471TIP3    H1 4356   3.049   5.655   1.159  0.0414  0.4446 -1.0815
 1471TIP3    H2 4357   2.951   5.769   1.147 -1.7101 -1.0483 -1.0958
 1472TIP3   OH2 4358   0.584   1.825   5.495 -0.0962 -0.6612  0.0568
 1472TIP3    H1 4359   0.611   1.797   5.407 -0.9783  1.1697 -0.8136
 1472TIP3    H2 4360   0.617   1.914   5.503 -1.4258 -0.2375  0.9474
 1473TIP3   OH2 4361   1.446   3.141   6.764  0.1315 -0.0699  0.3504
 1473TIP3    H1 4362   1.413   3.071   6.820 -0.2458 -0.3320 -0.1913
 1473TIP3    H2 4363   1.380   3.210   6.769  1.3815  1.0273  2.3368
 1474TIP3   OH2 4364   2.119   6.379   0.119 -0.1039 -0.5743 -0.4754
 1474TIP3    H1 4365   2.054   6.416   0.060 -0.0757 -0.3739 -0.3804
 1474TIP3    H2 4366   2.198   6.430   0.103 -0.6354  0.8283  1.1654
 1475TIP3   OH2 4367   2.319   6.522   1.904 -0.1699 -0.3751 -0.2680
 1475TIP3    H1 4368   2.333   6.583   1.831  2.0481  0.2586  0.6496
 1475TIP3    H2 4369   2.242   6.471   1.878 -0.2835  0.8211 -2.3925
 1476TIP3   OH2 4370   3.850   6.210   0.488 -0.0351  0.3578 -0.1246
 1476TIP3    H1 4371   3.760   6.237   0.474 -0.6475 -2.1017 -1.1439
 1476TIP3    H2 4372   3.854   6.183   0.580 -0.2989  0.5916 -0.0469
 1477TIP3   OH2 4373   7.278   0.433   6.126 -0.6132  0.0043 -0.0765
 1477TIP3    H1 4374   7.222   0.436   6.049 -0.7121  1.9870  0.0498
 1477TIP3    H2 4375   7.224   0.395   6.195 -1.4461  0.9290 -0.2274
 1478TIP3   OH2 4376   7.241   7.071   5.835 -0.0972  1.0000  0.1144
 1478TIP3    H1 4377   7.315   7.063   5.774 -0.2060  1.1863 -0.0425
 1478TIP3    H2 4378   7.211   6.981   5.847 -0.2970  0.9943 -0.3896
 1479TIP3   OH2 4379   4.852   7.284   1.601  0.1564  0.2104  0.7147
 1479TIP3    H1 4380   4.807   7.201   1.586  1.1506 -0.6108  2.1418
 1479TIP3    H2 4381   4.899   7.300   1.519 -1.0451  0.0183 -0.0246
 1480TIP3   OH2 4382   2.188   5.626   1.312 -0.1073  0.7875  0.5067
 1480TIP3    H1 4383   2.259   5.690   1.307 -1.5227  2.2638 -1.5376
 1480TIP3    H2 4384   2.119   5.664   1.258 -1.6147 -1.6798  0.6751
 1481TIP3   OH2 4385   2.549   5.782   0.526  0.0454 -0.1292 -0.0876
 1481TIP3    H1 4386   2.630   5.833   0.515 -0.3288  0.5296  0.1665
 1481TIP3    H2 4387   2.562   5.734   0.607  0.2446 -0.1317 -0.1210
 1482TIP3   OH2 4388   5.048   5.894   1.204  0.3315 -0.8915  0.5933
 1482TIP3    H1 4389   5.141   5.913   1.192  0.8586 -2.2439  2.3740
 1482TIP3    H2 4390   5.010   5.976   1.233  1.2108 -0.6433  1.0740
 1483TIP3   OH2 4391   1.287   7.158   0.945 -0.0058 -0.6348 -0.6373
 1483TIP3    H1 4392   1.240   7.160   0.862  1.7131 -1.3557 -1.6555
 1483TIP3    H2 4393   1.294   7.065   0.967 -1.5717 -0.3967  0.9890
 1484TIP3   OH2 4394   3.059   4.852   4.342  0.0512  0.1435 -0.0235
 1484TIP3    H1 4395   3.022   4.789   4.404 -2.1201  1.4796  0.1185
 1484TIP3    H2 4396   3.147   4.869   4.374 -0.2888 -0.8094  1.4700
 1485TIP3   OH2 4397   2.231   5.745   1.598  0.4362  0.4463 -0.0548
 1485TIP3    H1 4398   2.153   5.771   1.550 -0.2516 -2.5814 -0.6719
 1485TIP3    H2 4399   2.281   5.692   1.536  1.6665  0.1107  1.2016
 1486TIP3   OH2 4400   6.022   7.237   6.057  0.2211 -0.7586  0.4209
 1486TIP3    H1 4401   6.020   7.326   6.022 -2.1457 -0.2554  1.7670
 1486TIP3    H2 4402   6.086   7.241   6.128 -0.0472 -0.0673  0.6292
 1487TIP3   OH2 4403   5.144   4.104   1.047  0.4617  0.6797  0.1275
 1487TIP3    H1 4404   5.158   4.035   0.981 -0.8446  0.6256 -0.1004
 1487TIP3    H2 4405   5.065   4.149   1.018 -1.9957 -1.3615  3.3590
 1488TIP3   OH2 4406   2.576   2.483   6.550 -0.1825  0.4511 -0.3636
 1488TIP3    H1 4407   2.526   2.455   6.627 -1.2564  1.1291 -0.7932
 1488TIP3    H2 4408   2.517   2.466   6.476  1.0276 -0.6464 -1.0874
 1489TIP3   OH2 4409   8.318   0.556   6.523 -0.1741 -0.1473 -0.1047
 1489TIP3    H1 4410   8.389   0.507   6.566 -0.6400 -0.0342  0.8007
 1489TIP3    H2 4411   8.240   0.504   6.540 -0.5480  0.5148  0.1881
 1490TIP3   OH2 4412   3.063   6.799   0.370 -0.2681 -0.3311 -0.3838
 1490TIP3    H1 4413   3.117   6.869   0.408 -1.5960  0.4584  0.0638
 1490TIP3    H2 4414   2.991   6.845   0.327 -1.1908 -1.4361 -0.0311
 1491TIP3   OH2 4415   1.217   3.056   5.206 -0.0463  0.1041  0.5021
 1491TIP3    H1 4416   1.167   3.136   5.225  0.8924  0.3196  2.1449
 1491TIP3    H2 4417   1.169   2.986   5.251 -1.3725 -0.4411 -1.6769
 1492TIP3   OH2 4418   1.066   1.959   6.119  0.4692 -0.4287 -0.3301
 1492TIP3    H1 4419   1.095   1.939   6.208  1.7987  1.6169 -0.2635
 1492TIP3    H2 4420   1.131   1.917   6.063 -1.6759 -3.7436 -0.4508
 1493TIP3   OH2 4421   2.152   6.008   1.944 -0.0055  0.0792  0.5089
 1493TIP3    H1 4422   2.090   5.958   1.892 -0.4822 -0.0422  1.1898
 1493TIP3    H2 4423   2.229   6.018   1.887  0.5019 -2.2821  0.7337
 1494TIP3   OH2 4424   3.782   5.750   0.034  0.4580 -0.0602 -0.2004
 1494TIP3    H1 4425   3.761   5.696   0.110  0.4720 -0.1597 -0.2670
 1494TIP3    H2 4426   3.819   5.830   0.071 -0.7871  0.4598 -0.0444
 1495TIP3   OH2 4427   3.982   6.185   0.263  0.0857 -0.5524  0.0858
 1495TIP3    H1 4428   3.941   6.188   0.350 -0.8908 -0.2662 -0.3719
 1495TIP3    H2 4429   4.016   6.273   0.248 -0.5575 -0.3480 -0.1969
 1496TIP3   OH2 4430   3.723   4.434   0.331  0.6979 -0.0280 -0.2096
 1496TIP3    H1 4431   3.811   4.461   0.357  1.0422 -1.4959  0.1646
 1496TIP3    H2 4432   3.701   4.364   0.391 -0.0093 -0.8841 -1.4631
 1497TIP3   OH2 4433   7.560   1.943   6.670  0.1370  0.3968 -0.2364
 1497TIP3    H1 4434   7.568   1.941   6.766 -0.1496 -1.3189 -0.2355
 1497TIP3    H2 4435   7.466   1.939   6.654  0.0686  2.7290 -0.5734
 1498TIP3   OH2 4436   1.134   4.322   0.509  0.4741 -0.4316 -0.3647
 1498TIP3    H1 4437   1.211   4.331   0.564  0.3187 -1.1963 -0.0145
 1498TIP3    H2 4438   1.141   4.235   0.470  1.0804  0.4672 -2.3477
 1499TIP3   OH2 4439   2.961   7.671   0.456 -0.0960  0.5044 -0.6786
 1499TIP3    H1 4440   2.890   7.609   0.463  0.2049  0.1968 -0.3198
 1499TIP3    H2 4441   2.994   7.680   0.546  0.4065  0.5337 -0.8637
 1500TIP3   OH2 4442   4.913   5.753   0.253 -0.1932  0.0735 -0.1214
 1500TIP3    H1 4443   4.991   5.749   0.308  0.6896 -0.4297 -1.3939
 1500TIP3    H2 4444   4.847   5.706   0.304  0.8410 -1.1146  0.1550
 1501TIP3   OH2 4445   2.078   6.056   2.712  0.2999  0.3230 -0.0419
 1501TIP3    H1 4446   2.055   6.109   2.788  1.3702  0.8774 -0.0994
 1501TIP3    H2 4447   1.994   6.039   2.669 -0.3338 -0.0984  1.3171
 1502TIP3   OH2 4448   8.253   0.288   3.305  0.1528 -0.4946  0.5310
 1502TIP3    H1 4449   8.230   0.214   3.361  0.0990 -0.9832 -0.1317
 1502TIP3    H2 4450   8.252   0.364   3.364 -1.6947 -0.7231  0.8346
 1503TIP3   OH2 4451   2.454   7.087   0.215  0.2561 -0.0232 -0.7438
 1503TIP3    H1 4452   2.433   7.111   0.125  1.3343 -0.1963 -1.0532
 1503TIP3    H2 4453   2.533   7.137   0.235 -0.3499  0.5247  0.3436
 1504TIP3   OH2 4454   3.874   4.535   0.834  0.2660 -0.1551 -0.3083
 1504TIP3    H1 4455   3.958   4.581   0.836  0.1435  0.0387  0.8214
 1504TIP3    H2 4456   3.849   4.527   0.926 -1.0147 -0.1062 -0.6453
 1505TIP3   OH2 4457   2.816   7.955   2.497 -0.7332  0.1136 -0.0402
 1505TIP3    H1 4458   2.866   7.890   2.448  0.8372 -0.3164  2.0598
 1505TIP3    H2 4459   2.786   7.909   2.575  3.5551  2.7110  3.3855
 1506TIP3   OH2 4460   2.299   5.800   0.423 -0.1796  0.0119  0.5118
 1506TIP3    H1 4461   2.286   5.705   0.422  0.5764 -0.1001 -1.3858
 1506TIP3    H2 4462   2.390   5.811   0.452  0.2420  0.0669 -0.8032
 1507TIP3   OH2 4463   3.188   6.742   2.126 -0.1243  0.2085 -0.0311
 1507TIP3    H1 4464   3.115   6.680   2.134  0.3760 -0.5046 -0.8559
 1507TIP3    H2 4465   3.266   6.689   2.142  0.4505  0.1601 -2.6945
 1508TIP3   OH2 4466   8.188   0.770   6.328  0.0831 -0.4377  0.6237
 1508TIP3    H1 4467   8.257   0.704   6.325 -0.5847 -1.0938 -2.0798
 1508TIP3    H2 4468   8.208   0.829   6.255 -0.9739  0.6215  1.1799
 1509TIP3   OH2 4469   6.023   7.947   5.656 -0.1368 -0.2757 -0.2451
 1509TIP3    H1 4470   6.104   7.986   5.690 -0.2044 -1.6506  1.4995
 1509TIP3    H2 4471   5.953   8.004   5.688  0.0373  0.2730 -0.8231
 1510TIP3   OH2 4472   1.135   1.190   6.288  0.3271  0.2578  1.1337
 1510TIP3    H1 4473   1.218   1.237   6.292  0.1853  0.9709 -2.6879
 1510TIP3    H2 4474   1.142   1.135   6.210 -2.5706 -0.0695  1.0533
 1511TIP3   OH2 4475   3.145   5.900   1.369 -0.4641 -0.7931  0.4286
 1511TIP3    H1 4476   3.160   5.816   1.412  0.6490 -0.4857  0.6697
 1511TIP3    H2 4477   3.059   5.928   1.399 -0.7961 -1.7971  0.4259
 1512TIP3   OH2 4478   4.242   4.914   0.960 -0.0422  0.0818 -0.3415
 1512TIP3    H1 4479   4.271   4.826   0.986  0.0396  0.4328  0.8156
 1512TIP3    H2 4480   4.288   4.932   0.878  1.1452 -0.3431  0.2232
 1513TIP3   OH2 4481   0.253   0.311   5.998  0.0006 -0.8220 -0.3520
 1513TIP3    H1 4482   0.197   0.243   5.961 -1.3992  0.7804 -1.2294
 1513TIP3    H2 4483   0.306   0.342   5.925 -0.4021  0.0440 -0.2832
 1514TIP3   OH2 4484   2.203   5.850   2.393  0.1571  0.6202  0.1966
 1514TIP3    H1 4485   2.156   5.873   2.313 -0.3842  0.3169  0.4185
 1514TIP3    H2 4486   2.295   5.855   2.370 -0.0029 -0.1107 -0.6375
 1515TIP3   OH2 4487   1.931   3.140   6.887 -0.1544 -0.0286 -0.0371
 1515TIP3    H1 4488   1.859   3.152   6.826  0.1727  0.7430 -0.2789
 1515TIP3    H2 4489   1.947   3.046   6.888 -1.2086 -0.2063  0.0756
 1516TIP3   OH2 4490   0.282   2.709   4.036 -0.0247 -0.9662  0.0223
 1516TIP3    H1 4491   0.319   2.779   4.089 -1.0971 -1.6870  1.7591
 1516TIP3    H2 4492   0.344   2.637   4.044  0.0388 -0.9262 -0.0968
 1517TIP3   OH2 4493   8.005   7.028   6.796  0.1793  1.1042  0.1963
 1517TIP3    H1 4494   8.005   6.937   6.766  0.5044  1.0370  0.3952
 1517TIP3    H2 4495   8.027   7.079   6.718  1.0002  0.9295  0.3020
 1518TIP3   OH2 4496   3.906   6.190   0.757 -0.2131  0.4060  0.3100
 1518TIP3    H1 4497   3.998   6.172   0.740 -0.6018 -0.6228 -0.7872
 1518TIP3    H2 4498   3.877   6.119   0.813 -0.7307 -0.1588 -0.6609
 1519TIP3   OH2 4499   0.804   0.956   6.412  0.1336  0.5981 -0.1700
 1519TIP3    H1 4500   0.742   1.029   6.414 -1.0182 -0.3619  0.3231
 1519TIP3    H2 4501   0.767   0.893   6.474  0.4978 -0.8883 -1.4531
 1520TIP3   OH2 4502   5.544   7.194   4.953  0.5019 -0.9147  0.0956
 1520TIP3    H1 4503   5.478   7.263   4.950  1.4949  0.0064 -0.5001
 1520TIP3    H2 4504   5.511   7.127   4.893  0.4477 -0.1526 -0.7292
 1521TIP3   OH2 4505   5.598   0.397   1.536 -0.1489  0.9293  0.5590
 1521TIP3    H1 4506   5.552   0.334   1.480  0.3329  1.5140 -0.5252
 1521TIP3    H2 4507   5.573   0.483   1.500  0.3937  1.2999  1.0629
 1522TIP3   OH2 4508   3.833   6.704   0.732  0.1565  0.1932  1.2437
 1522TIP3    H1 4509   3.857   6.736   0.819 -1.0080 -0.8833  1.9886
 1522TIP3    H2 4510   3.809   6.613   0.746  0.1609 -0.0554 -0.2590
 1523TIP3   OH2 4511   0.768   0.441   6.252  0.4589  0.3764  0.1409
 1523TIP3    H1 4512   0.795   0.531   6.270 -0.9834  1.0726 -1.0898
 1523TIP3    H2 4513   0.741   0.407   6.338 -1.6799  2.0629  0.1801
 1524TIP3   OH2 4514   3.829   3.620   0.553  0.2064 -0.3446 -0.6883
 1524TIP3    H1 4515   3.764   3.553   0.574  0.1294  0.8062  3.0845
 1524TIP3    H2 4516   3.873   3.638   0.636  2.2416  2.1701 -2.2254
 1525TIP3   OH2 4517   4.474   7.507   1.577 -0.5932 -0.4862 -0.3230
 1525TIP3    H1 4518   4.474   7.438   1.511  0.2880 -1.8926  1.0968
 1525TIP3    H2 4519   4.561   7.501   1.617 -0.5821  1.3292 -0.0583
 1526TIP3   OH2 4520   2.526   5.394   1.243  0.0121  0.6657  0.2528
 1526TIP3    H1 4521   2.570   5.326   1.192 -0.1717 -0.4796  1.5872
 1526TIP3    H2 4522   2.474   5.345   1.308 -3.2336  1.9331 -1.2494
 1527TIP3   OH2 4523   4.032   6.458   0.540 -0.6407  0.0156  0.2880
 1527TIP3    H1 4524   3.973   6.402   0.591 -1.2636  0.3951 -0.0111
 1527TIP3    H2 4525   3.979   6.490   0.467  0.4629 -1.1389 -1.0492
 1528TIP3   OH2 4526   3.219   6.383   1.080 -0.1254 -0.0510 -0.1158
 1528TIP3    H1 4527   3.186   6.367   1.169  0.3480 -1.1098 -0.1234
 1528TIP3    H2 4528   3.305   6.425   1.094  0.2490 -0.8299 -0.0660
 1529TIP3   OH2 4529   6.296   7.291   0.921  0.0647  0.0569  0.0195
 1529TIP3    H1 4530   6.332   7.331   1.000  1.1213 -0.5360 -0.1492
 1529TIP3    H2 4531   6.204   7.275   0.941  0.5157 -0.8410  1.4441
 1530TIP3   OH2 4532   3.600   4.604   1.740  0.2896  0.4980 -0.2920
 1530TIP3    H1 4533   3.668   4.653   1.693  1.3807 -2.6886 -2.2192
 1530TIP3    H2 4534   3.543   4.569   1.670 -0.0488 -1.5086  0.9346
 1531TIP3   OH2 4535   7.502   2.884   6.201  0.2247  0.0908  0.4405
 1531TIP3    H1 4536   7.512   2.803   6.251  0.5625 -0.1101  0.0508
 1531TIP3    H2 4537   7.560   2.946   6.246 -0.0061  0.1078  0.7168
 1532TIP3   OH2 4538   4.081   3.168   0.889  0.6308  0.1562  0.2153
 1532TIP3    H1 4539   4.011   3.120   0.845 -0.1166  0.7138  0.7925
 1532TIP3    H2 4540   4.094   3.122   0.971 -1.0294  1.7087  1.3923
 1533TIP3   OH2 4541   3.759   3.419   0.231 -0.1449  0.3731 -0.4950
 1533TIP3    H1 4542   3.797   3.344   0.277 -0.6842 -0.5850 -1.5799
 1533TIP3    H2 4543   3.834   3.464   0.192  0.2969  1.0952  1.1615
 1534TIP3   OH2 4544   3.527   2.684   1.873  0.0606 -0.3115 -0.3982
 1534TIP3    H1 4545   3.434   2.681   1.850  0.3280 -0.3754 -1.5054
 1534TIP3    H2 4546   3.557   2.768   1.837  0.3642 -0.1435  0.2381
 1535TIP3   OH2 4547   3.449   6.549   1.147  0.2312  0.1369  0.1557
 1535TIP3    H1 4548   3.460   6.606   1.223 -0.2785  0.3981  0.0345
 1535TIP3    H2 4549   3.528   6.495   1.146  0.9624  1.2080 -0.0580
 1536TIP3   OH2 4550   4.963   7.525   0.914  0.4139 -0.2095  0.3846
 1536TIP3    H1 4551   4.910   7.446   0.927 -0.0828  0.0785  0.0896
 1536TIP3    H2 4552   5.049   7.502   0.950  0.6377 -1.3118 -0.8414
 1537TIP3   OH2 4553   4.298   7.132   0.711 -0.1879 -0.0560 -0.4908
 1537TIP3    H1 4554   4.244   7.201   0.673  1.8124  1.6181 -0.3959
 1537TIP3    H2 4555   4.329   7.168   0.794  1.6892 -0.6365 -0.8997
 1538TIP3   OH2 4556   5.238   7.871   2.348  0.6922 -0.4132  0.4640
 1538TIP3    H1 4557   5.240   7.962   2.378 -1.6443 -0.4197  0.7178
 1538TIP3    H2 4558   5.212   7.821   2.426 -0.5995 -0.9907 -0.3344
 1539TIP3   OH2 4559   0.083   0.359   6.364  0.3717  0.1332 -0.3076
 1539TIP3    H1 4560   0.121   0.446   6.368  0.5430 -0.0427  3.5570
 1539TIP3    H2 4561   0.040   0.355   6.278  2.5198  3.0547 -1.5713
 1540TIP3   OH2 4562   6.212   7.520   5.983 -0.0545  0.5069 -0.0257
 1540TIP3    H1 4563   6.185   7.562   5.902 -1.5611 -1.4679 -0.5501
 1540TIP3    H2 4564   6.177   7.576   6.052 -0.4581  1.1043 -0.7164
 1541TIP3   OH2 4565   5.182   0.061   0.772 -0.1247  0.2826 -0.2342
 1541TIP3    H1 4566   5.113   0.032   0.713  0.4647  1.0720 -1.3410
 1541TIP3    H2 4567   5.263   0.055   0.720  0.3681  1.2068  0.4064
 1542TIP3   OH2 4568   1.327   3.014   5.663 -0.6016  0.4523 -0.4827
 1542TIP3    H1 4569   1.239   3.053   5.668 -0.7369  0.0080  0.7046
 1542TIP3    H2 4570   1.312   2.927   5.625 -0.8219 -0.0547  0.7427
 1543TIP3   OH2 4571   4.715   6.721   0.159  0.4595 -0.3393 -0.2020
 1543TIP3    H1 4572   4.663   6.652   0.118  0.3732 -0.5905  0.3214
 1543TIP3    H2 4573   4.767   6.675   0.226 -0.9991  0.3685  1.4533
 1544TIP3   OH2 4574   1.906   6.313   3.140 -0.2352 -0.0595 -0.2647
 1544TIP3    H1 4575   1.876   6.357   3.060  2.2774  0.5656 -0.9165
 1544TIP3    H2 4576   1.997   6.340   3.150 -0.0034 -1.4715  1.9017
 1545TIP3   OH2 4577   3.131   5.443   0.670  0.2865  0.0006 -0.0700
 1545TIP3    H1 4578   3.137   5.377   0.602 -0.1849  1.5615 -1.6762
 1545TIP3    H2 4579   3.040   5.438   0.701  0.4234 -0.5131  0.2588
 1546TIP3   OH2 4580   1.233   2.325   6.437 -0.0169 -0.1646 -1.2474
 1546TIP3    H1 4581   1.159   2.321   6.498  0.0615 -2.1575 -1.2634
 1546TIP3    H2 4582   1.232   2.415   6.404  0.5032  1.2125  2.3630
 1547TIP3   OH2 4583   0.139   5.042   2.328  0.0083  0.2703  0.0528
 1547TIP3    H1 4584   0.091   4.960   2.335  0.9131 -0.2920 -0.2908
 1547TIP3    H2 4585   0.094   5.091   2.259 -0.3602 -0.0568  0.0646
 1548TIP3   OH2 4586   3.138   5.355  -0.031 -0.2722  0.3648  0.0544
 1548TIP3    H1 4587   3.092   5.412   0.030 -0.6676  0.4097 -0.2801
 1548TIP3    H2 4588   3.228   5.352   0.002 -1.2872 -2.6177  2.7755
 1549TIP3   OH2 4589   1.615   4.813   0.463  0.5369  0.0855 -0.4556
 1549TIP3    H1 4590   1.564   4.781   0.538 -0.2503 -0.2471 -1.1229
 1549TIP3    H2 4591   1.680   4.872   0.501  0.4737 -0.4816  0.5430
 1550TIP3   OH2 4592   0.630   2.465   5.017 -0.3177  0.0376  0.2361
 1550TIP3    H1 4593   0.686   2.387   5.012 -1.6011 -0.9499  0.8608
 1550TIP3    H2 4594   0.603   2.481   4.927  0.6693  0.2968 -0.0183
 1551TIP3   OH2 4595   3.691   6.684   3.057  0.5546 -0.7448  0.1423
 1551TIP3    H1 4596   3.673   6.671   3.150 -1.6052 -1.6187 -0.3695
 1551TIP3    H2 4597   3.773   6.635   3.042  1.1670 -0.2096  1.6562
 1552TIP3   OH2 4598   3.505   5.404   0.815  0.6137  0.6071  0.5742
 1552TIP3    H1 4599   3.541   5.318   0.793 -0.8003 -0.1398  1.1216
 1552TIP3    H2 4600   3.502   5.406   0.911 -1.2843  0.4273  0.5416
 1553TIP3   OH2 4601   2.920   4.895   1.242 -0.1611  0.4150  0.0646
 1553TIP3    H1 4602   2.836   4.861   1.273 -0.4389  0.0183 -1.1296
 1553TIP3    H2 4603   2.980   4.881   1.316 -0.9474 -0.0463  0.6185
 1554TIP3   OH2 4604   4.114   6.845   3.787 -0.3162 -0.2447 -0.1477
 1554TIP3    H1 4605   4.084   6.846   3.878  1.0702  0.1336  0.3106
 1554TIP3    H2 4606   4.104   6.935   3.756 -0.5340 -0.3161 -0.2898
 1555TIP3   OH2 4607   1.994   3.448   5.544 -0.1305 -0.0308  0.6078
 1555TIP3    H1 4608   2.007   3.366   5.496  1.2094 -0.5332  1.7824
 1555TIP3    H2 4609   1.948   3.422   5.623 -0.6216  0.5097  0.5012
 1556TIP3   OH2 4610   2.461   3.636   3.830 -0.3155  0.1467 -0.1367
 1556TIP3    H1 4611   2.389   3.601   3.778  0.7782 -1.9006 -0.3436
 1556TIP3    H2 4612   2.538   3.627   3.773  0.4809  0.0980  0.9331
 1557TIP3   OH2 4613   3.216   6.565   1.554  0.7016  0.3713  0.2570
 1557TIP3    H1 4614   3.251   6.478   1.533 -1.2187 -0.2737 -0.3183
 1557TIP3    H2 4615   3.138   6.547   1.607  0.2788  1.7453  0.1014
 1558TIP3   OH2 4616   6.093   4.289   0.973 -0.2566 -0.5324 -0.3379
 1558TIP3    H1 4617   6.183   4.298   1.003 -0.2611  1.2440 -0.7683
 1558TIP3    H2 4618   6.081   4.363   0.913 -1.5100 -1.6537 -1.5106
 1559TIP3   OH2 4619   3.573   6.285   1.459 -0.0074  0.3862 -0.3703
 1559TIP3    H1 4620   3.519   6.339   1.403 -0.0304 -0.1000 -0.8262
 1559TIP3    H2 4621   3.620   6.227   1.398  0.7195  0.5336  0.0414
 1560TIP3   OH2 4622   2.402   3.861   0.274 -0.0933  0.3206 -0.0750
 1560TIP3    H1 4623   2.380   3.816   0.192  2.7377  0.8438 -1.1965
 1560TIP3    H2 4624   2.362   3.948   0.266  0.1382  0.3525 -0.8897
 1561TIP3   OH2 4625   2.719   4.482   4.040 -0.0721 -0.6346 -0.0261
 1561TIP3    H1 4626   2.750   4.434   4.117 -2.4029 -1.7427  0.2742
 1561TIP3    H2 4627   2.710   4.573   4.071 -1.2667 -1.1221  1.0966
 1562TIP3   OH2 4628   3.233   3.393   1.883  0.6031  0.3863  0.3827
 1562TIP3    H1 4629   3.139   3.394   1.863  0.6593 -0.7362  0.0334
 1562TIP3    H2 4630   3.254   3.300   1.895  1.8445  0.5621 -0.3579
 1563TIP3   OH2 4631   1.769   5.081   2.425 -0.6021  0.0397  0.2745
 1563TIP3    H1 4632   1.800   5.016   2.362 -1.7402 -0.7787  0.5607
 1563TIP3    H2 4633   1.843   5.094   2.484  0.0651 -0.0542 -0.5320
 1564TIP3   OH2 4634   5.014   7.186   4.934 -0.2351 -0.0647 -0.3086
 1564TIP3    H1 4635   4.946   7.222   4.991 -1.1085 -0.5179 -1.0569
 1564TIP3    H2 4636   5.017   7.247   4.860 -0.2918 -0.4129 -0.5956
 1565TIP3   OH2 4637   1.321   4.402   1.853  0.0271  0.3374 -0.1227
 1565TIP3    H1 4638   1.329   4.497   1.844  0.5635  0.0840 -2.6225
 1565TIP3    H2 4639   1.229   4.384   1.833  0.1739  0.2344 -0.7231
 1566TIP3   OH2 4640   1.460   4.475   1.547 -0.0475  0.4215 -0.3022
 1566TIP3    H1 4641   1.533   4.498   1.604  0.8463  2.0854 -2.0303
 1566TIP3    H2 4642   1.404   4.553   1.548 -0.6561 -0.0064 -0.7362
 1567TIP3   OH2 4643   3.716   5.203   0.844  0.6124 -0.2446  0.2245
 1567TIP3    H1 4644   3.755   5.238   0.924  1.1849  0.0842 -0.1952
 1567TIP3    H2 4645   3.788   5.158   0.800  0.2604 -0.5606 -0.0338
 1568TIP3   OH2 4646   3.456   6.103   1.614 -0.2668  0.8105 -0.5506
 1568TIP3    H1 4647   3.503   6.138   1.538  0.8721  0.4677 -0.0131
 1568TIP3    H2 4648   3.524   6.086   1.679 -0.7660 -2.3165 -0.7515
 1569TIP3   OH2 4649   3.201   5.713   1.591 -0.5966 -0.5344  0.6528
 1569TIP3    H1 4650   3.213   5.778   1.660  0.7585  1.3184 -1.2791
 1569TIP3    H2 4651   3.106   5.701   1.585 -0.8856  1.6160  0.7178
 1570TIP3   OH2 4652   4.047   5.592   2.409 -0.0497 -0.1608  0.0939
 1570TIP3    H1 4653   3.971   5.648   2.423  0.9998  0.6480  2.7281
 1570TIP3    H2 4654   4.096   5.635   2.340 -1.5318 -0.2367 -1.0335
 1571TIP3   OH2 4655   6.184   6.842   1.575 -0.7738  0.4263  0.2186
 1571TIP3    H1 4656   6.103   6.815   1.617 -1.2708  0.8152 -0.4765
 1571TIP3    H2 4657   6.220   6.910   1.632  0.1716 -1.2241  1.6572
 1572TIP3   OH2 4658   8.034   1.941   6.202 -0.0588  0.0466  0.0315
 1572TIP3    H1 4659   8.066   1.953   6.112 -0.0180 -2.2068 -0.2791
 1572TIP3    H2 4660   7.946   1.904   6.192  0.0836 -0.5505  0.9254
 1573TIP3   OH2 4661   5.054   6.999   1.334 -0.0635  0.4863  0.6156
 1573TIP3    H1 4662   5.146   7.001   1.357 -0.2287  0.6977  1.2510
 1573TIP3    H2 4663   5.053   6.973   1.241  0.5589 -0.8367  0.9680
 1574TIP3   OH2 4664   6.736   6.882   6.807 -0.3086 -0.0104  0.0239
 1574TIP3    H1 4665   6.737   6.948   6.877  2.0495  2.4687 -2.1827
 1574TIP3    H2 4666   6.792   6.811   6.840  0.7622  1.1137  0.6991
 1575TIP3   OH2 4667   5.509   4.778   1.255 -0.1272  0.3932  0.8638
 1575TIP3    H1 4668   5.533   4.692   1.291  1.7438  0.3920 -0.2894
 1575TIP3    H2 4669   5.421   4.766   1.221 -0.3409 -0.7347  1.7837
 1576TIP3   OH2 4670   0.946   1.300   6.779 -0.7268  0.2947  0.1354
 1576TIP3    H1 4671   0.866   1.248   6.772  0.3160 -1.0544 -2.4270
 1576TIP3    H2 4672   1.009   1.244   6.823 -0.6379  0.7028  0.5387
 1577TIP3   OH2 4673   4.238   5.409   0.291  0.6685  0.0865  0.2890
 1577TIP3    H1 4674   4.327   5.382   0.316  1.2957  1.4965 -0.3151
 1577TIP3    H2 4675   4.223   5.366   0.207  0.6146 -0.4897  0.5915
 1578TIP3   OH2 4676   1.495   6.213   2.924 -0.0143 -0.2672  0.3248
 1578TIP3    H1 4677   1.564   6.165   2.876  0.6253  1.8561 -0.9233
 1578TIP3    H2 4678   1.418   6.157   2.917  0.5444 -0.8085 -1.6821
 1579TIP3   OH2 4679   4.718   4.691   1.446  0.0440 -0.2590  0.0488
 1579TIP3    H1 4680   4.642   4.667   1.499 -1.0501 -0.1489 -1.4115
 1579TIP3    H2 4681   4.780   4.620   1.459  0.7121  0.8198  3.1573
 1580TIP3   OH2 4682   0.434   1.594   5.837 -0.0663 -0.1404 -0.1903
 1580TIP3    H1 4683   0.514   1.585   5.784 -0.2908  0.9265 -0.7306
 1580TIP3    H2 4684   0.466   1.619   5.924  0.2462 -0.8576 -0.0915
 1581TIP3   OH2 4685   4.183   7.764   6.223 -0.2916  0.3157 -0.0175
 1581TIP3    H1 4686   4.199   7.837   6.282 -0.3323  1.0509 -0.8971
 1581TIP3    H2 4687   4.090   7.744   6.233  0.0367 -0.6091  1.3258
 1582TIP3   OH2 4688   0.059   7.463  -0.026 -0.5944 -0.2081 -0.2276
 1582TIP3    H1 4689   0.002   7.422   0.039  1.6340 -1.0321  1.2566
 1582TIP3    H2 4690   0.087   7.545   0.014 -0.1922 -0.1323 -0.6614
 1583TIP3   OH2 4691   4.994   4.226   2.164  0.2182  0.0743 -0.1313
 1583TIP3    H1 4692   4.960   4.314   2.181  1.8559  0.4282  1.3928
 1583TIP3    H2 4693   4.941   4.169   2.219  1.9255  0.6156  2.1597
 1584TIP3   OH2 4694   6.453   5.280   5.780  0.0372 -0.1100  0.7038
 1584TIP3    H1 4695   6.465   5.255   5.688 -1.9293 -0.9342  0.6393
 1584TIP3    H2 4696   6.415   5.202   5.820  1.9495 -0.1580  2.5070
 1585TIP3   OH2 4697   3.482   4.432   2.473 -0.5639 -0.6294  0.3064
 1585TIP3    H1 4698   3.461   4.370   2.403  1.9704  0.6611 -1.6723
 1585TIP3    H2 4699   3.564   4.400   2.510 -1.4576 -0.8317  2.2001
 1586TIP3   OH2 4700   0.777   3.494   6.355  0.3053 -0.0162 -0.9292
 1586TIP3    H1 4701   0.846   3.557   6.374 -1.0042  1.4942 -1.0160
 1586TIP3    H2 4702   0.817   3.431   6.296  1.6504  0.7423 -0.8516
 1587TIP3   OH2 4703   3.682   5.304   1.309  0.4407 -0.2488  0.6918
 1587TIP3    H1 4704   3.624   5.242   1.352  1.3133 -0.8164  1.0647
 1587TIP3    H2 4705   3.736   5.339   1.380  2.2938 -1.6208  0.0073
 1588TIP3   OH2 4706   2.755   6.154   2.160 -0.5861  0.1198  0.4926
 1588TIP3    H1 4707   2.801   6.232   2.130 -1.0409 -0.1524 -0.9404
 1588TIP3    H2 4708   2.811   6.119   2.230  0.6639  0.5865 -0.2562
 1589TIP3   OH2 4709   7.719   2.344   5.799  0.0215  0.0267 -0.3099
 1589TIP3    H1 4710   7.803   2.383   5.774  0.2190  0.3113  0.7832
 1589TIP3    H2 4711   7.737   2.295   5.879 -0.7947 -0.1384 -0.2172
 1590TIP3   OH2 4712   0.380   3.549   6.549  0.2162  0.2324  0.0375
 1590TIP3    H1 4713   0.402   3.520   6.460 -0.3306 -0.2192  0.0432
 1590TIP3    H2 4714   0.459   3.592   6.581  0.5118  0.1365 -0.5639
 1591TIP3   OH2 4715   3.711   6.455   0.795 -0.0431  0.7188  0.1245
 1591TIP3    H1 4716   3.622   6.447   0.830 -0.1496  1.0734 -0.0591
 1591TIP3    H2 4717   3.753   6.371   0.815 -0.6586  0.2704 -0.4536
 1592TIP3   OH2 4718   4.130   7.597   0.993 -0.6631  0.3881  0.1288
 1592TIP3    H1 4719   4.137   7.513   1.039  0.9120  0.2125 -0.4115
 1592TIP3    H2 4720   4.107   7.660   1.061  1.0970  0.0310  1.0741
 1593TIP3   OH2 4721   1.357   0.906   6.289  0.5565 -0.1799 -0.0421
 1593TIP3    H1 4722   1.297   0.936   6.358 -1.1881  0.4154 -1.7789
 1593TIP3    H2 4723   1.307   0.842   6.239  0.3750  2.2839 -3.1517
 1594TIP3   OH2 4724   0.698   0.738   6.580 -0.2719  0.0012 -0.4931
 1594TIP3    H1 4725   0.609   0.730   6.615 -0.1638  0.4710 -0.1046
 1594TIP3    H2 4726   0.751   0.682   6.636 -0.1017  0.7401  0.0991
 1595TIP3   OH2 4727   8.069   2.994   6.688  0.2634 -0.7472 -0.0996
 1595TIP3    H1 4728   8.163   2.974   6.694  0.2461 -0.6273  0.6289
 1595TIP3    H2 4729   8.042   2.956   6.604  1.2993  0.5849 -1.0621
 1596TIP3   OH2 4730   1.330   6.534   0.562  0.0337  0.1701 -0.2074
 1596TIP3    H1 4731   1.271   6.460   0.581 -0.3610 -0.1020 -2.3708
 1596TIP3    H2 4732   1.271   6.608   0.550  0.2985  0.4287  0.1058
 1597TIP3   OH2 4733   3.665   7.400   2.501  0.4529 -0.1387  0.2974
 1597TIP3    H1 4734   3.668   7.486   2.541  0.2218  0.0113 -0.0074
 1597TIP3    H2 4735   3.700   7.341   2.569 -0.3828  0.0463  0.8954
 1598TIP3   OH2 4736   4.126   6.295   1.178  0.6195  0.0421 -0.7137
 1598TIP3    H1 4737   4.192   6.298   1.248  0.6495 -1.0416 -0.6875
 1598TIP3    H2 4738   4.176   6.308   1.098  0.8452 -0.5862 -0.6790
 1599TIP3   OH2 4739   0.897   2.107   6.345 -0.2180  0.8174 -0.5321
 1599TIP3    H1 4740   0.831   2.076   6.406 -0.7258 -0.0987 -1.5383
 1599TIP3    H2 4741   0.889   2.050   6.269  1.5784  0.8227 -0.7604
 1600TIP3   OH2 4742   4.970   6.264   2.549  0.0939 -0.0142  0.3661
 1600TIP3    H1 4743   5.032   6.191   2.545 -0.4351 -0.4523  0.1345
 1600TIP3    H2 4744   5.018   6.338   2.513  0.8807 -0.0811  1.2858
 1601TIP3   OH2 4745   2.749   0.924   3.573 -0.2528 -0.1185 -0.5403
 1601TIP3    H1 4746   2.698   0.983   3.629  1.7863  2.1011 -0.9355
 1601TIP3    H2 4747   2.781   0.980   3.502  1.3126 -1.8240 -1.2204
 1602TIP3   OH2 4748   7.994   1.833   6.549  0.2010  0.2487  0.3795
 1602TIP3    H1 4749   8.026   1.883   6.623  1.2085  1.6988 -0.9912
 1602TIP3    H2 4750   7.927   1.888   6.509 -0.3232 -0.5053  0.2024
 1603TIP3   OH2 4751   2.398   7.368   1.464  0.6089 -0.1016  0.8576
 1603TIP3    H1 4752   2.339   7.442   1.478  0.0461 -0.6661  1.5065
 1603TIP3    H2 4753   2.470   7.384   1.525  1.9745  1.4588 -1.1144
 1604TIP3   OH2 4754   0.060   2.241   4.784 -0.0868 -0.3410 -0.2001
 1604TIP3    H1 4755   0.045   2.147   4.791  0.5448 -0.6098 -2.1789
 1604TIP3    H2 4756   0.006   2.268   4.710 -0.3849  0.8873  0.4581
 1605TIP3   OH2 4757   2.509   3.866   1.551 -0.1735  0.1475 -0.2870
 1605TIP3    H1 4758   2.475   3.818   1.476  0.1486  0.5689 -0.7031
 1605TIP3    H2 4759   2.519   3.800   1.620 -0.0288 -0.3190 -0.7561
 1606TIP3   OH2 4760   8.336   6.309   5.415 -0.4098  0.0187  0.5723
 1606TIP3    H1 4761   8.266   6.274   5.470  0.1453  1.2144  2.0620
 1606TIP3    H2 4762   8.308   6.398   5.395  0.5816  0.4273  0.9927
 1607TIP3   OH2 4763   0.540   0.579   6.872 -0.1976  0.6234  0.2043
 1607TIP3    H1 4764   0.504   0.641   6.808  0.2504  0.4601 -0.2055
 1607TIP3    H2 4765   0.483   0.588   6.948  0.9252  2.8448  0.8093
 1608TIP3   OH2 4766   4.509   5.329   0.373 -0.0632 -0.6966 -0.0884
 1608TIP3    H1 4767   4.600   5.348   0.353 -0.3184 -0.7226 -1.3483
 1608TIP3    H2 4768   4.505   5.325   0.468  1.0602  0.2433  0.0059
 1609TIP3   OH2 4769   5.990   7.003   6.681 -0.0104 -0.1036 -0.0975
 1609TIP3    H1 4770   5.991   6.979   6.589 -0.9073  1.1408 -0.4554
 1609TIP3    H2 4771   6.082   6.999   6.708  0.1052 -1.7407 -0.6888
 1610TIP3   OH2 4772   3.598   4.467   3.178  0.0661  0.1037 -0.2125
 1610TIP3    H1 4773   3.555   4.439   3.097 -1.5473 -2.1099  1.3436
 1610TIP3    H2 4774   3.555   4.549   3.201 -0.4884 -0.0001 -0.8594
 1611TIP3   OH2 4775   3.046   6.577   0.707  0.1953  0.0870 -0.6492
 1611TIP3    H1 4776   3.116   6.570   0.643 -0.6003  0.5892 -1.5988
 1611TIP3    H2 4777   3.035   6.489   0.741  0.7901 -0.1404 -1.0428
 1612TIP3   OH2 4778   4.160   7.029   1.237  0.0902 -0.2389  0.6128
 1612TIP3    H1 4779   4.072   7.067   1.236 -0.3314 -1.2146 -0.9228
 1612TIP3    H2 4780   4.145   6.935   1.238  1.0952 -0.4328 -1.1294
 1613TIP3   OH2 4781   5.954   4.900   1.419 -0.0103  0.1280 -0.2368
 1613TIP3    H1 4782   5.890   4.970   1.413  0.3916  0.5398  0.2569
 1613TIP3    H2 4783   5.908   4.829   1.464 -0.3590  0.1371 -0.5738
 1614TIP3   OH2 4784   2.911   7.414   1.664 -0.2380 -0.1985  0.6999
 1614TIP3    H1 4785   2.909   7.387   1.756  1.9545 -4.7985 -0.4437
 1614TIP3    H2 4786   2.820   7.430   1.641 -1.0364 -1.1198  3.1238
 1615TIP3   OH2 4787   7.482   7.889   6.301  0.4551 -0.6710  0.2124
 1615TIP3    H1 4788   7.434   7.843   6.370 -1.1788  3.6983  2.1495
 1615TIP3    H2 4789   7.414   7.918   6.240  1.6383 -2.2169 -1.8851
 1616TIP3   OH2 4790   1.894   2.083   6.029 -0.7214  0.3440 -0.2082
 1616TIP3    H1 4791   1.859   2.060   5.943 -0.1279 -1.6866  0.0594
 1616TIP3    H2 4792   1.908   1.998   6.072  1.4499  1.2142  0.8803
 1617TIP3   OH2 4793   4.019   6.827   0.926 -0.7528 -0.2878 -0.4480
 1617TIP3    H1 4794   4.086   6.873   0.976 -1.5524 -0.0391  0.4080
 1617TIP3    H2 4795   4.026   6.864   0.838  2.0337 -2.1846 -1.1015
 1618TIP3   OH2 4796   6.408   7.197   0.487 -0.3198  0.1059 -0.0979
 1618TIP3    H1 4797   6.382   7.181   0.577  0.1869  1.3653  0.2809
 1618TIP3    H2 4798   6.467   7.124   0.466 -1.8740 -1.1876 -0.0342
 1619TIP3   OH2 4799   5.183   5.970   0.536 -0.5209 -0.2300  0.3793
 1619TIP3    H1 4800   5.246   5.943   0.603 -1.0965 -2.7728 -0.0496
 1619TIP3    H2 4801   5.237   6.006   0.465  0.2091  0.7217  1.4065
 1620TIP3   OH2 4802   2.914   1.837   6.418  0.9933 -0.2015 -0.3303
 1620TIP3    H1 4803   2.957   1.913   6.457 -0.4576 -0.6840  2.3941
 1620TIP3    H2 4804   2.984   1.789   6.375  2.2126  1.8018 -0.6236
 1621TIP3   OH2 4805   1.163   2.365   5.090  0.2778  0.3135  0.5509
 1621TIP3    H1 4806   1.176   2.332   5.179 -3.2686  0.6228  1.2562
 1621TIP3    H2 4807   1.070   2.349   5.071  0.3414  2.5578 -2.1205
 1622TIP3   OH2 4808   4.660   4.909   1.290  0.4347  0.2089 -0.4425
 1622TIP3    H1 4809   4.726   4.974   1.265  0.4283 -0.1031 -1.3061
 1622TIP3    H2 4810   4.698   4.863   1.364 -0.2324  2.2567  1.2338
 1623TIP3   OH2 4811   6.445   2.756   0.066  0.3080 -0.1134  0.5105
 1623TIP3    H1 4812   6.437   2.797   0.152  0.3743 -0.2738  0.5927
 1623TIP3    H2 4813   6.534   2.778   0.038  0.7108 -1.0847  1.0077
 1624TIP3   OH2 4814   3.595   7.907   0.268  0.2956 -0.3092 -0.0521
 1624TIP3    H1 4815   3.666   7.935   0.325 -0.0063  1.3706 -0.4782
 1624TIP3    H2 4816   3.516   7.916   0.323 -0.0220  1.5181 -0.7590
 1625TIP3   OH2 4817   3.997   4.945   1.033 -0.6360  0.2145 -0.3307
 1625TIP3    H1 4818   3.950   4.911   0.957 -0.5208  0.9267 -0.7332
 1625TIP3    H2 4819   4.089   4.940   1.009 -0.5279 -0.6878  0.2479
 1626TIP3   OH2 4820   6.906   3.395   0.716 -0.4115  0.0686  0.2880
 1626TIP3    H1 4821   6.891   3.300   0.719 -1.4653  0.1884 -0.7720
 1626TIP3    H2 4822   6.854   3.425   0.642  1.4676  1.2189 -0.5938
 1627TIP3   OH2 4823   5.344   3.560   0.164  0.4586  0.4849 -1.1120
 1627TIP3    H1 4824   5.328   3.580   0.072  0.1860 -0.6442 -1.3175
 1627TIP3    H2 4825   5.403   3.485   0.163  0.2107  0.2740 -0.3618
 1628TIP3   OH2 4826   1.646   2.227   6.054 -0.1043  0.3048  0.2311
 1628TIP3    H1 4827   1.726   2.179   6.033 -1.9351 -1.9331 -1.9135
 1628TIP3    H2 4828   1.675   2.316   6.072  2.8745 -0.5077 -0.3357
 1629TIP3   OH2 4829   2.997   2.376   6.713 -0.2773 -0.0077  0.3067
 1629TIP3    H1 4830   3.021   2.468   6.721 -1.6617  0.2580  1.6178
 1629TIP3    H2 4831   3.007   2.357   6.619  1.7460  0.9699  0.2890
 1630TIP3   OH2 4832   4.147   3.416   0.725 -0.3374 -0.1468 -0.3336
 1630TIP3    H1 4833   4.153   3.365   0.805 -1.2538  0.7481  0.3152
 1630TIP3    H2 4834   4.185   3.359   0.657  0.8866 -0.7054  0.8012
 1631TIP3   OH2 4835   3.473   5.146   1.389  0.1166  0.1617  0.4625
 1631TIP3    H1 4836   3.466   5.051   1.384  1.7873  0.1541 -2.5163
 1631TIP3    H2 4837   3.454   5.167   1.481  1.7627 -3.2032  1.6274
 1632TIP3   OH2 4838   5.477   7.152   0.833 -0.1702 -0.3411 -0.6962
 1632TIP3    H1 4839   5.414   7.082   0.850  0.2249 -1.4551 -3.4552
 1632TIP3    H2 4840   5.541   7.145   0.903 -1.4559 -1.1896  0.4040
 1633TIP3   OH2 4841   1.240   1.926   6.326 -0.6656 -0.4746  0.4267
 1633TIP3    H1 4842   1.271   1.895   6.411 -0.2759 -2.2658 -0.3492
 1633TIP3    H2 4843   1.304   1.992   6.300 -0.6524 -0.0883  1.4079
 1634TIP3   OH2 4844   4.141   4.580   0.907 -0.1922  0.2399 -0.1558
 1634TIP3    H1 4845   4.209   4.640   0.938  0.3015 -0.8835  1.0100
 1634TIP3    H2 4846   4.100   4.548   0.987 -1.0283 -0.3191 -0.8029
 1635TIP3   OH2 4847   4.354   6.834   0.167 -0.0037 -0.4184 -0.0562
 1635TIP3    H1 4848   4.341   6.903   0.233  1.3672  0.6792 -0.9010
 1635TIP3    H2 4849   4.449   6.825   0.160 -0.1597 -2.1210 -0.2671
 1636TIP3   OH2 4850   4.802   4.579   1.182  0.0983 -0.1924  0.1887
 1636TIP3    H1 4851   4.771   4.628   1.258 -0.9507  0.3901 -0.5974
 1636TIP3    H2 4852   4.872   4.523   1.216 -1.4490 -1.1447  1.9234
 1637TIP3   OH2 4853   3.467   6.931   0.303 -0.2028  0.1344  0.1436
 1637TIP3    H1 4854   3.517   7.009   0.327 -0.3429  0.2611  0.0233
 1637TIP3    H2 4855   3.499   6.863   0.362 -1.0763  0.6234  1.1823
 1638TIP3   OH2 4856   4.327   1.992   3.430  0.6295  0.6488  0.4161
 1638TIP3    H1 4857   4.331   1.931   3.503 -1.4990 -1.3633 -1.0630
 1638TIP3    H2 4858   4.402   1.969   3.374  0.9066  0.6482  0.7879
 1639TIP3   OH2 4859   0.044   7.634   6.146  0.2073 -0.2119 -0.1458
 1639TIP3    H1 4860  -0.013   7.627   6.070 -0.3058 -3.1506  0.4328
 1639TIP3    H2 4861   0.114   7.570   6.130  1.1034  0.4541  1.0083
 1640TIP3   OH2 4862   5.622   2.914   1.910  0.1414 -0.4079  1.0071
 1640TIP3    H1 4863   5.705   2.925   1.955  0.3557 -0.7905  0.7103
 1640TIP3    H2 4864   5.572   2.992   1.932  0.6025 -0.1473  1.1329
 1641TIP3   OH2 4865   5.783   3.126   0.340  0.3030 -0.0988  0.6849
 1641TIP3    H1 4866   5.696   3.099   0.371  0.9126 -2.0195  0.7785
 1641TIP3    H2 4867   5.835   3.046   0.342  2.1785  1.1051  0.9205
 1642TIP3   OH2 4868   1.462   3.432   6.492 -0.0232 -0.1300  0.6194
 1642TIP3    H1 4869   1.374   3.461   6.519 -0.0484  0.0048  0.3927
 1642TIP3    H2 4870   1.521   3.478   6.551 -0.0254  0.9258 -0.1844
 1643TIP3   OH2 4871   6.602   0.699   1.847 -0.3480 -0.4386 -0.0687
 1643TIP3    H1 4872   6.660   0.638   1.892 -2.6630 -1.9594  0.9741
 1643TIP3    H2 4873   6.582   0.655   1.764 -1.0070 -0.5323  0.1342
 1644TIP3   OH2 4874   4.540   7.809   0.316  0.4490  0.2603  0.1234
 1644TIP3    H1 4875   4.502   7.818   0.403  0.2874  1.2011 -0.0353
 1644TIP3    H2 4876   4.597   7.732   0.322 -0.6999 -0.5596  0.6437
 1645TIP3   OH2 4877   2.942   3.191   3.139 -0.4704 -0.2137  0.3955
 1645TIP3    H1 4878   2.973   3.152   3.221 -2.0380 -2.7455 -0.1303
 1645TIP3    H2 4879   2.855   3.154   3.127  0.0273 -0.4922 -2.7920
 1646TIP3   OH2 4880   4.292   2.745   0.902  0.1343 -0.3332  0.2850
 1646TIP3    H1 4881   4.229   2.673   0.906  0.2889 -0.4888 -0.0454
 1646TIP3    H2 4882   4.242   2.822   0.927 -0.3940 -0.3158 -0.7774
 1647TIP3   OH2 4883   3.532   2.805   0.380 -0.4142  0.0977  0.2131
 1647TIP3    H1 4884   3.503   2.842   0.297 -1.1400 -0.3112  0.2832
 1647TIP3    H2 4885   3.579   2.725   0.356  1.1704  1.0491  0.0603
 1648TIP3   OH2 4886   3.338   2.956   1.735  0.4907 -0.3695 -0.2813
 1648TIP3    H1 4887   3.345   2.977   1.642 -0.3051  3.0351  0.3700
 1648TIP3    H2 4888   3.425   2.974   1.771 -0.3518  2.6401  0.3893
 1649TIP3   OH2 4889   6.867   2.667   2.243 -0.0766  0.5123  0.3740
 1649TIP3    H1 4890   6.844   2.736   2.306 -0.6936  0.0424  0.6636
 1649TIP3    H2 4891   6.788   2.614   2.235 -0.0776  0.7016 -0.9828
 1650TIP3   OH2 4892   4.693   6.806   0.810 -0.0198  0.0888  0.3046
 1650TIP3    H1 4893   4.700   6.865   0.736  0.0393  0.0510  0.2797
 1650TIP3    H2 4894   4.776   6.758   0.811 -0.2825 -0.3742  0.0023
 1651TIP3   OH2 4895   5.909   5.810   0.767  0.4223 -0.3432  0.0197
 1651TIP3    H1 4896   5.983   5.863   0.797  0.7395 -0.6741 -0.1738
 1651TIP3    H2 4897   5.836   5.837   0.823  1.0614 -1.1020  1.2587
 1652TIP3   OH2 4898   2.278   0.335   6.133  0.1351  0.0213  0.2941
 1652TIP3    H1 4899   2.372   0.318   6.137  0.0552 -0.2230  1.2364
 1652TIP3    H2 4900   2.260   0.390   6.209 -0.2941  1.0211 -0.5207
 1653TIP3   OH2 4901   2.008   0.925   6.640  0.3168 -0.4204  0.5401
 1653TIP3    H1 4902   2.094   0.884   6.638  1.1074  1.2364 -0.1867
 1653TIP3    H2 4903   2.023   1.014   6.672 -0.9912  0.1460 -0.3349
 1654TIP3   OH2 4904   7.263   6.153   0.660 -0.6266  0.5196 -0.0806
 1654TIP3    H1 4905   7.339   6.139   0.716 -0.1858 -0.4658 -0.9020
 1654TIP3    H2 4906   7.244   6.066   0.623 -1.4494  0.9763 -0.7546
 1655TIP3   OH2 4907   6.225   4.782   0.156  0.1880 -0.3107 -0.1567
 1655TIP3    H1 4908   6.130   4.774   0.162  0.2427  0.0128  1.2079
 1655TIP3    H2 4909   6.256   4.691   0.148 -0.1678 -0.4835  0.4172
 1656TIP3   OH2 4910   4.748   4.392   0.464  0.2814 -0.3331  0.2779
 1656TIP3    H1 4911   4.740   4.362   0.374  2.3662  0.9211 -0.3552
 1656TIP3    H2 4912   4.675   4.350   0.510  0.7630 -3.1228 -1.3977
 1657TIP3   OH2 4913   2.671   4.910   2.833  0.9911  0.0837 -0.4794
 1657TIP3    H1 4914   2.747   4.879   2.883  1.1852 -0.2433 -0.9658
 1657TIP3    H2 4915   2.698   4.900   2.741  0.3990  0.0651 -0.6527
 1658TIP3   OH2 4916   6.558   7.976   5.754 -0.4957 -0.5282  0.6342
 1658TIP3    H1 4917   6.531   8.065   5.731  0.0606 -0.5062  0.0478
 1658TIP3    H2 4918   6.478   7.933   5.784 -1.2493 -0.5699 -1.3526
 1659TIP3   OH2 4919   3.253   3.958   1.052 -0.0538  1.0344 -0.0681
 1659TIP3    H1 4920   3.251   3.968   0.957  0.0932  1.0820 -0.0671
 1659TIP3    H2 4921   3.281   3.867   1.065 -3.1945  0.0248 -0.0859
 1660TIP3   OH2 4922   0.668   7.669   4.903  0.2206  0.2006  0.0841
 1660TIP3    H1 4923   0.650   7.655   4.996 -0.6683  0.2665 -0.0817
 1660TIP3    H2 4924   0.762   7.690   4.900  0.4268 -0.5839  0.8793
 1661TIP3   OH2 4925   5.126   2.521   1.030  0.1834 -0.4538 -0.6842
 1661TIP3    H1 4926   5.164   2.603   0.999  1.0701 -0.3168  0.7392
 1661TIP3    H2 4927   5.190   2.486   1.091 -0.6793 -1.6771 -0.4574
 1662TIP3   OH2 4928   4.749   3.747   1.587 -0.2516  0.1021  0.7324
 1662TIP3    H1 4929   4.820   3.780   1.641  1.1076 -4.3356  1.8811
 1662TIP3    H2 4930   4.737   3.814   1.520  2.4947  2.6668  2.6702
 1663TIP3   OH2 4931   6.693   6.201   5.610  0.1659 -0.4204 -0.1628
 1663TIP3    H1 4932   6.692   6.120   5.558 -0.8694 -0.9227  0.6049
 1663TIP3    H2 4933   6.681   6.171   5.700 -1.0222  0.6291  0.0480
 1664TIP3   OH2 4934   4.972   4.069   0.586  0.7668  0.0890 -0.0637
 1664TIP3    H1 4935   5.058   4.072   0.544  0.2699  0.2225 -1.1075
 1664TIP3    H2 4936   4.926   3.998   0.541  1.0678 -1.4265  1.9640
 1665TIP3   OH2 4937   2.918   1.990   6.119  0.3736  0.2961  0.1568
 1665TIP3    H1 4938   2.823   1.999   6.128  0.3279  1.4813 -1.2734
 1665TIP3    H2 4939   2.954   2.032   6.198 -0.2430  1.7648 -0.3226
 1666TIP3   OH2 4940   2.717   3.059   1.152 -0.0711  0.3764 -0.3261
 1666TIP3    H1 4941   2.754   2.985   1.200 -2.6459 -0.1281  0.9890
 1666TIP3    H2 4942   2.699   3.024   1.064  1.3769  0.2794 -0.5903
 1667TIP3   OH2 4943   7.171   2.803   3.279  0.0191  0.0891  0.1391
 1667TIP3    H1 4944   7.213   2.881   3.312  0.8376 -0.6338  0.8214
 1667TIP3    H2 4945   7.080   2.829   3.263  0.2306  1.0999  0.5896
 1668TIP3   OH2 4946   4.539   1.356   6.788  0.2348 -0.0971 -0.0237
 1668TIP3    H1 4947   4.503   1.445   6.781 -0.2554 -0.1893  1.1935
 1668TIP3    H2 4948   4.634   1.369   6.782  0.0974  0.3668 -1.2238
 1669TIP3   OH2 4949   3.670   4.735   0.350  0.4025  0.0201  0.2568
 1669TIP3    H1 4950   3.707   4.745   0.262 -0.1940 -1.5202 -0.1676
 1669TIP3    H2 4951   3.661   4.641   0.362  0.0356  0.2440  1.7947
 1670TIP3   OH2 4952   1.893   0.623   6.802 -0.0084  0.2571  0.4735
 1670TIP3    H1 4953   1.827   0.668   6.749 -0.7011  0.0799  1.1694
 1670TIP3    H2 4954   1.975   0.639   6.757 -0.7881 -1.1855 -1.5188
 1671TIP3   OH2 4955   4.946   5.346   2.852 -0.3120 -0.1939 -0.0745
 1671TIP3    H1 4956   4.859   5.363   2.888 -0.6483  0.0114 -0.9486
 1671TIP3    H2 4957   4.930   5.284   2.781 -0.1204  1.8109 -1.9536
 1672TIP3   OH2 4958   5.865   5.378   2.243 -0.3303 -0.2992 -0.1409
 1672TIP3    H1 4959   5.803   5.340   2.181  0.2476 -0.0706 -0.8620
 1672TIP3    H2 4960   5.874   5.470   2.215  0.7686 -0.4797 -0.3872
 1673TIP3   OH2 4961   0.757   3.810   2.100 -0.0390  0.8189 -0.1911
 1673TIP3    H1 4962   0.821   3.739   2.105  0.0407  0.9594  0.9400
 1673TIP3    H2 4963   0.774   3.863   2.178 -1.0571  1.2542 -0.2574
 1674TIP3   OH2 4964   5.938   0.823   6.539  0.0982  0.1672 -0.7366
 1674TIP3    H1 4965   5.996   0.899   6.534 -1.3695  1.5101  1.8550
 1674TIP3    H2 4966   5.857   0.851   6.495 -0.5664  0.2465  0.5099
 1675TIP3   OH2 4967   0.808   7.245   1.037 -0.0292 -0.2953  0.4680
 1675TIP3    H1 4968   0.852   7.188   1.100 -1.9283 -1.9714  0.2925
 1675TIP3    H2 4969   0.869   7.250   0.963  0.5483 -1.3279  0.8633
 1676TIP3   OH2 4970   2.265   4.893   2.062  0.8114 -0.2960 -0.7527
 1676TIP3    H1 4971   2.246   4.908   1.969  0.6849 -0.2986 -0.7273
 1676TIP3    H2 4972   2.360   4.894   2.067  0.8363 -1.0371 -1.0044
 1677TIP3   OH2 4973   7.696   3.303   6.917 -0.0218  0.4179 -0.4881
 1677TIP3    H1 4974   7.698   3.255   6.834 -0.5421  0.3026 -0.4332
 1677TIP3    H2 4975   7.719   3.393   6.892 -0.1421  0.3772 -0.7525
 1678TIP3   OH2 4976   8.265   6.484   0.883  0.6956 -0.3027  0.3383
 1678TIP3    H1 4977   8.299   6.483   0.973  0.8659 -0.7942  0.2705
 1678TIP3    H2 4978   8.171   6.470   0.892  0.9009 -1.7885  0.3646
 1679TIP3   OH2 4979   1.466   7.306   2.484  0.3186 -0.3723 -0.1549
 1679TIP3    H1 4980   1.406   7.372   2.519  1.5656  0.6792  0.0580
 1679TIP3    H2 4981   1.415   7.259   2.419 -0.9395  0.0565  0.4959
 1680TIP3   OH2 4982   7.156   3.376   6.894  0.2220 -0.5828  0.0180
 1680TIP3    H1 4983   7.064   3.372   6.867  0.5839  2.7207 -2.0090
 1680TIP3    H2 4984   7.160   3.451   6.953  1.5118 -1.1605  0.6751
 1681TIP3   OH2 4985   7.141   3.547   6.033 -0.1623 -0.3502 -0.0322
 1681TIP3    H1 4986   7.221   3.595   6.052 -0.4162  0.1590 -0.2438
 1681TIP3    H2 4987   7.075   3.615   6.021 -1.0562 -0.8018  2.0420
 1682TIP3   OH2 4988   7.931   3.144   5.667  0.6291 -0.0524  0.8952
 1682TIP3    H1 4989   7.954   3.098   5.586 -1.2024  1.6018 -0.5952
 1682TIP3    H2 4990   7.990   3.107   5.732  0.2923 -3.3519 -0.5932
 1683TIP3   OH2 4991   4.379   0.878   1.881 -0.1806 -0.3719 -0.0471
 1683TIP3    H1 4992   4.379   0.782   1.872  0.2580 -0.2814 -1.1619
 1683TIP3    H2 4993   4.379   0.910   1.791  1.5194  0.6792  0.3071
 1684TIP3   OH2 4994   0.223   3.272   6.410 -0.2136 -0.2683  0.1856
 1684TIP3    H1 4995   0.240   3.345   6.351  0.7505 -0.9339 -0.3819
 1684TIP3    H2 4996   0.173   3.310   6.482 -1.0698  0.6275 -0.8722
 1685TIP3   OH2 4997   0.272   3.607   6.786  0.7687  0.1108  0.3067
 1685TIP3    H1 4998   0.310   3.581   6.702 -0.5226  0.0497 -0.2713
 1685TIP3    H2 4999   0.272   3.527   6.838  0.3155 -0.1719 -0.1230
 1686TIP3   OH2 5000   0.493   6.886   1.135 -0.4364  0.3055 -0.3642
 1686TIP3    H1 5001   0.402   6.886   1.163  0.2943 -3.0833  2.4009
 1686TIP3    H2 5002   0.537   6.946   1.195 -0.2152 -0.9974  0.7948
 1687TIP3   OH2 5003   1.127   5.514   2.462 -0.0080  0.0054  0.4739
 1687TIP3    H1 5004   1.167   5.427   2.461 -0.0029  0.0119 -0.0460
 1687TIP3    H2 5005   1.076   5.518   2.381 -2.3265 -0.5851  1.8755
 1688TIP3   OH2 5006   0.754   7.924   3.848 -0.5586 -0.4141  0.4241
 1688TIP3    H1 5007   0.749   7.965   3.762  1.9001  0.1336  0.4919
 1688TIP3    H2 5008   0.811   7.848   3.835  2.0796  1.2007  2.0591
 1689TIP3   OH2 5009   2.762   7.182   1.079  0.1284 -0.1272  0.0873
 1689TIP3    H1 5010   2.761   7.167   0.985  0.8917  1.3756 -0.1720
 1689TIP3    H2 5011   2.684   7.137   1.111 -0.5860  0.0374 -1.3774
 1690TIP3   OH2 5012   0.803   7.813   2.579 -0.1593 -0.1112 -0.4967
 1690TIP3    H1 5013   0.728   7.781   2.629 -0.1274  0.1395 -0.2861
 1690TIP3    H2 5014   0.850   7.869   2.641 -0.5534  0.8353 -1.0367
 1691TIP3   OH2 5015   2.549   6.428   1.449 -0.3255  0.1789  0.0113
 1691TIP3    H1 5016   2.551   6.340   1.487  0.9986  0.7907  1.3855
 1691TIP3    H2 5017   2.521   6.485   1.520  0.8335  1.1481 -0.2888
 1692TIP3   OH2 5018   5.515   3.550   6.431 -0.6259  0.2582  0.3755
 1692TIP3    H1 5019   5.530   3.640   6.405 -1.5845  0.6242  1.0568
 1692TIP3    H2 5020   5.599   3.520   6.467 -0.4787  1.0754  0.7191
 1693TIP3   OH2 5021   4.560   0.227   1.854  0.1375 -0.1304  0.6799
 1693TIP3    H1 5022   4.596   0.316   1.853 -1.3835  0.4972  0.0360
 1693TIP3    H2 5023   4.637   0.170   1.857  1.1498  1.1924  0.4287
 1694TIP3   OH2 5024   1.016   3.579   6.067 -0.0189  0.2325  0.2053
 1694TIP3    H1 5025   1.097   3.595   6.115 -0.0541  1.2863 -0.0791
 1694TIP3    H2 5026   0.949   3.626   6.118 -0.2252  0.5105 -0.3242
 1695TIP3   OH2 5027   2.653   6.305   2.401  0.4478 -0.4779  0.6371
 1695TIP3    H1 5028   2.655   6.395   2.368  1.6009 -0.6194  0.2879
 1695TIP3    H2 5029   2.694   6.253   2.332 -0.0150 -1.2453  0.9286
 1696TIP3   OH2 5030   4.885   0.379   1.095 -0.4516  0.6831  0.3683
 1696TIP3    H1 5031   4.852   0.420   1.015 -1.0242 -1.1295 -0.3504
 1696TIP3    H2 5032   4.808   0.371   1.151 -0.4491  0.1104  0.2905
 1697TIP3   OH2 5033   2.030   4.701   1.266 -0.3236 -0.5981  0.5259
 1697TIP3    H1 5034   1.989   4.623   1.303 -0.4527 -1.3575 -1.1426
 1697TIP3    H2 5035   1.959   4.765   1.259 -0.3243 -0.4990  1.4425
 1698TIP3   OH2 5036   1.313   4.677   1.783 -0.5271 -0.1954  0.0842
 1698TIP3    H1 5037   1.304   4.706   1.693 -1.4713  0.5182  0.4027
 1698TIP3    H2 5038   1.243   4.722   1.830  0.1017 -0.3738  1.2131
 1699TIP3   OH2 5039   2.167   5.792   2.673 -0.5384  0.3865 -0.7247
 1699TIP3    H1 5040   2.198   5.798   2.582  0.2225  0.0152 -0.4965
 1699TIP3    H2 5041   2.128   5.878   2.690 -1.7161  0.0761 -1.7663
 1700TIP3   OH2 5042   1.213   5.247   2.447 -0.5397  0.1700  0.3579
 1700TIP3    H1 5043   1.248   5.218   2.363  2.2952  0.8748  1.2228
 1700TIP3    H2 5044   1.222   5.170   2.504 -0.4637  0.3284  0.5602
 1701TIP3   OH2 5045   0.720   7.468   1.802 -0.0217  0.0842  0.4861
 1701TIP3    H1 5046   0.696   7.381   1.771  1.9666 -1.4920  3.1073
 1701TIP3    H2 5047   0.815   7.473   1.790  0.3500  0.6127  3.2428
 1702TIP3   OH2 5048   5.756   0.453   0.107 -0.0723  0.1988 -0.4144
 1702TIP3    H1 5049   5.679   0.397   0.109  0.2164 -0.2017 -0.4193
 1702TIP3    H2 5050   5.739   0.515   0.035  0.4290 -1.0902 -1.6782
 1703TIP3   OH2 5051   0.778   6.611   0.182  0.3475  0.1248 -0.2690
 1703TIP3    H1 5052   0.764   6.569   0.097 -0.4669  0.9712 -0.5681
 1703TIP3    H2 5053   0.870   6.638   0.180  0.8040 -1.3564 -0.1871
 1704TIP3   OH2 5054   0.158   1.663   5.870 -0.1977  0.1742 -0.5587
 1704TIP3    H1 5055   0.152   1.758   5.884 -0.7598  0.1136 -0.3680
 1704TIP3    H2 5056   0.249   1.648   5.845  0.2981  0.5816  0.9301
 1705TIP3   OH2 5057   3.401   7.756   0.672 -0.7403  0.4541 -0.5865
 1705TIP3    H1 5058   3.411   7.778   0.579 -1.4156  0.0014 -0.7719
 1705TIP3    H2 5059   3.384   7.662   0.672  2.3037 -0.1250  0.2102
 1706TIP3   OH2 5060   4.622   0.999   1.548  0.1455  0.1804 -0.0166
 1706TIP3    H1 5061   4.671   0.970   1.625  0.0399 -0.8406 -0.3317
 1706TIP3    H2 5062   4.555   1.058   1.583  1.1275  1.0042  0.4938
 1707TIP3   OH2 5063   0.627   4.526   5.778 -0.3672 -0.4913 -0.0291
 1707TIP3    H1 5064   0.614   4.437   5.745 -1.5094 -0.1822 -0.4519
 1707TIP3    H2 5065   0.542   4.549   5.816  0.2842 -0.0206  1.1419
 1708TIP3   OH2 5066   4.603   4.107   0.621  0.0742  0.2658 -0.0380
 1708TIP3    H1 5067   4.620   4.013   0.626 -2.7799 -0.2131  3.0017
 1708TIP3    H2 5068   4.667   4.146   0.681 -1.9532 -0.3540  2.6506
 1709TIP3   OH2 5069   0.549   2.154   5.736 -0.1023  0.5320 -0.2195
 1709TIP3    H1 5070   0.582   2.064   5.731  0.4889  0.7174  0.3130
 1709TIP3    H2 5071   0.620   2.208   5.700  0.1736  0.9248  0.8856
 1710TIP3   OH2 5072   7.419   3.479   5.888 -0.3389  0.7343  0.1147
 1710TIP3    H1 5073   7.405   3.390   5.919 -1.0522  0.6939 -0.2985
 1710TIP3    H2 5074   7.338   3.502   5.843 -0.1317  1.5648  0.1452
 1711TIP3   OH2 5075   8.485   1.458   5.369  0.3267 -0.2832 -0.1905
 1711TIP3    H1 5076   8.391   1.440   5.378  0.0573  1.0027 -0.4533
 1711TIP3    H2 5077   8.498   1.542   5.413  0.8219  1.0063 -2.7415
 1712TIP3   OH2 5078   6.297   2.116   0.677  0.1533  0.0498  0.4898
 1712TIP3    H1 5079   6.224   2.106   0.738 -0.2265  0.3351  0.0759
 1712TIP3    H2 5080   6.267   2.077   0.596  0.9797 -1.0969  0.7289
 1713TIP3   OH2 5081   8.320   2.947   5.525  0.1133 -0.2546 -0.0666
 1713TIP3    H1 5082   8.233   2.940   5.564  1.1790 -0.8563  2.3192
 1713TIP3    H2 5083   8.340   3.041   5.528 -0.1400 -0.2046  0.0636
 1714TIP3   OH2 5084   4.528   0.345   0.834  0.0471 -0.0560  0.3379
 1714TIP3    H1 5085   4.541   0.298   0.752  0.0712 -1.2579  1.0129
 1714TIP3    H2 5086   4.559   0.284   0.901 -1.0894  0.4298  1.3245
 1715TIP3   OH2 5087   5.947   1.326   1.369 -0.1669 -0.3796 -0.2280
 1715TIP3    H1 5088   5.888   1.392   1.405  0.7462 -0.1486  0.8707
 1715TIP3    H2 5089   5.974   1.361   1.285  0.5716  0.8075  0.5016
 1716TIP3   OH2 5090   3.101   6.408   0.020  0.1319  0.4874  0.2953
 1716TIP3    H1 5091   3.173   6.442   0.073 -0.1484 -1.0290  1.6769
 1716TIP3    H2 5092   3.144   6.368  -0.055  0.7839 -0.9926  1.4457
 1717TIP3   OH2 5093   7.262   2.961   6.564  0.4316 -0.0549  0.1034
 1717TIP3    H1 5094   7.301   2.999   6.486  1.5748  0.0374  0.7124
 1717TIP3    H2 5095   7.270   3.030   6.631  0.2008 -0.4322  0.5261
 1718TIP3   OH2 5096   3.540   6.907   1.064  0.4925 -0.5018 -0.0193
 1718TIP3    H1 5097   3.621   6.872   1.101  2.3795  1.6973 -1.8866
 1718TIP3    H2 5098   3.513   6.976   1.125  0.4338 -0.7244  0.2088
 1719TIP3   OH2 5099   0.499   3.102   5.778  0.3600  0.0714  0.1947
 1719TIP3    H1 5100   0.481   3.080   5.870  0.9191 -1.3389 -0.0326
 1719TIP3    H2 5101   0.490   3.198   5.775  1.7491  0.2848  2.0363
 1720TIP3   OH2 5102   4.529   7.234   1.983  0.6750 -0.0046 -0.1094
 1720TIP3    H1 5103   4.536   7.244   2.078 -0.1802 -1.2846  0.1014
 1720TIP3    H2 5104   4.479   7.310   1.955  0.1051 -0.1078  0.5978
 1721TIP3   OH2 5105   0.623   1.880   5.788  0.0559 -0.0525 -0.5700
 1721TIP3    H1 5106   0.717   1.898   5.780  0.2255  0.0741  1.3494
 1721TIP3    H2 5107   0.616   1.785   5.788  0.4241 -0.0997  1.3836
 1722TIP3   OH2 5108   6.943   2.474   4.386 -0.3503 -0.0124 -0.3070
 1722TIP3    H1 5109   6.911   2.411   4.450 -0.7239  0.0963 -0.3913
 1722TIP3    H2 5110   7.022   2.432   4.350  0.4511  0.3939  0.9624
 1723TIP3   OH2 5111   0.356   1.707   6.478 -0.0576  0.1625 -0.8485
 1723TIP3    H1 5112   0.285   1.662   6.524  0.3404 -0.2348 -0.6206
 1723TIP3    H2 5113   0.432   1.651   6.492  0.7722  1.6225  0.6232
 1724TIP3   OH2 5114   7.208   7.609   6.421  0.5791 -0.4628  0.5521
 1724TIP3    H1 5115   7.242   7.697   6.435  1.9029 -1.1440  1.6850
 1724TIP3    H2 5116   7.286   7.553   6.417 -0.2748 -1.6702  0.4315
 1725TIP3   OH2 5117   5.448   0.556   1.361 -0.0652  0.2547 -0.2361
 1725TIP3    H1 5118   5.522   0.604   1.398 -0.7083 -0.0066  1.4547
 1725TIP3    H2 5119   5.372   0.611   1.380 -0.7522 -1.1599  1.2855
 1726TIP3   OH2 5120   2.210   3.608   5.593  0.2541 -0.2705 -0.2444
 1726TIP3    H1 5121   2.175   3.653   5.670 -0.8209 -1.8405  0.2078
 1726TIP3    H2 5122   2.133   3.578   5.545  0.9422 -0.5525 -1.1974
 1727TIP3   OH2 5123   0.499   3.733   5.030 -0.3982 -0.3436 -0.3065
 1727TIP3    H1 5124   0.563   3.682   5.081  1.6189  0.6176 -1.8018
 1727TIP3    H2 5125   0.427   3.672   5.015  0.3222 -1.5793  1.1198
 1728TIP3   OH2 5126   1.200   2.575   6.330 -0.0102 -0.0327 -0.2415
 1728TIP3    H1 5127   1.185   2.664   6.363 -1.0618 -0.3314  0.1036
 1728TIP3    H2 5128   1.123   2.556   6.277 -1.0175 -1.6890  1.7438
 1729TIP3   OH2 5129   6.710   3.967   6.894  0.1141 -0.7125 -0.0182
 1729TIP3    H1 5130   6.652   3.893   6.913  0.1147 -0.2430  1.9766
 1729TIP3    H2 5131   6.652   4.043   6.893  0.5272 -0.3821  0.8659
 1730TIP3   OH2 5132   3.184   7.176   0.987 -0.0490 -0.0267  0.4087
 1730TIP3    H1 5133   3.262   7.212   0.945 -1.1415  1.2102 -0.5954
 1730TIP3    H2 5134   3.183   7.217   1.074  0.2625  0.1626  0.3256
 1731TIP3   OH2 5135   8.415   3.770   6.797  0.2822 -0.3315 -0.5345
 1731TIP3    H1 5136   8.331   3.725   6.803  0.6947 -1.0445 -0.1112
 1731TIP3    H2 5137   8.422   3.796   6.705 -1.3731  1.6173 -0.1653
 1732TIP3   OH2 5138   3.902   1.246   1.652  0.3265  0.5978  0.1758
 1732TIP3    H1 5139   3.914   1.262   1.746 -1.1953  1.8290  0.2032
 1732TIP3    H2 5140   3.821   1.194   1.647 -0.0963  1.3061 -0.4854
 1733TIP3   OH2 5141   3.611   7.227   0.702 -0.2741  0.2071  0.1955
 1733TIP3    H1 5142   3.525   7.227   0.745 -1.1664 -0.8897 -1.5078
 1733TIP3    H2 5143   3.621   7.316   0.669 -1.2616  0.0698 -0.5134
 1734TIP3   OH2 5144   6.174   4.138   5.180 -0.0481 -0.0196  0.6229
 1734TIP3    H1 5145   6.206   4.067   5.125  0.4788  0.2729  0.5489
 1734TIP3    H2 5146   6.244   4.203   5.179 -1.0376  1.0519 -0.3188
 1735TIP3   OH2 5147   7.589   1.972   4.982 -0.3145  0.5428  0.1659
 1735TIP3    H1 5148   7.543   2.012   4.908  0.3854  0.2551 -0.4325
 1735TIP3    H2 5149   7.682   1.973   4.956 -0.1632 -0.4107  0.6366
 1736TIP3   OH2 5150   8.228   0.946   6.771  0.8294 -0.0007 -0.0026
 1736TIP3    H1 5151   8.179   0.896   6.706 -0.2537  0.0410  0.7655
 1736TIP3    H2 5152   8.196   1.036   6.761  1.0339  0.1002  0.2422
 1737TIP3   OH2 5153   5.058   0.608   1.153 -0.4975  0.1675 -0.7614
 1737TIP3    H1 5154   4.979   0.554   1.158 -0.3886  0.1351  1.1512
 1737TIP3    H2 5155   5.112   0.566   1.086 -0.8149 -1.5739  0.0554
 1738TIP3   OH2 5156   1.757   6.074   2.353 -0.2795 -0.0759  0.6713
 1738TIP3    H1 5157   1.816   6.123   2.410 -1.0018 -0.2537  1.5864
 1738TIP3    H2 5158   1.737   5.994   2.402 -0.1435 -0.6893 -0.2483
 1739TIP3   OH2 5159   6.644   0.680   0.885  0.1780  0.2163  0.4203
 1739TIP3    H1 5160   6.715   0.741   0.866 -0.6594  1.3077  0.7503
 1739TIP3    H2 5161   6.564   0.733   0.881 -0.5204 -0.7399  1.2150
 1740TIP3   OH2 5162   1.894   7.891   1.397  0.4159  0.6304  0.3718
 1740TIP3    H1 5163   1.938   7.973   1.374 -0.0350  0.6361 -0.5044
 1740TIP3    H2 5164   1.959   7.823   1.377 -0.1342  0.6017 -1.4355
 1741TIP3   OH2 5165   0.746   4.582   4.279 -0.6997  0.4489 -0.1121
 1741TIP3    H1 5166   0.679   4.527   4.320 -1.0623  1.0146  0.0571
 1741TIP3    H2 5167   0.770   4.646   4.346  0.8594 -0.4585  0.2294
 1742TIP3   OH2 5168   1.535   5.693   0.602  0.6477  0.1169  0.3314
 1742TIP3    H1 5169   1.451   5.679   0.645  1.1508 -1.6691  0.7737
 1742TIP3    H2 5170   1.586   5.743   0.666  0.9774 -1.4905  1.3637
 1743TIP3   OH2 5171   8.461   3.859   6.364  0.1579 -0.2135  0.4174
 1743TIP3    H1 5172   8.547   3.821   6.378  1.0233  1.3372 -0.5187
 1743TIP3    H2 5173   8.478   3.952   6.347 -1.6825  0.1050  0.1598
 1744TIP3   OH2 5174   0.393   3.624   5.314  0.9309 -0.7632 -0.4241
 1744TIP3    H1 5175   0.419   3.534   5.330  1.0894 -0.4752  0.9653
 1744TIP3    H2 5176   0.394   3.666   5.400  0.3718  0.4373 -0.9801
 1745TIP3   OH2 5177   5.177   1.032   0.957  0.3287  0.1566 -0.1623
 1745TIP3    H1 5178   5.097   0.997   0.995 -0.2204  0.8592 -0.6566
 1745TIP3    H2 5179   5.198   1.108   1.013  0.7711 -0.1611  0.1020
 1746TIP3   OH2 5180   0.202   3.776   6.449  0.2234 -0.5056 -1.0519
 1746TIP3    H1 5181   0.206   3.840   6.520  3.2350 -1.2583 -0.4658
 1746TIP3    H2 5182   0.243   3.697   6.486  0.7028 -1.3022 -3.2133
 1747TIP3   OH2 5183   0.091   2.475   5.111  0.4175  0.0181  0.1436
 1747TIP3    H1 5184  -0.004   2.461   5.110  0.4532 -0.3788  1.6749
 1747TIP3    H2 5185   0.100   2.570   5.103 -0.0676 -0.0106 -0.9564
 1748TIP3   OH2 5186   2.652   5.721   0.258 -0.1742  0.2959 -0.6627
 1748TIP3    H1 5187   2.652   5.629   0.230  1.4960  0.3365 -0.8483
 1748TIP3    H2 5188   2.597   5.722   0.336 -0.1894 -0.8724 -0.6455
 1749TIP3   OH2 5189   3.437   5.590   0.228  0.1283  0.1464 -0.3521
 1749TIP3    H1 5190   3.364   5.531   0.247 -1.3844  1.5914 -1.5075
 1749TIP3    H2 5191   3.423   5.665   0.285  1.3796 -0.0775  0.2616
 1750TIP3   OH2 5192   6.615   0.267   0.933  0.0739  0.2823 -0.4082
 1750TIP3    H1 5193   6.657   0.287   1.017 -1.3229 -0.3480  0.4672
 1750TIP3    H2 5194   6.640   0.339   0.875 -0.2979  1.6134  1.0445
 1751TIP3   OH2 5195   1.759   2.758   6.681  0.1670 -0.3820  0.3009
 1751TIP3    H1 5196   1.778   2.817   6.754  0.2224 -0.7911  0.6237
 1751TIP3    H2 5197   1.826   2.690   6.687  1.9422  1.1272 -1.8840
 1752TIP3   OH2 5198   5.251   8.019   0.406  0.4913  0.0674 -1.0220
 1752TIP3    H1 5199   5.344   8.000   0.393  0.8014  0.8878 -0.0149
 1752TIP3    H2 5200   5.206   7.938   0.382  1.4256 -0.1644 -2.0168
 1753TIP3   OH2 5201   0.994   6.141   0.360 -0.2773 -0.4837 -0.7878
 1753TIP3    H1 5202   0.928   6.207   0.379 -1.1688 -1.5278 -0.1997
 1753TIP3    H2 5203   1.077   6.187   0.368 -0.8938  0.5868 -0.4585
 1754TIP3   OH2 5204   3.191   6.006   0.206  0.1828 -0.0014 -0.2121
 1754TIP3    H1 5205   3.104   6.017   0.168  0.4468 -1.2236 -1.2027
 1754TIP3    H2 5206   3.179   6.022   0.300 -1.2391 -0.8219 -0.2435
 1755TIP3   OH2 5207   2.765   5.891   0.777  0.1749  0.6533 -0.1810
 1755TIP3    H1 5208   2.831   5.851   0.834 -0.6265 -0.4107  0.0121
 1755TIP3    H2 5209   2.810   5.903   0.693 -0.0267 -2.2247 -0.7638
 1756TIP3   OH2 5210   5.579   1.072   1.575  0.2523 -0.2112 -0.5839
 1756TIP3    H1 5211   5.650   1.098   1.635  0.8799 -0.6099 -1.1493
 1756TIP3    H2 5212   5.502   1.067   1.631  0.7301 -0.0612  0.1014
 1757TIP3   OH2 5213   5.498   0.597   0.379 -0.4097 -0.4453 -0.5609
 1757TIP3    H1 5214   5.439   0.541   0.328  0.6347  0.5254 -2.8994
 1757TIP3    H2 5215   5.462   0.685   0.370  1.3510  0.1424 -1.9455
 1758TIP3   OH2 5216   0.165   7.098   1.027 -0.0554  0.7109 -0.3186
 1758TIP3    H1 5217   0.074   7.127   1.015  0.4014  2.3446  0.0762
 1758TIP3    H2 5218   0.205   7.165   1.083  1.5265  0.2475 -0.8615
 1759TIP3   OH2 5219   0.836   4.350   0.582  0.0966 -0.7968 -0.1084
 1759TIP3    H1 5220   0.847   4.275   0.641  0.0170 -0.5537  0.2210
 1759TIP3    H2 5221   0.922   4.363   0.543  0.4699 -0.1763  0.9045
 1760TIP3   OH2 5222   1.150   4.123   5.522 -0.4630 -0.1776  0.2542
 1760TIP3    H1 5223   1.064   4.151   5.555 -0.9684 -0.2139 -1.0101
 1760TIP3    H2 5224   1.133   4.039   5.480  0.2509 -0.3113  0.2314
 1761TIP3   OH2 5225   1.366   4.933   1.248 -0.6351 -0.2823 -0.9689
 1761TIP3    H1 5226   1.388   4.847   1.214 -0.3925 -0.3872 -0.5506
 1761TIP3    H2 5227   1.285   4.957   1.203 -2.1134 -1.8288  0.7730
 1762TIP3   OH2 5228   1.707   2.496   6.129  0.0692 -0.3800 -0.6110
 1762TIP3    H1 5229   1.654   2.570   6.158  0.4172  0.4175 -1.9766
 1762TIP3    H2 5230   1.737   2.520   6.041 -0.3163 -2.4147 -1.3290
 1763TIP3   OH2 5231   3.022   6.306   0.381  0.0102  0.1428 -0.4371
 1763TIP3    H1 5232   3.109   6.345   0.373  0.2914 -0.8132 -2.1885
 1763TIP3    H2 5233   3.038   6.215   0.405 -0.5681  0.3000  0.6109
 1764TIP3   OH2 5234   5.775   0.422   2.581  0.6334 -0.4911 -0.2499
 1764TIP3    H1 5235   5.841   0.489   2.602  0.6420 -1.2197  2.1364
 1764TIP3    H2 5236   5.794   0.350   2.641 -0.3967 -1.9912 -1.6872
 1765TIP3   OH2 5237   3.714   6.317   0.238  0.0550  0.1969 -0.0640
 1765TIP3    H1 5238   3.641   6.261   0.210 -0.2514  1.0641 -1.0317
 1765TIP3    H2 5239   3.791   6.277   0.198  0.0728 -0.5027  0.6465
 1766TIP3   OH2 5240   8.398   2.988   4.807 -0.2917  0.2132 -0.2085
 1766TIP3    H1 5241   8.351   2.982   4.724  2.3184 -1.1087 -1.6479
 1766TIP3    H2 5242   8.417   2.897   4.830  0.8843  0.6855  0.7310
 1767TIP3   OH2 5243   7.562   1.302   6.790 -0.0479  0.2850 -0.2211
 1767TIP3    H1 5244   7.509   1.377   6.819  0.5369  0.7592 -0.3670
 1767TIP3    H2 5245   7.498   1.237   6.763 -0.5882  0.3035  0.9725
 1768TIP3   OH2 5246   1.774   6.679   0.832 -0.4028  0.1198  0.1509
 1768TIP3    H1 5247   1.780   6.586   0.852 -2.1404  0.4154  2.3208
 1768TIP3    H2 5248   1.841   6.719   0.887 -1.5084  0.3970  1.3231
 1769TIP3   OH2 5249   3.363   7.680   0.029  0.2335  0.2317 -0.1849
 1769TIP3    H1 5250   3.321   7.741   0.090  0.0265  1.8855 -1.9626
 1769TIP3    H2 5251   3.296   7.612   0.014  0.7753 -0.9462  2.4636
 1770TIP3   OH2 5252   2.862   7.167   1.807 -0.1952 -0.8075  0.0442
 1770TIP3    H1 5253   2.952   7.137   1.790  0.4405  0.0920  1.7170
 1770TIP3    H2 5254   2.813   7.086   1.822  0.3867 -1.2931 -0.6154
 1771TIP3   OH2 5255   3.344   7.793   0.407 -0.0705  0.0683  0.0398
 1771TIP3    H1 5256   3.297   7.813   0.326 -0.7195 -0.3022  0.3268
 1771TIP3    H2 5257   3.380   7.705   0.394  1.4211  0.7456 -0.5823
 1772TIP3   OH2 5258   4.451   6.534   1.154 -0.4333 -0.5477 -0.3686
 1772TIP3    H1 5259   4.538   6.548   1.117 -0.6672 -1.3455 -1.2102
 1772TIP3    H2 5260   4.399   6.499   1.082 -2.0577  1.9982 -0.4749
 1773TIP3   OH2 5261   6.997   0.504   2.016 -0.2893 -0.5420  0.0368
 1773TIP3    H1 5262   7.077   0.477   1.971  0.0861  0.1147  0.3207
 1773TIP3    H2 5263   6.991   0.598   2.001 -1.4439 -0.7189 -0.6784
 1774TIP3   OH2 5264   3.975   7.225   0.599 -0.1421 -0.6433  0.0425
 1774TIP3    H1 5265   3.932   7.303   0.566  0.2911 -0.8904 -1.1577
 1774TIP3    H2 5266   3.913   7.186   0.661 -0.6946  0.2036  0.0186
 1775TIP3   OH2 5267   0.330   1.910   5.553  0.0841 -0.1491  0.2040
 1775TIP3    H1 5268   0.318   1.976   5.485 -0.5736 -0.3163  0.1594
 1775TIP3    H2 5269   0.416   1.872   5.534 -0.7682 -1.2728 -1.4694
 1776TIP3   OH2 5270   0.974   3.930   5.132  0.1093  0.5994 -0.2347
 1776TIP3    H1 5271   0.981   3.970   5.219  1.6960  2.8788 -1.3678
 1776TIP3    H2 5272   0.885   3.947   5.104  0.4509  2.4573 -0.2499
 1777TIP3   OH2 5273   1.389   3.389   5.307 -0.3705 -0.4106 -0.3146
 1777TIP3    H1 5274   1.414   3.385   5.399  1.1637  1.7573 -0.5953
 1777TIP3    H2 5275   1.415   3.304   5.271  2.4078  0.0618  0.4681
 1778TIP3   OH2 5276   3.574   7.376   0.245  0.0289 -0.0140 -0.0144
 1778TIP3    H1 5277   3.580   7.347   0.154  0.7627 -0.1072  0.0560
 1778TIP3    H2 5278   3.638   7.446   0.252  0.1415 -0.1661  0.4909
 1779TIP3   OH2 5279   6.196   0.351   1.433 -0.4646 -0.0069 -0.6858
 1779TIP3    H1 5280   6.228   0.265   1.457 -3.2350 -1.1472 -0.8464
 1779TIP3    H2 5281   6.265   0.389   1.379  1.6203 -1.3122  0.9794
 1780TIP3   OH2 5282   3.036   0.383   3.854  0.5419 -0.7973  0.1808
 1780TIP3    H1 5283   2.965   0.412   3.797 -1.7746 -1.3773  2.6634
 1780TIP3    H2 5284   3.116   0.405   3.806 -1.2768  1.0550 -2.1189
 1781TIP3   OH2 5285   4.726   7.676   3.551  0.4127  0.6113  0.6331
 1781TIP3    H1 5286   4.667   7.700   3.622 -0.0258  0.8538  0.1789
 1781TIP3    H2 5287   4.813   7.704   3.582  0.6756 -1.8940  2.3528
 1782TIP3   OH2 5288   5.205   4.570   0.176 -0.9460 -0.0681 -0.3296
 1782TIP3    H1 5289   5.232   4.593   0.087  1.8100  0.9563  0.7386
 1782TIP3    H2 5290   5.191   4.654   0.220 -1.6309 -0.5684  0.4289
 1783TIP3   OH2 5291   3.602   0.600   2.095  0.2746 -0.7757 -0.4210
 1783TIP3    H1 5292   3.653   0.549   2.033  0.0283 -0.4665 -0.8853
 1783TIP3    H2 5293   3.549   0.536   2.142  0.1487 -0.9711 -0.8306
 1784TIP3   OH2 5294   6.910   7.389   5.820  0.0195  0.9601 -0.3446
 1784TIP3    H1 5295   6.828   7.342   5.805 -0.9462  2.0504  1.3669
 1784TIP3    H2 5296   6.939   7.359   5.906  1.4989  0.4899 -0.9893
 1785TIP3   OH2 5297   7.337   6.905   1.699  0.0456  0.3009  0.1273
 1785TIP3    H1 5298   7.348   6.810   1.713 -2.0836 -0.4167 -2.6771
 1785TIP3    H2 5299   7.364   6.919   1.609 -1.2293  2.0794  0.0031
 1786TIP3   OH2 5300   1.294   0.552   3.265  0.3213 -0.5166 -0.4337
 1786TIP3    H1 5301   1.270   0.619   3.201  0.8143 -1.2006 -1.3576
 1786TIP3    H2 5302   1.291   0.597   3.349  3.8856  1.6299 -1.3224
 1787TIP3   OH2 5303   6.269   7.372   5.262 -0.0687  0.1594  0.2974
 1787TIP3    H1 5304   6.357   7.336   5.256  0.3929  0.7683  2.7682
 1787TIP3    H2 5305   6.280   7.457   5.305 -1.5195  1.7201 -2.2551
 1788TIP3   OH2 5306   7.328   6.404   5.824 -0.2806 -0.1527 -0.1761
 1788TIP3    H1 5307   7.246   6.358   5.845  0.0986 -1.5831 -1.7136
 1788TIP3    H2 5308   7.386   6.384   5.897 -0.7244 -0.5805  0.0674
 1789TIP3   OH2 5309   3.247   0.753   6.517 -0.2687 -0.0062  0.4499
 1789TIP3    H1 5310   3.285   0.666   6.504  0.2975  0.5010 -1.5090
 1789TIP3    H2 5311   3.159   0.735   6.551 -0.1635 -1.3611  0.0561
 1790TIP3   OH2 5312   0.850   0.226   5.663  0.4144  0.1928 -0.3900
 1790TIP3    H1 5313   0.837   0.263   5.750 -1.1332  1.1894 -1.0139
 1790TIP3    H2 5314   0.922   0.277   5.625 -0.1174  0.9842 -0.3524
 1791TIP3   OH2 5315   6.502   7.620   0.903  0.1837  0.8247 -0.3851
 1791TIP3    H1 5316   6.497   7.534   0.944  0.1843  1.4777  1.0214
 1791TIP3    H2 5317   6.515   7.602   0.810  1.1300 -0.6772  0.0260
 1792TIP3   OH2 5318   2.478   0.987   4.599 -0.3876 -0.3544  0.2097
 1792TIP3    H1 5319   2.446   1.017   4.514  2.3591 -1.6018 -1.3334
 1792TIP3    H2 5320   2.549   1.048   4.620 -0.5270 -0.5401  1.2579
 1793TIP3   OH2 5321   0.384   7.719   4.944  0.2302 -0.9268  0.1718
 1793TIP3    H1 5322   0.443   7.651   4.913  0.3454 -0.6119 -0.3079
 1793TIP3    H2 5323   0.415   7.799   4.901  1.1313 -0.2523  2.0088
 1794TIP3   OH2 5324   2.566   1.227   3.222 -0.3366 -0.1205 -0.3706
 1794TIP3    H1 5325   2.587   1.165   3.153  0.8793  1.5613 -1.5411
 1794TIP3    H2 5326   2.505   1.288   3.181  0.2396  0.7709  0.0967
 1795TIP3   OH2 5327   2.520   0.824   3.401  0.2046  0.4062  0.0841
 1795TIP3    H1 5328   2.569   0.770   3.339 -0.9228 -2.1658  1.3462
 1795TIP3    H2 5329   2.580   0.836   3.475  0.2030  0.2784  0.1070
 1796TIP3   OH2 5330   1.458   0.431   0.981  0.1714 -0.3504 -0.1872
 1796TIP3    H1 5331   1.534   0.403   1.031  0.3215  0.3422 -0.0249
 1796TIP3    H2 5332   1.442   0.521   1.009 -1.1798 -0.7408  0.3436
 1797TIP3   OH2 5333   8.262   0.475   3.527 -0.0742 -0.5604 -0.1003
 1797TIP3    H1 5334   8.292   0.501   3.614  0.9185  0.3403 -0.7046
 1797TIP3    H2 5335   8.169   0.456   3.539  0.7468 -3.6310  1.8470
 1798TIP3   OH2 5336   2.118   1.803   2.120  0.8585 -0.3948  0.0511
 1798TIP3    H1 5337   2.198   1.818   2.069  0.7551  0.2057  0.0632
 1798TIP3    H2 5338   2.076   1.889   2.124  1.5315 -0.1489  2.2872
 1799TIP3   OH2 5339   7.561   7.570   4.372  0.5788  0.1130  0.0504
 1799TIP3    H1 5340   7.500   7.621   4.425  0.0656 -1.1532  0.6908
 1799TIP3    H2 5341   7.613   7.520   4.435  0.6310 -0.6516 -0.5841
 1800TIP3   OH2 5342   8.150   7.591   4.428 -0.2111 -0.1537  0.0340
 1800TIP3    H1 5343   8.124   7.518   4.484  0.3753  0.4002  1.0526
 1800TIP3    H2 5344   8.143   7.668   4.484 -1.2209  0.6402 -1.1471
 1801TIP3   OH2 5345   3.559   0.531   3.659  0.2464 -0.1709  0.4466
 1801TIP3    H1 5346   3.627   0.484   3.706  0.9635  1.0667  0.6680
 1801TIP3    H2 5347   3.564   0.620   3.694  0.0717  0.4941 -1.2238
 1802TIP3   OH2 5348   6.859   7.238   1.354  0.0546 -0.5134  0.0116
 1802TIP3    H1 5349   6.911   7.274   1.426  3.6283  0.6849 -3.0336
 1802TIP3    H2 5350   6.912   7.167   1.318 -1.5774 -0.9923 -1.5471
 1803TIP3   OH2 5351   3.392   1.570   1.719 -0.5875 -0.5335 -0.2063
 1803TIP3    H1 5352   3.460   1.539   1.659 -0.6207  0.3173 -0.6890
 1803TIP3    H2 5353   3.434   1.642   1.767 -1.7647  1.3788 -1.9509
 1804TIP3   OH2 5354   1.028   0.663   5.802  0.3140  0.7361 -0.4100
 1804TIP3    H1 5355   1.022   0.749   5.845  1.4216  0.3086  0.6556
 1804TIP3    H2 5356   0.939   0.629   5.804  0.1330  1.2326  0.5294
 1805TIP3   OH2 5357   1.004   1.070   4.041 -0.3724 -0.0423  0.3180
 1805TIP3    H1 5358   1.047   0.987   4.062 -1.5369  0.0373  3.1984
 1805TIP3    H2 5359   0.938   1.047   3.976  1.1295 -0.8665 -0.9780
 1806TIP3   OH2 5360   3.619   3.675   0.300  0.0792  0.3344 -0.4968
 1806TIP3    H1 5361   3.651   3.586   0.313  0.7166  0.7726  1.0322
 1806TIP3    H2 5362   3.697   3.725   0.274  0.0232  0.7516  0.1298
 1807TIP3   OH2 5363   0.723   7.395   4.985 -0.1701  0.4615  0.2650
 1807TIP3    H1 5364   0.656   7.392   4.917  0.4470  0.9236 -0.3603
 1807TIP3    H2 5365   0.738   7.488   5.000 -1.8549  0.4088  2.5622
 1808TIP3   OH2 5366   7.977   7.083   5.124  0.1356  0.3943  0.0173
 1808TIP3    H1 5367   7.894   7.115   5.087  0.0151  0.8223  0.6465
 1808TIP3    H2 5368   8.016   7.160   5.165 -0.0893 -0.2238  1.4144
 1809TIP3   OH2 5369   7.788   7.185   5.653 -0.1195 -0.2093 -0.3139
 1809TIP3    H1 5370   7.873   7.150   5.677  0.0222  0.1032 -0.3557
 1809TIP3    H2 5371   7.750   7.217   5.735  0.1177  0.3222 -0.4069
 1810TIP3   OH2 5372   7.695   7.138   6.179 -0.0959 -0.5184  0.2810
 1810TIP3    H1 5373   7.693   7.169   6.270 -0.7581 -1.4893  0.6084
 1810TIP3    H2 5374   7.609   7.162   6.144 -0.8088 -2.3822  0.6852
 1811TIP3   OH2 5375   6.181   6.521   1.158  0.2978  0.6968  0.4143
 1811TIP3    H1 5376   6.190   6.532   1.253 -0.0262  0.9837  0.4116
 1811TIP3    H2 5377   6.088   6.503   1.144  0.1087  1.9606  0.0222
 1812TIP3   OH2 5378   3.723   1.404   2.118  0.4163  0.1105  0.3019
 1812TIP3    H1 5379   3.683   1.384   2.203  0.1148 -1.8597 -0.2695
 1812TIP3    H2 5380   3.705   1.326   2.065  2.4366  0.4248 -0.8960
 1813TIP3   OH2 5381   6.130   6.527   3.736 -0.5237  0.8741 -0.1683
 1813TIP3    H1 5382   6.183   6.468   3.682 -1.4001 -0.5825  0.5394
 1813TIP3    H2 5383   6.193   6.574   3.789  0.1558  0.1557 -0.3328
 1814TIP3   OH2 5384   1.040   1.021   2.441 -0.2607 -0.7330  0.0466
 1814TIP3    H1 5385   1.048   1.116   2.449  0.8960 -0.7623 -0.6467
 1814TIP3    H2 5386   0.971   0.997   2.503 -1.2242  0.6691 -0.4548
 1815TIP3   OH2 5387   7.628   7.206   3.229  0.2716  0.3116 -0.1146
 1815TIP3    H1 5388   7.542   7.166   3.243  0.7176 -0.1133  1.4658
 1815TIP3    H2 5389   7.659   7.229   3.316  2.0214 -0.0512 -0.6154
 1816TIP3   OH2 5390   0.666   1.741   5.232  0.1453 -0.5988  0.3978
 1816TIP3    H1 5391   0.654   1.810   5.166  0.3027  0.4296  1.4216
 1816TIP3    H2 5392   0.652   1.660   5.184  0.3476  0.1249 -0.9270
 1817TIP3   OH2 5393   2.720   0.046   3.994  0.0970 -0.1554  0.3282
 1817TIP3    H1 5394   2.788   0.114   4.004 -1.3587  1.5928 -1.1689
 1817TIP3    H2 5395   2.683   0.037   4.081  1.8159 -0.6908  1.0396
 1818TIP3   OH2 5396   4.041   0.350   0.703 -0.6406  0.5556 -0.8199
 1818TIP3    H1 5397   3.981   0.412   0.743 -1.3469 -0.3558 -0.4397
 1818TIP3    H2 5398   3.997   0.265   0.713  1.2409 -0.2883  0.5136
 1819TIP3   OH2 5399   0.276   6.399   3.235 -0.2867  0.0087  0.2705
 1819TIP3    H1 5400   0.305   6.363   3.319 -1.2852  0.3087  0.7581
 1819TIP3    H2 5401   0.211   6.336   3.203 -0.7036  0.4390  0.2553
 1820TIP3   OH2 5402   1.003   1.738   4.384 -0.6984  0.4121  0.7657
 1820TIP3    H1 5403   0.917   1.777   4.402 -0.6044 -0.1994  2.6847
 1820TIP3    H2 5404   1.020   1.682   4.460  1.6022  0.8740  0.6256
 1821TIP3   OH2 5405   8.108   7.343   4.560  0.6690 -0.0030  0.4005
 1821TIP3    H1 5406   8.037   7.281   4.574  0.8905 -0.5585 -0.8045
 1821TIP3    H2 5407   8.178   7.313   4.619  0.6257 -0.6704  0.1242
 1822TIP3   OH2 5408   0.705   1.202   2.828  0.2401  0.5001 -0.5686
 1822TIP3    H1 5409   0.617   1.233   2.805 -0.0687 -0.4810 -0.7565
 1822TIP3    H2 5410   0.742   1.171   2.745  0.0382 -0.8276 -0.1742
 1823TIP3   OH2 5411   2.309   1.889   3.232 -0.0632 -0.4907 -0.0056
 1823TIP3    H1 5412   2.385   1.912   3.179 -0.6024  2.2767  0.3130
 1823TIP3    H2 5413   2.345   1.870   3.318  0.2336  2.0870  0.4989
 1824TIP3   OH2 5414   2.213   0.373   1.725  0.1724 -0.1445  0.0425
 1824TIP3    H1 5415   2.298   0.328   1.729  0.8831  1.0617 -1.0051
 1824TIP3    H2 5416   2.150   0.307   1.753  1.2914 -1.5457 -0.6339
 1825TIP3   OH2 5417   2.973   0.024   1.488 -0.4765  0.4196  0.0222
 1825TIP3    H1 5418   2.879   0.013   1.502 -0.9442  1.3133 -2.1450
 1825TIP3    H2 5419   2.983   0.021   1.393  1.6733  0.5096  0.2276
 1826TIP3   OH2 5420   3.501   0.139   4.527  0.4352  0.1061 -0.5944
 1826TIP3    H1 5421   3.575   0.200   4.532  0.6707 -0.2899  1.0222
 1826TIP3    H2 5422   3.430   0.191   4.489  1.1484  0.8752 -0.9027
 1827TIP3   OH2 5423   0.152   7.099   2.339 -0.0857  0.0183  0.1812
 1827TIP3    H1 5424   0.227   7.085   2.281 -0.8379 -2.6652 -0.2262
 1827TIP3    H2 5425   0.098   7.164   2.294  0.3779 -0.4877 -1.1228
 1828TIP3   OH2 5426   0.052   7.738   2.729  0.1956  0.7926 -0.2444
 1828TIP3    H1 5427   0.086   7.748   2.640  0.4577 -0.2154 -0.2666
 1828TIP3    H2 5428   0.096   7.660   2.763 -2.2579 -0.7108 -0.3666
 1829TIP3   OH2 5429   7.639   6.949   0.417 -0.2578  0.2951  0.6540
 1829TIP3    H1 5430   7.651   6.878   0.480  0.3729 -0.1971 -0.0176
 1829TIP3    H2 5431   7.561   6.923   0.367  2.3591 -2.0895 -2.4292
 1830TIP3   OH2 5432   3.517   1.285   5.060 -0.0183 -0.2097  0.0606
 1830TIP3    H1 5433   3.563   1.351   5.009  0.8848 -0.6567  0.2830
 1830TIP3    H2 5434   3.564   1.204   5.042 -0.9139 -0.7380  0.0534
 1831TIP3   OH2 5435   0.856   6.367   5.491  0.1654 -0.2874 -0.2303
 1831TIP3    H1 5436   0.949   6.378   5.473  0.6260  0.6570  2.4042
 1831TIP3    H2 5437   0.812   6.406   5.416  1.8996  0.1477 -1.0409
 1832TIP3   OH2 5438   1.834   0.455   1.939  0.1034 -0.3352  0.7970
 1832TIP3    H1 5439   1.876   0.533   1.977  0.2388  0.8808 -1.7813
 1832TIP3    H2 5440   1.782   0.419   2.012  1.9098  0.7842  2.6975
 1833TIP3   OH2 5441   7.738   6.959   4.018  0.0594 -0.5778  0.4128
 1833TIP3    H1 5442   7.738   6.898   4.091  1.8127 -1.3496 -0.1936
 1833TIP3    H2 5443   7.800   6.921   3.955 -0.2142  0.8792 -0.7718
 1834TIP3   OH2 5444   1.978   1.248   2.711 -0.5792  0.0480  0.1928
 1834TIP3    H1 5445   2.055   1.305   2.721 -1.1484  0.8581 -0.0270
 1834TIP3    H2 5446   2.014   1.159   2.713  0.3607  0.4210  0.1443
 1835TIP3   OH2 5447   1.436   1.748   2.002  0.4664  0.1054  0.0301
 1835TIP3    H1 5448   1.529   1.740   1.981  0.7712  0.6565  1.1352
 1835TIP3    H2 5449   1.397   1.667   1.969  1.0568  0.5662 -1.8962
 1836TIP3   OH2 5450   8.004   7.741   0.268  0.1866  0.1416  0.1154
 1836TIP3    H1 5451   7.923   7.730   0.318  0.7262  0.7341  1.1448
 1836TIP3    H2 5452   8.023   7.654   0.233  0.6059 -0.6409  2.2207
 1837TIP3   OH2 5453   2.865   0.575   4.082  0.0149  0.7803 -0.0721
 1837TIP3    H1 5454   2.917   0.590   4.161 -0.1355  0.9580 -0.0058
 1837TIP3    H2 5455   2.923   0.599   4.010  0.7162 -0.8981 -0.1066
 1838TIP3   OH2 5456   7.373   7.425   2.964 -0.1548 -0.0852  0.1608
 1838TIP3    H1 5457   7.383   7.509   2.919 -1.6441  0.9708  1.7276
 1838TIP3    H2 5458   7.374   7.360   2.894  0.7665  1.2561 -1.1010
 1839TIP3   OH2 5459   7.028   7.069   1.526  0.0348  0.0604 -0.2091
 1839TIP3    H1 5460   7.116   7.100   1.548 -0.3320  0.4180  0.7996
 1839TIP3    H2 5461   6.996   7.030   1.607 -0.0460 -1.7323 -1.0852
 1840TIP3   OH2 5462   3.141   2.002   2.817 -0.2498  0.2840  0.7374
 1840TIP3    H1 5463   3.078   1.943   2.775  0.7487  0.6685 -1.3885
 1840TIP3    H2 5464   3.123   2.088   2.779  0.7960  0.6195  0.9900
 1841TIP3   OH2 5465   3.984   0.934   3.060 -0.1972 -0.2458  0.0429
 1841TIP3    H1 5466   3.911   0.955   3.118  0.7371 -0.9316  1.5003
 1841TIP3    H2 5467   4.054   0.906   3.119  1.8910  2.2445 -1.1678
 1842TIP3   OH2 5468   1.945   0.426   2.894 -0.2938  0.0014 -0.0457
 1842TIP3    H1 5469   1.911   0.340   2.871 -0.5266  0.3127 -0.8998
 1842TIP3    H2 5470   1.901   0.449   2.976 -0.9845 -0.2665 -0.3401
 1843TIP3   OH2 5471   7.247   7.311   4.065 -0.3563 -0.5857 -0.2125
 1843TIP3    H1 5472   7.196   7.247   4.115 -2.2693  0.3903 -0.8858
 1843TIP3    H2 5473   7.325   7.327   4.119 -0.1759 -2.9309  0.2975
 1844TIP3   OH2 5474   4.212   1.112   1.487 -0.2580  1.1145  0.5695
 1844TIP3    H1 5475   4.235   1.174   1.417 -1.0756  1.8906  0.9868
 1844TIP3    H2 5476   4.242   1.155   1.567 -1.1252  1.1216  0.8947
 1845TIP3   OH2 5477   3.111   1.421   3.373  0.4574  0.3125 -0.4699
 1845TIP3    H1 5478   3.148   1.500   3.411 -2.3842  0.0926  3.0076
 1845TIP3    H2 5479   3.146   1.350   3.427 -1.2490 -0.3025 -0.1630
 1846TIP3   OH2 5480   1.716   2.251   3.185  0.2304  0.5360 -0.2871
 1846TIP3    H1 5481   1.778   2.279   3.117 -2.9823  2.7688 -2.4762
 1846TIP3    H2 5482   1.688   2.164   3.157  3.1824 -1.0228  1.3828
 1847TIP3   OH2 5483   5.185   2.509   6.222 -0.2575 -0.1151 -0.3730
 1847TIP3    H1 5484   5.184   2.516   6.126 -0.3885  0.9233 -0.3013
 1847TIP3    H2 5485   5.135   2.584   6.252 -0.0289 -0.3147  0.5277
 1848TIP3   OH2 5486   0.605   7.185   6.522  0.0757 -0.2010 -0.0719
 1848TIP3    H1 5487   0.600   7.215   6.613 -0.9266 -0.7595  0.0584
 1848TIP3    H2 5488   0.529   7.129   6.511 -0.1717  0.3917 -1.4622
 1849TIP3   OH2 5489   3.095   0.833   1.183 -0.8631 -0.2343 -0.2028
 1849TIP3    H1 5490   3.156   0.801   1.117  1.1013  3.1723 -0.1412
 1849TIP3    H2 5491   3.009   0.827   1.142 -0.2319 -2.6133 -1.2658
 1850TIP3   OH2 5492   0.755   6.723   2.581  0.1698 -0.3039 -0.0467
 1850TIP3    H1 5493   0.691   6.670   2.629 -0.7280 -0.2830 -1.2043
 1850TIP3    H2 5494   0.716   6.736   2.495  1.5880  0.0015 -0.6592
 1851TIP3   OH2 5495   8.170   7.884   1.692 -0.3247 -0.3623 -0.0112
 1851TIP3    H1 5496   8.110   7.823   1.649 -0.1590 -0.3260 -0.2998
 1851TIP3    H2 5497   8.117   7.927   1.759 -0.5507 -0.5241 -0.0850
 1852TIP3   OH2 5498   0.090   1.913   2.431 -0.8712 -0.0653  0.1932
 1852TIP3    H1 5499   0.050   1.971   2.497 -0.4201  0.5180 -0.0421
 1852TIP3    H2 5500   0.177   1.893   2.466 -0.9836 -0.5120  0.2186
 1853TIP3   OH2 5501   1.856   0.208   2.383 -0.2233  0.0523 -0.4032
 1853TIP3    H1 5502   1.865   0.141   2.452 -0.0410 -0.5268 -0.9821
 1853TIP3    H2 5503   1.767   0.198   2.351 -0.7988  1.3054  0.7377
 1854TIP3   OH2 5504   5.330   5.006  -0.002  0.2182 -0.2177 -0.1005
 1854TIP3    H1 5505   5.392   4.953   0.048  0.1395 -1.6235 -1.4492
 1854TIP3    H2 5506   5.368   5.094  -0.002  2.4554 -1.1366 -1.2473
 1855TIP3   OH2 5507   7.866   7.931   6.476 -0.5856  0.2328 -0.5195
 1855TIP3    H1 5508   7.956   7.958   6.457 -0.8903  0.3470 -1.8715
 1855TIP3    H2 5509   7.836   7.892   6.394 -0.9572 -2.0401  0.6537
 1856TIP3   OH2 5510   2.315   0.225   3.787 -0.2813 -0.4965  0.2779
 1856TIP3    H1 5511   2.257   0.258   3.855  1.7038  1.9759  0.8500
 1856TIP3    H2 5512   2.369   0.159   3.830 -0.4044 -0.4082  0.5643
 1857TIP3   OH2 5513   1.995   0.770   0.919  0.0724 -0.0934  0.3574
 1857TIP3    H1 5514   1.997   0.864   0.936  2.1006  0.2918 -1.8532
 1857TIP3    H2 5515   1.957   0.762   0.831  0.4775 -1.3112  0.2912
 1858TIP3   OH2 5516   1.342   1.476   2.733 -0.2024  0.0614 -0.6145
 1858TIP3    H1 5517   1.364   1.423   2.657  1.0403 -1.7334  0.9452
 1858TIP3    H2 5518   1.401   1.552   2.727  0.6204 -0.5907 -0.8905
 1859TIP3   OH2 5519   2.499   0.187   2.933  0.5220  0.2021 -0.2133
 1859TIP3    H1 5520   2.570   0.219   2.878 -0.6399  3.4215  0.0774
 1859TIP3    H2 5521   2.431   0.160   2.871  0.1951  1.4766 -0.4188
 1860TIP3   OH2 5522   0.385   6.223   4.137  0.3752 -0.1821  0.0923
 1860TIP3    H1 5523   0.371   6.315   4.117 -1.5996 -0.4542  0.1271
 1860TIP3    H2 5524   0.361   6.214   4.229  1.9131 -0.4748  0.4868
 1861TIP3   OH2 5525   2.193   0.332   4.010 -0.4453 -0.0754  0.3041
 1861TIP3    H1 5526   2.128   0.360   4.074  1.0203  3.1653  0.4614
 1861TIP3    H2 5527   2.277   0.337   4.056  0.2081 -1.8947 -0.6029
 1862TIP3   OH2 5528   3.899   0.275   6.244 -0.1332  0.1413  0.4057
 1862TIP3    H1 5529   3.975   0.304   6.193  1.0313  0.6657  2.3794
 1862TIP3    H2 5530   3.922   0.188   6.274  0.5817  1.0931  2.7010
 1863TIP3   OH2 5531   1.408   6.771   6.478  0.2418 -0.3370 -0.1642
 1863TIP3    H1 5532   1.442   6.856   6.506  0.8498 -0.2058 -1.2418
 1863TIP3    H2 5533   1.319   6.788   6.448  0.8048  0.1869 -1.6109
 1864TIP3   OH2 5534   3.186   1.071   2.685 -0.7005 -0.1109 -0.0008
 1864TIP3    H1 5535   3.201   0.992   2.633  1.2579 -1.3136  2.3226
 1864TIP3    H2 5536   3.159   1.039   2.771 -0.7921  1.7590  0.6861
 1865TIP3   OH2 5537   8.459   6.776   0.900 -0.8170 -0.3754 -0.4854
 1865TIP3    H1 5538   8.477   6.787   0.807  0.0237  0.6156 -0.2048
 1865TIP3    H2 5539   8.441   6.864   0.933  1.5603 -0.3424  0.8428
 1866TIP3   OH2 5540   1.839   7.035   2.333 -0.5576 -0.3966 -1.3746
 1866TIP3    H1 5541   1.869   6.951   2.297  1.3407 -0.9686  1.4092
 1866TIP3    H2 5542   1.758   7.014   2.380 -0.8704 -0.3856 -1.9036
 1867TIP3   OH2 5543   0.161   6.553   4.430  0.0073 -0.1184  0.3557
 1867TIP3    H1 5544   0.118   6.521   4.350 -0.5407 -0.2990  0.7200
 1867TIP3    H2 5545   0.150   6.648   4.426 -1.2136 -0.2267  0.8861
 1868TIP3   OH2 5546   7.187   7.788   3.386  0.3592 -0.0685  0.5238
 1868TIP3    H1 5547   7.228   7.770   3.470  1.1819 -3.2445 -0.4960
 1868TIP3    H2 5548   7.199   7.882   3.373  0.8103  0.3392  3.6181
 1869TIP3   OH2 5549   2.529   0.236   6.204 -0.4672 -0.0352  0.8883
 1869TIP3    H1 5550   2.518   0.143   6.186 -2.1139 -0.3503  3.3638
 1869TIP3    H2 5551   2.607   0.241   6.259  2.3772  0.5748 -2.9704
 1870TIP3   OH2 5552   0.134   7.126   5.852 -0.5013 -0.1071 -0.5068
 1870TIP3    H1 5553   0.084   7.127   5.934 -1.1859 -0.2007 -0.9198
 1870TIP3    H2 5554   0.167   7.036   5.844 -1.6881 -0.5019 -1.0826
 1871TIP3   OH2 5555   1.202   7.245   4.447  0.0845  0.2419 -0.3590
 1871TIP3    H1 5556   1.164   7.221   4.531 -0.8057 -0.0736 -0.8449
 1871TIP3    H2 5557   1.295   7.257   4.465 -0.0294 -0.2616  0.5767
 1872TIP3   OH2 5558   0.256   7.788   3.525 -1.1720 -0.6353  0.3221
 1872TIP3    H1 5559   0.189   7.805   3.592  0.4878  1.0180  1.6177
 1872TIP3    H2 5560   0.297   7.707   3.553 -2.4134 -1.5029 -0.3178
 1873TIP3   OH2 5561   7.785   7.805   4.934 -0.0611  0.7676 -0.5420
 1873TIP3    H1 5562   7.874   7.808   4.899  0.3542  0.7932  0.4836
 1873TIP3    H2 5563   7.795   7.832   5.025 -0.7417 -1.8647  0.3335
 1874TIP3   OH2 5564   2.537   7.797   5.267  0.2688 -0.2395  0.4208
 1874TIP3    H1 5565   2.455   7.824   5.227 -0.8364  1.1380  3.4868
 1874TIP3    H2 5566   2.577   7.879   5.298  1.9571 -1.0768  0.5250
 1875TIP3   OH2 5567   7.938   6.735   1.494 -0.2706  0.2021 -0.1613
 1875TIP3    H1 5568   7.924   6.774   1.408 -1.9455 -0.4314 -0.2037
 1875TIP3    H2 5569   7.936   6.809   1.555  0.9092  0.6502 -0.6525
 1876TIP3   OH2 5570   4.819   2.046   3.806 -0.5338  0.1408 -0.5560
 1876TIP3    H1 5571   4.883   1.980   3.834 -0.2416  0.7789  0.2817
 1876TIP3    H2 5572   4.862   2.093   3.735  0.2941  1.1706  0.6139
 1877TIP3   OH2 5573   6.815   3.706   0.111 -0.0240 -0.4235 -0.0539
 1877TIP3    H1 5574   6.811   3.741   0.022  1.6816 -0.3258 -0.1031
 1877TIP3    H2 5575   6.780   3.618   0.104  0.8240 -0.6944 -0.9776
 1878TIP3   OH2 5576   8.331   6.770   2.776  0.1026 -0.9063  0.1770
 1878TIP3    H1 5577   8.331   6.674   2.769  0.0915 -0.7419 -2.6264
 1878TIP3    H2 5578   8.270   6.798   2.709  0.2248  1.0993  0.8901
 1879TIP3   OH2 5579   7.756   6.382   6.641 -0.1515  0.1920 -0.3556
 1879TIP3    H1 5580   7.836   6.375   6.694 -0.1133  3.3242  0.0722
 1879TIP3    H2 5581   7.685   6.372   6.704 -0.1181 -0.6258 -0.4392
 1880TIP3   OH2 5582   3.131   0.340   1.437  0.0615 -0.5036 -0.9431
 1880TIP3    H1 5583   3.041   0.327   1.408  0.2447 -0.7866 -1.3962
 1880TIP3    H2 5584   3.136   0.434   1.457 -0.0387 -0.2711 -1.9623
 1881TIP3   OH2 5585   2.085   0.251   2.184 -0.4596  0.2325  0.3623
 1881TIP3    H1 5586   2.101   0.344   2.169 -2.3782  0.7152  1.1653
 1881TIP3    H2 5587   2.006   0.248   2.238 -1.5422 -1.9182 -1.2489
 1882TIP3   OH2 5588   3.292   0.194   4.346 -0.0334 -0.0610  0.0659
 1882TIP3    H1 5589   3.225   0.257   4.321  0.3698 -0.0502 -1.0075
 1882TIP3    H2 5590   3.258   0.110   4.318  0.5246 -0.0214 -0.7375
 1883TIP3   OH2 5591   4.202   0.273   4.924 -0.6029  0.1525  0.0938
 1883TIP3    H1 5592   4.184   0.194   4.872  0.6025  0.1237 -0.2808
 1883TIP3    H2 5593   4.205   0.344   4.860 -1.6262  0.5046  0.4247
 1884TIP3   OH2 5594   8.350   6.414   3.460 -0.0237  0.7175  1.3780
 1884TIP3    H1 5595   8.357   6.510   3.461  0.3399  0.7094  0.3490
 1884TIP3    H2 5596   8.270   6.397   3.409  0.2050  0.4576  1.1074
 1885TIP3   OH2 5597   1.807   1.283   3.584  0.2244  0.3093 -0.2867
 1885TIP3    H1 5598   1.752   1.281   3.663 -1.1858 -0.2219 -1.2728
 1885TIP3    H2 5599   1.858   1.202   3.590 -0.3532 -0.0552 -0.2563
 1886TIP3   OH2 5600   4.213   3.610   3.038 -0.0210  0.0057 -0.4411
 1886TIP3    H1 5601   4.243   3.656   3.116 -2.4711 -0.5749  0.9340
 1886TIP3    H2 5602   4.126   3.647   3.020 -0.8151 -2.0472 -0.9957
 1887TIP3   OH2 5603   0.021   7.224   2.577  0.2455 -0.4615 -0.0287
 1887TIP3    H1 5604   0.030   7.159   2.507  0.2618 -0.5783  0.0806
 1887TIP3    H2 5605  -0.037   7.183   2.641  0.3939 -0.4375  0.1230
 1888TIP3   OH2 5606   8.191   6.845   4.145 -0.1029  0.5363  0.0964
 1888TIP3    H1 5607   8.156   6.933   4.128 -0.5966  0.3452  0.1140
 1888TIP3    H2 5608   8.146   6.817   4.225 -0.1264  0.1701 -0.0441
 1889TIP3   OH2 5609   7.892   7.919   2.314  0.0368  0.0941  0.4911
 1889TIP3    H1 5610   7.893   8.005   2.273  0.0592 -0.1052  0.0687
 1889TIP3    H2 5611   7.799   7.901   2.331  0.1748  1.0325  2.3455
 1890TIP3   OH2 5612   8.101   1.339   2.208  0.2109 -0.3230 -0.4175
 1890TIP3    H1 5613   8.133   1.327   2.119 -0.1144  1.4484 -0.7816
 1890TIP3    H2 5614   8.176   1.376   2.255  0.4681 -1.5038  0.1222
 1891TIP3   OH2 5615   1.572   7.020   2.394 -0.2193  0.4034  0.0629
 1891TIP3    H1 5616   1.520   7.084   2.346  0.1673  0.5378 -0.1768
 1891TIP3    H2 5617   1.520   6.940   2.391  0.2243  0.1438 -1.3983
 1892TIP3   OH2 5618   8.151   6.741   3.163  0.0899 -0.1475 -0.4041
 1892TIP3    H1 5619   8.114   6.726   3.250  2.0212  1.2752  0.7182
 1892TIP3    H2 5620   8.076   6.746   3.105 -1.3068  0.0078  1.3732
 1893TIP3   OH2 5621   2.602   0.315   2.229  0.1601  0.0133 -0.2683
 1893TIP3    H1 5622   2.617   0.383   2.164 -3.0501  0.1198 -0.9916
 1893TIP3    H2 5623   2.601   0.362   2.313 -0.0755  0.5508 -0.5703
 1894TIP3   OH2 5624   3.155   1.459   4.891 -0.3358  0.2514  0.3254
 1894TIP3    H1 5625   3.204   1.496   4.964  0.6593 -1.6872  0.6684
 1894TIP3    H2 5626   3.220   1.449   4.821 -0.8071  0.0597 -0.0870
 1895TIP3   OH2 5627   1.436   0.065   1.810  0.5681 -0.2510 -0.2498
 1895TIP3    H1 5628   1.454   0.063   1.716 -1.0334  2.3105 -0.6535
 1895TIP3    H2 5629   1.520   0.088   1.850  0.6956  1.0748 -1.2537
 1896TIP3   OH2 5630   0.142   6.920   2.809  0.5410  0.1484 -0.6620
 1896TIP3    H1 5631   0.229   6.918   2.770  0.6270 -1.0562 -0.4037
 1896TIP3    H2 5632   0.136   6.839   2.859 -0.7375  0.2155 -0.7014
 1897TIP3   OH2 5633   1.400   0.962   5.223 -0.0858 -0.6669  0.2169
 1897TIP3    H1 5634   1.402   0.964   5.128  2.1304  0.7357  0.2568
 1897TIP3    H2 5635   1.485   0.924   5.248  0.2296  0.8876  1.6244
 1898TIP3   OH2 5636   2.009   7.456   1.732  0.0148  0.1292 -0.1450
 1898TIP3    H1 5637   2.072   7.405   1.782 -1.8738 -1.4197  0.7453
 1898TIP3    H2 5638   1.968   7.513   1.797 -1.7019 -1.1278 -0.0917
 1899TIP3   OH2 5639   7.820   7.329   2.795 -0.4079  0.6947 -0.0995
 1899TIP3    H1 5640   7.914   7.339   2.782 -0.6677  1.5621 -1.3230
 1899TIP3    H2 5641   7.812   7.290   2.882  1.0518  1.2215  0.2774
 1900TIP3   OH2 5642   7.758   7.689   3.304  0.1063 -0.1493  0.0331
 1900TIP3    H1 5643   7.749   7.595   3.324 -0.2915 -0.0532  0.3082
 1900TIP3    H2 5644   7.853   7.703   3.299  0.1778 -0.4805  0.4053
 1901TIP3   OH2 5645   2.019   0.415   6.520 -0.9173 -0.2985  0.4488
 1901TIP3    H1 5646   2.064   0.493   6.489 -2.3934  0.3298 -0.1729
 1901TIP3    H2 5647   2.026   0.352   6.447 -1.1081 -0.1666  0.3148
 1902TIP3   OH2 5648   7.363   6.771   2.016 -0.1696 -0.0806 -0.1896
 1902TIP3    H1 5649   7.384   6.717   2.092  0.7606 -0.4242 -0.6817
 1902TIP3    H2 5650   7.304   6.716   1.963 -0.4372 -0.0256  0.0522
 1903TIP3   OH2 5651   1.297   6.602   3.622  0.7325  0.0383 -0.0752
 1903TIP3    H1 5652   1.275   6.527   3.567  2.1870 -0.6355  0.2489
 1903TIP3    H2 5653   1.247   6.587   3.703  1.1069 -0.6455  0.0359
 1904TIP3   OH2 5654   8.000   7.250   3.689  0.0953 -0.5204  0.2261
 1904TIP3    H1 5655   8.052   7.195   3.630 -0.1075 -0.2246 -0.2304
 1904TIP3    H2 5656   7.911   7.217   3.680  0.0235 -0.3131  0.1787
 1905TIP3   OH2 5657   2.989   1.984   4.111  0.2589 -0.5144  0.3156
 1905TIP3    H1 5658   2.922   1.974   4.043 -0.5678 -1.0077  1.1879
 1905TIP3    H2 5659   3.069   2.004   4.063 -0.4159 -0.3785 -0.7738
 1906TIP3   OH2 5660   7.778   6.393   6.057 -0.5249 -0.2651 -0.4345
 1906TIP3    H1 5661   7.699   6.342   6.073 -0.5583  0.1569  0.8616
 1906TIP3    H2 5662   7.826   6.344   5.991 -1.1405 -1.3230 -0.1061
 1907TIP3   OH2 5663   2.854   0.080   4.760  0.2911  0.2070 -0.1240
 1907TIP3    H1 5664   2.828   0.009   4.819  1.3442  0.4184  0.6069
 1907TIP3    H2 5665   2.919   0.130   4.809 -1.1436  2.2752 -0.2415
 1908TIP3   OH2 5666   0.537   7.297   0.968 -0.4692  0.4023  0.0772
 1908TIP3    H1 5667   0.497   7.219   0.929  1.1541 -0.0963 -0.6452
 1908TIP3    H2 5668   0.630   7.275   0.975  0.2567  2.8480 -1.5469
 1909TIP3   OH2 5669   1.372   3.891   1.805  0.8247 -0.3145 -0.2253
 1909TIP3    H1 5670   1.428   3.969   1.808 -1.3213  1.2847 -0.1695
 1909TIP3    H2 5671   1.290   3.920   1.844  1.0593 -3.5771  2.8891
 1910TIP3   OH2 5672   7.146   7.662   0.098  0.1974 -0.4034 -0.0226
 1910TIP3    H1 5673   7.219   7.697   0.150 -0.0872 -0.1749  0.2229
 1910TIP3    H2 5674   7.068   7.694   0.142 -0.0876 -2.1540  0.8094
 1911TIP3   OH2 5675   0.429   2.137   3.486 -0.2593  0.3736 -0.0261
 1911TIP3    H1 5676   0.468   2.052   3.463  1.9451  1.1950  0.5513
 1911TIP3    H2 5677   0.424   2.184   3.403  0.6256  0.5112 -0.0086
 1912TIP3   OH2 5678   2.544   0.694   6.440 -0.0127  0.3366 -0.1244
 1912TIP3    H1 5679   2.487   0.618   6.451 -1.9416  1.7143 -0.4801
 1912TIP3    H2 5680   2.577   0.687   6.351  1.1267 -0.9419  0.3700
 1913TIP3   OH2 5681   8.310   7.606   2.795  0.4209 -0.0576  0.6536
 1913TIP3    H1 5682   8.386   7.654   2.761  1.4972 -0.6441  2.2009
 1913TIP3    H2 5683   8.345   7.550   2.864 -0.9350 -2.6522 -0.6853
 1914TIP3   OH2 5684   3.881   0.945   4.616  0.6154 -0.8459 -0.1254
 1914TIP3    H1 5685   3.887   0.888   4.692  1.4842  0.5783  0.8918
 1914TIP3    H2 5686   3.967   0.986   4.609 -0.6395  2.1044  0.6095
 1915TIP3   OH2 5687   7.808   7.209   4.561  0.4954 -0.0183 -0.2682
 1915TIP3    H1 5688   7.792   7.213   4.466 -0.8409 -0.7615 -0.0809
 1915TIP3    H2 5689   7.805   7.116   4.582  1.0558  0.1313  0.4575
 1916TIP3   OH2 5690   4.565   1.327   4.873 -0.5197 -0.6194  0.0880
 1916TIP3    H1 5691   4.474   1.354   4.860 -0.5841  0.1464  2.0546
 1916TIP3    H2 5692   4.559   1.248   4.927 -0.0030 -0.4552  0.3887
 1917TIP3   OH2 5693  -0.029   7.779   4.276  0.1057 -0.0393 -0.3872
 1917TIP3    H1 5694   0.037   7.774   4.345  0.1780 -0.7804 -0.5021
 1917TIP3    H2 5695   0.004   7.721   4.207 -0.6882 -0.4644 -0.4183
 1918TIP3   OH2 5696   7.939   5.810   1.056 -0.3043  0.2811 -0.4085
 1918TIP3    H1 5697   7.953   5.898   1.092  0.7630 -0.6220  1.4698
 1918TIP3    H2 5698   8.025   5.784   1.023 -0.1620 -0.7706  0.7376
 1919TIP3   OH2 5699   2.775   2.665   6.544 -0.2944 -0.1822  0.0437
 1919TIP3    H1 5700   2.702   2.604   6.555  1.3399 -2.4708 -1.2120
 1919TIP3    H2 5701   2.778   2.682   6.450  0.5546  0.1651  0.1277
 1920TIP3   OH2 5702   7.619   7.456   3.949  1.2139 -0.2745  0.6574
 1920TIP3    H1 5703   7.613   7.361   3.947  0.3138 -0.2059 -1.2948
 1920TIP3    H2 5704   7.700   7.477   3.903  1.0038 -0.0806  0.3680
 1921TIP3   OH2 5705   2.968   0.250   5.756 -0.3179 -0.2054 -0.1028
 1921TIP3    H1 5706   3.026   0.174   5.746 -1.6269 -1.2048 -0.1727
 1921TIP3    H2 5707   2.956   0.284   5.667 -0.2155 -0.2742 -0.1422
 1922TIP3   OH2 5708   1.263   1.716   5.650  0.8211 -0.0114  0.5986
 1922TIP3    H1 5709   1.262   1.655   5.724 -0.8332 -0.2389  0.4009
 1922TIP3    H2 5710   1.333   1.683   5.593  0.3364 -1.3791  0.7737
 1923TIP3   OH2 5711   2.822   0.448   5.142  0.0269 -0.4103 -0.1923
 1923TIP3    H1 5712   2.751   0.456   5.207 -1.7690  0.2860 -2.1908
 1923TIP3    H2 5713   2.873   0.528   5.152  0.4261 -0.8038  1.0901
 1924TIP3   OH2 5714   2.293   0.406   1.035  0.3036 -0.2314 -0.6117
 1924TIP3    H1 5715   2.322   0.334   0.978  0.4288  0.5011 -1.4826
 1924TIP3    H2 5716   2.355   0.406   1.107  0.3078 -0.9957 -0.6092
 1925TIP3   OH2 5717   6.886   7.642   2.121 -0.4016 -0.1217 -0.5428
 1925TIP3    H1 5718   6.923   7.600   2.198 -1.1945 -0.0396 -0.1085
 1925TIP3    H2 5719   6.958   7.691   2.083  0.1258 -0.5772 -0.1442
 1926TIP3   OH2 5720   2.876   1.868   4.930 -0.4008  0.2416  0.1845
 1926TIP3    H1 5721   2.910   1.825   4.852 -0.1041 -0.7126  0.8378
 1926TIP3    H2 5722   2.869   1.799   4.996  0.3890  1.2507  1.3561
 1927TIP3   OH2 5723   2.797   1.117   1.992  0.5504  0.3460 -0.3840
 1927TIP3    H1 5724   2.794   1.212   1.983  0.8927  0.2509 -1.6862
 1927TIP3    H2 5725   2.729   1.096   2.055  1.2940  1.5630  0.8563
 1928TIP3   OH2 5726   2.121   7.086   5.020 -0.0658  0.1904  0.4505
 1928TIP3    H1 5727   2.131   7.125   4.933  0.0902  0.9231  0.7919
 1928TIP3    H2 5728   2.038   7.121   5.053  0.3662  0.7184  0.9997
 1929TIP3   OH2 5729   3.042   5.433   2.422  0.2466  0.5135 -0.6052
 1929TIP3    H1 5730   2.948   5.417   2.420  0.4950 -1.1894  0.3419
 1929TIP3    H2 5731   3.068   5.431   2.330 -0.3992 -0.6206 -0.7751
 1930TIP3   OH2 5732   0.463   7.268   2.092 -0.4640  0.0599 -0.8873
 1930TIP3    H1 5733   0.441   7.253   2.000  0.6511  1.1235 -1.3323
 1930TIP3    H2 5734   0.538   7.327   2.090  0.7600 -1.3791  0.6667
 1931TIP3   OH2 5735   8.117   7.224   0.164 -0.6194  0.1421 -0.0192
 1931TIP3    H1 5736   8.154   7.257   0.245  0.6796 -0.2671 -0.4324
 1931TIP3    H2 5737   8.180   7.157   0.134  0.0665  1.8104 -2.4817
 1932TIP3   OH2 5738   3.310   2.499   4.514  0.4528 -0.0439  0.2767
 1932TIP3    H1 5739   3.228   2.476   4.471  0.8503 -0.0734 -0.4733
 1932TIP3    H2 5740   3.355   2.556   4.452 -0.2962  2.3972  1.8964
 1933TIP3   OH2 5741   7.740   6.738   0.234  0.1125  0.0235 -0.3917
 1933TIP3    H1 5742   7.661   6.688   0.216  0.6481 -0.5303 -1.2285
 1933TIP3    H2 5743   7.709   6.815   0.283 -1.0794  0.3989 -1.7135
 1934TIP3   OH2 5744   7.103   5.697   3.418  0.0520 -0.1063 -0.0094
 1934TIP3    H1 5745   7.079   5.755   3.490  1.0820 -1.7192  1.6846
 1934TIP3    H2 5746   7.191   5.725   3.393  1.0711 -1.7003  1.6662
 1935TIP3   OH2 5747   3.574   0.072   1.646 -0.1282  0.3881 -0.5281
 1935TIP3    H1 5748   3.540   0.160   1.634  0.9580  0.6281 -1.9831
 1935TIP3    H2 5749   3.669   0.083   1.651 -0.0141 -0.6479 -0.2761
 1936TIP3   OH2 5750   1.492   0.186   2.836 -0.1856 -0.0200 -0.4293
 1936TIP3    H1 5751   1.409   0.152   2.869 -0.5843 -1.0939 -2.4963
 1936TIP3    H2 5752   1.474   0.277   2.812 -0.3170  0.2564  0.6948
 1937TIP3   OH2 5753   1.157   6.528   4.664  0.7824 -0.0903 -0.4110
 1937TIP3    H1 5754   1.084   6.581   4.696  0.9244  1.0729 -1.9300
 1937TIP3    H2 5755   1.128   6.497   4.579  1.9328  0.1227 -0.8887
 1938TIP3   OH2 5756   3.957   1.932   5.141  0.3092 -0.3459 -0.1449
 1938TIP3    H1 5757   4.035   1.966   5.097  0.2235 -0.1067 -0.1104
 1938TIP3    H2 5758   3.958   1.973   5.227  0.3037 -0.5703 -0.0375
 1939TIP3   OH2 5759   1.461   4.761   3.042 -0.3381 -0.0418 -0.1031
 1939TIP3    H1 5760   1.510   4.686   3.008  0.2952  0.3925 -0.1581
 1939TIP3    H2 5761   1.371   4.746   3.013  0.2937  0.6339 -2.5158
 1940TIP3   OH2 5762   7.439   6.550   2.254 -0.0557 -0.2538  0.1651
 1940TIP3    H1 5763   7.521   6.543   2.205  0.0098  0.6052  0.1438
 1940TIP3    H2 5764   7.461   6.517   2.342  0.1281 -0.6742 -0.0357
 1941TIP3   OH2 5765   0.030   7.073   4.734 -0.4697 -0.1109 -0.3643
 1941TIP3    H1 5766  -0.048   7.052   4.683  0.0726  0.9192 -1.6663
 1941TIP3    H2 5767   0.084   6.994   4.729 -1.4216 -0.8147  0.5227
 1942TIP3   OH2 5768   0.955   7.368   6.443 -0.6676  0.1046 -0.0381
 1942TIP3    H1 5769   0.941   7.461   6.422  0.8598 -0.1252 -2.2134
 1942TIP3    H2 5770   0.893   7.321   6.387  1.8515 -0.3956 -2.5086
 1943TIP3   OH2 5771   1.552   0.154   1.567 -0.2816  0.0006 -0.2759
 1943TIP3    H1 5772   1.603   0.218   1.617  1.9611 -0.0252 -2.4386
 1943TIP3    H2 5773   1.609   0.078   1.560 -1.1729 -0.5677 -1.5507
 1944TIP3   OH2 5774   0.412   7.870   2.929  0.2768 -0.2007  0.0593
 1944TIP3    H1 5775   0.395   7.788   2.974 -0.3505 -0.7164 -1.0955
 1944TIP3    H2 5776   0.333   7.923   2.944  0.5356  0.0698  0.5040
 1945TIP3   OH2 5777   0.990   0.040   4.304 -0.0475  0.2739  0.0395
 1945TIP3    H1 5778   1.059  -0.025   4.317 -2.6135 -2.5747  0.1279
 1945TIP3    H2 5779   0.977   0.079   4.391 -0.9814 -1.8204  0.8966
 1946TIP3   OH2 5780   1.514   3.582   3.812  0.0713  0.2491 -0.2937
 1946TIP3    H1 5781   1.420   3.587   3.828  0.1906 -0.5162  0.6981
 1946TIP3    H2 5782   1.524   3.605   3.719 -1.2251 -0.9091 -0.7420
 1947TIP3   OH2 5783   3.515   1.541   6.181 -0.3036  0.5579 -0.1076
 1947TIP3    H1 5784   3.579   1.526   6.111  1.0519  3.3554  0.4589
 1947TIP3    H2 5785   3.446   1.593   6.141 -1.4900 -1.1025 -0.3005
 1948TIP3   OH2 5786   2.323   0.621   4.450 -0.0738  0.0545 -0.0660
 1948TIP3    H1 5787   2.326   0.682   4.523 -2.2060 -0.0586  0.1396
 1948TIP3    H2 5788   2.234   0.627   4.417 -0.1534 -2.5238 -0.4049
 1949TIP3   OH2 5789   1.678   0.398   2.142  0.3586 -0.1677 -0.2899
 1949TIP3    H1 5790   1.619   0.463   2.104  0.5395 -0.2301 -0.6816
 1949TIP3    H2 5791   1.634   0.370   2.223  0.4470  0.6849  0.0555
 1950TIP3   OH2 5792   7.534   7.658   3.134  0.1493 -0.5148  0.4561
 1950TIP3    H1 5793   7.600   7.628   3.070  0.0353 -0.7516  0.4474
 1950TIP3    H2 5794   7.577   7.648   3.219  0.8535  1.2511  0.3201
 1951TIP3   OH2 5795   2.081   0.983   3.796 -0.3950 -0.3783  0.1147
 1951TIP3    H1 5796   2.061   1.065   3.839  0.2855 -0.7952  1.2331
 1951TIP3    H2 5797   2.162   0.999   3.748 -0.2640 -0.4101  0.3303
 1952TIP3   OH2 5798   2.320   2.403   4.062  0.0848  0.6500 -0.5788
 1952TIP3    H1 5799   2.412   2.394   4.038  0.2210  0.8534 -0.1229
 1952TIP3    H2 5800   2.321   2.437   4.151 -0.4311  0.4200 -0.4823
 1953TIP3   OH2 5801   2.790   0.611   1.773  0.2611  0.1552 -0.3438
 1953TIP3    H1 5802   2.752   0.668   1.841 -1.4022 -1.0629 -0.2061
 1953TIP3    H2 5803   2.738   0.629   1.695  0.2884 -0.5400 -0.5248
 1954TIP3   OH2 5804   0.370   7.584   2.638 -0.4601 -0.2806 -0.0052
 1954TIP3    H1 5805   0.325   7.511   2.680  0.0188  0.0698  1.1349
 1954TIP3    H2 5806   0.300   7.639   2.603 -0.8625 -0.6698  0.1889
 1955TIP3   OH2 5807   7.838   6.897   0.910  0.5157 -0.0951 -0.5697
 1955TIP3    H1 5808   7.852   6.853   0.827 -1.2773  0.6124 -1.2782
 1955TIP3    H2 5809   7.785   6.974   0.888  0.7633  0.5808  1.0963
 1956TIP3   OH2 5810   2.071   0.766   3.456  0.3027 -0.2535 -0.0432
 1956TIP3    H1 5811   2.141   0.824   3.489 -0.9802  1.4394 -0.2349
 1956TIP3    H2 5812   2.112   0.717   3.385  1.9129 -0.8768  1.2849
 1957TIP3   OH2 5813   7.748   7.992   1.569 -0.2274  0.2043 -0.6017
 1957TIP3    H1 5814   7.834   8.024   1.598 -0.9347  0.8415  0.8349
 1957TIP3    H2 5815   7.757   7.985   1.474  2.1625 -2.0194 -0.2662
 1958TIP3   OH2 5816   1.400   0.606   3.874  0.0116  0.0403  0.0612
 1958TIP3    H1 5817   1.360   0.684   3.836 -1.1311 -0.3552  0.4164
 1958TIP3    H2 5818   1.368   0.603   3.964 -0.5850 -1.2395 -0.1720
 1959TIP3   OH2 5819   3.085   1.563   1.716 -0.1018  0.2504 -0.2089
 1959TIP3    H1 5820   3.091   1.490   1.654 -0.1866 -1.2371  1.4913
 1959TIP3    H2 5821   3.160   1.552   1.774  0.1470  1.8001 -0.2184
 1960TIP3   OH2 5822   2.154   1.240   4.382 -0.0450 -0.4888  0.2369
 1960TIP3    H1 5823   2.111   1.245   4.468 -1.7674  2.9282 -0.7463
 1960TIP3    H2 5824   2.096   1.287   4.323  1.2350 -2.5968 -2.8346
 1961TIP3   OH2 5825   5.552   0.320   5.476 -0.1524  0.3915 -0.0946
 1961TIP3    H1 5826   5.608   0.390   5.441  0.0928  0.3291  0.1682
 1961TIP3    H2 5827   5.600   0.240   5.454 -0.4763  0.3020 -0.4742
 1962TIP3   OH2 5828   2.793   1.097   1.711 -0.4785 -0.1332  0.1399
 1962TIP3    H1 5829   2.779   1.192   1.704  0.8599  0.1057  0.5281
 1962TIP3    H2 5830   2.802   1.082   1.805 -0.9936 -0.6927  0.0989
 1963TIP3   OH2 5831   8.303   7.360   3.841 -0.6302  0.0521 -0.3163
 1963TIP3    H1 5832   8.316   7.344   3.934  1.1624 -0.2292 -0.5941
 1963TIP3    H2 5833   8.237   7.429   3.837  1.1430  1.8892  1.2437
 1964TIP3   OH2 5834   3.996   0.073   2.712 -0.2423 -0.0608 -0.0907
 1964TIP3    H1 5835   3.903   0.083   2.736 -0.4822  2.1182 -1.7161
 1964TIP3    H2 5836   4.040   0.142   2.762  0.5417 -1.2178  0.8243
 1965TIP3   OH2 5837   4.073   0.779   2.627  0.2080 -0.3975  0.5220
 1965TIP3    H1 5838   3.988   0.737   2.640 -0.6880  1.2960  0.3055
 1965TIP3    H2 5839   4.126   0.713   2.583 -1.4902 -0.9675 -0.7085
 1966TIP3   OH2 5840   8.072   7.133   4.784  0.8469 -0.0021 -0.2468
 1966TIP3    H1 5841   7.990   7.172   4.813 -1.3955 -2.5090 -2.9075
 1966TIP3    H2 5842   8.138   7.168   4.844 -2.3674  0.8891  2.9045
 1967TIP3   OH2 5843   4.590   1.234   3.287  0.1007  0.7164  0.0384
 1967TIP3    H1 5844   4.521   1.170   3.306 -0.3786  1.2254  0.0043
 1967TIP3    H2 5845   4.653   1.185   3.234 -0.5082  0.4033 -0.4092
 1968TIP3   OH2 5846   3.444   1.138   2.526  0.3877  0.6490  0.4550
 1968TIP3    H1 5847   3.401   1.130   2.612 -0.1904  0.8058  0.1818
 1968TIP3    H2 5848   3.410   1.065   2.475 -0.2806  1.3222 -0.0703
 1969TIP3   OH2 5849   2.820   1.465   4.006 -0.0390 -0.6223  0.2940
 1969TIP3    H1 5850   2.847   1.379   4.038  0.4161 -0.1278  1.2543
 1969TIP3    H2 5851   2.900   1.516   4.002 -0.5623  0.3369  1.5662
 1970TIP3   OH2 5852   2.587   1.443   2.262  0.0766 -0.3613  0.2577
 1970TIP3    H1 5853   2.494   1.455   2.281  0.1830  1.9200 -0.5114
 1970TIP3    H2 5854   2.620   1.392   2.336 -1.3067  0.8378  1.7371
 1971TIP3   OH2 5855   8.478   8.031   2.486 -0.3590 -0.1548 -0.2225
 1971TIP3    H1 5856   8.462   8.001   2.397  1.9633  2.0797 -1.4294
 1971TIP3    H2 5857   8.550   7.976   2.517  0.2164  0.4588 -0.4677
 1972TIP3   OH2 5858   4.261   0.328   3.217  0.4555  0.2077  0.1060
 1972TIP3    H1 5859   4.237   0.403   3.162 -2.1400 -0.7426 -0.1414
 1972TIP3    H2 5860   4.197   0.328   3.288  0.1361 -1.9861 -0.1262
 1973TIP3   OH2 5861   0.199   0.602   3.560 -0.7467  0.1164 -0.2802
 1973TIP3    H1 5862   0.126   0.558   3.517  1.1927 -0.7630 -2.8188
 1973TIP3    H2 5863   0.214   0.681   3.507  0.1304  0.2982  0.2206
 1974TIP3   OH2 5864   2.259   6.926   2.245 -0.0794  0.3757  0.4850
 1974TIP3    H1 5865   2.257   6.892   2.335  0.3475  1.1251  0.7863
 1974TIP3    H2 5866   2.223   6.855   2.192 -3.2121  1.0540  1.6175
 1975TIP3   OH2 5867   6.968   1.339   4.341 -0.3073  0.3054  0.8621
 1975TIP3    H1 5868   6.917   1.277   4.290 -1.5803  1.2041  1.0061
 1975TIP3    H2 5869   7.020   1.285   4.401  0.5279 -0.7053 -0.7585
 1976TIP3   OH2 5870   0.831   6.183   2.640  0.3341 -0.5895  0.3876
 1976TIP3    H1 5871   0.836   6.098   2.684 -0.1921 -1.2758 -0.8679
 1976TIP3    H2 5872   0.793   6.164   2.554 -0.2977  0.9915  0.2964
 1977TIP3   OH2 5873   2.680   0.653   3.256  0.0158  0.0530 -0.0427
 1977TIP3    H1 5874   2.680   0.579   3.195 -2.1854 -0.0613  0.0568
 1977TIP3    H2 5875   2.724   0.724   3.209 -2.5849  0.2837 -2.1938
 1978TIP3   OH2 5876   2.416   0.168   3.197  0.0817  0.7646 -0.2539
 1978TIP3    H1 5877   2.385   0.178   3.107 -1.1451 -1.0807 -0.0510
 1978TIP3    H2 5878   2.437   0.075   3.206  0.5162  0.9899  1.2712
 1979TIP3   OH2 5879   0.900   7.856   2.330 -0.0630 -0.3779  0.1426
 1979TIP3    H1 5880   0.870   7.848   2.420  1.2157 -0.9490  0.5362
 1979TIP3    H2 5881   0.973   7.919   2.335 -0.0361 -0.3543 -0.4986
 1980TIP3   OH2 5882   0.011   7.119   3.508  0.4818  0.2777  0.1352
 1980TIP3    H1 5883   0.011   7.104   3.413 -0.5306 -0.7252  0.2767
 1980TIP3    H2 5884  -0.014   7.211   3.517 -0.5656  0.0801 -0.5525
 1981TIP3   OH2 5885   3.140   1.201   4.350  0.1797 -0.2811  0.0206
 1981TIP3    H1 5886   3.223   1.154   4.343  0.4641  0.1624  0.3405
 1981TIP3    H2 5887   3.074   1.139   4.319  0.6253 -0.6527 -0.1905
 1982TIP3   OH2 5888   1.175   7.554   4.856  0.1292 -0.0872 -0.7161
 1982TIP3    H1 5889   1.110   7.508   4.803 -0.9676  0.7944 -0.1769
 1982TIP3    H2 5890   1.256   7.548   4.806 -0.8799  0.6932 -2.4860
 1983TIP3   OH2 5891   8.331   7.257   1.344 -0.5479 -0.0651 -0.5582
 1983TIP3    H1 5892   8.390   7.208   1.401 -1.0801  0.4964  0.4952
 1983TIP3    H2 5893   8.244   7.245   1.382 -0.9407  0.1369 -1.3755
 1984TIP3   OH2 5894   5.668   1.154   4.089 -0.3179  0.0429  0.5671
 1984TIP3    H1 5895   5.732   1.225   4.078 -0.4725  0.0509 -0.3634
 1984TIP3    H2 5896   5.711   1.077   4.052  0.9178 -0.9962  4.0159
 1985TIP3   OH2 5897   7.699   7.427   2.309  0.2078 -0.3894 -0.4950
 1985TIP3    H1 5898   7.717   7.396   2.220 -0.3416 -1.4880 -0.2294
 1985TIP3    H2 5899   7.762   7.380   2.364  0.3659  0.0863 -0.2664
 1986TIP3   OH2 5900   0.923   8.006   3.450 -0.5823  0.3282  0.5097
 1986TIP3    H1 5901   0.842   7.957   3.465 -0.8843  0.7411  0.2234
 1986TIP3    H2 5902   0.898   8.075   3.389  0.7656 -1.7446 -2.5148
 1987TIP3   OH2 5903   5.522   0.060   3.361 -0.4758  0.0847 -0.9399
 1987TIP3    H1 5904   5.592   0.124   3.372 -0.4007 -0.0361 -0.7060
 1987TIP3    H2 5905   5.445   0.101   3.400 -0.1267 -0.4862  0.3797
 1988TIP3   OH2 5906   3.530   0.695   3.316 -0.5510 -0.0102  0.0564
 1988TIP3    H1 5907   3.467   0.634   3.278 -1.3093  0.1161  1.1092
 1988TIP3    H2 5908   3.611   0.644   3.322 -0.8564 -0.5343 -0.2173
 1989TIP3   OH2 5909   0.935   7.397   4.744 -0.0851 -0.5251  0.3679
 1989TIP3    H1 5910   0.946   7.378   4.650  1.2071 -0.0202  0.4063
 1989TIP3    H2 5911   0.885   7.479   4.746  2.1643  0.9086  0.0491
 1990TIP3   OH2 5912   0.165   7.732   2.479 -0.4482  0.1009  0.5213
 1990TIP3    H1 5913   0.228   7.706   2.411 -2.5190  0.8687 -1.7314
 1990TIP3    H2 5914   0.080   7.721   2.438 -1.6562  3.2638  2.0349
 1991TIP3   OH2 5915   4.133   1.785   2.972 -0.1935 -0.2252  0.5771
 1991TIP3    H1 5916   4.189   1.850   3.014  0.0931 -1.0699  1.5190
 1991TIP3    H2 5917   4.180   1.702   2.981 -0.4142 -0.5126 -0.8928
 1992TIP3   OH2 5918   1.212   6.886   5.522  0.5071  0.1525 -0.3203
 1992TIP3    H1 5919   1.306   6.874   5.509  0.4072 -0.5227 -0.4639
 1992TIP3    H2 5920   1.173   6.803   5.494 -0.4771  1.6676 -3.6470
 1993TIP3   OH2 5921   4.191   1.129   1.809 -0.4187 -0.0624  0.5394
 1993TIP3    H1 5922   4.175   1.073   1.733  0.8862  2.9641 -2.1287
 1993TIP3    H2 5923   4.106   1.168   1.828 -0.5411  0.0428 -0.1756
 1994TIP3   OH2 5924   1.396   0.970   3.316 -0.1536 -0.2770 -0.3185
 1994TIP3    H1 5925   1.320   0.939   3.267 -1.2733  1.0650  0.5434
 1994TIP3    H2 5926   1.452   1.010   3.249  0.6017 -2.7071 -1.2088
 1995TIP3   OH2 5927   4.308   0.318   1.879 -0.2292 -0.3515 -0.0867
 1995TIP3    H1 5928   4.280   0.257   1.948 -0.5163 -1.1011 -0.8635
 1995TIP3    H2 5929   4.394   0.285   1.852  1.4088  1.8029  2.1305
 1996TIP3   OH2 5930   4.165   0.958   3.316  1.4677  0.4041 -0.4330
 1996TIP3    H1 5931   4.141   0.866   3.320  1.8229  0.2950 -0.8137
 1996TIP3    H2 5932   4.115   0.999   3.386  1.2867 -0.0731 -0.2845
 1997TIP3   OH2 5933   4.003   1.223   1.063 -0.5908  0.4130  0.3239
 1997TIP3    H1 5934   4.091   1.226   1.025 -0.1831  0.9939  1.2885
 1997TIP3    H2 5935   4.009   1.159   1.134 -1.6736 -1.6150 -1.3403
 1998TIP3   OH2 5936   3.372   0.494   5.569  0.0246  0.1163  0.5520
 1998TIP3    H1 5937   3.434   0.565   5.551 -0.4909  0.6679  0.9453
 1998TIP3    H2 5938   3.297   0.537   5.610 -1.0731 -0.4042 -0.8860
 1999TIP3   OH2 5939   1.896   6.317   2.244 -0.1604 -0.1805 -0.0065
 1999TIP3    H1 5940   1.819   6.358   2.282  1.1679  1.2927  1.1973
 1999TIP3    H2 5941   1.943   6.279   2.318 -0.3916 -2.2308 -0.8932
 2000TIP3   OH2 5942   4.122   0.820   4.298  0.0852 -0.8226  0.3056
 2000TIP3    H1 5943   4.159   0.744   4.254 -0.3381 -0.8396 -0.0186
 2000TIP3    H2 5944   4.148   0.894   4.244 -0.6432 -0.8663 -0.1122
 2001TIP3   OH2 5945   3.012   2.731   4.585 -0.0283 -0.0481 -0.7905
 2001TIP3    H1 5946   2.968   2.712   4.503 -0.5958  0.4399 -0.6026
 2001TIP3    H2 5947   2.950   2.785   4.635 -0.3777 -1.7499  0.6656
 2002TIP3   OH2 5948   0.687   7.018   4.708  0.0727 -0.8170  0.3848
 2002TIP3    H1 5949   0.700   7.071   4.787 -2.1537 -0.5732  0.6138
 2002TIP3    H2 5950   0.732   7.066   4.639 -0.4590  0.4904  0.9356
 2003TIP3   OH2 5951   5.213   0.671   2.425  0.4283  0.1290 -0.3681
 2003TIP3    H1 5952   5.192   0.645   2.515  0.9282  0.6934 -0.0878
 2003TIP3    H2 5953   5.265   0.750   2.434  1.2685 -0.3250 -1.1270
 2004TIP3   OH2 5954   0.052   7.296   3.737 -0.5998  0.2988  0.2285
 2004TIP3    H1 5955  -0.012   7.304   3.808 -0.2474  0.1309  0.5618
 2004TIP3    H2 5956   0.100   7.216   3.756 -0.8008  0.0153 -0.4390
 2005TIP3   OH2 5957   4.384   1.165   2.359  0.6201 -0.1063  0.6629
 2005TIP3    H1 5958   4.373   1.099   2.291 -0.7023  0.1691  0.5854
 2005TIP3    H2 5959   4.467   1.144   2.401  0.6015 -1.3197  0.1022
 2006TIP3   OH2 5960   3.177   0.348   2.386 -0.4221 -0.7764  0.3547
 2006TIP3    H1 5961   3.138   0.432   2.363 -0.3655 -0.7930  0.1951
 2006TIP3    H2 5962   3.151   0.290   2.314  0.6490 -0.5620 -0.2109
 2007TIP3   OH2 5963   7.481   1.128   2.156  0.0002 -0.5897 -0.3802
 2007TIP3    H1 5964   7.472   1.108   2.250  1.1392  0.5902 -0.0109
 2007TIP3    H2 5965   7.439   1.054   2.112  1.9259 -2.5475  0.9909
 2008TIP3   OH2 5966   4.464   0.214   3.366 -0.3680 -0.4765 -0.5138
 2008TIP3    H1 5967   4.418   0.148   3.419 -0.4450 -0.7322 -0.9035
 2008TIP3    H2 5968   4.395   0.255   3.314 -0.3821  0.1962  0.0267
 2009TIP3   OH2 5969   4.357   7.455   3.054 -0.2076 -0.0552  0.1978
 2009TIP3    H1 5970   4.371   7.544   3.020  1.2105 -0.2153  0.3496
 2009TIP3    H2 5971   4.402   7.398   2.992  0.4547 -0.5203  1.0949
 2010TIP3   OH2 5972   4.029   2.513   2.019  0.1895 -0.3538 -0.0019
 2010TIP3    H1 5973   3.940   2.545   2.007 -0.1153 -1.0609  0.2889
 2010TIP3    H2 5974   4.080   2.591   2.040  0.4817  0.7075 -4.2700
 2011TIP3   OH2 5975   6.071   2.024   2.599  0.3634  0.0779  0.6396
 2011TIP3    H1 5976   6.122   1.948   2.571 -0.6736 -0.5188  0.3288
 2011TIP3    H2 5977   5.982   2.005   2.568 -0.3747  0.3571  2.5228
 2012TIP3   OH2 5978   0.968   7.122   0.414  0.0311 -0.1299 -0.0815
 2012TIP3    H1 5979   1.050   7.170   0.426  1.0038 -1.6552 -0.5005
 2012TIP3    H2 5980   0.994   7.030   0.414 -1.6499 -0.6202 -0.4991
 2013TIP3   OH2 5981   4.195   1.471   2.402 -0.0283 -0.3138  0.0051
 2013TIP3    H1 5982   4.234   1.446   2.318 -0.0244 -0.5597  0.0806
 2013TIP3    H2 5983   4.247   1.546   2.430 -0.1600 -0.0999 -0.3103
 2014TIP3   OH2 5984   8.234   6.792   0.401 -0.0926  0.1322 -0.1314
 2014TIP3    H1 5985   8.307   6.761   0.455  1.1411  0.8189 -1.3656
 2014TIP3    H2 5986   8.190   6.857   0.456  0.3238 -0.1547  0.5568
 2015TIP3   OH2 5987   3.964   1.816   2.529  0.6075  0.1157  0.4098
 2015TIP3    H1 5988   3.955   1.793   2.621  0.6967 -0.9825  0.1514
 2015TIP3    H2 5989   3.922   1.902   2.521 -1.0566 -0.6182  1.1095
 2016TIP3   OH2 5990   4.670   0.720   4.782  0.4813  0.1134  0.4956
 2016TIP3    H1 5991   4.576   0.726   4.795  0.3515  2.1472 -1.2554
 2016TIP3    H2 5992   4.707   0.785   4.842  0.7177  0.0322  0.4380
 2017TIP3   OH2 5993   2.130   5.897   4.492  0.0642  0.4172 -0.1509
 2017TIP3    H1 5994   2.185   5.846   4.432  0.3165  0.0368  0.3928
 2017TIP3    H2 5995   2.042   5.890   4.457  0.4616  1.6293 -1.4404
 2018TIP3   OH2 5996   3.278   0.209   3.506 -0.1240 -0.2153  0.2633
 2018TIP3    H1 5997   3.269   0.228   3.599  2.3346  0.9921  0.2893
 2018TIP3    H2 5998   3.317   0.122   3.503 -0.3086 -0.3017  0.3528
 2019TIP3   OH2 5999   6.816   6.630   2.705 -0.4121  0.0703  0.2784
 2019TIP3    H1 6000   6.907   6.659   2.710 -0.5644  0.8183 -0.9048
 2019TIP3    H2 6001   6.782   6.641   2.793  0.7935 -0.7190  0.8530
 2020TIP3   OH2 6002   3.474   1.230   3.417 -0.1808  0.1054 -0.1763
 2020TIP3    H1 6003   3.461   1.251   3.324 -1.4217  0.1048 -0.0158
 2020TIP3    H2 6004   3.520   1.147   3.417 -0.6926 -0.1846 -0.7961
 2021TIP3   OH2 6005   3.045   0.597   2.272  0.3593 -0.0934  0.5233
 2021TIP3    H1 6006   3.064   0.675   2.323  0.0747 -0.9197  1.9009
 2021TIP3    H2 6007   2.950   0.587   2.279  0.1783  0.3688 -1.0289
 2022TIP3   OH2 6008   1.040   6.900   3.087  0.6234 -0.4553  0.1072
 2022TIP3    H1 6009   1.130   6.888   3.118  0.6471 -1.9940 -0.5371
 2022TIP3    H2 6010   1.038   6.859   3.001 -0.8107 -0.8008  0.2903
 2023TIP3   OH2 6011   0.427   6.157   2.059 -0.1709 -0.3803  0.3867
 2023TIP3    H1 6012   0.371   6.207   1.999 -1.3152 -1.6008  0.4058
 2023TIP3    H2 6013   0.505   6.211   2.070 -1.1108  1.0934 -0.0881
 2024TIP3   OH2 6014   3.609   3.450   2.819 -0.5892  0.4176 -0.2182
 2024TIP3    H1 6015   3.554   3.380   2.854 -0.8310  1.2866  1.1823
 2024TIP3    H2 6016   3.687   3.449   2.874 -0.2848  0.7923 -0.6382
 2025TIP3   OH2 6017   5.182   2.025   1.403  0.1127 -0.0863  0.0785
 2025TIP3    H1 6018   5.217   1.937   1.415 -0.0025 -0.4584 -2.1777
 2025TIP3    H2 6019   5.259   2.080   1.388  0.1010 -0.0198  0.2635
 2026TIP3   OH2 6020   8.222   7.947   3.051  0.0377 -0.1970  0.5468
 2026TIP3    H1 6021   8.228   7.882   2.981 -1.2055  0.0860  0.1631
 2026TIP3    H2 6022   8.199   8.029   3.006  1.4183  0.4752  1.0413
 2027TIP3   OH2 6023   1.991   6.546   3.340 -0.0496 -0.1252 -0.0084
 2027TIP3    H1 6024   1.964   6.571   3.251  0.1283  0.7411  0.1729
 2027TIP3    H2 6025   1.940   6.467   3.359  0.7146 -0.9377 -1.2851
 2028TIP3   OH2 6026   0.194   5.186   3.357  0.2130 -0.2282  0.7129
 2028TIP3    H1 6027   0.150   5.271   3.345  1.2908  0.7025  3.0114
 2028TIP3    H2 6028   0.171   5.160   3.447  1.9127 -1.1562  0.8941
 2029TIP3   OH2 6029   4.245   0.250   2.811 -0.6012 -0.3145  0.6138
 2029TIP3    H1 6030   4.284   0.214   2.731 -1.4252  0.4109 -0.1273
 2029TIP3    H2 6031   4.295   0.210   2.882 -0.6533 -1.9187 -0.2247
 2030TIP3   OH2 6032   4.072   0.706   3.234  0.4206  0.3129  0.0116
 2030TIP3    H1 6033   4.026   0.622   3.229  2.5088 -1.0978  2.9647
 2030TIP3    H2 6034   4.159   0.687   3.197 -0.3006  2.1867 -2.7925
 2031TIP3   OH2 6035   4.802   0.070   5.279  0.4429  0.1672 -0.3667
 2031TIP3    H1 6036   4.772  -0.018   5.301  1.5071  0.0365  0.5863
 2031TIP3    H2 6037   4.837   0.062   5.190 -0.7385 -0.0461 -0.8267
 2032TIP3   OH2 6038   1.616   7.629   2.535  0.1060  0.0249 -0.3900
 2032TIP3    H1 6039   1.549   7.696   2.519 -1.9460 -2.4940 -2.9316
 2032TIP3    H2 6040   1.578   7.574   2.604  0.2834 -0.4365 -0.6575
 2033TIP3   OH2 6041   1.190   7.858   4.420  0.1623 -0.0923 -0.4605
 2033TIP3    H1 6042   1.169   7.776   4.463  0.7321 -0.3494 -0.6619
 2033TIP3    H2 6043   1.286   7.860   4.417  0.1402 -0.7220 -2.9062
 2034TIP3   OH2 6044   3.422   0.579   2.660  0.8135  0.0292 -0.0689
 2034TIP3    H1 6045   3.474   0.641   2.711  0.6136  1.2795 -1.3424
 2034TIP3    H2 6046   3.469   0.571   2.577  0.1761 -0.5686 -0.3754
 2035TIP3   OH2 6047   0.450   7.156   2.777  0.5806  0.0032  0.1388
 2035TIP3    H1 6048   0.505   7.234   2.783  3.2631 -1.7826 -0.0982
 2035TIP3    H2 6049   0.429   7.149   2.684 -0.8449  1.1778  0.3507
 2036TIP3   OH2 6050   0.996   7.859   5.377  0.5588  0.5231 -0.0360
 2036TIP3    H1 6051   0.927   7.892   5.320 -1.5855 -2.3692  0.7730
 2036TIP3    H2 6052   1.077   7.883   5.333 -0.9862 -1.7222 -4.4573
 2037TIP3   OH2 6053   1.293   7.651   3.700  0.2132  0.1765 -0.3171
 2037TIP3    H1 6054   1.271   7.730   3.749  1.4394 -0.1653  0.8105
 2037TIP3    H2 6055   1.357   7.680   3.635  0.1308  0.2452 -0.3672
 2038TIP3   OH2 6056   3.651   0.330   2.300  0.7402  0.2924  0.2105
 2038TIP3    H1 6057   3.721   0.265   2.310  1.1429  0.4082 -1.5537
 2038TIP3    H2 6058   3.570   0.280   2.307  1.0405 -0.2827 -0.2949
 2039TIP3   OH2 6059   6.126   2.024   4.659 -0.4273 -0.2224  0.3980
 2039TIP3    H1 6060   6.120   2.086   4.732  1.0494 -0.4193  0.7043
 2039TIP3    H2 6061   6.101   1.939   4.697  1.7000 -0.5821  1.0359
 2040TIP3   OH2 6062   1.374   7.100   2.669  0.6222  0.2084  0.0567
 2040TIP3    H1 6063   1.408   7.146   2.593  0.7698  0.6569  0.3945
 2040TIP3    H2 6064   1.283   7.129   2.675  1.4356  2.5740  1.8618
 2041TIP3   OH2 6065   4.475   0.721   4.062  0.0653 -0.4224  0.0038
 2041TIP3    H1 6066   4.528   0.699   3.986 -1.0648 -0.4979 -0.7659
 2041TIP3    H2 6067   4.431   0.802   4.039 -1.6579 -1.3802 -0.1243
 2042TIP3   OH2 6068   0.197   7.992   3.004 -0.9548 -0.0304 -0.8612
 2042TIP3    H1 6069   0.205   7.962   3.095 -0.9073  2.0009 -0.1666
 2042TIP3    H2 6070   0.103   8.007   2.992 -0.8017  1.1662 -0.6412
 2043TIP3   OH2 6071   5.235   1.661   4.240 -0.3639  0.2605  0.0970
 2043TIP3    H1 6072   5.307   1.613   4.281  0.0227  0.4672 -0.3373
 2043TIP3    H2 6073   5.217   1.734   4.300  2.3039  2.4084 -1.5826
 2044TIP3   OH2 6074   2.059   7.803   0.940  0.2986 -0.2750  0.0975
 2044TIP3    H1 6075   2.140   7.774   0.898 -0.6975 -2.2055 -0.5504
 2044TIP3    H2 6076   1.990   7.750   0.899 -1.5685  2.7370 -0.8123
 2045TIP3   OH2 6077   6.483   0.428   4.426  0.4297  0.5675 -0.0446
 2045TIP3    H1 6078   6.491   0.378   4.507 -0.3013  0.3760 -0.0937
 2045TIP3    H2 6079   6.481   0.519   4.454  0.1433  0.4996  0.1486
 2046TIP3   OH2 6080   3.845   0.642   2.684 -0.5399 -0.5225  0.0759
 2046TIP3    H1 6081   3.786   0.644   2.759  0.9459  0.8279  1.2395
 2046TIP3    H2 6082   3.798   0.591   2.618 -2.4383 -0.5788  1.4311
 2047TIP3   OH2 6083   5.594   1.589   4.719 -0.9730 -0.4535 -0.0963
 2047TIP3    H1 6084   5.503   1.558   4.723 -1.3708  0.7166 -0.0950
 2047TIP3    H2 6085   5.588   1.679   4.690 -0.0088  0.5381  2.5937
 2048TIP3   OH2 6086   1.511   7.015   1.482 -0.3130  0.1229 -0.2394
 2048TIP3    H1 6087   1.529   6.989   1.572 -0.2595 -3.0695 -1.0955
 2048TIP3    H2 6088   1.572   7.086   1.465  1.0505 -0.5687  1.6111
 2049TIP3   OH2 6089   6.026   1.642   2.757 -0.1085  0.0750 -0.3874
 2049TIP3    H1 6090   6.061   1.610   2.840  1.5758  0.9297 -0.7611
 2049TIP3    H2 6091   6.098   1.690   2.717 -1.1351  0.2901 -2.0199
 2050TIP3   OH2 6092   4.665   2.279   2.381  0.1719 -0.2391 -0.4342
 2050TIP3    H1 6093   4.714   2.335   2.320 -0.6649 -0.2174 -1.0978
 2050TIP3    H2 6094   4.732   2.234   2.432  0.8898 -0.9877 -2.0301
 2051TIP3   OH2 6095   7.454   7.606   0.362 -0.1935 -0.2866 -0.3203
 2051TIP3    H1 6096   7.482   7.614   0.271  2.4462 -1.1815  0.3959
 2051TIP3    H2 6097   7.496   7.526   0.394 -0.0329  0.7056  2.0546
 2052TIP3   OH2 6098   3.138   0.561   0.965  0.4634 -0.0314  0.5990
 2052TIP3    H1 6099   3.055   0.594   0.999  0.3178  0.6133 -0.3522
 2052TIP3    H2 6100   3.152   0.479   1.011  0.0920  0.6356  1.9214
 2053TIP3   OH2 6101   2.530   0.209   1.688  0.0802 -0.4501  0.6504
 2053TIP3    H1 6102   2.550   0.279   1.625  0.8333 -0.8671  0.4137
 2053TIP3    H2 6103   2.564   0.242   1.771  2.8155 -1.5905  0.0551
 2054TIP3   OH2 6104   0.551   7.142   3.875 -0.3074 -0.3587 -0.0041
 2054TIP3    H1 6105   0.542   7.220   3.929  1.1663 -0.1870  0.0097
 2054TIP3    H2 6106   0.619   7.091   3.919  0.6367 -0.3926 -1.5054
 2055TIP3   OH2 6107   1.169   5.059   1.107  0.5044  0.5128 -0.2914
 2055TIP3    H1 6108   1.118   4.978   1.114 -0.8605  1.5244  1.6282
 2055TIP3    H2 6109   1.146   5.094   1.021 -1.0907  0.3050  0.0327
 2056TIP3   OH2 6110   0.656   7.794   3.604  0.5073 -0.1442 -0.3963
 2056TIP3    H1 6111   0.697   7.791   3.518 -1.2708 -2.8158 -1.1958
 2056TIP3    H2 6112   0.711   7.738   3.659  1.2420  1.0024  0.0643
 2057TIP3   OH2 6113   1.206   6.698   1.573 -0.0778 -0.3153  0.9184
 2057TIP3    H1 6114   1.253   6.739   1.501 -1.7326 -0.0732 -0.0455
 2057TIP3    H2 6115   1.248   6.613   1.584  0.6592 -0.0523  0.1646
 2058TIP3   OH2 6116   2.377   0.126   2.180 -0.0418  0.0600 -0.3082
 2058TIP3    H1 6117   2.288   0.158   2.167  0.1995  1.1428  0.6175
 2058TIP3    H2 6118   2.427   0.203   2.205  0.5279 -1.0540  2.1501
 2059TIP3   OH2 6119   4.329   1.721   2.391 -0.1920  0.2298  0.3753
 2059TIP3    H1 6120   4.307   1.760   2.307  0.4970  0.3635  0.2573
 2059TIP3    H2 6121   4.410   1.764   2.418  0.7284 -1.2969  0.1055
 2060TIP3   OH2 6122   2.827   7.624   0.944  0.1796 -0.6543 -0.4323
 2060TIP3    H1 6123   2.850   7.599   1.034 -1.1352 -0.3451  0.0016
 2060TIP3    H2 6124   2.888   7.694   0.923 -0.2236  0.0455  0.6455
 2061TIP3   OH2 6125   1.709   0.817   3.196  0.4474 -0.2592 -0.2967
 2061TIP3    H1 6126   1.739   0.769   3.120  0.1499 -0.5662 -0.2211
 2061TIP3    H2 6127   1.766   0.894   3.201  0.5543 -0.3135 -0.7442
 2062TIP3   OH2 6128   0.637   6.604   4.546  0.5219  0.0766  0.0412
 2062TIP3    H1 6129   0.642   6.673   4.613 -1.3361  0.3229 -0.0447
 2062TIP3    H2 6130   0.692   6.637   4.474  0.3786  1.0465  0.3622
 2063TIP3   OH2 6131   5.582   0.559   1.858  0.4432  0.1602 -0.0171
 2063TIP3    H1 6132   5.559   0.610   1.780  0.1552 -1.2198 -0.8523
 2063TIP3    H2 6133   5.501   0.512   1.881  1.1800 -1.3185 -0.3591
 2064TIP3   OH2 6134   3.136   0.996   3.696  0.7225  0.1235  0.7345
 2064TIP3    H1 6135   3.065   1.049   3.733  0.5592  0.3096  0.1630
 2064TIP3    H2 6136   3.101   0.907   3.696 -0.3193  0.5010 -1.4492
 2065TIP3   OH2 6137   3.780   1.239   5.460  0.6213  0.1741 -0.0988
 2065TIP3    H1 6138   3.757   1.324   5.422 -1.9994 -0.4346  0.0187
 2065TIP3    H2 6139   3.696   1.196   5.475  1.8594 -1.9447  1.0175
 2066TIP3   OH2 6140   7.374   7.565   3.359  0.1740 -0.0388  0.1541
 2066TIP3    H1 6141   7.319   7.622   3.411 -0.5103 -0.4772 -0.0878
 2066TIP3    H2 6142   7.383   7.609   3.275  0.4654  0.1909  0.3046
 2067TIP3   OH2 6143   4.433   0.841   2.344 -0.1415 -0.3438 -0.3772
 2067TIP3    H1 6144   4.378   0.809   2.272  1.0679 -1.7771 -0.6837
 2067TIP3    H2 6145   4.461   0.762   2.390  1.3822  0.3898 -0.0251
 2068TIP3   OH2 6146   3.935   0.439   6.651  0.4973 -0.3446 -0.4230
 2068TIP3    H1 6147   4.030   0.449   6.651  0.5675 -1.0142  0.7756
 2068TIP3    H2 6148   3.913   0.405   6.737 -0.9631  0.9562 -0.2383
 2069TIP3   OH2 6149   4.222   0.937   0.556  0.0969  0.5916  0.1872
 2069TIP3    H1 6150   4.200   0.859   0.606  0.9293 -0.6883 -1.3886
 2069TIP3    H2 6151   4.141   0.960   0.509 -0.8731  2.1743  2.5525
 2070TIP3   OH2 6152   3.534   0.602   6.136  0.8877  0.3952  0.0513
 2070TIP3    H1 6153   3.574   0.557   6.062 -0.0446  1.0894 -0.8764
 2070TIP3    H2 6154   3.487   0.533   6.183  1.3242 -0.0058 -0.0849
 2071TIP3   OH2 6155   3.340   0.701   3.972 -0.2514  0.2480 -0.0580
 2071TIP3    H1 6156   3.265   0.650   3.940  1.4579 -2.2469 -0.2762
 2071TIP3    H2 6157   3.307   0.747   4.049 -2.2645  0.0128 -0.7479
 2072TIP3   OH2 6158   1.553   0.738   4.111 -0.0825 -0.2835  0.0926
 2072TIP3    H1 6159   1.515   0.811   4.063 -0.2447 -0.0497  0.5739
 2072TIP3    H2 6160   1.636   0.720   4.066 -0.9014 -1.0075 -1.1639
 2073TIP3   OH2 6161   1.397   6.268   0.607  0.2300 -0.0629 -0.0484
 2073TIP3    H1 6162   1.461   6.339   0.603 -0.0224  0.1721  0.0599
 2073TIP3    H2 6163   1.421   6.219   0.686  0.5300 -0.2215 -0.2358
 2074TIP3   OH2 6164   2.059   7.272   4.808 -0.1545 -0.5639  0.1310
 2074TIP3    H1 6165   2.090   7.212   4.740 -0.3899 -0.5332 -0.0039
 2074TIP3    H2 6166   2.025   7.347   4.759 -1.4344 -1.0696  0.2401
 2075TIP3   OH2 6167   3.410   5.747   1.832 -0.3604 -0.3330 -0.7348
 2075TIP3    H1 6168   3.497   5.741   1.794  1.0649 -0.1745  2.3127
 2075TIP3    H2 6169   3.385   5.656   1.851 -0.2950 -0.2938 -0.4488
 2076TIP3   OH2 6170   4.237   1.889   2.135 -0.3364 -0.5823 -0.3435
 2076TIP3    H1 6171   4.150   1.913   2.101  0.4377  1.2204 -1.1412
 2076TIP3    H2 6172   4.279   1.973   2.152  1.5124 -1.4439 -0.6008
 2077TIP3   OH2 6173   0.312   7.709   1.930 -0.2637 -0.5690 -0.1469
 2077TIP3    H1 6174   0.378   7.702   1.999  0.2734 -0.5341 -0.6539
 2077TIP3    H2 6175   0.331   7.636   1.871 -0.9783 -0.8442 -0.0429
 2078TIP3   OH2 6176   1.065   4.167   3.844  0.1277  0.6674 -0.1392
 2078TIP3    H1 6177   1.152   4.203   3.862  0.0956 -0.0542  1.4552
 2078TIP3    H2 6178   1.004   4.234   3.874  0.1022  0.2529  0.7361
 2079TIP3   OH2 6179   3.378   1.105   1.224  0.2043  0.2535 -0.5585
 2079TIP3    H1 6180   3.466   1.093   1.188  0.4302 -0.5228  0.2156
 2079TIP3    H2 6181   3.366   1.029   1.282 -0.5975  0.8568  0.0682
 2080TIP3   OH2 6182   3.037   7.068   3.529 -0.1415  0.0269 -0.2011
 2080TIP3    H1 6183   2.968   7.067   3.595  1.3759 -0.8497  1.4055
 2080TIP3    H2 6184   3.020   7.147   3.478 -0.9814  1.0631  1.6278
 2081TIP3   OH2 6185   4.207   0.360   4.502 -0.5818 -0.3348 -0.1242
 2081TIP3    H1 6186   4.218   0.454   4.519 -0.2205 -0.0472 -1.8012
 2081TIP3    H2 6187   4.273   0.318   4.557 -1.2051  0.3332  1.1679
 2082TIP3   OH2 6188   2.668   1.063   2.249 -0.0378  0.1647  0.1846
 2082TIP3    H1 6189   2.584   1.025   2.275  0.8483 -2.1831 -0.2287
 2082TIP3    H2 6190   2.700   1.108   2.327 -0.1535 -1.7691  1.3727
 2083TIP3   OH2 6191   0.674   7.954   2.950 -0.1950  0.2102 -0.3096
 2083TIP3    H1 6192   0.685   7.964   3.045  0.0631 -2.4298 -0.0206
 2083TIP3    H2 6193   0.581   7.937   2.938 -0.4320  1.6582 -0.6766
 2084TIP3   OH2 6194   4.828   2.205   4.051  1.5190 -0.4304 -0.0607
 2084TIP3    H1 6195   4.768   2.171   4.117  0.0285  1.4187 -0.4015
 2084TIP3    H2 6196   4.808   2.155   3.972  1.1975 -0.5886  0.1181
 2085TIP3   OH2 6197   6.406   0.864   4.938 -0.4459 -0.2472 -0.3704
 2085TIP3    H1 6198   6.431   0.915   4.861  2.1937  0.2034  0.6993
 2085TIP3    H2 6199   6.360   0.926   4.994 -0.6807 -0.0681 -0.7622
 2086TIP3   OH2 6200   8.277   7.928   6.876 -0.1780 -0.6010 -0.7558
 2086TIP3    H1 6201   8.238   7.853   6.920 -1.5343 -0.6457 -2.0213
 2086TIP3    H2 6202   8.238   8.004   6.919 -1.1646 -0.6423 -1.5714
 2087TIP3   OH2 6203   0.846   7.589   2.240  0.1032  0.1226 -0.0190
 2087TIP3    H1 6204   0.883   7.638   2.166 -0.6223  0.8888  0.1227
 2087TIP3    H2 6205   0.858   7.647   2.315  1.3677 -0.8936  0.5844
 2088TIP3   OH2 6206   0.376   5.807   2.531  0.3316 -0.9453 -0.6130
 2088TIP3    H1 6207   0.310   5.804   2.462  0.5764 -0.6262 -0.8583
 2088TIP3    H2 6208   0.328   5.836   2.609  0.1324 -0.9491 -0.7343
 2089TIP3   OH2 6209   0.971   7.383   4.442  0.2306 -0.3034  0.3404
 2089TIP3    H1 6210   1.056   7.339   4.439  0.0274 -0.7158  0.5806
 2089TIP3    H2 6211   0.931   7.366   4.356 -0.1440 -1.1893  0.6807
 2090TIP3   OH2 6212   2.766   2.964   2.030 -0.3081 -0.3612 -0.1232
 2090TIP3    H1 6213   2.675   2.933   2.025 -0.5277  0.3417 -0.5877
 2090TIP3    H2 6214   2.758   3.057   2.054  0.2740 -0.1989 -0.5589
 2091TIP3   OH2 6215   5.804   1.309   3.704  0.1672  0.3200  0.6643
 2091TIP3    H1 6216   5.757   1.244   3.755  1.0850 -0.2055  0.8344
 2091TIP3    H2 6217   5.756   1.313   3.621  1.2988 -2.0541 -0.1398
 2092TIP3   OH2 6218   4.096   2.331   3.773  0.7630  0.2030 -0.7242
 2092TIP3    H1 6219   4.078   2.244   3.808 -0.1199  0.9862  0.7933
 2092TIP3    H2 6220   4.188   2.328   3.750  0.5266 -1.4388 -1.5786
 2093TIP3   OH2 6221   5.966   1.082   2.862  0.6942 -0.3201  0.1274
 2093TIP3    H1 6222   5.908   1.016   2.825 -1.2055  2.2176 -1.6153
 2093TIP3    H2 6223   6.035   1.094   2.797  0.5506  0.0303  0.0362
 2094TIP3   OH2 6224   2.106   7.508   4.379  0.9389  0.2168  0.0021
 2094TIP3    H1 6225   2.163   7.481   4.451 -0.6681  1.6512  1.8586
 2094TIP3    H2 6226   2.124   7.601   4.368 -0.1057  0.3917 -0.2585
 2095TIP3   OH2 6227   3.688   0.220   3.312 -0.4516  0.4158 -1.0454
 2095TIP3    H1 6228   3.627   0.184   3.248 -0.2164 -0.6902 -0.6571
 2095TIP3    H2 6229   3.641   0.292   3.353 -2.3608 -1.7875  0.8055
 2096TIP3   OH2 6230   2.944   7.952   4.777  0.0962 -0.0484 -0.3762
 2096TIP3    H1 6231   2.869   7.898   4.800  0.2263 -0.7893 -1.5956
 2096TIP3    H2 6232   2.981   7.980   4.860 -1.5384  0.3427  0.2337
 2097TIP3   OH2 6233   1.953   7.975   3.445  0.6173  0.0852  0.1660
 2097TIP3    H1 6234   2.008   7.898   3.455 -1.6203 -1.7727 -1.3835
 2097TIP3    H2 6235   1.873   7.955   3.494 -0.1314  1.2715 -0.5278
 2098TIP3   OH2 6236   3.993   1.549   2.061 -0.0468  0.1381 -0.3865
 2098TIP3    H1 6237   3.933   1.549   1.987 -0.4603 -0.8899 -0.0575
 2098TIP3    H2 6238   3.942   1.583   2.134  0.2781  0.8808 -0.4967
 2099TIP3   OH2 6239   6.854   1.480   3.722  0.1859  0.0390  0.3603
 2099TIP3    H1 6240   6.804   1.554   3.758 -0.6188 -1.0168  1.4183
 2099TIP3    H2 6241   6.885   1.433   3.798  1.3942 -0.2672 -0.3161
 2100TIP3   OH2 6242   1.168   7.818   3.882 -0.0701 -0.0549  0.1966
 2100TIP3    H1 6243   1.109   7.781   3.947 -2.4300  1.1912 -1.1828
 2100TIP3    H2 6244   1.125   7.899   3.853  0.8885 -0.5938 -2.9206
 2101TIP3   OH2 6245   6.379   6.988   2.579 -0.2463  0.5858  0.9203
 2101TIP3    H1 6246   6.403   7.046   2.507  1.9383 -1.5535 -0.1322
 2101TIP3    H2 6247   6.412   7.032   2.657  1.1078  0.9215  0.1707
 2102TIP3   OH2 6248   6.261   0.399   4.863  0.8065  0.5417 -0.0244
 2102TIP3    H1 6249   6.320   0.474   4.876 -0.4634  1.5800 -0.1186
 2102TIP3    H2 6250   6.195   0.410   4.931  0.7235 -0.6223  0.0817
 2103TIP3   OH2 6251   4.602   1.144   3.644 -0.1615  0.0215  0.0847
 2103TIP3    H1 6252   4.614   1.099   3.561 -0.5074  0.5674 -0.2672
 2103TIP3    H2 6253   4.690   1.175   3.668  0.1917 -1.4076  0.6688
 2104TIP3   OH2 6254   6.661   0.326   2.260  0.1578 -0.1807  0.0121
 2104TIP3    H1 6255   6.622   0.242   2.238 -0.0990 -0.5516  1.7990
 2104TIP3    H2 6256   6.621   0.350   2.344 -1.0216  2.5156 -1.2469
 2105TIP3   OH2 6257   5.832   0.403   1.853  0.7266  0.6449 -0.3624
 2105TIP3    H1 6258   5.851   0.340   1.783 -1.0376  0.5033 -0.7545
 2105TIP3    H2 6259   5.814   0.485   1.807 -0.4330  0.5515 -0.1043
 2106TIP3   OH2 6260   4.044   1.186   3.204  0.0918  0.3537 -0.5863
 2106TIP3    H1 6261   4.081   1.103   3.235 -0.5816  0.0205 -0.6708
 2106TIP3    H2 6262   4.089   1.204   3.122  1.0333  0.6383 -0.0181
 2107TIP3   OH2 6263   0.208   7.523   3.665 -0.3072 -0.3468 -0.0988
 2107TIP3    H1 6264   0.302   7.510   3.662 -0.3130 -1.1016  2.1544
 2107TIP3    H2 6265   0.172   7.438   3.691 -1.7202 -0.3836 -2.0136
 2108TIP3   OH2 6266   1.419   6.285   3.312 -0.4408  1.1554  0.5426
 2108TIP3    H1 6267   1.420   6.338   3.232  1.3612 -1.7573 -1.4830
 2108TIP3    H2 6268   1.512   6.264   3.327 -1.1970 -2.7035  0.3174
 2109TIP3   OH2 6269   4.836   0.403   3.743 -0.5695  0.1935 -0.0919
 2109TIP3    H1 6270   4.815   0.356   3.823  1.3395 -1.5636 -0.5909
 2109TIP3    H2 6271   4.808   0.345   3.673  3.4847 -1.1609 -0.7335
 2110TIP3   OH2 6272   2.820   1.062   3.069  0.0840  0.0259 -0.0233
 2110TIP3    H1 6273   2.807   1.128   3.001  0.5333 -0.5603 -0.6832
 2110TIP3    H2 6274   2.822   1.112   3.151  1.7966  0.9820 -0.6292
 2111TIP3   OH2 6275   3.012   0.842   2.391  0.4741  0.5335  0.7503
 2111TIP3    H1 6276   2.990   0.917   2.447  0.5194 -0.4793  2.1463
 2111TIP3    H2 6277   3.064   0.880   2.320 -1.3776  2.1681  0.2159
 2112TIP3   OH2 6278   5.041   0.039   5.413 -0.2740  0.3274  0.2270
 2112TIP3    H1 6279   4.963   0.082   5.379  0.2767  1.0327 -0.1543
 2112TIP3    H2 6280   5.011  -0.005   5.493 -1.3951 -0.6625 -0.7165
 2113TIP3   OH2 6281   3.741   1.612   3.482 -0.0406 -0.2361 -0.1663
 2113TIP3    H1 6282   3.661   1.662   3.469 -0.4496  0.1607  3.4496
 2113TIP3    H2 6283   3.711   1.528   3.518  1.0744 -0.6627 -0.2178
 2114TIP3   OH2 6284   2.716   0.171   2.707 -0.2560  0.1453 -0.1864
 2114TIP3    H1 6285   2.704   0.122   2.626 -3.0915 -1.6551  1.2476
 2114TIP3    H2 6286   2.754   0.108   2.769  0.6576  1.1402  0.2958
 2115TIP3   OH2 6287   3.471   2.355   3.608  0.1558  0.0305  0.2169
 2115TIP3    H1 6288   3.410   2.420   3.572 -0.3316 -0.1454  0.7281
 2115TIP3    H2 6289   3.550   2.366   3.555  0.4257  1.7167  0.9177
 2116TIP3   OH2 6290   2.496   6.350   3.242 -0.6012  0.3498  0.1704
 2116TIP3    H1 6291   2.437   6.292   3.195 -0.0024  1.1848 -1.6707
 2116TIP3    H2 6292   2.447   6.431   3.253 -0.9341 -0.0202  1.4930
 2117TIP3   OH2 6293   3.075   0.985   2.904  0.2873  0.1289 -0.7564
 2117TIP3    H1 6294   3.018   1.016   2.974 -2.0176  0.2872 -2.6300
 2117TIP3    H2 6295   3.039   0.900   2.879 -0.2548  1.0231 -3.1579
 2118TIP3   OH2 6296   6.210   3.110   4.701  0.1450 -0.3369 -0.0699
 2118TIP3    H1 6297   6.159   3.035   4.732 -0.9897  0.4480 -0.0059
 2118TIP3    H2 6298   6.218   3.095   4.606  0.9413 -1.1290  0.1086
 2119TIP3   OH2 6299   2.877   1.560   1.939 -0.1120 -0.3762 -0.0996
 2119TIP3    H1 6300   2.967   1.546   1.911 -0.0711  1.4104 -0.8779
 2119TIP3    H2 6301   2.885   1.599   2.026 -0.1703 -1.2742  0.3199
 2120TIP3   OH2 6302   2.589   1.533   3.379 -0.2275 -0.0917  0.1598
 2120TIP3    H1 6303   2.567   1.613   3.427 -1.8366 -1.0888  1.1353
 2120TIP3    H2 6304   2.505   1.500   3.347  0.4937 -1.0513 -0.7969
 2121TIP3   OH2 6305   2.562   6.393   0.637 -0.6951 -0.0965 -0.1821
 2121TIP3    H1 6306   2.506   6.321   0.668  0.2058 -0.2605  1.1296
 2121TIP3    H2 6307   2.615   6.354   0.568 -1.0277 -0.3816 -0.2800
 2122TIP3   OH2 6308   3.420   2.348   2.831 -0.2965 -0.2122  0.4270
 2122TIP3    H1 6309   3.446   2.380   2.745  0.1656  1.3881  1.1312
 2122TIP3    H2 6310   3.491   2.290   2.858 -0.7923 -1.3018 -0.5629
 2123TIP3   OH2 6311   8.080   7.367   3.391  0.1788 -0.3881  0.5364
 2123TIP3    H1 6312   8.110   7.286   3.431  1.0415 -1.6128 -2.4586
 2123TIP3    H2 6313   8.059   7.343   3.301  0.0696  2.6289 -0.3027
 2124TIP3   OH2 6314   5.760   0.898   1.828  0.1989  0.4973 -0.1399
 2124TIP3    H1 6315   5.824   0.936   1.888  0.9783  0.4042 -0.9037
 2124TIP3    H2 6316   5.788   0.927   1.741  0.7801 -1.7281 -0.7412
 2125TIP3   OH2 6317   2.359   1.356   3.093 -0.0980 -0.3346 -0.6478
 2125TIP3    H1 6318   2.386   1.281   3.041  1.1043  0.0161 -0.5418
 2125TIP3    H2 6319   2.268   1.373   3.066 -0.0128 -1.1451 -1.4512
 2126TIP3   OH2 6320   6.836   3.386   2.644  0.4506 -0.2939 -0.2865
 2126TIP3    H1 6321   6.923   3.359   2.614 -0.0847 -2.5181  0.1348
 2126TIP3    H2 6322   6.775   3.326   2.601 -0.6252 -0.9414  2.0529
 2127TIP3   OH2 6323   4.129   0.735   3.546 -0.1899  0.0060  0.5376
 2127TIP3    H1 6324   4.072   0.738   3.622 -0.5911 -1.0556  0.2826
 2127TIP3    H2 6325   4.078   0.689   3.479  0.7184 -0.3773  0.1043
 2128TIP3   OH2 6326   7.162   0.185   0.635  0.3899  0.2138  0.0651
 2128TIP3    H1 6327   7.169   0.270   0.593  1.2273  0.9461  1.6506
 2128TIP3    H2 6328   7.156   0.204   0.729  0.2737 -1.4501  0.4156
 2129TIP3   OH2 6329   6.460   1.129   2.628 -0.0518 -0.1568  0.3583
 2129TIP3    H1 6330   6.367   1.115   2.611  0.2814  0.5387 -2.3401
 2129TIP3    H2 6331   6.488   1.050   2.675 -1.7935 -0.7638  0.4234
 2130TIP3   OH2 6332   8.380   0.806   3.754  0.3354  0.2305  0.3277
 2130TIP3    H1 6333   8.378   0.901   3.765 -0.8069  0.1261  1.1260
 2130TIP3    H2 6334   8.422   0.792   3.669  1.5454  1.3995  0.7230
 2131TIP3   OH2 6335   6.769   1.543   1.881  0.3859 -0.2888 -0.3338
 2131TIP3    H1 6336   6.682   1.518   1.913  0.5889 -2.3372 -1.3140
 2131TIP3    H2 6337   6.800   1.608   1.945 -2.5716  1.8081 -0.9564
 2132TIP3   OH2 6338   5.666   0.797   3.390  0.1465  0.0069  0.6696
 2132TIP3    H1 6339   5.697   0.859   3.456  1.3619  0.2565 -0.1008
 2132TIP3    H2 6340   5.614   0.851   3.330  1.1414  0.2942  0.0420
 2133TIP3   OH2 6341   6.456   0.128   2.242  0.1630 -0.3964  0.0034
 2133TIP3    H1 6342   6.425   0.108   2.154 -0.3707  1.6541 -0.2942
 2133TIP3    H2 6343   6.417   0.060   2.297 -0.1488 -1.2166 -1.2169
 2134TIP3   OH2 6344   6.445   2.336   0.945 -0.5328  0.5233 -0.0398
 2134TIP3    H1 6345   6.446   2.326   0.850 -0.9928  0.1980 -0.0132
 2134TIP3    H2 6346   6.536   2.326   0.971 -0.3678  0.8933 -0.4748
 2135TIP3   OH2 6347   5.576   7.849   2.659  0.3813  0.6574 -0.2189
 2135TIP3    H1 6348   5.530   7.886   2.583  0.9120 -0.3767 -1.0691
 2135TIP3    H2 6349   5.614   7.924   2.704 -2.6047  1.5960  0.8162
 2136TIP3   OH2 6350   6.152   1.679   2.250  0.7004 -0.5736 -0.4459
 2136TIP3    H1 6351   6.222   1.656   2.312 -0.2964 -0.9361  0.5533
 2136TIP3    H2 6352   6.198   1.722   2.178  1.5344  2.9474  2.0743
 2137TIP3   OH2 6353   4.470   7.758   1.670  0.3709  0.0264 -0.0641
 2137TIP3    H1 6354   4.468   7.669   1.636  0.6687 -0.1894  0.4694
 2137TIP3    H2 6355   4.462   7.748   1.765  0.1085  0.5833 -0.0213
 2138TIP3   OH2 6356   7.724   3.788   2.992 -0.3642  0.1190  0.4766
 2138TIP3    H1 6357   7.810   3.776   2.951 -0.4459  0.5638  0.1767
 2138TIP3    H2 6358   7.740   3.774   3.085  0.1787  0.9533  0.5072
 2139TIP3   OH2 6359   5.317   0.770   3.431  0.0549  0.6084  0.1808
 2139TIP3    H1 6360   5.387   0.819   3.388 -1.2408  2.6215  0.3275
 2139TIP3    H2 6361   5.327   0.789   3.524 -0.0395  0.0065  0.3213
 2140TIP3   OH2 6362   1.420   0.124   4.820  0.2238  0.0861 -0.1609
 2140TIP3    H1 6363   1.436   0.039   4.862  0.6287 -0.1022 -0.6825
 2140TIP3    H2 6364   1.493   0.134   4.759  0.0574  0.7124 -0.2594
 2141TIP3   OH2 6365   8.114   0.062   3.924  0.2582 -0.3607 -0.1281
 2141TIP3    H1 6366   8.198   0.017   3.914  1.9960  1.7627  3.7929
 2141TIP3    H2 6367   8.108   0.118   3.846  1.9837 -1.2477 -0.9491
 2142TIP3   OH2 6368   0.345   1.212   0.685  0.4193 -0.3264 -0.1803
 2142TIP3    H1 6369   0.251   1.229   0.674  0.3222 -0.6900  0.1153
 2142TIP3    H2 6370   0.381   1.295   0.716  0.1608 -0.2525 -0.0806
 2143TIP3   OH2 6371   7.837   1.492   1.936 -0.4366 -0.0948 -0.5450
 2143TIP3    H1 6372   7.794   1.453   1.860  0.4674 -1.2404 -0.4822
 2143TIP3    H2 6373   7.844   1.585   1.915 -1.1073 -0.2383 -1.4205
 2144TIP3   OH2 6374   6.752   0.501   1.240  0.3547 -0.0837 -0.3401
 2144TIP3    H1 6375   6.659   0.520   1.245  0.4998  0.3951  0.6606
 2144TIP3    H2 6376   6.781   0.544   1.160 -0.4636 -1.0518 -1.1723
 2145TIP3   OH2 6377   5.479   2.002   5.546 -0.0941  0.3070 -0.2941
 2145TIP3    H1 6378   5.412   1.941   5.513  1.3668 -1.4253 -0.1244
 2145TIP3    H2 6379   5.490   1.978   5.638 -0.3310  1.6178  0.0871
 2146TIP3   OH2 6380   5.286   2.250   4.628 -0.0181 -0.1703 -0.6209
 2146TIP3    H1 6381   5.242   2.168   4.608 -1.9636  0.6478  0.1253
 2146TIP3    H2 6382   5.313   2.242   4.720 -0.7448  0.2255 -0.3627
 2147TIP3   OH2 6383   5.579   1.466   5.147  0.2881  0.8168 -0.5811
 2147TIP3    H1 6384   5.652   1.490   5.205 -2.3609  1.4382  2.6848
 2147TIP3    H2 6385   5.512   1.532   5.166 -2.6197 -2.0663 -0.4827
 2148TIP3   OH2 6386   4.140   1.170   4.575 -0.2681  0.3765 -0.2207
 2148TIP3    H1 6387   4.218   1.178   4.520 -1.3873 -3.0517 -2.5377
 2148TIP3    H2 6388   4.070   1.213   4.526 -1.1587 -2.2269 -1.3541
 2149TIP3   OH2 6389   8.153   2.620   3.891 -0.9509 -0.4782  0.9020
 2149TIP3    H1 6390   8.168   2.713   3.905 -1.2095 -0.4555  1.0329
 2149TIP3    H2 6391   8.064   2.615   3.856 -0.8094 -0.6459  0.5600
 2150TIP3   OH2 6392   0.295   0.616   0.656 -0.0524 -0.2275 -0.1700
 2150TIP3    H1 6393   0.282   0.681   0.725 -1.5706 -0.2577 -0.4228
 2150TIP3    H2 6394   0.352   0.659   0.592 -1.2266  0.9349 -0.4423
 2151TIP3   OH2 6395   6.543   0.568   2.954  0.8030 -0.7270 -0.3439
 2151TIP3    H1 6396   6.513   0.503   3.018  2.0170 -1.8780 -0.9159
 2151TIP3    H2 6397   6.480   0.560   2.882  1.2414 -1.6438 -0.6331
 2152TIP3   OH2 6398   6.127   7.876   2.493  0.6394 -0.1810  0.4222
 2152TIP3    H1 6399   6.156   7.890   2.584 -0.0531  0.7032  0.5160
 2152TIP3    H2 6400   6.051   7.820   2.501 -0.3598  1.1625  0.5152
 2153TIP3   OH2 6401   2.926   7.596   1.354  0.1928  0.8364 -0.5190
 2153TIP3    H1 6402   2.892   7.527   1.297 -1.7490 -0.1647  1.7939
 2153TIP3    H2 6403   2.988   7.551   1.412 -0.0252  1.2971  0.0773
 2154TIP3   OH2 6404   6.396   2.648   3.298  0.3924  0.1402  0.1581
 2154TIP3    H1 6405   6.453   2.581   3.335  0.1286 -0.7142 -0.9678
 2154TIP3    H2 6406   6.440   2.676   3.218  0.4805  1.2958  0.5928
 2155TIP3   OH2 6407   2.439   7.659   2.414 -0.3032  0.1262 -0.2996
 2155TIP3    H1 6408   2.446   7.755   2.415 -0.1075  0.1048  0.4957
 2155TIP3    H2 6409   2.355   7.641   2.457  0.5497 -0.1377  1.2836
 2156TIP3   OH2 6410   5.629   2.756   3.854 -0.0119  0.5107 -0.0440
 2156TIP3    H1 6411   5.698   2.817   3.881  1.0652  0.6470 -2.9254
 2156TIP3    H2 6412   5.660   2.671   3.884 -0.3614  1.0479  1.8855
 2157TIP3   OH2 6413   5.840   0.148   4.553 -0.1023  0.2985  0.1618
 2157TIP3    H1 6414   5.843   0.109   4.641 -1.3573 -0.4203 -0.0951
 2157TIP3    H2 6415   5.902   0.096   4.502  2.5276  2.3080  1.2085
 2158TIP3   OH2 6416   7.359   0.734   1.735  0.1226 -0.5244  0.5933
 2158TIP3    H1 6417   7.381   0.790   1.660 -0.0122 -1.5258 -0.2206
 2158TIP3    H2 6418   7.263   0.730   1.734  0.1035 -0.0511  1.1782
 2159TIP3   OH2 6419   6.842   1.070   3.035 -0.2865  0.4072  0.1403
 2159TIP3    H1 6420   6.855   1.162   3.012  0.0908  0.2568 -0.2638
 2159TIP3    H2 6421   6.897   1.022   2.973  0.0261 -0.0587  0.7741
 2160TIP3   OH2 6422   4.673   6.648   1.668  0.5596  0.0278 -0.0557
 2160TIP3    H1 6423   4.687   6.562   1.628  0.5668 -0.0199  0.0466
 2160TIP3    H2 6424   4.669   6.709   1.595  0.3845 -0.0835 -0.1395
 2161TIP3   OH2 6425   6.227   1.388   2.593 -0.0377 -0.5667 -0.3715
 2161TIP3    H1 6426   6.137   1.402   2.623 -0.2427 -2.5395  0.0319
 2161TIP3    H2 6427   6.279   1.389   2.674  0.4566  1.4586 -0.6821
 2162TIP3   OH2 6428   0.193   2.298   1.635  0.1668 -0.1961  0.0567
 2162TIP3    H1 6429   0.249   2.274   1.562 -0.3881 -1.5455  0.0580
 2162TIP3    H2 6430   0.137   2.367   1.600 -0.0378 -0.7705 -0.7689
 2163TIP3   OH2 6431   7.490   0.794   3.476 -0.8296  0.0652 -0.1680
 2163TIP3    H1 6432   7.476   0.730   3.546  0.1840 -1.3169 -1.1886
 2163TIP3    H2 6433   7.585   0.804   3.473 -0.8140 -0.5377 -1.9013
 2164TIP3   OH2 6434   7.590   7.125   1.184  0.0932 -1.0114  0.0853
 2164TIP3    H1 6435   7.656   7.148   1.249  0.9638  0.0331 -1.1458
 2164TIP3    H2 6436   7.616   7.173   1.105 -2.3089 -0.3269 -0.3404
 2165TIP3   OH2 6437   7.323   2.592   2.787 -0.2614 -0.7999  0.3643
 2165TIP3    H1 6438   7.325   2.666   2.849  1.9027 -0.1717 -0.4046
 2165TIP3    H2 6439   7.394   2.535   2.815  0.2510 -0.8909 -1.0781
 2166TIP3   OH2 6440   8.326   0.142   2.142  0.1461 -0.2286  1.1146
 2166TIP3    H1 6441   8.406   0.190   2.163  0.5209  0.9721 -2.6955
 2166TIP3    H2 6442   8.255   0.202   2.166  0.4263 -0.1980  1.9060
 2167TIP3   OH2 6443   4.380   6.944   1.458 -0.2066 -0.3134  0.2526
 2167TIP3    H1 6444   4.412   6.895   1.383 -0.3428  1.3913 -0.9579
 2167TIP3    H2 6445   4.285   6.952   1.443 -0.3177 -0.4663  0.8849
 2168TIP3   OH2 6446   7.638   1.390   3.725 -0.0553  0.3626  0.4814
 2168TIP3    H1 6447   7.686   1.467   3.695  0.8608  0.1278  1.3568
 2168TIP3    H2 6448   7.653   1.386   3.819  0.2974 -1.1638  0.3765
 2169TIP3   OH2 6449   6.993   1.114   3.492 -0.2121 -0.1266  0.0600
 2169TIP3    H1 6450   6.910   1.118   3.443 -0.3090  0.6627  0.2759
 2169TIP3    H2 6451   7.060   1.133   3.426 -0.3006  0.4208  0.1240
 2170TIP3   OH2 6452   5.490   7.153   2.341 -0.2841  0.5477 -0.6933
 2170TIP3    H1 6453   5.433   7.161   2.418  0.2758  1.3457 -0.3528
 2170TIP3    H2 6454   5.443   7.094   2.283 -1.4617  1.1774 -0.4108
 2171TIP3   OH2 6455   8.346   2.424   1.481  0.4382 -0.4698 -0.1845
 2171TIP3    H1 6456   8.365   2.339   1.440  1.1431  0.2599 -1.4146
 2171TIP3    H2 6457   8.430   2.468   1.484 -0.2116  0.8859 -1.2037
 2172TIP3   OH2 6458   8.406   0.342   3.078  0.2095  0.0387 -0.3281
 2172TIP3    H1 6459   8.439   0.269   3.027  0.1900 -0.9414  1.0522
 2172TIP3    H2 6460   8.338   0.305   3.134 -0.5795  1.3153 -0.4061
 2173TIP3   OH2 6461   7.122   2.025   2.511  0.0836  0.1280 -0.0070
 2173TIP3    H1 6462   7.213   2.000   2.524  0.4604  1.2911 -0.3076
 2173TIP3    H2 6463   7.126   2.098   2.448 -0.9131  1.2228  1.1656
 2174TIP3   OH2 6464   1.392   2.068   1.680 -0.3390 -0.2117 -0.0223
 2174TIP3    H1 6465   1.384   2.112   1.595  0.5930 -1.7531 -0.9280
 2174TIP3    H2 6466   1.484   2.077   1.703  0.2122 -2.8997 -0.9330
 2175TIP3   OH2 6467   4.604   1.692   3.061  0.2478  0.1677  0.0794
 2175TIP3    H1 6468   4.635   1.624   3.120 -0.2262  0.2557  0.4262
 2175TIP3    H2 6469   4.565   1.644   2.987  1.3185  0.0548 -0.4245
 2176TIP3   OH2 6470   6.436   1.112   3.416 -0.5131 -0.0012 -0.1536
 2176TIP3    H1 6471   6.420   1.153   3.501 -0.2511 -1.4057  0.5949
 2176TIP3    H2 6472   6.387   1.030   3.420 -2.8250  1.2169 -2.4704
 2177TIP3   OH2 6473   5.385   1.465   2.738  0.0474  0.1349 -0.0557
 2177TIP3    H1 6474   5.428   1.535   2.786  2.8206 -1.7708  0.4067
 2177TIP3    H2 6475   5.400   1.486   2.646 -1.0405  1.2620  0.0180
 2178TIP3   OH2 6476   5.682   0.597   3.142  0.2459  0.5615  0.1946
 2178TIP3    H1 6477   5.665   0.637   3.227 -0.2741  2.2870 -0.6985
 2178TIP3    H2 6478   5.599   0.557   3.117  0.4125  0.0104  0.5062
 2179TIP3   OH2 6479   3.359   7.854   1.410 -0.3686 -0.6082  0.4822
 2179TIP3    H1 6480   3.416   7.800   1.356  0.4357  0.9502 -0.2537
 2179TIP3    H2 6481   3.304   7.791   1.457 -1.3921 -1.9875 -2.4489
 2180TIP3   OH2 6482   4.178   2.272   4.457 -0.3774  0.0209 -0.5467
 2180TIP3    H1 6483   4.222   2.343   4.411  1.0438 -0.5231 -0.0668
 2180TIP3    H2 6484   4.085   2.286   4.441 -0.0712  1.6307 -0.9616
 2181TIP3   OH2 6485   5.234   1.629   3.580  0.0567 -0.0094  0.4695
 2181TIP3    H1 6486   5.180   1.549   3.583 -0.3507  0.1748 -1.6303
 2181TIP3    H2 6487   5.301   1.614   3.647 -0.9273 -1.4583  1.1717
 2182TIP3   OH2 6488   2.673   7.424   4.135 -0.2851  0.2096 -0.3863
 2182TIP3    H1 6489   2.617   7.346   4.132 -1.6605  0.9888  2.6860
 2182TIP3    H2 6490   2.755   7.394   4.173 -0.1175 -0.0962 -0.9787
 2183TIP3   OH2 6491   3.939   0.720   3.769  0.9248  0.1342 -0.1733
 2183TIP3    H1 6492   3.883   0.797   3.783  2.3219  1.3127 -0.8544
 2183TIP3    H2 6493   3.907   0.655   3.832 -1.6587  0.5026 -1.0320
 2184TIP3   OH2 6494   4.784   0.637   5.095 -0.1513  0.2757 -0.0527
 2184TIP3    H1 6495   4.711   0.665   5.151  1.0347 -0.7954  2.0950
 2184TIP3    H2 6496   4.821   0.719   5.062 -2.8418  0.8035 -1.8871
 2185TIP3   OH2 6497   2.079   6.806   3.141 -0.3777 -0.6806 -0.6174
 2185TIP3    H1 6498   2.052   6.897   3.143  0.7228 -0.3458 -0.7006
 2185TIP3    H2 6499   1.997   6.756   3.138 -0.9953  0.2601  0.4783
 2186TIP3   OH2 6500   3.509   7.602   1.006 -0.2716  0.2515 -0.6907
 2186TIP3    H1 6501   3.531   7.693   1.025 -0.6396  0.5670 -1.7392
 2186TIP3    H2 6502   3.594   7.561   0.987 -0.0386  0.2185  0.4079
 2187TIP3   OH2 6503   2.584   7.993   2.171  0.0686  0.1667  0.3714
 2187TIP3    H1 6504   2.668   8.038   2.158  0.1084 -0.1841 -0.6481
 2187TIP3    H2 6505   2.536   8.009   2.089 -0.7991  0.2344  0.8920
 2188TIP3   OH2 6506   4.649   3.959   2.811  0.0744  0.2067 -0.2971
 2188TIP3    H1 6507   4.663   3.871   2.775  1.1288 -0.0451  0.6734
 2188TIP3    H2 6508   4.609   3.943   2.897 -2.1996  0.7863 -1.1936
 2189TIP3   OH2 6509   5.130   0.089   2.963 -0.1685 -0.6285 -0.1741
 2189TIP3    H1 6510   5.163   0.010   2.921  3.3363  0.0444  1.1620
 2189TIP3    H2 6511   5.102   0.061   3.050  1.8391 -0.3082  0.6014
 2190TIP3   OH2 6512   3.971   7.906   2.442 -0.6560 -0.5038 -0.6855
 2190TIP3    H1 6513   4.055   7.883   2.482 -1.3276 -2.1023 -0.1626
 2190TIP3    H2 6514   3.994   7.933   2.353  0.8166  2.7926  0.5944
 2191TIP3   OH2 6515   2.711   7.800   2.701 -0.0278  0.5604 -0.2541
 2191TIP3    H1 6516   2.623   7.762   2.704  0.1108  0.2041 -0.6465
 2191TIP3    H2 6517   2.770   7.725   2.703  0.2836  0.8177  0.5254
 2192TIP3   OH2 6518   3.122   6.691   2.447 -0.7173 -0.1011  0.4642
 2192TIP3    H1 6519   3.098   6.634   2.374  2.5359  1.0438 -1.5988
 2192TIP3    H2 6520   3.040   6.705   2.494 -2.6536 -1.9638 -2.1984
 2193TIP3   OH2 6521   6.121   7.852   1.723  0.3595  0.1375  0.4027
 2193TIP3    H1 6522   6.066   7.909   1.776 -1.3639 -0.7846 -0.3659
 2193TIP3    H2 6523   6.084   7.856   1.635  1.4877 -0.5295 -0.1198
 2194TIP3   OH2 6524   4.160   7.608   3.814 -0.8295  0.2135  0.1636
 2194TIP3    H1 6525   4.130   7.545   3.749 -0.0462 -0.5154  0.5103
 2194TIP3    H2 6526   4.191   7.555   3.887 -0.3648  1.0047  0.5471
 2195TIP3   OH2 6527   8.394   4.287   6.913 -0.0380  0.7247 -0.4464
 2195TIP3    H1 6528   8.365   4.196   6.906  0.9844  0.0031  3.4698
 2195TIP3    H2 6529   8.313   4.336   6.930 -0.0111 -0.2702  2.9289
 2196TIP3   OH2 6530   5.669   0.063   2.136  0.1167  0.4611  0.4889
 2196TIP3    H1 6531   5.742   0.022   2.090  0.3365 -0.4033  1.5991
 2196TIP3    H2 6532   5.671   0.155   2.108  0.2116 -0.0536 -1.2634
 2197TIP3   OH2 6533   5.233   2.094   4.896  0.8524  0.4074  0.0146
 2197TIP3    H1 6534   5.148   2.134   4.879  1.0803  0.0714 -2.0232
 2197TIP3    H2 6535   5.281   2.160   4.946 -1.1428 -0.0387  2.5891
 2198TIP3   OH2 6536   2.769   6.696   3.016 -0.0516  0.3476 -0.0118
 2198TIP3    H1 6537   2.828   6.769   3.035  2.2216 -1.4598  0.0826
 2198TIP3    H2 6538   2.734   6.671   3.102  1.8526 -0.8425  0.4621
 2199TIP3   OH2 6539   6.858   2.005   2.845  0.5221 -0.0450  0.0187
 2199TIP3    H1 6540   6.837   1.979   2.756  1.2255 -0.2073 -0.1030
 2199TIP3    H2 6541   6.862   2.101   2.842  0.5058 -0.0488 -0.1163
 2200TIP3   OH2 6542   0.037   1.877   4.351 -0.0706  0.3596 -0.5099
 2200TIP3    H1 6543   0.110   1.861   4.411 -1.2353 -0.7599  0.6438
 2200TIP3    H2 6544   0.052   1.817   4.278  0.0796 -0.0256 -0.1690
 2201TIP3   OH2 6545   6.736   1.885   3.858  0.3502 -0.1162 -0.3582
 2201TIP3    H1 6546   6.717   1.939   3.781  1.8676 -1.5222 -1.7693
 2201TIP3    H2 6547   6.831   1.892   3.869  0.0941  0.4166  1.6661
 2202TIP3   OH2 6548   5.974   1.032   2.004  0.3148 -0.0336  0.1777
 2202TIP3    H1 6549   6.018   0.993   2.080  1.3500  2.2379  0.8084
 2202TIP3    H2 6550   6.031   1.011   1.930  1.3541  1.0328  0.6550
 2203TIP3   OH2 6551   6.517   1.597   2.004 -0.3967 -0.1838  0.0864
 2203TIP3    H1 6552   6.549   1.647   2.079  0.5903 -2.0533  0.9662
 2203TIP3    H2 6553   6.430   1.568   2.030 -0.5575  0.2279  0.0026
 2204TIP3   OH2 6554   8.346   5.037   6.735  0.5180 -0.1564 -0.0416
 2204TIP3    H1 6555   8.341   4.941   6.732 -0.2142 -0.1484  0.8519
 2204TIP3    H2 6556   8.437   5.057   6.714  0.5943 -1.0327 -0.5764
 2205TIP3   OH2 6557   6.808   0.968   1.496 -1.0646 -0.2488  1.0462
 2205TIP3    H1 6558   6.755   1.048   1.492 -0.4154  0.1010 -1.0441
 2205TIP3    H2 6559   6.897   0.999   1.514 -0.8336 -0.4921  0.3404
 2206TIP3   OH2 6560   5.894   1.625   1.990  0.2980  0.3314  0.2888
 2206TIP3    H1 6561   5.905   1.554   2.053 -0.5437 -0.6987 -0.7063
 2206TIP3    H2 6562   5.981   1.637   1.952 -0.1420 -2.1806 -1.6383
 2207TIP3   OH2 6563   5.072   1.336   2.774  0.3223 -0.8669  0.4771
 2207TIP3    H1 6564   5.152   1.355   2.822 -0.2327 -1.5546  1.6865
 2207TIP3    H2 6565   5.003   1.340   2.840 -0.4152 -2.1293 -0.2030
 2208TIP3   OH2 6566   4.674   0.953   2.334 -0.1093  0.2040 -0.2725
 2208TIP3    H1 6567   4.735   0.897   2.287  0.6301 -0.3769  1.3515
 2208TIP3    H2 6568   4.588   0.912   2.322  0.5386 -1.7585  1.6039
 2209TIP3   OH2 6569   6.352   1.657   4.146 -0.5025 -0.0423  0.7023
 2209TIP3    H1 6570   6.340   1.631   4.237 -2.9419 -0.3478  0.3421
 2209TIP3    H2 6571   6.444   1.638   4.127  0.1466  0.4492  3.2136
 2210TIP3   OH2 6572   7.937   1.893   3.399 -0.5641 -0.2713  0.3881
 2210TIP3    H1 6573   7.865   1.832   3.381 -2.1616  1.0039  2.2479
 2210TIP3    H2 6574   8.015   1.849   3.365 -2.1956 -1.7167 -1.6094
 2211TIP3   OH2 6575   7.224   3.499   2.676  0.1945 -0.1516  0.6212
 2211TIP3    H1 6576   7.271   3.522   2.596  0.2083  0.7047  0.8643
 2211TIP3    H2 6577   7.190   3.411   2.660 -0.9448  0.5264 -0.8524
 2212TIP3   OH2 6578   3.759   7.611   1.267 -0.1571 -0.1609 -0.3254
 2212TIP3    H1 6579   3.769   7.539   1.205  1.2192 -0.8277  0.6537
 2212TIP3    H2 6580   3.822   7.677   1.237  1.6314 -1.1177  1.2321
 2213TIP3   OH2 6581   6.407   2.075   3.451 -0.0746 -0.1754 -0.2477
 2213TIP3    H1 6582   6.483   2.021   3.472 -0.8989 -0.6141  1.6368
 2213TIP3    H2 6583   6.403   2.139   3.522  0.5153  1.9973 -2.1116
 2214TIP3   OH2 6584   4.318   7.410   2.010  0.5442  0.1461 -0.0916
 2214TIP3    H1 6585   4.334   7.424   2.104 -1.3785  1.2757  0.0972
 2214TIP3    H2 6586   4.224   7.391   2.005  0.1994  2.2476 -2.0150
 2215TIP3   OH2 6587   3.780   0.989   3.223  0.3564  0.2146 -0.0102
 2215TIP3    H1 6588   3.773   1.077   3.260  1.0119  0.3971 -0.3113
 2215TIP3    H2 6589   3.755   0.931   3.294 -1.1249  0.6901 -0.1260
 2216TIP3   OH2 6590   5.039   0.792   4.336  0.3875  0.2197  0.6297
 2216TIP3    H1 6591   5.094   0.774   4.260  1.2325  1.8841  0.8122
 2216TIP3    H2 6592   4.986   0.867   4.310  1.7707  1.7786  2.1788
 2217TIP3   OH2 6593   5.215   1.074   3.415  0.4911 -0.0834  0.1223
 2217TIP3    H1 6594   5.248   1.092   3.327  0.3927 -2.7539 -0.4994
 2217TIP3    H2 6595   5.131   1.119   3.419  0.7337  0.4901 -0.9382
 2218TIP3   OH2 6596   2.368   7.875   2.790 -0.2457 -0.1718  0.1707
 2218TIP3    H1 6597   2.411   7.790   2.801 -1.8581 -1.1062 -0.7128
 2218TIP3    H2 6598   2.326   7.871   2.705  1.5877  2.4055 -0.9530
 2219TIP3   OH2 6599   7.055   1.913   4.512 -0.2433 -0.0371 -0.0873
 2219TIP3    H1 6600   7.112   1.848   4.471 -1.4778 -1.3546  0.2632
 2219TIP3    H2 6601   7.019   1.963   4.438 -0.6721 -0.9049 -0.4733
 2220TIP3   OH2 6602   8.452   5.911   6.437 -0.2048  0.3414 -0.4561
 2220TIP3    H1 6603   8.425   5.983   6.380 -1.6645  0.3952  0.2767
 2220TIP3    H2 6604   8.370   5.877   6.474  0.7008  0.2288  1.5057
 2221TIP3   OH2 6605   3.091   5.787   2.586 -0.2505  0.1867  0.3537
 2221TIP3    H1 6606   3.042   5.728   2.644 -0.2234  0.0153  0.2049
 2221TIP3    H2 6607   3.047   5.871   2.595 -1.6764 -0.3714 -1.1136
 2222TIP3   OH2 6608   2.369   7.796   1.985 -0.0006  0.0303 -0.0368
 2222TIP3    H1 6609   2.419   7.867   1.945 -2.6759  0.4095 -2.9371
 2222TIP3    H2 6610   2.324   7.837   2.059 -0.2236  0.9494 -0.6771
 2223TIP3   OH2 6611   5.618   1.427   2.147 -0.1197 -0.4138 -0.1566
 2223TIP3    H1 6612   5.640   1.339   2.114  1.2542 -0.4661  0.8666
 2223TIP3    H2 6613   5.667   1.435   2.228  0.8092  1.8212 -0.9055
 2224TIP3   OH2 6614   5.346   1.810   2.063  0.4591 -0.5795  0.2950
 2224TIP3    H1 6615   5.338   1.715   2.070 -2.1544 -0.5497 -1.5384
 2224TIP3    H2 6616   5.267   1.844   2.103 -0.5863  0.6216 -2.6404
 2225TIP3   OH2 6617   5.975   1.819   1.072  0.1772  0.4274 -0.1207
 2225TIP3    H1 6618   5.968   1.831   0.978  0.3636  0.1779 -0.1668
 2225TIP3    H2 6619   6.013   1.901   1.104  0.4795  0.3595 -0.3084
 2226TIP3   OH2 6620   3.179   7.520   4.517  0.7844 -0.4609  0.0811
 2226TIP3    H1 6621   3.117   7.593   4.525 -0.2000 -1.1755 -0.7248
 2226TIP3    H2 6622   3.183   7.503   4.422  1.2906 -1.2071  0.2337
 2227TIP3   OH2 6623   6.106   1.620   3.995 -0.3455  0.5076  0.2812
 2227TIP3    H1 6624   6.139   1.651   4.080 -1.7855 -0.0894  1.0585
 2227TIP3    H2 6625   6.183   1.583   3.952  0.1564 -0.1970  1.7799
 2228TIP3   OH2 6626   6.982   1.281   1.909 -0.8487  0.2196  0.1130
 2228TIP3    H1 6627   6.983   1.235   1.825 -0.4903  0.0023  0.2358
 2228TIP3    H2 6628   6.934   1.362   1.891  0.1687  0.6755 -0.5771
 2229TIP3   OH2 6629   8.486   1.877   2.103 -0.3135 -0.1083  0.4480
 2229TIP3    H1 6630   8.473   1.925   2.021  1.9497 -0.4295 -0.1404
 2229TIP3    H2 6631   8.477   1.944   2.172 -2.4429  0.1180 -0.0079
 2230TIP3   OH2 6632   0.175   0.405   4.301  0.7893 -0.2565 -0.6429
 2230TIP3    H1 6633   0.171   0.501   4.309  0.7342 -0.2419 -0.8343
 2230TIP3    H2 6634   0.191   0.390   4.208  1.4207 -0.4162 -0.5169
 2231TIP3   OH2 6635   7.447   3.145   0.114 -0.3024 -0.1251  0.0062
 2231TIP3    H1 6636   7.415   3.056   0.131  1.5033 -0.6616  0.7913
 2231TIP3    H2 6637   7.532   3.131   0.072  0.3184  1.2320  0.7874
 2232TIP3   OH2 6638   5.527   1.257   1.338 -0.6248  0.2994 -0.3122
 2232TIP3    H1 6639   5.479   1.198   1.395 -0.7117 -0.2146 -0.9156
 2232TIP3    H2 6640   5.592   1.298   1.395  0.5319 -1.6008 -0.2174
 2233TIP3   OH2 6641   6.244   4.910   2.640 -0.4330 -0.0389  0.0067
 2233TIP3    H1 6642   6.319   4.907   2.581 -1.6074 -2.4509 -1.4390
 2233TIP3    H2 6643   6.194   4.987   2.612 -0.1238 -0.2319 -1.1151
 2234TIP3   OH2 6644   4.082   7.117   3.748  0.6039  0.1021 -0.1950
 2234TIP3    H1 6645   4.169   7.139   3.713  2.0236 -3.9293  0.5084
 2234TIP3    H2 6646   4.086   7.144   3.840  1.8309 -1.6560  0.3081
 2235TIP3   OH2 6647   5.167   3.156   3.683 -0.0056 -0.1186  0.8271
 2235TIP3    H1 6648   5.223   3.137   3.608  0.1796 -0.2017  0.9866
 2235TIP3    H2 6649   5.081   3.123   3.658 -0.6502  2.4602 -0.5471
 2236TIP3   OH2 6650   5.610   1.357   4.514 -0.2974 -0.5255  0.2548
 2236TIP3    H1 6651   5.549   1.302   4.563 -1.8777  3.3708  2.8970
 2236TIP3    H2 6652   5.686   1.365   4.571  0.5397 -1.0623 -0.7538
 2237TIP3   OH2 6653   0.526   4.240   6.630 -0.9398  0.4337  0.2027
 2237TIP3    H1 6654   0.536   4.267   6.539 -2.2144 -0.9240 -0.3605
 2237TIP3    H2 6655   0.478   4.312   6.672 -0.4578  1.0021 -0.2328
 2238TIP3   OH2 6656   4.264   1.068   4.818 -0.3071  0.4148  0.0532
 2238TIP3    H1 6657   4.342   1.119   4.796  0.1185 -1.1205 -2.1029
 2238TIP3    H2 6658   4.210   1.070   4.739 -1.1171 -0.9420  0.5558
 2239TIP3   OH2 6659   2.859   7.242   2.782 -0.2303  0.4353  0.1256
 2239TIP3    H1 6660   2.775   7.239   2.737 -0.8682  2.2438  1.1763
 2239TIP3    H2 6661   2.844   7.297   2.859  1.4824 -0.5810  1.2303
 2240TIP3   OH2 6662   4.819   0.681   1.760  0.5040  0.2461 -0.0065
 2240TIP3    H1 6663   4.787   0.765   1.729  0.2335  0.5600  1.0833
 2240TIP3    H2 6664   4.839   0.632   1.681 -2.6221  0.0709 -0.7540
 2241TIP3   OH2 6665   4.418   0.153   3.035  0.6183 -0.0449  0.5410
 2241TIP3    H1 6666   4.496   0.133   3.088  0.3861 -0.0679  0.8729
 2241TIP3    H2 6667   4.362   0.205   3.093 -0.2566 -1.2423  0.7861
 2242TIP3   OH2 6668   5.481   0.876   3.215 -0.7996 -0.3917 -0.2294
 2242TIP3    H1 6669   5.506   0.936   3.145  0.2808 -1.8227 -1.0727
 2242TIP3    H2 6670   5.415   0.819   3.176 -1.6751  0.0890  0.5186
 2243TIP3   OH2 6671   7.131   2.024   2.821 -0.0750  0.8527  0.3578
 2243TIP3    H1 6672   7.138   2.026   2.725  0.8978 -1.8313  0.3482
 2243TIP3    H2 6673   7.037   2.020   2.838 -0.3804  3.5263 -0.3846
 2244TIP3   OH2 6674   2.798   6.430   3.202 -0.0353 -0.0727  0.6189
 2244TIP3    H1 6675   2.716   6.394   3.236  0.7911 -0.7219  1.9395
 2244TIP3    H2 6676   2.800   6.401   3.110 -0.8156 -0.8483  0.8357
 2245TIP3   OH2 6677   5.892   1.377   2.958 -0.3428  0.4289 -0.1931
 2245TIP3    H1 6678   5.799   1.356   2.957 -0.4411  0.8040 -3.5317
 2245TIP3    H2 6679   5.933   1.307   2.908  1.0484  0.8263  0.3655
 2246TIP3   OH2 6680   5.792   1.463   4.302  0.4695  0.0038  0.1048
 2246TIP3    H1 6681   5.732   1.407   4.350  0.9196  0.4792  1.2304
 2246TIP3    H2 6682   5.767   1.552   4.327  0.6880  0.2618 -0.5683
 2247TIP3   OH2 6683   4.676   1.457   2.363 -0.3189  0.2462  0.2903
 2247TIP3    H1 6684   4.589   1.434   2.331 -0.4325  0.0407  0.7412
 2247TIP3    H2 6685   4.734   1.440   2.289 -0.6662  0.4137 -0.0210
 2248TIP3   OH2 6686   4.277   2.062   1.873 -0.3137  0.3393  0.0455
 2248TIP3    H1 6687   4.369   2.036   1.880 -0.7680 -0.7428  2.4474
 2248TIP3    H2 6688   4.229   1.979   1.873 -1.3272  0.9193 -0.6137
 2249TIP3   OH2 6689   6.030   0.920   4.480  0.3580 -1.4149  0.5249
 2249TIP3    H1 6690   6.058   0.879   4.398 -0.9610 -1.4360  0.0590
 2249TIP3    H2 6691   5.935   0.930   4.470  0.5658  1.3800  0.7946
 2250TIP3   OH2 6692   6.159   2.872   3.518  0.2541  0.4023  0.4486
 2250TIP3    H1 6693   6.095   2.896   3.585 -1.0832 -0.0581 -0.6438
 2250TIP3    H2 6694   6.134   2.784   3.490  1.2004  0.3201 -0.1791
 2251TIP3   OH2 6695   1.078   0.532   3.678 -0.1433 -0.0487  0.0440
 2251TIP3    H1 6696   1.077   0.483   3.760 -1.6326 -1.4880 -0.8033
 2251TIP3    H2 6697   1.030   0.613   3.697 -1.2766 -0.7814  0.3674
 2252TIP3   OH2 6698   7.372   2.554   4.563  0.0779 -0.1023 -0.1728
 2252TIP3    H1 6699   7.315   2.501   4.619 -0.2525  0.9050  0.4577
 2252TIP3    H2 6700   7.312   2.613   4.518  0.5613  0.5131 -0.0109
 2253TIP3   OH2 6701   7.288   0.184   4.085  0.5079 -0.7903  0.2164
 2253TIP3    H1 6702   7.350   0.169   4.156  0.5710  1.2394  0.6131
 2253TIP3    H2 6703   7.324   0.258   4.037 -1.9535  0.8849  0.8712
 2254TIP3   OH2 6704   1.741   3.244   2.435 -0.5696 -0.4341 -0.6760
 2254TIP3    H1 6705   1.768   3.303   2.364  0.0371 -0.5332 -0.5284
 2254TIP3    H2 6706   1.803   3.262   2.506 -1.7891  0.3842  0.2053
 2255TIP3   OH2 6707   5.861   7.658   1.820 -0.3084 -0.1398  0.5004
 2255TIP3    H1 6708   5.918   7.715   1.768  0.0572 -0.7942  0.1740
 2255TIP3    H2 6709   5.779   7.707   1.829 -0.1252  0.2767 -0.0806
 2256TIP3   OH2 6710   7.440   2.177   2.149 -0.1575  0.1854 -0.2815
 2256TIP3    H1 6711   7.463   2.088   2.121  0.6583  0.8185 -1.7184
 2256TIP3    H2 6712   7.430   2.170   2.244  1.5941 -1.0919 -0.1381
 2257TIP3   OH2 6713   4.760   6.391   1.583  0.9378  0.0606  0.4288
 2257TIP3    H1 6714   4.824   6.345   1.528  1.0449 -0.3534  0.9058
 2257TIP3    H2 6715   4.675   6.364   1.548  1.0223  0.6474 -0.2361
 2258TIP3   OH2 6716   6.270   0.453   2.108 -0.1134 -0.1614  0.3414
 2258TIP3    H1 6717   6.343   0.400   2.077 -0.3690 -0.1631 -0.2628
 2258TIP3    H2 6718   6.308   0.539   2.124  0.1363 -0.3103  0.5560
 2259TIP3   OH2 6719   6.970   1.456   0.963  0.3621  0.4471 -0.1209
 2259TIP3    H1 6720   6.954   1.383   1.022 -0.9671  0.2427 -0.6926
 2259TIP3    H2 6721   7.062   1.478   0.975  0.7088 -1.1493  0.2538
 2260TIP3   OH2 6722   7.733   1.749   1.366 -0.1099  0.3649  0.1924
 2260TIP3    H1 6723   7.707   1.728   1.456 -1.0677  2.2051  0.3904
 2260TIP3    H2 6724   7.826   1.771   1.373  0.4816 -2.0645  0.2516
 2261TIP3   OH2 6725   6.627   0.254   2.923 -0.2375 -0.0512  0.6073
 2261TIP3    H1 6726   6.569   0.276   2.996  0.1783 -2.9678  1.8907
 2261TIP3    H2 6727   6.574   0.268   2.845 -1.6197  0.3936  1.5936
 2262TIP3   OH2 6728   5.947   0.400   3.265 -0.6215 -0.1776 -0.0048
 2262TIP3    H1 6729   5.933   0.442   3.180 -2.4298 -1.2491 -0.2641
 2262TIP3    H2 6730   6.036   0.367   3.261 -0.2928  0.7862 -1.0393
 2263TIP3   OH2 6731   7.655   1.587   2.297  0.5313 -0.1557  0.8341
 2263TIP3    H1 6732   7.610   1.537   2.229 -0.8543  0.4742  1.2661
 2263TIP3    H2 6733   7.699   1.521   2.350  0.2404 -0.7770  0.3102
 2264TIP3   OH2 6734   7.583   2.451   3.861 -0.0820 -0.2356 -0.0999
 2264TIP3    H1 6735   7.536   2.480   3.783  1.0707  1.1834 -0.2801
 2264TIP3    H2 6736   7.629   2.372   3.833  1.0195  0.7490 -1.1019
 2265TIP3   OH2 6737   2.958   6.987   0.921 -0.4403 -0.2872 -0.4113
 2265TIP3    H1 6738   3.030   7.031   0.967 -1.1850  1.3446 -0.7685
 2265TIP3    H2 6739   2.896   6.964   0.990 -0.4339 -0.0337 -0.3206
 2266TIP3   OH2 6740   4.264   0.183   2.464 -0.2690  0.1039 -0.1399
 2266TIP3    H1 6741   4.197   0.213   2.526  0.7806  0.5529  0.8046
 2266TIP3    H2 6742   4.233   0.212   2.378 -1.5990 -0.2567  0.2118
 2267TIP3   OH2 6743   7.102   0.646   2.238  0.6915 -0.1242  0.2187
 2267TIP3    H1 6744   7.150   0.677   2.161  0.0071  1.0986  0.2801
 2267TIP3    H2 6745   7.058   0.566   2.209  0.7783  0.0998 -0.5351
 2268TIP3   OH2 6746   7.910   0.291   4.509  0.0001 -0.4458 -0.1810
 2268TIP3    H1 6747   7.827   0.323   4.475  0.4717  1.2268  0.2177
 2268TIP3    H2 6748   7.976   0.348   4.470  0.8901 -1.1280  0.2985
 2269TIP3   OH2 6749   7.771   2.523   2.326 -0.1683 -0.7149 -0.1440
 2269TIP3    H1 6750   7.688   2.569   2.309 -0.3219 -1.7509 -2.4588
 2269TIP3    H2 6751   7.746   2.431   2.333  0.6835 -0.9390  0.0011
 2270TIP3   OH2 6752   6.267   3.566   3.040 -0.0356 -0.0454 -0.0318
 2270TIP3    H1 6753   6.350   3.520   3.051  0.4385  0.7039 -0.4288
 2270TIP3    H2 6754   6.229   3.568   3.128 -0.5669 -2.1131 -0.2013
 2271TIP3   OH2 6755   2.287   7.385   0.076  0.6294  0.1648 -0.2911
 2271TIP3    H1 6756   2.257   7.468   0.041  0.5381  0.1420 -0.2654
 2271TIP3    H2 6757   2.306   7.332  -0.001  1.8036  0.6078 -0.3261
 2272TIP3   OH2 6758   5.090   1.577   4.847  0.2760 -0.0081 -0.0929
 2272TIP3    H1 6759   5.032   1.621   4.786 -0.7592  1.0395  1.5940
 2272TIP3    H2 6760   5.041   1.502   4.878  1.9995 -2.3960 -2.8755
 2273TIP3   OH2 6761   5.034   2.713   2.604 -0.3192 -0.7713 -0.0696
 2273TIP3    H1 6762   4.976   2.780   2.639 -1.3960 -1.4674 -0.4807
 2273TIP3    H2 6763   5.071   2.670   2.681  0.0446  0.0171  0.1936
 2274TIP3   OH2 6764   4.457   2.467   2.419  0.2342 -0.0938 -0.5252
 2274TIP3    H1 6765   4.506   2.385   2.419 -1.9033 -1.4104 -1.0380
 2274TIP3    H2 6766   4.522   2.534   2.442  2.2935 -1.7415 -1.4096
 2275TIP3   OH2 6767   2.636   7.572   3.784 -0.5173 -0.1637 -0.2561
 2275TIP3    H1 6768   2.683   7.495   3.752  0.1559  0.1167  0.0672
 2275TIP3    H2 6769   2.703   7.640   3.794 -0.4739 -0.6247  3.0070
 2276TIP3   OH2 6770   1.971   7.779   5.262  0.2794 -0.1955 -0.1159
 2276TIP3    H1 6771   2.053   7.761   5.306 -0.8962 -3.2502  0.9311
 2276TIP3    H2 6772   1.905   7.776   5.331 -0.9328  0.4723 -1.2199
 2277TIP3   OH2 6773   4.742   2.411   2.742  0.0200  0.4906  0.4216
 2277TIP3    H1 6774   4.794   2.392   2.820  0.1056  0.9360  0.4772
 2277TIP3    H2 6775   4.801   2.392   2.669  0.7682  2.3513  0.5028
 2278TIP3   OH2 6776   4.860   0.554   1.502 -0.2134 -0.4239 -0.2182
 2278TIP3    H1 6777   4.906   0.593   1.427  0.7364  2.3046  1.7084
 2278TIP3    H2 6778   4.824   0.472   1.468  1.5224 -0.0101 -3.2298
 2279TIP3   OH2 6779   7.871   1.957   2.404  0.5495  0.3136  0.3521
 2279TIP3    H1 6780   7.884   1.863   2.391  0.5725  0.6425 -2.2412
 2279TIP3    H2 6781   7.790   1.962   2.456 -0.0534 -1.1009 -0.4033
 2280TIP3   OH2 6782   0.898   1.218   3.519 -0.7218  0.3690  0.1337
 2280TIP3    H1 6783   0.844   1.268   3.581  0.0311  0.4342  0.7452
 2280TIP3    H2 6784   0.988   1.237   3.546 -0.3910  0.3319 -0.9395
 2281TIP3   OH2 6785   5.049   1.292   3.513 -0.4140 -0.4275  1.1262
 2281TIP3    H1 6786   5.023   1.348   3.586  1.7791  0.5061  1.2274
 2281TIP3    H2 6787   5.040   1.349   3.436 -0.8057 -0.7899  0.9023
 2282TIP3   OH2 6788   1.334   0.935   2.989 -0.2570 -0.5265 -0.1042
 2282TIP3    H1 6789   1.276   1.006   3.017 -0.6294 -1.0293  0.4148
 2282TIP3    H2 6790   1.380   0.971   2.913 -1.6895 -0.3209 -0.9082
 2283TIP3   OH2 6791   4.264   6.673   2.147 -0.4968  0.0275  0.1366
 2283TIP3    H1 6792   4.233   6.705   2.062 -1.2515  1.0176  0.7761
 2283TIP3    H2 6793   4.359   6.686   2.145 -0.4318 -0.5520 -0.8039
 2284TIP3   OH2 6794   6.044   7.451   1.679  0.2409 -0.4081 -0.0022
 2284TIP3    H1 6795   6.038   7.502   1.760  0.4720 -0.7307  0.2145
 2284TIP3    H2 6796   6.026   7.515   1.610  2.0212  0.3215  0.1703
 2285TIP3   OH2 6797   3.817   5.044   6.211  0.3545  0.3120 -0.4990
 2285TIP3    H1 6798   3.768   5.005   6.283  1.0162  1.6537  0.7098
 2285TIP3    H2 6799   3.909   5.028   6.233  0.5822  1.2999 -0.6956
 2286TIP3   OH2 6800   0.682   1.403   3.315 -0.2087  0.0822  0.0199
 2286TIP3    H1 6801   0.753   1.340   3.320  0.0871  0.2428 -2.0834
 2286TIP3    H2 6802   0.613   1.359   3.266 -1.0938  0.3940  0.9467
 2287TIP3   OH2 6803   6.661   0.500   3.996  0.4840  0.0337  0.0540
 2287TIP3    H1 6804   6.572   0.500   4.030  0.8814 -0.6117  1.0982
 2287TIP3    H2 6805   6.692   0.410   4.007  2.0046  0.7229  1.6908
 2288TIP3   OH2 6806   0.296   1.028   2.324  0.4651  0.1890  0.5582
 2288TIP3    H1 6807   0.333   0.958   2.379 -0.8860 -1.1014 -0.1312
 2288TIP3    H2 6808   0.209   0.996   2.301  0.0856  1.8230 -0.3298
 2289TIP3   OH2 6809   7.445   2.188   2.436 -0.0555  0.0032  0.0583
 2289TIP3    H1 6810   7.383   2.122   2.469 -1.1417  0.7296 -0.4876
 2289TIP3    H2 6811   7.417   2.270   2.477  1.4518  0.0896  0.9344
 2290TIP3   OH2 6812   2.371   5.249   6.690  0.0931  0.3458 -0.4737
 2290TIP3    H1 6813   2.391   5.157   6.710  0.0506  0.6486  1.0229
 2290TIP3    H2 6814   2.276   5.253   6.687  0.0739  0.4931  0.2413
 2291TIP3   OH2 6815   0.321   2.306   2.170 -0.1689 -0.0248 -0.1894
 2291TIP3    H1 6816   0.380   2.284   2.242  1.0180  0.7633 -0.9051
 2291TIP3    H2 6817   0.352   2.254   2.096 -1.0036 -0.3648 -0.3100
 2292TIP3   OH2 6818   8.099   2.289   2.379 -0.1159 -0.3908  0.4200
 2292TIP3    H1 6819   8.180   2.290   2.328  0.1096 -2.1545  0.6975
 2292TIP3    H2 6820   8.115   2.224   2.447 -0.4197  1.8975  2.7435
 2293TIP3   OH2 6821   8.435   4.212   3.722 -0.0542 -0.5238  0.0105
 2293TIP3    H1 6822   8.407   4.279   3.660  0.5375  0.3544  0.6688
 2293TIP3    H2 6823   8.361   4.201   3.781  0.3435  0.5828  0.7420
 2294TIP3   OH2 6824   6.111   0.922   0.733 -0.2562 -0.1094  0.4723
 2294TIP3    H1 6825   6.067   0.842   0.762 -1.6392 -0.1336 -1.5425
 2294TIP3    H2 6826   6.061   0.993   0.773  0.2917 -0.2170  1.3613
 2295TIP3   OH2 6827   6.495   7.809   3.677  0.1762 -0.2459  0.5062
 2295TIP3    H1 6828   6.551   7.812   3.599  0.6086  0.4129  0.8380
 2295TIP3    H2 6829   6.408   7.789   3.642 -0.1198  2.4031 -0.4343
 2296TIP3   OH2 6830   1.399   0.172   1.315 -0.6515 -0.0370  0.3449
 2296TIP3    H1 6831   1.452   0.203   1.388 -0.1017  1.6413 -0.7294
 2296TIP3    H2 6832   1.308   0.182   1.345 -0.4124 -0.8227  1.3537
 2297TIP3   OH2 6833   0.794   0.211   1.715  0.0708 -0.0702  0.7695
 2297TIP3    H1 6834   0.776   0.118   1.727 -0.6599 -0.0554 -0.0888
 2297TIP3    H2 6835   0.769   0.228   1.624  0.3082  0.9385  0.8874
 2298TIP3   OH2 6836   5.793   3.090   3.690 -0.8768  0.2822  0.1047
 2298TIP3    H1 6837   5.699   3.106   3.685 -0.5319  1.9923 -1.5286
 2298TIP3    H2 6838   5.833   3.175   3.674  0.9653 -0.3075  1.3418
 2299TIP3   OH2 6839   7.192   1.225   3.317 -0.3171 -0.0742  0.1161
 2299TIP3    H1 6840   7.178   1.295   3.253  0.7051  1.1489  1.1883
 2299TIP3    H2 6841   7.265   1.174   3.281 -0.5289 -0.1004 -0.2761
 2300TIP3   OH2 6842   3.449   7.337   1.223 -0.1075 -0.0655 -0.2091
 2300TIP3    H1 6843   3.539   7.328   1.253 -0.4457  0.7068  1.0654
 2300TIP3    H2 6844   3.421   7.248   1.201  0.3360 -0.5603  1.2133
 2301TIP3   OH2 6845   4.421   7.386   0.573 -0.4404  0.2496 -0.4619
 2301TIP3    H1 6846   4.421   7.398   0.668 -0.5505 -0.6409 -0.3433
 2301TIP3    H2 6847   4.331   7.403   0.546 -0.2570  1.1636 -0.4933
 2302TIP3   OH2 6848   6.735   7.203   3.779  0.2931  0.0251  0.2467
 2302TIP3    H1 6849   6.807   7.149   3.811  0.7868  0.3034 -0.3979
 2302TIP3    H2 6850   6.669   7.198   3.848  0.2542 -1.5661  0.1088
 2303TIP3   OH2 6851   6.417   2.222   3.923 -0.2496  0.2563  0.7616
 2303TIP3    H1 6852   6.357   2.222   3.998 -1.6842  0.8572 -0.3569
 2303TIP3    H2 6853   6.483   2.157   3.945 -0.4509  0.6866  2.7083
 2304TIP3   OH2 6854   0.112   2.053   3.284  0.2709 -0.1091  0.0530
 2304TIP3    H1 6855   0.023   2.086   3.280  0.2237 -0.2725 -0.2703
 2304TIP3    H2 6856   0.114   1.996   3.360 -0.8237 -2.7984 -1.8485
 2305TIP3   OH2 6857   7.145   1.345   2.665  0.2217  0.0348  0.3383
 2305TIP3    H1 6858   7.218   1.313   2.718  0.2103 -2.5013 -1.0736
 2305TIP3    H2 6859   7.079   1.275   2.670  0.1342 -0.1920 -2.7997
 2306TIP3   OH2 6860   7.916   2.065   3.879  0.0903  0.6472  0.2394
 2306TIP3    H1 6861   7.866   2.070   3.961 -2.1078  0.6506 -1.0634
 2306TIP3    H2 6862   7.894   1.979   3.843  0.1675  1.0891 -0.8873
 2307TIP3   OH2 6863   2.123   4.434   6.308 -0.4709 -0.4803 -0.0690
 2307TIP3    H1 6864   2.087   4.345   6.314 -0.4922 -0.6006 -1.6136
 2307TIP3    H2 6865   2.072   4.474   6.237  0.3049  0.3922 -0.1296
 2308TIP3   OH2 6866   0.852   3.083   1.398  0.1422 -0.7838 -0.0322
 2308TIP3    H1 6867   0.881   3.078   1.307  0.8856  0.0043  0.1551
 2308TIP3    H2 6868   0.910   3.147   1.438 -3.3667  2.7319 -0.2570
 2309TIP3   OH2 6869   6.447   0.872   2.742  0.2414  0.6704  0.2223
 2309TIP3    H1 6870   6.539   0.854   2.762  1.0711  1.4899 -2.4875
 2309TIP3    H2 6871   6.404   0.787   2.748  1.6175 -0.1040 -0.4721
 2310TIP3   OH2 6872   8.156   0.582   2.988 -0.2450 -0.2625  0.3513
 2310TIP3    H1 6873   8.169   0.488   2.976 -0.6046 -0.1285 -1.1697
 2310TIP3    H2 6874   8.203   0.623   2.915 -2.5473  0.5781 -0.7170
 2311TIP3   OH2 6875   1.005   1.781   3.989  0.2847  0.1340  0.0856
 2311TIP3    H1 6876   0.995   1.686   3.983  0.8168  0.1068 -0.4234
 2311TIP3    H2 6877   0.956   1.814   3.914 -0.6156  0.3169  0.7418
 2312TIP3   OH2 6878   5.030   7.003   6.243 -0.5312 -0.2399  0.4287
 2312TIP3    H1 6879   5.117   7.040   6.228 -0.4112 -1.0338 -0.8681
 2312TIP3    H2 6880   5.033   6.970   6.333  0.3165  0.2387  0.5784
 2313TIP3   OH2 6881   6.434   5.704   5.041  0.2273 -0.3673 -0.1003
 2313TIP3    H1 6882   6.525   5.733   5.044 -0.1121  0.7207 -0.0591
 2313TIP3    H2 6883   6.391   5.763   4.979 -0.6788 -0.1942  0.6727
 2314TIP3   OH2 6884   8.016   7.968   1.953 -0.2272  0.2659 -0.2162
 2314TIP3    H1 6885   7.941   7.909   1.959 -0.3690  0.4032 -0.5848
 2314TIP3    H2 6886   8.039   7.988   2.043  0.3360 -0.9954 -0.0605
 2315TIP3   OH2 6887   0.309   3.291   3.116 -0.0511 -0.5200 -0.0132
 2315TIP3    H1 6888   0.358   3.343   3.180 -0.5131  1.1690 -1.0039
 2315TIP3    H2 6889   0.360   3.297   3.036 -1.2934  0.3425 -0.7585
 2316TIP3   OH2 6890   0.971   2.305   1.088 -0.5673 -0.0703 -0.3106
 2316TIP3    H1 6891   1.060   2.312   1.123  0.4869 -1.8087 -2.4372
 2316TIP3    H2 6892   0.926   2.245   1.147  1.3845 -3.5117 -2.1310
 2317TIP3   OH2 6893   7.359   7.561   1.140  0.3316 -0.6901 -0.0670
 2317TIP3    H1 6894   7.295   7.618   1.097  1.2816  0.3538 -0.1221
 2317TIP3    H2 6895   7.323   7.473   1.130 -0.6885 -0.1990 -0.8177
 2318TIP3   OH2 6896   1.520   1.200   5.561 -0.1051  0.6207  0.1489
 2318TIP3    H1 6897   1.487   1.142   5.493 -1.5399  1.5875  0.0019
 2318TIP3    H2 6898   1.616   1.192   5.555 -0.2270  0.3069 -1.6272
 2319TIP3   OH2 6899   1.169   0.458   1.681  0.0212 -0.1061  0.0880
 2319TIP3    H1 6900   1.111   0.476   1.755 -1.8938 -2.3868 -0.7902
 2319TIP3    H2 6901   1.111   0.431   1.610  2.0354 -0.9721 -1.3013
 2320TIP3   OH2 6902   5.520   7.194   4.363  0.5562 -0.1322 -0.4086
 2320TIP3    H1 6903   5.473   7.124   4.408  0.1650  0.4192  0.0532
 2320TIP3    H2 6904   5.498   7.183   4.271  2.3833 -2.0580 -0.6480
 2321TIP3   OH2 6905   2.121   0.584   4.989  0.9378 -0.5714 -0.3907
 2321TIP3    H1 6906   2.029   0.587   5.015  0.4176 -1.1724 -2.0798
 2321TIP3    H2 6907   2.162   0.657   5.034 -0.7851  0.8956 -1.1502
 2322TIP3   OH2 6908   6.656   1.896   4.835 -0.0056 -0.5055 -0.0345
 2322TIP3    H1 6909   6.709   1.940   4.768 -1.2162 -0.9335 -1.3048
 2322TIP3    H2 6910   6.719   1.846   4.886  0.8445 -0.9526 -1.4812
 2323TIP3   OH2 6911   1.630   3.930   2.486 -0.0780 -0.3928 -0.2773
 2323TIP3    H1 6912   1.592   3.957   2.569 -1.2227 -0.3442 -0.7997
 2323TIP3    H2 6913   1.607   4.001   2.425 -1.5119 -1.6563 -1.2328
 2324TIP3   OH2 6914   0.580   0.467   5.062  0.4798  0.4885  0.2063
 2324TIP3    H1 6915   0.659   0.441   5.109 -0.7193  0.9375  2.5792
 2324TIP3    H2 6916   0.510   0.415   5.102 -0.3060 -0.6779 -2.5647
 2325TIP3   OH2 6917   8.361   7.318   3.221  0.1494 -0.0056 -0.3950
 2325TIP3    H1 6918   8.320   7.371   3.289  0.7567  1.5592 -1.2452
 2325TIP3    H2 6919   8.455   7.330   3.233  0.3771 -2.3667  0.5607
 2326TIP3   OH2 6920   1.091   0.316   6.305  0.5159 -0.0817  0.1057
 2326TIP3    H1 6921   1.052   0.244   6.356 -1.2852  0.0298 -1.0731
 2326TIP3    H2 6922   1.113   0.277   6.221 -0.7501  0.8089 -0.6475
 2327TIP3   OH2 6923   3.925   0.798   4.830 -0.2028 -0.2921  0.8849
 2327TIP3    H1 6924   3.831   0.785   4.845 -0.5802  0.5885 -0.6929
 2327TIP3    H2 6925   3.948   0.870   4.888 -0.6506 -0.0428  0.7586
 2328TIP3   OH2 6926   8.123   3.213   4.342  0.0745  0.0068 -0.1482
 2328TIP3    H1 6927   8.115   3.136   4.286 -3.1789 -0.1996  0.5003
 2328TIP3    H2 6928   8.100   3.286   4.285  0.3248  0.2024 -0.0002
 2329TIP3   OH2 6929   1.268   0.785   2.680  0.0788  0.3555  0.8081
 2329TIP3    H1 6930   1.262   0.856   2.616 -0.9439 -0.9839 -0.6257
 2329TIP3    H2 6931   1.362   0.773   2.692  0.3113  0.2049 -0.9538
 2330TIP3   OH2 6932   0.509   1.029   5.117  0.7106  0.9629 -0.5226
 2330TIP3    H1 6933   0.517   1.010   5.023 -1.8922 -1.5467 -0.2851
 2330TIP3    H2 6934   0.522   0.945   5.160 -3.2530  1.0824  1.0667
 2331TIP3   OH2 6935   0.694   1.903   5.010 -0.3159  0.0228 -0.1132
 2331TIP3    H1 6936   0.788   1.886   5.015 -0.4210 -0.2039  1.1010
 2331TIP3    H2 6937   0.686   1.998   5.019 -0.2464 -0.0133  0.3108
 2332TIP3   OH2 6938   1.837   4.350   1.948  0.1822 -0.4103  0.2890
 2332TIP3    H1 6939   1.863   4.442   1.949 -0.0767 -0.3388  1.8706
 2332TIP3    H2 6940   1.846   4.321   2.039  1.5703 -2.3236 -0.4081
 2333TIP3   OH2 6941   0.741   3.049   2.115 -0.4494 -0.5589  0.3108
 2333TIP3    H1 6942   0.662   3.081   2.071  0.4920 -0.9390 -1.7469
 2333TIP3    H2 6943   0.751   2.959   2.084  1.1575 -0.2933 -0.0221
 2334TIP3   OH2 6944   1.072   0.439   2.919  0.4004  0.2717 -0.4282
 2334TIP3    H1 6945   1.144   0.425   2.857  0.3825 -1.7512 -0.0196
 2334TIP3    H2 6946   1.093   0.384   2.994 -1.2181  0.2015 -0.0016
 2335TIP3   OH2 6947   0.698   1.253   1.995  0.7371 -0.1301 -0.6354
 2335TIP3    H1 6948   0.782   1.281   2.030  0.4708  1.4107 -1.1599
 2335TIP3    H2 6949   0.636   1.319   2.027 -0.4375 -1.7996  0.5685
 2336TIP3   OH2 6950   0.495   7.615   4.666 -0.4408  0.3958 -0.7028
 2336TIP3    H1 6951   0.478   7.525   4.692 -1.2983  1.0334  1.0205
 2336TIP3    H2 6952   0.568   7.643   4.721  0.0862  0.6365 -1.5102
 2337TIP3   OH2 6953   1.578   1.638   2.631 -0.3214  0.0044  0.1697
 2337TIP3    H1 6954   1.625   1.555   2.641  0.2462  0.3121  0.1012
 2337TIP3    H2 6955   1.646   1.705   2.642 -0.5152  0.4286 -1.1697
 2338TIP3   OH2 6956   0.511   1.805   3.117 -0.0868 -0.1943  0.2380
 2338TIP3    H1 6957   0.594   1.817   3.071 -0.7758  1.9735 -0.5130
 2338TIP3    H2 6958   0.451   1.866   3.074 -1.7607 -0.8638  1.5607
 2339TIP3   OH2 6959   7.011   2.237   3.913 -0.1179  0.1474  0.0281
 2339TIP3    H1 6960   7.025   2.155   3.865 -3.9052 -0.5243 -0.1394
 2339TIP3    H2 6961   7.081   2.295   3.884  0.4195 -1.7955 -2.7670
 2340TIP3   OH2 6962   0.753   2.284   2.948 -0.0863  0.1393  0.1733
 2340TIP3    H1 6963   0.671   2.330   2.932 -0.3674 -0.2479  0.4664
 2340TIP3    H2 6964   0.814   2.319   2.884 -1.0472 -1.0289 -1.3994
 2341TIP3   OH2 6965   0.656   7.086   4.251 -0.1374  0.1048 -0.1706
 2341TIP3    H1 6966   0.726   7.081   4.185  0.2064  0.0097  0.2017
 2341TIP3    H2 6967   0.575   7.093   4.200 -0.0340 -1.7703 -0.6281
 2342TIP3   OH2 6968   7.230   6.968   3.667  0.4921 -0.0174 -0.1027
 2342TIP3    H1 6969   7.156   7.023   3.642 -0.5444 -1.7370 -0.9317
 2342TIP3    H2 6970   7.271   7.014   3.740 -0.2189  1.9382 -0.9064
 2343TIP3   OH2 6971   8.402   1.299   2.877  0.2303 -0.1165  0.0320
 2343TIP3    H1 6972   8.375   1.361   2.945  0.1129 -0.7436  0.5609
 2343TIP3    H2 6973   8.465   1.348   2.824  1.0300  0.0799  1.1468
 2344TIP3   OH2 6974   4.359   7.187   4.914  0.4250 -0.2458  0.1987
 2344TIP3    H1 6975   4.313   7.130   4.976 -0.7531  0.9304  0.4344
 2344TIP3    H2 6976   4.365   7.135   4.834 -2.2404 -0.0609 -0.1638
 2345TIP3   OH2 6977   0.872   0.950   2.882 -0.2710 -0.3959 -0.2119
 2345TIP3    H1 6978   0.840   0.920   2.967  0.8505  1.0743  0.7569
 2345TIP3    H2 6979   0.820   1.028   2.863  0.5841  0.2108 -0.0988
 2346TIP3   OH2 6980   5.157   7.953   3.140  0.3935  0.5866  0.1224
 2346TIP3    H1 6981   5.065   7.980   3.141  0.6550  1.4855  0.2441
 2346TIP3    H2 6982   5.172   7.915   3.226  0.0813  0.2667  0.0338
 2347TIP3   OH2 6983   0.802   2.063   3.387  0.2012 -0.3366  0.1306
 2347TIP3    H1 6984   0.780   2.126   3.456 -0.9348 -0.7433  0.1429
 2347TIP3    H2 6985   0.839   2.116   3.316  0.6098  0.1741  0.7197
 2348TIP3   OH2 6986   0.781   3.802   2.378  0.4871 -0.0359 -0.3606
 2348TIP3    H1 6987   0.752   3.712   2.392 -0.4054  0.0447 -1.6326
 2348TIP3    H2 6988   0.862   3.809   2.429  1.3623 -1.9959 -1.4133
 2349TIP3   OH2 6989   0.237   2.378   3.818 -0.2247  0.5103 -0.5534
 2349TIP3    H1 6990   0.251   2.308   3.882  0.6064  0.2037 -1.0559
 2349TIP3    H2 6991   0.157   2.421   3.847 -0.2043 -0.0234  0.3303
 2350TIP3   OH2 6992   7.451   3.008   5.688 -0.4718 -0.0258  0.2055
 2350TIP3    H1 6993   7.512   2.968   5.626 -1.0412  1.4997 -1.3707
 2350TIP3    H2 6994   7.482   2.980   5.774  0.9855 -1.2650 -0.7051
 2351TIP3   OH2 6995   7.062   7.653   3.099  0.1569  0.0505  0.4554
 2351TIP3    H1 6996   7.023   7.695   3.175  0.5857 -0.5372  1.0105
 2351TIP3    H2 6997   7.154   7.681   3.101  0.1717  0.0170  0.1708
 2352TIP3   OH2 6998   0.461   2.482   2.672  0.1026  0.0911 -0.1289
 2352TIP3    H1 6999   0.534   2.422   2.654  0.4571  0.3757  0.3491
 2352TIP3    H2 7000   0.456   2.486   2.768  0.3519  1.1467 -0.1571
 2353TIP3   OH2 7001   2.728   3.941   3.755  0.2538 -0.6595 -0.5462
 2353TIP3    H1 7002   2.638   3.966   3.736  0.0235 -0.7325  0.4292
 2353TIP3    H2 7003   2.721   3.874   3.824  1.1409  0.9774  1.1709
 2354TIP3   OH2 7004   1.098   0.592   4.527  0.2208  0.0561  0.3020
 2354TIP3    H1 7005   1.115   0.655   4.597  2.0710 -1.3521  1.1866
 2354TIP3    H2 7006   1.162   0.522   4.542 -2.2602 -2.3964 -0.2219
 2355TIP3   OH2 7007   5.326   7.937   5.443 -0.4319 -0.2609  0.3428
 2355TIP3    H1 7008   5.326   8.028   5.472  0.1000 -0.5663  1.3438
 2355TIP3    H2 7009   5.405   7.929   5.390  0.5812 -0.6123  1.8587
 2356TIP3   OH2 7010   0.973   1.102   4.638 -0.4845 -0.1721 -0.4954
 2356TIP3    H1 7011   0.946   1.191   4.611 -1.5840 -1.1530 -2.8020
 2356TIP3    H2 7012   0.909   1.077   4.704  0.1201  0.9388  0.5289
 2357TIP3   OH2 7013   6.726   5.983   5.329 -0.4212  0.2437 -0.3822
 2357TIP3    H1 7014   6.642   5.938   5.331  0.5455 -1.5784  0.3724
 2357TIP3    H2 7015   6.709   6.064   5.282 -2.4307 -0.4421 -0.8679
 2358TIP3   OH2 7016   0.884   2.882   3.936 -0.7179 -0.2012 -0.0406
 2358TIP3    H1 7017   0.866   2.967   3.895 -0.0411 -1.2080 -2.5616
 2358TIP3    H2 7018   0.962   2.897   3.989 -1.6652  1.1699  1.0087
 2359TIP3   OH2 7019   7.954   0.750   3.685 -0.6213 -0.0350  0.2453
 2359TIP3    H1 7020   7.929   0.764   3.776 -1.0508 -1.0014  0.2862
 2359TIP3    H2 7021   8.022   0.683   3.689 -1.7766 -1.2617 -0.2557
 2360TIP3   OH2 7022   1.739   3.694   4.066  0.1103 -0.4437 -0.1533
 2360TIP3    H1 7023   1.668   3.631   4.078  0.1010 -0.2864  0.6120
 2360TIP3    H2 7024   1.695   3.772   4.030 -0.1429 -0.2537  0.5700
 2361TIP3   OH2 7025   8.414   0.855   4.750  0.0266 -0.1877  0.0119
 2361TIP3    H1 7026   8.345   0.790   4.733 -0.4662  0.1128  0.8488
 2361TIP3    H2 7027   8.369   0.939   4.740  0.9817  0.0817 -2.5057
 2362TIP3   OH2 7028   0.459   2.707   2.908 -0.1144 -0.2956 -0.1182
 2362TIP3    H1 7029   0.390   2.684   2.846 -0.2475  0.5193 -0.2779
 2362TIP3    H2 7030   0.412   2.726   2.989 -0.1784  1.2339 -0.4956
 2363TIP3   OH2 7031   1.312   0.918   2.446 -0.4134  0.3988 -0.1672
 2363TIP3    H1 7032   1.224   0.946   2.424 -0.5725 -0.1920 -0.2810
 2363TIP3    H2 7033   1.338   0.860   2.374  0.0734  0.5822 -0.1445
 2364TIP3   OH2 7034   7.840   0.860   3.943  0.7683 -0.0199  0.1411
 2364TIP3    H1 7035   7.838   0.797   4.015 -1.5236 -0.0798  0.0595
 2364TIP3    H2 7036   7.758   0.909   3.951  0.3964 -0.1200 -2.4827
 2365TIP3   OH2 7037   7.119   7.889   4.914  0.1012  0.2302 -0.0720
 2365TIP3    H1 7038   7.091   7.798   4.898  0.9751  0.1295 -1.0604
 2365TIP3    H2 7039   7.197   7.880   4.969 -0.2851  0.4173  0.5100
 2366TIP3   OH2 7040   4.111   3.280   6.064  0.0590  0.7171 -0.3548
 2366TIP3    H1 7041   4.091   3.262   5.972  1.0161  0.9725 -0.6176
 2366TIP3    H2 7042   4.180   3.218   6.086 -0.2579  0.5745  0.2315
 2367TIP3   OH2 7043   2.673   3.185   3.843 -0.1154  0.0273 -0.2886
 2367TIP3    H1 7044   2.718   3.102   3.831  0.5412  0.0296  1.9138
 2367TIP3    H2 7045   2.610   3.189   3.771 -0.8645 -2.8662  0.1304
 2368TIP3   OH2 7046   0.765   7.502   6.077  0.1434  0.1536 -0.0521
 2368TIP3    H1 7047   0.730   7.471   5.993  0.3805  0.8357 -0.4081
 2368TIP3    H2 7048   0.850   7.542   6.054  0.0562  0.6410  0.4589
 2369TIP3   OH2 7049   7.754   0.352   5.555  0.4035  0.6736 -0.2709
 2369TIP3    H1 7050   7.747   0.408   5.633  0.7918 -1.0465  1.0416
 2369TIP3    H2 7051   7.664   0.332   5.532  0.3074 -0.2482  0.8356
 2370TIP3   OH2 7052   5.914   6.759   3.383  0.2680  0.3275 -0.1209
 2370TIP3    H1 7053   5.910   6.813   3.305 -1.0225  1.0712  0.4457
 2370TIP3    H2 7054   6.008   6.748   3.400  0.5455  1.8889 -0.5808
 2371TIP3   OH2 7055   0.724   0.513   4.120 -0.1421  0.0780 -0.6320
 2371TIP3    H1 7056   0.813   0.523   4.156  0.3203  1.5387 -2.1497
 2371TIP3    H2 7057   0.693   0.602   4.107 -1.5494 -0.4329 -0.8644
 2372TIP3   OH2 7058   8.145   0.987   5.369 -0.1126 -0.1451 -0.0980
 2372TIP3    H1 7059   8.164   0.900   5.335  1.4701  0.1031  0.1160
 2372TIP3    H2 7060   8.223   1.038   5.348 -0.6153  0.9564  0.6835
 2373TIP3   OH2 7061   0.870   2.002   2.884 -0.3394 -0.0054 -0.2393
 2373TIP3    H1 7062   0.851   2.081   2.936 -0.6736 -0.1513 -0.1372
 2373TIP3    H2 7063   0.819   1.933   2.926 -0.2977 -0.2095 -0.5231
 2374TIP3   OH2 7064   2.239   3.046   2.442  0.0305 -0.3793  0.1221
 2374TIP3    H1 7065   2.317   3.076   2.395 -1.2022  0.4760 -1.4335
 2374TIP3    H2 7066   2.273   2.993   2.514  2.0035 -0.7481 -1.0489
 2375TIP3   OH2 7067   0.786   0.375   2.886 -0.3119  0.0948  0.8479
 2375TIP3    H1 7068   0.881   0.389   2.890 -0.2395 -0.7163  2.1152
 2375TIP3    H2 7069   0.751   0.430   2.957 -0.8147  0.6310  0.1854
 2376TIP3   OH2 7070   1.550   1.138   3.134 -0.0576  0.2222 -0.0337
 2376TIP3    H1 7071   1.611   1.088   3.080  1.0056 -0.3087  1.6217
 2376TIP3    H2 7072   1.606   1.184   3.198 -1.3590 -0.1370  1.3909
 2377TIP3   OH2 7073   1.210   3.336   4.258  0.2984  0.1600  0.0721
 2377TIP3    H1 7074   1.296   3.316   4.220  1.0711  1.6148  0.9971
 2377TIP3    H2 7075   1.194   3.266   4.320  0.5281 -0.4461 -0.5435
 2378TIP3   OH2 7076   2.428   0.650   1.716  0.2327  0.0735 -0.5210
 2378TIP3    H1 7077   2.357   0.677   1.658  0.4628  1.2986 -0.2419
 2378TIP3    H2 7078   2.430   0.717   1.784 -0.6743 -1.8522  1.4693
 2379TIP3   OH2 7079   0.355   0.578   5.350 -0.2513 -0.5999  0.0820
 2379TIP3    H1 7080   0.319   0.531   5.426  0.7809  0.2966  1.1616
 2379TIP3    H2 7081   0.286   0.639   5.325 -0.3866 -0.5049  0.6743
 2380TIP3   OH2 7082   1.030   0.466   3.952 -0.2709 -0.3764 -0.2402
 2380TIP3    H1 7083   0.948   0.418   3.943  0.0379 -0.8091 -0.7978
 2380TIP3    H2 7084   1.064   0.441   4.037 -2.1463  2.0436  1.2751
 2381TIP3   OH2 7085   1.786   1.924   3.401 -0.1295  0.2079 -0.1030
 2381TIP3    H1 7086   1.821   1.844   3.442 -1.8752 -0.9431 -0.8101
 2381TIP3    H2 7087   1.743   1.893   3.321 -0.4253  1.9304 -0.6355
 2382TIP3   OH2 7088   1.675   0.470   3.902  0.3608 -0.5772 -0.0331
 2382TIP3    H1 7089   1.741   0.401   3.904  2.4676  1.3360 -1.0153
 2382TIP3    H2 7090   1.719   0.546   3.941 -1.6003  0.4715  0.1965
 2383TIP3   OH2 7091   0.114   1.708   4.715  0.4109 -0.4124 -0.0605
 2383TIP3    H1 7092   0.119   1.622   4.756  1.1372  0.0313  0.7783
 2383TIP3    H2 7093   0.181   1.705   4.646  0.7367 -0.3602  0.2541
 2384TIP3   OH2 7094   2.328   1.553   3.280  0.2767  0.0012  0.1894
 2384TIP3    H1 7095   2.317   1.640   3.242  1.1258 -0.0060 -0.0726
 2384TIP3    H2 7096   2.297   1.493   3.213 -0.2572  0.0974  0.3481
 2385TIP3   OH2 7097   7.163   7.788   1.424  0.4566  0.6368  0.1441
 2385TIP3    H1 7098   7.100   7.731   1.380  0.8124 -0.0703  0.5479
 2385TIP3    H2 7099   7.201   7.840   1.354  1.3823 -0.8310 -0.4628
 2386TIP3   OH2 7100   8.392   2.494   2.054 -0.1996 -0.4754 -0.1591
 2386TIP3    H1 7101   8.360   2.535   1.974  1.3542 -0.3546 -0.7274
 2386TIP3    H2 7102   8.484   2.520   2.059 -0.4669  0.1198  2.0493
 2387TIP3   OH2 7103   0.944   2.927   3.140 -0.4789 -0.2191 -0.7694
 2387TIP3    H1 7104   0.990   2.883   3.211 -2.3045  1.7975  1.7582
 2387TIP3    H2 7105   0.852   2.906   3.155 -0.9712  1.0537 -1.9722
 2388TIP3   OH2 7106   2.196   1.578   4.076  0.0515 -0.3847 -0.1673
 2388TIP3    H1 7107   2.206   1.485   4.098 -0.2814 -0.5030 -0.5105
 2388TIP3    H2 7108   2.101   1.592   4.075  0.1208  0.2312  1.0269
 2389TIP3   OH2 7109   2.464   3.093   2.276 -0.7056 -0.1312  0.0641
 2389TIP3    H1 7110   2.534   3.132   2.223  0.1055 -0.9997  0.4733
 2389TIP3    H2 7111   2.420   3.032   2.217  0.1874 -1.0881  0.3824
 2390TIP3   OH2 7112   1.017   3.290   1.502 -0.1822  0.2637 -0.2097
 2390TIP3    H1 7113   0.999   3.310   1.594  2.4112  1.1960  0.1580
 2390TIP3    H2 7114   0.961   3.350   1.453 -1.4670 -0.1255  0.7504
 2391TIP3   OH2 7115   8.481   2.160   4.318  0.3676 -0.2690 -0.2625
 2391TIP3    H1 7116   8.504   2.069   4.331  1.6888  0.2757  1.4449
 2391TIP3    H2 7117   8.434   2.185   4.398 -1.1691  0.1906 -1.2832
 2392TIP3   OH2 7118   2.227   0.129   5.772 -0.1994 -0.4148 -0.7045
 2392TIP3    H1 7119   2.158   0.194   5.784  0.8129  0.6160 -0.3396
 2392TIP3    H2 7120   2.181   0.051   5.740 -1.5202  0.2498 -0.4784
 2393TIP3   OH2 7121   1.568   0.021   3.299 -0.6116 -0.9695 -0.2466
 2393TIP3    H1 7122   1.525   0.057   3.221 -0.4663 -0.0737  0.0838
 2393TIP3    H2 7123   1.627   0.091   3.329  0.7104 -1.9956 -0.4058
 2394TIP3   OH2 7124   0.909   1.018   0.343  0.4253  0.5214  0.3242
 2394TIP3    H1 7125   0.915   1.064   0.427  0.4488  2.5959 -0.7930
 2394TIP3    H2 7126   0.996   1.024   0.305  0.1552  0.4963 -0.3117
 2395TIP3   OH2 7127   2.579   2.271   3.537 -0.4583 -0.3138  0.1120
 2395TIP3    H1 7128   2.535   2.321   3.605  1.6618  0.4785  0.9408
 2395TIP3    H2 7129   2.585   2.331   3.463 -0.8393 -0.4610 -0.0419
 2396TIP3   OH2 7130   2.878   1.298   3.259  0.5280 -0.4639  0.2281
 2396TIP3    H1 7131   2.840   1.277   3.345  1.4813 -3.8334 -0.1065
 2396TIP3    H2 7132   2.964   1.335   3.279 -0.0368  0.5963  0.7570
 2397TIP3   OH2 7133   7.878   1.806   2.976 -0.2715 -0.3027 -0.3544
 2397TIP3    H1 7134   7.797   1.773   3.014  1.2169 -2.0540  1.4538
 2397TIP3    H2 7135   7.864   1.900   2.965 -2.1320 -0.3944  1.0301
 2398TIP3   OH2 7136   8.218   3.683   3.136 -0.1831  0.5974 -0.0370
 2398TIP3    H1 7137   8.124   3.675   3.126 -0.2097 -0.2256  0.7080
 2398TIP3    H2 7138   8.255   3.643   3.057 -0.4519  0.8132 -0.2706
 2399TIP3   OH2 7139   1.452   2.052   3.768 -0.7407  0.0565  0.0734
 2399TIP3    H1 7140   1.546   2.043   3.782 -0.4585  1.7915 -0.5542
 2399TIP3    H2 7141   1.422   2.107   3.841 -0.9740  0.8999 -0.6561
 2400TIP3   OH2 7142   2.487   2.720   5.150  0.5494  0.2178  0.2351
 2400TIP3    H1 7143   2.481   2.816   5.151  0.6119  0.2653 -1.8591
 2400TIP3    H2 7144   2.525   2.698   5.235 -1.5066  1.8954  1.6688
 2401TIP3   OH2 7145   1.616   3.905   3.892  0.4058 -0.4065  0.0865
 2401TIP3    H1 7146   1.538   3.851   3.899  0.8976 -1.2828 -1.0669
 2401TIP3    H2 7147   1.655   3.881   3.808  1.7475  0.2444  0.5018
 2402TIP3   OH2 7148   1.514   1.829   3.412  0.1196  0.3155 -0.2573
 2402TIP3    H1 7149   1.527   1.804   3.321 -0.3597  1.2102 -0.5899
 2402TIP3    H2 7150   1.532   1.923   3.413  1.1679  0.1100  0.7943
 2403TIP3   OH2 7151   0.161   1.064   5.426  0.0318 -0.1119  0.1237
 2403TIP3    H1 7152   0.159   1.113   5.344 -1.5255  0.7906  0.6850
 2403TIP3    H2 7153   0.250   1.076   5.460  0.4810  0.0517 -1.0908
 2404TIP3   OH2 7154   0.519   7.266   5.970  0.2926  0.0075  0.4752
 2404TIP3    H1 7155   0.456   7.258   5.898 -0.6457  1.3866  1.1436
 2404TIP3    H2 7156   0.600   7.295   5.927 -0.4450  1.4665  0.0427
 2405TIP3   OH2 7157   7.629   0.405   3.485  0.4711  0.2979 -0.1366
 2405TIP3    H1 7158   7.558   0.458   3.521  0.5506  0.0051  0.4554
 2405TIP3    H2 7159   7.586   0.325   3.455  0.9926 -1.4825  3.5254
 2406TIP3   OH2 7160   1.377   3.355   2.127  0.0646 -0.1837 -0.2467
 2406TIP3    H1 7161   1.312   3.294   2.092 -0.6800  0.5031 -0.0773
 2406TIP3    H2 7162   1.421   3.390   2.050  0.6538 -1.1035 -0.3361
 2407TIP3   OH2 7163   2.818   0.978   6.367 -0.5583 -0.4593  0.0713
 2407TIP3    H1 7164   2.828   0.998   6.460 -0.4937  0.6999 -0.1748
 2407TIP3    H2 7165   2.897   0.928   6.346 -0.8417 -1.2091  0.7617
 2408TIP3   OH2 7166   6.114   6.956   5.368  0.5166  0.0212  0.1890
 2408TIP3    H1 7167   6.207   6.949   5.346 -0.0272 -0.7227 -2.0330
 2408TIP3    H2 7168   6.089   7.044   5.339  0.0167 -0.6119 -1.3452
 2409TIP3   OH2 7169   0.237   1.324   4.046  0.6374 -0.3046 -0.0911
 2409TIP3    H1 7170   0.321   1.338   4.091  0.5207  1.3869 -0.3672
 2409TIP3    H2 7171   0.180   1.288   4.114  0.8457  0.9878  0.7862
 2410TIP3   OH2 7172   3.058   1.790   3.361  0.1175 -0.5985 -0.3878
 2410TIP3    H1 7173   3.090   1.790   3.271 -0.8160 -0.0342 -0.7260
 2410TIP3    H2 7174   2.994   1.720   3.363 -1.3302  0.6740 -0.7144
 2411TIP3   OH2 7175   6.938   7.360   4.970 -0.3513  0.1564  0.1728
 2411TIP3    H1 7176   6.956   7.268   4.990  0.2684  0.3493  0.5091
 2411TIP3    H2 7177   6.867   7.384   5.029  0.1470  0.1659  0.7755
 2412TIP3   OH2 7178   6.554   6.649   4.570 -0.4358 -0.3031 -0.2923
 2412TIP3    H1 7179   6.624   6.641   4.635 -0.9359  0.1362  0.3128
 2412TIP3    H2 7180   6.479   6.680   4.620 -1.4746 -2.1406 -0.6614
 2413TIP3   OH2 7181   1.157   0.876   6.483 -0.3440  0.5245 -0.3179
 2413TIP3    H1 7182   1.131   0.799   6.533  0.8139  0.0843 -0.3800
 2413TIP3    H2 7183   1.075   0.913   6.451 -0.9666 -0.1981  0.4240
 2414TIP3   OH2 7184   0.071   0.927   4.323  0.3025 -0.1167 -0.7326
 2414TIP3    H1 7185   0.078   0.902   4.415 -1.7541 -0.5983 -0.6792
 2414TIP3    H2 7186   0.083   1.022   4.322  1.0908 -0.2050 -0.0811
 2415TIP3   OH2 7187   5.677   5.235   0.053  0.1745  0.4943 -0.0886
 2415TIP3    H1 7188   5.740   5.164   0.044 -0.9966 -0.7692  1.4901
 2415TIP3    H2 7189   5.639   5.245  -0.035 -0.7026 -1.8398 -0.0103
 2416TIP3   OH2 7190   6.264   7.604   5.709 -0.1569 -0.3496  0.2492
 2416TIP3    H1 7191   6.360   7.597   5.707 -0.2671 -1.9362 -0.3116
 2416TIP3    H2 7192   6.246   7.692   5.676  1.1179  0.0273  0.5211
 2417TIP3   OH2 7193   0.203   1.051   6.598  0.2272  0.4952  0.0600
 2417TIP3    H1 7194   0.119   1.016   6.568  1.7336 -0.7837 -2.8334
 2417TIP3    H2 7195   0.221   1.003   6.679 -0.1149 -1.8551 -1.2160
 2418TIP3   OH2 7196   1.508   0.891   5.887  0.4029 -0.6448  0.3542
 2418TIP3    H1 7197   1.489   0.966   5.944  3.2840 -1.1162  1.9916
 2418TIP3    H2 7198   1.600   0.901   5.863  0.6894 -3.3828  0.1615
 2419TIP3   OH2 7199   5.183   2.735   0.279 -0.2260  0.1569 -0.3549
 2419TIP3    H1 7200   5.152   2.780   0.357  0.2794 -1.2089  0.6469
 2419TIP3    H2 7201   5.278   2.727   0.292  0.0412  1.0457 -1.6902
 2420TIP3   OH2 7202   1.149   2.795   1.545 -0.4123  0.0760  0.2893
 2420TIP3    H1 7203   1.069   2.746   1.526  0.1070 -0.1378 -1.3480
 2420TIP3    H2 7204   1.167   2.845   1.466  1.3222 -0.2039  0.4923
 2421TIP3   OH2 7205   2.508   2.093   5.102  0.2870 -0.2702  0.7008
 2421TIP3    H1 7206   2.511   2.169   5.160 -0.4794  0.3550 -0.0901
 2421TIP3    H2 7207   2.596   2.089   5.063  0.0224  0.7938 -0.0180
 2422TIP3   OH2 7208   1.091   2.782   3.319  0.4307 -0.1791  0.0133
 2422TIP3    H1 7209   1.135   2.716   3.265 -0.3449  0.1653 -1.0549
 2422TIP3    H2 7210   1.158   2.811   3.380  0.5642 -2.5701  1.0710
 2423TIP3   OH2 7211   6.376   7.972   4.054 -0.4720  0.0570  0.0694
 2423TIP3    H1 7212   6.458   7.999   4.013 -0.7952  1.7294  0.5050
 2423TIP3    H2 7213   6.395   7.971   4.148 -0.7155 -0.3856  0.1155
 2424TIP3   OH2 7214   3.917   1.517   3.204  0.2991 -0.1852  0.5500
 2424TIP3    H1 7215   3.901   1.590   3.264 -1.1460  0.2629 -0.3669
 2424TIP3    H2 7216   3.837   1.510   3.153  0.4280 -2.3988  0.5964
 2425TIP3   OH2 7217   2.105   2.591   2.648 -0.0318  0.4390 -0.0674
 2425TIP3    H1 7218   2.185   2.544   2.669  0.2111  0.6426 -0.5395
 2425TIP3    H2 7219   2.105   2.666   2.707  1.0454  1.4426 -1.3167
 2426TIP3   OH2 7220   3.761   1.882   1.853  0.3989 -0.9815  0.6952
 2426TIP3    H1 7221   3.668   1.886   1.832  0.3724  0.5416  0.9908
 2426TIP3    H2 7222   3.766   1.904   1.946  1.2390  1.8040  0.0671
 2427TIP3   OH2 7223   0.240   2.330   3.005 -0.1851 -0.1501  0.0043
 2427TIP3    H1 7224   0.154   2.331   3.048  0.3573 -1.5812  1.1510
 2427TIP3    H2 7225   0.222   2.360   2.916 -1.5924  1.2813  0.7293
 2428TIP3   OH2 7226   2.408   1.571   1.513  0.1952  0.9520  0.9693
 2428TIP3    H1 7227   2.352   1.551   1.438  0.7277  0.4104  0.7139
 2428TIP3    H2 7228   2.394   1.499   1.574  2.1444 -0.2635  0.0316
 2429TIP3   OH2 7229   2.631   2.421   2.962  0.2293 -0.5241 -0.3742
 2429TIP3    H1 7230   2.591   2.390   2.881  1.7178 -2.2381 -0.4805
 2429TIP3    H2 7231   2.650   2.341   3.012  0.4882  0.4351  1.1186
 2430TIP3   OH2 7232   8.328   0.062   5.291 -0.1621 -0.2472 -0.5145
 2430TIP3    H1 7233   8.357   0.107   5.371 -0.4829  0.4770 -0.7977
 2430TIP3    H2 7234   8.304   0.133   5.232  0.3826 -0.7728 -1.3727
 2431TIP3   OH2 7235   0.257   0.436   5.560 -0.2152  0.0646  0.5731
 2431TIP3    H1 7236   0.262   0.463   5.652 -1.4647 -0.4220  0.7851
 2431TIP3    H2 7237   0.213   0.351   5.562 -1.8895  0.8847 -0.6356
 2432TIP3   OH2 7238   1.147   0.858   5.222  0.6986  0.4122 -0.1813
 2432TIP3    H1 7239   1.225   0.914   5.225 -0.5327  2.0743  1.8873
 2432TIP3    H2 7240   1.178   0.772   5.252  1.4461  1.4636  2.1985
 2433TIP3   OH2 7241   2.301   1.917   1.588 -0.3023 -0.1970 -0.3934
 2433TIP3    H1 7242   2.211   1.917   1.620 -0.2541 -0.5817 -0.2542
 2433TIP3    H2 7243   2.294   1.892   1.496 -0.3633  0.0653 -0.4607
 2434TIP3   OH2 7244   8.038   4.318   5.012 -0.0946 -0.2718  0.2059
 2434TIP3    H1 7245   8.018   4.269   5.092  0.0159 -0.4510  0.1250
 2434TIP3    H2 7246   7.980   4.281   4.945  1.8503 -2.1597 -0.5092
 2435TIP3   OH2 7247   1.538   1.456   4.126 -0.3066 -0.8254 -0.8471
 2435TIP3    H1 7248   1.546   1.551   4.133  1.5297 -0.9202 -1.3787
 2435TIP3    H2 7249   1.467   1.443   4.063 -0.6210  0.1922 -0.7155
 2436TIP3   OH2 7250   1.736   1.679   1.955  0.0205  0.4362 -0.7054
 2436TIP3    H1 7251   1.746   1.737   1.879  0.1918  1.2536 -0.0708
 2436TIP3    H2 7252   1.824   1.644   1.969  0.0965  0.6735 -0.5830
 2437TIP3   OH2 7253   7.774   0.128   1.294  0.0326 -0.0445  0.7676
 2437TIP3    H1 7254   7.682   0.148   1.314  0.3897  1.4420  0.9458
 2437TIP3    H2 7255   7.798   0.192   1.228  1.1901  0.1193  1.3397
 2438TIP3   OH2 7256   8.276   7.995   4.274 -0.3660  0.3173  0.1874
 2438TIP3    H1 7257   8.332   7.917   4.269 -1.6238 -0.6982  1.4664
 2438TIP3    H2 7258   8.191   7.965   4.243 -0.3382  1.7406 -1.3066
 2439TIP3   OH2 7259   1.211   4.942   2.712 -0.4575 -0.6647 -0.5362
 2439TIP3    H1 7260   1.139   4.984   2.759 -0.2120 -3.7896  2.8872
 2439TIP3    H2 7261   1.178   4.931   2.623 -2.4217  2.0429 -0.2281
 2440TIP3   OH2 7262   0.984   0.599   4.253  0.1173  0.0775  0.2524
 2440TIP3    H1 7263   0.998   0.616   4.346  2.3866 -1.2711  0.1778
 2440TIP3    H2 7264   1.017   0.511   4.239  0.9117  0.7124 -2.0825
 2441TIP3   OH2 7265   0.031   2.068   3.710  0.7115  0.0038 -0.0663
 2441TIP3    H1 7266   0.012   2.160   3.695  0.5985 -0.0952 -0.5708
 2441TIP3    H2 7267   0.074   2.065   3.795  2.6707  0.7830 -0.9973
 2442TIP3   OH2 7268   7.487   0.470   4.193  0.1082  0.8004  0.1583
 2442TIP3    H1 7269   7.441   0.450   4.112 -0.9220 -0.0454  0.9339
 2442TIP3    H2 7270   7.437   0.541   4.233  0.8847  1.5422 -0.1616
 2443TIP3   OH2 7271   0.269   3.776   3.159 -0.6409  0.5991  0.3838
 2443TIP3    H1 7272   0.339   3.841   3.148  0.3654 -0.6542 -0.8249
 2443TIP3    H2 7273   0.239   3.758   3.070 -1.0556 -0.4478  0.7295
 2444TIP3   OH2 7274   3.037   0.468   2.800 -0.3476 -0.7363  0.0123
 2444TIP3    H1 7275   3.040   0.400   2.867  0.0866 -1.3411 -0.6132
 2444TIP3    H2 7276   3.109   0.446   2.740  1.6107  1.8398  1.2913
 2445TIP3   OH2 7277   1.032   1.174   5.751  0.3351  0.0243 -0.5854
 2445TIP3    H1 7278   1.127   1.172   5.751  0.3371  0.0482  0.2123
 2445TIP3    H2 7279   1.006   1.086   5.779  0.1202  0.1691 -0.3382
 2446TIP3   OH2 7280   0.032   2.808   3.706  0.4839 -0.4252  0.3114
 2446TIP3    H1 7281   0.082   2.847   3.634 -1.2080 -0.2396 -0.8006
 2446TIP3    H2 7282   0.074   2.841   3.785  2.0209 -0.1577 -0.5929
 2447TIP3   OH2 7283   1.043   2.815   4.663  0.1423 -0.4044  0.0845
 2447TIP3    H1 7284   1.038   2.812   4.568  0.6700  0.4246  0.0228
 2447TIP3    H2 7285   0.968   2.765   4.693  0.9224 -2.1131 -0.7733
 2448TIP3   OH2 7286   7.219   7.335   3.618 -0.6081 -0.0997  0.1386
 2448TIP3    H1 7287   7.253   7.381   3.694  1.0927 -2.7537  1.0470
 2448TIP3    H2 7288   7.185   7.404   3.561 -2.4123  1.8742  3.5133
 2449TIP3   OH2 7289   1.930   0.682   4.690  0.0591  0.2391  0.0231
 2449TIP3    H1 7290   2.021   0.711   4.683  0.6306 -1.8056 -1.4151
 2449TIP3    H2 7291   1.884   0.731   4.621 -0.1838  2.0488  1.4205
 2450TIP3   OH2 7292   6.339   2.254   3.653  0.1193 -0.7718  0.1680
 2450TIP3    H1 7293   6.249   2.256   3.684 -0.1303 -0.7065 -0.5477
 2450TIP3    H2 7294   6.389   2.217   3.726 -0.3736 -0.1486  0.8255
 2451TIP3   OH2 7295   0.281   1.127   3.021  0.3406 -0.5279 -0.0029
 2451TIP3    H1 7296   0.270   1.215   3.055  1.4323 -0.9644  1.5584
 2451TIP3    H2 7297   0.275   1.136   2.926 -1.3635  0.9339  0.2456
 2452TIP3   OH2 7298   1.665   2.574   3.486  0.4450  0.5879 -0.2203
 2452TIP3    H1 7299   1.630   2.490   3.455  0.7170  0.5190 -0.3409
 2452TIP3    H2 7300   1.614   2.593   3.564 -1.9924  2.0163 -2.1022
 2453TIP3   OH2 7301   0.464   2.937   2.389 -0.6778  0.0108 -0.6396
 2453TIP3    H1 7302   0.535   2.877   2.412 -1.9176 -0.6562  1.6037
 2453TIP3    H2 7303   0.467   2.943   2.294  0.9735 -1.7304 -0.7221
 2454TIP3   OH2 7304   1.348   3.038   2.724  0.3469 -0.1362  0.2932
 2454TIP3    H1 7305   1.376   3.090   2.649  0.9229  0.5063  0.9357
 2454TIP3    H2 7306   1.369   3.093   2.800 -0.4417 -0.6696  0.9137
 2455TIP3   OH2 7307   7.429   8.025   1.646 -0.1241 -0.1146  0.0960
 2455TIP3    H1 7308   7.519   7.995   1.632 -0.2401  0.2764 -1.5867
 2455TIP3    H2 7309   7.408   7.998   1.736  1.1675 -1.4722  0.0065
 2456TIP3   OH2 7310   2.545   2.000   1.697 -0.2902 -0.2763  0.0226
 2456TIP3    H1 7311   2.579   1.917   1.731 -0.2178 -0.3775 -0.3017
 2456TIP3    H2 7312   2.466   1.977   1.650 -1.6890  0.1439  2.0939
 2457TIP3   OH2 7313   3.774   3.107   3.407  0.0112  0.1348  0.2333
 2457TIP3    H1 7314   3.750   3.179   3.348 -1.7106 -0.4349  0.2000
 2457TIP3    H2 7315   3.793   3.034   3.349 -0.8863 -0.1940  0.3435
 2458TIP3   OH2 7316   3.083   4.343   3.817  0.2317 -0.0395 -0.3100
 2458TIP3    H1 7317   3.008   4.292   3.847  0.7687 -0.1064  0.9214
 2458TIP3    H2 7318   3.156   4.313   3.871  1.0451  0.3693 -1.1706
 2459TIP3   OH2 7319   8.317   1.329   4.143 -0.2516  0.1183 -0.2050
 2459TIP3    H1 7320   8.359   1.286   4.217  0.4456 -0.9628 -1.2143
 2459TIP3    H2 7321   8.380   1.321   4.072 -1.4704 -0.0188 -1.2829
 2460TIP3   OH2 7322   1.505   2.230   4.015  0.6279 -0.4451 -0.1760
 2460TIP3    H1 7323   1.441   2.280   4.065 -0.0898  0.3829 -1.8826
 2460TIP3    H2 7324   1.584   2.230   4.069  0.0792  0.9988  0.6319
 2461TIP3   OH2 7325   2.964   1.206   0.949 -0.5244 -0.4314  0.2503
 2461TIP3    H1 7326   2.902   1.147   0.907 -0.8618  0.1467 -0.0752
 2461TIP3    H2 7327   3.050   1.174   0.922 -0.5382 -2.8010  2.7669
 2462TIP3   OH2 7328   2.542   2.306   2.717 -0.0450  0.5158 -0.1832
 2462TIP3    H1 7329   2.537   2.390   2.670  1.0767 -1.1382 -3.3706
 2462TIP3    H2 7330   2.451   2.280   2.728 -0.3935  1.9185  0.4556
 2463TIP3   OH2 7331   2.788   1.299   2.924  0.4266 -0.6827 -0.0846
 2463TIP3    H1 7332   2.863   1.326   2.871  0.5223 -0.6605  0.0624
 2463TIP3    H2 7333   2.712   1.315   2.868  0.2345  2.5413  1.0000
 2464TIP3   OH2 7334   5.480   2.353   1.072  0.9897 -0.0141 -0.0560
 2464TIP3    H1 7335   5.504   2.267   1.106 -0.0840  0.2876  1.5113
 2464TIP3    H2 7336   5.420   2.389   1.137 -0.5314  0.9076 -1.9288
 2465TIP3   OH2 7337   1.624   1.397   4.402 -0.5402  0.2857  0.2101
 2465TIP3    H1 7338   1.617   1.363   4.313 -0.9069 -0.0055  0.3464
 2465TIP3    H2 7339   1.544   1.449   4.413 -0.7715 -0.1439  0.5629
 2466TIP3   OH2 7340   2.128   2.296   3.326  0.1779 -0.4461 -0.6587
 2466TIP3    H1 7341   2.045   2.340   3.342  0.5368 -0.0625  0.2119
 2466TIP3    H2 7342   2.119   2.211   3.367  0.3388 -0.2733 -0.2652
 2467TIP3   OH2 7343   2.714   1.286   1.047  0.1987 -0.3912 -0.5604
 2467TIP3    H1 7344   2.804   1.259   1.033  0.0184 -0.6940 -1.1966
 2467TIP3    H2 7345   2.674   1.214   1.096  0.6666  0.3798  0.9532
 2468TIP3   OH2 7346   1.364   2.857   3.351  0.3342  0.1894  0.3625
 2468TIP3    H1 7347   1.366   2.793   3.280 -0.2513  0.6646 -0.1010
 2468TIP3    H2 7348   1.451   2.896   3.351  0.1489  0.6237 -0.5187
 2469TIP3   OH2 7349   1.676   2.881   3.447  0.5139 -0.1201 -0.1920
 2469TIP3    H1 7350   1.770   2.896   3.460  0.2999  0.0422  1.2237
 2469TIP3    H2 7351   1.670   2.791   3.416  1.1744  0.0514 -0.8511
 2470TIP3   OH2 7352   3.319   2.148   3.381  0.0503 -0.8106 -0.2770
 2470TIP3    H1 7353   3.314   2.095   3.461 -0.9237 -0.1829  0.0859
 2470TIP3    H2 7354   3.412   2.148   3.359  0.0906 -2.5763 -0.2273
 2471TIP3   OH2 7355   3.852   4.339   3.727 -0.5288 -0.0855  0.2359
 2471TIP3    H1 7356   3.855   4.366   3.636  0.7851 -1.0978 -0.0230
 2471TIP3    H2 7357   3.760   4.352   3.753 -0.6219  1.4533 -0.8287
 2472TIP3   OH2 7358   2.223   6.691   6.705  0.6549 -0.0724  0.2407
 2472TIP3    H1 7359   2.144   6.744   6.712  0.6673 -0.1204  0.7644
 2472TIP3    H2 7360   2.197   6.617   6.649  0.5447  0.3032 -0.2094
 2473TIP3   OH2 7361   7.651   7.744   1.674  0.4257  0.3880  0.2241
 2473TIP3    H1 7362   7.676   7.831   1.645  0.2196  0.7429  1.1050
 2473TIP3    H2 7363   7.558   7.738   1.653  0.4728  0.3250  0.0325
 2474TIP3   OH2 7364   2.298   0.131   2.742  0.2030  0.5873 -0.1541
 2474TIP3    H1 7365   2.212   0.158   2.711  1.5152  1.1758 -3.5121
 2474TIP3    H2 7366   2.300   0.036   2.728  0.6591  0.8002 -1.6037
 2475TIP3   OH2 7367   3.357   3.087   3.258 -0.6332 -0.1766  0.3452
 2475TIP3    H1 7368   3.424   3.065   3.323  1.0277  2.5693 -0.3393
 2475TIP3    H2 7369   3.295   3.142   3.305 -1.0865 -0.7305  0.3872
 2476TIP3   OH2 7370   4.374   2.231   3.744 -0.6056 -0.0697 -0.4811
 2476TIP3    H1 7371   4.405   2.141   3.730 -1.2891 -0.3726 -0.0495
 2476TIP3    H2 7372   4.453   2.279   3.770  0.0051 -0.2603 -1.9679
 2477TIP3   OH2 7373   3.342   3.814   3.872  0.3364 -0.0262  0.3670
 2477TIP3    H1 7374   3.306   3.898   3.901 -0.1673 -0.3248  0.6067
 2477TIP3    H2 7375   3.404   3.837   3.803 -1.9156  0.3351 -1.5902
 2478TIP3   OH2 7376   3.245   4.600   2.492  0.0786 -0.6862  0.1063
 2478TIP3    H1 7377   3.239   4.634   2.581  0.2803 -1.7792  0.5502
 2478TIP3    H2 7378   3.298   4.521   2.500 -1.7218 -2.0103 -0.6264
 2479TIP3   OH2 7379   3.949   4.986   2.678 -0.1556  0.3645 -0.1029
 2479TIP3    H1 7380   3.943   4.981   2.583 -1.1293  0.5693 -0.0585
 2479TIP3    H2 7381   3.919   5.075   2.699 -2.4708 -0.5422  0.5792
 2480TIP3   OH2 7382   8.351   6.649   4.539 -0.7743 -0.0853  0.2091
 2480TIP3    H1 7383   8.333   6.565   4.496 -1.0055 -0.5175  1.1467
 2480TIP3    H2 7384   8.290   6.652   4.613 -1.0509  1.0988 -0.0608
 2481TIP3   OH2 7385   2.715   0.023   6.244  0.0160 -0.5248  0.5834
 2481TIP3    H1 7386   2.793  -0.028   6.268  1.7999  1.1788 -1.3453
 2481TIP3    H2 7387   2.706   0.009   6.150  1.4374  3.7932 -0.2889
 2482TIP3   OH2 7388   3.047   0.970   1.948 -0.1464 -0.7094 -0.3884
 2482TIP3    H1 7389   2.993   1.024   1.890 -0.4443  0.6997  1.1773
 2482TIP3    H2 7390   3.050   0.884   1.905  0.8320  0.6900 -3.2146
 2483TIP3   OH2 7391   2.304   2.001   1.997 -0.2428 -0.0824 -0.5315
 2483TIP3    H1 7392   2.385   1.961   2.030 -0.0420  0.3185 -0.5303
 2483TIP3    H2 7393   2.297   2.084   2.045 -1.2014 -0.5919  0.2217
 2484TIP3   OH2 7394   1.413   1.602   2.426  0.0495  0.4130 -0.4145
 2484TIP3    H1 7395   1.491   1.600   2.482 -0.3985 -3.2680  0.2068
 2484TIP3    H2 7396   1.345   1.640   2.481  0.4924  0.0837  0.3786
 2485TIP3   OH2 7397   3.394   3.014   2.874  0.0622 -0.3177  0.1633
 2485TIP3    H1 7398   3.305   3.034   2.846  0.3182  0.5599 -0.0292
 2485TIP3    H2 7399   3.445   3.014   2.793  0.6939  1.6394  0.5364
 2486TIP3   OH2 7400   1.399   2.312   2.515  0.0423 -0.3687  0.1178
 2486TIP3    H1 7401   1.462   2.376   2.481 -1.0335  0.3913 -0.4615
 2486TIP3    H2 7402   1.403   2.240   2.453 -1.2544  0.6301 -1.1614
 2487TIP3   OH2 7403   4.273   3.018   2.093 -0.9626 -0.2422 -0.1919
 2487TIP3    H1 7404   4.363   3.014   2.063 -0.6377 -1.6110  0.8993
 2487TIP3    H2 7405   4.276   3.072   2.172 -0.9566 -0.9754  0.3137
 2488TIP3   OH2 7406   4.334   2.984   2.964 -0.3243 -0.5934 -0.7729
 2488TIP3    H1 7407   4.400   2.948   3.023  0.4730  2.5022  0.3224
 2488TIP3    H2 7408   4.250   2.960   3.002  0.1808 -1.3538 -0.1347
 2489TIP3   OH2 7409   2.878   1.534   2.492 -0.4108  0.5127 -0.1235
 2489TIP3    H1 7410   2.972   1.548   2.505 -0.4577 -0.1321  1.0041
 2489TIP3    H2 7411   2.837   1.608   2.537 -0.4188  1.3775 -1.5389
 2490TIP3   OH2 7412   3.335   0.855   0.703  1.0951 -0.1666 -0.2136
 2490TIP3    H1 7413   3.399   0.788   0.677  2.4937  1.3548 -0.7901
 2490TIP3    H2 7414   3.357   0.931   0.649 -0.9086  0.5398 -0.0468
 2491TIP3   OH2 7415   2.132   0.926   3.192 -0.2872  0.6814 -0.4929
 2491TIP3    H1 7416   2.216   0.881   3.187 -1.2061 -1.1396 -0.0603
 2491TIP3    H2 7417   2.113   0.950   3.101 -0.2214 -0.6693 -0.8798
 2492TIP3   OH2 7418   5.231   1.875   4.748  0.1228 -0.1204  0.3931
 2492TIP3    H1 7419   5.239   1.813   4.820  1.1663  0.3553  0.6999
 2492TIP3    H2 7420   5.252   1.960   4.788  1.6284  0.0259 -0.6547
 2493TIP3   OH2 7421   0.827   7.916   1.118 -0.0251 -0.2237  0.2033
 2493TIP3    H1 7422   0.909   7.948   1.155  2.1486 -0.9247 -3.6972
 2493TIP3    H2 7423   0.780   7.996   1.092  0.2497  0.1308  0.7856
 2494TIP3   OH2 7424   2.653   2.057   3.384  0.4287 -0.0524 -0.0085
 2494TIP3    H1 7425   2.644   2.108   3.465 -1.4522 -0.8880  0.3370
 2494TIP3    H2 7426   2.635   1.966   3.411  0.5096 -0.4359 -1.2205
 2495TIP3   OH2 7427   7.246   6.826   1.142 -1.1296 -0.1405  0.3022
 2495TIP3    H1 7428   7.175   6.839   1.079 -0.9216 -0.7276 -0.0512
 2495TIP3    H2 7429   7.282   6.740   1.121  0.5855  0.7304 -0.4146
 2496TIP3   OH2 7430   1.540   3.258   2.674  0.0343  0.2409  0.1176
 2496TIP3    H1 7431   1.520   3.313   2.599  0.5157 -0.4292 -0.4988
 2496TIP3    H2 7432   1.613   3.204   2.646  0.6114  0.4062  1.2710
 2497TIP3   OH2 7433   2.360   1.415   3.808 -0.6943 -0.4239 -0.3798
 2497TIP3    H1 7434   2.445   1.443   3.843 -0.4835  0.3628 -1.4719
 2497TIP3    H2 7435   2.370   1.425   3.713 -1.6256 -1.4276 -0.5892
 2498TIP3   OH2 7436   2.481   4.056   2.684 -0.1606 -0.6293 -0.3614
 2498TIP3    H1 7437   2.387   4.069   2.673 -0.5621 -1.7681  1.4999
 2498TIP3    H2 7438   2.515   4.043   2.595 -1.4351  1.7014 -1.2314
 2499TIP3   OH2 7439   4.667   2.817   3.747  0.4819 -0.2218  0.4064
 2499TIP3    H1 7440   4.691   2.845   3.659  2.0435  0.2960  0.9597
 2499TIP3    H2 7441   4.611   2.886   3.780  0.9612  0.2333  0.2769
 2500TIP3   OH2 7442   4.406   1.988   2.813 -0.4207  0.3106  0.4101
 2500TIP3    H1 7443   4.330   1.936   2.787 -0.8042  1.3743 -0.6240
 2500TIP3    H2 7444   4.459   1.994   2.734  0.6018 -0.1558  1.0438
 2501TIP3   OH2 7445   1.945   1.622   3.197 -0.1804 -0.1958 -0.3497
 2501TIP3    H1 7446   1.856   1.587   3.196  0.0597 -0.7974 -1.1948
 2501TIP3    H2 7447   1.997   1.554   3.241 -0.1279  0.1271  0.0877
 2502TIP3   OH2 7448   4.615   1.708   2.493  0.5358  0.3130  0.2859
 2502TIP3    H1 7449   4.634   1.631   2.440  0.3538  0.7734 -0.4453
 2502TIP3    H2 7450   4.682   1.706   2.562 -0.2176 -1.1701  0.9950
 2503TIP3   OH2 7451   2.208   2.984   4.623 -0.3608 -0.0561 -0.1349
 2503TIP3    H1 7452   2.165   2.927   4.560 -1.5818  1.0010 -0.2826
 2503TIP3    H2 7453   2.178   3.072   4.600  1.3916  0.6351  0.1716
 2504TIP3   OH2 7454   0.397   6.842   2.198  0.1374 -0.2675  0.5237
 2504TIP3    H1 7455   0.332   6.785   2.238 -0.1354 -0.6225 -0.4061
 2504TIP3    H2 7456   0.347   6.918   2.167 -0.1369 -1.3512 -1.7746
 2505TIP3   OH2 7457   0.163   1.830   3.428 -0.1723  0.3924  0.2354
 2505TIP3    H1 7458   0.079   1.791   3.404 -0.7126  1.4294  0.4248
 2505TIP3    H2 7459   0.228   1.768   3.395 -1.0206 -0.8185  0.7957
 2506TIP3   OH2 7460   1.516   3.738   0.810 -0.1545 -0.4580 -0.0386
 2506TIP3    H1 7461   1.590   3.772   0.759  0.6842 -0.3498  1.2303
 2506TIP3    H2 7462   1.502   3.803   0.878 -1.1799 -0.6700 -0.0453
 2507TIP3   OH2 7463   1.859   0.534   1.479 -0.1288  0.3618 -0.3934
 2507TIP3    H1 7464   1.860   0.441   1.503 -2.5924  0.9539  2.1433
 2507TIP3    H2 7465   1.941   0.546   1.431  1.7637 -2.4296  1.9247
 2508TIP3   OH2 7466   2.328   2.736   3.515  0.0408 -0.5796  0.2291
 2508TIP3    H1 7467   2.421   2.727   3.493  0.2038 -1.2306  1.1730
 2508TIP3    H2 7468   2.290   2.651   3.497 -0.5515 -0.0717 -0.9555
 2509TIP3   OH2 7469   4.938   2.162   4.770 -0.0189 -0.1266 -0.1743
 2509TIP3    H1 7470   4.967   2.200   4.853 -1.4570 -1.1488  0.8419
 2509TIP3    H2 7471   4.854   2.205   4.752  0.5374  0.4610 -1.3647
 2510TIP3   OH2 7472   4.349   4.225   1.688  0.2398  0.1284  0.0455
 2510TIP3    H1 7473   4.260   4.239   1.657 -0.0116  2.3277  1.6638
 2510TIP3    H2 7474   4.339   4.194   1.778  1.1012  0.8986  0.4195
 2511TIP3   OH2 7475   2.903   5.224   3.060 -0.3631  0.2274  0.5536
 2511TIP3    H1 7476   2.969   5.253   2.997  0.1070  1.0161  1.3956
 2511TIP3    H2 7477   2.846   5.166   3.010  1.0271 -0.5625 -0.1593
 2512TIP3   OH2 7478   6.456   7.692   4.262  0.1455  0.6223 -0.6827
 2512TIP3    H1 7479   6.410   7.766   4.301  0.2925  0.7057 -0.6687
 2512TIP3    H2 7480   6.446   7.705   4.168  1.0934  1.2346 -0.6930
 2513TIP3   OH2 7481   2.116   4.155   3.702  0.4478 -0.6683 -0.5896
 2513TIP3    H1 7482   2.147   4.074   3.661  0.9380 -0.4763 -0.5986
 2513TIP3    H2 7483   2.152   4.225   3.647 -0.1090 -0.4445 -0.6776
 2514TIP3   OH2 7484   4.476   3.214   1.703 -0.6241  0.1944 -0.3365
 2514TIP3    H1 7485   4.437   3.280   1.760 -0.7388 -0.9219  0.9069
 2514TIP3    H2 7486   4.565   3.246   1.685 -1.2167  1.4537 -1.0427
 2515TIP3   OH2 7487   8.386   7.232   4.116 -0.1467 -0.3930 -0.8125
 2515TIP3    H1 7488   8.408   7.172   4.187 -1.0470 -0.1246 -0.3015
 2515TIP3    H2 7489   8.355   7.311   4.160  1.3949  0.6076 -1.4808
 2516TIP3   OH2 7490   2.089   2.113   2.624 -0.2703  0.5145  0.2999
 2516TIP3    H1 7491   2.043   2.029   2.620  0.3128  0.1670  0.8779
 2516TIP3    H2 7492   2.033   2.173   2.575 -2.3107  0.5292  2.5447
 2517TIP3   OH2 7493   3.074   1.008   1.378 -0.5695 -0.0842  0.2372
 2517TIP3    H1 7494   3.092   1.091   1.333 -1.9246  0.5627  0.8617
 2517TIP3    H2 7495   3.086   0.941   1.310  0.4363  0.6260 -0.2974
 2518TIP3   OH2 7496   0.749   1.772   3.003 -0.1156  0.0347  0.3332
 2518TIP3    H1 7497   0.777   1.702   3.062 -0.4954  0.1482  0.6533
 2518TIP3    H2 7498   0.709   1.726   2.929  0.2686 -0.1051  0.2064
 2519TIP3   OH2 7499   3.526   0.779   3.775 -0.0908  0.4340 -0.7243
 2519TIP3    H1 7500   3.475   0.752   3.852 -0.2186 -0.4740 -1.1208
 2519TIP3    H2 7501   3.462   0.818   3.716 -0.4837 -1.4259 -1.5619
 2520TIP3   OH2 7502   4.893   2.590   1.393  0.0600 -0.0492 -0.4631
 2520TIP3    H1 7503   4.837   2.549   1.459  2.0715  0.3302  1.5226
 2520TIP3    H2 7504   4.912   2.520   1.331 -2.4082 -0.2469 -1.0631
 2521TIP3   OH2 7505   3.624   2.299   1.548 -0.3546 -0.5572  0.1420
 2521TIP3    H1 7506   3.629   2.211   1.510  2.3524 -0.1589 -0.5437
 2521TIP3    H2 7507   3.542   2.335   1.516 -0.7708 -2.2960 -0.7780
 2522TIP3   OH2 7508   0.630   7.742   4.051  0.0671  0.4730 -0.2357
 2522TIP3    H1 7509   0.538   7.767   4.049  0.0923  0.6139  0.3765
 2522TIP3    H2 7510   0.674   7.807   3.996 -0.1539  0.5746 -0.2931
 2523TIP3   OH2 7511   0.378   3.483   2.672 -0.3226  0.2863  0.0347
 2523TIP3    H1 7512   0.334   3.435   2.602 -0.4308  0.7431 -0.2118
 2523TIP3    H2 7513   0.428   3.416   2.719  0.0221  0.0314 -0.6863
 2524TIP3   OH2 7514   2.417   2.848   1.540 -0.0862  0.0364  0.0215
 2524TIP3    H1 7515   2.357   2.779   1.513 -1.8249  1.3555  0.4620
 2524TIP3    H2 7516   2.441   2.825   1.630 -1.3932  0.5010  0.4947
 2525TIP3   OH2 7517   2.697   1.301   2.524 -0.1006 -0.6092 -0.2520
 2525TIP3    H1 7518   2.769   1.356   2.492 -1.3547 -0.1237 -2.3566
 2525TIP3    H2 7519   2.657   1.352   2.594 -0.8885  0.9386 -1.7944
 2526TIP3   OH2 7520   0.819   1.494   2.905  0.2541 -0.2861 -0.0623
 2526TIP3    H1 7521   0.869   1.486   2.986 -0.4831 -0.9943  0.3279
 2526TIP3    H2 7522   0.748   1.430   2.914  0.2812 -0.5146 -1.3440
 2527TIP3   OH2 7523   3.393   0.787   4.669  0.5453  0.2519  0.1389
 2527TIP3    H1 7524   3.301   0.814   4.666 -0.3615 -2.4081  2.4069
 2527TIP3    H2 7525   3.399   0.714   4.608  0.4270 -1.4355  2.0714
 2528TIP3   OH2 7526   2.141   1.976   1.055  0.3518  0.2316  1.8902
 2528TIP3    H1 7527   2.150   1.884   1.031  1.0986  0.3781  1.6097
 2528TIP3    H2 7528   2.203   2.022   0.999 -1.5157  1.1614  0.5248
 2529TIP3   OH2 7529   0.673   0.503   3.109  0.0986 -0.1722 -0.3911
 2529TIP3    H1 7530   0.600   0.539   3.158 -0.0682  0.5064 -1.1154
 2529TIP3    H2 7531   0.748   0.508   3.169  0.2813  2.2429 -0.7660
 2530TIP3   OH2 7532   1.597   0.554   3.619 -0.1937  0.1123  0.0731
 2530TIP3    H1 7533   1.659   0.487   3.589 -2.4330 -2.1621  0.2943
 2530TIP3    H2 7534   1.572   0.601   3.540 -0.8171 -1.2714 -0.5655
 2531TIP3   OH2 7535   3.919   1.786   2.801 -0.3520 -0.2813  0.3153
 2531TIP3    H1 7536   3.994   1.789   2.861  1.1852 -2.4433 -1.3958
 2531TIP3    H2 7537   3.875   1.704   2.822  0.2939 -1.1408 -1.5486
 2532TIP3   OH2 7538   2.239   1.820   2.967  0.0853 -0.5218 -0.3742
 2532TIP3    H1 7539   2.229   1.836   3.061 -0.0341  0.0780 -0.4841
 2532TIP3    H2 7540   2.150   1.799   2.937  0.2094 -1.2287 -0.2657
 2533TIP3   OH2 7541   0.474   1.240   1.238 -0.5224  0.3043 -0.0782
 2533TIP3    H1 7542   0.495   1.149   1.259  1.3183  0.5535 -0.6893
 2533TIP3    H2 7543   0.415   1.234   1.163  1.1584 -0.3714 -1.3884
 2534TIP3   OH2 7544   3.592   1.005   3.521 -0.1071  0.4032 -0.4608
 2534TIP3    H1 7545   3.672   0.962   3.551  1.6185  2.7221 -1.5944
 2534TIP3    H2 7546   3.551   1.039   3.600 -0.6027 -1.7402  0.2496
 2535TIP3   OH2 7547   1.585   6.344   5.957  0.5631 -0.0129 -0.0697
 2535TIP3    H1 7548   1.523   6.338   5.884  0.1341  2.1876  0.1025
 2535TIP3    H2 7549   1.639   6.265   5.949 -0.4686 -0.5559 -1.8561
 2536TIP3   OH2 7550   1.406   1.842   2.247 -0.5801 -0.0800  0.2125
 2536TIP3    H1 7551   1.403   1.810   2.157  0.1243 -1.3223  0.6181
 2536TIP3    H2 7552   1.404   1.762   2.300  0.6537  0.5885  1.2659
 2537TIP3   OH2 7553   2.461   4.701   3.791 -0.0586 -0.6247 -0.1969
 2537TIP3    H1 7554   2.527   4.638   3.762  1.5658  1.0492 -0.2212
 2537TIP3    H2 7555   2.446   4.678   3.883 -0.5161 -1.9149 -0.5824
 2538TIP3   OH2 7556   2.601   0.370   5.967  0.5091  0.4293 -0.0438
 2538TIP3    H1 7557   2.635   0.451   6.005 -0.3821  0.2824  1.1150
 2538TIP3    H2 7558   2.572   0.319   6.043 -3.2016  0.9676 -0.9944
 2539TIP3   OH2 7559   2.684   3.761   2.637 -0.2282  0.5487  0.0506
 2539TIP3    H1 7560   2.658   3.825   2.571 -0.7273  0.2253 -0.0702
 2539TIP3    H2 7561   2.771   3.733   2.610  0.3176  1.7735  0.5584
 2540TIP3   OH2 7562   1.653   1.687   3.585 -0.0609 -0.1293  0.0771
 2540TIP3    H1 7563   1.600   1.740   3.525  0.5698 -1.6421 -1.8740
 2540TIP3    H2 7564   1.596   1.613   3.608 -0.4348  0.6423  1.6705
 2541TIP3   OH2 7565   0.685   0.706   2.647 -0.0277 -0.4202  0.5578
 2541TIP3    H1 7566   0.690   0.611   2.635 -0.7111 -0.3848 -0.0190
 2541TIP3    H2 7567   0.674   0.718   2.742  1.4481 -0.8530  0.7980
 2542TIP3   OH2 7568   7.726   4.468   6.133 -0.1892 -0.5712 -0.8475
 2542TIP3    H1 7569   7.779   4.482   6.055  1.8310  0.2438  0.6167
 2542TIP3    H2 7570   7.778   4.505   6.205 -1.9296 -1.3951  0.9062
 2543TIP3   OH2 7571   2.855   0.139   3.716 -0.8115 -0.2734 -0.1369
 2543TIP3    H1 7572   2.792   0.087   3.766  0.4537  0.4734  2.3392
 2543TIP3    H2 7573   2.822   0.228   3.721 -0.4263 -0.1232 -0.2563
 2544TIP3   OH2 7574   0.241   0.811   0.238  0.1256 -0.1056  0.2026
 2544TIP3    H1 7575   0.301   0.819   0.164  1.8429 -2.4219  1.2795
 2544TIP3    H2 7576   0.281   0.862   0.308 -0.1562 -0.0565  0.3288
 2545TIP3   OH2 7577   7.902   3.157   4.941 -0.4671 -0.3438 -0.1454
 2545TIP3    H1 7578   7.987   3.171   4.984 -0.0577 -0.0787 -1.0443
 2545TIP3    H2 7579   7.847   3.228   4.975 -0.5686 -0.9806  1.0492
 2546TIP3   OH2 7580   3.936   1.272   1.373 -0.7634 -0.2037 -0.1866
 2546TIP3    H1 7581   3.950   1.182   1.343  0.0141  0.3543 -1.5642
 2546TIP3    H2 7582   3.933   1.265   1.469  1.5247 -1.4107 -0.1599
 2547TIP3   OH2 7583   3.337   0.914   3.296 -0.0463 -0.0995 -0.4035
 2547TIP3    H1 7584   3.270   0.846   3.292  0.1193 -0.2208 -1.1779
 2547TIP3    H2 7585   3.419   0.866   3.308 -0.0747  0.0438  0.4429
 2548TIP3   OH2 7586   4.376   3.256   3.265 -0.3716  0.1770 -0.1648
 2548TIP3    H1 7587   4.449   3.316   3.253 -0.4825  0.7523  1.8877
 2548TIP3    H2 7588   4.304   3.311   3.296 -0.3029 -1.0539  2.3101
 2549TIP3   OH2 7589   2.508   0.351   2.493 -0.0069 -0.3175  0.5050
 2549TIP3    H1 7590   2.428   0.403   2.486  0.0242 -0.0916  1.7730
 2549TIP3    H2 7591   2.506   0.314   2.581  1.5936  0.2262  0.8031
 2550TIP3   OH2 7592   0.054   7.738   3.685 -0.6365  0.2227  0.0556
 2550TIP3    H1 7593   0.099   7.658   3.658 -2.5838 -0.5393 -0.9842
 2550TIP3    H2 7594   0.001   7.713   3.760  1.2573  1.3228  1.8376
 2551TIP3   OH2 7595   5.423   3.335   1.259 -0.1321  0.3224 -0.5195
 2551TIP3    H1 7596   5.435   3.427   1.283 -0.8832  0.5338 -0.9179
 2551TIP3    H2 7597   5.352   3.337   1.194 -0.2512 -0.5519 -0.4200
 2552TIP3   OH2 7598   8.034   7.089   0.621  0.1371  0.0834 -0.3849
 2552TIP3    H1 7599   7.971   7.136   0.567 -0.4707  0.2809  0.4910
 2552TIP3    H2 7600   7.983   7.021   0.664  0.7187 -0.3932 -0.4508
 2553TIP3   OH2 7601   1.731   1.292   2.365  0.1118 -0.1613 -0.1200
 2553TIP3    H1 7602   1.739   1.286   2.270  1.8235  0.2323 -0.0276
 2553TIP3    H2 7603   1.751   1.204   2.396  1.2799  0.1169 -0.0486
 2554TIP3   OH2 7604   3.175   5.276   3.775  0.2788 -0.4273 -0.2527
 2554TIP3    H1 7605   3.131   5.238   3.699  0.3985 -1.2189  0.0660
 2554TIP3    H2 7606   3.140   5.226   3.849 -0.2896  0.7290  0.2775
 2555TIP3   OH2 7607   1.680   1.919   4.777  0.0677 -0.6003  0.3547
 2555TIP3    H1 7608   1.722   1.877   4.702  1.6567  1.6318 -0.0461
 2555TIP3    H2 7609   1.593   1.881   4.779 -0.1324 -0.4851 -2.8232
 2556TIP3   OH2 7610   3.361   3.676   2.296  0.1070  0.1265 -0.0170
 2556TIP3    H1 7611   3.410   3.680   2.378 -0.0354  1.8116  0.0084
 2556TIP3    H2 7612   3.271   3.697   2.321  0.3193  2.0695 -0.7816
 2557TIP3   OH2 7613   1.980   1.174   3.005 -0.5504 -0.1092 -0.0492
 2557TIP3    H1 7614   2.017   1.262   2.994 -1.3135  0.2346  0.1149
 2557TIP3    H2 7615   1.913   1.168   2.937  0.3308 -1.0194 -0.8443
 2558TIP3   OH2 7616   1.834   1.405   3.928 -0.3133 -0.4734  0.1180
 2558TIP3    H1 7617   1.871   1.461   3.860 -0.5148 -2.0850 -1.3626
 2558TIP3    H2 7618   1.819   1.464   4.002  1.2699  1.0271 -0.7139
 2559TIP3   OH2 7619   2.784   3.464   3.312 -0.1326  0.5047 -0.5014
 2559TIP3    H1 7620   2.807   3.422   3.229  0.5108  0.7577 -0.4474
 2559TIP3    H2 7621   2.783   3.392   3.375 -2.9337 -0.1117 -1.1452
 2560TIP3   OH2 7622   1.999   2.976   0.405  0.4038 -0.0487  0.3381
 2560TIP3    H1 7623   1.921   2.994   0.353 -0.2199  0.7885  1.5222
 2560TIP3    H2 7624   2.015   2.882   0.395  0.7249  0.2227 -1.9189
 2561TIP3   OH2 7625   1.609   1.357   3.757 -0.1135  0.3675  0.1380
 2561TIP3    H1 7626   1.533   1.408   3.786 -0.6128 -0.5351  0.4708
 2561TIP3    H2 7627   1.676   1.373   3.824  0.5087  2.3098 -0.9110
 2562TIP3   OH2 7628   2.964   3.243   2.603  0.2919  0.0063 -0.9115
 2562TIP3    H1 7629   2.908   3.272   2.531  0.0198  0.5053 -0.4946
 2562TIP3    H2 7630   3.047   3.289   2.588  0.3064 -0.0544 -1.0228
 2563TIP3   OH2 7631   0.400   1.684   3.353 -0.3538  0.4646  0.4473
 2563TIP3    H1 7632   0.423   1.747   3.284 -0.8206 -0.1629 -0.2906
 2563TIP3    H2 7633   0.451   1.712   3.428 -0.8602  1.9810  0.2523
 2564TIP3   OH2 7634   7.148   6.898   0.253  0.3150 -0.3094 -0.2768
 2564TIP3    H1 7635   7.091   6.824   0.273  2.8102 -2.2542 -0.1388
 2564TIP3    H2 7636   7.131   6.916   0.160 -2.2962  0.7758  0.3660
 2565TIP3   OH2 7637   7.785   3.190   3.975 -0.4177  0.2107 -0.0250
 2565TIP3    H1 7638   7.703   3.210   3.929  0.5631  2.0187 -1.0317
 2565TIP3    H2 7639   7.788   3.252   4.048  1.3711  2.0789 -1.6298
 2566TIP3   OH2 7640   1.528   4.710   3.367  0.2201 -0.0091  0.1549
 2566TIP3    H1 7641   1.542   4.626   3.323 -0.5408 -0.4611  0.7591
 2566TIP3    H2 7642   1.468   4.757   3.310  2.0238  0.8591 -1.0883
 2567TIP3   OH2 7643   1.983   0.977   4.198  0.1896  0.8078 -0.3058
 2567TIP3    H1 7644   1.897   1.006   4.229  0.6160  0.7830  0.9627
 2567TIP3    H2 7645   2.014   1.048   4.143 -0.4918  0.9843 -0.4650
 2568TIP3   OH2 7646   2.217   1.168   1.886  0.0218 -0.1680  0.6847
 2568TIP3    H1 7647   2.311   1.167   1.904  0.0501 -0.0802  0.5397
 2568TIP3    H2 7648   2.194   1.077   1.872  0.0047 -0.2376  1.1397
 2569TIP3   OH2 7649   1.345   0.552   1.219  0.0045  0.0138  0.2956
 2569TIP3    H1 7650   1.440   0.557   1.233  0.2723  0.6799 -1.6485
 2569TIP3    H2 7651   1.317   0.643   1.211 -0.6864 -0.2088  0.2123
 2570TIP3   OH2 7652   0.948   0.793   1.764 -0.1196 -0.4406 -0.4081
 2570TIP3    H1 7653   1.036   0.831   1.761 -0.3406  0.0710 -0.5725
 2570TIP3    H2 7654   0.910   0.828   1.845  0.9151 -3.1337  1.3112
 2571TIP3   OH2 7655   2.791   2.237   3.780  0.3810 -0.4924  0.6219
 2571TIP3    H1 7656   2.712   2.226   3.834  0.3482  1.4430  0.9953
 2571TIP3    H2 7657   2.851   2.288   3.834  1.7079 -1.5184  0.1420
 2572TIP3   OH2 7658   2.349   1.954   2.764  0.8641 -0.1299 -0.5709
 2572TIP3    H1 7659   2.270   1.995   2.730  1.4153  0.2288 -1.4319
 2572TIP3    H2 7660   2.318   1.890   2.828 -0.1050  0.1732 -0.7434
 2573TIP3   OH2 7661   0.519   2.416   2.946  0.3599 -0.1884  0.1947
 2573TIP3    H1 7662   0.479   2.379   3.024 -0.2517 -0.9206 -0.4555
 2573TIP3    H2 7663   0.524   2.510   2.963 -0.5296 -0.2435  0.7661
 2574TIP3   OH2 7664   2.809   1.135   4.115  0.2024  1.3395  0.0376
 2574TIP3    H1 7665   2.826   1.139   4.209  1.9903  0.8522 -0.2584
 2574TIP3    H2 7666   2.734   1.076   4.107 -0.4168  1.9417  1.1955
 2575TIP3   OH2 7667   0.870   2.903   4.400 -0.0461  0.0293  0.2500
 2575TIP3    H1 7668   0.779   2.879   4.415 -0.3794  0.4741 -0.9939
 2575TIP3    H2 7669   0.865   2.977   4.339  1.1436  0.1133  0.2467
 2576TIP3   OH2 7670   8.158   0.971   2.743 -0.1706  0.0002  0.4880
 2576TIP3    H1 7671   8.118   1.027   2.810  0.2795 -0.9430  1.5614
 2576TIP3    H2 7672   8.165   1.028   2.666  1.1178  1.7417  1.8287
 2577TIP3   OH2 7673   4.255   1.018   3.686 -0.1020 -0.6184 -0.1964
 2577TIP3    H1 7674   4.167   1.026   3.649 -0.7106  0.4134  1.4608
 2577TIP3    H2 7675   4.299   0.955   3.628 -1.2865  0.3344 -2.1839
 2578TIP3   OH2 7676   0.873   0.993   4.412 -0.3732  0.0953  0.3534
 2578TIP3    H1 7677   0.903   1.065   4.356 -1.1565  0.5406  0.4931
 2578TIP3    H2 7678   0.909   1.014   4.499 -0.1181  0.0138  0.2669
 2579TIP3   OH2 7679   1.668   2.989   2.596  0.5416 -0.1798 -0.1302
 2579TIP3    H1 7680   1.653   3.031   2.512  0.2219 -2.0566 -1.0347
 2579TIP3    H2 7681   1.757   2.955   2.591  1.3491  1.6656  1.1764
 2580TIP3   OH2 7682   0.387   1.572   2.037  0.9690  0.0330 -0.3228
 2580TIP3    H1 7683   0.329   1.624   2.092  2.0610  0.3451  0.5684
 2580TIP3    H2 7684   0.339   1.492   2.019 -0.4440  1.0388 -1.1043
 2581TIP3   OH2 7685   2.329   1.432   3.534 -0.0924  0.2514 -0.1733
 2581TIP3    H1 7686   2.334   1.485   3.454 -0.9293  0.8058  0.1284
 2581TIP3    H2 7687   2.244   1.456   3.573 -0.6001 -1.5083 -0.1516
 2582TIP3   OH2 7688   1.577   0.229   2.376  0.0129 -0.1931  0.2960
 2582TIP3    H1 7689   1.583   0.177   2.456 -0.2391  1.6964  1.5839
 2582TIP3    H2 7690   1.496   0.279   2.386  0.5356  0.8765 -0.6200
 2583TIP3   OH2 7691   2.111   0.782   2.412  0.1561  0.6334 -0.7357
 2583TIP3    H1 7692   2.042   0.765   2.476  1.0651 -1.7488 -0.3382
 2583TIP3    H2 7693   2.064   0.808   2.333 -1.1575  0.0339 -0.1642
 2584TIP3   OH2 7694   2.696   3.087   3.111 -0.4182 -0.2649 -0.4392
 2584TIP3    H1 7695   2.725   3.028   3.041  0.3942 -1.0859  0.5746
 2584TIP3    H2 7696   2.635   3.147   3.068 -1.1272 -1.7307 -1.5287
 2585TIP3   OH2 7697   2.514   1.800   4.352 -0.4271  0.0496 -0.4794
 2585TIP3    H1 7698   2.609   1.806   4.345 -0.5280  2.1944 -0.4326
 2585TIP3    H2 7699   2.482   1.827   4.266 -1.0314  1.2016  0.0911
 2586TIP3   OH2 7700   3.465   3.510   1.736  0.2301 -0.3088 -0.2104
 2586TIP3    H1 7701   3.385   3.482   1.780 -0.5577  1.2260 -0.6316
 2586TIP3    H2 7702   3.436   3.574   1.672  1.9719  1.6238  0.8735
 2587TIP3   OH2 7703   2.934   3.537   4.552  0.3194 -0.1559 -1.1717
 2587TIP3    H1 7704   2.855   3.486   4.569 -1.0272  2.0723 -0.3735
 2587TIP3    H2 7705   2.979   3.491   4.482 -1.5627 -1.6331 -1.4413
 2588TIP3   OH2 7706   2.746   0.407   1.971 -0.2558  0.1412 -0.3024
 2588TIP3    H1 7707   2.806   0.443   1.905 -0.7503 -0.2180 -0.9429
 2588TIP3    H2 7708   2.778   0.318   1.987  1.0216  0.8732  1.3490
 2589TIP3   OH2 7709   2.750   3.224   3.459 -0.1016 -0.0418 -0.2917
 2589TIP3    H1 7710   2.654   3.224   3.459 -0.1015  0.0227 -0.5847
 2589TIP3    H2 7711   2.774   3.132   3.456 -0.1552 -0.0006 -3.0162
 2590TIP3   OH2 7712   2.319   0.945   3.595 -0.1192 -0.0599  0.5940
 2590TIP3    H1 7713   2.373   1.023   3.606 -0.7224  0.6968 -1.4683
 2590TIP3    H2 7714   2.364   0.893   3.529 -1.4719  0.2160 -0.5872
 2591TIP3   OH2 7715   0.210   1.487   4.495  0.3943  0.1780  0.6096
 2591TIP3    H1 7716   0.194   1.438   4.415 -0.0768  0.3899  0.5700
 2591TIP3    H2 7717   0.185   1.427   4.565 -1.1159  0.7007  0.5297
 2592TIP3   OH2 7718   3.131   1.186   1.195 -0.1267  0.4185  0.6560
 2592TIP3    H1 7719   3.077   1.169   1.118 -0.4315  2.9116  0.2587
 2592TIP3    H2 7720   3.221   1.167   1.167 -0.3942 -0.0870  0.1438
 2593TIP3   OH2 7721   3.131   1.677   2.295 -0.3134  0.2951  0.3167
 2593TIP3    H1 7722   3.143   1.771   2.285  2.1898  0.0103  0.2233
 2593TIP3    H2 7723   3.107   1.646   2.208  0.5940  0.6195 -0.0518
 2594TIP3   OH2 7724   8.078   0.284   4.106  0.0283 -0.4104  0.2201
 2594TIP3    H1 7725   8.079   0.198   4.064 -0.4004 -0.7159  0.8306
 2594TIP3    H2 7726   8.146   0.278   4.173  1.7721  0.5847 -1.4236
 2595TIP3   OH2 7727   1.110   1.884   2.830 -0.2210 -0.4378 -0.3305
 2595TIP3    H1 7728   1.126   1.831   2.908  0.3465  1.4805  0.8668
 2595TIP3    H2 7729   1.021   1.917   2.841  0.1729  0.5426 -0.0704
 2596TIP3   OH2 7730   2.488   1.087   4.086 -0.7368  0.7891  0.5035
 2596TIP3    H1 7731   2.551   1.022   4.118 -1.2189 -0.5307 -1.1811
 2596TIP3    H2 7732   2.403   1.045   4.098 -1.0406  1.0400 -0.7347
 2597TIP3   OH2 7733   3.494   0.498   1.393  0.2918 -0.1005  0.2465
 2597TIP3    H1 7734   3.579   0.537   1.372  0.4628 -0.3009  0.5644
 2597TIP3    H2 7735   3.484   0.427   1.330  0.0544  0.3464 -0.2265
 2598TIP3   OH2 7736   1.141   1.464   2.978 -0.7328  0.2722 -0.2163
 2598TIP3    H1 7737   1.202   1.482   2.907  0.4521 -0.2905  0.6459
 2598TIP3    H2 7738   1.158   1.373   3.003 -2.1928 -0.0153 -0.2241
 2599TIP3   OH2 7739   2.253   0.684   0.984 -0.2893  0.6499  0.5372
 2599TIP3    H1 7740   2.249   0.589   0.996  0.7564  0.2116 -2.1132
 2599TIP3    H2 7741   2.162   0.711   0.973 -0.3788 -0.7147 -2.8150
 2600TIP3   OH2 7742   2.658   0.846   2.559  0.0727  0.4350  0.1949
 2600TIP3    H1 7743   2.742   0.888   2.537 -0.3150  0.7065 -0.8069
 2600TIP3    H2 7744   2.681   0.774   2.618  1.2185 -0.7031 -1.6183
 2601TIP3   OH2 7745   7.202   6.602   1.472  0.2339 -0.0327  0.1704
 2601TIP3    H1 7746   7.141   6.675   1.458  0.2440 -0.1697 -0.6532
 2601TIP3    H2 7747   7.284   6.632   1.432  0.4387 -0.2194  0.4484
 2602TIP3   OH2 7748   1.925   4.027   1.265  0.0532  0.1499  0.5170
 2602TIP3    H1 7749   1.850   4.006   1.210  1.3908  0.7509 -1.6174
 2602TIP3    H2 7750   1.901   4.107   1.310  0.5411  2.1352 -2.5583
 2603TIP3   OH2 7751   0.508   0.637   1.847 -0.3905  0.1939  0.8443
 2603TIP3    H1 7752   0.576   0.608   1.786  0.4231  0.9948  1.3459
 2603TIP3    H2 7753   0.508   0.732   1.838 -1.2958  0.2063  1.0113
 2604TIP3   OH2 7754   3.778   0.411   3.843 -0.0592  0.3380 -0.0112
 2604TIP3    H1 7755   3.742   0.325   3.861 -0.4875  0.4366 -0.3835
 2604TIP3    H2 7756   3.750   0.465   3.917  1.6294 -0.2423  1.0839
 2605TIP3   OH2 7757   1.795   0.703   3.980  0.2407 -0.3215 -0.2544
 2605TIP3    H1 7758   1.801   0.766   3.909 -0.5187 -0.7334 -0.6955
 2605TIP3    H2 7759   1.882   0.701   4.019 -0.7193  4.0982  2.4532
 2606TIP3   OH2 7760   1.512   0.201   3.113  0.4362 -0.1940 -0.4527
 2606TIP3    H1 7761   1.498   0.295   3.105 -0.4703 -0.3060 -0.1855
 2606TIP3    H2 7762   1.532   0.172   3.024  1.9802  0.4510 -0.3223
 2607TIP3   OH2 7763   4.312   2.275   5.480  0.1271 -0.0533  0.2680
 2607TIP3    H1 7764   4.284   2.351   5.530  0.8770  0.4495 -0.0681
 2607TIP3    H2 7765   4.407   2.284   5.473  0.0320 -0.0291 -1.3441
 2608TIP3   OH2 7766   1.214   0.072   3.280  0.0793  0.7147  0.0935
 2608TIP3    H1 7767   1.191   0.014   3.207  1.8543  1.6769 -1.2846
 2608TIP3    H2 7768   1.215   0.015   3.357  1.6205 -1.0662 -1.2106
 2609TIP3   OH2 7769   2.503   1.630   2.987  0.2834 -0.5082  0.1628
 2609TIP3    H1 7770   2.433   1.566   2.996 -1.7890  1.6464 -0.0925
 2609TIP3    H2 7771   2.577   1.592   3.034 -1.7453 -1.8201  2.3622
 2610TIP3   OH2 7772   1.619   1.132   6.365  0.6078 -0.1184 -0.0387
 2610TIP3    H1 7773   1.632   1.038   6.353  0.6514 -0.4066  2.0885
 2610TIP3    H2 7774   1.551   1.139   6.432  1.2853  1.3382  0.5288
 2611TIP3   OH2 7775   2.751   1.798   5.903  0.1347 -0.2777  0.1976
 2611TIP3    H1 7776   2.785   1.818   5.816 -0.4673 -0.1667 -0.0118
 2611TIP3    H2 7777   2.758   1.880   5.951  1.3658 -0.5753  0.5589
 2612TIP3   OH2 7778   5.163   7.256   3.819  0.4677 -0.0511  0.1366
 2612TIP3    H1 7779   5.095   7.223   3.760 -0.0306 -1.0958  1.2753
 2612TIP3    H2 7780   5.198   7.333   3.774 -0.6251 -0.2147 -1.0302
 2613TIP3   OH2 7781   1.902   5.522   3.774  0.0047 -0.1706 -0.0494
 2613TIP3    H1 7782   1.972   5.473   3.731  1.1677  1.3189  0.1193
 2613TIP3    H2 7783   1.824   5.505   3.720  0.4129 -2.0533 -0.0763
 2614TIP3   OH2 7784   2.810   1.908   3.101  0.1474 -0.0228 -0.3872
 2614TIP3    H1 7785   2.810   1.903   3.005  1.0190  1.1569 -0.4572
 2614TIP3    H2 7786   2.717   1.901   3.125 -0.4046  2.7281 -1.5038
 2615TIP3   OH2 7787   2.131   2.608   4.872 -0.2808 -0.0936  0.1339
 2615TIP3    H1 7788   2.094   2.640   4.954 -1.5644  0.1408 -0.5237
 2615TIP3    H2 7789   2.066   2.631   4.806 -0.4498 -2.5381 -0.5991
 2616TIP3   OH2 7790   0.657   2.674   5.964  0.0681  0.3324 -0.2673
 2616TIP3    H1 7791   0.652   2.686   5.869  0.2362 -0.3075 -0.3607
 2616TIP3    H2 7792   0.688   2.759   5.997 -0.0352  0.5716 -0.7784
 2617TIP3   OH2 7793   4.019   2.008   4.158  0.0327  0.0510  0.0060
 2617TIP3    H1 7794   4.099   2.058   4.140  0.1624  0.8703  2.6345
 2617TIP3    H2 7795   3.955   2.044   4.098  1.7966 -1.1639 -2.7169
 2618TIP3   OH2 7796   3.818   2.130   3.997 -0.3512 -0.0789  0.1101
 2618TIP3    H1 7797   3.739   2.151   4.047 -0.3403  0.0746  0.0632
 2618TIP3    H2 7798   3.863   2.214   3.987  1.0160 -0.5131  2.1785
 2619TIP3   OH2 7799   4.137   3.093   5.126 -0.0330  0.1041 -0.1708
 2619TIP3    H1 7800   4.188   3.089   5.046  1.1875 -1.1616  0.6500
 2619TIP3    H2 7801   4.046   3.084   5.097  0.3998 -0.4530 -1.3905
 2620TIP3   OH2 7802   0.122   7.925   0.867  0.1919 -0.0744  0.1741
 2620TIP3    H1 7803   0.084   7.923   0.954  1.6707  0.2018  0.8486
 2620TIP3    H2 7804   0.127   8.018   0.844 -0.5445 -0.1628 -0.3734
 2621TIP3   OH2 7805   4.366   1.479   1.086 -0.8993  0.0302 -0.0819
 2621TIP3    H1 7806   4.419   1.557   1.106 -0.3858 -0.3518  0.0703
 2621TIP3    H2 7807   4.412   1.438   1.013 -2.4206  1.0791 -1.6636
 2622TIP3   OH2 7808   3.135   1.137   3.433 -0.1175 -0.0937  0.4931
 2622TIP3    H1 7809   3.124   1.082   3.511  0.5268  1.5911  1.8006
 2622TIP3    H2 7810   3.174   1.079   3.368 -1.4525 -1.7544  1.1312
 2623TIP3   OH2 7811   4.159   3.424   3.315 -0.0855  0.2475 -0.0430
 2623TIP3    H1 7812   4.180   3.507   3.358  0.5739  1.1854 -2.0715
 2623TIP3    H2 7813   4.072   3.437   3.279 -0.2082 -0.1520  0.1055
 2624TIP3   OH2 7814   2.557   1.041   2.740  0.3434 -0.2983  0.2549
 2624TIP3    H1 7815   2.560   1.106   2.669 -3.5167 -1.3520 -0.9744
 2624TIP3    H2 7816   2.573   0.957   2.696  2.0616 -0.5784  1.3430
 2625TIP3   OH2 7817   3.914   2.377   1.789 -0.1944  0.7173  0.6648
 2625TIP3    H1 7818   3.962   2.447   1.834  0.3574  0.4969  0.4281
 2625TIP3    H2 7819   3.824   2.409   1.783  0.0392  1.3740  0.6178
 2626TIP3   OH2 7820   0.546   2.255   4.021  0.1859 -0.1893  0.6371
 2626TIP3    H1 7821   0.506   2.183   3.973 -0.4886  0.9882 -0.6072
 2626TIP3    H2 7822   0.637   2.228   4.033  0.4929 -0.3133 -1.7246
 2627TIP3   OH2 7823   4.340   3.251   2.923  0.5147 -0.0631 -0.1412
 2627TIP3    H1 7824   4.428   3.270   2.956  0.4795 -0.3632  0.1210
 2627TIP3    H2 7825   4.326   3.158   2.940  0.0777  0.0211 -0.0231
 2628TIP3   OH2 7826   2.290   0.773   2.631 -0.4268  0.3702  0.1496
 2628TIP3    H1 7827   2.294   0.868   2.646 -0.2123  0.6793 -1.7548
 2628TIP3    H2 7828   2.271   0.764   2.537 -0.2509 -1.4801  0.2704
 2629TIP3   OH2 7829   3.152   3.412   2.154 -0.2615  0.1213 -0.3545
 2629TIP3    H1 7830   3.206   3.476   2.108  0.4653 -0.9055 -0.9416
 2629TIP3    H2 7831   3.173   3.329   2.112 -0.9642 -0.5503  0.6210
 2630TIP3   OH2 7832   3.196   0.325   1.107  0.0492 -0.3519  0.4014
 2630TIP3    H1 7833   3.112   0.295   1.144  0.9365 -2.3581  0.8392
 2630TIP3    H2 7834   3.227   0.251   1.055  1.4044  0.5144 -0.0407
 2631TIP3   OH2 7835   7.344   6.920   4.529 -0.0615  0.2385  0.8436
 2631TIP3    H1 7836   7.414   6.948   4.589  0.3003  0.7793  0.1779
 2631TIP3    H2 7837   7.264   6.948   4.572  0.0991 -0.8298  1.8557
 2632TIP3   OH2 7838   1.619   1.938   2.427 -0.1023 -0.4663 -0.2682
 2632TIP3    H1 7839   1.565   1.923   2.505  0.6818 -1.4036  0.1029
 2632TIP3    H2 7840   1.560   1.917   2.353 -0.7020 -0.0190  0.0779
 2633TIP3   OH2 7841   1.957   0.913   5.061 -0.2048  1.2091 -0.3691
 2633TIP3    H1 7842   1.892   0.877   5.000 -1.8289  1.5178  1.1192
 2633TIP3    H2 7843   2.011   0.970   5.007 -1.7834  1.7054 -1.4789
 2634TIP3   OH2 7844   8.404   7.653   3.927  0.1255 -0.0704  0.1891
 2634TIP3    H1 7845   8.480   7.601   3.952  0.2730 -0.0365 -0.1958
 2634TIP3    H2 7846   8.354   7.662   4.008  0.3086 -0.4617  0.3462
 2635TIP3   OH2 7847   3.101   2.736   3.935  0.5296  0.0657  0.5269
 2635TIP3    H1 7848   3.031   2.677   3.907  0.3603 -0.4182  1.9580
 2635TIP3    H2 7849   3.132   2.776   3.853 -0.5193 -0.6967 -0.2625
 2636TIP3   OH2 7850   2.556   0.725   2.157 -0.5916 -0.0976  0.1008
 2636TIP3    H1 7851   2.538   0.798   2.217 -0.8663 -1.6541  1.9869
 2636TIP3    H2 7852   2.634   0.683   2.192 -1.1918 -1.4899 -0.1597
 2637TIP3   OH2 7853   3.532   1.134   3.758  0.0290  0.0155  0.0405
 2637TIP3    H1 7854   3.592   1.186   3.811 -0.6329 -1.0743  1.9165
 2637TIP3    H2 7855   3.445   1.155   3.793 -0.4354 -0.5173 -0.7858
 2638TIP3   OH2 7856   0.118   3.434   4.931 -0.8857 -0.5929  0.0406
 2638TIP3    H1 7857   0.062   3.481   4.870 -2.8004 -0.6638  1.6705
 2638TIP3    H2 7858   0.078   3.347   4.939 -0.5123 -0.6838  1.1502
 2639TIP3   OH2 7859   4.903   2.915   3.075 -0.2471 -0.1450  0.5007
 2639TIP3    H1 7860   4.851   2.836   3.059 -0.3682  0.2856 -1.2777
 2639TIP3    H2 7861   4.854   2.962   3.143 -0.2274 -1.5390  1.5030
 2640TIP3   OH2 7862   3.036   1.078   3.964  0.0591  0.0566 -0.3271
 2640TIP3    H1 7863   2.962   1.074   4.024  0.2194 -1.3643 -0.1959
 2640TIP3    H2 7864   3.004   1.128   3.889 -0.2301  1.6129  0.8129
 2641TIP3   OH2 7865   1.855   0.731   2.511  0.2580  0.5063 -0.1047
 2641TIP3    H1 7866   1.871   0.638   2.525 -1.2221  0.0505 -1.2821
 2641TIP3    H2 7867   1.774   0.734   2.460 -0.0375  2.4599  0.4307
 2642TIP3   OH2 7868   1.724   2.533   2.810 -0.1620  1.0390 -0.5496
 2642TIP3    H1 7869   1.727   2.614   2.760  0.7182  0.4946 -1.4065
 2642TIP3    H2 7870   1.682   2.470   2.752  1.3323  0.2702 -0.8214
 2643TIP3   OH2 7871   2.630   1.468   3.795 -0.2205 -0.1559  0.0148
 2643TIP3    H1 7872   2.689   1.509   3.731  1.9925 -3.0878  0.0911
 2643TIP3    H2 7873   2.682   1.462   3.875 -2.3125  1.6376  1.5743
 2644TIP3   OH2 7874   2.288   2.074   3.637 -0.2382  0.1740 -0.2901
 2644TIP3    H1 7875   2.250   2.145   3.688 -1.6161 -1.3858  0.9229
 2644TIP3    H2 7876   2.240   2.076   3.554 -0.7831  0.2240  0.0215
 2645TIP3   OH2 7877   3.595   4.074   3.783 -0.2271 -0.4115 -0.3257
 2645TIP3    H1 7878   3.581   4.019   3.706 -0.6342 -1.1970  0.3021
 2645TIP3    H2 7879   3.633   4.015   3.848 -0.2397  0.1538  0.2006
 2646TIP3   OH2 7880   7.882   3.404   3.547  0.1752  0.1975 -0.1463
 2646TIP3    H1 7881   7.942   3.344   3.590 -0.8775 -0.0737  0.9585
 2646TIP3    H2 7882   7.795   3.368   3.564 -0.5237  2.4213  1.1408
 2647TIP3   OH2 7883   2.013   1.833   4.116 -0.1961 -0.0818 -0.6103
 2647TIP3    H1 7884   2.032   1.830   4.210 -0.9943 -0.4873 -0.4597
 2647TIP3    H2 7885   1.948   1.904   4.107 -0.9800 -0.8048 -0.6987
 2648TIP3   OH2 7886   0.288   1.759   4.518 -0.6558  0.4293 -0.5127
 2648TIP3    H1 7887   0.285   1.666   4.497  0.9602 -0.0631  1.3137
 2648TIP3    H2 7888   0.372   1.789   4.482 -0.6247  0.9085 -0.0505
 2649TIP3   OH2 7889   1.984   2.979   3.815 -0.2790  0.2649  0.1441
 2649TIP3    H1 7890   1.958   3.042   3.748 -3.6786 -0.7043  0.4928
 2649TIP3    H2 7891   2.023   3.033   3.884 -1.3228  1.7788 -0.4289
 2650TIP3   OH2 7892   0.342   2.685   4.359  0.4404 -0.0631 -0.3942
 2650TIP3    H1 7893   0.258   2.730   4.363  0.5233  0.2414 -1.6619
 2650TIP3    H2 7894   0.319   2.592   4.362  0.0600  0.0224 -0.5549
 2651TIP3   OH2 7895   5.798   5.088   3.118 -0.0833  0.4261  0.0681
 2651TIP3    H1 7896   5.867   5.037   3.076 -0.2803 -0.0734  0.3424
 2651TIP3    H2 7897   5.832   5.105   3.206 -0.6796 -0.5989  0.5128
 2652TIP3   OH2 7898   2.862   6.233   1.556  0.2785 -0.5024 -0.2133
 2652TIP3    H1 7899   2.786   6.201   1.605  1.5703 -1.6609  1.0363
 2652TIP3    H2 7900   2.894   6.307   1.607 -0.4728  0.4985 -1.1651
 2653TIP3   OH2 7901   2.253   3.348   2.602  0.0230 -0.2424  0.2173
 2653TIP3    H1 7902   2.258   3.268   2.654  0.0121  0.7266  1.7430
 2653TIP3    H2 7903   2.184   3.400   2.644  2.4003  2.0497  1.4054
 2654TIP3   OH2 7904   1.586   2.467   4.784  0.3476 -0.2498  0.3726
 2654TIP3    H1 7905   1.675   2.483   4.815  0.5062 -0.4598  0.0267
 2654TIP3    H2 7906   1.530   2.508   4.850  0.7603  2.9589 -1.1820
 2655TIP3   OH2 7907   7.574   2.516   5.363 -0.1944  0.4724  0.0595
 2655TIP3    H1 7908   7.544   2.453   5.428  2.1644 -1.1405 -0.3439
 2655TIP3    H2 7909   7.548   2.479   5.279  3.0281 -1.0830 -0.3084
 2656TIP3   OH2 7910   1.622   3.275   4.524 -0.6149 -0.6883  0.2082
 2656TIP3    H1 7911   1.618   3.224   4.442  0.3412 -1.4463  0.6243
 2656TIP3    H2 7912   1.581   3.358   4.502 -0.5534 -0.9604 -0.9961
 2657TIP3   OH2 7913   2.290   4.811   3.386 -0.8846  0.4503  0.5631
 2657TIP3    H1 7914   2.265   4.750   3.455  1.6044  1.8407  2.7594
 2657TIP3    H2 7915   2.220   4.877   3.385 -2.0912 -0.8207  0.1505
 2658TIP3   OH2 7916   2.169   1.045   2.803 -0.2581 -0.3940 -0.6302
 2658TIP3    H1 7917   2.136   1.071   2.889  0.7366 -1.7151  0.1720
 2658TIP3    H2 7918   2.250   1.095   2.791 -0.3476 -0.2797 -0.7666
 2659TIP3   OH2 7919   3.336   3.533   4.314  0.4012 -0.3545 -0.0942
 2659TIP3    H1 7920   3.247   3.502   4.299  0.2860 -0.1222  0.1246
 2659TIP3    H2 7921   3.366   3.561   4.227  0.2945 -0.5188 -0.1849
 2660TIP3   OH2 7922   7.593   0.267   3.173 -0.0968 -0.0557 -0.2887
 2660TIP3    H1 7923   7.541   0.216   3.236 -4.1188  1.5831 -2.0726
 2660TIP3    H2 7924   7.585   0.357   3.203 -0.3128  0.4981 -1.9598
 2661TIP3   OH2 7925   0.688   2.269   2.076 -0.3989  0.5205 -0.2214
 2661TIP3    H1 7926   0.702   2.184   2.035 -0.9042  0.8761 -1.1240
 2661TIP3    H2 7927   0.704   2.333   2.007 -2.2689  1.0885 -0.1573
 2662TIP3   OH2 7928   6.575   5.842   3.114  0.7123  0.0431  0.7947
 2662TIP3    H1 7929   6.632   5.774   3.150  0.7879 -0.5209 -0.3585
 2662TIP3    H2 7930   6.537   5.885   3.190  1.1276 -0.9076  1.5438
 2663TIP3   OH2 7931   3.632   0.560   2.455 -0.1403  0.1228  0.2253
 2663TIP3    H1 7932   3.629   0.496   2.384 -0.4201 -0.9814  1.2248
 2663TIP3    H2 7933   3.635   0.644   2.410 -0.3719 -0.5543 -1.1003
 2664TIP3   OH2 7934   6.994   7.038   1.197  0.2034  0.6318  0.4495
 2664TIP3    H1 7935   7.073   7.079   1.160  0.5638 -1.4225 -1.1518
 2664TIP3    H2 7936   6.939   7.020   1.121 -0.0879 -1.5379  1.1461
 2665TIP3   OH2 7937   8.209   0.242   1.877  0.4087  0.0791  0.0825
 2665TIP3    H1 7938   8.213   0.211   1.786  0.9610 -0.0506  0.1474
 2665TIP3    H2 7939   8.276   0.191   1.922 -0.5388 -0.5686  0.7882
 2666TIP3   OH2 7940   1.961   0.095   4.142  0.0631 -0.1528  0.3521
 2666TIP3    H1 7941   2.045   0.122   4.179 -0.7031  0.2753  1.8197
 2666TIP3    H2 7942   1.981   0.017   4.091  1.4965  0.4455 -0.0299
 2667TIP3   OH2 7943   7.906   7.474   4.197  0.4527  0.0029  0.0850
 2667TIP3    H1 7944   7.823   7.449   4.237 -1.2149  0.7958 -2.7407
 2667TIP3    H2 7945   7.896   7.451   4.105  2.3897  2.5128 -0.7956
 2668TIP3   OH2 7946   2.714   0.828   1.931  0.6925 -0.0457  0.4843
 2668TIP3    H1 7947   2.662   0.809   2.009 -0.1357 -0.3188 -0.1137
 2668TIP3    H2 7948   2.794   0.867   1.963 -0.5650  1.8797  1.3657
 2669TIP3   OH2 7949   2.220   4.200   4.526  0.1649  0.1577 -0.5236
 2669TIP3    H1 7950   2.232   4.201   4.431  0.5665 -0.6349 -0.4843
 2669TIP3    H2 7951   2.297   4.246   4.560 -0.3995  1.1882 -0.6185
 2670TIP3   OH2 7952   1.302   0.313   1.884  0.2345  0.3397  0.2649
 2670TIP3    H1 7953   1.250   0.333   1.805  1.0755  0.1325 -0.3446
 2670TIP3    H2 7954   1.338   0.226   1.868 -0.3935 -0.1232  1.3152
 2671TIP3   OH2 7955   1.440   0.323   3.732  0.2144  0.5213  0.6230
 2671TIP3    H1 7956   1.424   0.261   3.803  1.4482 -0.8440 -0.2456
 2671TIP3    H2 7957   1.413   0.276   3.653  1.1976  1.0530 -0.0485
 2672TIP3   OH2 7958   3.575   2.703   3.734  0.2935 -0.5317  0.0222
 2672TIP3    H1 7959   3.643   2.729   3.796 -0.2647 -1.8941  1.2420
 2672TIP3    H2 7960   3.617   2.637   3.679  1.0572  1.3256 -1.6543
 2673TIP3   OH2 7961   3.045   1.917   4.392 -0.0939  0.6573 -0.3948
 2673TIP3    H1 7962   3.123   1.973   4.384  1.1377 -0.7983  1.0037
 2673TIP3    H2 7963   3.017   1.902   4.302  2.4146 -0.3465 -1.0614
 2674TIP3   OH2 7964   3.454   2.564   4.279  0.1212 -1.0152 -0.5378
 2674TIP3    H1 7965   3.383   2.532   4.223 -0.8928  0.7415 -0.2928
 2674TIP3    H2 7966   3.504   2.622   4.222  0.3128 -0.8593 -0.2100
 2675TIP3   OH2 7967   8.314   7.566   1.436 -0.4564 -0.0516  0.1851
 2675TIP3    H1 7968   8.339   7.475   1.454 -1.1095 -0.4080 -0.6579
 2675TIP3    H2 7969   8.325   7.611   1.520 -0.9582 -1.0964  0.8224
 2676TIP3   OH2 7970   6.692   1.608   3.471  0.1346  0.0534  0.0787
 2676TIP3    H1 7971   6.758   1.539   3.466 -0.2182 -0.2709 -0.1700
 2676TIP3    H2 7972   6.683   1.639   3.381 -1.1194 -0.9272 -0.1595
 2677TIP3   OH2 7973   2.577   2.213   5.586 -0.3581 -0.5905  0.2219
 2677TIP3    H1 7974   2.485   2.222   5.561 -0.8445  0.9292  2.3989
 2677TIP3    H2 7975   2.622   2.283   5.538 -0.1950 -1.8502 -1.4733
 2678TIP3   OH2 7976   4.648   0.854   2.662  0.0084 -0.1744  0.2222
 2678TIP3    H1 7977   4.705   0.787   2.625 -0.1204  0.1635 -0.6037
 2678TIP3    H2 7978   4.703   0.900   2.726  0.5070 -0.1779 -0.2021
 2679TIP3   OH2 7979   3.606   2.823   2.439 -0.0243 -0.0693  0.2790
 2679TIP3    H1 7980   3.660   2.901   2.454 -0.1709 -0.0154  0.5348
 2679TIP3    H2 7981   3.516   2.857   2.436  0.0210 -0.0271 -1.0699
 2680TIP3   OH2 7982   3.891   3.487   3.206 -0.1221  0.1786 -0.2850
 2680TIP3    H1 7983   3.807   3.442   3.204 -0.1894  0.3299 -1.4005
 2680TIP3    H2 7984   3.903   3.520   3.117  1.2523 -0.0948 -0.2230
 2681TIP3   OH2 7985   8.123   7.560   3.816 -0.3643  0.2461 -0.5044
 2681TIP3    H1 7986   8.154   7.640   3.859  0.6366 -1.3781  1.8385
 2681TIP3    H2 7987   8.058   7.524   3.876 -1.4866 -0.2481 -1.9851
 2682TIP3   OH2 7988   4.511   1.936   3.981  0.4233 -0.1672 -0.5570
 2682TIP3    H1 7989   4.538   1.965   3.894  1.0804 -0.0087 -0.2998
 2682TIP3    H2 7990   4.467   1.852   3.966  0.7668 -0.2651 -1.0083
 2683TIP3   OH2 7991   1.863   0.620   3.401  0.1793  0.1093  0.8063
 2683TIP3    H1 7992   1.798   0.638   3.334 -0.5281 -0.1726  1.4044
 2683TIP3    H2 7993   1.906   0.703   3.417  2.7071 -0.5170 -2.4321
 2684TIP3   OH2 7994   6.420   0.669   2.201 -0.0260  0.5500 -0.2730
 2684TIP3    H1 7995   6.516   0.669   2.197 -0.0133  0.7709  0.0309
 2684TIP3    H2 7996   6.400   0.673   2.294 -0.3300  2.6771 -0.4159
 2685TIP3   OH2 7997   3.702   1.314   1.176  0.3403 -0.3831  0.4065
 2685TIP3    H1 7998   3.647   1.372   1.227  0.1635 -1.6843  1.7528
 2685TIP3    H2 7999   3.792   1.337   1.201  0.4048  1.3452 -1.3531
 2686TIP3   OH2 8000   3.173   0.297   3.245  0.1309  0.1341  0.3449
 2686TIP3    H1 8001   3.110   0.226   3.235 -0.0846  0.3368  0.2684
 2686TIP3    H2 8002   3.185   0.305   3.340 -0.8764  0.9017  0.4117
 2687TIP3   OH2 8003   1.473   0.971   1.680  0.7618  0.0162  0.1624
 2687TIP3    H1 8004   1.541   0.924   1.729 -0.8063 -0.2092  2.1836
 2687TIP3    H2 8005   1.427   0.902   1.631  0.2277 -0.1926  0.9584
 2688TIP3   OH2 8006   3.031   2.395   0.613  0.4099  0.3123 -0.7595
 2688TIP3    H1 8007   2.958   2.335   0.596  2.6907 -2.5062 -0.9563
 2688TIP3    H2 8008   2.990   2.481   0.619 -2.7301 -0.9747 -2.4636
 2689TIP3   OH2 8009   3.959   1.193   2.711 -0.6277  0.2460  0.4523
 2689TIP3    H1 8010   3.942   1.102   2.734  0.1593  0.2310  0.9821
 2689TIP3    H2 8011   3.929   1.201   2.621 -1.1710 -0.4056  0.5734
 2690TIP3   OH2 8012   4.660   0.084   3.221 -0.5104 -0.4068  0.2084
 2690TIP3    H1 8013   4.699   0.017   3.278  1.0825  0.9317  0.7204
 2690TIP3    H2 8014   4.614   0.143   3.281 -0.7367 -0.2520 -0.1160
 2691TIP3   OH2 8015   7.296   4.839   6.468  0.1940 -0.0088  0.0243
 2691TIP3    H1 8016   7.228   4.787   6.510  1.2770 -1.6091 -0.1370
 2691TIP3    H2 8017   7.259   4.865   6.384 -0.9300  0.8159  0.7615
 2692TIP3   OH2 8018   3.395   0.763   1.795  0.7477  0.0305 -0.0286
 2692TIP3    H1 8019   3.377   0.716   1.876  0.0089  1.8921  0.9169
 2692TIP3    H2 8020   3.314   0.754   1.744  1.4143 -1.6368 -0.8539
 2693TIP3   OH2 8021   6.215   1.405   1.112 -0.4174 -0.1875  0.2968
 2693TIP3    H1 8022   6.192   1.450   1.030 -0.3220  0.6749  0.7413
 2693TIP3    H2 8023   6.247   1.319   1.084 -0.8127 -0.0658 -0.5443
 2694TIP3   OH2 8024   4.273   1.406   3.865 -0.4348 -0.5060  0.0868
 2694TIP3    H1 8025   4.322   1.381   3.787  0.1396  1.3021 -0.1550
 2694TIP3    H2 8026   4.181   1.400   3.838 -0.2800 -1.2133 -0.3035
 2695TIP3   OH2 8027   4.548   1.380   2.641 -0.3349  0.4669  0.0018
 2695TIP3    H1 8028   4.592   1.445   2.585 -0.9525 -0.5324 -1.6831
 2695TIP3    H2 8029   4.595   1.298   2.624 -0.9598  0.0159  0.4528
 2696TIP3   OH2 8030   5.028   2.745   3.345  0.3459 -0.2290 -0.0055
 2696TIP3    H1 8031   5.073   2.661   3.336  1.4329  0.2676  0.6722
 2696TIP3    H2 8032   5.076   2.804   3.286 -0.9948 -0.3018 -1.1955
 2697TIP3   OH2 8033   5.895   0.293   0.873  0.2236  0.2266  0.0479
 2697TIP3    H1 8034   5.841   0.276   0.796 -0.9042  0.4559  0.7783
 2697TIP3    H2 8035   5.856   0.371   0.913  0.8244  0.1334  0.8252
 2698TIP3   OH2 8036   6.081   2.381   3.962  0.1458  0.2987 -0.1416
 2698TIP3    H1 8037   6.095   2.344   3.875  1.2388  0.9634 -0.2678
 2698TIP3    H2 8038   6.054   2.307   4.016 -1.2719  0.0192 -1.2130
 2699TIP3   OH2 8039   0.522   6.869   2.767  0.2030 -0.1390 -0.6287
 2699TIP3    H1 8040   0.578   6.820   2.828  0.2513 -0.3955 -0.8756
 2699TIP3    H2 8041   0.501   6.950   2.813  0.6659 -0.1049 -0.4747
 2700TIP3   OH2 8042   3.587   1.664   4.169 -0.0655 -0.0515 -0.1539
 2700TIP3    H1 8043   3.569   1.676   4.262 -0.7559 -1.8262 -0.0345
 2700TIP3    H2 8044   3.679   1.690   4.159  0.0686 -0.0197  1.0638
 2701TIP3   OH2 8045   3.869   2.739   1.574 -0.3472 -0.5808 -0.2351
 2701TIP3    H1 8046   3.839   2.754   1.485  1.3714 -2.4923 -1.1774
 2701TIP3    H2 8047   3.943   2.678   1.565 -0.2722 -0.9732  2.4975
 2702TIP3   OH2 8048   3.559   2.669   3.199 -0.2062 -0.6611  0.0831
 2702TIP3    H1 8049   3.623   2.678   3.128 -1.7359 -1.4812 -1.4404
 2702TIP3    H2 8050   3.503   2.746   3.191 -0.1813 -0.5854  0.6164
 2703TIP3   OH2 8051   2.212   1.370   2.725 -0.0266  0.2346 -0.3659
 2703TIP3    H1 8052   2.251   1.457   2.719 -0.4021  0.5216  1.1415
 2703TIP3    H2 8053   2.218   1.334   2.637  1.3554  1.2619 -0.6913
 2704TIP3   OH2 8054   8.156   4.659   6.353 -0.1386 -0.6960  0.4248
 2704TIP3    H1 8055   8.203   4.670   6.270  0.1659  0.6716  0.7621
 2704TIP3    H2 8056   8.137   4.749   6.381 -1.2019 -1.1915  1.2883
 2705TIP3   OH2 8057   3.402   2.911   3.703  0.5089 -0.3253  0.1022
 2705TIP3    H1 8058   3.471   2.846   3.718  3.3387  2.3449 -0.5714
 2705TIP3    H2 8059   3.397   2.960   3.785 -0.3900 -0.3100  0.0433
 2706TIP3   OH2 8060   4.184   1.689   1.432 -0.0547  0.4700 -0.9836
 2706TIP3    H1 8061   4.239   1.764   1.412 -1.4500  1.4616 -1.1584
 2706TIP3    H2 8062   4.152   1.659   1.347  1.7669 -1.3235 -1.0621
 2707TIP3   OH2 8063   6.008   0.664   3.320  0.1339 -0.0155 -0.6280
 2707TIP3    H1 8064   5.994   0.673   3.414  0.0400 -0.2924 -0.6138
 2707TIP3    H2 8065   5.974   0.577   3.299 -0.9615  0.5156 -1.1259
 2708TIP3   OH2 8066   3.657   1.295   3.913  0.6841  0.2668  0.1871
 2708TIP3    H1 8067   3.667   1.390   3.917 -0.1929  0.3588  0.2407
 2708TIP3    H2 8068   3.673   1.265   4.002 -1.1846  0.5858  0.6554
 2709TIP3   OH2 8069   4.981   2.066   3.601  0.3361 -0.5926  0.2090
 2709TIP3    H1 8070   4.987   2.112   3.518 -0.3570  0.9088  0.9809
 2709TIP3    H2 8071   5.063   2.016   3.607  0.7826 -0.0130 -0.9441
 2710TIP3   OH2 8072   5.238   2.079   0.827 -0.2133  0.4534  0.1709
 2710TIP3    H1 8073   5.192   2.028   0.760 -0.4923 -1.2948  1.6622
 2710TIP3    H2 8074   5.217   2.171   0.805 -3.0539 -0.2140 -0.1769
 2711TIP3   OH2 8075   4.515   1.897   3.243  0.4162 -0.1597 -0.0117
 2711TIP3    H1 8076   4.541   1.839   3.172  2.7266  1.8566 -0.8704
 2711TIP3    H2 8077   4.585   1.890   3.308 -0.8115 -0.6526  1.3054
 2712TIP3   OH2 8078   2.027   2.707   3.855 -0.5055  0.5898  0.5992
 2712TIP3    H1 8079   2.030   2.798   3.827  0.5085  0.7137  1.0992
 2712TIP3    H2 8080   2.006   2.658   3.775 -1.4789  1.2973  0.4241
 2713TIP3   OH2 8081   3.246   0.366   2.640 -0.0676  0.0968  0.0329
 2713TIP3    H1 8082   3.314   0.434   2.638 -0.1183  0.1530  0.2495
 2713TIP3    H2 8083   3.211   0.366   2.551 -0.2927  0.5844  0.1181
 2714TIP3   OH2 8084   2.985   2.671   3.443  0.9518 -0.0608  0.8963
 2714TIP3    H1 8085   2.954   2.581   3.459 -0.8288  0.4543  0.4764
 2714TIP3    H2 8086   3.013   2.671   3.352  0.6997 -0.1286  0.8176
 2715TIP3   OH2 8087   3.747   1.669   0.763 -0.1269 -0.5430 -0.0520
 2715TIP3    H1 8088   3.825   1.713   0.796  0.4447 -0.3954 -1.5706
 2715TIP3    H2 8089   3.684   1.674   0.835  0.4664  1.3991  0.3497
 2716TIP3   OH2 8090   4.040   2.869   3.763  0.0435 -0.0859  0.2855
 2716TIP3    H1 8091   4.000   2.885   3.678 -1.0966 -0.8874  0.6560
 2716TIP3    H2 8092   4.079   2.953   3.788 -0.4675  0.4123 -0.5768
 2717TIP3   OH2 8093   8.226   0.626   3.250  0.3119 -0.1826  0.0696
 2717TIP3    H1 8094   8.180   0.626   3.166 -0.6073 -1.2723  0.5697
 2717TIP3    H2 8095   8.159   0.601   3.314  1.0565  0.4341  1.1088
 2718TIP3   OH2 8096   3.795   1.256   3.281 -0.2364 -0.3478 -0.3648
 2718TIP3    H1 8097   3.886   1.239   3.257  0.9510  1.4685  2.5033
 2718TIP3    H2 8098   3.764   1.318   3.216  1.2534  0.5479 -0.2581
 2719TIP3   OH2 8099   3.931   1.726   1.024  0.2027 -0.4657 -0.1174
 2719TIP3    H1 8100   4.006   1.779   0.999  0.4158 -0.4076  0.6224
 2719TIP3    H2 8101   3.953   1.637   0.995  0.3461 -0.3601 -0.3284
 2720TIP3   OH2 8102   2.265   0.434   5.252  0.5703 -0.2544 -0.3150
 2720TIP3    H1 8103   2.270   0.408   5.160  0.0578  0.9336 -0.6823
 2720TIP3    H2 8104   2.351   0.412   5.287  0.1791 -2.3761 -0.6184
 2721TIP3   OH2 8105   0.411   2.697   3.188  0.5183 -0.6992  0.4016
 2721TIP3    H1 8106   0.317   2.715   3.180  0.7571  1.1224  1.4144
 2721TIP3    H2 8107   0.416   2.605   3.215 -1.0653 -0.1790  2.5539
 2722TIP3   OH2 8108   5.001   1.157   4.056  0.4713 -0.2361 -0.0011
 2722TIP3    H1 8109   5.069   1.207   4.011  0.4291 -0.3819 -0.2260
 2722TIP3    H2 8110   4.934   1.141   3.989  0.3294 -0.3031  0.1566
 2723TIP3   OH2 8111   2.575   2.164   3.143 -0.7761 -0.2137  0.4100
 2723TIP3    H1 8112   2.521   2.093   3.110  0.0882 -0.4469 -0.5070
 2723TIP3    H2 8113   2.617   2.128   3.221 -0.9397 -0.4492  0.3887
 2724TIP3   OH2 8114   3.592   0.933   4.233 -0.2305 -0.1654 -0.2770
 2724TIP3    H1 8115   3.547   0.853   4.209 -1.2520 -0.0473  1.1750
 2724TIP3    H2 8116   3.681   0.905   4.256 -0.5565 -0.8684  0.1291
 2725TIP3   OH2 8117   4.244   2.155   2.516 -0.1794 -0.0388  0.0861
 2725TIP3    H1 8118   4.240   2.061   2.535 -1.2568  0.2254  1.1673
 2725TIP3    H2 8119   4.176   2.194   2.571  0.8169  1.4875  0.2552
 2726TIP3   OH2 8120   5.326   3.024   0.609 -0.2379  0.0313  0.6365
 2726TIP3    H1 8121   5.264   3.089   0.642 -0.4883  0.1275 -0.0071
 2726TIP3    H2 8122   5.274   2.944   0.600 -0.0199 -0.1615  1.0731
 2727TIP3   OH2 8123   4.319   3.475   1.498  0.1188 -0.0937  0.2514
 2727TIP3    H1 8124   4.276   3.541   1.445 -0.4072 -1.7511 -1.4318
 2727TIP3    H2 8125   4.269   3.474   1.580 -0.1100  1.3058  0.1329
 2728TIP3   OH2 8126   4.302   2.913   5.567  0.2718  0.0528  0.3460
 2728TIP3    H1 8127   4.213   2.931   5.537  0.3207  1.2094  0.8815
 2728TIP3    H2 8128   4.314   2.820   5.549 -0.3242  0.3281 -1.5970
 2729TIP3   OH2 8129   4.082   2.127   3.053  0.7567  0.1705  0.5385
 2729TIP3    H1 8130   4.169   2.090   3.063  0.6111 -0.7838 -1.4588
 2729TIP3    H2 8131   4.096   2.214   3.016  0.8795  0.3087  0.9043
 2730TIP3   OH2 8132   3.500   1.500   3.233 -0.2450 -0.1424 -0.1450
 2730TIP3    H1 8133   3.518   1.575   3.289 -0.4415 -1.3046  1.5319
 2730TIP3    H2 8134   3.408   1.508   3.209  0.0005  0.6911 -0.8109
 2731TIP3   OH2 8135   5.010   1.438   1.861 -0.2343 -0.2533  0.2305
 2731TIP3    H1 8136   5.012   1.344   1.879 -1.2598 -0.6614 -1.6128
 2731TIP3    H2 8137   5.099   1.459   1.832 -0.1342 -0.7548  0.1760
 2732TIP3   OH2 8138   6.757   2.033   3.144  0.2127 -0.1230 -0.3986
 2732TIP3    H1 8139   6.728   1.961   3.200  0.0464  0.6359  0.4960
 2732TIP3    H2 8140   6.697   2.105   3.163 -0.7673 -0.3101 -2.6465
 2733TIP3   OH2 8141   5.066   1.878   3.308 -0.0509  0.1874 -1.1693
 2733TIP3    H1 8142   5.043   1.971   3.299  1.8492  0.6235 -1.9590
 2733TIP3    H2 8143   5.015   1.833   3.242 -1.5483  0.5590 -0.2841
 2734TIP3   OH2 8144   4.305   0.749   2.789 -0.4067  0.5781  0.4164
 2734TIP3    H1 8145   4.227   0.759   2.734  0.6947  0.3925 -1.2387
 2734TIP3    H2 8146   4.331   0.839   2.810 -1.5047  0.6216  1.6287
 2735TIP3   OH2 8147   3.302   1.294   3.607 -0.3960 -0.6054 -0.0962
 2735TIP3    H1 8148   3.383   1.274   3.560 -2.0270 -2.0698 -2.3986
 2735TIP3    H2 8149   3.235   1.243   3.561 -2.6107  0.5195  1.8075
 2736TIP3   OH2 8150   8.371   7.746   1.993 -0.5230  0.1062 -0.1271
 2736TIP3    H1 8151   8.305   7.789   2.048 -0.2615 -0.8184  0.9047
 2736TIP3    H2 8152   8.452   7.791   2.014 -0.5307  0.1555 -0.2023
 2737TIP3   OH2 8153   4.259   1.156   2.863  0.1335 -0.0470  0.2156
 2737TIP3    H1 8154   4.338   1.103   2.867 -0.4539 -1.0875 -1.2704
 2737TIP3    H2 8155   4.233   1.168   2.954  0.0406 -2.7231  0.5992
 2738TIP3   OH2 8156   4.921   0.810   2.887 -0.6289 -0.2608  0.3501
 2738TIP3    H1 8157   4.982   0.737   2.900  2.0730  2.2206  2.2434
 2738TIP3    H2 8158   4.857   0.800   2.957 -1.2125 -1.6895 -0.3650
 2739TIP3   OH2 8159   3.176   0.797   1.606 -0.3776 -0.0182  0.4174
 2739TIP3    H1 8160   3.202   0.715   1.563  0.7231  0.4314  0.1986
 2739TIP3    H2 8161   3.122   0.843   1.541  0.3258  0.1402 -0.0620
 2740TIP3   OH2 8162   7.999   7.611   1.005  0.1833  0.7562 -0.3786
 2740TIP3    H1 8163   8.016   7.702   0.979  1.6668  0.9566  1.2111
 2740TIP3    H2 8164   8.036   7.604   1.093 -1.9657 -0.7541  0.4404
 2741TIP3   OH2 8165   1.903   8.025   1.819  0.0547 -0.8344 -0.2429
 2741TIP3    H1 8166   1.870   7.941   1.786  0.1756 -0.4387 -1.3865
 2741TIP3    H2 8167   1.957   8.002   1.895 -0.3595 -1.7384 -0.2209
 2742TIP3   OH2 8168   4.843   3.839   6.365 -0.1682  0.0891  0.8498
 2742TIP3    H1 8169   4.905   3.901   6.325 -0.8656  0.0230 -0.3793
 2742TIP3    H2 8170   4.877   3.753   6.340 -0.7235  0.0526  0.1883
 2743TIP3   OH2 8171   3.498   0.404   3.379 -0.0138  0.1109 -0.2761
 2743TIP3    H1 8172   3.417   0.354   3.382  0.8057 -1.1627  1.3801
 2743TIP3    H2 8173   3.528   0.408   3.470 -0.2114  3.9216 -0.3017
 2744TIP3   OH2 8174   4.254   3.140   1.566  0.6212  0.1779  0.0276
 2744TIP3    H1 8175   4.339   3.180   1.585  0.2525  0.6226  0.7876
 2744TIP3    H2 8176   4.274   3.067   1.508  1.3737  1.0788 -0.8526
 2745TIP3   OH2 8177   4.247   1.632   3.368 -0.8346 -0.8832  0.7180
 2745TIP3    H1 8178   4.233   1.616   3.275  0.6006  0.0400  0.3364
 2745TIP3    H2 8179   4.177   1.692   3.393 -0.7281 -0.4828  0.0469
 2746TIP3   OH2 8180   0.820   0.975   2.176  0.5628 -0.4027  0.8257
 2746TIP3    H1 8181   0.869   0.958   2.257  1.2261 -0.0344  0.5063
 2746TIP3    H2 8182   0.742   1.022   2.205  0.3347 -1.0831  1.3529
 2747TIP3   OH2 8183   5.828   1.989   3.015 -0.4735 -0.2149  0.1942
 2747TIP3    H1 8184   5.815   1.897   2.991  0.3952 -0.3133  0.0935
 2747TIP3    H2 8185   5.881   1.986   3.094  1.3379  0.2373 -0.9758
 2748TIP3   OH2 8186   5.184   0.584   4.427  0.0327 -0.0405  0.4185
 2748TIP3    H1 8187   5.148   0.514   4.482 -0.2724 -0.4249 -0.2531
 2748TIP3    H2 8188   5.119   0.653   4.430 -0.0258 -0.0981  0.4699
 2749TIP3   OH2 8189   4.372   1.759   0.828 -0.4984  0.0116  0.0767
 2749TIP3    H1 8190   4.408   1.847   0.826 -0.0626 -0.1980 -1.9495
 2749TIP3    H2 8191   4.281   1.771   0.855 -0.3782  1.0554  0.0296
 2750TIP3   OH2 8192   5.162   2.953   4.043  0.1864  0.0573  0.0591
 2750TIP3    H1 8193   5.125   3.041   4.048 -1.1554 -0.3685 -1.8291
 2750TIP3    H2 8194   5.242   2.963   3.992  0.1036  0.2090 -0.0419
 2751TIP3   OH2 8195   4.192   1.023   2.601 -0.0949  0.0901  0.4117
 2751TIP3    H1 8196   4.145   0.940   2.594 -0.5102  0.2544  1.2167
 2751TIP3    H2 8197   4.266   1.014   2.541 -1.1818 -0.1413 -0.9264
 2752TIP3   OH2 8198   5.281   0.300   2.941  0.0659 -0.1358 -0.6633
 2752TIP3    H1 8199   5.219   0.233   2.968  0.9018 -0.4189  0.6363
 2752TIP3    H2 8200   5.308   0.275   2.853  0.3526 -1.5120 -0.1933
 2753TIP3   OH2 8201   4.536   1.502   4.266  0.4583 -0.1002  0.1396
 2753TIP3    H1 8202   4.598   1.444   4.309  1.8134  0.5002 -0.9706
 2753TIP3    H2 8203   4.473   1.443   4.224 -1.2210 -0.6949  3.3136
 2754TIP3   OH2 8204   4.830   0.075   4.490 -0.2810 -0.1015 -0.4512
 2754TIP3    H1 8205   4.791  -0.013   4.487 -0.5871 -0.0089  0.6106
 2754TIP3    H2 8206   4.916   0.062   4.530 -0.7377  0.2074  0.6754
 2755TIP3   OH2 8207   3.002   2.157   2.200  0.2927 -0.1924 -0.0643
 2755TIP3    H1 8208   3.044   2.222   2.256  1.5393 -0.5409 -0.5810
 2755TIP3    H2 8209   2.969   2.207   2.125 -1.9847  0.3780  1.2878
 2756TIP3   OH2 8210   1.182   7.989   3.552  0.5810 -0.4173  0.4501
 2756TIP3    H1 8211   1.096   8.004   3.514 -0.6677 -1.1635  2.8699
 2756TIP3    H2 8212   1.200   7.896   3.535  0.8663 -0.2947  0.0643
 2757TIP3   OH2 8213   5.796   3.231   2.926  0.3240 -0.2982 -0.2443
 2757TIP3    H1 8214   5.873   3.213   2.978  1.2669  0.6645 -1.2803
 2757TIP3    H2 8215   5.830   3.250   2.838 -1.0232  0.8041 -0.5475
 2758TIP3   OH2 8216   4.982   1.349   3.056 -0.1360  0.3279  0.0235
 2758TIP3    H1 8217   5.064   1.312   3.088 -0.5789 -0.0690  0.6983
 2758TIP3    H2 8218   4.965   1.423   3.114 -1.2686 -0.7739  1.1183
 2759TIP3   OH2 8219   4.076   0.386   4.253  0.1950  0.1511  0.0576
 2759TIP3    H1 8220   4.098   0.352   4.340 -1.2032  3.4862  1.8254
 2759TIP3    H2 8221   4.151   0.441   4.229  1.7875 -2.8251 -2.1245
 2760TIP3   OH2 8222   1.702   0.893   1.795  0.3844  0.7268 -0.5090
 2760TIP3    H1 8223   1.730   0.803   1.776 -0.3385  0.0663  1.4251
 2760TIP3    H2 8224   1.782   0.945   1.787  1.2383 -0.4170  0.3961
 2761TIP3   OH2 8225   2.031   1.815   2.603  0.2715 -0.5814 -0.1788
 2761TIP3    H1 8226   1.996   1.730   2.631 -2.2737 -0.2554 -2.1860
 2761TIP3    H2 8227   2.067   1.798   2.516  0.4583  0.2353 -0.2559
 2762TIP3   OH2 8228   3.951   1.092   3.978  0.3468  0.1594  0.5531
 2762TIP3    H1 8229   3.885   1.033   3.942 -0.2587 -0.1181  2.0926
 2762TIP3    H2 8230   3.989   1.045   4.051  2.0487  0.4507 -0.1109
 2763TIP3   OH2 8231   4.397   1.619   4.525  0.0215 -0.0932  0.0853
 2763TIP3    H1 8232   4.405   1.612   4.620 -0.1189  1.1639  0.1932
 2763TIP3    H2 8233   4.470   1.568   4.491  1.4389  1.3682  0.9028
 2764TIP3   OH2 8234   4.709   2.128   0.370  0.1099 -0.0431  0.0288
 2764TIP3    H1 8235   4.685   2.203   0.316  0.2033  0.1781  0.2932
 2764TIP3    H2 8236   4.719   2.164   0.458 -2.0141 -0.7455  0.5921
 2765TIP3   OH2 8237   3.617   4.301   3.414 -0.0432 -0.1843 -0.4425
 2765TIP3    H1 8238   3.627   4.344   3.329 -1.0000  0.2788 -0.3329
 2765TIP3    H2 8239   3.569   4.220   3.394  0.0126 -0.2343 -0.3797
 2766TIP3   OH2 8240   5.905   2.424   2.664 -0.4810  0.6094  0.0399
 2766TIP3    H1 8241   5.905   2.510   2.622  0.5705  0.7690  0.3513
 2766TIP3    H2 8242   5.989   2.386   2.640 -1.7793 -1.1672 -1.7644
 2767TIP3   OH2 8243   1.372   7.635   2.791 -0.2066 -0.0665 -0.0422
 2767TIP3    H1 8244   1.336   7.703   2.734  0.0494 -0.5709 -0.8077
 2767TIP3    H2 8245   1.384   7.679   2.876 -1.0629  0.5473 -0.2278
 2768TIP3   OH2 8246   2.597   0.660   6.721 -0.2632 -0.2832 -0.5543
 2768TIP3    H1 8247   2.563   0.653   6.632 -0.4085  1.5625 -0.6614
 2768TIP3    H2 8248   2.654   0.736   6.718  0.9134 -1.1043  0.5743
 2769TIP3   OH2 8249   5.571   2.441   2.596  0.4832 -0.2917  0.4672
 2769TIP3    H1 8250   5.607   2.359   2.562  0.8869 -0.2962  0.9111
 2769TIP3    H2 8251   5.647   2.491   2.623  0.3959  1.0380 -1.5969
 2770TIP3   OH2 8252   2.628   0.433   3.097 -0.4988 -0.6523 -0.2459
 2770TIP3    H1 8253   2.579   0.352   3.103  0.1151 -0.9764  0.5827
 2770TIP3    H2 8254   2.657   0.438   3.006 -0.1556 -1.5987 -0.1948
 2771TIP3   OH2 8255   4.007   3.176   2.759 -0.2730 -0.0743 -0.4716
 2771TIP3    H1 8256   4.083   3.135   2.718  1.1390  0.6652  1.3029
 2771TIP3    H2 8257   4.045   3.233   2.826 -2.3590  1.2380 -0.3848
 2772TIP3   OH2 8258   7.599   7.832   2.353 -0.4654 -0.0517  1.0160
 2772TIP3    H1 8259   7.607   7.756   2.411  1.4916  0.7967  1.8978
 2772TIP3    H2 8260   7.594   7.907   2.412 -1.5714  0.5796  0.1367
 2773TIP3   OH2 8261   0.362   7.968   2.019 -0.2763  0.0248 -1.0013
 2773TIP3    H1 8262   0.434   8.000   1.965 -1.1110  1.0872 -1.4935
 2773TIP3    H2 8263   0.357   7.874   1.999  1.1501 -0.1134 -0.7371
 2774TIP3   OH2 8264   1.573   7.628   0.954 -0.4304  0.0178 -0.4776
 2774TIP3    H1 8265   1.491   7.631   1.004  0.3767  1.0223  0.8045
 2774TIP3    H2 8266   1.610   7.542   0.975  0.2670  0.7194  1.2725
 2775TIP3   OH2 8267   3.691   3.305   3.202 -0.0074  0.0600 -0.2167
 2775TIP3    H1 8268   3.638   3.377   3.235  2.1866  1.9037 -0.6159
 2775TIP3    H2 8269   3.667   3.299   3.109 -0.3713  0.0757 -0.1271
 2776TIP3   OH2 8270   3.246   2.298   1.861  0.0774 -0.2121  0.2742
 2776TIP3    H1 8271   3.336   2.308   1.890  0.3879 -2.0415 -0.0116
 2776TIP3    H2 8272   3.236   2.205   1.843 -1.2910  0.2580 -1.6041
 2777TIP3   OH2 8273   4.754   2.819   4.018  0.4380  0.3082 -0.3345
 2777TIP3    H1 8274   4.831   2.761   4.018 -0.4128 -0.9166  2.1316
 2777TIP3    H2 8275   4.729   2.825   3.926  3.0887  0.2194 -1.1257
 2778TIP3   OH2 8276   3.918   2.992   2.360 -0.6084 -0.4360  0.1462
 2778TIP3    H1 8277   3.943   2.905   2.392 -0.6948 -0.1519  0.9869
 2778TIP3    H2 8278   3.901   2.978   2.266 -2.8315 -1.8111  0.7098
 2779TIP3   OH2 8279   4.436   2.314   1.862 -0.5922  0.1118 -0.5330
 2779TIP3    H1 8280   4.467   2.269   1.783  1.8072  1.1279 -0.2050
 2779TIP3    H2 8281   4.418   2.244   1.924 -0.4831 -0.5969 -1.2958
 2780TIP3   OH2 8282   2.263   7.624   3.294  0.5167 -0.4116 -0.7756
 2780TIP3    H1 8283   2.285   7.713   3.268 -0.1811 -0.2371 -0.7691
 2780TIP3    H2 8284   2.342   7.593   3.340  0.4875  0.4682 -0.1064
 2781TIP3   OH2 8285   3.332   2.868   0.534 -0.0444  0.5543  0.1712
 2781TIP3    H1 8286   3.400   2.827   0.479  0.5183 -4.1376  4.0559
 2781TIP3    H2 8287   3.253   2.817   0.516 -0.9261  1.7122  0.6820
 2782TIP3   OH2 8288   2.764   2.635   2.880  0.1171  0.0601  0.5470
 2782TIP3    H1 8289   2.732   2.546   2.891 -2.9219  1.0338  0.0916
 2782TIP3    H2 8290   2.831   2.645   2.948 -0.6559 -2.0270  1.6618
 2783TIP3   OH2 8291   1.468   7.763   2.998  0.7277 -0.4702 -0.2479
 2783TIP3    H1 8292   1.502   7.694   3.057 -0.0406  1.9890  3.2520
 2783TIP3    H2 8293   1.542   7.823   2.987  0.0846  0.4342  0.3516
 2784TIP3   OH2 8294   4.630   1.165   1.319  0.2074  0.1131  0.1759
 2784TIP3    H1 8295   4.594   1.243   1.360 -2.2668 -0.6742 -0.3941
 2784TIP3    H2 8296   4.632   1.100   1.389  1.0837  0.3343  0.3527
 2785TIP3   OH2 8297   1.924   2.014   2.295  0.0902  0.2209  0.6812
 2785TIP3    H1 8298   1.871   1.938   2.321 -0.8328  1.2724  1.9031
 2785TIP3    H2 8299   1.861   2.075   2.257  1.1368 -0.4594 -2.3094
 2786TIP3   OH2 8300   5.999   1.233   4.393  0.4709 -0.1737  0.0607
 2786TIP3    H1 8301   6.089   1.213   4.367  0.4230  1.1310 -1.1734
 2786TIP3    H2 8302   5.964   1.283   4.320 -0.8086  0.5453  1.1574
 2787TIP3   OH2 8303   6.032   0.694   3.838  0.5509 -0.3024  0.0078
 2787TIP3    H1 8304   5.961   0.643   3.877  0.8122  1.3878  2.8915
 2787TIP3    H2 8305   6.111   0.643   3.857  0.5778  0.0664  0.9052
 2788TIP3   OH2 8306   7.815   7.944   3.185 -0.2240 -0.0375 -0.3434
 2788TIP3    H1 8307   7.858   7.960   3.269 -0.7308  0.7912 -0.2427
 2788TIP3    H2 8308   7.791   7.851   3.188 -1.4100  0.2944  0.9782
 2789TIP3   OH2 8309   3.496   3.040   3.484 -0.1310 -0.3912  0.5720
 2789TIP3    H1 8310   3.589   3.016   3.488 -0.2807 -0.7710  1.8481
 2789TIP3    H2 8311   3.459   3.008   3.566 -1.0776  1.1247  0.7548
 2790TIP3   OH2 8312   7.961   7.628   1.609 -0.4949 -0.1077  0.0689
 2790TIP3    H1 8313   7.938   7.537   1.591 -0.5928 -0.1195  0.2560
 2790TIP3    H2 8314   7.899   7.656   1.676 -0.2312 -0.0130  0.2755
 2791TIP3   OH2 8315   6.981   0.626   2.692  0.4375 -0.1330 -0.8022
 2791TIP3    H1 8316   6.915   0.565   2.725 -1.0299  1.2752 -1.0717
 2791TIP3    H2 8317   7.037   0.573   2.636  1.2132 -1.9390  1.6109
 2792TIP3   OH2 8318   5.275   2.416   2.164 -0.1346 -0.1616 -0.0959
 2792TIP3    H1 8319   5.286   2.326   2.132  0.6452  0.5150 -1.7558
 2792TIP3    H2 8320   5.333   2.422   2.240 -0.3887 -1.1343  0.1818
 2793TIP3   OH2 8321   1.787   7.647   3.385  0.0198  0.0699 -0.0020
 2793TIP3    H1 8322   1.871   7.646   3.431 -0.7795 -1.9593  1.4924
 2793TIP3    H2 8323   1.758   7.739   3.388  1.5879  0.5510  0.5458
 2794TIP3   OH2 8324   2.540   1.734   2.029  0.4022 -0.4580 -0.2215
 2794TIP3    H1 8325   2.557   1.723   1.935 -1.0937 -0.9028 -0.4479
 2794TIP3    H2 8326   2.474   1.668   2.050 -2.0569  2.0651  0.3136
 2795TIP3   OH2 8327   4.700   1.992   2.995 -0.7314  0.2248  0.1759
 2795TIP3    H1 8328   4.689   1.906   3.036  0.4952  0.3897  0.8657
 2795TIP3    H2 8329   4.733   1.972   2.907 -0.1470 -0.0073  0.4449
 2796TIP3   OH2 8330   3.164   0.913   2.189  0.0345  0.1554 -0.2140
 2796TIP3    H1 8331   3.121   0.958   2.117  0.4786  1.4238  0.3109
 2796TIP3    H2 8332   3.173   0.823   2.159 -1.0834  0.3512 -1.1662
 2797TIP3   OH2 8333   4.111   5.599   4.339 -0.3629 -0.5063 -0.1013
 2797TIP3    H1 8334   4.108   5.533   4.270 -0.5844 -1.0869  0.4539
 2797TIP3    H2 8335   4.063   5.674   4.303  1.6571  0.1314 -1.5205
 2798TIP3   OH2 8336   3.924   4.537   2.403 -0.6180  0.2903  0.1540
 2798TIP3    H1 8337   3.978   4.579   2.469  0.0366  0.2731 -0.3612
 2798TIP3    H2 8338   3.841   4.517   2.447  0.3824 -1.1834  1.4067
 2799TIP3   OH2 8339   4.180   2.954   2.717 -0.3248  0.0691 -0.6722
 2799TIP3    H1 8340   4.232   2.882   2.754 -1.2610 -0.6605 -0.7516
 2799TIP3    H2 8341   4.232   2.985   2.643 -0.0204 -0.6983 -0.7924
 2800TIP3   OH2 8342   4.233   4.362   0.737 -0.3631 -0.0819  0.9035
 2800TIP3    H1 8343   4.162   4.342   0.676 -1.4014 -0.8604  2.3402
 2800TIP3    H2 8344   4.201   4.437   0.787 -0.6313 -1.0910  2.2708
 2801TIP3   OH2 8345   3.360   1.217   4.838  0.3475 -0.2287 -0.0199
 2801TIP3    H1 8346   3.271   1.200   4.867  0.0892 -0.4278 -0.9270
 2801TIP3    H2 8347   3.408   1.236   4.919 -0.1501 -1.7020  0.6451
 2802TIP3   OH2 8348   2.694   4.431   2.760  0.3133  0.2518 -0.1755
 2802TIP3    H1 8349   2.753   4.356   2.755 -1.4107 -1.0998 -0.7200
 2802TIP3    H2 8350   2.721   4.487   2.687  0.7056 -0.5140 -0.6305
 2803TIP3   OH2 8351   4.685   3.214   3.714  0.0679  0.2723 -0.0174
 2803TIP3    H1 8352   4.600   3.176   3.736 -1.0750  2.2252 -0.9092
 2803TIP3    H2 8353   4.695   3.286   3.777  1.3902 -0.3646  0.5206
 2804TIP3   OH2 8354   8.351   2.589   3.676  0.0131  0.1319 -0.0075
 2804TIP3    H1 8355   8.396   2.672   3.663 -0.2784  0.6070  1.8874
 2804TIP3    H2 8356   8.299   2.602   3.755 -0.4958 -1.6577 -0.0319
 2805TIP3   OH2 8357   6.184   0.273   4.528  0.2591 -0.8712 -0.6826
 2805TIP3    H1 8358   6.161   0.361   4.557 -1.8996 -1.5748 -0.1905
 2805TIP3    H2 8359   6.266   0.253   4.574  0.2722  0.5170 -0.0921
 2806TIP3   OH2 8360   2.575   7.391   3.171  0.0850 -0.0245 -0.1542
 2806TIP3    H1 8361   2.497   7.401   3.116 -0.4485  0.7753  0.7395
 2806TIP3    H2 8362   2.577   7.470   3.224 -0.6248 -1.7514  2.5471
 2807TIP3   OH2 8363   5.525   3.175   4.626 -0.3008  0.2682  0.2916
 2807TIP3    H1 8364   5.524   3.097   4.570 -0.9736  1.2087 -1.0319
 2807TIP3    H2 8365   5.618   3.190   4.644 -0.1803 -1.0300  0.8560
 2808TIP3   OH2 8366   3.797   1.754   4.607  0.4064 -0.2051 -0.1351
 2808TIP3    H1 8367   3.871   1.808   4.578  0.4997 -0.4829 -0.4194
 2808TIP3    H2 8368   3.725   1.777   4.548 -0.4910  1.9364  1.7442
 2809TIP3   OH2 8369   4.541   3.882   3.117  0.4746  0.6009 -0.1749
 2809TIP3    H1 8370   4.457   3.849   3.149  1.7887 -1.4264  1.2648
 2809TIP3    H2 8371   4.534   3.977   3.127 -2.1520  0.5896 -1.4107
 2810TIP3   OH2 8372   3.549   4.326   3.672 -0.4923 -0.4886  0.3979
 2810TIP3    H1 8373   3.575   4.242   3.708 -0.5878 -0.8159 -0.2809
 2810TIP3    H2 8374   3.560   4.316   3.577  0.3255  0.5468  0.3713
 2811TIP3   OH2 8375   2.946   2.422   3.139  0.4547 -0.2181  0.4104
 2811TIP3    H1 8376   2.909   2.345   3.095  0.5819 -0.4326  0.6782
 2811TIP3    H2 8377   3.040   2.416   3.123  0.2025  1.4345 -2.0382
 2812TIP3   OH2 8378   4.014   1.290   2.428  0.1987  0.4272 -0.0595
 2812TIP3    H1 8379   3.971   1.265   2.346  1.5105 -2.5531  0.0945
 2812TIP3    H2 8380   4.079   1.355   2.402  1.0713 -0.9869 -1.5144
 2813TIP3   OH2 8381   5.458   1.011   3.789  0.7748  0.4556 -0.4535
 2813TIP3    H1 8382   5.421   1.067   3.857 -1.4366 -0.3237 -0.9734
 2813TIP3    H2 8383   5.469   0.926   3.831  1.6121  0.5752 -0.4211
 2814TIP3   OH2 8384   2.022   1.575   1.982  0.8337 -0.3032  0.1895
 2814TIP3    H1 8385   2.053   1.633   2.052  1.2093 -0.4510  0.1469
 2814TIP3    H2 8386   2.067   1.493   1.998 -1.5991 -1.4088  1.7535
 2815TIP3   OH2 8387   3.848   0.993   1.903 -0.4570  0.7146  0.2443
 2815TIP3    H1 8388   3.766   0.956   1.937  0.0686  0.7338  1.5598
 2815TIP3    H2 8389   3.829   1.014   1.811 -2.2169  1.6018  0.7924
 2816TIP3   OH2 8390   5.187   2.971   2.637  0.0139  0.0529  0.7101
 2816TIP3    H1 8391   5.195   2.880   2.610  2.4027  0.5881 -0.4968
 2816TIP3    H2 8392   5.210   2.971   2.730 -2.1071 -0.8653  1.2585
 2817TIP3   OH2 8393   5.823   0.281   1.601  0.1702 -0.0294 -0.0655
 2817TIP3    H1 8394   5.863   0.229   1.531 -0.7144 -3.1409  1.6574
 2817TIP3    H2 8395   5.739   0.309   1.565  1.2159  1.3853 -1.4815
 2818TIP3   OH2 8396   2.106   7.921   4.023  0.1674  0.4293  1.1096
 2818TIP3    H1 8397   2.073   7.873   3.947  0.9877 -0.2647  1.1931
 2818TIP3    H2 8398   2.107   7.857   4.094  1.6304  0.4539  1.1278
 2819TIP3   OH2 8399   3.501   1.739   4.717 -0.0194  0.3671  0.1507
 2819TIP3    H1 8400   3.462   1.780   4.640  0.0424  0.0320 -0.0579
 2819TIP3    H2 8401   3.595   1.754   4.708  0.0545 -0.3201 -0.2161
 2820TIP3   OH2 8402   3.271   2.856   3.456  0.0490  0.9266  0.5954
 2820TIP3    H1 8403   3.296   2.824   3.370  0.5550 -0.0878  1.1153
 2820TIP3    H2 8404   3.353   2.865   3.504 -0.2579  1.1517  1.0924
 2821TIP3   OH2 8405   3.489   1.741   3.343 -0.4999  0.0472 -0.0191
 2821TIP3    H1 8406   3.424   1.803   3.309  1.7194  1.5331 -1.7143
 2821TIP3    H2 8407   3.573   1.776   3.312  1.0314 -2.2836  1.4099
 2822TIP3   OH2 8408   6.223   3.748   3.632 -0.0774  0.1077  0.4944
 2822TIP3    H1 8409   6.176   3.722   3.711 -0.6505 -2.2673 -0.5831
 2822TIP3    H2 8410   6.314   3.755   3.660 -0.2653 -0.7690  1.3703
 2823TIP3   OH2 8411   5.048   1.651   2.016  0.1680 -0.3301  0.2643
 2823TIP3    H1 8412   4.999   1.595   1.955  0.0578  0.2989 -0.2355
 2823TIP3    H2 8413   5.086   1.591   2.079 -0.4505 -0.9151  0.0832
 2824TIP3   OH2 8414   2.945   0.760   3.684 -0.7272 -0.0305  0.0612
 2824TIP3    H1 8415   2.949   0.686   3.622  2.5021  1.8096 -2.0965
 2824TIP3    H2 8416   2.890   0.825   3.640  1.7740  1.3794 -1.1376
 2825TIP3   OH2 8417   3.695   0.340   4.464 -0.0742 -0.6624  0.2752
 2825TIP3    H1 8418   3.718   0.362   4.374 -1.8082  1.1087  0.2323
 2825TIP3    H2 8419   3.774   0.299   4.500  0.9640 -0.4598 -1.7316
 2826TIP3   OH2 8420   2.853   2.066   4.639  0.3267 -0.3059 -0.1663
 2826TIP3    H1 8421   2.907   1.992   4.612 -1.3104 -2.4500  2.1672
 2826TIP3    H2 8422   2.888   2.141   4.590  4.0574 -1.9761 -0.2054
 2827TIP3   OH2 8423   5.271   3.097   3.447 -0.6629  0.9288 -0.1894
 2827TIP3    H1 8424   5.279   3.030   3.379 -2.2025  1.3081 -0.7426
 2827TIP3    H2 8425   5.225   3.169   3.405 -0.3522  1.7377  0.8486
 2828TIP3   OH2 8426   5.778   2.534   0.703  0.5126  0.0008  0.1402
 2828TIP3    H1 8427   5.840   2.473   0.743  0.8936  0.7276  0.6604
 2828TIP3    H2 8428   5.832   2.591   0.648  0.3766  0.9303  0.9553
 2829TIP3   OH2 8429   3.431   1.988   2.858 -0.3480  0.6950  0.5270
 2829TIP3    H1 8430   3.347   2.028   2.880  0.0412  1.0695  1.3280
 2829TIP3    H2 8431   3.417   1.895   2.871 -0.9266  0.6567 -0.2844
 2830TIP3   OH2 8432   2.640   3.926   1.950  0.0688 -0.1000 -0.3187
 2830TIP3    H1 8433   2.639   4.001   2.009  1.0623  1.0914 -1.7763
 2830TIP3    H2 8434   2.590   3.859   1.996  1.2355  0.6158  2.1016
 2831TIP3   OH2 8435   3.782   2.617   1.963  0.0456 -0.3505  0.5811
 2831TIP3    H1 8436   3.711   2.639   1.903  1.4760 -0.7547 -1.3264
 2831TIP3    H2 8437   3.753   2.648   2.048 -1.8272  0.6986 -0.4163
 2832TIP3   OH2 8438   3.700   2.801   3.439 -0.4660  0.2671 -0.1990
 2832TIP3    H1 8439   3.729   2.734   3.501  1.5653  2.5062  1.3811
 2832TIP3    H2 8440   3.651   2.752   3.373  1.8386 -2.9414  0.2947
 2833TIP3   OH2 8441   6.157   1.981   3.483  0.5146 -0.3308 -0.2011
 2833TIP3    H1 8442   6.245   2.018   3.476 -0.2616  1.4883 -0.6820
 2833TIP3    H2 8443   6.157   1.934   3.567  0.2751  4.4100  2.6524
 2834TIP3   OH2 8444   4.913   1.028   2.713 -0.5439  0.0321 -0.3237
 2834TIP3    H1 8445   4.922   0.950   2.767  0.0597  0.7076  0.5604
 2834TIP3    H2 8446   4.985   1.085   2.740 -0.4275  0.5141 -1.6137
 2835TIP3   OH2 8447   4.485   3.415   2.440 -0.4994  0.5887  0.0472
 2835TIP3    H1 8448   4.507   3.326   2.412  1.3001  0.9045  0.4013
 2835TIP3    H2 8449   4.456   3.405   2.531  1.3188  0.5596  0.6405
 2836TIP3   OH2 8450   4.550   3.645   3.449 -0.4631  0.2010 -0.4570
 2836TIP3    H1 8451   4.630   3.614   3.491 -1.5530 -0.0142  1.4818
 2836TIP3    H2 8452   4.557   3.741   3.452 -0.4360  0.1828 -0.0386
 2837TIP3   OH2 8453   6.285   1.586   3.537  0.2952 -0.0255  0.1234
 2837TIP3    H1 8454   6.288   1.515   3.473  0.2322 -1.0419  1.2293
 2837TIP3    H2 8455   6.366   1.575   3.587 -0.6755 -0.5683  1.6052
 2838TIP3   OH2 8456   7.518   0.653   0.799  0.0635  0.2727 -0.1145
 2838TIP3    H1 8457   7.429   0.618   0.805 -0.1781  0.6331 -1.3460
 2838TIP3    H2 8458   7.558   0.606   0.726  1.7002 -1.5720  1.9147
 2839TIP3   OH2 8459   3.512   2.406   3.120 -0.3834 -0.3586 -0.3897
 2839TIP3    H1 8460   3.521   2.481   3.179  0.1150 -0.7531  0.0366
 2839TIP3    H2 8461   3.601   2.387   3.093 -0.5481 -0.5880 -0.7655
 2840TIP3   OH2 8462   5.485   2.825   3.637 -0.3820  0.3006 -0.3592
 2840TIP3    H1 8463   5.536   2.796   3.713  0.5637  2.0771 -0.2739
 2840TIP3    H2 8464   5.441   2.746   3.606  1.6858 -1.1124  0.1461
 2841TIP3   OH2 8465   3.230   0.780   2.724  0.1319  0.9244 -0.1444
 2841TIP3    H1 8466   3.261   0.704   2.674  2.5807  0.5388  1.8754
 2841TIP3    H2 8467   3.143   0.754   2.755  0.3723 -0.5141 -0.6174
 2842TIP3   OH2 8468   4.956   1.187   4.319  0.0855  0.2595  0.3507
 2842TIP3    H1 8469   4.916   1.274   4.327  0.2651  0.4267 -0.5802
 2842TIP3    H2 8470   4.983   1.181   4.228  1.9406  0.0294  0.9007
 2843TIP3   OH2 8471   7.479   0.537   3.188  0.1353  0.4939  0.1384
 2843TIP3    H1 8472   7.391   0.555   3.157 -0.4961 -1.2980  0.8534
 2843TIP3    H2 8473   7.492   0.599   3.260 -2.1527 -2.0387  2.8211
 2844TIP3   OH2 8474   4.670   0.941   0.767 -0.1747  0.1903  0.4474
 2844TIP3    H1 8475   4.743   0.881   0.751  0.5156  1.4119 -1.0205
 2844TIP3    H2 8476   4.601   0.911   0.708 -0.1667  0.2635  0.4013
 2845TIP3   OH2 8477   0.991   7.737   2.050  0.1894 -0.3122 -0.0063
 2845TIP3    H1 8478   1.019   7.731   1.958 -2.1418  0.3733 -0.7892
 2845TIP3    H2 8479   1.069   7.768   2.097  1.8365 -2.0404 -1.5043
 2846TIP3   OH2 8480   4.881   1.956   0.885 -0.4105 -0.1499 -0.3411
 2846TIP3    H1 8481   4.821   1.882   0.872 -1.8807  0.7422  1.1593
 2846TIP3    H2 8482   4.935   1.957   0.806 -2.5301 -0.8448 -1.8472
 2847TIP3   OH2 8483   4.484   3.381   1.139  0.2972 -0.2823  0.1939
 2847TIP3    H1 8484   4.561   3.352   1.187 -1.3849 -0.7177  2.7158
 2847TIP3    H2 8485   4.410   3.359   1.196 -1.5886  1.5409 -1.4585
 2848TIP3   OH2 8486   3.076   3.039   3.318 -0.2995 -0.1788  0.1276
 2848TIP3    H1 8487   3.143   2.977   3.347  0.1150 -1.3229 -3.0969
 2848TIP3    H2 8488   3.113   3.125   3.336  1.2274 -0.8324  0.1419
 2849TIP3   OH2 8489   7.015   0.111   3.968 -0.4340 -0.1340  0.0543
 2849TIP3    H1 8490   6.993   0.052   4.040  0.4687 -2.0660 -1.2186
 2849TIP3    H2 8491   7.100   0.148   3.992 -0.2579 -0.5655  0.0862
 2850TIP3   OH2 8492   2.748   2.173   2.001  0.6103 -0.3954 -0.5145
 2850TIP3    H1 8493   2.721   2.164   1.909 -0.1147  1.2903 -0.4754
 2850TIP3    H2 8494   2.825   2.230   1.998  0.4106 -0.0986 -0.0558
 2851TIP3   OH2 8495   6.180   0.336   3.836 -0.8237  0.1760 -0.4515
 2851TIP3    H1 8496   6.091   0.302   3.850 -0.1092 -1.1402  1.1248
 2851TIP3    H2 8497   6.209   0.293   3.755 -0.7394 -1.3447  0.3556
 2852TIP3   OH2 8498   3.073   1.562   5.640 -0.0624  0.6426  0.1549
 2852TIP3    H1 8499   3.083   1.632   5.705  1.0449  0.1904  0.4767
 2852TIP3    H2 8500   3.040   1.607   5.562  1.4379  1.6770  0.0887
 2853TIP3   OH2 8501   4.528   0.647   2.513 -0.3108  0.1944  0.3506
 2853TIP3    H1 8502   4.580   0.575   2.547  0.2547  0.2322 -0.4035
 2853TIP3    H2 8503   4.571   0.726   2.547 -0.3507  0.2021  0.3826
 2854TIP3   OH2 8504   3.570   1.888   2.434  0.0583 -0.0359  0.1042
 2854TIP3    H1 8505   3.612   1.807   2.462  0.6535  0.1172 -0.3225
 2854TIP3    H2 8506   3.526   1.922   2.512  0.3031 -0.4649  0.4264
 2855TIP3   OH2 8507   0.997   2.251   2.456  0.6766 -0.1751  0.2555
 2855TIP3    H1 8508   1.006   2.333   2.505 -2.5233  0.8235 -0.6827
 2855TIP3    H2 8509   1.061   2.192   2.496  0.7557  1.7641  3.1367
 2856TIP3   OH2 8510   4.803   1.118   3.838 -0.6861  0.0620  1.1030
 2856TIP3    H1 8511   4.736   1.117   3.906 -0.7039 -2.9645  1.1137
 2856TIP3    H2 8512   4.819   1.025   3.819  2.0171  0.7755 -0.3506
 2857TIP3   OH2 8513   3.395   1.049   4.390  0.2264  0.3613 -0.7382
 2857TIP3    H1 8514   3.472   1.033   4.335  0.4084  1.1090 -0.6990
 2857TIP3    H2 8515   3.424   1.112   4.456 -0.1944  0.0184 -0.2221
 2858TIP3   OH2 8516   5.063   2.262   2.821  0.1901  0.4586 -0.1865
 2858TIP3    H1 8517   5.116   2.333   2.857  0.3097 -0.5837  1.7454
 2858TIP3    H2 8518   5.020   2.223   2.897 -1.6602 -0.0959 -1.4739
 2859TIP3   OH2 8519   2.829   1.610   3.679 -0.3157  0.7199 -0.0617
 2859TIP3    H1 8520   2.893   1.582   3.744 -0.4803 -0.9477 -0.5854
 2859TIP3    H2 8521   2.872   1.597   3.595 -1.1735 -0.0746 -0.4012
 2860TIP3   OH2 8522   3.910   3.121   3.642 -0.2102  0.3587  0.3721
 2860TIP3    H1 8523   3.947   3.207   3.623  1.2656 -0.6206 -1.4985
 2860TIP3    H2 8524   3.849   3.105   3.570 -0.9627  0.0948  1.0591
 2861TIP3   OH2 8525   2.916   2.687   3.147  0.0838 -0.5692 -0.2892
 2861TIP3    H1 8526   3.007   2.715   3.158 -0.3047  0.6913 -0.2932
 2861TIP3    H2 8527   2.920   2.592   3.157  1.4285 -0.5471 -0.4509
 2862TIP3   OH2 8528   5.806   0.904   3.981 -0.0345 -0.0391 -0.0214
 2862TIP3    H1 8529   5.726   0.874   3.938 -0.0669 -1.9642  1.3399
 2862TIP3    H2 8530   5.867   0.831   3.972  1.0575  0.8043  0.3441
 2863TIP3   OH2 8531   2.523   2.403   3.280 -0.4692  0.0743 -0.4089
 2863TIP3    H1 8532   2.553   2.337   3.217  1.1837  0.0596  0.3574
 2863TIP3    H2 8533   2.561   2.485   3.247  0.6973  0.0115  0.7401
 2864TIP3   OH2 8534   2.586   2.647   3.127  0.8742 -0.1991 -0.0664
 2864TIP3    H1 8535   2.625   2.588   3.063  0.9647 -0.4223  0.1896
 2864TIP3    H2 8536   2.647   2.721   3.132 -0.7144  1.3409 -2.5505
 2865TIP3   OH2 8537   5.850   0.576   4.208 -0.0033  0.3904 -0.0186
 2865TIP3    H1 8538   5.897   0.493   4.201 -0.3368  0.0621  1.5067
 2865TIP3    H2 8539   5.913   0.642   4.181  0.9149 -0.1602  0.7620
 2866TIP3   OH2 8540   2.945   3.618   3.691  0.7544  0.3485 -0.2285
 2866TIP3    H1 8541   2.966   3.640   3.782  2.5794  0.0137 -0.5413
 2866TIP3    H2 8542   2.895   3.537   3.696  1.6843 -0.1947  0.4386
 2867TIP3   OH2 8543   2.499   3.484   2.211  0.2841  1.0584 -0.0017
 2867TIP3    H1 8544   2.527   3.575   2.195  2.2985  0.1214 -2.0142
 2867TIP3    H2 8545   2.497   3.476   2.306  0.8270  2.9939  0.1912
 2868TIP3   OH2 8546   1.793   2.303   3.988  0.0494 -0.8314 -0.0763
 2868TIP3    H1 8547   1.736   2.368   3.948 -0.5797 -1.0922  0.3961
 2868TIP3    H2 8548   1.877   2.348   3.998 -0.4202 -0.0508  0.3707
 2869TIP3   OH2 8549   2.922   2.229   4.217  0.3592 -0.0775  0.8472
 2869TIP3    H1 8550   2.981   2.251   4.145 -0.9224  0.9465  0.0859
 2869TIP3    H2 8551   2.901   2.137   4.205  1.1876 -0.2503  0.6896
 2870TIP3   OH2 8552   4.537   1.128   3.913  0.4213  0.2884 -0.2515
 2870TIP3    H1 8553   4.589   1.182   3.972  1.8953 -0.4114 -0.8831
 2870TIP3    H2 8554   4.575   1.143   3.827 -1.4890  1.0247 -0.9928
 2871TIP3   OH2 8555   3.904   0.064   5.133 -0.1606 -0.2919 -0.0940
 2871TIP3    H1 8556   3.888   0.148   5.089 -2.0952 -0.8439 -0.4810
 2871TIP3    H2 8557   3.986   0.032   5.095 -0.3290  0.5815 -1.2081
 2872TIP3   OH2 8558   4.841   0.236   3.410 -0.1228  0.0595  0.3089
 2872TIP3    H1 8559   4.841   0.146   3.442 -1.7006 -0.5076 -1.1999
 2872TIP3    H2 8560   4.877   0.230   3.321  1.5031  1.1951  0.8685
 2873TIP3   OH2 8561   3.861   7.650   3.134  0.3204 -0.5608 -0.1051
 2873TIP3    H1 8562   3.823   7.735   3.156  1.0156 -0.5757  1.1946
 2873TIP3    H2 8563   3.946   7.671   3.096  0.2380 -0.6403 -0.3290
 2874TIP3   OH2 8564   2.391   1.611   2.577 -0.0670 -0.2791  0.4845
 2874TIP3    H1 8565   2.334   1.649   2.511  1.3865  0.1283 -0.5520
 2874TIP3    H2 8566   2.456   1.680   2.596  0.6150 -1.0439  0.9921
 2875TIP3   OH2 8567   3.034   0.725   1.837 -0.5240  0.8456  0.0855
 2875TIP3    H1 8568   2.963   0.665   1.814 -1.1642  1.4737  0.3812
 2875TIP3    H2 8569   3.062   0.762   1.753 -0.4586  0.5021 -0.0449
 2876TIP3   OH2 8570   5.500   1.613   2.976  0.2427  0.4072  0.3620
 2876TIP3    H1 8571   5.463   1.699   2.961  0.3629  0.1453 -1.5120
 2876TIP3    H2 8572   5.595   1.626   2.975  0.2598  0.3754  0.9338
 2877TIP3   OH2 8573   0.502   7.285   1.493 -0.4140 -0.1138  0.2392
 2877TIP3    H1 8574   0.478   7.363   1.544 -4.1159  0.8529 -2.7859
 2877TIP3    H2 8575   0.569   7.315   1.432 -0.8852  0.3847 -0.0347
 2878TIP3   OH2 8576   5.434   1.340   2.417 -0.2376 -0.1281 -0.5241
 2878TIP3    H1 8577   5.408   1.429   2.393  0.9855 -0.3216 -2.7751
 2878TIP3    H2 8578   5.367   1.283   2.379 -1.0759 -0.1805  1.0014
 2879TIP3   OH2 8579   3.331   1.724   2.965 -0.2275  0.1042  0.4553
 2879TIP3    H1 8580   3.370   1.780   3.031 -0.9235  1.6700 -0.4185
 2879TIP3    H2 8581   3.273   1.666   3.013 -1.2241  1.6621  1.1716
 2880TIP3   OH2 8582   3.166   2.069   3.089  0.0483  0.1127 -0.4970
 2880TIP3    H1 8583   3.167   2.163   3.103  0.2670  0.0673 -0.2081
 2880TIP3    H2 8584   3.123   2.058   3.004 -0.3445  0.4454 -0.3447
 2881TIP3   OH2 8585   3.908   0.949   2.812 -0.1904 -0.2305 -0.0167
 2881TIP3    H1 8586   3.962   0.875   2.783 -0.1831 -0.2585  0.0677
 2881TIP3    H2 8587   3.931   0.960   2.905  0.5914  0.5449 -0.2940
 2882TIP3   OH2 8588   4.772   3.226   0.743 -0.1782 -0.2355 -0.0720
 2882TIP3    H1 8589   4.836   3.196   0.808 -0.3356 -3.5589 -1.3118
 2882TIP3    H2 8590   4.698   3.259   0.795  0.5753 -0.8367  1.4217
 2883TIP3   OH2 8591   4.838   5.084   1.188  0.6161  0.1256  0.6209
 2883TIP3    H1 8592   4.841   5.127   1.102 -1.2732  0.8045  0.8555
 2883TIP3    H2 8593   4.893   5.139   1.244  1.2308  0.1193  0.0353
 2884TIP3   OH2 8594   1.424   1.770   3.152  0.0261  0.1270  0.1070
 2884TIP3    H1 8595   1.335   1.801   3.137  0.7343  1.3988 -1.5371
 2884TIP3    H2 8596   1.462   1.763   3.065  2.1390  1.3552  0.9061
 2885TIP3   OH2 8597   3.740   3.584   4.013  0.2082  0.2439 -0.4262
 2885TIP3    H1 8598   3.744   3.646   4.086 -0.0755  0.0557 -0.2476
 2885TIP3    H2 8599   3.766   3.500   4.052 -0.7552 -0.0231 -0.3491
 2886TIP3   OH2 8600   2.740   2.171   1.717 -0.7856  0.0090 -0.2155
 2886TIP3    H1 8601   2.680   2.097   1.709  1.4080 -1.9963  1.1972
 2886TIP3    H2 8602   2.821   2.140   1.678  0.7958  0.8893  2.2793
 2887TIP3   OH2 8603   5.160   3.306   3.335  0.1822 -0.2587 -0.1330
 2887TIP3    H1 8604   5.173   3.368   3.407 -1.1711 -0.0034 -0.0989
 2887TIP3    H2 8605   5.076   3.330   3.296 -0.2773 -1.9370 -0.2534
 2888TIP3   OH2 8606   3.733   0.952   3.874 -0.4709 -0.3171 -0.1266
 2888TIP3    H1 8607   3.699   1.038   3.902  0.7624  0.0824  0.2113
 2888TIP3    H2 8608   3.661   0.912   3.826 -1.3116  0.6215  0.3206
 2889TIP3   OH2 8609   6.868   4.269   0.416 -0.7625 -0.3598 -0.0347
 2889TIP3    H1 8610   6.913   4.352   0.432 -0.4647 -0.6356  0.5813
 2889TIP3    H2 8611   6.798   4.291   0.354 -1.6532  0.6527  1.2965
 2890TIP3   OH2 8612   5.342   4.533   3.064  0.3062 -0.3618 -0.5688
 2890TIP3    H1 8613   5.387   4.523   3.148 -0.5775  0.8703  0.0673
 2890TIP3    H2 8614   5.393   4.598   3.017  0.9297 -1.2138 -1.1010
 2891TIP3   OH2 8615   7.239   1.452   0.780  0.7897 -0.3023  0.0141
 2891TIP3    H1 8616   7.317   1.504   0.760  0.7465  0.2160  1.1426
 2891TIP3    H2 8617   7.168   1.494   0.732  0.8699  0.3310  0.4408
 2892TIP3   OH2 8618   5.840   3.533   1.702 -0.0670  0.2287  0.1432
 2892TIP3    H1 8619   5.788   3.575   1.634 -1.4590 -0.7136  0.5931
 2892TIP3    H2 8620   5.804   3.444   1.707  0.8083 -0.0675  1.3028
 2893TIP3   OH2 8621   5.255   0.921   1.641 -0.6697  0.7127 -0.3693
 2893TIP3    H1 8622   5.313   0.866   1.694  2.6911  0.9350 -3.5675
 2893TIP3    H2 8623   5.241   0.870   1.561 -3.1440  1.6417 -0.5510
 2894TIP3   OH2 8624   4.871   3.341   2.936 -0.0888 -0.2401 -0.4280
 2894TIP3    H1 8625   4.959   3.304   2.936 -0.3847 -0.9518  0.1835
 2894TIP3    H2 8626   4.849   3.348   2.843  0.3691 -0.6514 -0.5717
 2895TIP3   OH2 8627   0.080   7.888   2.041 -0.2057  0.2625 -0.3384
 2895TIP3    H1 8628   0.130   7.917   1.965  1.6072 -0.8546  0.3866
 2895TIP3    H2 8629   0.143   7.889   2.113 -1.1225 -1.4990  0.5382
 2896TIP3   OH2 8630   5.258   1.830   2.411 -0.4912  0.2149 -0.1391
 2896TIP3    H1 8631   5.193   1.800   2.348  0.4301 -0.1749 -0.9291
 2896TIP3    H2 8632   5.282   1.918   2.382 -1.0934  0.5865  0.4913
 2897TIP3   OH2 8633   8.261   1.684   1.615  0.6386  0.3299  0.5153
 2897TIP3    H1 8634   8.340   1.629   1.612  0.3073 -0.0881 -1.2662
 2897TIP3    H2 8635   8.242   1.694   1.708  2.4377 -0.0832  0.9439
 2898TIP3   OH2 8636   6.603   1.063   4.662 -0.5805  0.5177 -0.3318
 2898TIP3    H1 8637   6.540   1.099   4.599 -0.5431 -0.7344 -1.1002
 2898TIP3    H2 8638   6.670   1.130   4.669 -2.7143  2.5287  1.6252
 2899TIP3   OH2 8639   7.729   2.026   4.057 -0.4890 -0.4136 -0.0816
 2899TIP3    H1 8640   7.649   2.016   4.006 -0.3508 -2.0689 -0.0159
 2899TIP3    H2 8641   7.700   2.020   4.148 -0.6493  1.8709  0.0320
 2900TIP3   OH2 8642   4.622   0.044   2.723  0.3396  0.0521  0.1889
 2900TIP3    H1 8643   4.624   0.128   2.676  0.9188  0.6108  1.1816
 2900TIP3    H2 8644   4.693   0.052   2.788  1.5622 -1.8844 -0.8669
 2901TIP3   OH2 8645   6.823   2.201   1.226 -0.7431  0.7391 -0.0558
 2901TIP3    H1 8646   6.734   2.227   1.248  0.3201  2.9127  1.9217
 2901TIP3    H2 8647   6.848   2.140   1.295 -0.7121  0.0660 -0.6558
 2902TIP3   OH2 8648   4.275   1.543   2.993 -0.1307  0.5242  0.5546
 2902TIP3    H1 8649   4.195   1.499   2.964  1.2895 -1.1149 -1.0068
 2902TIP3    H2 8650   4.332   1.472   3.022  1.3035  1.5420  0.2756
 2903TIP3   OH2 8651   4.030   3.877   3.283 -0.3529 -0.3019  0.0684
 2903TIP3    H1 8652   4.043   3.816   3.355  1.1857 -0.0727  0.0149
 2903TIP3    H2 8653   4.086   3.952   3.305 -0.0170 -0.1510 -1.2524
 2904TIP3   OH2 8654   7.889   2.905   3.136  0.0547 -0.4863  0.0099
 2904TIP3    H1 8655   7.900   2.972   3.203 -0.8480 -0.7795  0.4642
 2904TIP3    H2 8656   7.881   2.954   3.054 -0.5232 -0.0318  0.3277
 2905TIP3   OH2 8657   6.379   1.160   4.537  0.2324  0.1120  0.2465
 2905TIP3    H1 8658   6.307   1.112   4.579  0.6503 -0.8538 -0.1164
 2905TIP3    H2 8659   6.364   1.149   4.443  0.9481 -0.2442  0.1682
 2906TIP3   OH2 8660   7.317   2.921   0.228  0.5375 -0.0628 -0.1793
 2906TIP3    H1 8661   7.337   2.919   0.321  0.4662  0.5925 -0.1477
 2906TIP3    H2 8662   7.313   2.829   0.202  2.5572 -0.2281  0.0211
 2907TIP3   OH2 8663   4.847   2.349   1.655  0.1200  0.3060  0.0462
 2907TIP3    H1 8664   4.849   2.367   1.749  0.6601 -0.3994  0.1795
 2907TIP3    H2 8665   4.759   2.317   1.638  0.7036 -1.7694  0.7548
 2908TIP3   OH2 8666   6.339   3.356   2.518 -0.0379  0.0328  0.5927
 2908TIP3    H1 8667   6.353   3.314   2.603  1.9308 -1.0990 -0.2676
 2908TIP3    H2 8668   6.250   3.331   2.493  0.1977 -1.5078  1.2698
 2909TIP3   OH2 8669   6.790   1.039   2.083  0.0845 -0.3707 -0.1362
 2909TIP3    H1 8670   6.721   1.104   2.067  0.7518  0.9064  1.9950
 2909TIP3    H2 8671   6.872   1.088   2.070  0.6173 -1.6028 -1.5806
 2910TIP3   OH2 8672   5.917   3.196   2.681 -0.2154 -0.0697 -0.2231
 2910TIP3    H1 8673   5.981   3.187   2.611 -1.7468 -0.2735 -1.6267
 2910TIP3    H2 8674   5.857   3.123   2.668 -1.5693  0.9474  0.1808
 2911TIP3   OH2 8675   5.896   1.818   2.218 -1.0252 -0.0506  0.2820
 2911TIP3    H1 8676   5.956   1.746   2.236 -2.3894 -0.9992  1.1627
 2911TIP3    H2 8677   5.948   1.897   2.229 -0.3516 -0.8014  2.6260
 2912TIP3   OH2 8678   6.367   2.275   2.396 -0.2997 -0.4962  0.7312
 2912TIP3    H1 8679   6.381   2.277   2.301  0.0688 -0.1473  0.7878
 2912TIP3    H2 8680   6.350   2.183   2.416 -0.2161 -0.5973  0.3491
 2913TIP3   OH2 8681   7.668   0.077   3.485  0.0982 -0.0515 -0.6721
 2913TIP3    H1 8682   7.641   0.030   3.407 -2.0341  1.5634 -0.9585
 2913TIP3    H2 8683   7.606   0.050   3.552  0.4061  0.4533 -0.1782
 2914TIP3   OH2 8684   7.217   1.131   1.858 -0.0054  0.2335 -0.9037
 2914TIP3    H1 8685   7.178   1.179   1.785 -1.0108  0.2507 -0.3659
 2914TIP3    H2 8686   7.299   1.097   1.823 -0.3213  0.5195 -1.9432
 2915TIP3   OH2 8687   6.643   2.624   3.578 -0.1495  0.1014  0.5438
 2915TIP3    H1 8688   6.660   2.650   3.669  1.1000  0.7287  0.1433
 2915TIP3    H2 8689   6.646   2.706   3.529  1.2836 -0.4750 -0.3702
 2916TIP3   OH2 8690   8.398   4.071   0.134  0.2919  0.0566 -0.5768
 2916TIP3    H1 8691   8.408   4.048   0.041  0.6562  0.1606 -0.5657
 2916TIP3    H2 8692   8.330   4.138   0.135  0.8806  0.6678 -0.8646
 2917TIP3   OH2 8693   6.552   1.812   3.606  0.3131 -0.0538  0.5504
 2917TIP3    H1 8694   6.603   1.732   3.596  0.8799  0.2426  1.0873
 2917TIP3    H2 8695   6.517   1.807   3.695  2.1285  1.3441  1.3486
 2918TIP3   OH2 8696   4.571   0.961   3.443  0.4265 -0.3662 -0.1112
 2918TIP3    H1 8697   4.503   0.904   3.479  1.8222 -0.1863  3.0028
 2918TIP3    H2 8698   4.652   0.911   3.455  1.0698  0.0946 -2.2793
 2919TIP3   OH2 8699   7.156   0.943   1.322 -0.2106  0.1355  0.0461
 2919TIP3    H1 8700   7.074   0.927   1.276 -0.6476  1.7695  0.2382
 2919TIP3    H2 8701   7.131   0.992   1.400  1.0110  1.2843 -0.2589
 2920TIP3   OH2 8702   7.746   2.802   3.678  0.1356 -0.0490  0.0013
 2920TIP3    H1 8703   7.802   2.771   3.606 -0.4384 -2.0728  0.4096
 2920TIP3    H2 8704   7.659   2.809   3.639 -0.0225 -0.3686  0.3026
 2921TIP3   OH2 8705   8.372   1.600   0.887 -0.2491 -0.0239  0.2476
 2921TIP3    H1 8706   8.314   1.553   0.946  1.1365  1.5397  2.9971
 2921TIP3    H2 8707   8.327   1.683   0.870  0.1389  0.2435  0.5223
 2922TIP3   OH2 8708   6.135   2.324   2.587  0.6588  0.0407 -0.1262
 2922TIP3    H1 8709   6.220   2.347   2.551  0.1244 -0.9175 -2.0519
 2922TIP3    H2 8710   6.146   2.234   2.619  0.0816 -0.4860 -1.3825
 2923TIP3   OH2 8711   2.816   1.913   2.824 -0.2185  0.3287 -0.9525
 2923TIP3    H1 8712   2.776   1.987   2.778 -0.3944  0.8999  0.1141
 2923TIP3    H2 8713   2.837   1.851   2.754 -0.4201  1.2131 -1.8180
 2924TIP3   OH2 8714   4.845   3.770   2.303  0.5459 -0.3667  0.0289
 2924TIP3    H1 8715   4.777   3.727   2.354 -0.0407  0.1838 -0.2925
 2924TIP3    H2 8716   4.926   3.747   2.348 -0.1169  1.7864  2.3944
 2925TIP3   OH2 8717   4.536   2.884   3.116 -0.3670 -0.0874 -0.2551
 2925TIP3    H1 8718   4.493   2.940   3.180  0.5906  1.0119 -0.5775
 2925TIP3    H2 8719   4.541   2.798   3.159  1.0861  0.8496  1.4995
 2926TIP3   OH2 8720   6.080   3.313   5.818  0.3207  0.1299 -0.2775
 2926TIP3    H1 8721   6.142   3.316   5.746 -0.1725 -0.8791 -0.7588
 2926TIP3    H2 8722   6.131   3.282   5.893  0.7888  0.9902 -0.2475
 2927TIP3   OH2 8723   6.611   3.218   0.495  1.0596  0.1256 -0.7391
 2927TIP3    H1 8724   6.667   3.295   0.507 -0.2558  0.8581  0.7565
 2927TIP3    H2 8725   6.524   3.254   0.477  0.4731 -0.9989 -0.2066
 2928TIP3   OH2 8726   2.939   6.923   6.800  0.3087  0.2100  0.0615
 2928TIP3    H1 8727   2.898   6.878   6.875  0.2410 -0.8725 -0.6047
 2928TIP3    H2 8728   2.920   7.015   6.814 -1.6927 -0.1986  0.1869
 2929TIP3   OH2 8729   4.576   2.207   2.111 -0.1892 -0.1822 -0.1610
 2929TIP3    H1 8730   4.623   2.124   2.104  0.2999 -0.0308  1.2047
 2929TIP3    H2 8731   4.513   2.193   2.181  1.1748  1.1828  1.3839
 2930TIP3   OH2 8732   6.908   4.363   2.524  0.2037 -0.1965 -0.2623
 2930TIP3    H1 8733   6.973   4.393   2.588  0.9725 -0.3255 -0.9657
 2930TIP3    H2 8734   6.847   4.436   2.516  0.0747 -0.2022  0.6614
 2931TIP3   OH2 8735   6.112   3.339   2.793  0.3469 -0.4642 -0.5786
 2931TIP3    H1 8736   6.084   3.415   2.844  0.8088 -0.4372 -0.3672
 2931TIP3    H2 8737   6.031   3.289   2.780  0.6459 -1.9032  2.5890
 2932TIP3   OH2 8738   4.835   0.791   2.203  0.4763  0.3916 -0.0815
 2932TIP3    H1 8739   4.923   0.793   2.166  0.4981  0.0702 -0.0495
 2932TIP3    H2 8740   4.777   0.800   2.127  0.4524 -2.8642 -0.5246
 2933TIP3   OH2 8741   3.749   1.441   2.615 -0.4676  0.3127 -0.5213
 2933TIP3    H1 8742   3.681   1.400   2.669  0.2798  0.3326  0.4548
 2933TIP3    H2 8743   3.812   1.371   2.600  0.0688  0.7051 -0.1062
 2934TIP3   OH2 8744   4.040   0.147   6.636 -0.2505  0.1433  0.3655
 2934TIP3    H1 8745   4.042   0.086   6.710 -0.0584 -0.7511 -0.3723
 2934TIP3    H2 8746   4.108   0.211   6.656 -0.4213  0.0919  1.1280
 2935TIP3   OH2 8747   8.281   3.001   2.502 -0.0985  0.3823  0.2735
 2935TIP3    H1 8748   8.234   3.071   2.458 -0.0073  0.0446 -0.3633
 2935TIP3    H2 8749   8.245   2.921   2.466  1.5084  0.1242 -0.8336
 2936TIP3   OH2 8750   5.478   1.051   2.013 -0.3834  0.3387  0.2138
 2936TIP3    H1 8751   5.466   1.092   1.928  0.5326  0.6244  0.2102
 2936TIP3    H2 8752   5.428   0.969   2.008  0.5226 -0.1616 -0.9786
 2937TIP3   OH2 8753   8.027   2.015   5.462  0.3106 -0.0020 -0.3318
 2937TIP3    H1 8754   7.959   2.082   5.460  1.0636  0.7581 -1.8749
 2937TIP3    H2 8755   8.106   2.061   5.432  1.4583 -0.9147  1.2151
 2938TIP3   OH2 8756   6.963   4.819   2.056  0.5766  0.0699  0.0122
 2938TIP3    H1 8757   7.009   4.783   1.980 -0.5268 -1.1502 -0.0994
 2938TIP3    H2 8758   6.894   4.875   2.018  0.4135 -0.0529  0.1273
 2939TIP3   OH2 8759   4.197   0.374   6.791  0.0105 -0.3612 -0.4733
 2939TIP3    H1 8760   4.190   0.444   6.855 -0.5370  0.9271 -1.8926
 2939TIP3    H2 8761   4.173   0.295   6.839 -1.3222  0.7092  0.6729
 2940TIP3   OH2 8762   7.471   4.988   1.299  0.1997  0.3474  0.5114
 2940TIP3    H1 8763   7.499   5.079   1.287  1.2913 -0.1161 -0.5744
 2940TIP3    H2 8764   7.548   4.943   1.334 -0.3505 -0.1567  1.0893
 2941TIP3   OH2 8765   6.695   2.859   2.402 -0.2698 -0.0940  0.1451
 2941TIP3    H1 8766   6.751   2.933   2.424  2.1983 -1.8674 -0.0166
 2941TIP3    H2 8767   6.681   2.815   2.486 -2.1598  0.7946  0.3280
 2942TIP3   OH2 8768   7.438   2.644   0.501  0.5034 -0.0417 -0.2434
 2942TIP3    H1 8769   7.447   2.641   0.596 -1.3463  0.1769 -0.0540
 2942TIP3    H2 8770   7.484   2.725   0.475 -2.5218  2.1582  0.9247
 2943TIP3   OH2 8771   6.328   1.585   2.430 -0.3594 -0.0731  0.7194
 2943TIP3    H1 8772   6.291   1.520   2.490  0.8309 -1.2275  0.2341
 2943TIP3    H2 8773   6.411   1.546   2.402 -2.0487 -0.7722 -3.6915
 2944TIP3   OH2 8774   2.889   7.577   2.764  0.6915  0.4929  0.4153
 2944TIP3    H1 8775   2.950   7.518   2.720 -0.3160  0.2384 -0.6567
 2944TIP3    H2 8776   2.858   7.527   2.840 -1.1522 -0.8812 -1.2082
 2945TIP3   OH2 8777   2.132   7.496   3.862 -0.2242 -0.1678 -0.4219
 2945TIP3    H1 8778   2.158   7.550   3.936  0.7034 -2.3945  0.9159
 2945TIP3    H2 8779   2.092   7.419   3.901 -0.2452 -1.1110 -2.2493
 2946TIP3   OH2 8780   5.711   0.306   3.395 -0.2917  0.1217 -0.2295
 2946TIP3    H1 8781   5.784   0.326   3.336  0.2502  1.2462  0.7955
 2946TIP3    H2 8782   5.670   0.391   3.413 -0.3460 -0.1750  1.1314
 2947TIP3   OH2 8783   4.008   2.102   2.107  0.0200  0.4255  0.6020
 2947TIP3    H1 8784   3.937   2.149   2.063 -0.8634 -0.4313  1.1161
 2947TIP3    H2 8785   4.074   2.170   2.124  1.0012  0.5444 -3.2401
 2948TIP3   OH2 8786   0.746   6.011   6.829  0.3284  0.9526 -0.5679
 2948TIP3    H1 8787   0.689   6.023   6.904  0.2417  0.5626 -0.5721
 2948TIP3    H2 8788   0.710   5.936   6.782  1.0761  0.4481 -0.3514
 2949TIP3   OH2 8789   6.741   1.411   0.184 -0.1535  0.1407 -0.7795
 2949TIP3    H1 8790   6.648   1.431   0.174 -0.4600 -1.4421 -1.3241
 2949TIP3    H2 8791   6.759   1.346   0.116  0.7464 -1.4092  0.8763
 2950TIP3   OH2 8792   4.344   2.117   2.261  0.1226 -0.4061  0.0248
 2950TIP3    H1 8793   4.329   2.134   2.354 -0.8885 -0.4722 -0.1235
 2950TIP3    H2 8794   4.293   2.184   2.215  2.3949  1.0461 -0.4749
 2951TIP3   OH2 8795   7.145   2.875   2.185 -0.0171 -0.1076  0.3490
 2951TIP3    H1 8796   7.175   2.944   2.126 -1.1768  0.1598  0.0503
 2951TIP3    H2 8797   7.081   2.827   2.133  0.3075 -1.0052  0.7848
 2952TIP3   OH2 8798   1.681   5.271   6.801  0.3868 -0.0437  0.2334
 2952TIP3    H1 8799   1.719   5.192   6.763  0.8643 -0.3207  1.2908
 2952TIP3    H2 8800   1.715   5.342   6.747  1.7756 -0.3599  0.6689
 2953TIP3   OH2 8801   6.224   1.342   3.154  0.0654 -0.4484  0.2201
 2953TIP3    H1 8802   6.251   1.250   3.145 -0.8704 -0.6372 -0.7297
 2953TIP3    H2 8803   6.305   1.392   3.144  0.9208 -1.2460  2.7330
 2954TIP3   OH2 8804   6.348   2.185   3.201 -0.2973  0.3559 -0.1970
 2954TIP3    H1 8805   6.359   2.149   3.289  0.8719  1.4918  0.1242
 2954TIP3    H2 8806   6.327   2.108   3.147  0.8550 -0.6316  0.7223
 2955TIP3   OH2 8807   5.780   1.070   4.348 -0.0891 -0.0124 -0.1649
 2955TIP3    H1 8808   5.744   1.137   4.290  0.1075 -0.5321 -0.8969
 2955TIP3    H2 8809   5.848   1.115   4.398 -0.0485  0.3666 -0.5533
 2956TIP3   OH2 8810   5.089   1.838   2.670 -0.1506  0.6255  0.3440
 2956TIP3    H1 8811   5.129   1.850   2.585 -0.1262  1.6373  0.4900
 2956TIP3    H2 8812   5.145   1.775   2.715  0.2699  0.6872 -0.0948
 2957TIP3   OH2 8813   5.876   2.770   0.591  0.3275  0.1705  0.2134
 2957TIP3    H1 8814   5.818   2.836   0.629 -1.2906 -0.8832 -0.4288
 2957TIP3    H2 8815   5.880   2.792   0.498  2.3516  1.2682  0.5122
 2958TIP3   OH2 8816   4.210   1.882   2.614 -0.1745 -0.5857 -0.2789
 2958TIP3    H1 8817   4.239   1.797   2.581 -0.3269 -0.2742 -1.2574
 2958TIP3    H2 8818   4.121   1.891   2.579  0.0089  0.1614 -0.5597
 2959TIP3   OH2 8819   7.546   1.358   1.295  0.2887 -0.5992  0.1852
 2959TIP3    H1 8820   7.568   1.411   1.218  1.3885 -1.0984  0.1439
 2959TIP3    H2 8821   7.484   1.293   1.262  2.0705 -1.9000 -0.6881
 2960TIP3   OH2 8822   2.782   6.980   4.122 -0.2052 -0.3971  0.3201
 2960TIP3    H1 8823   2.703   7.033   4.135 -0.2847 -0.4641  0.1080
 2960TIP3    H2 8824   2.840   7.006   4.194  0.4366  1.2018 -0.7647
 2961TIP3   OH2 8825   4.561   3.181   2.322 -0.1704  0.3120 -0.2789
 2961TIP3    H1 8826   4.493   3.115   2.316  0.0446  0.0443  0.2900
 2961TIP3    H2 8827   4.633   3.138   2.367  0.3939  0.5810 -0.9092
 2962TIP3   OH2 8828   5.437   1.029   0.724 -0.2771  0.1116  0.3780
 2962TIP3    H1 8829   5.367   1.067   0.672 -0.4261 -0.0118  0.4901
 2962TIP3    H2 8830   5.393   0.970   0.785  0.1316 -1.8772 -1.2109
 2963TIP3   OH2 8831   7.788   1.439   1.400 -0.2584 -0.6130 -0.1202
 2963TIP3    H1 8832   7.777   1.501   1.473 -0.7272 -0.7331 -0.0826
 2963TIP3    H2 8833   7.704   1.443   1.354 -0.3160 -1.2810 -0.0714
 2964TIP3   OH2 8834   6.557   2.808   2.187  0.4983  0.6484 -0.0011
 2964TIP3    H1 8835   6.579   2.717   2.167 -1.9097  0.3419 -1.4533
 2964TIP3    H2 8836   6.594   2.823   2.274  3.5203 -0.7605 -0.9650
 2965TIP3   OH2 8837   8.275   1.795   4.821  0.0552  0.1722  0.1332
 2965TIP3    H1 8838   8.202   1.734   4.808  0.3163 -0.2296  0.5471
 2965TIP3    H2 8839   8.250   1.873   4.771  1.0064 -1.2954 -2.7013
 2966TIP3   OH2 8840   5.499   2.077   3.422 -0.6177 -0.2949 -0.0118
 2966TIP3    H1 8841   5.452   2.040   3.497 -0.8094  0.8147  0.4362
 2966TIP3    H2 8842   5.587   2.096   3.456 -1.3834  2.3668  0.6415
 2967TIP3   OH2 8843   4.761   2.662   3.043 -0.0866 -0.0475 -0.1672
 2967TIP3    H1 8844   4.700   2.605   2.996 -0.8300  2.1351 -1.9203
 2967TIP3    H2 8845   4.766   2.624   3.131 -3.4552 -0.6717 -0.1924
 2968TIP3   OH2 8846   6.657   1.266   1.581 -0.1781  0.2222  0.6689
 2968TIP3    H1 8847   6.613   1.320   1.647 -1.1233  0.7005 -0.3458
 2968TIP3    H2 8848   6.730   1.320   1.551 -2.5063  1.9881 -2.0766
 2969TIP3   OH2 8849   4.484   1.676   1.720  0.2595 -0.5926 -0.3420
 2969TIP3    H1 8850   4.432   1.744   1.762 -0.0729 -0.3084 -1.2090
 2969TIP3    H2 8851   4.571   1.684   1.759  0.4831  0.9625 -1.1774
 2970TIP3   OH2 8852   6.503   1.416   1.743 -0.0699 -0.3266  0.0317
 2970TIP3    H1 8853   6.452   1.494   1.721  0.2273  0.4888  2.0851
 2970TIP3    H2 8854   6.438   1.352   1.771 -0.2567 -0.6117 -1.0154
 2971TIP3   OH2 8855   0.296   2.661   1.312  0.0635 -0.3898  0.1989
 2971TIP3    H1 8856   0.374   2.635   1.361  0.2173 -0.7763 -0.2525
 2971TIP3    H2 8857   0.330   2.702   1.233 -0.1815 -2.3712 -0.9735
 2972TIP3   OH2 8858   6.369   2.627   4.823 -0.6870 -0.3299 -0.0151
 2972TIP3    H1 8859   6.288   2.603   4.868 -1.1912  1.5134  0.1014
 2972TIP3    H2 8860   6.340   2.664   4.740  0.2107 -3.0129 -1.5676
 2973TIP3   OH2 8861   6.863   3.083   2.441 -0.5580 -0.1178  0.2454
 2973TIP3    H1 8862   6.816   3.161   2.411 -1.5307 -0.2807  1.2994
 2973TIP3    H2 8863   6.945   3.116   2.477  0.6773  0.0833 -2.5449
 2974TIP3   OH2 8864   7.517   1.103   2.761 -0.0964  0.2813 -0.1999
 2974TIP3    H1 8865   7.497   1.181   2.812  2.9948 -0.1056  1.6996
 2974TIP3    H2 8866   7.486   1.030   2.814 -0.4051  0.0600 -0.6743
 2975TIP3   OH2 8867   3.679   0.626   4.240 -0.3265  0.0502 -0.0540
 2975TIP3    H1 8868   3.705   0.535   4.227 -0.9801 -0.4643  1.9770
 2975TIP3    H2 8869   3.726   0.653   4.319 -1.6547  0.8501  0.4742
 2976TIP3   OH2 8870   4.665   1.460   1.479 -1.0133 -0.0287 -0.0800
 2976TIP3    H1 8871   4.657   1.555   1.482 -2.0204 -0.0819 -0.8657
 2976TIP3    H2 8872   4.694   1.436   1.567 -0.0484  1.0623 -0.0900
 2977TIP3   OH2 8873   3.912   2.316   4.990  0.0808  0.1084 -0.2982
 2977TIP3    H1 8874   3.998   2.279   5.011  0.8159  1.9581  0.1150
 2977TIP3    H2 8875   3.902   2.302   4.896  0.3343 -1.1081 -0.1500
 2978TIP3   OH2 8876   5.693   3.239   1.649 -0.5651 -0.1663 -0.0291
 2978TIP3    H1 8877   5.640   3.223   1.571  0.1645 -1.8863 -0.1985
 2978TIP3    H2 8878   5.778   3.199   1.629  0.7686  2.3501  0.3133
 2979TIP3   OH2 8879   5.652   4.827   1.956 -0.3444  0.0217  0.2003
 2979TIP3    H1 8880   5.721   4.816   1.890 -1.6176 -1.1571 -0.9722
 2979TIP3    H2 8881   5.641   4.740   1.994 -2.8421 -0.3542 -1.3188
 2980TIP3   OH2 8882   7.998   0.670   2.102  0.2122 -0.4799  0.0111
 2980TIP3    H1 8883   7.963   0.671   2.013  0.1434  0.6090  0.0486
 2980TIP3    H2 8884   7.967   0.751   2.141  1.6801 -0.1323  0.4796
 2981TIP3   OH2 8885   6.668   1.205   2.423  0.4282  0.3797 -0.0430
 2981TIP3    H1 8886   6.607   1.181   2.493  1.2523  1.4644  1.0826
 2981TIP3    H2 8887   6.647   1.146   2.351  2.0534 -3.3966  2.4058
 2982TIP3   OH2 8888   1.061   4.617   0.119 -0.2427 -0.0141 -0.5490
 2982TIP3    H1 8889   1.117   4.560   0.067 -3.6800 -3.6368 -0.5053
 2982TIP3    H2 8890   1.078   4.590   0.210 -0.0359  0.8033 -0.3417
 2983TIP3   OH2 8891   7.926   2.035   1.158  0.5712  0.2592  0.4485
 2983TIP3    H1 8892   8.000   2.072   1.206  1.9242 -0.3351 -1.1183
 2983TIP3    H2 8893   7.964   2.006   1.075 -1.1658 -1.2868  0.1640
 2984TIP3   OH2 8894   3.758   2.423   3.296 -0.2849  0.2229 -0.0871
 2984TIP3    H1 8895   3.797   2.496   3.249 -2.3368  0.1549 -1.9736
 2984TIP3    H2 8896   3.809   2.346   3.269 -1.2195  0.2366 -1.9549
 2985TIP3   OH2 8897   3.883   2.424   2.256 -0.4498 -0.1765 -0.1392
 2985TIP3    H1 8898   3.963   2.430   2.203 -1.1596 -0.3284 -1.2431
 2985TIP3    H2 8899   3.832   2.355   2.214 -1.7467  0.8206 -0.2520
 2986TIP3   OH2 8900   7.650   0.769   2.051 -0.2863 -0.4153  0.0717
 2986TIP3    H1 8901   7.617   0.679   2.047 -2.2617  0.2422  0.8907
 2986TIP3    H2 8902   7.661   0.787   2.144  2.2345 -0.5270 -0.1708
 2987TIP3   OH2 8903   5.556   0.645   4.138  0.1303 -0.3933  0.2397
 2987TIP3    H1 8904   5.633   0.646   4.195  0.6402 -1.7392 -0.4083
 2987TIP3    H2 8905   5.497   0.580   4.176 -0.3734  0.1037  0.3216
 2988TIP3   OH2 8906   6.833   5.259   6.897  0.3037  0.4953  0.4009
 2988TIP3    H1 8907   6.785   5.184   6.932 -1.1034  1.0725 -0.2663
 2988TIP3    H2 8908   6.809   5.261   6.804  2.7192 -0.0563 -0.2713
 2989TIP3   OH2 8909   7.643   3.701   2.116  0.1080 -0.2885  0.1333
 2989TIP3    H1 8910   7.682   3.725   2.200  1.2280  1.5521 -0.8782
 2989TIP3    H2 8911   7.690   3.622   2.090 -0.6482 -1.1982  1.5067
 2990TIP3   OH2 8912   6.630   2.136   2.493  0.0202  0.0446 -0.1293
 2990TIP3    H1 8913   6.550   2.185   2.476 -0.0819 -0.2948 -0.6321
 2990TIP3    H2 8914   6.699   2.189   2.453 -0.2788 -1.0195 -2.1522
 2991TIP3   OH2 8915   0.151   4.533   1.449  0.1217 -0.1607  0.4090
 2991TIP3    H1 8916   0.144   4.554   1.356  1.1963 -1.4271  0.0341
 2991TIP3    H2 8917   0.241   4.555   1.472 -0.0005 -0.3102  1.0320
 2992TIP3   OH2 8918   5.619   3.040   4.149  0.0400 -0.0863  0.9482
 2992TIP3    H1 8919   5.693   3.096   4.125  0.4095 -0.7477  0.5211
 2992TIP3    H2 8920   5.561   3.044   4.073  0.3233 -0.6974  0.6909
 2993TIP3   OH2 8921   5.705   2.716   4.188  0.4795  0.1752 -0.3856
 2993TIP3    H1 8922   5.710   2.803   4.149  1.0620  0.3914  0.1653
 2993TIP3    H2 8923   5.617   2.712   4.227  0.7450  0.8219  0.2931
 2994TIP3   OH2 8924   6.657   3.055   1.794  0.1916 -0.1645  0.2387
 2994TIP3    H1 8925   6.670   2.989   1.862  0.5753 -0.4622 -0.1180
 2994TIP3    H2 8926   6.636   3.135   1.841  0.3160 -0.4046  0.7009
 2995TIP3   OH2 8927   4.999   1.049   2.460  0.4645  0.8708  0.2084
 2995TIP3    H1 8928   5.050   0.975   2.426  0.2301  0.6731  0.2811
 2995TIP3    H2 8929   4.962   1.016   2.542 -0.9183  0.5455 -0.5420
 2996TIP3   OH2 8930   0.201   1.962   0.797 -0.6246 -0.0825 -0.5940
 2996TIP3    H1 8931   0.235   1.879   0.831 -0.9360 -0.1189 -0.3565
 2996TIP3    H2 8932   0.277   2.019   0.789 -0.3117 -0.6187 -1.4228
 2997TIP3   OH2 8933   6.765   2.689   1.337  0.1645  0.4465  0.5912
 2997TIP3    H1 8934   6.702   2.637   1.388  0.8533 -0.0499  0.9471
 2997TIP3    H2 8935   6.840   2.631   1.325  0.0231  0.5701 -0.9753
 2998TIP3   OH2 8936   5.081   2.950   4.463 -0.4050 -0.0938  0.3520
 2998TIP3    H1 8937   5.048   3.034   4.430 -0.0141 -0.4002 -0.8075
 2998TIP3    H2 8938   5.161   2.973   4.511 -0.3463  0.2028  0.1115
 2999TIP3   OH2 8939   6.260   2.247   4.506 -0.3720 -0.0047  0.4435
 2999TIP3    H1 8940   6.210   2.325   4.529 -0.0831  0.5616 -0.7895
 2999TIP3    H2 8941   6.247   2.187   4.579  0.4926  1.7105  2.0522
 3000TIP3   OH2 8942   4.251   3.609   2.363  0.1127 -0.0122  0.2925
 3000TIP3    H1 8943   4.310   3.669   2.410  1.2962  0.3843 -1.6592
 3000TIP3    H2 8944   4.296   3.525   2.366  0.4820  0.1530 -0.6717
 3001TIP3   OH2 8945   5.461   1.048   6.503 -0.2516 -0.0578 -0.7585
 3001TIP3    H1 8946   5.374   1.020   6.531  0.6437 -3.1142 -0.8788
 3001TIP3    H2 8947   5.505   1.075   6.584  0.4476 -3.5824  0.1123
 3002TIP3   OH2 8948   1.879   6.052   6.166 -0.1089  0.4481 -0.3082
 3002TIP3    H1 8949   1.972   6.076   6.171 -0.1752  0.8516 -0.9718
 3002TIP3    H2 8950   1.846   6.067   6.254  1.1404 -2.5528  0.7597
 3003TIP3   OH2 8951   4.117   1.884   0.857 -0.0603 -0.2956  0.8782
 3003TIP3    H1 8952   4.162   1.946   0.915 -0.6412  0.4299  0.5574
 3003TIP3    H2 8953   4.119   1.927   0.772  0.6513 -1.2893  0.3832
 3004TIP3   OH2 8954   7.285   1.902   0.659  0.6103  0.0593 -0.2086
 3004TIP3    H1 8955   7.278   1.825   0.602  0.3016 -0.1891  0.1628
 3004TIP3    H2 8956   7.255   1.872   0.744 -2.7383  1.4071 -0.7994
 3005TIP3   OH2 8957   6.566   1.836   3.283 -0.4388  0.1517  0.0771
 3005TIP3    H1 8958   6.553   1.805   3.373  1.2221  1.8295  0.9171
 3005TIP3    H2 8959   6.550   1.758   3.229  2.6292 -2.0162  2.0789
 3006TIP3   OH2 8960   6.120   1.457   1.609 -0.6047 -0.2230 -0.0586
 3006TIP3    H1 8961   6.069   1.406   1.672 -0.8881  0.2288  0.0797
 3006TIP3    H2 8962   6.164   1.391   1.556 -0.3489 -0.6062  0.6238
 3007TIP3   OH2 8963   7.669   4.370   2.368 -0.5729 -0.1212  0.5346
 3007TIP3    H1 8964   7.704   4.296   2.318  0.6498  0.7684  0.0547
 3007TIP3    H2 8965   7.604   4.409   2.309 -0.5272 -0.2389  0.4045
 3008TIP3   OH2 8966   7.919   3.573   3.132  0.5041 -0.2679 -0.4981
 3008TIP3    H1 8967   7.823   3.571   3.121  0.2643 -2.3374  1.4393
 3008TIP3    H2 8968   7.953   3.534   3.052 -0.3173 -0.1494 -0.9148
 3009TIP3   OH2 8969   6.109   1.562   3.000 -0.0711  0.1289 -0.3989
 3009TIP3    H1 8970   6.032   1.507   2.988 -0.3056  0.2874  0.3804
 3009TIP3    H2 8971   6.168   1.511   3.056  0.3245  0.0776 -0.8519
 3010TIP3   OH2 8972   4.713   1.167   2.578  0.4168  0.0227  0.2596
 3010TIP3    H1 8973   4.718   1.115   2.498  1.7210  0.0352  0.3141
 3010TIP3    H2 8974   4.766   1.118   2.641 -1.7684 -0.7564  1.5659
 3011TIP3   OH2 8975   5.472   5.053   2.544  0.5769  0.3938  0.0296
 3011TIP3    H1 8976   5.377   5.057   2.532  0.2442  1.2966  2.7120
 3011TIP3    H2 8977   5.491   4.960   2.558  0.2205  0.0949 -1.4461
 3012TIP3   OH2 8978   3.196   7.491   4.241  0.2521 -0.9695  0.0248
 3012TIP3    H1 8979   3.168   7.460   4.154  0.5165 -1.8177  0.2351
 3012TIP3    H2 8980   3.259   7.560   4.222 -0.6700 -0.2468 -0.4598
 3013TIP3   OH2 8981   4.893   4.046   1.600  0.2065  0.1804  0.7207
 3013TIP3    H1 8982   4.905   4.099   1.521 -0.9423  2.1419  1.8114
 3013TIP3    H2 8983   4.803   4.065   1.627  0.0265 -1.8158  1.5341
 3014TIP3   OH2 8984   5.147   3.280   2.870  0.4778  0.3334 -0.2759
 3014TIP3    H1 8985   5.196   3.228   2.934 -1.2229 -0.3834  0.4669
 3014TIP3    H2 8986   5.214   3.331   2.825  1.8123  0.0862  1.3734
 3015TIP3   OH2 8987   6.218   2.974   2.732  0.3920 -0.0119  0.1175
 3015TIP3    H1 8988   6.222   2.904   2.666 -1.7635 -1.2844  1.2935
 3015TIP3    H2 8989   6.235   2.930   2.815  1.2639  1.2781  0.6404
 3016TIP3   OH2 8990   5.210   2.356   0.787  0.0626 -0.0554 -0.0929
 3016TIP3    H1 8991   5.191   2.416   0.859 -1.6581 -0.0488 -0.5400
 3016TIP3    H2 8992   5.304   2.366   0.772  0.6679 -0.8836  2.8776
 3017TIP3   OH2 8993   5.855   2.526   2.041  0.2813 -0.2978  0.1263
 3017TIP3    H1 8994   5.870   2.583   1.965  0.2129 -2.2921 -1.4379
 3017TIP3    H2 8995   5.771   2.555   2.076  0.7665  1.2691  0.0411
 3018TIP3   OH2 8996   5.699   1.310   0.631 -0.1508 -0.4705 -0.0794
 3018TIP3    H1 8997   5.717   1.397   0.595  1.0959 -0.9092 -0.5293
 3018TIP3    H2 8998   5.709   1.322   0.726  0.7807 -0.2918 -0.1932
 3019TIP3   OH2 8999   4.023   1.332   4.121  0.2838 -0.2039 -0.0270
 3019TIP3    H1 9000   4.006   1.264   4.055 -3.2471 -0.9763  1.5617
 3019TIP3    H2 9001   3.980   1.410   4.088  0.0009 -0.1254  0.5118
 3020TIP3   OH2 9002   7.255   7.227   6.546 -0.3067  0.4459  0.3787
 3020TIP3    H1 9003   7.315   7.288   6.588  0.4841  0.4764 -0.7439
 3020TIP3    H2 9004   7.270   7.144   6.591  0.0630  0.6257  0.5884
 3021TIP3   OH2 9005   5.115   3.918   2.703  0.8176  0.2698  0.2615
 3021TIP3    H1 9006   5.135   3.984   2.770  0.7101  0.7896 -0.2186
 3021TIP3    H2 9007   5.129   3.962   2.620 -0.3554  0.0419 -0.0734
 3022TIP3   OH2 9008   7.504   1.995   3.287  0.0797 -0.0569 -0.6746
 3022TIP3    H1 9009   7.447   2.051   3.339 -1.1212 -0.2546 -1.7650
 3022TIP3    H2 9010   7.542   2.054   3.221  1.0451  0.0478 -0.0388
 3023TIP3   OH2 9011   8.030   4.625   0.838  0.2013 -0.0945  0.1018
 3023TIP3    H1 9012   7.998   4.676   0.763 -1.0372 -0.2521  0.5184
 3023TIP3    H2 9013   8.020   4.534   0.811  0.9007 -0.1450 -0.0086
 3024TIP3   OH2 9014   6.331   3.037   3.105  0.2054 -0.0215 -0.3312
 3024TIP3    H1 9015   6.283   3.110   3.065 -0.5468 -1.0510 -1.3202
 3024TIP3    H2 9016   6.339   3.062   3.198  1.7553  2.2735 -1.0083
 3025TIP3   OH2 9017   2.364   4.771   6.237 -0.5784 -0.3945  0.5528
 3025TIP3    H1 9018   2.445   4.723   6.254 -0.3242 -0.2753 -0.3227
 3025TIP3    H2 9019   2.318   4.719   6.171  0.1114  0.9911 -1.0694
 3026TIP3   OH2 9020   6.537   1.441   2.363 -0.5607 -0.1460 -0.0723
 3026TIP3    H1 9021   6.525   1.416   2.271  0.7479 -0.7696 -0.0929
 3026TIP3    H2 9022   6.581   1.365   2.402 -0.4526  0.4099  0.8903
 3027TIP3   OH2 9023   5.883   2.319   0.905  0.4118 -0.2715 -0.7000
 3027TIP3    H1 9024   5.871   2.309   1.000  0.5248  0.5615 -0.5921
 3027TIP3    H2 9025   5.939   2.246   0.880  0.0733 -0.7130 -0.1854
 3028TIP3   OH2 9026   7.041   2.917   2.805 -0.4223 -0.1855  0.0442
 3028TIP3    H1 9027   7.125   2.961   2.796 -0.3259 -0.4202 -0.2142
 3028TIP3    H2 9028   6.977   2.988   2.807 -0.2696 -0.0326 -0.3667
 3029TIP3   OH2 9029   8.318   1.349   1.469 -0.0002  0.3439 -0.0014
 3029TIP3    H1 9030   8.260   1.389   1.405  2.0380  1.2783 -1.3441
 3029TIP3    H2 9031   8.345   1.266   1.429  1.5598  1.0978 -0.5556
 3030TIP3   OH2 9032   6.090   0.195   2.617 -0.3216  0.3372 -0.5134
 3030TIP3    H1 9033   6.052   0.136   2.682  1.4428  0.6420  0.8366
 3030TIP3    H2 9034   6.064   0.157   2.533 -1.1280 -1.0800  0.3429
 3031TIP3   OH2 9035   6.828   2.530   0.815  0.0688 -0.1976 -0.2820
 3031TIP3    H1 9036   6.898   2.567   0.870  1.5117 -1.0761 -1.4833
 3031TIP3    H2 9037   6.805   2.448   0.858  0.0504 -0.1039 -0.1093
 3032TIP3   OH2 9038   5.335   0.439   3.976 -0.7142 -0.1147  0.3382
 3032TIP3    H1 9039   5.314   0.354   3.937 -1.6869 -0.1562  0.9421
 3032TIP3    H2 9040   5.344   0.421   4.070  2.1129 -0.1191  0.1277
 3033TIP3   OH2 9041   6.598   2.244   3.242 -0.2931 -0.3246 -0.4682
 3033TIP3    H1 9042   6.574   2.263   3.332  2.2713 -0.0898  0.2164
 3033TIP3    H2 9043   6.517   2.214   3.201 -1.0934 -2.2881  2.3966
 3034TIP3   OH2 9044   7.010   0.678   0.543  0.2218  0.5886  0.1675
 3034TIP3    H1 9045   7.023   0.609   0.479  0.1536  0.8934 -0.1748
 3034TIP3    H2 9046   6.994   0.632   0.625  1.3747  0.2040  0.1780
 3035TIP3   OH2 9047   3.573   2.046   1.482 -0.0246  0.2325 -0.2521
 3035TIP3    H1 9048   3.504   2.099   1.521 -0.7565 -0.7130 -0.2351
 3035TIP3    H2 9049   3.532   2.008   1.404 -0.0499 -1.6207  0.6218
 3036TIP3   OH2 9050   7.324   5.003   2.302 -0.2143 -0.0761  0.0664
 3036TIP3    H1 9051   7.361   4.928   2.256 -0.9461  1.7647 -3.6817
 3036TIP3    H2 9052   7.245   4.969   2.344  0.3510 -1.7584 -0.2104
 3037TIP3   OH2 9053   5.534   1.050   3.034  0.3443 -0.3290  0.1035
 3037TIP3    H1 9054   5.615   1.097   3.054 -0.0626  1.3303 -1.8844
 3037TIP3    H2 9055   5.510   1.081   2.947 -1.9014 -1.5594  0.2485
 3038TIP3   OH2 9056   6.379   2.513   0.227  0.2724 -0.7635  0.4636
 3038TIP3    H1 9057   6.446   2.448   0.206 -0.4557 -1.7203  1.0806
 3038TIP3    H2 9058   6.403   2.590   0.175  0.4405 -1.9361 -1.2383
 3039TIP3   OH2 9059   6.832   1.259   4.686 -0.5090 -0.0290  0.1966
 3039TIP3    H1 9060   6.858   1.319   4.756 -3.7231  1.5974  0.0896
 3039TIP3    H2 9061   6.912   1.249   4.633  1.4233  0.2616  2.9412
 3040TIP3   OH2 9062   7.154   1.206   2.973 -0.1388 -0.0611  0.0058
 3040TIP3    H1 9063   7.129   1.292   3.007 -2.0357 -0.4549 -0.3093
 3040TIP3    H2 9064   7.120   1.205   2.883  2.0101 -0.2354 -0.8407
 3041TIP3   OH2 9065   5.887   2.029   3.760  0.2954 -0.1472 -0.2889
 3041TIP3    H1 9066   5.854   1.939   3.759  0.1107 -0.1138  1.5828
 3041TIP3    H2 9067   5.977   2.020   3.793 -0.6339  0.6039  2.6224
 3042TIP3   OH2 9068   5.154   1.463   2.512 -0.1188  0.1944  0.0849
 3042TIP3    H1 9069   5.123   1.432   2.597 -0.4194  0.7069  0.1638
 3042TIP3    H2 9070   5.082   1.444   2.452 -0.6760  1.5686  0.3050
 3043TIP3   OH2 9071   6.970   3.263   1.041 -0.0261 -1.0697  0.3428
 3043TIP3    H1 9072   7.052   3.232   1.004 -0.2980  1.7120 -2.7703
 3043TIP3    H2 9073   6.903   3.207   1.003 -0.0362  0.0375 -1.3140
 3044TIP3   OH2 9074   3.617   3.100   2.703 -0.1722  0.3273 -0.1565
 3044TIP3    H1 9075   3.682   3.135   2.642 -0.0909 -1.3965 -1.0807
 3044TIP3    H2 9076   3.632   3.150   2.784  1.6966  0.5850 -0.6195
 3045TIP3   OH2 9077   3.491   5.118   1.796  0.4682 -0.5434  0.2862
 3045TIP3    H1 9078   3.458   5.176   1.728  1.1948 -1.3337 -0.7448
 3045TIP3    H2 9079   3.440   5.141   1.874  0.3953  1.1274 -0.2331
 3046TIP3   OH2 9080   6.301   1.576   4.405  0.1108 -0.2592  0.1863
 3046TIP3    H1 9081   6.295   1.609   4.495 -0.4169 -0.1934  0.1290
 3046TIP3    H2 9082   6.214   1.592   4.368  0.4497  0.0728 -0.4641
 3047TIP3   OH2 9083   7.227   1.429   2.420 -0.1460  0.4211 -0.4924
 3047TIP3    H1 9084   7.186   1.390   2.498 -1.0491  0.3833 -0.9863
 3047TIP3    H2 9085   7.155   1.443   2.359  0.6901 -0.4518 -1.7084
 3048TIP3   OH2 9086   6.134   4.788   2.063 -0.4045 -0.0196 -0.5070
 3048TIP3    H1 9087   6.093   4.859   2.013 -0.7126 -0.6470 -1.1513
 3048TIP3    H2 9088   6.060   4.737   2.096 -0.1788 -0.0774 -0.0933
 3049TIP3   OH2 9089   6.797   4.570   3.388  0.0081  0.4843 -0.9812
 3049TIP3    H1 9090   6.730   4.504   3.368  0.5294 -0.9408  1.7976
 3049TIP3    H2 9091   6.749   4.643   3.425 -0.2636  0.3945 -1.1564
 3050TIP3   OH2 9092   6.432   1.308   2.135 -0.8917  0.5729 -0.3534
 3050TIP3    H1 9093   6.488   1.263   2.071  0.4456  1.6920  0.0073
 3050TIP3    H2 9094   6.409   1.240   2.198  1.1095  0.3561  0.1888
 3051TIP3   OH2 9095   5.625   1.370   2.928 -0.3519 -0.6507  0.1492
 3051TIP3    H1 9096   5.572   1.310   2.876  0.8175 -0.3231 -1.4772
 3051TIP3    H2 9097   5.568   1.446   2.942 -0.5935 -0.6118 -0.9491
 3052TIP3   OH2 9098   7.593   0.114   4.448  0.0775  1.1304  0.1210
 3052TIP3    H1 9099   7.639   0.194   4.423  1.9134 -0.1126 -0.6488
 3052TIP3    H2 9100   7.662   0.056   4.480 -1.2765  0.0106  1.0723
 3053TIP3   OH2 9101   6.382   4.974   1.975  0.1605 -0.7113  0.2695
 3053TIP3    H1 9102   6.314   5.037   1.951  1.0839 -0.3789 -1.5188
 3053TIP3    H2 9103   6.351   4.935   2.057 -1.1890  0.9140  0.5494
 3054TIP3   OH2 9104   7.462   3.337   2.468 -0.1849  0.1435 -0.9397
 3054TIP3    H1 9105   7.410   3.259   2.452 -0.4351  0.1338 -0.0950
 3054TIP3    H2 9106   7.437   3.398   2.398 -2.2162  0.5877  0.1577
 3055TIP3   OH2 9107   7.874   0.844   0.301 -0.9009 -0.0778  0.1142
 3055TIP3    H1 9108   7.858   0.800   0.384 -2.6158 -0.9169 -0.6407
 3055TIP3    H2 9109   7.804   0.814   0.243  0.5362  0.1139 -1.7858
 3056TIP3   OH2 9110   6.992   1.770   2.498  0.0533  0.1080  0.2049
 3056TIP3    H1 9111   6.997   1.733   2.586 -1.8629  0.4074  0.4604
 3056TIP3    H2 9112   7.029   1.858   2.506  1.8208 -0.6152  0.2386
 3057TIP3   OH2 9113   4.417   2.409   3.211  0.1971 -0.2568  0.3334
 3057TIP3    H1 9114   4.392   2.355   3.286  2.3301  1.0525  2.0694
 3057TIP3    H2 9115   4.408   2.352   3.135 -0.2489 -2.1766  1.7956
 3058TIP3   OH2 9116   4.376   2.496   4.517 -0.4090 -0.8707 -0.2899
 3058TIP3    H1 9117   4.416   2.581   4.498 -0.5290 -0.6183  0.5436
 3058TIP3    H2 9118   4.449   2.434   4.516 -0.3041 -0.7357 -0.7882
 3059TIP3   OH2 9119   0.519   3.359   4.182 -0.5279 -0.0926 -0.0588
 3059TIP3    H1 9120   0.450   3.299   4.154  0.3281 -0.7652 -0.8098
 3059TIP3    H2 9121   0.474   3.441   4.204 -1.4458 -0.1431 -1.6749
 3060TIP3   OH2 9122   6.232   1.493   2.020  0.0060  0.1273 -0.3570
 3060TIP3    H1 9123   6.152   1.494   2.072  1.2952  1.4572  1.6427
 3060TIP3    H2 9124   6.276   1.411   2.045 -0.0794  0.0453 -0.4720
 3061TIP3   OH2 9125   5.988   3.533   0.394 -0.4717 -0.0710  0.0706
 3061TIP3    H1 9126   6.066   3.588   0.392  0.0273 -0.7932 -0.5931
 3061TIP3    H2 9127   5.915   3.595   0.385  0.0351  0.5623  0.2441
 3062TIP3   OH2 9128   6.580   1.764   1.176 -0.5562  0.0716 -0.3021
 3062TIP3    H1 9129   6.629   1.800   1.251 -0.9124  1.0191 -0.5111
 3062TIP3    H2 9130   6.601   1.671   1.176  0.2878  0.2519  0.3457
 3063TIP3   OH2 9131   6.336   1.961   2.336 -0.2928  0.0811 -0.3551
 3063TIP3    H1 9132   6.341   1.923   2.248  0.7641  1.1817 -0.7795
 3063TIP3    H2 9133   6.410   1.923   2.383 -0.7387 -0.3502  0.0048
 3064TIP3   OH2 9134   4.292   2.764   3.445  0.4540 -0.0018  0.3083
 3064TIP3    H1 9135   4.265   2.715   3.523 -1.0482 -0.0630 -0.2270
 3064TIP3    H2 9136   4.279   2.856   3.469  0.6618  0.0105  0.3732
 3065TIP3   OH2 9137   3.730   7.912   4.706  0.3500  0.1515 -0.1381
 3065TIP3    H1 9138   3.807   7.882   4.658  0.9990 -0.1976  1.0979
 3065TIP3    H2 9139   3.741   8.007   4.713  0.8139  0.0684  0.2800
 3066TIP3   OH2 9140   3.266   7.222   2.444 -0.0226 -0.1242 -0.2668
 3066TIP3    H1 9141   3.312   7.146   2.478 -0.8480 -1.5090 -2.1861
 3066TIP3    H2 9142   3.194   7.237   2.505 -1.0043 -2.0700 -0.9249
 3067TIP3   OH2 9143   4.525   1.538   2.871 -0.1518  0.4898  0.1126
 3067TIP3    H1 9144   4.435   1.569   2.883 -0.5478  0.1520 -1.8210
 3067TIP3    H2 9145   4.518   1.473   2.801  1.3770 -0.6404  1.0040
 3068TIP3   OH2 9146   3.538   3.309   1.401 -0.3261  0.0955  0.2715
 3068TIP3    H1 9147   3.544   3.215   1.415  2.5345  0.1101 -0.5088
 3068TIP3    H2 9148   3.486   3.318   1.321 -1.3938 -0.7659  0.8558
 3069TIP3   OH2 9149   7.522   1.375   4.864 -0.1067 -0.2074  0.1634
 3069TIP3    H1 9150   7.543   1.282   4.861 -1.0035 -0.4108  0.0566
 3069TIP3    H2 9151   7.598   1.416   4.904  0.2787 -0.9913  0.2301
 3070TIP3   OH2 9152   7.454   0.153   0.726 -0.2573 -0.1199 -0.9000
 3070TIP3    H1 9153   7.361   0.139   0.708 -1.0825  2.4620  0.9521
 3070TIP3    H2 9154   7.473   0.239   0.689  1.1535 -0.2083 -0.4264
 3071TIP3   OH2 9155   6.845   1.774   2.063  0.1562  0.1243  0.1485
 3071TIP3    H1 9156   6.834   1.767   2.158  1.2424  0.7302  0.3319
 3071TIP3    H2 9157   6.826   1.866   2.043  0.4696  0.1293 -0.1348
 3072TIP3   OH2 9158   5.750   3.618   3.277  0.0168 -0.1125  0.2374
 3072TIP3    H1 9159   5.706   3.690   3.231  1.1220  0.6056  0.2989
 3072TIP3    H2 9160   5.716   3.539   3.235 -2.7502  0.3280  1.5083
 3073TIP3   OH2 9161   6.002   3.000   3.307  0.4251  0.2518 -0.3658
 3073TIP3    H1 9162   5.929   3.030   3.362 -1.8644 -2.1693 -1.9308
 3073TIP3    H2 9163   6.068   2.971   3.369  0.0241  2.2955  1.0990
 3074TIP3   OH2 9164   5.108   4.880   2.392  0.7309 -0.2829 -0.4368
 3074TIP3    H1 9165   5.112   4.870   2.487  0.5573  0.0935 -0.3911
 3074TIP3    H2 9166   5.198   4.899   2.366  0.9573 -1.3393 -0.4560
 3075TIP3   OH2 9167   6.756   3.397   2.007 -0.0767 -0.5027  0.1240
 3075TIP3    H1 9168   6.700   3.328   1.971  0.9479 -0.6095 -1.3345
 3075TIP3    H2 9169   6.750   3.468   1.943 -0.5769  0.5105  1.2664
 3076TIP3   OH2 9170   7.412   1.628   2.540  0.2780  0.1312  0.3940
 3076TIP3    H1 9171   7.458   1.603   2.460 -2.7435  0.5829 -1.5785
 3076TIP3    H2 9172   7.352   1.555   2.557 -2.3180  1.9892 -0.4155
 3077TIP3   OH2 9173   7.252   6.154   3.668 -0.5300  0.1119 -0.2062
 3077TIP3    H1 9174   7.192   6.174   3.740 -1.2010  1.9578 -1.2582
 3077TIP3    H2 9175   7.207   6.184   3.590  1.4217  0.7657 -1.1122
 3078TIP3   OH2 9176   0.153   0.667   4.239  0.0326 -0.0052 -0.3325
 3078TIP3    H1 9177   0.244   0.696   4.248  0.3187 -1.5158  2.3684
 3078TIP3    H2 9178   0.102   0.731   4.287  0.1434 -1.2814  1.5452
 3079TIP3   OH2 9179   4.250   2.707   1.795 -0.1213  0.6193  0.4716
 3079TIP3    H1 9180   4.275   2.650   1.868 -0.6615 -1.5455 -1.0214
 3079TIP3    H2 9181   4.324   2.703   1.734 -1.6755 -1.3824 -1.3329
 3080TIP3   OH2 9182   5.423   3.420   2.964  0.0118 -0.0087 -0.3746
 3080TIP3    H1 9183   5.454   3.383   2.882  0.1703  1.1221 -0.8185
 3080TIP3    H2 9184   5.409   3.512   2.946 -0.8661  0.0627  0.6055
 3081TIP3   OH2 9185   5.104   2.749   1.606 -0.5282  0.0323 -0.8602
 3081TIP3    H1 9186   5.136   2.677   1.659  0.9897  1.4954  0.2608
 3081TIP3    H2 9187   5.182   2.783   1.562 -1.1306  1.3046 -0.9764
 3082TIP3   OH2 9188   5.091   2.721   2.893 -0.0186  0.0657 -0.1113
 3082TIP3    H1 9189   5.164   2.661   2.906 -0.5467 -0.6763 -0.5253
 3082TIP3    H2 9190   5.051   2.730   2.980  0.7542  0.7286  0.1783
 3083TIP3   OH2 9191   5.367   4.225   1.140  0.0334  0.0461 -0.4247
 3083TIP3    H1 9192   5.286   4.189   1.104  0.2917 -0.1984 -0.7648
 3083TIP3    H2 9193   5.394   4.291   1.078 -0.2366  0.5725  0.0111
 3084TIP3   OH2 9194   7.830   3.110   0.629  0.1865 -0.4698  0.0193
 3084TIP3    H1 9195   7.789   3.189   0.594  1.2597  0.5595  1.0326
 3084TIP3    H2 9196   7.908   3.097   0.574 -0.1656 -1.0174 -0.3546
 3085TIP3   OH2 9197   5.582   2.583   2.124  0.1677 -0.2942  0.3638
 3085TIP3    H1 9198   5.569   2.518   2.192  1.1637 -0.6613  0.2104
 3085TIP3    H2 9199   5.559   2.666   2.165 -0.2772 -0.6411  0.8175
 3086TIP3   OH2 9200   6.373   4.779   2.213  0.2197  0.2529 -0.1295
 3086TIP3    H1 9201   6.406   4.689   2.207 -2.3706 -0.8668  1.8026
 3086TIP3    H2 9202   6.297   4.780   2.155 -0.9781  0.6034  1.4252
 3087TIP3   OH2 9203   5.785   1.738   2.854  0.4719 -0.8087  0.3114
 3087TIP3    H1 9204   5.867   1.699   2.823  0.6233 -0.4144  0.2027
 3087TIP3    H2 9205   5.729   1.742   2.776  1.4515  1.7184 -0.3363
 3088TIP3   OH2 9206   6.937   1.295   2.371  0.2610  0.3093 -0.1519
 3088TIP3    H1 9207   6.984   1.212   2.379 -0.5241 -0.4273 -2.8202
 3088TIP3    H2 9208   6.847   1.274   2.396 -0.0656  0.2237 -1.4012
 3089TIP3   OH2 9209   3.346   5.695   6.487  0.2074  0.4416  0.3323
 3089TIP3    H1 9210   3.274   5.708   6.548  0.1530  1.3109  0.0863
 3089TIP3    H2 9211   3.386   5.782   6.478  1.6678 -0.1522  0.9419
 3090TIP3   OH2 9212   4.431   1.698   2.044  0.2962 -0.4198 -1.0122
 3090TIP3    H1 9213   4.418   1.792   2.048 -0.0856 -0.5331  1.0547
 3090TIP3    H2 9214   4.344   1.662   2.027 -0.0090 -0.5169  0.6770
 3091TIP3   OH2 9215   4.685   2.713   0.936  0.4406 -0.2850 -0.3564
 3091TIP3    H1 9216   4.647   2.793   0.901 -0.8109 -0.6249  0.1974
 3091TIP3    H2 9217   4.680   2.724   1.031  2.6498  0.0894 -0.2518
 3092TIP3   OH2 9218   7.263   2.680   2.362  0.2882 -0.0853 -0.2530
 3092TIP3    H1 9219   7.212   2.740   2.307  0.0569  0.6333  0.7288
 3092TIP3    H2 9220   7.352   2.687   2.329  0.3539  1.1671  0.1407
 3093TIP3   OH2 9221   1.241   2.699   2.323 -0.2650  0.0313  0.7089
 3093TIP3    H1 9222   1.250   2.765   2.255  1.8087  0.3307  1.2355
 3093TIP3    H2 9223   1.241   2.616   2.277  1.6865  0.2040  0.3479
 3094TIP3   OH2 9224   7.711   0.664   0.080  0.7887 -0.0509  0.0517
 3094TIP3    H1 9225   7.806   0.654   0.087  0.6448 -0.6951  1.2596
 3094TIP3    H2 9226   7.685   0.603   0.011  1.2303 -0.0290 -0.1350
 3095TIP3   OH2 9227   4.881   2.553   0.845  0.3573 -0.3341 -0.4002
 3095TIP3    H1 9228   4.936   2.574   0.920  0.9732 -0.9253 -0.6849
 3095TIP3    H2 9229   4.796   2.592   0.866  0.3703 -0.9552  0.8503
 3096TIP3   OH2 9230   5.614   1.693   2.115 -0.2895  0.4920  0.7535
 3096TIP3    H1 9231   5.598   1.599   2.116  0.1746  0.4267  1.7906
 3096TIP3    H2 9232   5.527   1.731   2.098 -0.5539 -0.0976  0.7682
 3097TIP3   OH2 9233   6.181   3.082   4.435  0.1755  0.0763  0.1190
 3097TIP3    H1 9234   6.259   3.049   4.390 -0.5988  0.7126 -1.7760
 3097TIP3    H2 9235   6.115   3.014   4.422  0.1381 -0.0433  0.9092
 3098TIP3   OH2 9236   7.554   3.792   0.972  0.4663 -0.3498  0.8103
 3098TIP3    H1 9237   7.486   3.844   0.929  3.2251  3.0663  0.3597
 3098TIP3    H2 9238   7.512   3.759   1.051 -1.5833  2.0808  0.7947
 3099TIP3   OH2 9239   6.271   1.984   3.051  0.1082  0.1293  0.6053
 3099TIP3    H1 9240   6.306   1.895   3.060  0.5153  0.4323  2.1851
 3099TIP3    H2 9241   6.181   1.978   3.082  0.6052  0.5696  2.1774
 3100TIP3   OH2 9242   5.331   2.783   2.047 -0.1748 -0.6800 -0.0735
 3100TIP3    H1 9243   5.409   2.803   2.098 -0.1948  0.8972 -0.6191
 3100TIP3    H2 9244   5.351   2.701   2.003  1.5484  0.1794 -0.9264
 3101TIP3   OH2 9245   6.035   1.306   1.833 -0.1502  0.3012 -0.1516
 3101TIP3    H1 9246   6.004   1.229   1.880  0.7416  0.7475  1.1964
 3101TIP3    H2 9247   6.008   1.380   1.887  1.9576  0.7644  0.2851
 3102TIP3   OH2 9248   3.817   2.494   1.401  0.3941 -0.2841 -0.0066
 3102TIP3    H1 9249   3.805   2.467   1.492 -0.0435  1.2662  0.3998
 3102TIP3    H2 9250   3.729   2.512   1.369  0.7606  1.6523  0.0440
 3103TIP3   OH2 9251   7.001   2.144   3.077  0.1483 -0.6372  0.2423
 3103TIP3    H1 9252   6.913   2.106   3.087 -0.1964 -0.3670 -1.6698
 3103TIP3    H2 9253   6.999   2.186   2.991  1.5698  0.9607  0.9769
 3104TIP3   OH2 9254   6.367   3.216   3.540 -0.6194  0.4343 -0.1050
 3104TIP3    H1 9255   6.454   3.247   3.565 -0.8669  1.0839 -0.0430
 3104TIP3    H2 9256   6.309   3.249   3.608 -0.8416 -0.4741  0.1608
 3105TIP3   OH2 9257   8.266   2.561   1.794 -0.1840 -0.4661 -0.2920
 3105TIP3    H1 9258   8.221   2.507   1.729 -0.5773  0.9933 -1.2583
 3105TIP3    H2 9259   8.286   2.642   1.748  1.6837 -0.3388  0.7197
 3106TIP3   OH2 9260   7.186   3.610   1.761  0.2399  0.1818 -0.5086
 3106TIP3    H1 9261   7.206   3.703   1.770  1.9259 -0.2543  0.4327
 3106TIP3    H2 9262   7.222   3.569   1.839 -1.8957 -1.0681 -0.1343
 3107TIP3   OH2 9263   1.676   7.533   6.935  0.6487  0.0275 -0.0752
 3107TIP3    H1 9264   1.749   7.587   6.964 -0.8468  1.3632  1.2915
 3107TIP3    H2 9265   1.621   7.592   6.883  1.0749 -1.2381 -2.0271
 3108TIP3   OH2 9266   6.501   2.919   1.602  0.3454 -0.2150  0.0453
 3108TIP3    H1 9267   6.552   2.847   1.566  1.6538  0.5646  0.3220
 3108TIP3    H2 9268   6.563   2.968   1.656 -0.3361  1.5313 -0.7169
 3109TIP3   OH2 9269   0.808   4.134   3.190 -0.2066 -0.7752  0.0242
 3109TIP3    H1 9270   0.752   4.211   3.182 -0.6116 -1.0986 -0.2826
 3109TIP3    H2 9271   0.888   4.166   3.230 -0.1636 -0.0884 -0.5994
 3110TIP3   OH2 9272   7.442   2.789   2.582 -0.1423 -0.3978 -0.0615
 3110TIP3    H1 9273   7.385   2.717   2.556 -1.0631  0.3746 -0.1862
 3110TIP3    H2 9274   7.530   2.753   2.574 -0.5139 -1.0149 -1.6758
 3111TIP3   OH2 9275   6.867   2.729   2.891 -0.3268 -0.4211  0.3881
 3111TIP3    H1 9276   6.776   2.730   2.860 -0.1564 -1.2702 -0.1616
 3111TIP3    H2 9277   6.903   2.813   2.864 -1.5503  0.8232  2.4599
 3112TIP3   OH2 9278   6.883   2.754   4.520 -0.1222 -0.3169  0.1893
 3112TIP3    H1 9279   6.962   2.731   4.471 -0.6237 -0.3571 -0.6011
 3112TIP3    H2 9280   6.859   2.841   4.488 -0.0807 -0.0644  0.8361
 3113TIP3   OH2 9281   6.908   2.037   1.431 -0.1638  0.2430 -0.0027
 3113TIP3    H1 9282   6.991   2.027   1.385  0.7281 -0.5732  1.7059
 3113TIP3    H2 9283   6.933   2.060   1.520 -1.6867 -1.6332  0.9581
 3114TIP3   OH2 9284   5.661   1.369   2.593 -0.6300 -0.2658 -0.2035
 3114TIP3    H1 9285   5.584   1.344   2.542  0.4453  2.0058 -3.0406
 3114TIP3    H2 9286   5.626   1.424   2.664 -1.6825  0.1871 -1.0696
 3115TIP3   OH2 9287   0.681   4.449   1.707  0.3031  0.1087  0.1087
 3115TIP3    H1 9288   0.618   4.494   1.763 -0.9859 -0.4635 -0.8411
 3115TIP3    H2 9289   0.689   4.361   1.745 -2.3941 -1.0809 -1.8964
 3116TIP3   OH2 9290   6.414   3.536   3.264  0.1459 -0.0790  0.3712
 3116TIP3    H1 9291   6.492   3.485   3.241 -0.3609  0.5402 -2.9542
 3116TIP3    H2 9292   6.443   3.595   3.334  2.1497 -1.1187  0.4523
 3117TIP3   OH2 9293   8.283   1.719   0.096  0.0859 -0.6441 -0.5108
 3117TIP3    H1 9294   8.305   1.680   0.181  1.0049  0.3035 -0.3003
 3117TIP3    H2 9295   8.192   1.748   0.107 -0.1461 -1.4610 -0.2110
 3118TIP3   OH2 9296   5.084   2.074   4.033 -0.4803 -0.1819  0.5795
 3118TIP3    H1 9297   5.133   2.063   4.115 -0.9955 -0.5228  0.8429
 3118TIP3    H2 9298   5.004   2.120   4.059 -0.3157  0.3420  0.1563
 3119TIP3   OH2 9299   7.439   2.278   1.365 -0.1687  0.0792 -0.4203
 3119TIP3    H1 9300   7.460   2.363   1.402 -0.6426 -0.1119  0.3160
 3119TIP3    H2 9301   7.513   2.256   1.309 -0.5694  1.4810 -1.4995
 3120TIP3   OH2 9302   8.084   0.365   0.474 -0.2483  0.0319 -0.1007
 3120TIP3    H1 9303   8.120   0.298   0.416  1.4722  0.8421  0.0044
 3120TIP3    H2 9304   8.095   0.330   0.562 -0.6578 -0.1539 -0.1208
 3121TIP3   OH2 9305   2.309   4.784   6.652 -0.3821  0.2086 -0.6441
 3121TIP3    H1 9306   2.250   4.711   6.638 -0.3716 -0.2832  1.6165
 3121TIP3    H2 9307   2.387   4.763   6.601 -0.8106 -0.8394 -0.8678
 3122TIP3   OH2 9308   5.639   7.812   1.908 -0.3228  0.0292  0.4706
 3122TIP3    H1 9309   5.611   7.822   1.999  0.6744 -3.1013  1.1772
 3122TIP3    H2 9310   5.564   7.843   1.857 -1.5152  0.3386  2.3649
 3123TIP3   OH2 9311   7.613   3.131   1.983  0.0774  0.7004  0.0927
 3123TIP3    H1 9312   7.632   3.038   1.999  0.7751  0.9407  0.6763
 3123TIP3    H2 9313   7.518   3.133   1.967  0.1656 -0.2009 -0.5843
 3124TIP3   OH2 9314   0.133   2.726   0.733  0.1145  0.1200 -0.5662
 3124TIP3    H1 9315   0.220   2.696   0.760 -0.3849 -1.7082 -0.9079
 3124TIP3    H2 9316   0.109   2.792   0.798  2.6254  2.1952 -1.6529
 3125TIP3   OH2 9317   7.608   4.043   2.980  0.0081  0.1340 -0.2257
 3125TIP3    H1 9318   7.640   3.955   2.996  1.1336  0.4868 -0.4546
 3125TIP3    H2 9319   7.637   4.063   2.891  1.0722  1.2717  0.3517
 3126TIP3   OH2 9320   1.472   4.390   6.827 -0.5816 -0.2956  0.8748
 3126TIP3    H1 9321   1.518   4.361   6.749 -1.9526 -0.7156  0.2139
 3126TIP3    H2 9322   1.537   4.383   6.897  0.8523  0.6744 -0.3084
 3127TIP3   OH2 9323   0.569   2.224   1.635 -0.1980 -0.0612 -0.1636
 3127TIP3    H1 9324   0.532   2.137   1.626 -1.3760  0.4239 -0.0893
 3127TIP3    H2 9325   0.570   2.260   1.546  0.6444 -0.2935 -0.2496
 3128TIP3   OH2 9326   7.640   3.773   4.953  0.3025  0.5652 -0.5459
 3128TIP3    H1 9327   7.714   3.718   4.981  1.1839  2.5121  1.1351
 3128TIP3    H2 9328   7.570   3.752   5.015  0.0477  0.0568 -1.0025
 3129TIP3   OH2 9329   8.170   3.847   3.596 -0.0805  0.2360  0.1202
 3129TIP3    H1 9330   8.143   3.878   3.682  2.0254 -1.1108  1.3088
 3129TIP3    H2 9331   8.156   3.753   3.598 -3.0701  0.5366 -2.2155
 3130TIP3   OH2 9332   2.718   6.699   6.960 -0.2927 -0.2508  0.4813
 3130TIP3    H1 9333   2.713   6.685   6.866 -0.7023 -0.3633  0.5180
 3130TIP3    H2 9334   2.702   6.792   6.972 -1.2390 -0.4164  0.5140
 3131TIP3   OH2 9335   8.065   4.015   0.368 -0.1355 -0.3124 -0.5875
 3131TIP3    H1 9336   8.026   3.997   0.453  0.5210 -0.4632 -0.3174
 3131TIP3    H2 9337   8.059   3.932   0.321 -1.1928 -0.0307 -0.9766
 3132TIP3   OH2 9338   1.858   7.224   6.352 -0.2055  0.0826 -0.6439
 3132TIP3    H1 9339   1.780   7.258   6.395 -0.4952  1.2625 -2.0807
 3132TIP3    H2 9340   1.931   7.256   6.405 -0.6699 -0.5344  0.3665
 3133TIP3   OH2 9341   6.876   3.655   2.699  0.0445  0.0359  0.1949
 3133TIP3    H1 9342   6.841   3.567   2.685 -0.0932  0.2471 -0.8281
 3133TIP3    H2 9343   6.798   3.712   2.700  0.2695  0.3782 -1.0486
 3134TIP3   OH2 9344   8.114   1.161   0.211 -0.0210  0.8154 -0.1778
 3134TIP3    H1 9345   8.185   1.172   0.275 -0.9085  1.7210  0.6742
 3134TIP3    H2 9346   8.129   1.075   0.173 -0.4912 -0.5141  2.5351
 3135TIP3   OH2 9347   0.309   0.002   1.462 -0.8501  0.4980  0.0203
 3135TIP3    H1 9348   0.313   0.051   1.380 -0.4030  0.1020 -0.2016
 3135TIP3    H2 9349   0.377   0.041   1.517  0.4593 -0.7410 -0.6581
 3136TIP3   OH2 9350   6.429   2.337   0.673 -0.3254  0.3866 -0.6750
 3136TIP3    H1 9351   6.367   2.264   0.672  0.5592 -0.3774 -1.4444
 3136TIP3    H2 9352   6.394   2.400   0.611 -1.3398  0.8331  0.3425
 3137TIP3   OH2 9353   1.238   2.493   1.422  0.0544 -0.0741  0.8872
 3137TIP3    H1 9354   1.148   2.515   1.446  0.0164 -0.7051  1.3347
 3137TIP3    H2 9355   1.284   2.487   1.506  0.3875 -0.2862  0.6886
 3138TIP3   OH2 9356   8.423   1.927   1.032 -0.2730 -0.1607  0.8210
 3138TIP3    H1 9357   8.388   2.016   1.023  2.7152  0.7887 -2.9251
 3138TIP3    H2 9358   8.420   1.892   0.943  2.6825 -2.1809  1.4661
 3139TIP3   OH2 9359   7.348   3.036   1.364 -0.3931  0.2448  0.2915
 3139TIP3    H1 9360   7.396   3.109   1.405  1.0151 -0.3256 -0.3027
 3139TIP3    H2 9361   7.266   3.030   1.414  0.1932  1.1936  1.3950
 3140TIP3   OH2 9362   5.788   1.699   3.123 -0.2091 -0.0911  0.1862
 3140TIP3    H1 9363   5.724   1.767   3.147  0.3298  0.4424  0.1217
 3140TIP3    H2 9364   5.794   1.704   3.028 -1.1378 -1.1154  0.0656
 3141TIP3   OH2 9365   6.597   2.042   0.731 -0.0664  0.1690  0.6718
 3141TIP3    H1 9366   6.565   1.952   0.721 -0.3608  0.4148 -0.7819
 3141TIP3    H2 9367   6.517   2.095   0.740  0.1261  0.2267  2.1770
 3142TIP3   OH2 9368   4.876   6.994   1.809  0.0993 -0.3187 -0.2303
 3142TIP3    H1 9369   4.920   7.078   1.819  0.8346 -0.5057 -1.6538
 3142TIP3    H2 9370   4.897   6.946   1.889  2.0677 -0.2090 -0.6618
 3143TIP3   OH2 9371   0.266   2.110   0.246 -0.5126  0.0747 -0.0171
 3143TIP3    H1 9372   0.316   2.136   0.323  0.5362 -0.3316 -0.5599
 3143TIP3    H2 9373   0.224   2.028   0.270 -1.3982  0.7051  0.6374
 3144TIP3   OH2 9374   5.022   2.407   3.163 -0.1612 -0.1988  0.0153
 3144TIP3    H1 9375   4.929   2.404   3.186 -0.1156 -1.1900  0.0811
 3144TIP3    H2 9376   5.029   2.358   3.081  0.1974  0.5073 -0.3891
 3145TIP3   OH2 9377   3.803   7.973   3.621 -0.0948 -0.1424 -0.5191
 3145TIP3    H1 9378   3.889   8.006   3.596 -0.8921  0.0461 -3.0779
 3145TIP3    H2 9379   3.742   8.024   3.569 -1.5491 -3.0942 -1.7677
 3146TIP3   OH2 9380   8.059   2.772   2.726 -0.3211  0.4582  0.2982
 3146TIP3    H1 9381   8.123   2.794   2.793 -1.5618  0.9089  1.3503
 3146TIP3    H2 9382   8.112   2.754   2.648  0.9824  3.2062  0.4617
 3147TIP3   OH2 9383   1.690   4.072   0.684  0.1500  0.1468  0.3355
 3147TIP3    H1 9384   1.726   3.991   0.721 -0.0296 -0.8507 -1.5797
 3147TIP3    H2 9385   1.598   4.053   0.670  0.1342  0.6336 -0.2306
 3148TIP3   OH2 9386   8.418   2.880   5.272 -0.0962  0.3840  0.7377
 3148TIP3    H1 9387   8.438   2.787   5.255  0.6308  0.8418 -1.0322
 3148TIP3    H2 9388   8.359   2.878   5.347 -0.5570 -1.5527  0.3667
 3149TIP3   OH2 9389   0.264   3.733   1.957  0.1294  0.2299  0.7598
 3149TIP3    H1 9390   0.179   3.758   1.995 -0.8849 -1.1968 -0.5145
 3149TIP3    H2 9391   0.324   3.802   1.987 -1.3625  1.0171  2.0698
 3150TIP3   OH2 9392   1.601   1.483  -0.020 -0.2245  0.5344 -0.0927
 3150TIP3    H1 9393   1.593   1.403   0.031 -0.5738  0.1626 -0.7132
 3150TIP3    H2 9394   1.622   1.551   0.043  3.2149 -0.5926  0.0806
 3151TIP3   OH2 9395   6.820   4.217   1.767 -0.4783  0.8629  0.0082
 3151TIP3    H1 9396   6.766   4.286   1.806 -1.1868 -0.2925  1.1431
 3151TIP3    H2 9397   6.794   4.137   1.814 -0.4572 -0.3639 -2.0079
 3152TIP3   OH2 9398   0.207   1.734   2.177 -0.0013 -0.0916  0.7381
 3152TIP3    H1 9399   0.169   1.662   2.227 -0.4348  0.1344  0.7387
 3152TIP3    H2 9400   0.133   1.792   2.160  0.1442 -0.1592 -0.1465
 3153TIP3   OH2 9401   7.345   1.158   2.426  0.4744 -0.1912 -0.2987
 3153TIP3    H1 9402   7.342   1.248   2.392  1.1739  0.0932  0.3776
 3153TIP3    H2 9403   7.254   1.138   2.448  0.2786  0.2727 -0.6695
 3154TIP3   OH2 9404   0.421   3.331   0.269  0.4805  0.0509  0.3725
 3154TIP3    H1 9405   0.358   3.275   0.225  0.3975 -0.1067  0.6954
 3154TIP3    H2 9406   0.505   3.285   0.260  0.6536  0.5392 -0.5627
 3155TIP3   OH2 9407   0.214   2.787   2.199 -0.6336  0.3301 -0.6405
 3155TIP3    H1 9408   0.293   2.841   2.200 -0.1582 -0.3600  0.5873
 3155TIP3    H2 9409   0.167   2.811   2.279 -1.3480  0.2758 -1.0400
 3156TIP3   OH2 9410   7.064   3.211   1.955 -0.0832  0.0094  0.2427
 3156TIP3    H1 9411   7.039   3.263   1.879 -0.6653  0.2254  0.5859
 3156TIP3    H2 9412   7.070   3.274   2.027 -0.0154 -0.2729  0.4855
 3157TIP3   OH2 9413   5.515   3.608   2.251  0.6025 -0.0139 -0.1124
 3157TIP3    H1 9414   5.424   3.607   2.221  0.1229 -0.7104  1.2853
 3157TIP3    H2 9415   5.563   3.654   2.182 -0.7369 -0.0090 -1.0656
 3158TIP3   OH2 9416   6.402   0.052   3.122 -0.4518 -0.4959 -0.2957
 3158TIP3    H1 9417   6.313   0.075   3.095  0.3715  0.4479 -2.2736
 3158TIP3    H2 9418   6.429   0.124   3.179 -0.1044  0.4259 -1.6019
 3159TIP3   OH2 9419   8.019   3.237   3.702 -0.4509  0.1154 -0.0110
 3159TIP3    H1 9420   7.959   3.164   3.698  0.6881 -0.7451 -1.9303
 3159TIP3    H2 9421   8.095   3.204   3.751  0.7503 -0.5483 -2.2360
 3160TIP3   OH2 9422   6.926   4.272   1.227  0.4926  0.1024 -0.3628
 3160TIP3    H1 9423   6.843   4.318   1.220 -0.2317 -1.0611  0.3502
 3160TIP3    H2 9424   6.928   4.214   1.150  1.0687  0.7993 -0.8738
 3161TIP3   OH2 9425   3.212   5.089   6.189 -0.2200  0.5468 -0.1438
 3161TIP3    H1 9426   3.174   5.022   6.246 -0.9411  1.7739  0.8447
 3161TIP3    H2 9427   3.306   5.083   6.203 -0.1983 -0.8737 -0.7704
 3162TIP3   OH2 9428   0.310   1.775   2.516  0.5642  0.4744 -0.1996
 3162TIP3    H1 9429   0.356   1.782   2.600  2.0345  0.1481 -0.9551
 3162TIP3    H2 9430   0.360   1.709   2.467 -1.6572 -1.0728 -0.4533
 3163TIP3   OH2 9431   0.104   2.766   1.682  0.1819  0.6766 -0.3496
 3163TIP3    H1 9432   0.095   2.757   1.776  2.4181  1.2709 -0.0343
 3163TIP3    H2 9433   0.094   2.860   1.666 -0.1974  0.5768 -0.6977
 3164TIP3   OH2 9434   7.181   2.846   3.597 -0.4085 -0.4882  0.5239
 3164TIP3    H1 9435   7.120   2.919   3.608 -0.9340 -1.1528  2.1333
 3164TIP3    H2 9436   7.188   2.835   3.502 -0.0250  1.8900  0.2578
 3165TIP3   OH2 9437   6.848   1.386   3.448 -0.2126 -0.3995  0.7122
 3165TIP3    H1 9438   6.863   1.379   3.542 -0.3204 -0.7359  0.7070
 3165TIP3    H2 9439   6.818   1.299   3.423 -0.5034 -0.2182  0.4252
 3166TIP3   OH2 9440   0.307   2.975   0.145  0.6615 -0.0164  0.8381
 3166TIP3    H1 9441   0.256   3.056   0.142  0.6359 -0.0159  1.3367
 3166TIP3    H2 9442   0.348   2.970   0.058 -1.4974 -0.8592 -0.1719
 3167TIP3   OH2 9443   4.104   6.209   6.350 -0.4026  0.4819 -0.0637
 3167TIP3    H1 9444   4.057   6.185   6.270  0.1407  0.5820 -0.4211
 3167TIP3    H2 9445   4.138   6.125   6.383 -0.6483  0.4371  0.0700
 3168TIP3   OH2 9446   8.254   1.948   1.521 -0.7486  0.3476  0.0661
 3168TIP3    H1 9447   8.315   2.006   1.567 -1.2279  0.4277  0.6032
 3168TIP3    H2 9448   8.278   1.860   1.550 -0.9580  0.3871  0.3572
 3169TIP3   OH2 9449   4.439   1.351   3.088 -0.9561 -0.0916  0.1603
 3169TIP3    H1 9450   4.418   1.284   3.153  0.4908 -3.6700 -2.8712
 3169TIP3    H2 9451   4.532   1.368   3.100 -0.9881  0.2408 -0.0608
 3170TIP3   OH2 9452   6.583   2.226   4.332  0.2634  0.3020  0.0021
 3170TIP3    H1 9453   6.598   2.136   4.303  0.7899  0.4498 -0.1980
 3170TIP3    H2 9454   6.500   2.251   4.293 -1.2677 -1.0212  2.2841
 3171TIP3   OH2 9455   0.755   1.101   3.833 -0.3518 -0.0917  0.1273
 3171TIP3    H1 9456   0.696   1.048   3.886 -1.8307  1.8952  0.5429
 3171TIP3    H2 9457   0.744   1.068   3.744 -0.2583 -1.3441  0.5722
 3172TIP3   OH2 9458   0.669   1.127   2.331  0.3212  0.0421  0.1430
 3172TIP3    H1 9459   0.676   1.222   2.331 -2.6424  0.3119  0.0633
 3172TIP3    H2 9460   0.707   1.099   2.414  1.6607  1.2286 -0.0567
 3173TIP3   OH2 9461   3.664   7.140   3.797  0.6754 -0.0917 -0.6153
 3173TIP3    H1 9462   3.707   7.203   3.739  1.4008  0.7503  0.8031
 3173TIP3    H2 9463   3.598   7.191   3.844 -1.3715 -1.2112 -2.1875
 3174TIP3   OH2 9464   4.141   7.785   0.502 -0.4544  0.1292 -0.0042
 3174TIP3    H1 9465   4.217   7.832   0.468  0.2477 -1.4832 -0.6788
 3174TIP3    H2 9466   4.162   7.769   0.594 -0.5067  0.7297  0.1176
 3175TIP3   OH2 9467   0.301   1.967   3.686  0.8906  0.0751  0.0450
 3175TIP3    H1 9468   0.315   2.048   3.636  2.2198  0.4532  1.0031
 3175TIP3    H2 9469   0.236   1.919   3.635 -1.2217  2.5093  0.3419
 3176TIP3   OH2 9470   0.457   2.496   4.084 -0.1544  0.2333 -0.1627
 3176TIP3    H1 9471   0.539   2.547   4.081 -0.4863  0.7183 -1.0137
 3176TIP3    H2 9472   0.482   2.409   4.054  0.4891 -0.2290  1.6282
 3177TIP3   OH2 9473   7.863   2.207   2.256 -0.3901 -0.5393  0.2319
 3177TIP3    H1 9474   7.949   2.242   2.280 -0.5951 -0.0924  0.3240
 3177TIP3    H2 9475   7.854   2.127   2.308 -1.5932  1.3397  3.0753
 3178TIP3   OH2 9476   8.377   1.764   2.456  0.0876  0.2570 -0.1642
 3178TIP3    H1 9477   8.321   1.819   2.401  0.0317  2.0196  1.6008
 3178TIP3    H2 9478   8.466   1.787   2.431  0.0566  0.4900 -0.0566
 3179TIP3   OH2 9479   1.590   2.944   1.527 -0.0799 -0.1755  0.2032
 3179TIP3    H1 9480   1.674   2.970   1.491 -0.3243 -0.7293 -0.7697
 3179TIP3    H2 9481   1.546   3.027   1.548  0.4190  0.1246  0.0656
 3180TIP3   OH2 9482   7.310   2.191   1.727  0.4280  0.3225 -0.2297
 3180TIP3    H1 9483   7.331   2.105   1.691 -0.4675 -0.6756  1.5715
 3180TIP3    H2 9484   7.389   2.243   1.712  0.2105 -0.1432 -3.2716
 3181TIP3   OH2 9485   1.425   3.536   3.047  0.0661 -0.2589 -0.3475
 3181TIP3    H1 9486   1.485   3.589   2.994  1.6741  0.0938  1.7851
 3181TIP3    H2 9487   1.344   3.586   3.049  0.8347  0.9868 -0.2952
 3182TIP3   OH2 9488   6.999   1.519   3.249 -0.0689  0.0413 -0.1247
 3182TIP3    H1 9489   6.956   1.604   3.258 -0.0758 -0.1910  2.3292
 3182TIP3    H2 9490   6.962   1.466   3.319 -0.0975 -2.0094 -1.6763
 3183TIP3   OH2 9491   8.268   2.265   2.737  0.0904  0.1437  0.1036
 3183TIP3    H1 9492   8.264   2.341   2.796 -0.9606 -0.7231  1.1740
 3183TIP3    H2 9493   8.329   2.205   2.779  0.0075 -0.1136 -0.1437
 3184TIP3   OH2 9494   7.430   3.303   1.446 -0.0775 -0.2686  0.3664
 3184TIP3    H1 9495   7.410   3.381   1.498 -0.5717 -0.2848  0.2025
 3184TIP3    H2 9496   7.526   3.300   1.444 -0.0519  0.5806  0.0067
 3185TIP3   OH2 9497   7.199   3.190   2.658  0.2181  0.3787  0.1872
 3185TIP3    H1 9498   7.287   3.153   2.666  0.4906  1.2163  1.3093
 3185TIP3    H2 9499   7.178   3.185   2.565  0.9927 -0.8749  0.0782
 3186TIP3   OH2 9500   6.947   2.527   2.508 -0.2609  0.3326 -0.6218
 3186TIP3    H1 9501   6.945   2.516   2.603  2.2850 -2.8085 -0.8652
 3186TIP3    H2 9502   6.957   2.621   2.495  1.1328  0.6295  2.2464
 3187TIP3   OH2 9503   8.121   3.327   1.764 -0.1785  0.4740  0.0563
 3187TIP3    H1 9504   8.048   3.389   1.766 -0.0132  0.7320 -1.4338
 3187TIP3    H2 9505   8.190   3.369   1.816 -0.7883  0.6002  0.7757
 3188TIP3   OH2 9506   6.809   2.772   1.863  0.0338  0.1339 -0.1770
 3188TIP3    H1 9507   6.792   2.681   1.888 -0.9044  0.1394 -0.8041
 3188TIP3    H2 9508   6.837   2.767   1.772  0.1027  0.4629 -0.1743
 3189TIP3   OH2 9509   6.869   0.838   0.878  0.6332  0.7743 -0.2368
 3189TIP3    H1 9510   6.960   0.826   0.849  0.3986  0.4837 -0.8570
 3189TIP3    H2 9511   6.849   0.929   0.854  0.9553  1.0261  0.4422
 3190TIP3   OH2 9512   0.022   3.462   2.291  0.1335  0.3061 -0.2567
 3190TIP3    H1 9513   0.052   3.464   2.200  0.5336 -1.6698 -0.1812
 3190TIP3    H2 9514  -0.059   3.512   2.290 -0.1314 -0.1299 -1.8002
 3191TIP3   OH2 9515   5.399   2.974   4.843 -0.1291 -0.1920 -0.7322
 3191TIP3    H1 9516   5.378   2.886   4.812  0.5061 -0.4267 -0.4987
 3191TIP3    H2 9517   5.422   3.023   4.764  1.5683 -0.8120 -0.6506
 3192TIP3   OH2 9518   7.673   2.647   2.584  0.3881 -0.5762  0.1385
 3192TIP3    H1 9519   7.729   2.583   2.539  1.2234 -0.2836  0.7539
 3192TIP3    H2 9520   7.662   2.611   2.672  0.3509 -0.1863  0.2937
 3193TIP3   OH2 9521   7.647   2.613   1.747 -0.0209 -0.6869  0.4528
 3193TIP3    H1 9522   7.706   2.553   1.702 -0.1044  0.9327 -1.8982
 3193TIP3    H2 9523   7.666   2.600   1.840  1.6661 -2.5679 -0.1223
 3194TIP3   OH2 9524   2.554   7.938   1.405 -0.2377 -0.2311 -0.6422
 3194TIP3    H1 9525   2.611   7.883   1.352  1.0659  2.1319 -1.7726
 3194TIP3    H2 9526   2.467   7.900   1.395  0.1438 -0.3735 -3.7032
 3195TIP3   OH2 9527   8.173   2.019   4.710  0.2414 -0.1924 -0.3088
 3195TIP3    H1 9528   8.211   1.984   4.630  1.0032  0.3779 -0.2013
 3195TIP3    H2 9529   8.080   2.031   4.689  0.6399  0.9412 -1.4382
 3196TIP3   OH2 9530   6.643   1.631   2.641  0.3480 -0.0748  0.4006
 3196TIP3    H1 9531   6.694   1.577   2.580 -0.0440 -0.6730  0.5986
 3196TIP3    H2 9532   6.586   1.683   2.585  0.0263 -0.5866  0.2424
 3197TIP3   OH2 9533   6.473   2.436   1.883 -0.2042 -0.4252  0.5713
 3197TIP3    H1 9534   6.430   2.490   1.817 -0.2721  0.5635  1.4265
 3197TIP3    H2 9535   6.439   2.348   1.868 -1.0983  0.0098  0.0432
 3198TIP3   OH2 9536   7.349   1.911   2.600 -0.2108 -0.0173 -0.0266
 3198TIP3    H1 9537   7.375   1.928   2.690  2.5372 -0.7114 -0.6252
 3198TIP3    H2 9538   7.392   1.828   2.578 -1.7467 -0.4259 -1.6274
 3199TIP3   OH2 9539   7.531   3.741   1.748 -0.4738 -0.2202  0.1068
 3199TIP3    H1 9540   7.524   3.808   1.816 -2.2395  0.1892 -0.4496
 3199TIP3    H2 9541   7.617   3.702   1.762 -0.0154  1.1732  1.3537
 3200TIP3   OH2 9542   5.424   2.440   4.477 -0.1319  0.5217  0.6978
 3200TIP3    H1 9543   5.399   2.382   4.549 -0.4214 -1.3510 -0.8771
 3200TIP3    H2 9544   5.369   2.413   4.404  0.7153  1.8715 -0.4618
 3201TIP3   OH2 9545   0.180   3.458   2.076 -0.0191 -0.5681 -0.0303
 3201TIP3    H1 9546   0.205   3.398   2.005  0.0627  0.9754 -1.3363
 3201TIP3    H2 9547   0.189   3.545   2.038 -0.3295  0.2805  1.7846
 3202TIP3   OH2 9548   8.349   5.161   2.464 -0.1602 -0.2109 -0.4373
 3202TIP3    H1 9549   8.390   5.184   2.380  1.1604  0.7015  0.4468
 3202TIP3    H2 9550   8.283   5.229   2.477 -0.3512 -0.3403 -0.7305
 3203TIP3   OH2 9551   0.091   2.216   0.035 -0.9390  0.2217  0.1810
 3203TIP3    H1 9552   0.064   2.305   0.060  0.2985  0.8656 -0.7322
 3203TIP3    H2 9553   0.153   2.190   0.103 -1.0136  0.1901  0.2382
 3204TIP3   OH2 9554   6.949   3.042   3.601 -0.1396 -0.3342 -0.1760
 3204TIP3    H1 9555   6.918   3.009   3.517 -0.0874 -2.6637  0.6698
 3204TIP3    H2 9556   6.876   3.029   3.661  1.4954 -3.5945  1.2740
 3205TIP3   OH2 9557   7.981   0.489   3.529  0.0217  0.7824  0.9325
 3205TIP3    H1 9558   7.927   0.423   3.574 -1.2323  1.5187  0.5529
 3205TIP3    H2 9559   7.918   0.557   3.503  0.6615  0.3326 -2.0174
 3206TIP3   OH2 9560   6.777   4.091   2.663 -0.3055  0.9866  0.2518
 3206TIP3    H1 9561   6.871   4.102   2.654 -0.0362 -1.2415  0.1014
 3206TIP3    H2 9562   6.763   4.075   2.756 -0.5273  1.0943  0.2396
 3207TIP3   OH2 9563   4.104   7.590   1.379  0.3844  0.2567  0.1726
 3207TIP3    H1 9564   4.051   7.666   1.355  0.2904  0.1365 -0.0086
 3207TIP3    H2 9565   4.102   7.534   1.301 -1.3817 -0.9618  1.0478
 3208TIP3   OH2 9566   2.294   5.693   6.733  0.5842 -0.5334  0.0363
 3208TIP3    H1 9567   2.356   5.631   6.693 -1.1284 -1.4401 -1.2928
 3208TIP3    H2 9568   2.322   5.699   6.824  0.9355 -3.1478  0.1596
 3209TIP3   OH2 9569   0.530   2.639   1.492  0.2421  0.6049  0.1987
 3209TIP3    H1 9570   0.481   2.632   1.574  1.3208  1.1519  0.9162
 3209TIP3    H2 9571   0.583   2.718   1.503  0.2668  0.7776 -1.1020
 3210TIP3   OH2 9572   7.137   2.155   0.818  0.2176  0.1633  0.3353
 3210TIP3    H1 9573   7.050   2.144   0.858 -0.0132  0.9452  0.0528
 3210TIP3    H2 9574   7.197   2.111   0.879 -0.4597 -1.0589  0.1419
 3211TIP3   OH2 9575   6.553   1.231   0.833  0.2990  0.1551 -0.2373
 3211TIP3    H1 9576   6.482   1.264   0.779  0.4985  1.7549  0.4700
 3211TIP3    H2 9577   6.512   1.204   0.915  0.3607  0.1020 -0.2232
 3212TIP3   OH2 9578   5.475   1.196   2.791  0.0048  0.2888 -0.3850
 3212TIP3    H1 9579   5.450   1.131   2.725 -0.3359  1.1603 -1.1105
 3212TIP3    H2 9580   5.416   1.269   2.777 -0.0417  0.4965  0.8686
 3213TIP3   OH2 9581   6.274   0.689   3.192  0.2944  0.0889  0.2219
 3213TIP3    H1 9582   6.222   0.703   3.271  1.2128  2.2161  0.5019
 3213TIP3    H2 9583   6.354   0.646   3.223  0.5126  0.6290  0.4188
 3214TIP3   OH2 9584   0.351   5.506   6.304  0.1495  0.6999  0.1586
 3214TIP3    H1 9585   0.320   5.472   6.219 -1.2793 -0.4198  1.1060
 3214TIP3    H2 9586   0.299   5.584   6.319  2.5083  2.6581 -1.3855
 3215TIP3   OH2 9587  -0.015   2.750   4.916  0.4837  0.0809  0.9563
 3215TIP3    H1 9588   0.020   2.686   4.854  0.3544 -0.3794  1.3470
 3215TIP3    H2 9589   0.061   2.800   4.946  0.7799 -0.7692  1.6424
 3216TIP3   OH2 9590   0.142   4.952   3.193 -0.7543  0.5234 -0.3343
 3216TIP3    H1 9591   0.172   5.004   3.267  1.0971 -0.6583 -0.2269
 3216TIP3    H2 9592   0.150   4.861   3.222 -0.1510  0.0553 -1.9275
 3217TIP3   OH2 9593   0.654   4.063   4.463 -0.0320  0.2710 -0.0773
 3217TIP3    H1 9594   0.722   4.001   4.490 -1.1531 -0.7588  0.4758
 3217TIP3    H2 9595   0.614   4.092   4.546  2.1001  3.6666 -0.1638
 3218TIP3   OH2 9596   8.052   4.146   4.225 -0.0376  0.5532 -0.0454
 3218TIP3    H1 9597   8.050   4.241   4.215 -3.0767  0.5855  0.1633
 3218TIP3    H2 9598   7.995   4.113   4.155 -0.3373 -0.9770  0.8718
 3219TIP3   OH2 9599   0.391   5.718   1.844 -0.0944 -0.0616  0.2895
 3219TIP3    H1 9600   0.385   5.627   1.871 -0.5622  0.2847  1.3518
 3219TIP3    H2 9601   0.429   5.714   1.756  1.2862 -1.1964  0.9206
 3220TIP3   OH2 9602   5.898   2.857   2.821  0.3145  0.2113 -0.1335
 3220TIP3    H1 9603   5.868   2.837   2.910 -0.2174 -1.0369 -0.5966
 3220TIP3    H2 9604   5.976   2.912   2.835 -1.0350  1.8899  1.0799
 3221TIP3   OH2 9605   0.405   1.728   4.207  0.1114 -0.2441 -0.3623
 3221TIP3    H1 9606   0.491   1.725   4.251  0.1401  1.1396 -0.3024
 3221TIP3    H2 9607   0.404   1.649   4.153 -0.1413 -2.2913  2.5067
 3222TIP3   OH2 9608   0.596   3.201   4.414  0.2181  0.1951  0.2757
 3222TIP3    H1 9609   0.553   3.252   4.345  0.1328 -1.7107 -1.1229
 3222TIP3    H2 9610   0.680   3.176   4.377  0.6256  0.0441  1.2804
 3223TIP3   OH2 9611   7.374   5.043   3.533 -0.0116  0.2307 -0.1385
 3223TIP3    H1 9612   7.330   5.016   3.452 -0.0921  0.1655 -0.0725
 3223TIP3    H2 9613   7.334   5.127   3.556  0.5223  0.6051 -0.5624
 3224TIP3   OH2 9614   1.834   1.617   4.102  0.6119  0.1550  0.2647
 3224TIP3    H1 9615   1.766   1.641   4.166  0.5535 -1.3627  0.7752
 3224TIP3    H2 9616   1.896   1.690   4.104  0.1236  0.5382  1.3773
 3225TIP3   OH2 9617   1.175   2.588   2.703 -0.2002 -0.0099  0.2854
 3225TIP3    H1 9618   1.122   2.637   2.765 -0.0754  1.3660 -0.6610
 3225TIP3    H2 9619   1.234   2.653   2.665  1.5973 -1.3637  0.7216
 3226TIP3   OH2 9620   8.344   2.135   3.307 -0.2307  0.2073  0.0492
 3226TIP3    H1 9621   8.284   2.069   3.272 -2.6179  2.8428 -1.1430
 3226TIP3    H2 9622   8.308   2.156   3.393  0.6168 -0.1691  0.4945
 3227TIP3   OH2 9623   7.520   1.032   4.238 -0.1179  0.0091  0.2110
 3227TIP3    H1 9624   7.585   1.042   4.307 -0.4337  1.0126  0.3664
 3227TIP3    H2 9625   7.459   1.105   4.251  0.8165  1.2858 -2.1838
 3228TIP3   OH2 9626   2.340   1.710   1.819 -0.3872  0.2382  0.0903
 3228TIP3    H1 9627   2.360   1.683   1.729  2.3231  0.1316  0.6849
 3228TIP3    H2 9628   2.273   1.777   1.809 -0.5338 -0.1787 -1.9849
 3229TIP3   OH2 9629   7.375   4.423   4.696 -0.3778 -0.1852  0.2266
 3229TIP3    H1 9630   7.307   4.476   4.738 -1.5902 -1.4762 -0.0545
 3229TIP3    H2 9631   7.389   4.351   4.757 -0.0809 -0.5309 -0.2551
 3230TIP3   OH2 9632   0.768   2.639   3.070 -0.1514 -0.3659 -0.1946
 3230TIP3    H1 9633   0.694   2.695   3.049 -0.3574 -0.5847 -0.0543
 3230TIP3    H2 9634   0.747   2.600   3.155 -1.1374 -2.5130 -1.3700
 3231TIP3   OH2 9635   7.978   3.880   3.361  0.0048 -0.5755 -0.6380
 3231TIP3    H1 9636   7.920   3.909   3.290  1.3562 -1.2546 -2.0570
 3231TIP3    H2 9637   7.927   3.815   3.409 -1.2613  0.5655 -0.4119
 3232TIP3   OH2 9638   8.083   3.458   2.957  0.5191 -0.1755 -0.3579
 3232TIP3    H1 9639   8.106   3.409   3.036 -0.6783  0.9113  0.6937
 3232TIP3    H2 9640   8.087   3.394   2.887  0.4740 -1.4357  0.7669
 3233TIP3   OH2 9641   8.148   4.778   3.857 -0.7285  0.5516 -0.5709
 3233TIP3    H1 9642   8.185   4.861   3.886 -3.3630  1.0078  1.6154
 3233TIP3    H2 9643   8.135   4.789   3.763  0.0449  2.1635 -0.5017
 3234TIP3   OH2 9644   0.190   0.198   2.611 -0.0847  0.3362  0.8539
 3234TIP3    H1 9645   0.207   0.287   2.581 -0.0357  0.1351  0.2815
 3234TIP3    H2 9646   0.150   0.209   2.698 -1.5775  0.9730  0.0975
 3235TIP3   OH2 9647   7.700   4.566   4.779 -0.2549  0.4815 -0.1091
 3235TIP3    H1 9648   7.787   4.600   4.760  1.5369 -3.9213 -0.1920
 3235TIP3    H2 9649   7.715   4.486   4.829 -4.2622 -0.2874  0.0367
 3236TIP3   OH2 9650   8.516   3.127   5.208 -0.2011  0.8089  0.3090
 3236TIP3    H1 9651   8.461   3.191   5.252 -0.9650 -0.2297  0.8704
 3236TIP3    H2 9652   8.470   3.044   5.218 -0.3167  0.5123 -2.3182
 3237TIP3   OH2 9653   1.719   4.216   3.119 -0.3891 -0.3016  0.5635
 3237TIP3    H1 9654   1.747   4.225   3.028  1.6875  1.4955  1.3581
 3237TIP3    H2 9655   1.780   4.270   3.169 -4.9013  3.4218  2.4380
 3238TIP3   OH2 9656   1.325   2.339   3.671  0.3028 -0.0966  0.1514
 3238TIP3    H1 9657   1.337   2.245   3.683 -1.9163 -0.2698  1.2230
 3238TIP3    H2 9658   1.242   2.347   3.624 -0.3320  1.3619  1.4561
 3239TIP3   OH2 9659   7.780   3.281   3.209 -0.1362 -0.1405  0.1428
 3239TIP3    H1 9660   7.694   3.304   3.245  1.3188  2.4905  2.1729
 3239TIP3    H2 9661   7.804   3.356   3.155  1.8316  0.2228  1.4431
 3240TIP3   OH2 9662   0.058   3.017   2.959  0.2123 -0.2786 -0.5853
 3240TIP3    H1 9663  -0.001   3.048   2.891  0.9815  2.0225 -0.2340
 3240TIP3    H2 9664   0.142   3.059   2.940  1.4497 -2.6142 -0.4219
 3241TIP3   OH2 9665   0.912   4.793   2.230 -0.0517  0.1222 -0.0039
 3241TIP3    H1 9666   0.939   4.885   2.219 -0.7549  0.2366 -0.8709
 3241TIP3    H2 9667   0.991   4.743   2.212  0.1987  0.5474 -0.1014
 3242TIP3   OH2 9668   1.947   3.489   4.154 -0.5198 -0.7805 -0.1876
 3242TIP3    H1 9669   1.998   3.501   4.074 -0.8913  0.7581 -0.2132
 3242TIP3    H2 9670   1.868   3.541   4.140  0.1314  0.8025  1.8122
 3243TIP3   OH2 9671   7.931   2.889   4.659 -1.0205 -0.0641 -0.6703
 3243TIP3    H1 9672   7.990   2.930   4.722  1.0431 -0.6403 -2.1994
 3243TIP3    H2 9673   7.929   2.797   4.685  0.2685 -0.4118 -1.7372
 3244TIP3   OH2 9674   1.997   3.296   3.781  0.0438 -0.4958 -0.3740
 3244TIP3    H1 9675   1.928   3.335   3.834 -0.1134 -0.8605 -0.3059
 3244TIP3    H2 9676   1.992   3.343   3.698  0.0684 -0.1534 -0.1831
 3245TIP3   OH2 9677   1.662   2.270   4.273 -0.2586 -0.4921  0.0223
 3245TIP3    H1 9678   1.672   2.280   4.368 -2.0321  0.4349  0.1381
 3245TIP3    H2 9679   1.570   2.293   4.256  0.5016  1.0974 -2.1453
 3246TIP3   OH2 9680   0.377   4.045   3.564  0.1948 -0.1023  0.4970
 3246TIP3    H1 9681   0.297   4.087   3.532 -0.8171 -0.3845  2.5274
 3246TIP3    H2 9682   0.440   4.055   3.493 -1.2053  1.4260 -0.5757
 3247TIP3   OH2 9683   1.861   1.604   3.742 -0.3765 -0.0099  0.6080
 3247TIP3    H1 9684   1.890   1.683   3.787  0.1921  0.2701 -0.2440
 3247TIP3    H2 9685   1.794   1.635   3.682 -0.2102 -0.1913  0.3309
 3248TIP3   OH2 9686   7.851   2.362   2.996  0.3194 -0.7229 -0.4086
 3248TIP3    H1 9687   7.875   2.408   2.915  0.7203 -1.0665 -0.4821
 3248TIP3    H2 9688   7.871   2.425   3.065 -0.9299 -0.0548 -0.6297
 3249TIP3   OH2 9689   7.647   4.069   4.993 -0.1088  0.4782 -0.8553
 3249TIP3    H1 9690   7.636   3.977   4.967 -1.6396  0.0493  1.2179
 3249TIP3    H2 9691   7.678   4.064   5.084  1.7978  2.0011 -1.3958
 3250TIP3   OH2 9692   6.396   4.027   3.005  0.0490  0.0408  0.2487
 3250TIP3    H1 9693   6.301   4.024   2.997 -0.0685 -0.3414  1.6270
 3250TIP3    H2 9694   6.412   4.023   3.099  1.4134  0.6817  0.0500
 3251TIP3   OH2 9695   7.723   3.322   5.047  0.5538 -0.3790 -0.2181
 3251TIP3    H1 9696   7.699   3.336   5.139 -1.8689  2.1960 -1.1699
 3251TIP3    H2 9697   7.649   3.274   5.010  0.5381  0.4704 -1.3174
 3252TIP3   OH2 9698   0.812   5.150   3.007 -0.2312  0.1366  0.0032
 3252TIP3    H1 9699   0.720   5.124   2.999 -0.5693  0.6046  1.9997
 3252TIP3    H2 9700   0.812   5.215   3.077  1.3581  1.5926 -1.3310
 3253TIP3   OH2 9701   8.064   4.934   4.736  0.7070 -0.0601  0.0542
 3253TIP3    H1 9702   8.160   4.936   4.733  0.7566 -1.1728  0.4518
 3253TIP3    H2 9703   8.041   4.991   4.810  1.0577  0.2511 -0.0738
 3254TIP3   OH2 9704   2.285   3.836   2.408  0.1483  0.1603  0.1201
 3254TIP3    H1 9705   2.362   3.879   2.445 -0.9003  0.6856  1.7275
 3254TIP3    H2 9706   2.245   3.902   2.352  0.5707  0.0544 -0.3133
 3255TIP3   OH2 9707   6.782   3.031   2.768 -0.0654 -0.8567  0.1537
 3255TIP3    H1 9708   6.690   3.042   2.793 -0.1121  0.2700 -0.4821
 3255TIP3    H2 9709   6.785   3.057   2.676  0.3073 -3.9174 -0.7514
 3256TIP3   OH2 9710   1.990   5.116   3.902  0.7746 -0.4738 -0.2717
 3256TIP3    H1 9711   1.995   5.043   3.963  0.4227 -0.2632  0.0201
 3256TIP3    H2 9712   1.961   5.190   3.956  1.3696 -0.0625 -0.5117
 3257TIP3   OH2 9713   8.301   2.767   4.375  0.3040  0.5261  0.0432
 3257TIP3    H1 9714   8.232   2.703   4.389  0.7330  0.6096  2.7582
 3257TIP3    H2 9715   8.275   2.843   4.427  2.9774  0.1082  2.1653
 3258TIP3   OH2 9716   0.007   1.034   2.938 -0.4093  0.4488  0.4114
 3258TIP3    H1 9717   0.077   1.029   2.873 -1.4870  1.9346 -0.9036
 3258TIP3    H2 9718  -0.032   1.121   2.926 -1.4057  0.2988  2.2451
 3259TIP3   OH2 9719   0.237   6.871   3.166  0.2003 -0.0400  0.1673
 3259TIP3    H1 9720   0.273   6.938   3.108  1.6281 -0.8915  0.0306
 3259TIP3    H2 9721   0.314   6.829   3.205 -0.7004 -0.7334  1.2388
 3260TIP3   OH2 9722   8.462   3.077   2.690 -0.0607  0.3039 -0.4418
 3260TIP3    H1 9723   8.387   3.055   2.634 -1.2530 -0.6588  1.4665
 3260TIP3    H2 9724   8.471   3.172   2.683 -2.2122  0.5872  0.1629
 3261TIP3   OH2 9725   0.574   3.603   2.486 -0.1385 -0.1437 -0.2010
 3261TIP3    H1 9726   0.631   3.541   2.532 -1.5760 -1.3197  0.0455
 3261TIP3    H2 9727   0.502   3.618   2.547  0.8277  2.8046  0.2732
 3262TIP3   OH2 9728   0.231   4.371   6.406 -0.5465 -0.1447 -0.4215
 3262TIP3    H1 9729   0.226   4.418   6.489  1.5421  0.0163 -0.3743
 3262TIP3    H2 9730   0.200   4.283   6.427  3.0151 -1.0672  1.3011
 3263TIP3   OH2 9731   7.456   1.649   5.265  0.1635  0.0228  0.1291
 3263TIP3    H1 9732   7.445   1.711   5.336 -0.8180  0.2555 -0.2207
 3263TIP3    H2 9733   7.414   1.568   5.297 -0.7257  0.2779 -0.3725
 3264TIP3   OH2 9734   1.994   0.398   4.694  0.8342 -0.0767  0.6400
 3264TIP3    H1 9735   2.081   0.436   4.684  0.1069  1.4187 -0.3465
 3264TIP3    H2 9736   1.939   0.471   4.722 -0.0359 -1.0872  1.6352
 3265TIP3   OH2 9737   7.773   4.357   4.348 -0.1188  0.1866  1.0949
 3265TIP3    H1 9738   7.862   4.369   4.315  0.3199 -1.7385  1.5379
 3265TIP3    H2 9739   7.781   4.372   4.442 -0.6285  1.8331  0.8880
 3266TIP3   OH2 9740   0.124   2.761   3.121  0.2791 -0.1246  0.3791
 3266TIP3    H1 9741   0.086   2.847   3.109 -0.8372 -1.0820 -3.8103
 3266TIP3    H2 9742   0.053   2.708   3.158 -0.9074 -0.6209 -2.5140
 3267TIP3   OH2 9743   8.076   0.567   2.630  0.4330 -0.2336 -0.3455
 3267TIP3    H1 9744   8.040   0.495   2.682  1.4520 -0.7784 -0.3803
 3267TIP3    H2 9745   8.109   0.629   2.694  0.3207 -0.1918 -0.3279
 3268TIP3   OH2 9746   8.170   3.246   3.175  0.1336  0.3354  0.0059
 3268TIP3    H1 9747   8.108   3.182   3.141 -1.0470  1.1847  0.5345
 3268TIP3    H2 9748   8.227   3.196   3.234  1.0381 -0.7827 -1.7836
 3269TIP3   OH2 9749   0.007   3.777   3.118 -0.3738 -0.2996 -0.1303
 3269TIP3    H1 9750   0.094   3.790   3.156  0.5374  1.5097 -2.7616
 3269TIP3    H2 9751  -0.026   3.698   3.162  1.8746 -0.0490  2.1247
 3270TIP3   OH2 9752   8.294   4.007   5.247 -0.2703  0.1045 -0.0565
 3270TIP3    H1 9753   8.316   4.000   5.154  3.6898 -0.4779  0.8151
 3270TIP3    H2 9754   8.278   4.100   5.261  0.7414  0.4478 -1.0298
 3271TIP3   OH2 9755   0.732   1.787   4.364  0.1566 -0.4177  0.6984
 3271TIP3    H1 9756   0.766   1.840   4.292  0.9401 -1.4658  0.2769
 3271TIP3    H2 9757   0.661   1.839   4.401 -1.0577 -0.3657 -1.5820
 3272TIP3   OH2 9758   7.037   7.823   4.118  0.3737  0.2237  0.0765
 3272TIP3    H1 9759   7.096   7.748   4.128  0.0015 -0.0732  0.1057
 3272TIP3    H2 9760   7.086   7.898   4.152  0.7548 -0.0077  0.0359
 3273TIP3   OH2 9761   8.324   4.012   3.015 -0.4215 -0.2844  0.4265
 3273TIP3    H1 9762   8.391   3.946   2.999 -0.8893 -0.4820 -0.8024
 3273TIP3    H2 9763   8.357   4.091   2.973  0.3297  0.3907  2.2561
 3274TIP3   OH2 9764   8.099   0.917   4.565 -0.4431 -0.1910 -0.7458
 3274TIP3    H1 9765   8.038   0.913   4.639  0.3773  0.6010 -0.0197
 3274TIP3    H2 9766   8.118   1.010   4.555  1.7645 -0.5541 -0.0388
 3275TIP3   OH2 9767   2.038   3.066   1.563 -0.1292 -0.7177  0.6216
 3275TIP3    H1 9768   2.109   3.077   1.500  0.0333  0.8446  1.0709
 3275TIP3    H2 9769   1.959   3.060   1.510  0.0343  0.3270  0.2579
 3276TIP3   OH2 9770   0.006   1.578   3.754  0.4503 -0.0169  0.0287
 3276TIP3    H1 9771  -0.056   1.649   3.735  0.6991  1.1076  3.2290
 3276TIP3    H2 9772   0.091   1.622   3.760  0.8910 -0.8788  0.0944
 3277TIP3   OH2 9773   8.177   4.196   3.814 -0.6074  0.0324 -0.2414
 3277TIP3    H1 9774   8.089   4.225   3.788 -0.6476  0.7154  0.6394
 3277TIP3    H2 9775   8.165   4.104   3.840 -1.5536  0.8076  2.2161
 3278TIP3   OH2 9776   7.629   7.229   1.740 -0.8070 -0.7331  0.4329
 3278TIP3    H1 9777   7.558   7.233   1.676 -1.3726  1.6189  1.1634
 3278TIP3    H2 9778   7.604   7.157   1.799 -0.1477 -3.0910 -2.0758
 3279TIP3   OH2 9779   8.356   3.254   3.396  0.2505 -0.2890  0.0539
 3279TIP3    H1 9780   8.304   3.334   3.383 -0.0293 -0.5488 -0.4601
 3279TIP3    H2 9781   8.370   3.250   3.491 -0.0578  0.1707  0.1236
 3280TIP3   OH2 9782   7.655   4.377   3.738  0.5267 -0.6555 -0.1986
 3280TIP3    H1 9783   7.610   4.376   3.653 -2.2448  0.0405  1.1887
 3280TIP3    H2 9784   7.619   4.301   3.785 -0.2609  0.7281  1.4666
 3281TIP3   OH2 9785   7.859   1.932   4.928 -0.1313  0.0894 -0.1408
 3281TIP3    H1 9786   7.882   1.865   4.993  0.6859  0.3634 -0.1330
 3281TIP3    H2 9787   7.935   1.991   4.927 -0.5588  0.6385 -0.6323
 3282TIP3   OH2 9788   0.225   3.188   4.746 -0.3418  0.2230  0.2154
 3282TIP3    H1 9789   0.212   3.282   4.743  0.0412  0.2534 -1.0865
 3282TIP3    H2 9790   0.168   3.157   4.816  1.7818  1.7494  2.7145
 3283TIP3   OH2 9791   1.564   0.796   3.436 -0.2528 -0.2240 -0.1907
 3283TIP3    H1 9792   1.482   0.833   3.405 -0.5428 -0.0847  0.7279
 3283TIP3    H2 9793   1.612   0.774   3.356 -0.3211  1.5595 -0.7385
 3284TIP3   OH2 9794   0.745   5.053   3.378 -0.7547 -0.1265  0.1553
 3284TIP3    H1 9795   0.730   4.988   3.310  1.2323 -1.4184  0.8925
 3284TIP3    H2 9796   0.662   5.059   3.425 -1.2271 -1.4384 -0.5056
 3285TIP3   OH2 9797   1.389   2.139   6.544  0.1454 -0.4654 -0.3226
 3285TIP3    H1 9798   1.317   2.176   6.493  0.2496  1.4993  0.8849
 3285TIP3    H2 9799   1.357   2.141   6.635  0.7166 -2.0413 -0.0769
 3286TIP3   OH2 9800   0.559   3.899   2.643 -0.5653 -0.4219 -0.2058
 3286TIP3    H1 9801   0.495   3.867   2.579 -1.1907 -0.6865  0.5416
 3286TIP3    H2 9802   0.616   3.958   2.593  0.1627 -2.1384 -1.4368
 3287TIP3   OH2 9803   1.188   2.929   3.891 -0.0527 -0.2386 -0.0202
 3287TIP3    H1 9804   1.150   2.841   3.888 -0.3216 -0.0882 -1.2520
 3287TIP3    H2 9805   1.207   2.950   3.800 -0.9789  1.4148  0.1517
 3288TIP3   OH2 9806   1.985   1.733   5.380 -0.5844 -0.1455 -0.1387
 3288TIP3    H1 9807   1.971   1.806   5.440  2.2684  2.1684 -2.1008
 3288TIP3    H2 9808   1.947   1.763   5.297 -0.0568 -1.1820 -0.7706
 3289TIP3   OH2 9809   1.354   2.083   2.365 -0.3892  0.4372 -0.2184
 3289TIP3    H1 9810   1.271   2.094   2.412  0.4367  0.4720  1.2492
 3289TIP3    H2 9811   1.349   1.995   2.329 -0.9012  0.2906  0.1954
 3290TIP3   OH2 9812   8.120   5.047   1.393  0.1679  0.3048  0.0618
 3290TIP3    H1 9813   8.180   5.069   1.322  0.1985  0.6190  0.1839
 3290TIP3    H2 9814   8.045   5.007   1.350  0.8174 -0.8326 -0.0182
 3291TIP3   OH2 9815   8.423   4.557   4.904 -0.4598 -0.1983 -0.2514
 3291TIP3    H1 9816   8.517   4.545   4.916 -0.5600 -0.3956  0.3255
 3291TIP3    H2 9817   8.387   4.468   4.903 -0.4179 -0.2214 -2.3361
 3292TIP3   OH2 9818   0.865   2.055   5.253  0.1319 -0.8420  0.1996
 3292TIP3    H1 9819   0.932   1.987   5.246  0.3632 -0.5253 -0.7403
 3292TIP3    H2 9820   0.822   2.037   5.337  2.2146 -0.2805  1.4213
 3293TIP3   OH2 9821   1.181   1.102   4.822 -0.3910 -0.1136 -0.0576
 3293TIP3    H1 9822   1.113   1.110   4.755 -0.7093 -1.1145  0.1413
 3293TIP3    H2 9823   1.148   1.035   4.882  0.9975 -0.9722 -0.2323
 3294TIP3   OH2 9824   4.133   4.962   5.588  0.5215  0.0050  0.2158
 3294TIP3    H1 9825   4.060   5.019   5.613  1.6589  1.9940 -0.9069
 3294TIP3    H2 9826   4.158   4.920   5.670 -1.5202 -0.2854  0.7265
 3295TIP3   OH2 9827   1.723   3.053   5.154  0.1834  0.0843  0.4641
 3295TIP3    H1 9828   1.728   3.035   5.248  0.3771 -4.1858 -0.2791
 3295TIP3    H2 9829   1.813   3.074   5.129  0.0681  1.6165  1.2439
 3296TIP3   OH2 9830   7.704   4.852   1.324  0.5119 -0.6770  0.0170
 3296TIP3    H1 9831   7.784   4.869   1.275 -0.2074  1.6764 -0.4077
 3296TIP3    H2 9832   7.652   4.795   1.267 -0.7264  2.7979 -2.4774
 3297TIP3   OH2 9833   8.166   4.139   3.447  0.2431 -0.2907 -0.2868
 3297TIP3    H1 9834   8.088   4.193   3.440  1.5012  1.4004 -1.9249
 3297TIP3    H2 9835   8.237   4.202   3.465  1.4788 -1.5696 -0.5793
 3298TIP3   OH2 9836   8.168   3.213   5.034  0.1007  0.4446  0.3152
 3298TIP3    H1 9837   8.201   3.126   5.059  1.2052  0.7882  0.0744
 3298TIP3    H2 9838   8.180   3.266   5.112 -0.1212  0.5021  0.3089
 3299TIP3   OH2 9839   8.104   1.949   0.963 -0.4228 -0.4048 -0.6993
 3299TIP3    H1 9840   8.145   1.904   0.889 -2.9112  1.3626 -3.2493
 3299TIP3    H2 9841   8.149   2.033   0.968  0.2378 -0.8065  0.3117
 3300TIP3   OH2 9842   0.259   4.842   5.968  0.1466  0.0326  0.9543
 3300TIP3    H1 9843   0.303   4.902   6.027  0.5537  0.6605  0.0324
 3300TIP3    H2 9844   0.253   4.890   5.885  1.3396 -1.5122 -0.0722
 3301TIP3   OH2 9845   7.835   1.833   3.781  0.1528 -0.5266  0.2072
 3301TIP3    H1 9846   7.914   1.783   3.759  1.1625  0.5548  1.2582
 3301TIP3    H2 9847   7.816   1.884   3.702  2.3064  1.4786  0.9205
 3302TIP3   OH2 9848   7.915   4.882   2.422 -0.3052 -0.0021  0.0284
 3302TIP3    H1 9849   7.993   4.913   2.467 -0.2611  0.8239 -0.6050
 3302TIP3    H2 9850   7.916   4.787   2.435  1.4448 -0.1397 -0.9773
 3303TIP3   OH2 9851   1.228   3.265   3.936  0.3644  0.4999 -0.4424
 3303TIP3    H1 9852   1.159   3.283   3.871 -0.7013 -0.3196  0.4319
 3303TIP3    H2 9853   1.300   3.230   3.885 -1.2141 -2.0809 -0.9930
 3304TIP3   OH2 9854   7.238   4.096   4.927 -0.1504 -0.2869 -0.2230
 3304TIP3    H1 9855   7.204   4.105   5.016 -0.1721 -1.3490 -0.1173
 3304TIP3    H2 9856   7.311   4.158   4.923 -0.6762  0.3803  0.2545
 3305TIP3   OH2 9857   1.034   5.471   1.514  0.3976 -0.6371 -0.7353
 3305TIP3    H1 9858   0.991   5.459   1.429  0.5105 -1.9254 -0.6182
 3305TIP3    H2 9859   1.088   5.549   1.502 -0.2111 -0.3339 -1.5942
 3306TIP3   OH2 9860   7.267   4.561   3.509  0.0211  0.5201  0.1454
 3306TIP3    H1 9861   7.266   4.641   3.562 -2.0398 -0.5779  1.8561
 3306TIP3    H2 9862   7.252   4.592   3.420 -1.0270  2.0571  0.8171
 3307TIP3   OH2 9863   8.239   4.710   2.393 -0.0451  0.0272 -0.0246
 3307TIP3    H1 9864   8.184   4.748   2.462  0.9405  1.3552  0.0386
 3307TIP3    H2 9865   8.189   4.725   2.312 -0.3957  0.0083  0.1843
 3308TIP3   OH2 9866   1.681   3.159   3.493 -0.7523  0.0769  0.1063
 3308TIP3    H1 9867   1.663   3.160   3.587  1.2861 -2.0260  0.5621
 3308TIP3    H2 9868   1.651   3.073   3.463 -0.1396  0.2001 -0.8928
 3309TIP3   OH2 9869   0.163   1.497   0.386  0.2287  0.0139  0.1271
 3309TIP3    H1 9870   0.095   1.526   0.446 -1.9613 -1.5552 -1.4914
 3309TIP3    H2 9871   0.152   1.554   0.309  1.2947  0.2877  0.1714
 3310TIP3   OH2 9872   1.005   3.073   2.903 -0.7505  0.2377 -0.0675
 3310TIP3    H1 9873   0.966   3.001   2.953 -0.3751 -0.2198 -0.4294
 3310TIP3    H2 9874   1.100   3.058   2.909 -0.6811  0.5404 -0.3898
 3311TIP3   OH2 9875   8.511   3.236   3.741 -0.5732 -0.3165  0.6671
 3311TIP3    H1 9876   8.452   3.163   3.724 -0.5915 -0.1330 -0.0636
 3311TIP3    H2 9877   8.456   3.314   3.736 -0.0469 -0.0525 -1.2143
 3312TIP3   OH2 9878   0.126   4.819   2.648  0.2711 -0.0764 -0.3404
 3312TIP3    H1 9879   0.054   4.882   2.652 -1.4146 -1.8121 -2.1255
 3312TIP3    H2 9880   0.142   4.794   2.739 -1.3215  0.4178  0.0946
 3313TIP3   OH2 9881   0.293   1.594   3.804  0.2200  0.0084 -0.1752
 3313TIP3    H1 9882   0.343   1.512   3.803 -0.0346 -0.1522  0.3445
 3313TIP3    H2 9883   0.359   1.663   3.804  0.4523 -0.2105  1.6122
 3314TIP3   OH2 9884   8.251   3.512   4.449  0.1305  0.1673 -0.0520
 3314TIP3    H1 9885   8.162   3.543   4.464  0.0971  0.7400 -1.3783
 3314TIP3    H2 9886   8.262   3.514   4.354  1.2938 -0.6540  0.0460
 3315TIP3   OH2 9887   0.456   5.610   3.229  0.1239 -0.3648  0.9153
 3315TIP3    H1 9888   0.479   5.703   3.222 -2.1663  0.2624  1.4711
 3315TIP3    H2 9889   0.407   5.591   3.149 -0.6356 -0.7393  1.4644
 3316TIP3   OH2 9890   0.528   0.929   0.815 -0.3293 -0.8076 -0.3096
 3316TIP3    H1 9891   0.472   1.006   0.811  2.0106  0.9291 -0.9902
 3316TIP3    H2 9892   0.614   0.963   0.841  0.4664 -3.3546  0.5614
 3317TIP3   OH2 9893   7.828   3.651   3.400 -0.0692  0.0103  0.5331
 3317TIP3    H1 9894   7.884   3.625   3.327 -0.2585  0.0166  0.3876
 3317TIP3    H2 9895   7.824   3.573   3.456 -1.6329 -0.6839 -0.5179
 3318TIP3   OH2 9896   0.024   3.026   3.292 -0.6084  0.1817  0.0066
 3318TIP3    H1 9897   0.011   3.044   3.199 -0.2383 -0.0829 -0.0956
 3318TIP3    H2 9898  -0.031   3.091   3.337  1.0381  1.8916 -0.3504
 3319TIP3   OH2 9899   8.474   7.960   3.472  0.1075 -0.3049 -0.0220
 3319TIP3    H1 9900   8.491   8.046   3.509  2.1131  0.0247 -1.6509
 3319TIP3    H2 9901   8.455   7.905   3.548 -1.9143  1.6710  0.9940
 3320TIP3   OH2 9902   0.754   4.344   4.102 -0.3075  0.0015 -0.1577
 3320TIP3    H1 9903   0.773   4.393   4.182 -0.0769 -1.1186  0.4904
 3320TIP3    H2 9904   0.710   4.265   4.132 -2.8864  0.9312 -1.3854
 3321TIP3   OH2 9905   1.607   3.999   3.253 -0.1294 -0.2842  0.2027
 3321TIP3    H1 9906   1.579   4.029   3.339  0.3341 -1.4177  0.7545
 3321TIP3    H2 9907   1.633   4.079   3.207 -0.2299  0.3055  1.1667
 3322TIP3   OH2 9908   1.081   2.331   3.032  0.6930 -0.2298 -0.3875
 3322TIP3    H1 9909   1.171   2.335   3.002  0.4733 -3.0199 -1.6079
 3322TIP3    H2 9910   1.030   2.307   2.955 -0.7144 -1.3975  0.8557
 3323TIP3   OH2 9911   1.492   2.538   3.695  0.2940 -0.4466 -0.1205
 3323TIP3    H1 9912   1.442   2.459   3.676 -0.8024 -0.0498  1.0498
 3323TIP3    H2 9913   1.552   2.512   3.765  0.0797 -0.3027  0.1183
 3324TIP3   OH2 9914   7.185   5.412   5.894  0.5145  0.5373 -0.0438
 3324TIP3    H1 9915   7.164   5.493   5.941  0.2746  0.9070 -0.7889
 3324TIP3    H2 9916   7.260   5.435   5.839  2.0701 -0.4223  1.6225
 3325TIP3   OH2 9917   2.807   5.393   2.059 -0.1748  0.4548 -0.1654
 3325TIP3    H1 9918   2.733   5.419   2.005 -1.2630 -1.2333  0.5046
 3325TIP3    H2 9919   2.769   5.340   2.129  1.4653  0.9154  1.1113
 3326TIP3   OH2 9920   6.500   1.699   0.036 -0.1173  0.1341 -0.7558
 3326TIP3    H1 9921   6.506   1.618   0.087  0.7052 -0.5269 -1.8650
 3326TIP3    H2 9922   6.417   1.692  -0.010 -0.1965  0.0713 -0.6045
 3327TIP3   OH2 9923   6.626   3.027   3.345  0.0816  0.0525 -0.9692
 3327TIP3    H1 9924   6.611   3.112   3.385  0.0848 -0.5997  0.4384
 3327TIP3    H2 9925   6.541   2.983   3.346  0.2302 -0.2439 -0.9970
 3328TIP3   OH2 9926   7.976   3.309   2.723  0.0773 -0.1501  0.3292
 3328TIP3    H1 9927   8.032   3.352   2.659 -1.0409  0.7533 -0.0735
 3328TIP3    H2 9928   7.950   3.227   2.682  0.1284 -0.0112  0.0220
 3329TIP3   OH2 9929   3.488   1.547   3.804 -0.0156 -0.5689 -0.2301
 3329TIP3    H1 9930   3.486   1.629   3.754 -1.3610 -0.5061 -0.1047
 3329TIP3    H2 9931   3.498   1.479   3.737  1.5706 -0.2872 -0.2973
 3330TIP3   OH2 9932   1.316   3.265   3.538 -0.2042  0.1214  0.1126
 3330TIP3    H1 9933   1.384   3.274   3.605  0.1469 -0.1790 -0.1983
 3330TIP3    H2 9934   1.268   3.186   3.564 -2.5284  2.1167  2.1722
 3331TIP3   OH2 9935   1.268   1.986   4.578 -0.5136 -0.5644 -0.5905
 3331TIP3    H1 9936   1.218   1.928   4.522  0.1589 -0.5682 -1.2016
 3331TIP3    H2 9937   1.282   2.065   4.525 -1.1457  0.0351  0.1108
 3332TIP3   OH2 9938   7.655   3.590   5.346 -0.4358  0.5395 -0.0801
 3332TIP3    H1 9939   7.641   3.640   5.426 -1.8239  2.3497 -1.4181
 3332TIP3    H2 9940   7.645   3.498   5.373 -2.4400  1.2056  1.5226
 3333TIP3   OH2 9941   1.162   0.567   5.312  0.0136  0.4486 -0.8604
 3333TIP3    H1 9942   1.088   0.599   5.364 -0.5110  0.0349 -1.3458
 3333TIP3    H2 9943   1.219   0.524   5.376  0.2406  1.4619 -0.3575
 3334TIP3   OH2 9944   0.112   4.421   3.140  0.3527  0.1295  0.6389
 3334TIP3    H1 9945   0.156   4.368   3.207  1.4800  0.6412  0.3039
 3334TIP3    H2 9946   0.038   4.460   3.186  0.5173 -0.3569  1.3302
 3335TIP3   OH2 9947   0.494   0.988   3.564 -0.7314  0.1392 -0.3978
 3335TIP3    H1 9948   0.443   0.944   3.632 -0.4696  2.4046  1.3018
 3335TIP3    H2 9949   0.431   1.048   3.523 -0.2850  0.4879 -0.5708
 3336TIP3   OH2 9950   6.655   4.495   5.446 -0.3822  0.1181  0.4201
 3336TIP3    H1 9951   6.643   4.400   5.456  3.7156 -0.4667  0.4398
 3336TIP3    H2 9952   6.598   4.533   5.513  0.1504 -2.4614  2.4148
 3337TIP3   OH2 9953   0.916   5.444   0.892 -0.1838  0.2312  0.1781
 3337TIP3    H1 9954   0.838   5.477   0.847 -1.1244  0.8461  2.2386
 3337TIP3    H2 9955   0.948   5.518   0.943  2.0982  0.1500 -1.0419
 3338TIP3   OH2 9956   0.872   2.203   3.176  0.0219  0.0358  0.0563
 3338TIP3    H1 9957   0.812   2.208   3.101  0.1515 -3.5164 -0.3654
 3338TIP3    H2 9958   0.956   2.234   3.142  0.2093 -2.0156 -1.4735
 3339TIP3   OH2 9959   0.512   4.098   3.336 -0.2609  0.5569 -0.5536
 3339TIP3    H1 9960   0.535   4.024   3.279 -0.8583  0.3395 -0.5151
 3339TIP3    H2 9961   0.557   4.173   3.297  2.1010 -0.2004  0.6058
 3340TIP3   OH2 9962   0.709  -0.032   4.353  0.5512  0.6134  0.2677
 3340TIP3    H1 9963   0.770   0.037   4.328  1.0987 -0.0520 -0.2421
 3340TIP3    H2 9964   0.626   0.013   4.367  1.0706  1.4757  0.6271
 3341TIP3   OH2 9965   8.385   2.170   4.057  0.2933  0.3585 -0.7244
 3341TIP3    H1 9966   8.363   2.257   4.024  0.3326  0.0019 -1.7286
 3341TIP3    H2 9967   8.416   2.185   4.146  0.4350  1.3933 -0.9384
 3342TIP3   OH2 9968   0.695   3.319   4.668 -0.0181 -0.1779 -0.5657
 3342TIP3    H1 9969   0.656   3.237   4.698  1.5593 -0.3426  1.1504
 3342TIP3    H2 9970   0.683   3.319   4.573 -0.1952 -2.2953 -0.5487
 3343TIP3   OH2 9971   1.037   1.836   5.387 -0.5524 -0.0313  0.3791
 3343TIP3    H1 9972   1.110   1.796   5.340  0.2880  1.4648  0.3632
 3343TIP3    H2 9973   1.078   1.893   5.451 -1.7055 -1.1263  2.1386
 3344TIP3   OH2 9974   0.944   0.974   6.158 -0.0025  0.6142 -0.4339
 3344TIP3    H1 9975   0.933   1.064   6.128  0.1999  0.5360 -0.7435
 3344TIP3    H2 9976   0.890   0.968   6.238 -1.3395  0.5446 -1.3266
 3345TIP3   OH2 9977   0.606   2.909   6.494  0.0149 -0.4516  0.4736
 3345TIP3    H1 9978   0.588   2.911   6.587 -0.5747 -1.6850  0.3961
 3345TIP3    H2 9979   0.591   2.999   6.464 -1.0844 -0.3397  1.3288
 3346TIP3   OH2 9980   1.262   1.829   5.973 -0.1437 -0.0895  0.0916
 3346TIP3    H1 9981   1.243   1.743   5.936 -0.5615  0.3481 -0.7368
 3346TIP3    H2 9982   1.336   1.814   6.032 -0.6179 -1.1231  0.4402
 3347TIP3   OH2 9983   1.827   0.726   2.959 -0.4265 -0.0163 -0.3661
 3347TIP3    H1 9984   1.900   0.774   2.920 -1.3452  0.6394 -1.2933
 3347TIP3    H2 9985   1.843   0.635   2.935 -0.2594  0.2082 -1.1208
 3348TIP3   OH2 9986   0.775   1.270   6.075 -0.1789  0.1268 -0.1325
 3348TIP3    H1 9987   0.733   1.301   6.155 -0.0219  1.1152 -0.4217
 3348TIP3    H2 9988   0.831   1.342   6.049  0.6584 -0.6538 -0.4999
 3349TIP3   OH2 9989   1.842   3.248   4.717 -0.1783  0.4571  0.5062
 3349TIP3    H1 9990   1.790   3.216   4.792 -0.3241 -0.0457  0.1932
 3349TIP3    H2 9991   1.778   3.260   4.647 -0.2335  2.0978  0.8183
 3350TIP3   OH2 9992   1.269   2.500   3.909  0.0240 -0.1760 -0.6404
 3350TIP3    H1 9993   1.222   2.579   3.882  0.9741  0.5011 -0.3125
 3350TIP3    H2 9994   1.319   2.474   3.831  0.6488  0.2342 -0.3794
 3351TIP3   OH2 9995   6.252   3.720   5.006  0.2241 -0.2902  0.1734
 3351TIP3    H1 9996   6.172   3.763   5.038 -0.7811 -1.4669 -0.7060
 3351TIP3    H2 9997   6.322   3.781   5.028 -1.2926  2.5379 -2.3642
 3352TIP3   OH2 9998   1.309   4.764   4.097 -0.6242  0.3110  0.1200
 3352TIP3    H1 9999   1.332   4.792   4.008 -0.0866  1.3747  0.5887
 3352TIP3    H210000   1.388   4.723   4.131  0.0741  2.4057  1.1011
 3353TIP3   OH210001   7.426   2.179   6.152 -0.2254  0.5555  0.0244
 3353TIP3    H110002   7.443   2.182   6.057 -1.3832  1.8854 -0.1585
 3353TIP3    H210003   7.482   2.247   6.188 -0.0371  0.2782  0.2495
 3354TIP3   OH210004   0.229   3.681   5.581  0.1433  0.1718 -0.0395
 3354TIP3    H110005   0.196   3.607   5.531 -0.3965  0.7774 -0.5865
 3354TIP3    H210006   0.155   3.708   5.636  0.1044  0.7501 -0.3669
 3355TIP3   OH210007   8.168   3.203   2.346  0.0978  0.0923 -0.3618
 3355TIP3    H110008   8.110   3.274   2.373  0.2503  0.3822 -0.7771
 3355TIP3    H210009   8.164   3.204   2.250  1.8492  1.0250 -0.4524
 3356TIP3   OH210010   0.579   4.688   1.858  0.0004 -0.3501  0.3196
 3356TIP3    H110011   0.622   4.734   1.931  0.9384  1.4981 -1.3149
 3356TIP3    H210012   0.560   4.601   1.892  0.9160  0.2864  2.5930
 3357TIP3   OH210013   0.307   4.341   4.162  0.2392 -0.4625 -0.1433
 3357TIP3    H110014   0.355   4.278   4.108  1.6790 -0.0012  0.5537
 3357TIP3    H210015   0.304   4.301   4.249 -0.2667 -0.2922 -0.0801
 3358TIP3   OH210016   8.291   1.955   4.463 -0.1323  0.2547 -0.0702
 3358TIP3    H110017   8.380   1.938   4.431  0.0282  0.2840  0.3562
 3358TIP3    H210018   8.247   1.870   4.459  0.5899 -0.2240  1.8272
 3359TIP3   OH210019   0.576   2.635   2.457  0.1166 -0.3055 -0.4415
 3359TIP3    H110020   0.643   2.604   2.518  0.2067 -0.6217 -0.7018
 3359TIP3    H210021   0.493   2.618   2.503  0.2722  1.8508  0.6972
 3360TIP3   OH210022   1.376   1.162   4.208 -0.0506 -0.5101  0.2543
 3360TIP3    H110023   1.348   1.070   4.211 -2.9645  0.2410 -1.7342
 3360TIP3    H210024   1.459   1.160   4.160  1.1269 -2.3305  2.2857
 3361TIP3   OH210025   1.483   2.821   3.688  0.4563 -0.1149  0.7194
 3361TIP3    H110026   1.528   2.846   3.607  0.3676 -2.1144  0.0313
 3361TIP3    H210027   1.464   2.728   3.677  0.7103 -0.4759  3.1960
 3362TIP3   OH210028   1.309   4.712   6.027  0.1346 -0.3525  0.5614
 3362TIP3    H110029   1.375   4.717   5.958 -0.2245  0.1963  0.2652
 3362TIP3    H210030   1.240   4.771   6.000 -0.2265 -0.4928  1.1597
 3363TIP3   OH210031   0.611   2.788   4.040 -0.1807 -0.6761 -0.0252
 3363TIP3    H110032   0.705   2.807   4.047 -0.0919 -0.6308 -1.1958
 3363TIP3    H210033   0.594   2.787   3.946 -1.2846 -1.0494  0.1704
 3364TIP3   OH210034   0.512   4.215   2.988  0.6792  0.2979 -0.2503
 3364TIP3    H110035   0.537   4.281   3.053  0.9332  0.1175 -0.1651
 3364TIP3    H210036   0.423   4.240   2.963  0.8333  0.7712 -0.3444
 3365TIP3   OH210037   2.461   4.512   3.126 -0.3501  0.4143  0.2755
 3365TIP3    H110038   2.551   4.502   3.155 -0.5969 -1.9275  0.3011
 3365TIP3    H210039   2.461   4.483   3.035 -1.1059  0.1975  0.3394
 3366TIP3   OH210040   0.208   2.901   3.475 -0.4651  0.0189 -0.3333
 3366TIP3    H110041   0.279   2.960   3.449 -0.4390  0.2244  0.2109
 3366TIP3    H210042   0.132   2.930   3.424 -0.4478  0.5123 -0.0807
 3367TIP3   OH210043   0.135   2.621   2.528  0.1823 -0.3013 -0.0929
 3367TIP3    H110044   0.230   2.612   2.532  0.0284 -1.5870  0.8331
 3367TIP3    H210045   0.103   2.573   2.604 -1.3040 -1.6159 -1.4972
 3368TIP3   OH210046   8.160   2.778   2.426 -0.4115  0.1360 -0.4292
 3368TIP3    H110047   8.187   2.752   2.338 -1.8203 -0.1334 -0.7882
 3368TIP3    H210048   8.104   2.707   2.456  1.3503 -0.5709  1.3457
 3369TIP3   OH210049   0.924   4.054   4.169 -0.4137  0.3583  0.1325
 3369TIP3    H110050   0.842   4.093   4.199 -0.8946 -1.2385  0.8954
 3369TIP3    H210051   0.979   4.130   4.148 -1.8287  1.4521  0.2513
 3370TIP3   OH210052   0.151   4.117   3.084 -0.2065 -0.0936  0.1894
 3370TIP3    H110053   0.204   4.158   3.152 -4.0827  1.9231  2.1586
 3370TIP3    H210054   0.100   4.051   3.130 -0.6691 -0.8319 -1.3441
 3371TIP3   OH210055   8.241   1.800   3.470 -0.1737 -0.2345  0.0868
 3371TIP3    H110056   8.258   1.713   3.435 -0.0312  0.2536 -1.0663
 3371TIP3    H210057   8.301   1.809   3.544 -1.4959 -1.8326  1.4028
 3372TIP3   OH210058   0.946   3.452   4.541 -0.4804  0.3175 -0.0572
 3372TIP3    H110059   0.892   3.419   4.613 -1.1665  1.7710  0.1110
 3372TIP3    H210060   0.887   3.511   4.493  0.9522  1.9183  0.1248
 3373TIP3   OH210061   0.596   3.929   1.885  0.1350  0.3006  0.4380
 3373TIP3    H110062   0.552   3.858   1.839 -0.3568  0.7479  0.2166
 3373TIP3    H210063   0.652   3.885   1.950  0.6359 -0.3157 -0.4062
 3374TIP3   OH210064   7.915   2.339   2.702 -0.2843  0.5418  0.5514
 3374TIP3    H110065   7.954   2.252   2.712  0.0097  0.6398  0.2544
 3374TIP3    H210066   7.977   2.387   2.649 -0.7866  0.7223  0.1247
 3375TIP3   OH210067   0.258   4.823   2.098  0.3266 -0.6220  0.0544
 3375TIP3    H110068   0.240   4.916   2.111  1.2718 -0.5607  0.9797
 3375TIP3    H210069   0.338   4.807   2.147  1.5721 -1.3780 -2.1455
 3376TIP3   OH210070   8.353   3.687   4.684  0.0769 -0.0803 -0.1763
 3376TIP3    H110071   8.363   3.691   4.589  3.2116 -1.8007 -0.0084
 3376TIP3    H210072   8.263   3.658   4.698 -0.0542 -0.9675 -2.6591
 3377TIP3   OH210073   7.714   1.694   5.687  0.2891 -0.0086 -0.4032
 3377TIP3    H110074   7.690   1.753   5.758 -0.8520 -2.3512  1.2060
 3377TIP3    H210075   7.810   1.694   5.687  0.3605  2.9861 -1.4555
 3378TIP3   OH210076   1.948   1.845   3.841 -0.1886  0.3340 -0.0119
 3378TIP3    H110077   1.982   1.929   3.812  0.4015 -0.2876 -1.1499
 3378TIP3    H210078   2.015   1.811   3.901  0.3987 -0.1014 -0.9024
 3379TIP3   OH210079   8.089   4.452   2.915  1.0451 -0.5020 -0.1618
 3379TIP3    H110080   8.026   4.421   2.979  1.5616 -0.6783  0.2574
 3379TIP3    H210081   8.116   4.374   2.868  2.2616 -0.6816  0.8200
 3380TIP3   OH210082   1.181   3.716   1.692  0.2551 -0.1151 -0.5160
 3380TIP3    H110083   1.253   3.763   1.734  0.3964  0.2818 -1.1982
 3380TIP3    H210084   1.127   3.686   1.765  0.1621  1.1244 -0.0515
 3381TIP3   OH210085   7.168   4.562   2.603  0.2703  0.3189 -0.1325
 3381TIP3    H110086   7.174   4.610   2.521  1.6295  0.5139  0.0694
 3381TIP3    H210087   7.133   4.625   2.666 -1.2326  0.0292 -0.6620
 3382TIP3   OH210088   7.912   5.077   1.792  0.2106  0.2307  0.0220
 3382TIP3    H110089   7.897   5.154   1.847 -0.1637  1.6086 -1.9379
 3382TIP3    H210090   7.972   5.108   1.724 -1.0693 -0.8169 -1.6234
 3383TIP3   OH210091   6.212   0.233   4.240  0.0661 -0.7919 -0.5410
 3383TIP3    H110092   6.193   0.264   4.329  1.5486 -0.8051 -0.2151
 3383TIP3    H210093   6.193   0.139   4.242 -2.7705 -0.2824 -1.0646
 3384TIP3   OH210094   7.254   4.141   3.713 -0.8136 -0.4632 -0.3893
 3384TIP3    H110095   7.185   4.132   3.779  1.0723 -0.2819  1.6250
 3384TIP3    H210096   7.228   4.217   3.661 -1.6323  0.1898  0.9647
 3385TIP3   OH210097   1.039   1.970   5.010  0.3536  0.5268  0.2426
 3385TIP3    H110098   1.012   1.984   4.919  1.0557  0.2391 -0.0151
 3385TIP3    H210099   1.122   2.017   5.018  0.2249  0.6695  0.7778
 3386TIP3   OH210100   8.340   2.647   4.111 -0.2644  0.0125  1.1255
 3386TIP3    H110101   8.250   2.620   4.092 -0.8031  2.1024  0.5608
 3386TIP3    H210102   8.341   2.666   4.205 -0.5399  0.4020  1.0523
 3387TIP3   OH210103   3.617   3.223   3.768 -0.5141  0.2628  0.0252
 3387TIP3    H110104   3.675   3.299   3.756 -0.0923 -0.0454  0.1055
 3387TIP3    H210105   3.541   3.242   3.713 -0.5708  0.9107  0.3259
 3388TIP3   OH210106   2.339   0.323   4.458  0.0722 -0.0503 -0.5342
 3388TIP3    H110107   2.304   0.412   4.461 -0.1901 -0.1811  0.2368
 3388TIP3    H210108   2.410   0.328   4.393  0.1139  0.7385 -0.4338
 3389TIP3   OH210109   0.908   3.875   3.503 -0.1178  0.3929  0.1174
 3389TIP3    H110110   0.878   3.804   3.447 -0.5045 -0.5269  1.4521
 3389TIP3    H210111   0.834   3.935   3.509  0.0254  0.6419 -0.5768
 3390TIP3   OH210112   8.127   3.432   4.150 -0.0431  0.0063  0.3292
 3390TIP3    H110113   8.090   3.463   4.067 -0.8392 -1.1500  0.2358
 3390TIP3    H210114   8.092   3.491   4.216  0.7735  1.0707 -0.1822
 3391TIP3   OH210115   3.090   2.725   2.586  0.1369 -0.4676 -0.4545
 3391TIP3    H110116   3.132   2.753   2.668 -0.8632  1.7242 -0.6428
 3391TIP3    H210117   3.143   2.766   2.518 -0.5796 -0.1176 -0.7979
 3392TIP3   OH210118   0.654   1.122   1.748  0.0145  0.2736  0.5303
 3392TIP3    H110119   0.653   1.172   1.830  1.3360  2.2166 -0.6328
 3392TIP3    H210120   0.618   1.182   1.683  0.8963 -0.5554 -0.7296
 3393TIP3   OH210121   8.129   2.948   1.962 -0.0618 -0.0849 -0.3430
 3393TIP3    H110122   8.150   2.879   2.024  1.8364  0.5079 -0.2788
 3393TIP3    H210123   8.131   3.029   2.013 -0.1837  0.2264 -0.8204
 3394TIP3   OH210124   7.777   4.694   3.141  0.3028  0.2533 -0.3024
 3394TIP3    H110125   7.700   4.676   3.086  0.6658  0.6674 -0.9548
 3394TIP3    H210126   7.783   4.618   3.199 -0.1928 -0.1115 -0.7175
 3395TIP3   OH210127   0.206   1.429   3.049  0.2409  0.6318 -0.0177
 3395TIP3    H110128   0.155   1.441   2.968 -0.6245 -0.2740  0.3860
 3395TIP3    H210129   0.140   1.426   3.118  0.9199  0.4121  0.6180
 3396TIP3   OH210130   8.182   1.923   2.335 -0.1541  0.4216  0.0786
 3396TIP3    H110131   8.208   1.982   2.264  0.1773 -0.0977 -0.2368
 3396TIP3    H210132   8.088   1.938   2.345  0.0578  1.5204  0.4890
 3397TIP3   OH210133   0.418   2.525   3.672  0.1379 -0.2185 -0.0988
 3397TIP3    H110134   0.366   2.560   3.600 -0.2277 -0.7293 -0.0866
 3397TIP3    H210135   0.355   2.477   3.726  0.5777 -0.6226  0.0586
 3398TIP3   OH210136   7.654   5.091   1.891  0.3820  0.5008  0.0762
 3398TIP3    H110137   7.633   5.177   1.856 -2.0469 -0.0969 -0.0509
 3398TIP3    H210138   7.743   5.073   1.861  0.0258  1.9474 -1.9333
 3399TIP3   OH210139   4.064   2.554   3.269  0.0059 -0.3759 -0.1253
 3399TIP3    H110140   4.079   2.630   3.325 -1.1115 -0.0715 -0.2239
 3399TIP3    H210141   4.095   2.479   3.320 -0.5528 -0.0496  0.6965
 3400TIP3   OH210142   3.714   5.088   4.415 -0.1724  0.5967  0.4991
 3400TIP3    H110143   3.721   5.020   4.482 -1.2228  0.9378  0.9601
 3400TIP3    H210144   3.676   5.163   4.460  1.6240  1.7437  0.1656
 3401TIP3   OH210145   2.584   3.300   2.966 -0.1004  0.0928  0.6299
 3401TIP3    H110146   2.673   3.318   2.937  0.2945  0.2231  1.8986
 3401TIP3    H210147   2.557   3.381   3.010 -0.2170 -0.5590  1.7661
 3402TIP3   OH210148   3.047   5.451   3.986 -0.1803 -0.4854 -0.5815
 3402TIP3    H110149   3.075   5.368   4.026  2.6003  1.0747  0.9306
 3402TIP3    H210150   3.094   5.454   3.903  1.9444  0.7619  0.6064
 3403TIP3   OH210151   0.941   3.106   1.127 -0.3515  0.2614 -0.0460
 3403TIP3    H110152   0.915   3.061   1.047 -1.1249  1.2740 -0.3633
 3403TIP3    H210153   0.993   3.180   1.097 -0.4079  0.4835  0.4103
 3404TIP3   OH210154   8.290   3.398   3.694  0.8276  0.1618 -0.3788
 3404TIP3    H110155   8.275   3.378   3.786  2.3954 -2.6795 -0.6956
 3404TIP3    H210156   8.209   3.440   3.665 -0.8424 -1.6458  1.5429
 3405TIP3   OH210157   6.862   3.955   4.018  0.1992  0.1958  0.4212
 3405TIP3    H110158   6.938   3.974   3.963 -0.7463 -0.4555 -1.1151
 3405TIP3    H210159   6.849   4.036   4.069 -0.1832  1.5792 -1.8015
 3406TIP3   OH210160   0.530   4.461   1.972  0.7746 -0.0513  0.1313
 3406TIP3    H110161   0.565   4.482   2.058  0.4504 -0.3967  0.3500
 3406TIP3    H210162   0.514   4.366   1.975  0.1827  0.0399 -0.0967
 3407TIP3   OH210163   0.856   5.049   4.809 -0.2858  0.4238  0.7015
 3407TIP3    H110164   0.942   5.088   4.824 -0.6021  1.7371 -0.7922
 3407TIP3    H210165   0.800   5.089   4.875 -0.1274  0.8591  0.5750
 3408TIP3   OH210166   2.478   3.162   4.581 -0.5308 -0.0395 -0.4685
 3408TIP3    H110167   2.396   3.122   4.553  0.4617 -1.6901 -1.0820
 3408TIP3    H210168   2.545   3.097   4.561  0.8541  0.9872  0.7011
 3409TIP3   OH210169   3.898   3.603   0.843  0.4169 -0.0435 -0.1199
 3409TIP3    H110170   3.993   3.611   0.832  0.4353  1.2380  0.8694
 3409TIP3    H210171   3.887   3.525   0.898  1.0237  0.8946  1.3793
 3410TIP3   OH210172   0.545   5.092   3.045  0.6750 -0.3811  0.3968
 3410TIP3    H110173   0.470   5.049   3.004 -0.4722  1.5682  0.4000
 3410TIP3    H210174   0.515   5.114   3.133  1.4393 -0.1120  0.5950
 3411TIP3   OH210175   0.333   4.454   2.487 -0.2530  0.1968  0.5443
 3411TIP3    H110176   0.242   4.430   2.470  0.4256 -1.2144 -1.2018
 3411TIP3    H210177   0.370   4.377   2.530  0.1814  0.6782  1.0384
 3412TIP3   OH210178   8.535   4.889   4.007 -0.0346 -0.2674  0.1142
 3412TIP3    H110179   8.469   4.855   4.067 -0.6866 -0.4799 -0.7151
 3412TIP3    H210180   8.488   4.954   3.954  0.3590 -0.6145 -0.6645
 3413TIP3   OH210181   0.237   5.471   3.102  0.4620  0.4004  0.1919
 3413TIP3    H110182   0.178   5.474   3.178 -2.4872  1.9605 -2.0672
 3413TIP3    H210183   0.226   5.383   3.066 -0.9898  0.8844 -0.5748
 3414TIP3   OH210184   2.160   3.620   2.327 -0.0178 -0.4894  0.0501
 3414TIP3    H110185   2.177   3.604   2.234 -1.2409 -2.2210  0.1031
 3414TIP3    H210186   2.222   3.689   2.351  0.5013 -0.2117 -1.9768
 3415TIP3   OH210187   1.913   3.226   3.367 -0.1260 -0.2169  0.4215
 3415TIP3    H110188   1.832   3.201   3.412 -0.9248  0.9167 -0.3411
 3415TIP3    H210189   1.892   3.309   3.324  0.6312 -1.1733 -1.9075
 3416TIP3   OH210190   2.233   3.647   3.308  0.5588 -0.5646  0.0422
 3416TIP3    H110191   2.320   3.667   3.342  0.9135 -1.4813 -0.2945
 3416TIP3    H210192   2.196   3.731   3.282  1.0863 -0.1010  0.8105
 3417TIP3   OH210193   3.807   4.839   2.860  0.0335 -0.3560  0.9417
 3417TIP3    H110194   3.836   4.893   2.787  2.8717 -0.4867  1.9189
 3417TIP3    H210195   3.731   4.791   2.826  0.7221  0.2882 -1.6013
 3418TIP3   OH210196   4.582   5.166   1.116 -0.0206 -0.3001  0.3553
 3418TIP3    H110197   4.663   5.213   1.137 -0.8145  0.4982  1.7249
 3418TIP3    H210198   4.611   5.089   1.068  1.3234  1.7317 -2.2831
 3419TIP3   OH210199   7.686   2.616   4.084 -0.1066 -0.3324  0.2256
 3419TIP3    H110200   7.632   2.656   4.152  1.8283 -0.3153  1.8096
 3419TIP3    H210201   7.625   2.564   4.032 -1.9924  1.5274  0.5412
 3420TIP3   OH210202   1.063   4.059   4.567  0.3928  0.5957 -0.3870
 3420TIP3    H110203   1.007   4.111   4.625 -1.7774 -1.6725 -0.3811
 3420TIP3    H210204   1.140   4.038   4.620  0.3738  2.0854  0.2536
 3421TIP3   OH210205   2.260   0.949   4.109 -0.4586 -0.4165 -0.3709
 3421TIP3    H110206   2.267   0.869   4.056  0.0397  0.1430 -1.1615
 3421TIP3    H210207   2.169   0.950   4.139 -1.2199  0.1069 -2.5849
 3422TIP3   OH210208   2.386   3.176   2.791  0.6901 -0.1539 -0.3092
 3422TIP3    H110209   2.430   3.166   2.706  2.5602  2.9586  0.2366
 3422TIP3    H210210   2.454   3.209   2.850 -0.7919 -1.4797  2.2271
 3423TIP3   OH210211   1.858   4.148   3.539 -0.3287  0.0453 -0.1282
 3423TIP3    H110212   1.943   4.155   3.581 -0.9044  1.4224  0.8096
 3423TIP3    H210213   1.858   4.060   3.500  1.0949 -0.3580  0.7591
 3424TIP3   OH210214   0.913   1.925   3.757 -0.4075 -0.1446 -0.4035
 3424TIP3    H110215   0.939   1.921   3.665  0.4130  1.1440 -0.2316
 3424TIP3    H210216   0.831   1.975   3.757 -0.8936 -0.9276 -0.5224
 3425TIP3   OH210217   3.270   6.277   3.865 -0.8127 -0.1744 -0.2013
 3425TIP3    H110218   3.360   6.293   3.893 -1.4957  1.8358  0.9859
 3425TIP3    H210219   3.248   6.192   3.904  1.2221 -1.7437 -2.2932
 3426TIP3   OH210220   1.961   3.115   1.160  0.4908  0.1495  0.0680
 3426TIP3    H110221   2.016   3.043   1.129 -0.2061 -0.1798 -0.4224
 3426TIP3    H210222   1.916   3.147   1.082 -0.1497  0.2943  0.4860
 3427TIP3   OH210223   2.166   4.301   4.100  0.4286  0.0554 -0.3042
 3427TIP3    H110224   2.122   4.306   4.015 -0.0360  0.6419 -0.0302
 3427TIP3    H210225   2.148   4.212   4.131 -0.8867  0.4198 -0.0195
 3428TIP3   OH210226   2.564   4.130   3.264 -0.4612  0.0826  0.0211
 3428TIP3    H110227   2.511   4.126   3.185  0.1671 -0.2360 -0.3904
 3428TIP3    H210228   2.654   4.118   3.233  0.0362  2.2979  0.5121
 3429TIP3   OH210229   2.436   4.551   2.291 -0.0154  0.2282  0.3700
 3429TIP3    H110230   2.455   4.466   2.330 -1.7927 -0.9041 -1.1006
 3429TIP3    H210231   2.509   4.568   2.232  0.2223 -0.4048  0.4808
 3430TIP3   OH210232   3.378   4.300   0.833 -0.1471 -0.4515 -0.2786
 3430TIP3    H110233   3.318   4.329   0.764 -1.6927  2.2200  2.0681
 3430TIP3    H210234   3.460   4.346   0.814 -0.4370 -0.0535 -0.5779
 3431TIP3   OH210235   1.686   5.816   3.521 -0.3924 -0.6013  0.2916
 3431TIP3    H110236   1.651   5.866   3.446 -0.1562  1.4884  1.5328
 3431TIP3    H210237   1.773   5.789   3.493 -1.2664 -2.0301 -1.1430
 3432TIP3   OH210238   4.859   3.617   4.168 -0.1502 -0.2099 -0.2861
 3432TIP3    H110239   4.776   3.651   4.201  0.3877 -0.1252  0.9802
 3432TIP3    H210240   4.864   3.649   4.078  0.1551  2.6839  0.7369
 3433TIP3   OH210241   8.156   3.522   5.258  0.0575  0.7170  0.5574
 3433TIP3    H110242   8.085   3.481   5.306 -2.5794  2.5788 -1.6253
 3433TIP3    H210243   8.130   3.613   5.248  1.3121  0.7815 -2.8593
 3434TIP3   OH210244   0.825   4.522   3.586 -0.0335  0.7262  0.2643
 3434TIP3    H110245   0.906   4.539   3.634 -0.4252 -0.6285  1.4505
 3434TIP3    H210246   0.767   4.594   3.609  0.5444  1.2548  0.0713
 3435TIP3   OH210247   2.231   3.565   3.688  0.4529  0.0598 -0.2037
 3435TIP3    H110248   2.182   3.595   3.765  1.2110 -1.7871  1.0368
 3435TIP3    H210249   2.165   3.555   3.619 -0.3405  1.0698  0.4016
 3436TIP3   OH210250   8.340   4.723   2.761 -0.6268  0.7912 -0.0867
 3436TIP3    H110251   8.375   4.711   2.849 -1.6045  0.8057  0.3147
 3436TIP3    H210252   8.373   4.808   2.733 -0.2985  0.7778  0.2617
 3437TIP3   OH210253   3.022   4.413   5.019  0.4146  0.2001 -0.1508
 3437TIP3    H110254   3.099   4.367   5.053  0.3993 -0.6888 -1.3035
 3437TIP3    H210255   3.044   4.432   4.928  0.4778  2.6348  0.3437
 3438TIP3   OH210256   1.578   6.605   4.197  0.1007  0.7444 -0.0253
 3438TIP3    H110257   1.544   6.680   4.148 -0.4154  0.4627 -0.1098
 3438TIP3    H210258   1.499   6.561   4.230  0.3199 -0.7404 -1.4543
 3439TIP3   OH210259   2.783   4.914   4.490  0.1455  0.0155  0.1345
 3439TIP3    H110260   2.789   4.903   4.395  1.3141 -0.7553  0.2829
 3439TIP3    H210261   2.691   4.934   4.506  0.1627  1.3063 -1.2661
 3440TIP3   OH210262   2.281   1.313   4.056 -0.2409 -0.4728 -0.0444
 3440TIP3    H110263   2.319   1.225   4.064  1.8063  0.2488 -1.3391
 3440TIP3    H210264   2.298   1.338   3.965 -0.0131  1.6024  0.5538
 3441TIP3   OH210265   2.446   4.018   4.196  0.2068  0.0405  0.3461
 3441TIP3    H110266   2.411   3.931   4.177 -0.8958  0.0699  2.1351
 3441TIP3    H210267   2.508   4.005   4.267  0.8978  0.5679 -0.1445
 3442TIP3   OH210268   1.507   1.927   2.676  0.5076 -0.2046 -0.6445
 3442TIP3    H110269   1.594   1.965   2.676  0.4469 -0.0657 -0.7350
 3442TIP3    H210270   1.448   2.000   2.695  0.5547 -0.6327  1.2280
 3443TIP3   OH210271   2.177   3.124   1.339  0.0524  0.9536  0.2563
 3443TIP3    H110272   2.105   3.157   1.287 -1.0445  1.1152  1.8346
 3443TIP3    H210273   2.184   3.031   1.315 -0.3993  1.0450 -0.2196
 3444TIP3   OH210274   3.468   2.008   0.097  0.2546  0.0474 -0.3939
 3444TIP3    H110275   3.459   1.950   0.173  1.0525  1.7166  1.0108
 3444TIP3    H210276   3.412   2.083   0.118  0.1631  0.3399 -1.6601
 3445TIP3   OH210277   5.664   2.939   0.682  0.2167  0.2370 -0.1230
 3445TIP3    H110278   5.717   3.018   0.691  1.2662 -0.4077 -0.6000
 3445TIP3    H210279   5.607   2.939   0.759  0.6771  1.1083  0.2179
 3446TIP3   OH210280   2.034   3.452   3.501  0.4729 -0.1936  0.3352
 3446TIP3    H110281   2.017   3.368   3.459  0.8823 -1.2320  2.1990
 3446TIP3    H210282   2.027   3.516   3.430  1.4524 -1.9259 -1.3650
 3447TIP3   OH210283   0.167   6.128   3.710  0.2188  0.3375  0.4482
 3447TIP3    H110284   0.102   6.057   3.708 -1.1523  1.5950 -1.3240
 3447TIP3    H210285   0.235   6.100   3.649  0.2351  0.0463  0.5992
 3448TIP3   OH210286   1.543   3.779   4.532 -0.3966 -0.1129 -0.1073
 3448TIP3    H110287   1.496   3.853   4.494  0.4478  0.5028  0.0522
 3448TIP3    H210288   1.512   3.774   4.622 -1.4110 -0.7570 -0.4789
 3449TIP3   OH210289   2.747   2.124   2.651 -0.0814  0.3154  0.0868
 3449TIP3    H110290   2.685   2.172   2.706 -0.5326  1.7409 -1.6350
 3449TIP3    H210291   2.765   2.183   2.578  0.2423 -1.6953 -1.4872
 3450TIP3   OH210292   1.367   3.192   1.756  0.3324 -0.2181  0.2572
 3450TIP3    H110293   1.419   3.259   1.800  0.2177 -0.7564  1.2233
 3450TIP3    H210294   1.308   3.159   1.824 -1.3568  0.4756 -0.8674
 3451TIP3   OH210295   3.644   5.868   4.186  0.1850  0.3595  0.9459
 3451TIP3    H110296   3.554   5.868   4.156  0.9257 -1.5358 -1.4107
 3451TIP3    H210297   3.662   5.960   4.205 -1.4006  1.1940 -1.2832
 3452TIP3   OH210298   0.357   4.687   3.800  0.7548 -0.4369 -0.1345
 3452TIP3    H110299   0.357   4.678   3.896 -0.3925 -0.5709 -0.1411
 3452TIP3    H210300   0.264   4.694   3.777  1.1204  1.8155 -1.0228
 3453TIP3   OH210301   0.679   1.824   3.391 -0.0574 -0.0532  0.0664
 3453TIP3    H110302   0.733   1.902   3.403  1.5270 -1.1708  0.3338
 3453TIP3    H210303   0.695   1.798   3.300  1.2935 -1.4170  0.6698
 3454TIP3   OH210304   2.710   1.508   3.106  0.6086  0.3987 -0.0155
 3454TIP3    H110305   2.687   1.507   3.199  0.2711  1.6884 -0.0645
 3454TIP3    H210306   2.723   1.416   3.083 -3.5314 -0.3684  0.2903
 3455TIP3   OH210307   2.832   3.284   2.845  0.1956 -0.4470  0.1053
 3455TIP3    H110308   2.872   3.226   2.781  0.5940 -0.9204  0.7752
 3455TIP3    H210309   2.897   3.292   2.914 -0.4458 -0.3776  0.7084
 3456TIP3   OH210310   2.433   4.163   0.838 -0.4654 -0.4963  0.2773
 3456TIP3    H110311   2.483   4.193   0.913  0.8155 -0.8675 -0.4208
 3456TIP3    H210312   2.410   4.243   0.791  1.4874 -0.4575 -0.6592
 3457TIP3   OH210313   1.186   1.290   4.024 -0.3057 -0.4056  0.3185
 3457TIP3    H110314   1.230   1.261   4.103 -1.2833 -1.0052  0.6497
 3457TIP3    H210315   1.129   1.217   4.000  0.9846 -0.7842 -1.7089
 3458TIP3   OH210316   0.044   3.535   4.241  0.1392 -0.3280  0.2785
 3458TIP3    H110317   0.043   3.549   4.146  1.4843 -1.6568  0.0527
 3458TIP3    H210318   0.018   3.443   4.252 -0.6969  0.0169  1.2423
 3459TIP3   OH210319   7.692   5.913   3.315 -0.3955 -0.0488  0.4927
 3459TIP3    H110320   7.758   5.850   3.286  0.5268  0.7444  0.8787
 3459TIP3    H210321   7.709   5.992   3.263  0.0592  0.7368  1.8283
 3460TIP3   OH210322   1.266   6.530   2.358  0.0705 -0.4304 -0.8605
 3460TIP3    H110323   1.349   6.576   2.354 -0.3462  0.3079 -1.1445
 3460TIP3    H210324   1.246   6.509   2.267 -0.8041  0.7608 -0.9519
 3461TIP3   OH210325   1.402   5.135   3.744  0.3713  0.2220  0.0577
 3461TIP3    H110326   1.370   5.224   3.728  1.0589  0.5282  0.3454
 3461TIP3    H210327   1.406   5.129   3.840  2.2562  0.5815  0.0061
 3462TIP3   OH210328   2.555   4.725   3.406 -0.6760 -0.2347  0.2834
 3462TIP3    H110329   2.610   4.795   3.441  0.8720 -1.4102  0.2439
 3462TIP3    H210330   2.466   4.759   3.412  0.0443  1.6752  0.4050
 3463TIP3   OH210331   7.852   2.235   5.450 -0.3492 -0.2656  0.5018
 3463TIP3    H110332   7.865   2.261   5.359  0.5513 -1.2486  0.3440
 3463TIP3    H210333   7.757   2.232   5.460 -0.4751  1.9745  0.2272
 3464TIP3   OH210334   1.719   3.779   3.661 -0.6690 -0.1792 -0.2617
 3464TIP3    H110335   1.666   3.733   3.595  0.6410 -0.0086 -1.4621
 3464TIP3    H210336   1.752   3.709   3.718 -0.7820 -0.4609 -0.5437
 3465TIP3   OH210337   6.770   4.949   1.889  0.0442 -0.4625 -0.0364
 3465TIP3    H110338   6.814   4.946   1.804  2.1551  0.1570  1.0188
 3465TIP3    H210339   6.696   5.008   1.875 -0.8340 -1.9721 -1.9819
 3466TIP3   OH210340   7.820   4.818   3.756 -0.3433  0.2270 -0.0837
 3466TIP3    H110341   7.739   4.868   3.745 -0.4444 -0.0025 -0.3980
 3466TIP3    H210342   7.802   4.734   3.713 -0.2564 -0.1645  0.6406
 3467TIP3   OH210343   0.466   2.365   4.531 -0.0213 -0.3338  0.2943
 3467TIP3    H110344   0.524   2.383   4.457  0.4401  0.0267  0.7374
 3467TIP3    H210345   0.379   2.390   4.501  0.5137  2.0405  0.6883
 3468TIP3   OH210346   1.831   3.596   3.814  0.5211 -0.6249 -0.0711
 3468TIP3    H110347   1.780   3.524   3.776 -0.6498  1.1859 -2.0898
 3468TIP3    H210348   1.781   3.621   3.892 -1.8826  1.2032 -2.0876
 3469TIP3   OH210349   0.345   4.055   2.708 -0.3438 -0.3787  0.1089
 3469TIP3    H110350   0.418   3.999   2.682 -0.5740  0.5904 -2.7212
 3469TIP3    H210351   0.378   4.144   2.700 -2.2198  0.1364 -2.6296
 3470TIP3   OH210352   2.459   0.465   3.756  0.4333  0.7480 -0.4909
 3470TIP3    H110353   2.392   0.399   3.741  0.8746  0.0758  0.4485
 3470TIP3    H210354   2.514   0.462   3.677  1.2010 -0.9126  0.0849
 3471TIP3   OH210355   2.925   2.115   3.367  0.1616 -0.2440  0.9873
 3471TIP3    H110356   2.975   2.041   3.334  1.0425  0.7300  0.1271
 3471TIP3    H210357   2.833   2.093   3.348  0.3933 -1.2126  0.9629
 3472TIP3   OH210358   5.092   4.866   4.245 -0.2754 -0.1351  1.1213
 3472TIP3    H110359   5.057   4.840   4.160 -0.6231 -2.3888  1.9104
 3472TIP3    H210360   5.088   4.962   4.245 -0.1765 -0.1120 -1.4140
 3473TIP3   OH210361   2.580   5.716   4.717  0.2997 -0.0120 -0.5299
 3473TIP3    H110362   2.549   5.786   4.774  2.5413  1.4663 -1.0437
 3473TIP3    H210363   2.513   5.708   4.649 -1.0022  0.1467  0.7193
 3474TIP3   OH210364   0.469   4.215   2.491 -0.1425  0.2601  0.5510
 3474TIP3    H110365   0.540   4.154   2.467 -0.5654 -0.0056 -0.0318
 3474TIP3    H210366   0.432   4.242   2.408 -0.6004  0.5557  0.8505
 3475TIP3   OH210367   1.633   6.504   2.054 -0.3535 -0.1910  0.0255
 3475TIP3    H110368   1.645   6.598   2.046  1.4064 -0.0102  3.6118
 3475TIP3    H210369   1.538   6.492   2.063 -0.6880  1.1023 -1.6256
 3476TIP3   OH210370   2.135   2.843   4.398  0.3143 -0.0196 -0.5545
 3476TIP3    H110371   2.212   2.786   4.400  1.2432  1.2274 -0.4893
 3476TIP3    H210372   2.074   2.798   4.339  0.9375 -1.1955 -0.3225
 3477TIP3   OH210373   0.874   1.356   5.374  0.2508  0.1082 -0.4107
 3477TIP3    H110374   0.959   1.313   5.385  0.6796  0.7412 -1.2364
 3477TIP3    H210375   0.893   1.449   5.388 -0.1482  0.3454 -1.4334
 3478TIP3   OH210376   3.277   3.665   0.783 -0.0090 -0.9909  0.0512
 3478TIP3    H110377   3.196   3.654   0.732  0.0774 -1.6500  0.0541
 3478TIP3    H210378   3.333   3.718   0.728 -1.3014  1.4202  0.9956
 3479TIP3   OH210379   0.149   4.691   3.213 -0.1519 -0.4510  0.4533
 3479TIP3    H110380   0.203   4.625   3.168  0.5589  0.1445  0.4104
 3479TIP3    H210381   0.074   4.642   3.246  0.0563 -1.1704 -0.1133
 3480TIP3   OH210382   3.988   3.929   2.382 -0.1711 -0.0431 -0.3512
 3480TIP3    H110383   3.977   3.835   2.393 -0.7021  0.0653  0.0224
 3480TIP3    H210384   4.034   3.938   2.299 -0.6462 -0.6044 -0.6755
 3481TIP3   OH210385   2.324   7.302   4.098 -0.5239  0.4205 -0.0552
 3481TIP3    H110386   2.363   7.350   4.025 -0.3400  0.7504  0.2561
 3481TIP3    H210387   2.236   7.278   4.067 -0.1477 -0.1410 -0.6756
 3482TIP3   OH210388   2.455   3.793   3.394 -0.1017  0.1476  0.1606
 3482TIP3    H110389   2.448   3.782   3.488 -2.3467 -0.3060 -0.0306
 3482TIP3    H210390   2.431   3.885   3.378 -0.2812  0.0680 -0.0313
 3483TIP3   OH210391   3.176   5.272   1.464  0.5353  0.7745  0.5079
 3483TIP3    H110392   3.158   5.202   1.527  1.9661  0.3850  0.4923
 3483TIP3    H210393   3.199   5.227   1.383  0.3762  1.2715  0.1799
 3484TIP3   OH210394   0.680   4.977   3.894  0.4256  0.4242 -0.0425
 3484TIP3    H110395   0.770   4.960   3.922  0.2902 -0.0893  0.0882
 3484TIP3    H210396   0.645   4.891   3.871 -0.7927  0.2895  2.1845
 3485TIP3   OH210397   2.391   4.887   2.687  0.4192  0.5801 -0.0581
 3485TIP3    H110398   2.345   4.810   2.720 -0.0627  0.6325 -0.5998
 3485TIP3    H210399   2.482   4.860   2.682  0.0100 -0.5649 -1.9546
 3486TIP3   OH210400   2.026   5.030   4.487 -0.1840 -0.2701 -0.1549
 3486TIP3    H110401   2.020   5.123   4.466 -1.3920 -0.0554  1.0861
 3486TIP3    H210402   1.939   4.995   4.467  0.3526 -1.2130 -0.9156
 3487TIP3   OH210403   3.648   5.725   1.020  0.5511  0.0494 -0.4013
 3487TIP3    H110404   3.581   5.793   1.008 -0.5688 -1.1790 -1.1984
 3487TIP3    H210405   3.614   5.650   0.972  2.2666 -0.7553 -0.3588
 3488TIP3   OH210406   4.714   5.128   1.604 -0.7049 -0.9332  0.4285
 3488TIP3    H110407   4.686   5.192   1.538  0.4700 -0.8606 -0.0027
 3488TIP3    H210408   4.658   5.052   1.590 -2.4718  0.1744  1.2752
 3489TIP3   OH210409   2.300   6.505   4.412  0.1718  0.0578 -0.9139
 3489TIP3    H110410   2.312   6.446   4.337  0.1513  0.7660 -1.4806
 3489TIP3    H210411   2.388   6.541   4.428  0.6381 -1.7124  0.7841
 3490TIP3   OH210412   8.327   5.024   3.849 -0.0967 -0.4644  0.2024
 3490TIP3    H110413   8.358   5.052   3.763  0.2209 -1.6152 -0.0672
 3490TIP3    H210414   8.296   5.105   3.891  2.6086  0.6163  0.2049
 3491TIP3   OH210415   0.033   2.834   4.048 -0.3652 -0.7936 -0.1407
 3491TIP3    H110416  -0.028   2.773   4.090 -0.1138 -0.8488  0.1446
 3491TIP3    H210417   0.116   2.786   4.045  0.3038  0.2141  1.7620
 3492TIP3   OH210418   3.152   2.747   2.186  0.3263 -0.2974  0.3485
 3492TIP3    H110419   3.244   2.734   2.165 -0.1234 -2.5429 -0.4231
 3492TIP3    H210420   3.116   2.795   2.112  0.2899 -1.9365 -0.7306
 3493TIP3   OH210421   7.835   5.733   1.971  0.4433 -0.6576  0.2715
 3493TIP3    H110422   7.908   5.794   1.962 -1.6687  2.3631  2.5603
 3493TIP3    H210423   7.860   5.676   2.044  2.0925 -2.1094 -1.3780
 3494TIP3   OH210424   2.789   4.096   4.171  0.3796 -0.0414 -0.0737
 3494TIP3    H110425   2.706   4.104   4.124  0.5025 -0.6054 -0.3901
 3494TIP3    H210426   2.810   4.186   4.198  2.0507  0.8625 -4.0557
 3495TIP3   OH210427   2.927   3.779   1.797 -0.3139 -0.0764  0.2151
 3495TIP3    H110428   2.990   3.786   1.725  0.4351 -0.5499  0.8103
 3495TIP3    H210429   2.894   3.868   1.808 -0.5486 -0.0271 -0.8103
 3496TIP3   OH210430   3.167   4.216   3.532 -0.4295 -0.3862  0.2593
 3496TIP3    H110431   3.256   4.182   3.527 -0.4465 -0.2900 -0.6280
 3496TIP3    H210432   3.160   4.251   3.621  0.2551 -0.8402  0.4907
 3497TIP3   OH210433   2.924   4.849   1.565  0.6394 -0.2347  0.3771
 3497TIP3    H110434   2.845   4.840   1.513 -0.5332 -0.1582  2.1015
 3497TIP3    H210435   2.926   4.770   1.619  0.6560  0.6781  1.7517
 3498TIP3   OH210436   2.285   5.104   1.519  0.0165  0.1583  0.0628
 3498TIP3    H110437   2.286   5.199   1.511  0.9728  0.0146 -1.8688
 3498TIP3    H210438   2.199   5.078   1.485 -0.5827  0.3654  1.3745
 3499TIP3   OH210439   2.760   5.413   2.467 -0.0426 -0.0001  0.2986
 3499TIP3    H110440   2.760   5.365   2.550 -2.1630 -0.2043  0.2009
 3499TIP3    H210441   2.683   5.471   2.473  0.2530  0.5579 -1.1956
 3500TIP3   OH210442   0.230   5.350   2.012 -0.0466 -0.0355  0.0606
 3500TIP3    H110443   0.281   5.395   1.944 -0.9236  0.6255 -0.1658
 3500TIP3    H210444   0.211   5.418   2.077  2.2922 -1.0527  1.8743
 3501TIP3   OH210445   3.336   4.793   1.711 -0.0611 -0.1849 -0.2213
 3501TIP3    H110446   3.390   4.809   1.789  0.3174  0.0173 -0.5214
 3501TIP3    H210447   3.320   4.698   1.712  0.8768 -0.3491 -0.4985
 3502TIP3   OH210448   2.266   2.353   2.438 -0.2068 -0.2245 -0.2941
 3502TIP3    H110449   2.289   2.391   2.523 -1.2529  0.2835 -0.2308
 3502TIP3    H210450   2.278   2.425   2.376 -1.0035 -0.1199 -0.3406
 3503TIP3   OH210451   1.446   4.433   3.279 -0.2694 -0.3863 -0.0748
 3503TIP3    H110452   1.360   4.411   3.314 -0.2447 -0.2066  0.1007
 3503TIP3    H210453   1.506   4.374   3.325 -0.4148 -1.2576 -0.9680
 3504TIP3   OH210454   0.762   3.873   3.215  0.0800  0.2748  0.7916
 3504TIP3    H110455   0.804   3.957   3.232 -0.5275  0.4052  1.6550
 3504TIP3    H210456   0.686   3.894   3.161 -0.2881  0.3269  1.3269
 3505TIP3   OH210457   1.342   2.304   2.958 -0.2479 -0.1151 -0.3231
 3505TIP3    H110458   1.401   2.237   2.924  0.9050  1.0345 -0.6063
 3505TIP3    H210459   1.398   2.379   2.977 -1.7211  1.2937 -1.3703
 3506TIP3   OH210460   7.969   3.330   4.559  0.7866  0.3213  0.8793
 3506TIP3    H110461   8.015   3.327   4.475  0.5971 -0.8312  0.8076
 3506TIP3    H210462   8.035   3.362   4.621  0.8928  1.2797  0.2719
 3507TIP3   OH210463   3.212   6.079   2.655 -0.0618 -0.8742 -0.1814
 3507TIP3    H110464   3.257   6.012   2.706 -0.4124 -1.5913 -0.7902
 3507TIP3    H210465   3.279   6.114   2.597 -0.1034 -1.3922 -0.5464
 3508TIP3   OH210466   0.265   4.144   4.424  0.5462 -0.1521 -0.0733
 3508TIP3    H110467   0.233   4.074   4.366 -0.4279 -0.0022  0.2675
 3508TIP3    H210468   0.351   4.167   4.389 -0.3565  0.4921 -1.9551
 3509TIP3   OH210469   1.446   3.287   4.115  0.0246 -0.0647 -0.3600
 3509TIP3    H110470   1.381   3.284   4.044  2.5192 -2.3332 -2.6313
 3509TIP3    H210471   1.502   3.362   4.093  0.7240 -0.6934 -0.7428
 3510TIP3   OH210472   2.692   6.554   2.693  0.0131 -0.1330  0.4041
 3510TIP3    H110473   2.677   6.542   2.787 -1.1003 -1.6456  0.0547
 3510TIP3    H210474   2.685   6.465   2.656  2.0130  0.2259 -0.8920
 3511TIP3   OH210475   1.279   1.370   3.353 -0.0469 -0.6505 -0.1241
 3511TIP3    H110476   1.356   1.346   3.404 -0.9595 -0.4747  1.3735
 3511TIP3    H210477   1.261   1.461   3.378 -1.7893 -1.2500  0.9615
 3512TIP3   OH210478   3.173   3.417   2.438  0.1091 -0.3452 -0.1172
 3512TIP3    H110479   3.178   3.409   2.343  2.0224  0.4296 -0.1059
 3512TIP3    H210480   3.197   3.508   2.456  0.5916 -0.7107  1.1666
 3513TIP3   OH210481   4.017   5.221   0.432 -0.3079  0.3269  0.6962
 3513TIP3    H110482   4.056   5.284   0.371  1.0814  0.4263  1.6581
 3513TIP3    H210483   4.061   5.239   0.515 -1.3349 -0.5962  1.4442
 3514TIP3   OH210484   0.569   3.820   0.132 -0.3546 -0.0048  0.2239
 3514TIP3    H110485   0.501   3.877   0.096  0.7755  0.1640 -1.7141
 3514TIP3    H210486   0.620   3.876   0.190  0.3388  0.8126 -1.1507
 3515TIP3   OH210487   2.445   3.932   1.102  0.1215 -0.0233 -0.1458
 3515TIP3    H110488   2.492   4.015   1.107  0.8933 -0.4828  0.2226
 3515TIP3    H210489   2.367   3.945   1.156  1.4994 -0.3599  2.0067
 3516TIP3   OH210490   2.521   5.200   4.435  0.5052  0.0909  0.7961
 3516TIP3    H110491   2.503   5.199   4.529  0.3713  2.1553  0.8168
 3516TIP3    H210492   2.606   5.245   4.428  0.8411 -0.6542 -0.0297
 3517TIP3   OH210493   3.048   1.438   4.186  0.1812  0.6589  1.1531
 3517TIP3    H110494   3.088   1.356   4.215  0.4128  0.6302  0.7474
 3517TIP3    H210495   3.119   1.486   4.145 -0.7162 -0.4005 -1.7596
 3518TIP3   OH210496   0.443   4.533   3.476  0.1856 -0.8346  0.7936
 3518TIP3    H110497   0.487   4.496   3.399 -1.9230 -0.0945 -0.8287
 3518TIP3    H210498   0.438   4.460   3.538  1.7293 -1.4964  0.1658
 3519TIP3   OH210499   7.935   3.091   3.351  0.0478  0.1304 -0.1112
 3519TIP3    H110500   7.878   3.142   3.294 -0.1601 -0.2459 -0.2460
 3519TIP3    H210501   7.884   3.079   3.432 -0.3508 -0.7932 -0.4880
 3520TIP3   OH210502   1.123   4.968   4.208 -0.7458  0.1817 -0.1307
 3520TIP3    H110503   1.131   4.958   4.303 -0.8737 -0.2602 -0.1671
 3520TIP3    H210504   1.198   4.921   4.172  0.3705  1.9450 -0.1758
 3521TIP3   OH210505   1.317   1.850   3.633  0.1254 -0.5411 -0.6325
 3521TIP3    H110506   1.361   1.919   3.682  2.8834 -1.4617 -1.7326
 3521TIP3    H210507   1.293   1.785   3.699  0.0631  0.1544  0.0293
 3522TIP3   OH210508   4.633   3.668   2.766 -0.2686 -0.1179  0.5942
 3522TIP3    H110509   4.707   3.656   2.826  0.6528  0.7537 -0.3442
 3522TIP3    H210510   4.574   3.595   2.785  0.3745 -0.2701  2.0239
 3523TIP3   OH210511   1.996   3.411   0.119  0.2249  0.3096  0.1601
 3523TIP3    H110512   1.982   3.337   0.178 -0.1892  0.9928  0.9248
 3523TIP3    H210513   1.921   3.409   0.059  1.6495 -1.5822 -1.6521
 3524TIP3   OH210514   0.946   3.322   4.115 -0.0271  0.3209  0.0206
 3524TIP3    H110515   1.010   3.303   4.047  0.8216  1.7413  0.4078
 3524TIP3    H210516   0.998   3.335   4.195 -0.4450  4.4145 -0.2402
 3525TIP3   OH210517   0.922   5.484   1.269 -0.0053  0.7577 -0.0255
 3525TIP3    H110518   0.950   5.522   1.186  1.3485  1.8458  0.8986
 3525TIP3    H210519   0.833   5.515   1.281  0.0800  1.2618 -0.6875
 3526TIP3   OH210520   2.461   4.598   2.574 -0.0654  0.2117  0.0928
 3526TIP3    H110521   2.415   4.515   2.564 -0.2069  0.0323  2.0075
 3526TIP3    H210522   2.460   4.637   2.487  1.0756 -2.3452 -1.1411
 3527TIP3   OH210523   4.021   3.981   1.143  0.1692 -0.1435 -0.2087
 3527TIP3    H110524   4.074   4.042   1.194 -0.3486  0.6741 -0.6565
 3527TIP3    H210525   4.038   4.004   1.052  0.8213 -1.3806 -0.4231
 3528TIP3   OH210526   2.358   5.210   2.032  0.3818  0.3125  0.2593
 3528TIP3    H110527   2.320   5.164   2.108 -0.6513  1.2285  0.3170
 3528TIP3    H210528   2.420   5.148   1.995 -1.7126 -1.5272 -0.2452
 3529TIP3   OH210529   2.111   2.051   3.437 -0.2444 -0.1664  0.2304
 3529TIP3    H110530   2.023   2.018   3.456 -0.7827  0.9876 -0.2350
 3529TIP3    H210531   2.145   1.991   3.370 -0.3288 -1.1222  1.0181
 3530TIP3   OH210532   2.491   4.346   1.626 -0.2815 -0.4170  1.1024
 3530TIP3    H110533   2.523   4.432   1.650 -1.7827 -0.1192  2.1611
 3530TIP3    H210534   2.433   4.321   1.699 -0.3839 -2.0239  0.4998
 3531TIP3   OH210535   8.001   4.991   3.622 -0.4274  0.4445  0.3488
 3531TIP3    H110536   7.911   5.000   3.653 -0.5169 -0.5434  0.3993
 3531TIP3    H210537   8.023   4.900   3.641  0.4676  0.5958  0.0266
 3532TIP3   OH210538   2.957   4.705   4.136  0.0651 -0.0134  0.0351
 3532TIP3    H110539   2.952   4.629   4.195  0.1731  0.0184  0.0879
 3532TIP3    H210540   2.988   4.776   4.193 -0.4322  0.1684  0.0776
 3533TIP3   OH210541   2.504   3.099   2.546 -0.1062 -0.3658  0.6785
 3533TIP3    H110542   2.486   3.092   2.452 -0.9557  1.9114  0.6439
 3533TIP3    H210543   2.600   3.094   2.553  0.1405  2.1446 -0.5887
 3534TIP3   OH210544   2.483   3.377   0.783  0.1678  0.9890 -0.0405
 3534TIP3    H110545   2.443   3.290   0.787 -0.1638  1.2135  2.3951
 3534TIP3    H210546   2.429   3.426   0.721  0.4241 -0.5731 -1.5073
 3535TIP3   OH210547   2.044   4.946   3.460  0.2375 -0.1638  0.3032
 3535TIP3    H110548   1.961   4.898   3.448  0.9047 -1.2125 -0.1465
 3535TIP3    H210549   2.063   4.937   3.554  2.5522 -4.4741 -0.4740
 3536TIP3   OH210550   7.357   4.773   4.367  0.2739  0.0935 -0.4829
 3536TIP3    H110551   7.389   4.836   4.303  0.4164 -1.8533 -2.3572
 3536TIP3    H210552   7.432   4.757   4.424  1.2813 -0.9595 -2.0754
 3537TIP3   OH210553   2.317   5.582   3.159 -0.3407  0.2331  0.1121
 3537TIP3    H110554   2.363   5.517   3.212 -2.5019 -0.5634  1.0328
 3537TIP3    H210555   2.382   5.652   3.146  2.3320 -2.4382 -1.6764
 3538TIP3   OH210556   3.932   4.440   4.054  0.1258  0.5373 -0.9239
 3538TIP3    H110557   3.992   4.515   4.060  0.3978  0.2200  0.3256
 3538TIP3    H210558   3.935   4.416   3.961 -0.4884  2.4892 -1.4920
 3539TIP3   OH210559   4.389   3.556   3.687 -0.0891  0.5090  0.0400
 3539TIP3    H110560   4.383   3.617   3.760 -0.6638  0.6165 -0.0922
 3539TIP3    H210561   4.335   3.595   3.618 -0.5257 -0.1887 -0.0190
 3540TIP3   OH210562   0.827   2.235   4.154 -0.2336  0.2603 -0.3387
 3540TIP3    H110563   0.844   2.144   4.129 -0.4065  0.6053 -1.7648
 3540TIP3    H210564   0.889   2.285   4.101 -1.3994  1.1031 -0.9078
 3541TIP3   OH210565   8.505   0.071   3.014 -0.5850 -0.2451  0.0961
 3541TIP3    H110566   8.431   0.015   3.038 -2.0122  2.0438  1.2123
 3541TIP3    H210567   8.499   0.079   2.919  0.0481 -2.4742 -0.1739
 3542TIP3   OH210568   0.057   6.835   1.954  0.2577 -0.5479  0.4418
 3542TIP3    H110569   0.120   6.879   1.897  0.2627 -2.1470 -0.7925
 3542TIP3    H210570   0.070   6.877   2.039 -0.7777  2.9169 -1.0100
 3543TIP3   OH210571   2.002   3.795   4.130  0.5210 -0.3579 -0.6009
 3543TIP3    H110572   1.982   3.882   4.165  2.2427 -0.5948  1.0737
 3543TIP3    H210573   1.917   3.755   4.114 -0.2976  0.8517  0.6622
 3544TIP3   OH210574   5.924   2.252   4.570  0.2532  0.5639 -0.2563
 3544TIP3    H110575   5.837   2.257   4.530 -0.4838 -1.7183  0.9421
 3544TIP3    H210576   5.942   2.158   4.577  1.9529  0.9749  1.3475
 3545TIP3   OH210577   2.034   3.780   3.707  0.2029 -0.4934 -0.5853
 3545TIP3    H110578   1.978   3.703   3.697 -1.6384  0.7365 -0.0122
 3545TIP3    H210579   2.072   3.771   3.795 -0.5091 -0.4120 -0.2710
 3546TIP3   OH210580   1.829   4.608   4.607  0.1801  0.0070 -0.7851
 3546TIP3    H110581   1.824   4.515   4.631  0.6532  0.2891  0.4340
 3546TIP3    H210582   1.922   4.629   4.613  0.0986  0.5032 -1.2733
 3547TIP3   OH210583   1.759   2.828   4.458  0.0226 -0.6685  0.7943
 3547TIP3    H110584   1.722   2.879   4.386 -0.7912 -1.3926  0.6933
 3547TIP3    H210585   1.777   2.742   4.420  0.5232 -0.7485  1.2030
 3548TIP3   OH210586   0.450   2.830   0.459 -0.1814  0.2611  0.0441
 3548TIP3    H110587   0.409   2.915   0.476  0.2073  0.3009  0.7742
 3548TIP3    H210588   0.378   2.774   0.428 -0.3926  0.9219 -0.6690
 3549TIP3   OH210589   0.055   5.235   3.651  0.0876 -0.3077 -0.0508
 3549TIP3    H110590   0.094   5.157   3.691  0.1498 -0.4145 -0.3220
 3549TIP3    H210591   0.130   5.291   3.630  0.0837 -0.4335 -0.4035
 3550TIP3   OH210592   0.810   6.512   3.053 -0.0384  0.3527 -0.0567
 3550TIP3    H110593   0.898   6.480   3.033 -0.0702  0.2860 -0.0901
 3550TIP3    H210594   0.765   6.436   3.090  0.0010  0.4602  0.2090
 3551TIP3   OH210595   2.069   3.016   3.361  0.2267  0.1381 -0.1875
 3551TIP3    H110596   2.015   3.095   3.365 -0.6597 -0.4638 -0.3825
 3551TIP3    H210597   2.020   2.950   3.410  1.2245 -0.1493  0.4499
 3552TIP3   OH210598   3.046   3.447   4.325  0.6149  0.3524 -0.2714
 3552TIP3    H110599   3.077   3.366   4.284 -1.5961 -0.8119  0.3007
 3552TIP3    H210600   2.967   3.470   4.275  0.8515  1.7907  0.0038
 3553TIP3   OH210601   1.776   4.258   2.466  0.1471  0.0632 -0.9536
 3553TIP3    H110602   1.748   4.348   2.481  0.6053  0.2342 -1.0915
 3553TIP3    H210603   1.764   4.214   2.550  1.0664  0.5640 -0.5534
 3554TIP3   OH210604   3.432   4.677   3.153 -0.0787 -0.2203 -0.4789
 3554TIP3    H110605   3.371   4.689   3.225  0.0537  0.7474 -0.5235
 3554TIP3    H210606   3.376   4.674   3.075 -0.1974 -0.9696 -0.3652
 3555TIP3   OH210607   2.030   5.640   0.947  0.2069 -0.0107 -0.0940
 3555TIP3    H110608   2.054   5.729   0.973  0.2246  0.2492 -0.9995
 3555TIP3    H210609   2.039   5.639   0.852  0.7995 -1.1638 -0.0293
 3556TIP3   OH210610   3.739   4.787   3.164 -0.8931 -0.0276 -0.1265
 3556TIP3    H110611   3.647   4.762   3.155 -0.1876 -2.4675 -0.9436
 3556TIP3    H210612   3.762   4.825   3.080 -1.3128  1.2520  0.3158
 3557TIP3   OH210613   3.141   3.055   2.833 -0.3472  0.0707 -0.5442
 3557TIP3    H110614   3.130   2.976   2.780  1.1089 -0.4139 -0.1278
 3557TIP3    H210615   3.109   3.029   2.920 -0.2181  0.0602 -0.5006
 3558TIP3   OH210616   1.899   3.875   3.427 -0.1168  0.5674 -0.1033
 3558TIP3    H110617   1.876   3.850   3.517  0.3249  2.5891  0.6150
 3558TIP3    H210618   1.828   3.841   3.373 -0.5466 -0.4142  1.0608
 3559TIP3   OH210619   4.579   2.248   1.599  0.1369  0.4217 -0.9096
 3559TIP3    H110620   4.578   2.294   1.515 -0.3053  0.2411 -1.0025
 3559TIP3    H210621   4.560   2.157   1.576  2.1519 -0.0365 -0.8668
 3560TIP3   OH210622   3.731   2.705   2.229  0.6298 -0.2911 -0.1471
 3560TIP3    H110623   3.788   2.642   2.273  0.2695 -0.5306 -0.0184
 3560TIP3    H210624   3.673   2.736   2.299  0.4331 -0.2432 -0.3337
 3561TIP3   OH210625   3.218   1.637   3.523  0.3508 -0.2010 -0.3589
 3561TIP3    H110626   3.172   1.698   3.465 -0.8621  1.7769  2.5847
 3561TIP3    H210627   3.297   1.683   3.548 -0.9888  0.6044  2.5802
 3562TIP3   OH210628   1.618   2.593   4.197 -0.0893 -0.0335  0.4182
 3562TIP3    H110629   1.572   2.603   4.280 -0.5595 -0.3466  0.2005
 3562TIP3    H210630   1.706   2.563   4.221 -0.1698  0.0361  0.8063
 3563TIP3   OH210631   3.251   2.518   4.090 -0.2037  0.2229 -0.4734
 3563TIP3    H110632   3.229   2.597   4.041  0.6442  1.7178  1.4704
 3563TIP3    H210633   3.305   2.467   4.030 -0.0363  1.5120 -1.4532
 3564TIP3   OH210634   5.828   1.966   2.468 -0.0537  0.3044  0.0638
 3564TIP3    H110635   5.822   1.891   2.410 -2.3168  0.6904 -0.2575
 3564TIP3    H210636   5.849   2.040   2.411 -0.8656  0.4353 -0.0725
 3565TIP3   OH210637   2.824   2.947   3.551 -0.1244 -0.0923 -0.0929
 3565TIP3    H110638   2.914   2.947   3.518  0.7594 -1.1332  2.2113
 3565TIP3    H210639   2.786   2.865   3.518  1.2688 -1.9387  2.6845
 3566TIP3   OH210640   2.981   4.147   1.992  0.4998  0.0255  0.0514
 3566TIP3    H110641   2.909   4.088   2.015 -0.3706 -0.0288 -2.6488
 3566TIP3    H210642   2.940   4.215   1.937  2.2254  0.8508 -0.2542
 3567TIP3   OH210643   3.120   4.053   2.517  0.1953  0.2559 -0.9473
 3567TIP3    H110644   3.170   4.006   2.450  1.5017 -0.2486  0.3501
 3567TIP3    H210645   3.029   4.039   2.492  0.6710  0.9527 -3.2018
 3568TIP3   OH210646   3.979   3.873   3.722 -0.4943  0.1488 -0.3414
 3568TIP3    H110647   4.049   3.872   3.657 -0.3897 -1.1354 -0.2271
 3568TIP3    H210648   3.972   3.965   3.748  2.3576  0.0489  0.9564
 3569TIP3   OH210649   1.055   2.601   3.567 -0.3430  0.2754  0.2035
 3569TIP3    H110650   1.062   2.507   3.583  1.3038  0.6412  1.8515
 3569TIP3    H210651   1.083   2.612   3.476  0.1923 -0.7582  0.2295
 3570TIP3   OH210652   4.074   3.073   3.366 -0.0127 -0.0664  0.3722
 3570TIP3    H110653   4.095   3.147   3.423  1.7874  1.2528 -1.8631
 3570TIP3    H210654   4.031   3.113   3.290 -1.0328 -1.5810  0.1358
 3571TIP3   OH210655   7.888   0.928   5.211  0.2378  0.7081 -0.2950
 3571TIP3    H110656   7.966   0.874   5.194 -0.1935  0.0607 -0.2279
 3571TIP3    H210657   7.818   0.886   5.161 -0.3777  0.4973  0.7173
 3572TIP3   OH210658   0.052   2.869   2.434 -0.1048  0.1171  0.7367
 3572TIP3    H110659  -0.031   2.913   2.450 -0.4288  0.1972 -1.0716
 3572TIP3    H210660   0.040   2.780   2.470 -0.9608  0.1258  0.4716
 3573TIP3   OH210661   0.170   3.367   2.492 -0.3873 -0.1169 -0.1402
 3573TIP3    H110662   0.100   3.401   2.435 -0.7571  0.3812  0.6099
 3573TIP3    H210663   0.203   3.290   2.446 -1.8329 -0.6992 -0.2115
 3574TIP3   OH210664   0.949   4.436   2.575  0.4632  0.2822  0.2524
 3574TIP3    H110665   0.922   4.528   2.569 -0.9921 -0.0361  1.6965
 3574TIP3    H210666   0.983   4.427   2.664 -2.1211 -1.2857  1.1068
 3575TIP3   OH210667   1.922   4.808   2.837  0.2707  0.2392  0.1441
 3575TIP3    H110668   1.963   4.798   2.751 -2.2906 -1.2758 -0.9580
 3575TIP3    H210669   1.855   4.875   2.824  1.1776  1.4352  1.4820
 3576TIP3   OH210670   3.019   2.440   2.533  0.6479  0.3021  0.6968
 3576TIP3    H110671   3.062   2.447   2.448  2.5782 -0.2678  1.5752
 3576TIP3    H210672   3.037   2.524   2.576  0.4963  0.2384  0.8849
 3577TIP3   OH210673   1.217   4.290   3.338  0.2811 -0.3872  0.3676
 3577TIP3    H110674   1.156   4.295   3.264  0.0678 -0.6759  0.5179
 3577TIP3    H210675   1.163   4.309   3.414  0.3438 -0.7934  0.5172
 3578TIP3   OH210676   0.624   3.009   3.019  0.0879  0.8152 -0.2999
 3578TIP3    H110677   0.649   3.092   3.058 -0.0176  0.5683  0.2879
 3578TIP3    H210678   0.600   2.953   3.093  0.7209  0.0750 -0.6454
 3579TIP3   OH210679   1.396   4.521   4.523 -0.0311 -0.4179  0.8876
 3579TIP3    H110680   1.332   4.461   4.483  0.7212 -0.1522 -0.7670
 3579TIP3    H210681   1.476   4.468   4.530  0.3029  0.0406  0.5199
 3580TIP3   OH210682   0.832   4.158   4.736  0.1351 -0.4147 -0.6336
 3580TIP3    H110683   0.851   4.166   4.830  1.9269 -2.1581 -0.8143
 3580TIP3    H210684   0.741   4.130   4.733 -0.3914  1.0874  0.5250
 3581TIP3   OH210685   1.292   4.035   4.739 -0.3607  0.2755  0.0022
 3581TIP3    H110686   1.308   4.094   4.813  0.4119  0.9848 -0.7280
 3581TIP3    H210687   1.334   4.077   4.665  0.2676 -1.2420 -0.5161
 3582TIP3   OH210688   1.702   4.987   2.813 -0.3397  0.5338 -0.0444
 3582TIP3    H110689   1.689   5.003   2.907 -0.3842  1.2340 -0.1682
 3582TIP3    H210690   1.659   5.061   2.770  0.8968  0.9507 -0.5785
 3583TIP3   OH210691   2.328   2.919   3.726 -0.0116 -0.3560 -0.0502
 3583TIP3    H110692   2.313   3.009   3.697 -1.3867  0.2034  2.2564
 3583TIP3    H210693   2.310   2.866   3.649  3.3865  1.4619 -2.2028
 3584TIP3   OH210694   6.078   5.150   2.579 -0.6381  0.6649 -0.2831
 3584TIP3    H110695   6.071   5.222   2.517 -0.2254  1.2912  0.3926
 3584TIP3    H210696   6.030   5.180   2.656 -1.9833 -0.4954 -0.6298
 3585TIP3   OH210697   2.029   3.012   4.113  0.0176 -0.0505 -0.1061
 3585TIP3    H110698   2.013   3.078   4.180 -0.4495  1.4354 -1.6199
 3585TIP3    H210699   2.086   3.056   4.049 -0.0543 -1.2015 -0.9822
 3586TIP3   OH210700   1.022   3.261   2.302 -0.0070  0.0948  0.8110
 3586TIP3    H110701   1.036   3.325   2.372  1.5671 -1.4668  1.9705
 3586TIP3    H210702   0.944   3.212   2.331 -2.1047  2.3722 -0.7948
 3587TIP3   OH210703   2.560   5.087   3.513 -0.0907 -0.5710 -0.1853
 3587TIP3    H110704   2.613   5.071   3.434  1.4198 -0.2484  0.7371
 3587TIP3    H210705   2.486   5.139   3.482  0.1462 -1.0001 -1.5043
 3588TIP3   OH210706   0.753   4.867   6.689 -0.1400  0.0750  0.0269
 3588TIP3    H110707   0.834   4.826   6.657 -0.0147 -1.0664  1.6794
 3588TIP3    H210708   0.770   4.882   6.782 -2.3693 -1.6018  0.7567
 3589TIP3   OH210709   8.410   4.559   3.272 -0.0173 -0.3920  0.2527
 3589TIP3    H110710   8.377   4.600   3.193 -0.9233 -2.0440 -0.2517
 3589TIP3    H210711   8.366   4.604   3.344 -0.1225  0.2766 -0.2337
 3590TIP3   OH210712   3.152   6.211   1.842  0.5201  0.7077  0.3237
 3590TIP3    H110713   3.068   6.199   1.886  0.4330  1.9954  0.5031
 3590TIP3    H210714   3.196   6.126   1.851 -0.9610 -0.1314 -0.2081
 3591TIP3   OH210715   2.969   6.367   4.670 -0.4352  0.1407 -0.0406
 3591TIP3    H110716   2.886   6.405   4.696 -0.5947  0.9460 -1.6917
 3591TIP3    H210717   2.967   6.278   4.705 -2.9743 -0.6371 -1.9959
 3592TIP3   OH210718   1.302   1.211   5.736 -0.1232  0.1636 -0.3264
 3592TIP3    H110719   1.383   1.175   5.698  0.6431  1.4593  0.0659
 3592TIP3    H210720   1.328   1.296   5.771 -0.9688 -0.7043  2.5093
 3593TIP3   OH210721   3.593   3.995   2.249  0.2629 -0.3874 -0.1039
 3593TIP3    H110722   3.543   3.958   2.176 -1.4701 -0.2715  0.9875
 3593TIP3    H210723   3.657   4.053   2.208  0.4610 -1.6548 -1.6177
 3594TIP3   OH210724   2.820   4.845   1.898  0.0465  0.4027  0.1455
 3594TIP3    H110725   2.789   4.933   1.920  1.1914  1.0417 -0.7566
 3594TIP3    H210726   2.915   4.854   1.895  0.0251 -0.1823 -2.8344
 3595TIP3   OH210727   0.951   1.421   2.067  0.1214  0.3446  0.3672
 3595TIP3    H110728   0.969   1.481   1.995 -1.5751  1.0648  0.5247
 3595TIP3    H210729   0.890   1.469   2.124  1.2466 -0.3079  2.1539
 3596TIP3   OH210730   7.595   3.845   3.254 -0.0732 -0.2461  0.7185
 3596TIP3    H110731   7.571   3.815   3.342  0.4041  0.8557  1.2391
 3596TIP3    H210732   7.547   3.787   3.195 -2.3150  0.5049  1.7277
 3597TIP3   OH210733   3.140   4.027   3.877  0.3559 -0.3253 -0.0569
 3597TIP3    H110734   3.065   4.077   3.907  1.1118 -0.8194  2.8723
 3597TIP3    H210735   3.104   3.962   3.817 -0.9183  2.2180 -2.1295
 3598TIP3   OH210736   4.481   2.554   1.692 -0.7865 -0.5472  0.3914
 3598TIP3    H110737   4.483   2.493   1.766 -1.1367 -0.1982  0.6938
 3598TIP3    H210738   4.572   2.582   1.681 -0.1960 -2.9559 -1.2928
 3599TIP3   OH210739   4.960   2.744   1.854  0.2088 -0.5627  0.2058
 3599TIP3    H110740   5.017   2.727   1.779 -0.6055 -1.7838 -0.1459
 3599TIP3    H210741   4.993   2.688   1.923 -0.5511 -1.2663  0.0030
 3600TIP3   OH210742   6.102   1.022   6.452 -0.4502 -0.2366 -0.1560
 3600TIP3    H110743   6.141   0.973   6.380  0.6481  0.1119  0.1926
 3600TIP3    H210744   6.103   1.113   6.423 -0.0620 -0.1028  0.2571
 3601TIP3   OH210745   1.675   4.757   2.115  0.2016  0.2979  0.3772
 3601TIP3    H110746   1.697   4.708   2.036 -0.5847  0.0257  0.3240
 3601TIP3    H210747   1.752   4.748   2.171  1.0498  1.1057 -0.6501
 3602TIP3   OH210748   3.079   5.109   3.587  0.6057 -0.1775 -0.2174
 3602TIP3    H110749   3.089   5.054   3.510 -0.6118 -1.6666  0.6585
 3602TIP3    H210750   2.984   5.113   3.601  0.7640  0.9258  0.5975
 3603TIP3   OH210751   1.770   3.938   2.946  0.2104  0.0800 -0.3552
 3603TIP3    H110752   1.768   3.843   2.937  0.1150  0.2016 -1.7652
 3603TIP3    H210753   1.779   3.953   3.040  0.0262 -1.3154 -0.1005
 3604TIP3   OH210754   2.666   4.803   2.549 -0.3254 -0.2465 -0.3753
 3604TIP3    H110755   2.645   4.721   2.593 -0.4793 -0.2394 -0.4368
 3604TIP3    H210756   2.706   4.777   2.467 -1.5844 -0.2667 -0.9924
 3605TIP3   OH210757   2.916   2.309   4.495 -0.5216  0.2776  0.2175
 3605TIP3    H110758   2.966   2.381   4.458  1.2310 -1.3180 -0.6037
 3605TIP3    H210759   2.895   2.252   4.420  0.1193 -1.2436  1.1626
 3606TIP3   OH210760   7.770   4.037   3.594 -0.1943  0.0093  0.5381
 3606TIP3    H110761   7.748   3.947   3.570 -0.3593 -0.3373  1.9333
 3606TIP3    H210762   7.687   4.084   3.590 -0.0693  0.1530 -0.4111
 3607TIP3   OH210763   1.546   4.431   3.003 -0.1061 -0.8256  0.7762
 3607TIP3    H110764   1.624   4.482   2.981 -1.9812  2.2374  0.8777
 3607TIP3    H210765   1.567   4.391   3.087  2.0679 -1.6920 -0.1251
 3608TIP3   OH210766   2.819   3.691   3.433  0.0209 -0.1981 -0.1446
 3608TIP3    H110767   2.800   3.607   3.391 -1.7010  0.8239 -1.4702
 3608TIP3    H210768   2.863   3.667   3.515 -1.2100 -2.4276 -0.0909
 3609TIP3   OH210769   3.350   5.388   4.319 -0.2008 -1.0615  0.0750
 3609TIP3    H110770   3.260   5.413   4.343 -0.0550  0.1576 -0.6037
 3609TIP3    H210771   3.340   5.307   4.269 -0.7929 -1.7551  1.2832
 3610TIP3   OH210772   2.571   2.181   0.813 -0.7511 -0.3475 -0.6114
 3610TIP3    H110773   2.589   2.231   0.893 -1.5061  1.4126 -1.5382
 3610TIP3    H210774   2.658   2.160   0.778 -0.4149 -1.0715  0.6022
 3611TIP3   OH210775   5.457   3.454   0.584 -0.6119  0.0211 -0.0721
 3611TIP3    H110776   5.482   3.546   0.583  0.7797 -0.3605 -0.8999
 3611TIP3    H210777   5.446   3.434   0.677  0.8630  0.5483  0.2254
 3612TIP3   OH210778   1.039   4.737   3.472  0.1515 -0.1822 -0.1516
 3612TIP3    H110779   0.983   4.670   3.433 -0.6970 -0.1586  1.0130
 3612TIP3    H210780   1.066   4.700   3.556  0.7909  0.3765 -0.1038
 3613TIP3   OH210781   2.955   2.357   0.908 -0.2767 -0.1788  0.4108
 3613TIP3    H110782   3.004   2.376   0.828 -1.6258 -2.8446 -1.0824
 3613TIP3    H210783   3.019   2.316   0.966  0.3817  0.6102  0.2585
 3614TIP3   OH210784   5.052   5.392   1.292 -0.0067 -0.3499 -0.0714
 3614TIP3    H110785   5.142   5.423   1.279  0.3701 -0.9265  1.0817
 3614TIP3    H210786   4.999   5.450   1.238  0.9798  0.4918 -0.1636
 3615TIP3   OH210787   4.322   3.266   0.562 -0.4665  0.2147  0.7501
 3615TIP3    H110788   4.373   3.341   0.531  1.6616 -1.2039  0.7576
 3615TIP3    H210789   4.343   3.195   0.502 -0.1703 -1.1859  2.4716
 3616TIP3   OH210790   3.969   5.342   2.289 -0.1614  0.6347  0.3575
 3616TIP3    H110791   4.015   5.416   2.328  1.0403  0.6039 -0.9310
 3616TIP3    H210792   3.944   5.373   2.202  0.0595 -0.3391 -0.0658
 3617TIP3   OH210793   4.108   3.359   2.438 -0.5254  0.2121 -0.3961
 3617TIP3    H110794   4.052   3.317   2.503  0.5086  0.4158  0.6387
 3617TIP3    H210795   4.054   3.363   2.359 -2.9073  2.7478  1.2925
 3618TIP3   OH210796   5.225   7.849   6.418  0.2384  0.0606 -0.2547
 3618TIP3    H110797   5.216   7.836   6.512 -1.4728 -2.0228 -0.6702
 3618TIP3    H210798   5.136   7.864   6.387  0.4289 -1.9228 -1.8741
 3619TIP3   OH210799   3.286   4.451   4.630 -0.0346 -0.3133 -0.2264
 3619TIP3    H110800   3.259   4.367   4.594  1.1089 -0.0490 -1.7654
 3619TIP3    H210801   3.337   4.429   4.707  0.1956 -1.0350 -0.5860
 3620TIP3   OH210802   4.852   2.164   2.549  0.1877  0.2699  0.2737
 3620TIP3    H110803   4.832   2.107   2.623 -0.0941  1.2177  0.9288
 3620TIP3    H210804   4.948   2.171   2.548  0.2583 -0.7328 -0.2032
 3621TIP3   OH210805   4.226   3.655   2.110 -0.5940 -0.8922  0.3285
 3621TIP3    H110806   4.224   3.654   2.206  0.2193 -0.3988  0.3609
 3621TIP3    H210807   4.190   3.571   2.084 -1.6634 -0.6602  1.0519
 3622TIP3   OH210808   3.564   0.906   1.967  0.6847  0.1396  0.2892
 3622TIP3    H110809   3.549   0.857   2.048  0.0024  0.8607  0.5989
 3622TIP3    H210810   3.512   0.861   1.901  1.0457 -0.2994  0.2991
 3623TIP3   OH210811   3.168   3.751   3.066 -0.3461  0.8133 -0.6253
 3623TIP3    H110812   3.107   3.791   3.126  0.4137 -1.4573  1.7781
 3623TIP3    H210813   3.245   3.807   3.068 -0.1002  0.4353  1.0307
 3624TIP3   OH210814   4.211   4.131   1.262 -0.6864 -0.4186  0.3749
 3624TIP3    H110815   4.252   4.168   1.183 -0.1069  1.1378  1.3806
 3624TIP3    H210816   4.277   4.071   1.297 -0.8797 -0.9898 -0.2473
 3625TIP3   OH210817   4.792   3.576   3.048  0.6350  0.0242  0.0995
 3625TIP3    H110818   4.724   3.566   3.114 -0.1608 -0.0755 -0.7312
 3625TIP3    H210819   4.807   3.487   3.015  0.4166  0.1943 -0.4611
 3626TIP3   OH210820   2.448   3.261   1.641 -0.2296  0.4684 -0.0148
 3626TIP3    H110821   2.358   3.276   1.669 -0.0758 -1.2231  1.4528
 3626TIP3    H210822   2.456   3.166   1.633  1.5853  0.5677  0.3954
 3627TIP3   OH210823   5.951   1.305   2.596 -0.1275  0.3106 -0.4731
 3627TIP3    H110824   5.930   1.244   2.526 -1.1329  0.5130 -0.3482
 3627TIP3    H210825   5.867   1.340   2.625  0.1763 -0.4748  1.4724
 3628TIP3   OH210826   4.195   5.928   1.380 -0.9017  0.4130 -0.1709
 3628TIP3    H110827   4.149   6.001   1.337  1.7879  1.6255 -1.1463
 3628TIP3    H210828   4.284   5.961   1.393  0.0512 -2.2957  0.4605
 3629TIP3   OH210829   4.758   4.688   2.849 -0.5237  0.1793 -0.0476
 3629TIP3    H110830   4.803   4.755   2.901  0.0740  0.5770 -1.0807
 3629TIP3    H210831   4.813   4.610   2.858 -1.8281 -0.5500  2.1274
 3630TIP3   OH210832   4.682   2.469   2.038  0.0191  0.1984  0.4123
 3630TIP3    H110833   4.747   2.427   1.982  0.2592  1.0306  0.0674
 3630TIP3    H210834   4.617   2.400   2.054 -0.3582  0.1033 -1.3736
 3631TIP3   OH210835   3.215   5.505   2.198 -0.3462 -0.6554  0.5057
 3631TIP3    H110836   3.299   5.506   2.244  0.4130  1.7914 -0.8707
 3631TIP3    H210837   3.235   5.470   2.112 -0.7753 -0.2650  0.2475
 3632TIP3   OH210838   2.147   4.108   2.540  0.5483 -0.2360 -0.4146
 3632TIP3    H110839   2.144   4.140   2.450 -0.7190 -1.8007 -0.9550
 3632TIP3    H210840   2.088   4.033   2.541  0.0233  0.1603  1.8890
 3633TIP3   OH210841   4.088   2.817   1.265  0.3346 -0.9675  0.3532
 3633TIP3    H110842   4.082   2.729   1.300 -1.6929 -0.0659  2.3592
 3633TIP3    H210843   4.139   2.866   1.330 -0.7657 -0.0512  0.5489
 3634TIP3   OH210844   1.306   1.927   4.163  0.3390 -0.2514 -0.2288
 3634TIP3    H110845   1.267   1.852   4.209  2.3287  0.0477  1.9877
 3634TIP3    H210846   1.253   2.002   4.191  0.7287 -0.2614  0.5283
 3635TIP3   OH210847   3.534   3.508   0.602 -0.3301  0.0382 -0.0457
 3635TIP3    H110848   3.560   3.509   0.694  1.6106 -1.8958 -0.5502
 3635TIP3    H210849   3.522   3.415   0.582 -0.5860  0.4455 -1.7867
 3636TIP3   OH210850   4.110   4.011   0.871  0.7023 -0.0409 -0.2089
 3636TIP3    H110851   4.191   4.048   0.836  0.5913 -0.4888 -0.9611
 3636TIP3    H210852   4.055   4.086   0.890  1.7825  0.3303  1.5248
 3637TIP3   OH210853   4.439   3.499   2.865  0.5646 -0.1821 -0.1032
 3637TIP3    H110854   4.385   3.556   2.920  0.8984 -0.1817  0.2233
 3637TIP3    H210855   4.399   3.413   2.873  1.6472 -0.5662  1.5637
 3638TIP3   OH210856   3.171   1.581   2.009 -0.4393 -0.3298  0.2310
 3638TIP3    H110857   3.260   1.614   2.010 -0.6765  0.3436  2.0150
 3638TIP3    H210858   3.180   1.486   2.004  0.3762 -0.2682  0.5388
 3639TIP3   OH210859   2.499   4.278   2.450  0.5885 -0.2654  0.3079
 3639TIP3    H110860   2.510   4.184   2.434  0.1677 -0.4281  0.9271
 3639TIP3    H210861   2.477   4.284   2.543  2.1571  0.5802  0.6482
 3640TIP3   OH210862   6.554   6.685   6.967  0.6015 -0.1031  0.4025
 3640TIP3    H110863   6.546   6.655   6.876 -2.2454 -0.1570  0.6371
 3640TIP3    H210864   6.567   6.779   6.960  0.4880 -0.1186 -0.0523
 3641TIP3   OH210865   3.911   5.920   1.675 -0.1152 -0.1414 -0.1799
 3641TIP3    H110866   3.973   5.850   1.653 -0.4368  0.0108 -1.6166
 3641TIP3    H210867   3.949   5.962   1.752  1.1252 -0.5985 -0.5282
 3642TIP3   OH210868   5.507   2.799   1.684 -0.7044  0.6373 -0.7721
 3642TIP3    H110869   5.592   2.793   1.640 -0.8102 -1.5909 -0.7295
 3642TIP3    H210870   5.526   2.839   1.768 -0.1025  2.5137 -1.7604
 3643TIP3   OH210871   3.708   2.535   3.545 -0.0203 -0.1396  0.3313
 3643TIP3    H110872   3.765   2.469   3.584  0.8088  0.7838  0.6933
 3643TIP3    H210873   3.705   2.512   3.452  0.1442 -0.7599  0.4732
 3644TIP3   OH210874   2.469   5.237   2.548  0.0137 -0.0266 -0.7102
 3644TIP3    H110875   2.409   5.311   2.532 -0.1341  0.2184  0.8443
 3644TIP3    H210876   2.431   5.164   2.499 -0.4226  0.6675 -1.4169
 3645TIP3   OH210877   4.471   7.358   2.279  0.4855  0.5069 -0.0269
 3645TIP3    H110878   4.485   7.373   2.373  0.4556 -0.3209  0.1155
 3645TIP3    H210879   4.557   7.372   2.240  0.3002  1.7469  0.0034
 3646TIP3   OH210880   2.758   3.029   2.641 -0.4407 -0.5531  0.0199
 3646TIP3    H110881   2.752   2.967   2.569 -3.5375  0.9223 -1.0944
 3646TIP3    H210882   2.834   3.084   2.619 -0.6503 -0.8644 -1.5088
 3647TIP3   OH210883   4.514   4.706   2.372 -0.0619  0.4174  0.0859
 3647TIP3    H110884   4.441   4.713   2.310 -0.0475 -0.2783 -0.0151
 3647TIP3    H210885   4.560   4.790   2.364 -0.8490  0.8644  0.1527
 3648TIP3   OH210886   3.436   3.904   3.098 -0.4851  0.1215  0.3488
 3648TIP3    H110887   3.492   3.826   3.090 -0.7757  0.0487 -1.1364
 3648TIP3    H210888   3.466   3.962   3.028  0.7735  2.0457  2.4137
 3649TIP3   OH210889   4.560   3.021   2.793  0.1131 -0.0954  0.3393
 3649TIP3    H110890   4.623   2.966   2.839  0.6414 -1.0321 -1.4567
 3649TIP3    H210891   4.480   3.016   2.846  0.5047 -1.6945  0.8088
 3650TIP3   OH210892   4.571   5.279   2.417  0.2609  0.4856 -0.3593
 3650TIP3    H110893   4.545   5.337   2.345 -0.2305 -1.5458 -1.8766
 3650TIP3    H210894   4.628   5.214   2.376 -2.2372 -2.3487  0.5172
 3651TIP3   OH210895   3.403   6.035   2.428  0.8342 -0.0127 -0.4009
 3651TIP3    H110896   3.376   6.122   2.398 -1.7072 -0.0093  1.7258
 3651TIP3    H210897   3.397   5.979   2.350  2.1578  1.6206 -1.7018
 3652TIP3   OH210898   5.177   4.594   2.410  0.0118  0.2840  0.3428
 3652TIP3    H110899   5.266   4.625   2.390  0.1424  0.4987  1.2433
 3652TIP3    H210900   5.122   4.670   2.390 -0.1371 -0.3007 -1.5844
 3653TIP3   OH210901   4.855   4.446   2.253  0.3980  0.2179  0.1232
 3653TIP3    H110902   4.763   4.474   2.253  0.0049 -1.0505 -0.0982
 3653TIP3    H210903   4.881   4.450   2.346 -0.7257 -2.0683  0.5847
 3654TIP3   OH210904   1.600   4.410   0.582  0.7371 -0.0246  0.0028
 3654TIP3    H110905   1.626   4.490   0.627  1.2171 -0.6026  0.7606
 3654TIP3    H210906   1.678   4.355   0.583  0.2323 -0.7490  0.0315
 3655TIP3   OH210907   4.715   4.343   1.831  0.7024  0.4259  0.3502
 3655TIP3    H110908   4.697   4.303   1.916  3.6104 -0.8841  0.3724
 3655TIP3    H210909   4.712   4.271   1.769  0.9186  1.0103 -0.3520
 3656TIP3   OH210910   2.224   3.854   1.970 -0.4257 -0.0800  0.8386
 3656TIP3    H110911   2.156   3.867   1.904  0.3168 -0.4267 -0.0051
 3656TIP3    H210912   2.266   3.772   1.946  2.1241  1.4880 -0.3206
 3657TIP3   OH210913   0.434   4.784   2.974 -0.0894  0.2545  0.5220
 3657TIP3    H110914   0.422   4.699   3.017  0.7253  0.3525  0.9519
 3657TIP3    H210915   0.518   4.815   3.006  1.1093 -0.2179 -2.0866
 3658TIP3   OH210916   4.271   5.138   1.159 -0.0746 -0.0095  0.2114
 3658TIP3    H110917   4.363   5.138   1.133 -0.2525  0.8035 -0.4292
 3658TIP3    H210918   4.223   5.123   1.078 -0.4958 -1.1345  0.6487
 3659TIP3   OH210919   2.996   3.266   1.845 -0.5914  0.4489  0.1682
 3659TIP3    H110920   2.977   3.270   1.751  1.0026  0.0009 -0.1922
 3659TIP3    H210921   2.963   3.181   1.873 -0.2615  0.2064 -0.1777
 3660TIP3   OH210922   3.371   5.321   1.653 -0.2903 -0.5747 -0.0230
 3660TIP3    H110923   3.313   5.335   1.579  0.8056 -0.3562 -0.8571
 3660TIP3    H210924   3.445   5.379   1.636  0.3583 -1.1467  0.8173
 3661TIP3   OH210925   4.236   3.317   1.278 -0.2772 -0.1740 -0.4012
 3661TIP3    H110926   4.260   3.377   1.348 -2.3872 -0.8599  0.9368
 3661TIP3    H210927   4.205   3.238   1.322  2.2511 -2.2503 -2.1236
 3662TIP3   OH210928   2.892   3.579   0.439 -0.1496 -0.6419  0.5963
 3662TIP3    H110929   2.834   3.620   0.375  1.0691  0.4150  0.1446
 3662TIP3    H210930   2.834   3.522   0.490 -1.6840  0.7698  0.4962
 3663TIP3   OH210931   1.664   0.153   6.823  0.1859  0.2245 -0.1930
 3663TIP3    H110932   1.620   0.104   6.892 -0.3324  0.3763 -0.4150
 3663TIP3    H210933   1.756   0.151   6.848  0.0587 -0.1098  0.2638
 3664TIP3   OH210934   3.453   1.966   2.181  0.3060  0.2426 -0.1268
 3664TIP3    H110935   3.534   1.993   2.137 -0.3745  4.3117  0.8565
 3664TIP3    H210936   3.481   1.926   2.262  1.3664  2.5336  0.6635
 3665TIP3   OH210937   4.597   4.627   3.604 -0.1005 -0.5356  0.1280
 3665TIP3    H110938   4.633   4.649   3.690  0.3456 -0.9554  0.0508
 3665TIP3    H210939   4.633   4.693   3.545  0.8746 -1.1904 -0.0217
 3666TIP3   OH210940   3.100   4.894   1.850  0.4072  0.3938  0.3365
 3666TIP3    H110941   3.180   4.842   1.846 -0.1420 -0.3916 -0.5829
 3666TIP3    H210942   3.116   4.957   1.920  0.4497 -2.0320  2.5593
 3667TIP3   OH210943   3.621   2.532   2.624  0.6785  0.1079 -0.5171
 3667TIP3    H110944   3.633   2.489   2.709  1.9281  0.1767 -0.6556
 3667TIP3    H210945   3.634   2.625   2.642  1.3740  0.0807 -0.8565
 3668TIP3   OH210946   5.602   2.588   2.946  0.0139 -0.1344 -0.3675
 3668TIP3    H110947   5.565   2.677   2.942  2.0959  0.7803  0.1147
 3668TIP3    H210948   5.666   2.592   3.017  0.9492 -1.7110 -1.0992
 3669TIP3   OH210949   3.856   3.744   1.732  0.5814  0.5665  0.3745
 3669TIP3    H110950   3.847   3.826   1.684  0.0613  1.1628  1.4720
 3669TIP3    H210951   3.769   3.728   1.769  0.6881 -0.4647  0.1921
 3670TIP3   OH210952   6.178   4.378   1.266 -0.0479 -0.3702 -0.2032
 3670TIP3    H110953   6.252   4.374   1.205 -0.0292 -0.0955 -0.1963
 3670TIP3    H210954   6.103   4.347   1.216 -0.0676  0.0234 -0.4177
 3671TIP3   OH210955   5.916   5.674   2.282 -0.3313  0.2702  0.2968
 3671TIP3    H110956   5.885   5.673   2.372 -1.9613  0.4108 -0.2572
 3671TIP3    H210957   5.874   5.750   2.243  0.4312  0.2566 -0.5710
 3672TIP3   OH210958   2.407   2.707   0.731  0.8156  0.3751  0.3662
 3672TIP3    H110959   2.357   2.682   0.653 -1.8408  0.8463  1.8823
 3672TIP3    H210960   2.420   2.626   0.779  0.8415  0.3744  0.3583
 3673TIP3   OH210961   3.472   3.136   0.841  0.5106  0.5063  0.0498
 3673TIP3    H110962   3.541   3.103   0.783  0.8436  0.4562  0.4745
 3673TIP3    H210963   3.485   3.090   0.924  0.9052  1.5969  0.6079
 3674TIP3   OH210964   3.956   2.040   3.756  0.0742 -0.0374  0.6743
 3674TIP3    H110965   3.891   2.036   3.826 -0.5605 -1.0205  0.0507
 3674TIP3    H210966   3.994   1.952   3.755 -2.3486 -1.1617 -2.4449
 3675TIP3   OH210967   3.191   1.927   3.570 -0.3917 -0.2073  0.0090
 3675TIP3    H110968   3.139   1.887   3.500 -0.4304 -1.6133  0.8098
 3675TIP3    H210969   3.142   2.005   3.596  1.2351  2.1577 -3.7009
 3676TIP3   OH210970   3.294   4.830   1.225 -0.4217  0.3263  0.2840
 3676TIP3    H110971   3.356   4.791   1.286  1.4629  1.1769 -1.0706
 3676TIP3    H210972   3.227   4.869   1.282  0.0362 -0.9199  1.7352
 3677TIP3   OH210973   3.875   2.378   0.870 -0.5715  0.2136  0.0164
 3677TIP3    H110974   3.862   2.297   0.821 -0.1883 -0.2232  0.6387
 3677TIP3    H210975   3.786   2.412   0.882 -0.7578 -0.2546 -0.0047
 3678TIP3   OH210976   3.678   3.816   3.260 -0.4213 -0.6021 -0.3557
 3678TIP3    H110977   3.759   3.856   3.290 -1.0971 -0.2894  1.1089
 3678TIP3    H210978   3.679   3.828   3.165  0.1622  1.4580 -0.1245
 3679TIP3   OH210979   3.015   2.345   3.962  0.1459 -0.3716 -0.4651
 3679TIP3    H110980   3.059   2.366   3.880 -0.7510 -0.9791 -1.1219
 3679TIP3    H210981   3.011   2.428   4.010  0.3439  0.0678 -1.2036
 3680TIP3   OH210982   3.425   4.251   0.490  0.4047  0.1567 -0.0814
 3680TIP3    H110983   3.397   4.170   0.532 -1.9962 -0.3657 -2.5529
 3680TIP3    H210984   3.376   4.320   0.536  1.2516  0.0690  0.9700
 3681TIP3   OH210985   2.453   4.841   4.861 -0.2661 -0.3658 -0.1583
 3681TIP3    H110986   2.400   4.919   4.879 -0.5593 -0.4474 -0.6423
 3681TIP3    H210987   2.482   4.853   4.770 -0.4319 -0.8909 -0.2812
 3682TIP3   OH210988   5.145   4.413   2.885  0.2468  0.2258 -0.4734
 3682TIP3    H110989   5.195   4.444   2.961 -1.0457 -2.0757  1.3706
 3682TIP3    H210990   5.207   4.358   2.837  0.4234 -0.1377  0.1579
 3683TIP3   OH210991   1.816   1.794   0.335  0.2407  0.3882  0.2009
 3683TIP3    H110992   1.800   1.822   0.425  2.3797  0.3894  0.5909
 3683TIP3    H210993   1.875   1.720   0.343 -0.2940 -0.1909 -1.1679
 3684TIP3   OH210994   5.030   4.153   4.999 -0.3134  0.3906  0.2728
 3684TIP3    H110995   5.044   4.088   5.068 -0.0989 -0.4195 -0.5191
 3684TIP3    H210996   4.963   4.114   4.943  0.4448  0.4524 -0.6938
 3685TIP3   OH210997   4.791   4.725   1.772 -0.6731  0.5356 -0.0884
 3685TIP3    H110998   4.731   4.663   1.731  1.0037 -1.7963  0.8467
 3685TIP3    H210999   4.854   4.747   1.703  0.8530 -1.6898  0.5058
 3686TIP3   OH211000   4.506   5.004   2.797  0.1656 -0.6830  0.0190
 3686TIP3    H111001   4.426   5.025   2.845  0.6297 -0.8117  0.8661
 3686TIP3    H211002   4.569   5.071   2.826  0.2989 -0.4586 -0.7939
 3687TIP3   OH211003   3.394   2.045   2.594  0.1129 -0.0081  0.0223
 3687TIP3    H111004   3.401   2.046   2.689  0.9943 -0.4354 -0.0250
 3687TIP3    H211005   3.323   2.105   2.573  0.6314  0.9027  0.8962
 3688TIP3   OH211006   3.751   2.777   1.346 -0.0531 -0.5646  0.1744
 3688TIP3    H111007   3.796   2.821   1.273  0.5213 -0.2887  0.6943
 3688TIP3    H211008   3.694   2.713   1.303 -1.3809  1.1267 -0.6035
 3689TIP3   OH211009   3.938   3.927   4.440 -0.3045  0.6666  0.2064
 3689TIP3    H111010   3.862   3.954   4.491 -1.2794 -0.3844 -0.6435
 3689TIP3    H211011   4.010   3.925   4.502 -0.9506  1.7671  1.0053
 3690TIP3   OH211012   3.087   4.278   2.201 -0.0468  0.3534  0.6708
 3690TIP3    H111013   3.103   4.367   2.170  2.1457  0.5496  2.1768
 3690TIP3    H211014   3.048   4.233   2.127  0.2664  2.1510 -0.6282
 3691TIP3   OH211015   4.912   3.551   1.499 -0.0678 -0.1052 -0.3302
 3691TIP3    H111016   4.848   3.614   1.534 -1.5421 -1.4708 -0.4870
 3691TIP3    H211017   4.980   3.546   1.566 -0.3453  1.0384  0.0494
 3692TIP3   OH211018   4.750   5.435   3.010 -0.2749  0.9399  0.1537
 3692TIP3    H111019   4.797   5.511   3.046 -2.7832  2.3910  0.5072
 3692TIP3    H211020   4.679   5.420   3.072 -1.6164  0.2387 -1.5217
 3693TIP3   OH211021   3.147   7.232   2.832  0.0559 -0.1286  0.2908
 3693TIP3    H111022   3.199   7.158   2.865 -0.9062 -0.6199  0.7151
 3693TIP3    H211023   3.056   7.205   2.844 -0.3110  1.4787  1.2252
 3694TIP3   OH211024   6.226   1.890   1.657  0.2430 -0.2289  0.8550
 3694TIP3    H111025   6.142   1.893   1.703 -0.6299 -0.8079 -0.6693
 3694TIP3    H211026   6.269   1.812   1.692 -0.9019 -1.3085 -0.1203
 3695TIP3   OH211027   5.320   1.938   3.112 -0.5070  0.7799  0.4819
 3695TIP3    H111028   5.406   1.920   3.152  0.0350  0.7593 -0.6669
 3695TIP3    H211029   5.264   1.962   3.186 -0.1665 -1.5623  1.5480
 3696TIP3   OH211030   3.234   4.663   3.349 -0.6818  0.3130 -0.0596
 3696TIP3    H111031   3.269   4.592   3.403 -0.2159 -0.0925 -0.8780
 3696TIP3    H211032   3.156   4.625   3.308  1.3058 -0.8516 -3.0041
 3697TIP3   OH211033   3.369   4.748   2.020 -0.3698  0.3282  0.4322
 3697TIP3    H111034   3.387   4.755   2.114 -2.6954 -1.0622  1.0119
 3697TIP3    H211035   3.419   4.672   1.991 -0.3563  0.2334  0.7074
 3698TIP3   OH211036   3.027   5.957   2.998  0.6216  0.4997 -0.5111
 3698TIP3    H111037   3.032   5.872   2.955  2.5687  0.1379  0.3782
 3698TIP3    H211038   2.994   5.938   3.085  0.1193  0.7832 -0.6387
 3699TIP3   OH211039   3.671   3.733   2.984 -0.4293  0.5175 -0.1904
 3699TIP3    H111040   3.649   3.798   2.917 -1.4596  1.2203  0.8061
 3699TIP3    H211041   3.664   3.649   2.939  1.4166  1.0995 -1.6288
 3700TIP3   OH211042   3.434   2.440   3.878 -0.0270  0.2615  0.3865
 3700TIP3    H111043   3.431   2.370   3.812  0.4149 -0.0483  0.6956
 3700TIP3    H211044   3.455   2.519   3.828  2.2488 -0.3086  0.4175
 3701TIP3   OH211045   3.232   3.716   1.922 -0.2554 -0.3268  0.4638
 3701TIP3    H111046   3.212   3.624   1.904 -0.4562 -0.3386  0.7337
 3701TIP3    H211047   3.171   3.766   1.868  0.5872 -0.3384 -0.5133
 3702TIP3   OH211048   4.636   4.147   1.646  0.1481  0.4459 -0.4310
 3702TIP3    H111049   4.601   4.087   1.580 -0.4040 -2.0203  1.9857
 3702TIP3    H211050   4.558   4.186   1.686  0.2886 -0.8194  1.1581
 3703TIP3   OH211051   2.972   2.705   1.945  0.2761 -0.3923  0.2192
 3703TIP3    H111052   2.883   2.691   1.976  0.3247 -0.0394  0.5189
 3703TIP3    H211053   2.988   2.632   1.885 -0.3635 -0.2168 -0.1650
 3704TIP3   OH211054   6.842   2.299   2.374  0.2724  0.6014 -0.2492
 3704TIP3    H111055   6.846   2.392   2.397  0.3925  0.7822 -0.9806
 3704TIP3    H211056   6.927   2.264   2.403  0.1599  0.6766  0.1813
 3705TIP3   OH211057   7.754   1.989   6.479 -0.1884 -0.1940  0.2822
 3705TIP3    H111058   7.714   1.972   6.564 -0.3769  0.0931  0.2524
 3705TIP3    H211059   7.682   1.982   6.417 -0.2037  0.3562  0.2312
 3706TIP3   OH211060   0.873   5.940   2.796 -0.4689  0.3124 -0.2523
 3706TIP3    H111061   0.862   5.870   2.732  0.6706  0.8744 -1.0625
 3706TIP3    H211062   0.967   5.945   2.811 -0.6137  1.1373  0.4033
 3707TIP3   OH211063   4.048   1.902   1.889  0.1647  0.0511  0.4130
 3707TIP3    H111064   4.012   1.972   1.944 -0.5582  0.1548 -0.1855
 3707TIP3    H211065   3.972   1.862   1.848  0.7526  0.5388 -1.1815
 3708TIP3   OH211066   4.110   4.385   1.834 -0.3448  0.3871  0.3164
 3708TIP3    H111067   4.105   4.333   1.914 -1.6633 -1.0705 -0.6747
 3708TIP3    H211068   4.027   4.433   1.831  0.1409  1.2432  0.3451
 3709TIP3   OH211069   4.184   3.650   1.312  0.4525 -0.0850 -0.1264
 3709TIP3    H111070   4.110   3.648   1.373  0.4805  1.3556 -0.0283
 3709TIP3    H211071   4.144   3.657   1.226  0.4817  2.0673  0.0152
 3710TIP3   OH211072   3.091   3.269   3.643  0.4875 -0.5043  0.1594
 3710TIP3    H111073   3.014   3.323   3.626  0.1327 -1.7901 -2.4735
 3710TIP3    H211074   3.064   3.211   3.714 -0.0326  0.8884  1.1326
 3711TIP3   OH211075   4.005   5.550   1.299  0.6237 -0.0438 -0.2423
 3711TIP3    H111076   3.985   5.556   1.206 -1.0194 -0.0300  0.1049
 3711TIP3    H211077   4.033   5.459   1.312  0.6716 -0.0962 -0.7034
 3712TIP3   OH211078   4.168   2.695   2.396  0.2470  0.9711  0.2241
 3712TIP3    H111079   4.181   2.604   2.421  1.0191  0.8046 -0.7934
 3712TIP3    H211080   4.143   2.692   2.304  3.0342  1.9586 -0.6143
 3713TIP3   OH211081   5.540   7.429   3.118 -0.2927 -0.2166 -0.2555
 3713TIP3    H111082   5.532   7.513   3.072 -1.2281 -0.7115 -1.0304
 3713TIP3    H211083   5.592   7.449   3.196  0.6598  0.8048 -1.1286
 3714TIP3   OH211084   5.301   3.873   3.573  0.3761 -0.7128  0.4463
 3714TIP3    H111085   5.346   3.790   3.594  0.5460 -0.5574  0.7056
 3714TIP3    H211086   5.209   3.849   3.565  0.3988 -0.8931  0.7197
 3715TIP3   OH211087   5.145   3.368   1.164  0.0877  0.0614 -0.1868
 3715TIP3    H111088   5.102   3.290   1.197 -1.0240  0.9353  0.4746
 3715TIP3    H211089   5.104   3.440   1.212  1.0991  1.0470 -0.7763
 3716TIP3   OH211090   3.354   5.133   2.056  0.5410  0.0992 -0.0382
 3716TIP3    H111091   3.400   5.074   2.115  0.8600  0.2744 -0.1118
 3716TIP3    H211092   3.261   5.122   2.078  0.6918  0.5163  0.8200
 3717TIP3   OH211093   4.618   5.131   0.071  0.7684  0.1304 -0.4994
 3717TIP3    H111094   4.591   5.222   0.059  2.1191  0.5344 -0.5641
 3717TIP3    H211095   4.565   5.081   0.009 -0.7380  0.7336  0.2961
 3718TIP3   OH211096   4.108   4.389   1.298  0.2355 -0.1457 -0.0968
 3718TIP3    H111097   4.127   4.297   1.282  2.5981 -0.2114  2.6559
 3718TIP3    H211098   4.194   4.429   1.310 -0.8804  1.8096  1.6934
 3719TIP3   OH211099   4.336   5.393   3.394 -0.2385 -0.3275 -0.6660
 3719TIP3    H111100   4.319   5.300   3.405  0.6877 -0.5621 -1.1310
 3719TIP3    H211101   4.339   5.428   3.483 -0.7252 -0.7187 -0.4992
 3720TIP3   OH211102   2.688   4.521   3.752 -0.3434 -0.1878 -0.6405
 3720TIP3    H111103   2.779   4.520   3.723 -0.6784 -1.7618 -1.6889
 3720TIP3    H211104   2.691   4.493   3.843  0.4661  2.3611  0.1714
 3721TIP3   OH211105   6.654   1.766   1.713  1.1784 -0.3118 -0.2631
 3721TIP3    H111106   6.596   1.722   1.775  1.7648  0.3884  0.7934
 3721TIP3    H211107   6.676   1.699   1.649 -1.5465 -0.3551 -1.2243
 3722TIP3   OH211108   6.321   2.193   2.136 -0.4460  0.5695 -0.1080
 3722TIP3    H111109   6.248   2.230   2.085 -0.8859 -0.1268  0.0091
 3722TIP3    H211110   6.365   2.134   2.075  0.3084  1.3400 -0.3211
 3723TIP3   OH211111   0.096   5.008   0.467  0.1132 -0.5422 -0.0881
 3723TIP3    H111112   0.173   5.065   0.465 -1.2293  1.3550  1.1527
 3723TIP3    H211113   0.115   4.945   0.537  1.2868 -1.2161 -0.9823
 3724TIP3   OH211114   3.792   4.157   2.147  0.0183 -0.6279 -0.3360
 3724TIP3    H111115   3.817   4.232   2.201 -0.4450  1.0237 -2.3766
 3724TIP3    H211116   3.869   4.140   2.092 -0.7328 -0.1179 -1.5590
 3725TIP3   OH211117   2.737   1.778   0.552  0.3395 -0.5502  0.8683
 3725TIP3    H111118   2.774   1.706   0.604 -0.4619 -2.3486 -1.0012
 3725TIP3    H211119   2.647   1.751   0.535  0.8784 -0.5086 -2.3047
 3726TIP3   OH211120   3.458   5.206   0.511  0.3015 -0.6254 -0.1570
 3726TIP3    H111121   3.522   5.278   0.516  0.2465 -0.4282 -2.0073
 3726TIP3    H211122   3.461   5.166   0.598  2.1537  0.0618  0.1304
 3727TIP3   OH211123   3.689   2.260   2.862  0.2720 -0.9156 -0.0711
 3727TIP3    H111124   3.741   2.194   2.816 -0.9233 -2.7716  1.1791
 3727TIP3    H211125   3.746   2.290   2.934  0.3464 -1.4698  0.0974
 3728TIP3   OH211126   3.797   6.134   1.305  0.1384 -0.8284 -0.2766
 3728TIP3    H111127   3.869   6.191   1.277  0.0117 -1.2362 -1.4270
 3728TIP3    H211128   3.818   6.048   1.268 -1.4718 -0.7145 -1.5022
 3729TIP3   OH211129   2.172   0.796   0.647 -0.1246 -0.1385  0.0106
 3729TIP3    H111130   2.172   0.739   0.570  0.2267 -3.9534  2.7045
 3729TIP3    H211131   2.081   0.823   0.658 -0.0980  0.8418 -1.9433
 3730TIP3   OH211132   4.400   7.234   1.463 -0.4191  0.0296 -0.8669
 3730TIP3    H111133   4.404   7.142   1.490  0.4665  0.0597 -0.8660
 3730TIP3    H211134   4.397   7.230   1.367  1.6210  0.0263 -0.9605
 3731TIP3   OH211135   2.592   1.737   3.576  0.4241  0.3448 -0.2355
 3731TIP3    H111136   2.585   1.790   3.655 -0.6424  0.6994 -0.5563
 3731TIP3    H211137   2.664   1.676   3.594 -1.6027 -1.4283  2.0774
 3732TIP3   OH211138   5.013   5.094   4.040  0.3254  0.0103  0.7959
 3732TIP3    H111139   4.999   5.067   3.950  0.8388 -2.1410  1.3217
 3732TIP3    H211140   5.055   5.180   4.034  0.6710 -0.2739 -1.0016
 3733TIP3   OH211141   2.488   5.779   2.774  0.0519  0.2097 -0.0544
 3733TIP3    H111142   2.460   5.831   2.699 -1.8643 -1.3533 -0.4763
 3733TIP3    H211143   2.509   5.694   2.737 -1.9789 -0.9262  1.2660
 3734TIP3   OH211144   4.088   5.262   1.331  0.5001  0.4144 -0.0727
 3734TIP3    H111145   4.133   5.196   1.278 -0.4099 -0.4373  0.1996
 3734TIP3    H211146   4.157   5.303   1.383  1.2891  0.7326 -1.3602
 3735TIP3   OH211147   4.176   5.185   4.729 -0.3354 -0.3462  0.4862
 3735TIP3    H111148   4.111   5.117   4.745 -0.0410 -0.6127  0.5414
 3735TIP3    H211149   4.149   5.226   4.647 -2.3836  1.6070  2.0452
 3736TIP3   OH211150   5.041   4.024   5.824  0.2357 -0.6800 -0.1392
 3736TIP3    H111151   4.959   3.991   5.786  1.8037 -1.6940 -2.7800
 3736TIP3    H211152   5.109   3.973   5.780  2.3489  0.9274  1.2099
 3737TIP3   OH211153   3.647   3.556   1.460  0.1879  0.2216  0.2147
 3737TIP3    H111154   3.572   3.588   1.510 -1.2239 -1.2935 -0.8867
 3737TIP3    H211155   3.622   3.467   1.434  2.4949 -0.4114  0.0795
 3738TIP3   OH211156   4.752   2.448   3.234  0.1132 -0.7542 -0.0387
 3738TIP3    H111157   4.708   2.438   3.318  1.6446 -0.0474  0.8825
 3738TIP3    H211158   4.691   2.413   3.169 -0.6155 -2.3271  1.4869
 3739TIP3   OH211159   3.654   4.890   1.820 -0.2651 -0.2127  0.1810
 3739TIP3    H111160   3.630   4.980   1.797 -1.3321 -0.1651  1.4276
 3739TIP3    H211161   3.727   4.869   1.762 -1.1942  0.8184 -1.4185
 3740TIP3   OH211162   4.403   4.746   4.642 -0.1703 -0.4847 -0.6151
 3740TIP3    H111163   4.448   4.673   4.686  0.2089  0.3496  0.4032
 3740TIP3    H211164   4.405   4.722   4.550  1.6764 -0.8480 -0.5152
 3741TIP3   OH211165   2.898   4.342   2.431 -0.8980  0.2425 -0.4928
 3741TIP3    H111166   2.897   4.260   2.480  0.5502  1.0849  1.0092
 3741TIP3    H211167   2.969   4.331   2.368  1.0043  1.2257  1.3873
 3742TIP3   OH211168   4.190   4.902   4.343 -0.0411 -0.0791 -0.0715
 3742TIP3    H111169   4.225   4.814   4.357  2.0129  0.7003 -0.1662
 3742TIP3    H211170   4.222   4.952   4.418  0.6133  1.1031 -1.1189
 3743TIP3   OH211171   1.841   2.119   6.852 -0.2114 -0.1642 -0.1697
 3743TIP3    H111172   1.822   2.062   6.778  0.4551  1.5006 -1.6634
 3743TIP3    H211173   1.756   2.136   6.892 -0.3158 -2.8617  0.8179
 3744TIP3   OH211174   4.688   3.363   0.181  0.1493 -0.1200 -0.3862
 3744TIP3    H111175   4.724   3.386   0.267  1.6165  0.0186 -1.0210
 3744TIP3    H211176   4.729   3.424   0.120 -1.8823  0.6419 -1.0381
 3745TIP3   OH211177   4.847   4.645   3.838  0.5126 -0.0283 -0.2920
 3745TIP3    H111178   4.783   4.703   3.880  1.7158  1.4487 -0.4912
 3745TIP3    H211179   4.932   4.685   3.855  1.3515 -1.5733 -0.6986
 3746TIP3   OH211180   2.841   4.307   1.821 -0.2631  0.1197 -0.0041
 3746TIP3    H111181   2.877   4.352   1.745 -0.7278  0.5316  0.0140
 3746TIP3    H211182   2.813   4.378   1.880  0.4986 -0.1959  0.7442
 3747TIP3   OH211183   1.979   4.317   3.235  0.2809  0.4942  0.3045
 3747TIP3    H111184   2.042   4.357   3.175  1.2396 -0.9722  0.2919
 3747TIP3    H211185   2.024   4.317   3.320 -0.4666  1.1726  0.7062
 3748TIP3   OH211186   3.550   4.541   1.994 -0.0617 -0.2807 -0.2745
 3748TIP3    H111187   3.575   4.564   1.905  1.5963  0.0435  0.2612
 3748TIP3    H211188   3.542   4.445   1.993  0.6116 -0.3347 -0.6065
 3749TIP3   OH211189   5.174   2.827   3.692  0.1495  0.0500 -0.1561
 3749TIP3    H111190   5.138   2.894   3.634  0.6979 -0.2821 -0.8956
 3749TIP3    H211191   5.257   2.864   3.723 -1.3235  1.2844  2.4276
 3750TIP3   OH211192   5.404   1.986   1.841  0.1206  0.3169  0.1364
 3750TIP3    H111193   5.316   1.985   1.804  0.4001  0.3536 -0.5417
 3750TIP3    H211194   5.405   1.913   1.904 -0.2898  0.1180 -0.0897
 3751TIP3   OH211195   3.369   4.201   3.913 -0.4278  0.5250  0.3928
 3751TIP3    H111196   3.460   4.182   3.890 -0.0288 -0.6209  2.7639
 3751TIP3    H211197   3.320   4.125   3.882 -0.4607  0.7572 -0.1288
 3752TIP3   OH211198   5.020   5.619   1.134  0.6159 -0.5775 -0.0228
 3752TIP3    H111199   5.052   5.704   1.163  1.3105 -0.6943 -0.4573
 3752TIP3    H211200   4.925   5.628   1.134  0.6868  0.1603  0.0467
 3753TIP3   OH211201   4.943   4.530   3.136  0.1469 -0.8145  0.0895
 3753TIP3    H111202   4.979   4.577   3.060 -1.5774  0.0358 -0.2451
 3753TIP3    H211203   4.991   4.566   3.211  0.4559 -0.1680 -0.4067
 3754TIP3   OH211204   4.111   4.207   1.549  0.0051  0.1284 -0.0038
 3754TIP3    H111205   4.034   4.259   1.574  1.0965  1.0117  1.5841
 3754TIP3    H211206   4.109   4.206   1.454 -1.1539  1.3829 -0.0083
 3755TIP3   OH211207   5.680   4.168   2.812  0.3259 -0.0436 -0.3025
 3755TIP3    H111208   5.666   4.250   2.861 -1.2400  0.4675 -1.5684
 3755TIP3    H211209   5.753   4.188   2.753  0.0218  0.4011 -0.5299
 3756TIP3   OH211210   3.923   5.254   3.521 -0.4783 -0.1616 -0.0747
 3756TIP3    H111211   3.950   5.284   3.434 -1.1450  0.4930 -0.0688
 3756TIP3    H211212   3.891   5.334   3.564 -1.6348 -0.7742  0.2016
 3757TIP3   OH211213   4.407   4.116   3.499  0.0609 -0.0581 -0.5438
 3757TIP3    H111214   4.444   4.050   3.441 -1.4050 -1.6638  0.3090
 3757TIP3    H211215   4.472   4.125   3.570  0.5699 -0.0800 -1.0010
 3758TIP3   OH211216   5.543   3.041   3.468  0.4462  0.2724  0.0236
 3758TIP3    H111217   5.529   2.961   3.519  0.6642  0.1477 -0.1128
 3758TIP3    H211218   5.469   3.096   3.491 -0.4907 -0.5462 -1.0000
 3759TIP3   OH211219   3.086   3.462   0.902 -0.1636  0.0945 -0.1115
 3759TIP3    H111220   3.078   3.541   0.956 -0.6454 -0.3428  0.4598
 3759TIP3    H211221   3.179   3.438   0.909 -0.6433 -1.2167  2.3236
 3760TIP3   OH211222   5.061   2.395   4.535 -0.1933  0.1916 -0.3708
 3760TIP3    H111223   5.118   2.344   4.593 -1.1591  0.3314  0.7267
 3760TIP3    H211224   5.113   2.472   4.513  0.1375  0.2112  0.4493
 3761TIP3   OH211225   5.307   3.459   1.549  0.6336  0.0631 -0.7584
 3761TIP3    H111226   5.313   3.413   1.632  1.3110  1.4048 -0.0511
 3761TIP3    H211227   5.213   3.469   1.534  0.5157  0.1448  0.0205
 3762TIP3   OH211228   4.186   2.892   3.193 -0.0396 -0.3133  0.2396
 3762TIP3    H111229   4.212   2.837   3.266 -1.0680 -0.3473  0.5854
 3762TIP3    H211230   4.145   2.969   3.234 -1.2376 -0.6482 -0.3104
 3763TIP3   OH211231   3.966   1.779   2.234 -0.0749 -0.4356 -0.9287
 3763TIP3    H111232   4.056   1.799   2.207 -0.1997  0.6378 -0.5647
 3763TIP3    H211233   3.965   1.797   2.328 -1.6097  3.1047 -1.5369
 3764TIP3   OH211234   3.703   5.712   2.005 -0.1928 -0.4820  0.7627
 3764TIP3    H111235   3.714   5.617   2.001  1.1010 -0.3107  0.2621
 3764TIP3    H211236   3.686   5.739   1.915 -0.5727 -0.2364  0.9056
 3765TIP3   OH211237   3.355   4.026   0.618 -0.5689 -0.0140 -0.6298
 3765TIP3    H111238   3.282   4.011   0.679  0.5115 -0.3813  0.5881
 3765TIP3    H211239   3.410   3.948   0.627  0.0971  0.3672 -1.3686
 3766TIP3   OH211240   1.111   3.063   4.123  0.0130  0.0418  0.0747
 3766TIP3    H111241   1.135   3.153   4.101  1.1795 -0.5454 -1.1454
 3766TIP3    H211242   1.153   3.010   4.055  0.3576 -1.5259  1.4813
 3767TIP3   OH211243   3.654   2.285   2.122  0.3927  0.9162  0.0590
 3767TIP3    H111244   3.710   2.233   2.064  0.2345  0.5837  0.1978
 3767TIP3    H211245   3.602   2.339   2.064  0.1673  0.5145 -0.1120
 3768TIP3   OH211246   4.823   6.884   3.325  0.1335  0.4494 -0.2666
 3768TIP3    H111247   4.866   6.800   3.340  2.0404  1.4502  0.0176
 3768TIP3    H211248   4.844   6.906   3.235  0.0691  0.8652 -0.1789
 3769TIP3   OH211249   4.378   3.903   1.402  0.7559 -0.0864  0.1582
 3769TIP3    H111250   4.317   3.903   1.475  1.8063  0.2597  1.0546
 3769TIP3    H211251   4.355   3.825   1.351 -0.6074  0.2005  0.3099
 3770TIP3   OH211252   5.328   3.682   3.831 -0.4970  0.0688 -0.0642
 3770TIP3    H111253   5.239   3.716   3.829 -0.2085  0.7803 -0.6238
 3770TIP3    H211254   5.330   3.617   3.760 -0.9092 -0.7945  0.7052
 3771TIP3   OH211255   1.952   2.445   6.511  0.6185  0.7838  0.2068
 3771TIP3    H111256   2.005   2.386   6.458 -1.2567 -1.7992  1.0796
 3771TIP3    H211257   1.923   2.513   6.450  0.2403 -0.9650 -1.6169
 3772TIP3   OH211258   5.743   6.112   1.993  0.8377  0.0863  0.3522
 3772TIP3    H111259   5.682   6.119   1.919  0.5379 -2.2725  0.3530
 3772TIP3    H211260   5.830   6.120   1.952  0.6556 -0.6766 -0.2116
 3773TIP3   OH211261   6.521   4.497   2.303 -0.0171 -0.0121 -0.1622
 3773TIP3    H111262   6.564   4.543   2.375 -0.8273 -1.8385  1.5668
 3773TIP3    H211263   6.442   4.461   2.343 -0.9197 -0.3545 -2.2082
 3774TIP3   OH211264   3.173   2.684   3.193  0.2642 -0.6836  0.2439
 3774TIP3    H111265   3.207   2.765   3.155 -0.8575 -0.2967  0.0578
 3774TIP3    H211266   3.234   2.617   3.164  0.5794 -0.0765 -0.5190
 3775TIP3   OH211267   7.056   6.699   6.325 -0.1781 -0.4909 -0.6449
 3775TIP3    H111268   7.145   6.674   6.299 -0.3521 -2.6097  0.6851
 3775TIP3    H211269   7.063   6.721   6.418 -0.9224 -0.0927 -0.6778
 3776TIP3   OH211270   4.976   0.814   0.863  0.6718  0.2333 -0.1896
 3776TIP3    H111271   5.050   0.762   0.893 -0.0187 -0.5367  0.2153
 3776TIP3    H211272   4.900   0.774   0.905  0.0133  0.9427 -0.6839
 3777TIP3   OH211273   5.561   2.431   1.888 -0.6238 -0.2554  0.2634
 3777TIP3    H111274   5.474   2.463   1.862  0.2861  2.6318  0.6188
 3777TIP3    H211275   5.567   2.453   1.981  0.8389  0.4315  0.0141
 3778TIP3   OH211276   3.601   3.729   1.869  0.4851 -0.0326  0.3204
 3778TIP3    H111277   3.578   3.772   1.951  0.8213 -1.5185  1.2253
 3778TIP3    H211278   3.548   3.649   1.869 -0.1737  0.3913 -1.3450
 3779TIP3   OH211279   4.145   4.170   3.325  0.1967  0.1856 -0.3400
 3779TIP3    H111280   4.237   4.159   3.346 -0.0080  0.2190  0.5777
 3779TIP3    H211281   4.131   4.264   3.323  0.1931  0.1819 -0.5637
 3780TIP3   OH211282   3.497   3.268   3.000 -0.8594 -0.0973  0.5021
 3780TIP3    H111283   3.444   3.195   2.969 -0.5974 -0.6321  1.2914
 3780TIP3    H211284   3.445   3.308   3.070 -0.2125 -0.6787  1.3417
 3781TIP3   OH211285   7.814   2.434   0.767 -0.1473 -0.2418  0.0090
 3781TIP3    H111286   7.790   2.403   0.854 -0.8012  1.7309  0.5521
 3781TIP3    H211287   7.788   2.363   0.708 -3.0579 -0.1129  1.0722
 3782TIP3   OH211288   4.350   4.337   3.219 -0.4175  0.1155 -0.1962
 3782TIP3    H111289   4.260   4.370   3.214 -0.5290 -0.2531 -0.5743
 3782TIP3    H211290   4.403   4.407   3.179 -0.6273 -0.0453 -0.7587
 3783TIP3   OH211291   4.116   3.404   2.003  0.0878 -0.6277  0.1779
 3783TIP3    H111292   4.098   3.310   2.001  0.6758 -0.8216  2.6434
 3783TIP3    H211293   4.045   3.443   1.953  0.7817 -2.5046 -2.3756
 3784TIP3   OH211294   5.691   4.415   2.930 -0.0902  0.3778 -0.7752
 3784TIP3    H111295   5.640   4.493   2.952  0.5270  0.2004  1.4345
 3784TIP3    H211296   5.774   4.427   2.977 -0.3027 -1.9612  0.2726
 3785TIP3   OH211297   3.319   5.477   1.899 -1.3236  0.5603  0.5286
 3785TIP3    H111298   3.330   5.439   1.812  1.1148  1.7128  0.2789
 3785TIP3    H211299   3.225   5.492   1.907 -1.6027  0.2810 -1.8474
 3786TIP3   OH211300   3.986   1.692   3.456  0.1346  0.1938  0.3644
 3786TIP3    H111301   4.014   1.659   3.541 -0.4828  1.7865  1.2244
 3786TIP3    H211302   3.891   1.687   3.458  0.1344 -0.2389 -0.4362
 3787TIP3   OH211303   5.505   3.586   1.355  0.0727  0.0683  0.0630
 3787TIP3    H111304   5.563   3.655   1.389 -0.3312  0.5512 -0.2248
 3787TIP3    H211305   5.482   3.534   1.432  0.9078 -0.1468  0.1790
 3788TIP3   OH211306   2.912   0.769   0.993  0.1267 -0.3506  0.1197
 3788TIP3    H111307   2.925   0.829   0.920 -0.6351 -1.5113 -0.9736
 3788TIP3    H211308   2.817   0.756   0.997 -0.0598  1.2717  2.5929
 3789TIP3   OH211309   2.590   3.771   2.162  0.3378  0.2322 -0.4918
 3789TIP3    H111310   2.685   3.772   2.152  0.4936  0.4884  0.8896
 3789TIP3    H211311   2.572   3.839   2.227 -0.7705  0.0012 -0.5391
 3790TIP3   OH211312   5.832   3.967   4.374 -0.0992  0.3871  0.7906
 3790TIP3    H111313   5.795   3.908   4.309 -1.2462  1.5115  0.4052
 3790TIP3    H211314   5.840   4.051   4.329 -2.7746  1.7151  2.6127
 3791TIP3   OH211315   2.820   2.129   0.079 -0.2781  0.3488 -0.3996
 3791TIP3    H111316   2.772   2.200   0.038 -1.9371 -1.1116 -1.0654
 3791TIP3    H211317   2.759   2.093   0.144  1.1841  0.6499  1.1678
 3792TIP3   OH211318   2.442   3.738   4.166 -0.1372 -0.2104  0.1508
 3792TIP3    H111319   2.439   3.686   4.085  0.9644 -2.0880  1.2930
 3792TIP3    H211320   2.504   3.692   4.222  1.5748  2.8404  0.8723
 3793TIP3   OH211321   3.924   5.014   1.280  0.1448  0.6582  0.1085
 3793TIP3    H111322   3.915   5.109   1.269 -1.8704  0.2938 -1.6705
 3793TIP3    H211323   3.963   4.985   1.198  1.1713 -0.0173  0.8257
 3794TIP3   OH211324   1.591   3.059   2.292 -0.3598 -0.7779 -0.7207
 3794TIP3    H111325   1.547   3.078   2.209 -0.9986  0.9614 -0.0097
 3794TIP3    H211326   1.622   3.144   2.322 -1.5136 -1.1279  1.5836
 3795TIP3   OH211327   2.702   4.786   3.162 -0.0798  0.2059  0.2094
 3795TIP3    H111328   2.682   4.792   3.255 -1.5319  2.3701 -0.1887
 3795TIP3    H211329   2.686   4.694   3.139  2.6316 -0.9233  2.5474
 3796TIP3   OH211330   4.126   6.695   3.546  0.2066 -0.6670 -0.6514
 3796TIP3    H111331   4.075   6.756   3.493  0.2445 -0.4842 -0.4755
 3796TIP3    H211332   4.112   6.724   3.636 -0.1678 -1.2102 -0.5319
 3797TIP3   OH211333   4.860   4.980   2.879  0.7549  0.4234  0.5900
 3797TIP3    H111334   4.855   4.980   2.783  1.3160  0.2784  0.5621
 3797TIP3    H211335   4.924   4.912   2.900 -2.1826 -2.2758  1.1921
 3798TIP3   OH211336   3.987   4.692   2.658 -0.1741  0.6312 -0.6501
 3798TIP3    H111337   3.978   4.785   2.677 -1.9440  0.4342 -0.4671
 3798TIP3    H211338   4.056   4.662   2.717  2.2000  2.3134 -2.4593
 3799TIP3   OH211339   3.205   3.264   3.038  0.5053 -0.5798  0.1828
 3799TIP3    H111340   3.202   3.179   2.994  1.6848 -0.8047  0.5036
 3799TIP3    H211341   3.123   3.270   3.086 -0.1215 -0.9989 -0.8336
 3800TIP3   OH211342   1.392   5.106   2.862  0.3286 -0.1276  0.0297
 3800TIP3    H111343   1.449   5.136   2.791  1.4672 -1.7944  0.2193
 3800TIP3    H211344   1.333   5.043   2.821 -2.1686  2.3786 -0.3975
 3801TIP3   OH211345   2.887   3.751   2.143  0.2573  0.9537 -0.4506
 3801TIP3    H111346   2.937   3.755   2.061 -0.2572 -0.3139 -0.8409
 3801TIP3    H211347   2.901   3.662   2.175  2.3213  2.1379  2.0656
 3802TIP3   OH211348   1.642   4.306   3.442  0.0103 -0.1415 -0.5528
 3802TIP3    H111349   1.705   4.239   3.466  0.6820  0.3704 -0.8749
 3802TIP3    H211350   1.690   4.388   3.449 -0.6255  0.2554 -0.7774
 3803TIP3   OH211351   4.081   4.483   3.832  0.4951 -0.1999  0.5064
 3803TIP3    H111352   4.013   4.425   3.798  0.2720  0.3251  0.0419
 3803TIP3    H211353   4.162   4.433   3.824  0.1089 -0.9740  1.4276
 3804TIP3   OH211354   6.073   4.101   3.869 -0.3111  0.4457 -0.0594
 3804TIP3    H111355   6.104   4.075   3.782  0.8763 -0.4540  0.6308
 3804TIP3    H211356   6.149   4.141   3.911 -0.8700  0.8289  0.5885
 3805TIP3   OH211357   1.141   5.562   1.806  0.0546  0.1222  0.3333
 3805TIP3    H111358   1.083   5.602   1.741  1.4819  2.3612  0.3597
 3805TIP3    H211359   1.084   5.537   1.878 -0.9812  1.5672  0.0241
 3806TIP3   OH211360   4.231   6.401   1.981 -0.0799  0.4675 -0.6569
 3806TIP3    H111361   4.324   6.424   1.991 -0.0827  0.5726 -0.8655
 3806TIP3    H211362   4.191   6.478   1.941 -0.1146  0.1549 -1.2355
 3807TIP3   OH211363   4.662   4.234   2.107 -0.5645  1.2049  0.2833
 3807TIP3    H111364   4.697   4.312   2.151 -0.3421  1.8141 -0.9687
 3807TIP3    H211365   4.702   4.161   2.154  0.9882  1.8733  0.0313
 3808TIP3   OH211366   2.748   3.326   2.400  0.1487  0.5000 -0.1913
 3808TIP3    H111367   2.738   3.242   2.355  2.2313  0.9604 -1.5845
 3808TIP3    H211368   2.664   3.339   2.444 -0.8852 -1.4143 -1.4928
 3809TIP3   OH211369   3.871   3.536   2.165  0.0413  0.2746 -0.3316
 3809TIP3    H111370   3.780   3.510   2.177  0.1378 -0.0584 -0.3190
 3809TIP3    H211371   3.888   3.520   2.072 -0.1870  1.2011 -0.5333
 3810TIP3   OH211372   3.687   1.034   2.372  0.2219  0.4222  0.7208
 3810TIP3    H111373   3.725   1.063   2.289 -1.3122 -1.5072 -0.6963
 3810TIP3    H211374   3.646   1.112   2.408 -1.9354  0.6177 -1.9678
 3811TIP3   OH211375   2.785   5.578   3.919  0.4647 -0.1691  0.8119
 3811TIP3    H111376   2.846   5.514   3.955  0.8790  0.6361  1.5634
 3811TIP3    H211377   2.819   5.600   3.833  1.8333  1.0574  1.6419
 3812TIP3   OH211378   3.308   3.102   0.396 -0.1599  0.4537 -0.5962
 3812TIP3    H111379   3.309   3.008   0.416 -0.2746  0.2425 -1.5697
 3812TIP3    H211380   3.215   3.125   0.399 -0.2685  0.1958 -1.9232
 3813TIP3   OH211381   3.853   0.808   0.854 -0.5869  0.1566 -0.1980
 3813TIP3    H111382   3.809   0.814   0.939  0.3136  0.9973  0.2262
 3813TIP3    H211383   3.940   0.774   0.875 -0.6345 -0.4028 -0.8880
 3814TIP3   OH211384   4.515   2.242   3.017 -0.4317 -0.8923 -0.1669
 3814TIP3    H111385   4.487   2.258   2.927 -2.7184 -2.9785  0.1252
 3814TIP3    H211386   4.564   2.160   3.013  0.0608 -0.6290  0.3805
 3815TIP3   OH211387   5.439   3.655   1.023 -0.4652  0.1827  0.1691
 3815TIP3    H111388   5.519   3.688   0.982  0.2327 -0.9818  0.5725
 3815TIP3    H211389   5.424   3.713   1.098  0.4210 -0.0579  0.5324
 3816TIP3   OH211390   5.811   6.413   6.871  0.4677  0.0571  0.0089
 3816TIP3    H111391   5.845   6.481   6.812 -0.6141  1.8115  1.3688
 3816TIP3    H211392   5.853   6.431   6.955  0.6474 -1.3575  0.2360
 3817TIP3   OH211393   5.272   3.150   1.771  0.1674  0.6861 -0.3564
 3817TIP3    H111394   5.237   3.075   1.819 -0.1753  0.6739 -0.6193
 3817TIP3    H211395   5.362   3.159   1.803  0.5198 -0.4110 -0.9933
 3818TIP3   OH211396   3.968   1.583   3.723 -0.2196  0.3820  0.5206
 3818TIP3    H111397   4.013   1.506   3.757 -0.8372 -0.4660 -0.5517
 3818TIP3    H211398   3.876   1.556   3.716 -0.0784  0.4761 -1.9467
 3819TIP3   OH211399   2.404   4.244   6.868  0.1389 -0.3079 -0.4502
 3819TIP3    H111400   2.323   4.195   6.883 -0.7958  2.0757  2.9306
 3819TIP3    H211401   2.376   4.320   6.816  0.1611  0.5197  0.7257
 3820TIP3   OH211402   5.098   2.593   2.055 -0.2829  0.5764 -0.4096
 3820TIP3    H111403   5.156   2.521   2.081  0.6763  1.6304  0.4034
 3820TIP3    H211404   5.149   2.672   2.070 -0.8051  1.3787 -2.6909
 3821TIP3   OH211405   4.710   1.628   3.550 -0.0818 -0.4005  0.1525
 3821TIP3    H111406   4.624   1.634   3.590  0.5342 -0.0768  1.4345
 3821TIP3    H211407   4.768   1.600   3.620  0.7445 -1.2657 -0.8639
 3822TIP3   OH211408   3.410   1.735   2.046  0.5850 -0.1688  0.3505
 3822TIP3    H111409   3.494   1.713   2.086  1.2369  1.9047  0.1930
 3822TIP3    H211410   3.386   1.819   2.084 -0.8949 -0.2029 -0.4427
 3823TIP3   OH211411   3.492   5.121   2.714  0.6804 -0.7200  1.0243
 3823TIP3    H111412   3.442   5.055   2.666  0.7013  0.0028  0.0130
 3823TIP3    H211413   3.465   5.108   2.806  0.5023 -1.9631  0.8041
 3824TIP3   OH211414   3.948   3.186   3.151 -0.0742 -0.2463 -0.7843
 3824TIP3    H111415   3.873   3.245   3.158 -1.5526 -2.1388 -0.2813
 3824TIP3    H211416   4.016   3.239   3.109 -0.5562  2.5436  1.7526
 3825TIP3   OH211417   5.132   2.524   2.434  0.6219 -0.3028  0.2051
 3825TIP3    H111418   5.164   2.578   2.361 -2.0239 -0.1356 -0.8607
 3825TIP3    H211419   5.101   2.587   2.499  1.2428 -0.4849  0.6792
 3826TIP3   OH211420   5.541   4.401   1.615  0.1183  0.0948 -0.5121
 3826TIP3    H111421   5.562   4.337   1.683 -0.1054  0.2033 -0.3393
 3826TIP3    H211422   5.453   4.377   1.586  0.7826 -0.8261 -1.7659
 3827TIP3   OH211423   2.018   5.690   6.709  0.1516  0.0462 -0.1514
 3827TIP3    H111424   2.107   5.689   6.744 -0.5997  1.4542  1.9544
 3827TIP3    H211425   2.028   5.716   6.618  2.1621 -3.4198 -0.9952
 3828TIP3   OH211426   5.740   3.954   2.955 -0.3113  0.4975 -0.2243
 3828TIP3    H111427   5.679   3.899   3.004  0.2530  1.6743  1.8253
 3828TIP3    H211428   5.687   4.025   2.919 -0.6783 -0.2298 -1.1511
 3829TIP3   OH211429   5.882   2.308   2.198  0.3927 -0.0180  0.1504
 3829TIP3    H111430   5.946   2.344   2.259  2.0305  0.6360 -1.9027
 3829TIP3    H211431   5.871   2.375   2.131 -0.0674 -1.4295 -1.2199
 3830TIP3   OH211432   5.474   6.475   3.345  0.2176 -0.3908  0.1044
 3830TIP3    H111433   5.463   6.563   3.309  0.3493 -0.8370 -1.0579
 3830TIP3    H211434   5.540   6.485   3.414  1.4682  0.1419 -1.1384
 3831TIP3   OH211435   5.733   5.464   0.843 -0.2183  0.0038  0.4774
 3831TIP3    H111436   5.691   5.513   0.913  3.2490  0.2111  2.5155
 3831TIP3    H211437   5.785   5.528   0.796  0.1751 -0.7703 -0.1618
 3832TIP3   OH211438   5.220   5.539   0.693 -0.2353  0.1342 -0.1748
 3832TIP3    H111439   5.159   5.549   0.620 -0.4913  1.6283  0.2130
 3832TIP3    H211440   5.299   5.585   0.664  0.1818 -0.5397 -0.1012
 3833TIP3   OH211441   3.952   4.510   1.104  0.2686 -0.4049  0.1403
 3833TIP3    H111442   3.893   4.583   1.120 -2.0050 -2.1312 -0.0471
 3833TIP3    H211443   3.996   4.496   1.188 -1.4339 -0.6601  1.0143
 3834TIP3   OH211444   6.434   3.478   1.252  0.3133 -0.5441  0.2547
 3834TIP3    H111445   6.471   3.493   1.339 -0.8613 -1.6824  0.9647
 3834TIP3    H211446   6.471   3.394   1.224  0.3048 -0.4170 -0.1482
 3835TIP3   OH211447   8.137   3.661   2.501 -0.4407  0.4810 -0.2305
 3835TIP3    H111448   8.170   3.592   2.559 -0.7146  0.6581  0.1369
 3835TIP3    H211449   8.074   3.617   2.445 -0.7650  0.4684  0.1387
 3836TIP3   OH211450   7.018   3.315   1.322 -0.2577 -0.0719  0.2331
 3836TIP3    H111451   7.023   3.304   1.227  0.0586  0.2347  0.2127
 3836TIP3    H211452   7.037   3.408   1.336  0.9515 -0.3936  0.6944
 3837TIP3   OH211453   5.803   3.679   1.470  0.6764  0.0476  0.3442
 3837TIP3    H111454   5.857   3.643   1.400  1.4415  1.1280  0.3519
 3837TIP3    H211455   5.825   3.772   1.471  0.4201  0.1063  1.7791
 3838TIP3   OH211456   1.346   7.198   6.377  0.0117 -0.9369 -0.2095
 3838TIP3    H111457   1.258   7.181   6.343  0.4720  0.0128 -1.9667
 3838TIP3    H211458   1.332   7.241   6.461 -1.2546  0.7882 -1.2621
 3839TIP3   OH211459   7.572   2.229   3.156 -0.0388  0.0316 -0.5760
 3839TIP3    H111460   7.508   2.277   3.209 -1.7926 -1.8536 -0.8681
 3839TIP3    H211461   7.539   2.237   3.066 -0.2242 -1.4250 -0.6584
 3840TIP3   OH211462   2.681   6.011   1.741  0.5202 -0.0441  0.8542
 3840TIP3    H111463   2.616   5.942   1.753  0.6072  0.5139  5.1101
 3840TIP3    H211464   2.759   5.978   1.786  1.0731  2.1149  1.5402
 3841TIP3   OH211465   6.357   1.938   1.174  0.0699 -0.1197  0.0977
 3841TIP3    H111466   6.314   1.949   1.258 -1.1034  0.0300 -0.5182
 3841TIP3    H211467   6.428   1.876   1.191 -0.1627 -0.0892  1.1853
 3842TIP3   OH211468   6.265   2.800   2.261  0.1209 -0.1433  0.1921
 3842TIP3    H111469   6.335   2.857   2.229 -1.8413  1.8880 -0.6836
 3842TIP3    H211470   6.306   2.714   2.270  2.4857  0.7840 -1.1467
 3843TIP3   OH211471   5.226   0.732   1.372 -0.0999 -0.5814 -0.0850
 3843TIP3    H111472   5.163   0.698   1.309  0.4759 -2.4965  0.3491
 3843TIP3    H211473   5.257   0.814   1.333 -3.2138  0.6706 -0.0628
 3844TIP3   OH211474   3.741   2.704   2.988  0.4048 -0.6223 -0.2631
 3844TIP3    H111475   3.795   2.764   3.041 -0.4009 -0.4224  0.3554
 3844TIP3    H211476   3.715   2.756   2.912 -1.2077  0.2044  0.8163
 3845TIP3   OH211477   7.689   5.960   0.472 -0.2511  0.7465 -0.0505
 3845TIP3    H111478   7.676   5.933   0.563 -3.0343  2.0416 -0.0055
 3845TIP3    H211479   7.737   6.042   0.478 -1.1759  1.2705  0.3137
 3846TIP3   OH211480   6.060   2.630   4.103 -0.4616  0.3416  0.1042
 3846TIP3    H111481   6.073   2.577   4.024 -2.1635  1.0929 -0.7062
 3846TIP3    H211482   5.987   2.588   4.148 -3.0326  2.9359 -1.4468
 3847TIP3   OH211483   7.029   3.455   2.101  0.1667  0.1030  0.4710
 3847TIP3    H111484   7.014   3.549   2.091  0.4463 -0.0492 -1.7964
 3847TIP3    H211485   6.945   3.415   2.078  0.4499 -0.2489  0.0322
 3848TIP3   OH211486   6.885   4.782   3.774  0.5582 -0.6718 -0.2154
 3848TIP3    H111487   6.893   4.701   3.825  2.5386 -0.2431  0.1973
 3848TIP3    H211488   6.949   4.841   3.813 -0.7949  1.0739 -0.5842
 3849TIP3   OH211489   5.073   5.140   1.355 -0.0041 -0.4452  0.1859
 3849TIP3    H111490   5.159   5.120   1.318 -0.8022 -1.5190 -1.1303
 3849TIP3    H211491   5.063   5.234   1.343  1.2361 -0.2076  0.9003
 3850TIP3   OH211492   6.833   3.436   1.542 -0.0737  0.2531 -0.7862
 3850TIP3    H111493   6.768   3.384   1.493  0.5509 -0.2045 -1.1411
 3850TIP3    H211494   6.902   3.453   1.478  1.2957 -1.3455  0.2518
 3851TIP3   OH211495   7.955   4.351   0.813  0.0659 -0.1749 -0.4041
 3851TIP3    H111496   7.950   4.346   0.909  0.2923  1.3547 -0.2955
 3851TIP3    H211497   7.866   4.332   0.783 -0.1433 -0.0663  0.1419
 3852TIP3   OH211498   6.048   5.031   1.963 -0.4723 -0.2768 -0.1530
 3852TIP3    H111499   6.041   5.062   2.053 -2.1373 -0.0743 -0.3341
 3852TIP3    H211500   5.998   5.095   1.912 -1.7516 -1.8085 -0.8640
 3853TIP3   OH211501   6.545   5.845   0.694 -0.0553 -0.0860 -0.3515
 3853TIP3    H111502   6.523   5.936   0.672  0.5856 -0.5648 -3.2330
 3853TIP3    H211503   6.477   5.817   0.755  0.6835  2.8358  1.9171
 3854TIP3   OH211504   5.740   4.625   2.118  0.1836  0.0255 -0.5726
 3854TIP3    H111505   5.728   4.637   2.212 -1.6916 -1.5587 -0.5681
 3854TIP3    H211506   5.823   4.578   2.110 -1.1601 -2.6724  0.5589
 3855TIP3   OH211507   5.098   3.646   1.685 -0.3211 -0.5585  0.4005
 3855TIP3    H111508   5.135   3.733   1.670 -0.3962 -0.6166 -0.1453
 3855TIP3    H211509   5.077   3.644   1.778 -2.2410  0.7543  0.0296
 3856TIP3   OH211510   5.528   4.038   2.118 -0.2747  0.3000 -0.5536
 3856TIP3    H111511   5.554   3.968   2.058  1.2019 -0.5884  1.0754
 3856TIP3    H211512   5.433   4.031   2.124 -0.1134 -1.9048 -0.0293
 3857TIP3   OH211513   8.324   2.434   3.456 -0.6016 -0.2177  0.1518
 3857TIP3    H111514   8.315   2.490   3.534 -0.8058 -0.1122  0.0533
 3857TIP3    H211515   8.392   2.372   3.479 -1.4065 -0.8583  0.8216
 3858TIP3   OH211516   6.607   5.176   1.957  0.3582 -0.0329  0.1763
 3858TIP3    H111517   6.555   5.109   2.002  0.4726  0.6210  1.2887
 3858TIP3    H211518   6.581   5.258   1.997  1.2449  0.4471 -0.2165
 3859TIP3   OH211519   6.747   5.275   4.042 -0.0974 -0.3057  0.5324
 3859TIP3    H111520   6.830   5.302   4.004 -0.1155  0.0504  0.7412
 3859TIP3    H211521   6.743   5.320   4.127 -0.9434  0.4625  0.1044
 3860TIP3   OH211522   3.224   4.513   1.724 -0.1051  0.4147 -0.8342
 3860TIP3    H111523   3.237   4.431   1.771 -1.1922  0.7927  0.1424
 3860TIP3    H211524   3.134   4.508   1.692 -0.7066  1.9019  0.5869
 3861TIP3   OH211525   5.454   4.822   0.138  0.7553  0.2104  0.3143
 3861TIP3    H111526   5.505   4.742   0.127 -0.7724 -0.5108 -1.6939
 3861TIP3    H211527   5.419   4.816   0.227 -1.2586 -2.5109 -0.6059
 3862TIP3   OH211528   5.549   4.983   2.928  0.2019 -0.0070 -0.1929
 3862TIP3    H111529   5.580   4.971   3.018 -1.2915  0.2629  0.3699
 3862TIP3    H211530   5.603   5.055   2.894  1.3086 -0.6284  0.2225
 3863TIP3   OH211531   6.767   3.804   1.998 -0.4791 -0.2847  0.0794
 3863TIP3    H111532   6.726   3.771   2.078 -1.0915  1.9214  0.6932
 3863TIP3    H211533   6.860   3.790   2.011 -0.7696 -2.8225 -0.1835
 3864TIP3   OH211534   4.196   4.954   3.240 -0.3020 -0.1571 -0.6050
 3864TIP3    H111535   4.133   4.923   3.175 -3.0267  0.0782  1.8184
 3864TIP3    H211536   4.254   4.880   3.254 -0.3473 -0.5797 -2.4643
 3865TIP3   OH211537   6.761   5.249   0.754  0.4063 -0.3956 -0.0484
 3865TIP3    H111538   6.727   5.272   0.841 -1.3279 -1.0280 -0.5366
 3865TIP3    H211539   6.780   5.156   0.759  1.9262 -0.0875  0.1557
 3866TIP3   OH211540   5.773   4.982   2.181 -0.3870 -0.4283 -0.4993
 3866TIP3    H111541   5.761   4.897   2.225 -0.6329 -0.2532 -0.2293
 3866TIP3    H211542   5.717   4.977   2.104 -0.7452 -0.3385 -0.2437
 3867TIP3   OH211543   6.737   4.382  -0.011 -0.2176 -0.1292 -0.8717
 3867TIP3    H111544   6.647   4.415  -0.017  0.0682  0.4607 -1.9711
 3867TIP3    H211545   6.740   4.337   0.073 -1.3056  0.5692 -0.4491
 3868TIP3   OH211546   5.278   2.207   3.324 -1.1397 -0.7296 -0.1901
 3868TIP3    H111547   5.342   2.151   3.368 -1.9232 -0.5430  1.2177
 3868TIP3    H211548   5.330   2.272   3.277 -0.2828 -1.2081  0.0972
 3869TIP3   OH211549   6.230   2.127   2.818 -0.5425 -0.1382  0.8632
 3869TIP3    H111550   6.169   2.077   2.765  1.3134 -0.6715 -0.8310
 3869TIP3    H211551   6.234   2.080   2.902 -0.0417 -1.9224 -0.1448
 3870TIP3   OH211552   7.315   2.226   2.945 -0.4332  0.1407  0.1632
 3870TIP3    H111553   7.275   2.302   2.987  1.4557  0.0159  2.2575
 3870TIP3    H211554   7.240   2.173   2.917 -1.7692  1.2078  1.5917
 3871TIP3   OH211555   2.020   0.123   6.387  0.0136  0.2969 -0.1164
 3871TIP3    H111556   1.928   0.139   6.405  0.4982  2.4418  0.6092
 3871TIP3    H211557   2.031   0.029   6.397 -1.7671  0.2333  1.3614
 3872TIP3   OH211558   1.818   3.675   2.859 -0.1306  0.2088  0.0354
 3872TIP3    H111559   1.879   3.647   2.791  0.2042  1.2579 -0.0962
 3872TIP3    H211560   1.865   3.659   2.941  0.7234  1.9092 -0.0930
 3873TIP3   OH211561   3.125   6.350   1.310  0.2361  0.6985  0.3457
 3873TIP3    H111562   3.064   6.277   1.308  0.4653  0.4879  0.8576
 3873TIP3    H211563   3.166   6.344   1.396  2.3959 -0.3225 -0.7222
 3874TIP3   OH211564   4.099   4.490   6.773  0.5774  0.7270  0.1367
 3874TIP3    H111565   4.058   4.465   6.690 -0.4732  0.6311  0.6645
 3874TIP3    H211566   4.105   4.585   6.769 -1.6757  0.9407  0.9127
 3875TIP3   OH211567   6.138   6.092   4.650 -0.4188  0.3540 -0.0227
 3875TIP3    H111568   6.091   6.044   4.582  1.0239  1.2611 -1.6991
 3875TIP3    H211569   6.152   6.179   4.613  1.2676  0.5589  1.0310
 3876TIP3   OH211570   6.326   3.645   1.031 -0.5599  0.1299 -0.9078
 3876TIP3    H111571   6.378   3.587   0.976  0.0595  0.2065 -0.4125
 3876TIP3    H211572   6.304   3.592   1.108  0.4291  0.6988 -0.2229
 3877TIP3   OH211573   5.795   3.327   1.994 -0.2032  0.2638  0.5553
 3877TIP3    H111574   5.781   3.300   2.085  1.1554 -0.9864  0.4190
 3877TIP3    H211575   5.832   3.415   2.000 -0.1435  0.2000  1.2162
 3878TIP3   OH211576   6.024   3.054   0.888 -0.0955  0.1200 -0.1558
 3878TIP3    H111577   5.986   3.089   0.968 -0.2878  1.2314 -0.7164
 3878TIP3    H211578   5.950   3.047   0.827  0.3145  0.7490 -0.7282
 3879TIP3   OH211579   4.341   4.323   1.070  0.2743  0.2260 -0.5930
 3879TIP3    H111580   4.412   4.318   1.134  1.4273 -2.1319 -2.0234
 3879TIP3    H211581   4.376   4.380   1.000 -0.0504  0.7720 -0.3162
 3880TIP3   OH211582   6.362   5.172   0.887  0.0670 -0.1925 -0.1010
 3880TIP3    H111583   6.430   5.104   0.893 -0.5571 -0.7656  0.5274
 3880TIP3    H211584   6.295   5.144   0.949  0.3999  1.6780  1.1261
 3881TIP3   OH211585   5.555   4.796   2.619  0.0880  0.1937  0.0320
 3881TIP3    H111586   5.528   4.705   2.627 -2.1793  0.7817 -0.4232
 3881TIP3    H211587   5.642   4.793   2.581 -0.2240 -1.7750 -0.5566
 3882TIP3   OH211588   3.927   3.001   0.319 -0.6430  0.0859  0.3013
 3882TIP3    H111589   3.884   2.918   0.336 -1.2653 -0.0643 -1.9137
 3882TIP3    H211590   4.015   2.977   0.289  0.3329  0.3417  2.8140
 3883TIP3   OH211591   5.301   3.876   2.301 -0.1154 -0.1685 -0.2603
 3883TIP3    H111592   5.392   3.847   2.311 -0.4149 -1.1375 -0.2781
 3883TIP3    H211593   5.265   3.871   2.389 -0.4758 -0.9263 -0.4401
 3884TIP3   OH211594   5.715   5.171   3.806  0.4568  0.0218  0.7671
 3884TIP3    H111595   5.740   5.084   3.775  0.9543 -0.0428  1.3343
 3884TIP3    H211596   5.786   5.228   3.776  0.4072  0.1341  0.8638
 3885TIP3   OH211597   4.658   1.584   1.946  0.3837  0.5069  0.6029
 3885TIP3    H111598   4.572   1.594   1.986 -0.2504  0.9036 -0.8510
 3885TIP3    H211599   4.698   1.671   1.954 -0.8849  1.3881 -2.2247
 3886TIP3   OH211600   5.411   2.758   1.187 -0.0956  0.5041 -0.0670
 3886TIP3    H111601   5.378   2.730   1.273  1.0748 -0.0253  0.2250
 3886TIP3    H211602   5.405   2.853   1.190  1.8791  0.6219  1.4416
 3887TIP3   OH211603   5.204   3.834   3.117  0.1275 -0.1416  0.4847
 3887TIP3    H111604   5.123   3.854   3.069 -0.1285  0.1959  1.0550
 3887TIP3    H211605   5.206   3.738   3.121  0.0440 -0.1646 -0.0234
 3888TIP3   OH211606   4.821   5.281   1.819 -0.4949  0.2512  0.1731
 3888TIP3    H111607   4.850   5.226   1.891 -2.8006  0.5685  1.4154
 3888TIP3    H211608   4.789   5.220   1.753 -0.6797  0.0190  0.4770
 3889TIP3   OH211609   4.502   3.804   2.321  0.0575  0.2668  0.4947
 3889TIP3    H111610   4.566   3.754   2.371 -0.1062 -0.1133  0.3257
 3889TIP3    H211611   4.445   3.844   2.386 -0.1197 -0.1785  0.6104
 3890TIP3   OH211612   6.635   3.224   3.603 -0.1508  0.0898 -0.2405
 3890TIP3    H111613   6.664   3.271   3.682  0.2039  0.5158 -0.6188
 3890TIP3    H211614   6.664   3.134   3.617 -1.7430 -0.2583  0.9487
 3891TIP3   OH211615   5.980   2.479   2.916 -0.1792  0.2245 -0.1200
 3891TIP3    H111616   5.945   2.462   2.828  1.0864  0.5237 -0.6928
 3891TIP3    H211617   6.071   2.451   2.911 -0.1069  0.2079  1.1218
 3892TIP3   OH211618   6.684   4.940   4.177 -0.3125 -0.0580  0.0320
 3892TIP3    H111619   6.717   5.013   4.229 -2.5181 -0.1011  1.5893
 3892TIP3    H211620   6.592   4.962   4.162 -0.3888 -1.3781 -1.5299
 3893TIP3   OH211621   5.959   5.259   1.537 -0.3809 -0.7298  0.2931
 3893TIP3    H111622   6.050   5.229   1.534 -0.0416  0.3928 -1.9841
 3893TIP3    H211623   5.912   5.189   1.581  1.4090 -1.8165  0.5237
 3894TIP3   OH211624   3.285   2.563   3.493 -0.1062 -0.2359 -0.0379
 3894TIP3    H111625   3.242   2.648   3.499  0.2671 -0.1684  1.7104
 3894TIP3    H211626   3.214   2.502   3.471 -0.3500  0.5148 -1.4292
 3895TIP3   OH211627   3.242   6.847   1.226  0.1253 -0.6326  0.3530
 3895TIP3    H111628   3.153   6.839   1.261 -0.0418 -0.8572 -0.1153
 3895TIP3    H211629   3.237   6.807   1.139  0.4592  0.1991 -0.0570
 3896TIP3   OH211630   5.432   6.136   2.590 -0.0281 -0.2114  0.3550
 3896TIP3    H111631   5.470   6.213   2.632 -0.4135  0.9510 -1.3546
 3896TIP3    H211632   5.488   6.063   2.617  1.1148  0.8802  0.9556
 3897TIP3   OH211633   5.945   3.577   1.957 -0.5944  0.4735 -0.1277
 3897TIP3    H111634   5.895   3.576   1.876 -1.6552  0.4610  0.5142
 3897TIP3    H211635   5.977   3.667   1.965 -0.2939  0.4134 -0.6757
 3898TIP3   OH211636   4.840   2.855   2.749  0.9398 -0.2384  0.1878
 3898TIP3    H111637   4.777   2.784   2.761 -0.3433  0.9723  0.7309
 3898TIP3    H211638   4.895   2.852   2.828  0.1315  0.1155  0.7712
 3899TIP3   OH211639   4.453   4.450   0.491  0.2002 -0.3779 -0.2502
 3899TIP3    H111640   4.368   4.423   0.528  0.6399  0.5080  1.5046
 3899TIP3    H211641   4.437   4.539   0.458  0.1574 -0.6533 -0.9766
 3900TIP3   OH211642   4.381   4.075   2.734  0.0163  0.0871 -0.5322
 3900TIP3    H111643   4.374   4.067   2.639  0.8695 -0.7672 -0.5227
 3900TIP3    H211644   4.472   4.052   2.754 -0.8712 -2.5031  0.7662
 3901TIP3   OH211645   5.838   4.211   0.984  0.4608  0.4069  0.0733
 3901TIP3    H111646   5.921   4.244   0.948  0.7745 -0.8639 -0.4015
 3901TIP3    H211647   5.793   4.174   0.909 -0.5965  1.1709  0.3207
 3902TIP3   OH211648   4.263   3.847   2.550 -0.1751  0.4001 -0.1502
 3902TIP3    H111649   4.181   3.864   2.503 -0.9179 -2.1402  0.1512
 3902TIP3    H211650   4.241   3.865   2.642 -0.0816  0.7299 -0.1900
 3903TIP3   OH211651   4.016   3.728   3.960 -0.4098  0.3998  0.0155
 3903TIP3    H111652   4.029   3.650   3.905  1.3812 -0.8101  2.0607
 3903TIP3    H211653   3.988   3.796   3.899  0.5259 -1.1631 -2.2277
 3904TIP3   OH211654   6.967   2.798   2.531  0.2632 -0.3881 -0.1040
 3904TIP3    H111655   6.950   2.815   2.624  2.0724 -1.2782  0.4205
 3904TIP3    H211656   7.039   2.857   2.509  0.7577 -1.1620 -0.5724
 3905TIP3   OH211657   4.241   2.546   3.019  0.0486  0.3058 -0.4004
 3905TIP3    H111658   4.167   2.592   3.060 -0.9655 -1.6852  0.0396
 3905TIP3    H211659   4.281   2.497   3.091  1.2615  0.6505 -0.8288
 3906TIP3   OH211660   4.806   3.638   3.578  0.7935  0.3628 -0.6838
 3906TIP3    H111661   4.897   3.666   3.586  0.9618 -0.7455  1.8785
 3906TIP3    H211662   4.761   3.684   3.649  0.3052 -2.6430  1.0409
 3907TIP3   OH211663   3.468   3.208   0.149  0.0578 -0.0204  0.1877
 3907TIP3    H111664   3.504   3.179   0.233  0.2433  0.5755  0.3144
 3907TIP3    H211665   3.476   3.132   0.091  1.0528 -0.0397  0.3593
 3908TIP3   OH211666   5.063   3.677   2.558  0.2873 -0.4338  0.2863
 3908TIP3    H111667   5.040   3.770   2.556  1.6990 -0.0774 -0.1046
 3908TIP3    H211668   5.149   3.675   2.600  1.3011 -1.3240 -1.7565
 3909TIP3   OH211669   7.083   2.910   1.916 -0.6633 -0.3517 -0.4406
 3909TIP3    H111670   7.043   2.996   1.929  1.0238  0.8508 -2.7559
 3909TIP3    H211671   7.010   2.851   1.900 -1.8134  0.7518  0.6355
 3910TIP3   OH211672   7.275   5.395   3.966 -0.1173  0.0838 -1.2799
 3910TIP3    H111673   7.314   5.419   4.050  1.4736  1.6292 -2.4406
 3910TIP3    H211674   7.181   5.410   3.977  0.3167  2.2102 -0.4266
 3911TIP3   OH211675   7.962   4.872   1.260  0.6878 -0.0496 -0.5569
 3911TIP3    H111676   7.979   4.785   1.298 -0.7791  0.4562  1.3285
 3911TIP3    H211677   7.993   4.865   1.170  1.2110 -2.3290 -0.2348
 3912TIP3   OH211678   4.820   6.329   1.850 -0.0113 -0.2348  0.7211
 3912TIP3    H111679   4.813   6.345   1.756  0.6770  1.2376  0.9266
 3912TIP3    H211680   4.741   6.278   1.870  0.5490 -1.8084 -0.9012
 3913TIP3   OH211681   4.130   5.298   0.065 -0.3868  0.0149 -0.2251
 3913TIP3    H111682   4.052   5.243   0.062 -0.7764  0.6213 -1.2497
 3913TIP3    H211683   4.182   5.270  -0.010  0.2772 -0.2268  0.3189
 3914TIP3   OH211684   4.985   3.289   1.825 -0.0255  0.3873 -0.0068
 3914TIP3    H111685   4.960   3.377   1.855 -1.8737 -0.6785  1.6287
 3914TIP3    H211686   5.072   3.275   1.863 -0.2189  1.0349  0.6877
 3915TIP3   OH211687   4.909   5.988   2.737 -0.3556  0.1569 -0.7392
 3915TIP3    H111688   4.866   5.904   2.747  0.0919 -0.0657 -0.6569
 3915TIP3    H211689   4.851   6.038   2.680 -1.0813  0.1279 -0.0214
 3916TIP3   OH211690   6.260   4.305   2.099 -0.7189 -0.0129 -0.0455
 3916TIP3    H111691   6.265   4.332   2.191 -1.4543 -2.2426  0.6861
 3916TIP3    H211692   6.343   4.335   2.061 -0.0557  0.2293  1.5552
 3917TIP3   OH211693   0.271   4.540   2.141  0.9343  0.2685  0.0229
 3917TIP3    H111694   0.251   4.623   2.100  0.1195  0.9670  1.7679
 3917TIP3    H211695   0.346   4.559   2.198 -1.0731  0.5646  2.6670
 3918TIP3   OH211696   5.885   6.377   2.173 -0.2053  0.1363  0.4339
 3918TIP3    H111697   5.954   6.391   2.237  3.3276 -0.4524 -3.0767
 3918TIP3    H211698   5.895   6.286   2.146 -1.3649  0.4599 -1.1872
 3919TIP3   OH211699   6.597   2.763   0.905  0.1104  0.5340  0.1556
 3919TIP3    H111700   6.561   2.763   0.816 -1.0767 -0.2422  0.6275
 3919TIP3    H211701   6.690   2.780   0.893  0.4858 -2.3807 -1.4569
 3920TIP3   OH211702   5.361   2.019   0.358  0.4235  0.3303  0.1283
 3920TIP3    H111703   5.313   2.012   0.275 -1.9855 -0.3998  1.5336
 3920TIP3    H211704   5.377   1.928   0.384  1.2341  0.5615  0.4643
 3921TIP3   OH211705   4.850   1.178   6.365  0.0305  0.1663  0.1024
 3921TIP3    H111706   4.917   1.217   6.422  0.1128 -0.2098  0.2612
 3921TIP3    H211707   4.778   1.156   6.423 -0.3607  0.8486 -0.1129
 3922TIP3   OH211708   5.316   5.933   1.144 -0.3776 -0.3226  0.4772
 3922TIP3    H111709   5.319   5.986   1.224  0.3805 -0.4438  0.5261
 3922TIP3    H211710   5.384   5.867   1.156  0.7960  0.6053 -0.9515
 3923TIP3   OH211711   5.384   3.397   2.018 -0.1668 -0.1780  0.0235
 3923TIP3    H111712   5.310   3.364   2.068  0.0864 -0.2207  0.3739
 3923TIP3    H211713   5.425   3.319   1.981 -1.2976 -0.0276 -1.5922
 3924TIP3   OH211714   4.019   5.118   3.768 -0.2259 -0.3212  0.6292
 3924TIP3    H111715   3.952   5.114   3.836  0.0738  0.5793  0.9795
 3924TIP3    H211716   3.973   5.149   3.690 -0.5101 -1.0839  0.4874
 3925TIP3   OH211717   3.979   3.660   2.392  0.1521 -0.2743 -0.1954
 3925TIP3    H111718   3.923   3.641   2.317 -0.1815  0.7977 -0.2170
 3925TIP3    H211719   4.062   3.617   2.372 -0.0146 -0.1890 -1.0607
 3926TIP3   OH211720   7.152   4.351   0.930  0.0130 -0.4553  0.0122
 3926TIP3    H111721   7.159   4.350   1.025  0.0867  1.5359  0.0577
 3926TIP3    H211722   7.082   4.413   0.912  2.0658  1.5920 -1.2844
 3927TIP3   OH211723   2.680   6.740   6.689 -0.0504  0.4814 -0.0141
 3927TIP3    H111724   2.664   6.703   6.601  1.8095  0.0096 -0.1720
 3927TIP3    H211725   2.720   6.825   6.672 -0.3482  0.6996  0.3812
 3928TIP3   OH211726   7.118   2.370   1.627 -0.3207 -0.0109 -0.0723
 3928TIP3    H111727   7.114   2.452   1.676  0.0318 -1.2733  2.1113
 3928TIP3    H211728   7.167   2.310   1.683 -1.7971 -2.1493 -0.9972
 3929TIP3   OH211729   7.422   5.026   0.129  0.2576 -0.1568 -0.6023
 3929TIP3    H111730   7.413   5.114   0.165  3.5176  0.3138 -0.8192
 3929TIP3    H211731   7.488   4.984   0.184 -1.3863 -2.5721 -0.3723
 3930TIP3   OH211732   6.121   2.422   1.814  0.7849  0.2569 -0.1012
 3930TIP3    H111733   6.133   2.502   1.865  0.7813  0.8101 -0.9480
 3930TIP3    H211734   6.147   2.447   1.725  1.2436 -0.8155 -0.2722
 3931TIP3   OH211735   8.345   3.838   1.637  0.2007 -0.2676 -0.4206
 3931TIP3    H111736   8.310   3.794   1.714  1.5287 -1.5043 -0.4981
 3931TIP3    H211737   8.275   3.833   1.572 -0.1274 -1.1402 -0.0030
 3932TIP3   OH211738   6.185   4.119   2.496 -0.2648 -0.0890 -0.4784
 3932TIP3    H111739   6.090   4.129   2.484 -0.1929  0.7524 -0.3831
 3932TIP3    H211740   6.195   4.044   2.554 -0.9552  1.1636  1.2749
 3933TIP3   OH211741   4.878   5.216   0.281 -0.2200  0.2093 -0.3669
 3933TIP3    H111742   4.957   5.167   0.261  0.3757  2.2447 -3.4350
 3933TIP3    H211743   4.835   5.228   0.196 -1.6384  2.7362  0.6222
 3934TIP3   OH211744   5.377   5.543   0.422  0.0518  0.3944  0.4014
 3934TIP3    H111745   5.385   5.455   0.458 -0.4990  0.1636 -0.0376
 3934TIP3    H211746   5.332   5.531   0.338 -1.2913  1.2440  0.9926
 3935TIP3   OH211747   6.351   3.263   0.940  0.3132 -0.3201  0.2309
 3935TIP3    H111748   6.407   3.256   1.017  0.2358  1.9947  0.5424
 3935TIP3    H211749   6.397   3.215   0.872  0.4069 -2.3530  1.6973
 3936TIP3   OH211750   5.997   3.172   3.101  0.3299 -0.1963  0.5440
 3936TIP3    H111751   5.999   3.099   3.164  0.3949 -0.8077 -0.1535
 3936TIP3    H211752   6.073   3.226   3.124  1.3328 -1.3228 -0.0685
 3937TIP3   OH211753   0.304   7.541   6.091 -0.5482  0.1942  0.7036
 3937TIP3    H111754   0.336   7.453   6.109  1.0139  0.0649 -2.4179
 3937TIP3    H211755   0.378   7.598   6.109 -0.6181  0.5736 -0.2144
 3938TIP3   OH211756   4.007   3.346   1.483 -0.6714 -0.7769  0.1896
 3938TIP3    H111757   3.986   3.439   1.489  1.4952 -0.1289 -1.4343
 3938TIP3    H211758   4.021   3.318   1.573 -1.0315  0.5409  0.6655
 3939TIP3   OH211759   4.537   3.010   2.055  0.8827 -0.3118 -0.4795
 3939TIP3    H111760   4.587   2.957   2.117  0.4898  0.2219  0.2970
 3939TIP3    H211761   4.600   3.073   2.022  1.4055 -1.3774 -1.5610
 3940TIP3   OH211762   6.813   5.770   0.737 -0.3637 -0.1590  0.5635
 3940TIP3    H111763   6.854   5.838   0.684  2.1579 -0.8820  1.5378
 3940TIP3    H211764   6.726   5.805   0.757  0.6830  2.5396  0.6253
 3941TIP3   OH211765   5.042   3.133   1.252  0.0200  0.5033 -0.0317
 3941TIP3    H111766   5.025   3.041   1.232 -2.0974  1.0614 -0.9023
 3941TIP3    H211767   5.065   3.134   1.345  0.4250 -0.9299 -0.0983
 3942TIP3   OH211768   8.412   4.020   0.847  0.0868 -0.0965 -0.1697
 3942TIP3    H111769   8.320   4.039   0.828  0.5523  1.0193 -1.4365
 3942TIP3    H211770   8.457   4.103   0.831  1.3082 -0.6342  0.4430
 3943TIP3   OH211771   5.776   1.737   0.806  0.4600  0.6806  0.0567
 3943TIP3    H111772   5.787   1.752   0.712  0.1747 -0.8607 -0.2371
 3943TIP3    H211773   5.770   1.825   0.844 -1.7999  1.3244 -1.6608
 3944TIP3   OH211774   8.010   1.656   4.805  1.0386 -0.3116  1.2180
 3944TIP3    H111775   7.981   1.665   4.896 -0.7463 -1.9026  0.8485
 3944TIP3    H211776   7.946   1.708   4.755  1.3789 -0.3208  0.7717
 3945TIP3   OH211777   4.625   1.771   4.278 -0.0168 -0.3222 -0.3153
 3945TIP3    H111778   4.659   1.767   4.188 -0.2254  0.3130 -0.4231
 3945TIP3    H211779   4.562   1.699   4.283  2.2118 -2.3029  0.2491
 3946TIP3   OH211780   4.607   5.847   0.897 -0.4411 -0.0889  0.4909
 3946TIP3    H111781   4.681   5.858   0.838 -0.1262 -2.2323  0.4582
 3946TIP3    H211782   4.534   5.824   0.839 -0.1044 -2.3117  0.9347
 3947TIP3   OH211783   5.123   3.178   0.711  0.6407  0.6518 -0.1667
 3947TIP3    H111784   5.074   3.151   0.789  0.3226  1.6333 -0.0163
 3947TIP3    H211785   5.079   3.258   0.682  1.8048  1.2316 -0.3596
 3948TIP3   OH211786   6.176   3.857   2.192  0.3531 -0.2744 -0.4757
 3948TIP3    H111787   6.198   3.920   2.124 -0.8509  0.0115 -0.6073
 3948TIP3    H211788   6.238   3.875   2.263 -0.0418  1.1067 -0.4823
 3949TIP3   OH211789   5.025   3.234   1.520  0.9584 -0.1129 -0.2888
 3949TIP3    H111790   5.023   3.236   1.615  1.3560  1.4142 -0.2957
 3949TIP3    H211791   4.934   3.250   1.493  1.2232  1.7301 -0.1637
 3950TIP3   OH211792   5.727   2.935   1.361 -0.1336 -0.1191 -0.7628
 3950TIP3    H111793   5.671   3.012   1.372 -1.1030 -0.8537 -0.5612
 3950TIP3    H211794   5.733   2.923   1.267  1.3080  1.1319 -0.8597
 3951TIP3   OH211795   6.610   7.179   1.261 -0.6061  0.0587  0.1883
 3951TIP3    H111796   6.637   7.129   1.183 -0.9176 -0.0595  0.1517
 3951TIP3    H211797   6.691   7.207   1.302 -0.4447  0.5367 -0.4503
 3952TIP3   OH211798   4.182   6.501   5.616  0.5450  0.0778  0.3299
 3952TIP3    H111799   4.242   6.542   5.678  0.8529  0.7187 -0.3897
 3952TIP3    H211800   4.191   6.407   5.632  1.9709  0.1526  0.0236
 3953TIP3   OH211801   6.790   5.043   0.045 -0.1336  0.3175  0.6206
 3953TIP3    H111802   6.866   5.022  -0.010 -0.3102 -1.4967  1.0509
 3953TIP3    H211803   6.772   5.135   0.025  0.2716 -0.0763 -1.8073
 3954TIP3   OH211804   6.935   4.109   2.989  0.0461  0.3017  1.0598
 3954TIP3    H111805   6.851   4.086   2.947 -0.0685  1.1409  0.8325
 3954TIP3    H211806   6.950   4.038   3.052  0.2441 -1.0058 -0.4223
 3955TIP3   OH211807   4.181   3.581   6.053  0.3893  0.4295 -0.0602
 3955TIP3    H111808   4.231   3.498   6.052  0.6590  0.5808 -1.7993
 3955TIP3    H211809   4.127   3.576   5.974 -1.3400  0.8919  1.0875
 3956TIP3   OH211810   5.384   3.355   3.990  0.2882  0.1616  0.1772
 3956TIP3    H111811   5.301   3.388   3.956  0.2330 -1.2645 -1.1370
 3956TIP3    H211812   5.397   3.402   4.072 -2.4392 -0.5381  1.0496
 3957TIP3   OH211813   3.866   2.149   0.735 -0.4955  0.3060  0.7751
 3957TIP3    H111814   3.834   2.073   0.784 -0.6056 -0.8054 -0.9642
 3957TIP3    H211815   3.846   2.129   0.643  0.6867  1.8355  0.1480
 3958TIP3   OH211816   6.328   3.199   2.765  0.4355 -0.5517  0.1847
 3958TIP3    H111817   6.288   3.116   2.740 -1.0296  0.1360  0.1747
 3958TIP3    H211818   6.254   3.259   2.777  1.4884  0.9055 -0.3573
 3959TIP3   OH211819   6.722   2.270   0.856  0.0205 -0.0596 -0.6648
 3959TIP3    H111820   6.800   2.236   0.899 -0.1642 -0.4034 -0.6021
 3959TIP3    H211821   6.688   2.197   0.806 -0.2479  0.0967 -0.7128
 3960TIP3   OH211822   7.216   4.679   0.661 -0.0371 -0.1370  0.0760
 3960TIP3    H111823   7.122   4.690   0.674 -0.0871 -0.5171  0.0353
 3960TIP3    H211824   7.251   4.668   0.749 -0.4496 -3.3186 -0.0903
 3961TIP3   OH211825   5.275   4.402   3.528  0.5281  0.7309 -0.1654
 3961TIP3    H111826   5.212   4.333   3.550  0.7992  0.4623 -0.2282
 3961TIP3    H211827   5.356   4.375   3.571  0.3620  1.5385  0.6695
 3962TIP3   OH211828   5.396   3.685   2.865  0.0601 -0.0729  0.1953
 3962TIP3    H111829   5.371   3.778   2.871  1.4391  0.4455 -1.6743
 3962TIP3    H211830   5.482   3.686   2.823 -1.3071 -2.3733 -2.8487
 3963TIP3   OH211831   7.033   3.739   0.530  0.2053  0.4525 -0.3060
 3963TIP3    H111832   6.959   3.756   0.472 -0.4650 -0.0424  0.3983
 3963TIP3    H211833   7.027   3.807   0.597 -0.2928 -0.2736  0.3982
 3964TIP3   OH211834   3.763   3.519   3.738 -0.0626  0.3295 -0.0743
 3964TIP3    H111835   3.751   3.601   3.690 -1.6439  0.3286  0.2853
 3964TIP3    H211836   3.759   3.544   3.830 -0.2051 -0.0955  0.0384
 3965TIP3   OH211837   7.119   1.540   1.288  0.1158 -0.0700  0.0454
 3965TIP3    H111838   7.173   1.534   1.209 -0.0251 -0.2315 -0.0380
 3965TIP3    H211839   7.085   1.451   1.302 -0.1043  0.0225  0.1155
 3966TIP3   OH211840   7.530   7.602   6.579  0.4813  0.4913  0.3028
 3966TIP3    H111841   7.617   7.640   6.584  0.5366  0.2620  1.1481
 3966TIP3    H211842   7.470   7.677   6.581  0.6607  0.6911 -0.9439
 3967TIP3   OH211843   5.192   1.946   1.686  0.1747 -0.1976  0.6565
 3967TIP3    H111844   5.209   2.002   1.610  2.1157  0.1111  1.2930
 3967TIP3    H211845   5.115   1.894   1.660  0.9308 -0.2648 -1.6173
 3968TIP3   OH211846   5.394   3.091   2.212  0.1226  0.0994 -0.9052
 3968TIP3    H111847   5.418   3.179   2.241  0.6808 -0.4141  0.2447
 3968TIP3    H211848   5.307   3.076   2.249  0.3940 -0.1527 -0.3530
 3969TIP3   OH211849   4.610   2.367   3.840  0.2441  0.2365 -0.0549
 3969TIP3    H111850   4.603   2.399   3.930 -0.4582  1.5161 -0.5485
 3969TIP3    H211851   4.691   2.317   3.838  0.9873  1.3930  0.9304
 3970TIP3   OH211852   7.171   1.344   2.111 -0.3610 -0.5338 -0.3838
 3970TIP3    H111853   7.181   1.268   2.169  1.3409 -0.0435 -0.0018
 3970TIP3    H211854   7.114   1.313   2.040 -2.5735 -1.1148  1.5702
 3971TIP3   OH211855   6.197   4.235   2.752  0.2337 -0.3767 -0.4052
 3971TIP3    H111856   6.183   4.287   2.673  1.2698 -1.0088 -1.0106
 3971TIP3    H211857   6.266   4.173   2.728  2.5291  1.2298  1.8026
 3972TIP3   OH211858   6.095   3.255   2.409  0.4947 -0.1275 -0.4205
 3972TIP3    H111859   6.088   3.177   2.355 -2.6522  0.2331 -0.5746
 3972TIP3    H211860   6.039   3.319   2.367 -0.1746  0.9053  1.9481
 3973TIP3   OH211861   3.930   3.960   1.587 -0.9803 -0.1273  0.4187
 3973TIP3    H111862   3.948   4.054   1.585 -1.0980 -0.0699  1.6761
 3973TIP3    H211863   4.017   3.920   1.584 -0.8989  0.0365  0.5552
 3974TIP3   OH211864   5.259   4.474   1.717  0.6027  0.3126 -0.0302
 3974TIP3    H111865   5.182   4.492   1.663  0.3642  0.2540  0.2891
 3974TIP3    H211866   5.231   4.404   1.776  1.2836 -0.5542 -0.7320
 3975TIP3   OH211867   7.570   2.348   1.979  0.2042  0.3073 -0.6384
 3975TIP3    H111868   7.662   2.324   1.991  0.0831  0.4304  0.6273
 3975TIP3    H211869   7.521   2.285   2.031 -0.4587  0.0173 -1.6032
 3976TIP3   OH211870   7.325   3.165   2.220  0.4005 -0.0209  0.7510
 3976TIP3    H111871   7.358   3.181   2.132  1.6335  0.9419  1.3814
 3976TIP3    H211872   7.294   3.250   2.251 -0.9885 -0.5522  0.8753
 3977TIP3   OH211873   4.443   3.397   4.305  0.0986  0.0481 -0.0238
 3977TIP3    H111874   4.535   3.374   4.306 -0.0065 -0.3854 -0.2747
 3977TIP3    H211875   4.421   3.417   4.396  0.1470 -0.9947  0.2155
 3978TIP3   OH211876   6.371   4.778   4.965 -0.3913  0.0980 -0.1212
 3978TIP3    H111877   6.286   4.737   4.947 -0.6895  0.6750 -0.0422
 3978TIP3    H211878   6.436   4.714   4.933 -0.7584 -1.8665  2.8839
 3979TIP3   OH211879   6.550   3.217   1.135 -0.0799  0.5885 -0.3257
 3979TIP3    H111880   6.492   3.155   1.179 -0.3537  0.9029 -0.2421
 3979TIP3    H211881   6.603   3.163   1.076 -1.7072  0.5232 -1.7599
 3980TIP3   OH211882   4.932   6.189   1.052  0.7924 -0.5747 -0.3763
 3980TIP3    H111883   4.892   6.130   1.116 -1.8421  1.5494  0.0344
 3980TIP3    H211884   4.960   6.132   0.980 -0.7636 -2.4057  0.4388
 3981TIP3   OH211885   5.247   7.485   0.274  0.9010  0.2338 -0.0951
 3981TIP3    H111886   5.160   7.500   0.311  1.6279  1.4333  1.2019
 3981TIP3    H211887   5.287   7.421   0.332  0.3842 -1.4160 -1.5239
 3982TIP3   OH211888   4.905   5.562   2.310 -0.0444 -0.3446  0.2444
 3982TIP3    H111889   4.878   5.511   2.233  1.1648 -0.4301 -0.1269
 3982TIP3    H211890   4.973   5.621   2.278  0.2820 -0.1964  1.1909
 3983TIP3   OH211891   4.852   5.467   2.056 -0.0022 -0.4325 -0.2359
 3983TIP3    H111892   4.794   5.490   1.983  0.3381  0.0994 -0.3442
 3983TIP3    H211893   4.920   5.412   2.017 -0.1242 -0.5981 -0.2151
 3984TIP3   OH211894   6.516   3.256   1.617 -0.1162 -0.4478 -0.1951
 3984TIP3    H111895   6.575   3.217   1.552 -1.4154 -0.8445 -1.1508
 3984TIP3    H211896   6.553   3.230   1.702  0.1706 -2.0676 -0.7976
 3985TIP3   OH211897   7.102   4.462   1.377 -0.2379  0.0851  0.2660
 3985TIP3    H111898   7.067   4.551   1.365 -1.0862  0.0864  2.5217
 3985TIP3    H211899   7.039   4.405   1.334 -0.2283  0.4886 -0.2911
 3986TIP3   OH211900   3.953  -0.024   6.448  0.0535 -0.4373 -0.4336
 3986TIP3    H111901   3.959   0.024   6.365 -3.6809  0.7349 -0.0962
 3986TIP3    H211902   3.990   0.037   6.513 -0.6584  0.2613 -0.6710
 3987TIP3   OH211903   7.536   3.821   2.636 -0.0818  0.0769 -0.0516
 3987TIP3    H111904   7.502   3.848   2.551  1.1271 -1.1857 -0.9714
 3987TIP3    H211905   7.555   3.903   2.682 -0.0995  0.7772 -1.2704
 3988TIP3   OH211906   6.335   3.829   0.205 -0.7690 -1.2388  0.0563
 3988TIP3    H111907   6.394   3.902   0.186 -1.3242 -0.6394  0.6264
 3988TIP3    H211908   6.307   3.798   0.119  0.8206 -1.9100 -0.2511
 3989TIP3   OH211909   6.663   5.838   1.502 -0.3035 -0.1472  0.1526
 3989TIP3    H111910   6.647   5.834   1.596  0.7343 -1.8373  0.2789
 3989TIP3    H211911   6.599   5.902   1.469 -1.6965 -0.6662  1.7816
 3990TIP3   OH211912   2.681   1.422   6.450 -0.4142  0.1449  0.3497
 3990TIP3    H111913   2.629   1.386   6.378 -0.1851  2.0203 -0.7687
 3990TIP3    H211914   2.762   1.452   6.409  0.2874  0.0323  1.6029
 3991TIP3   OH211915   5.962   3.544   1.266 -0.1869  0.2660  0.5904
 3991TIP3    H111916   6.000   3.501   1.342 -0.2352 -0.0642  0.4294
 3991TIP3    H211917   5.901   3.480   1.230  1.3760 -0.3815 -0.9567
 3992TIP3   OH211918   7.843   2.366   3.303 -0.2543  0.4145 -0.1247
 3992TIP3    H111919   7.839   2.315   3.222  2.1723 -0.0021 -0.0162
 3992TIP3    H211920   7.911   2.324   3.355 -2.0356  0.4515  2.3350
 3993TIP3   OH211921   5.314   3.761   1.265  0.1743 -0.2049  0.0471
 3993TIP3    H111922   5.236   3.710   1.287  0.1016 -0.6822 -1.2937
 3993TIP3    H211923   5.386   3.713   1.307  0.1729 -1.7135 -1.6396
 3994TIP3   OH211924   5.246   2.442   2.928 -0.1066 -0.2948 -0.7818
 3994TIP3    H111925   5.323   2.421   2.875 -0.2559 -0.8957 -0.7608
 3994TIP3    H211926   5.279   2.452   3.017  0.0964  0.4069 -0.9353
 3995TIP3   OH211927   6.624   3.223   2.520 -0.4083 -0.1616 -0.7393
 3995TIP3    H111928   6.556   3.254   2.461 -0.7376  1.3570  0.4182
 3995TIP3    H211929   6.578   3.171   2.586 -0.2522 -0.4652 -0.8688
 3996TIP3   OH211930   6.420   3.548   1.904  0.0264  0.6490 -0.1087
 3996TIP3    H111931   6.428   3.464   1.950 -0.1075  0.0094 -1.2223
 3996TIP3    H211932   6.509   3.567   1.875  0.3884  1.8155  1.7016
 3997TIP3   OH211933   4.983   4.167   1.357  0.3957  0.2481 -0.2431
 3997TIP3    H111934   5.041   4.092   1.341  0.1100 -0.6233  2.6088
 3997TIP3    H211935   4.909   4.152   1.298 -0.2127 -2.3553  1.1228
 3998TIP3   OH211936   6.691   4.019   2.936  0.2687  0.5512 -0.0029
 3998TIP3    H111937   6.670   3.926   2.942  0.1546  0.3933 -2.4813
 3998TIP3    H211938   6.625   4.062   2.990 -2.0172 -0.5305 -1.8548
 3999TIP3   OH211939   6.357   5.236   2.602 -0.4006  1.0413 -0.0655
 3999TIP3    H111940   6.373   5.214   2.510 -0.1107  1.5341 -0.1344
 3999TIP3    H211941   6.267   5.208   2.618 -0.4083  0.8346 -0.4639
 4000TIP3   OH211942   5.194   4.953   2.642  0.6482  0.0933 -0.5577
 4000TIP3    H111943   5.189   4.875   2.697  1.7501 -0.1237 -0.7577
 4000TIP3    H211944   5.201   5.026   2.704 -2.3008  0.2301 -0.3098
 4001TIP3   OH211945   6.188   2.776   3.181 -0.1783  0.1318  0.1093
 4001TIP3    H111946   6.234   2.709   3.232  2.0807  0.4497 -1.4518
 4001TIP3    H211947   6.201   2.856   3.232 -0.7265 -0.1497  0.6973
 4002TIP3   OH211948   3.438   1.451   0.934  0.4936 -0.0841 -0.7503
 4002TIP3    H111949   3.491   1.392   0.881  1.2971 -1.9599  2.0254
 4002TIP3    H211950   3.355   1.404   0.946  0.6309 -0.0688  0.3251
 4003TIP3   OH211951   3.786   2.035   2.528 -0.2645  0.0367  0.1179
 4003TIP3    H111952   3.720   1.984   2.481  0.7020 -0.2085 -0.9914
 4003TIP3    H211953   3.780   2.122   2.490 -0.9853  0.3987  1.0672
 4004TIP3   OH211954   5.226   3.530   3.145 -0.3731  0.5435 -0.2959
 4004TIP3    H111955   5.267   3.478   3.076 -3.8435 -1.1086 -1.2474
 4004TIP3    H211956   5.203   3.466   3.213 -0.8522  1.4776  0.4378
 4005TIP3   OH211957   6.275   3.250   1.985  0.0119 -0.0408  0.1087
 4005TIP3    H111958   6.201   3.197   2.014 -0.5519  0.5953 -0.1590
 4005TIP3    H211959   6.246   3.289   1.903  0.2334  1.0629  0.5426
 4006TIP3   OH211960   7.658   3.732   0.706 -0.2317  0.3468  0.8025
 4006TIP3    H111961   7.596   3.743   0.634 -0.5746  1.2988  1.2255
 4006TIP3    H211962   7.605   3.694   0.777 -0.0219 -0.0826  0.7282
 4007TIP3   OH211963   3.418   2.756   2.157  0.1479 -0.5288 -0.1088
 4007TIP3    H111964   3.437   2.708   2.237 -0.0837  1.6615  1.3050
 4007TIP3    H211965   3.483   2.725   2.094 -0.4791 -3.2221  0.5044
 4008TIP3   OH211966   5.097   4.808   1.928 -0.3028 -0.4894  0.0555
 4008TIP3    H111967   5.077   4.732   1.983 -2.0657 -0.8663 -1.0514
 4008TIP3    H211968   5.085   4.775   1.838 -0.4591  0.9340 -0.4471
 4009TIP3   OH211969   5.053   4.137   2.971  0.0187  0.0764 -0.3241
 4009TIP3    H111970   5.066   4.150   3.065 -0.1613 -0.4060 -0.2341
 4009TIP3    H211971   5.112   4.201   2.930 -1.1907  1.5186  0.1322
 4010TIP3   OH211972   5.569   3.204   3.863  0.2686 -0.2155 -0.0273
 4010TIP3    H111973   5.641   3.206   3.925 -1.2506  0.4884  1.7499
 4010TIP3    H211974   5.507   3.270   3.895 -1.3358 -1.0409 -1.3069
 4011TIP3   OH211975   5.276   5.681   2.445  0.4690  0.0483  0.0542
 4011TIP3    H111976   5.207   5.744   2.467 -1.0680 -1.9131  1.0326
 4011TIP3    H211977   5.263   5.663   2.352  0.3885  0.5505 -0.0341
 4012TIP3   OH211978   5.632   5.667   3.877  0.0506 -0.7297  0.2830
 4012TIP3    H111979   5.649   5.631   3.964  0.1476  0.1241  0.6218
 4012TIP3    H211980   5.537   5.665   3.869 -0.0043 -0.1202  0.7136
 4013TIP3   OH211981   5.472   3.971   3.405 -0.1850 -0.3926 -0.3455
 4013TIP3    H111982   5.395   3.943   3.454 -0.2247  2.2486  1.1814
 4013TIP3    H211983   5.541   3.911   3.432 -0.6574 -0.0711  1.6464
 4014TIP3   OH211984   5.056   4.738   2.929 -0.3691  0.1912  0.4864
 4014TIP3    H111985   5.046   4.689   2.847 -1.7123  1.8857 -0.3840
 4014TIP3    H211986   5.120   4.806   2.909 -1.9226  1.6322  0.3538
 4015TIP3   OH211987   5.482   4.486   3.305  0.0833  0.6345 -0.1620
 4015TIP3    H111988   5.477   4.408   3.361 -1.0106  0.4871 -0.4476
 4015TIP3    H211989   5.498   4.558   3.366  1.0660  0.1940  0.1076
 4016TIP3   OH211990   5.638   5.294   3.459 -0.1819 -0.4337 -0.1952
 4016TIP3    H111991   5.648   5.201   3.441  1.7681 -0.0408 -1.3263
 4016TIP3    H211992   5.549   5.315   3.429  0.6721 -1.1820 -3.3920
 4017TIP3   OH211993   5.044   6.748   2.939 -0.5352 -0.4326 -0.2983
 4017TIP3    H111994   5.138   6.727   2.938 -0.4277  0.0480 -0.2835
 4017TIP3    H211995   5.012   6.711   3.021  0.0668  1.2740  0.7320
 4018TIP3   OH211996   4.810   4.054   2.268 -0.0473 -0.0281  0.0013
 4018TIP3    H111997   4.848   4.075   2.354 -0.1285  1.0883 -0.2179
 4018TIP3    H211998   4.807   3.959   2.265 -2.0119 -0.0670  2.0968
 4019TIP3   OH211999   5.511   5.083   1.555  0.1857  0.0463  0.2418
 4019TIP3    H112000   5.458   5.009   1.586 -0.8832  0.5925 -0.2643
 4019TIP3    H212001   5.447   5.149   1.528  1.1178  2.0070  2.6434
 4020TIP3   OH212002   5.307   5.628   0.079 -0.8033 -0.6166  0.8254
 4020TIP3    H112003   5.257   5.684   0.019  0.4398 -0.5037 -0.1080
 4020TIP3    H212004   5.398   5.639   0.053 -0.3713 -1.6333  1.8535
 4021TIP3   OH212005   5.004   5.130   0.642  0.1363 -0.2104  0.0473
 4021TIP3    H112006   5.064   5.120   0.567 -0.1543  3.0966 -0.6938
 4021TIP3    H212007   4.921   5.096   0.609  0.0046  1.2314 -1.1920
 4022TIP3   OH212008   6.033   3.581   3.226 -0.4462 -0.2336  0.4330
 4022TIP3    H112009   5.949   3.563   3.268 -0.9530  0.4073 -0.2961
 4022TIP3    H212010   6.061   3.664   3.263 -0.0446 -0.5380  0.8115
 4023TIP3   OH212011   3.389   3.725   1.545 -0.4512  0.0360  0.2510
 4023TIP3    H112012   3.426   3.783   1.478 -1.3665 -1.9748 -2.0829
 4023TIP3    H212013   3.303   3.763   1.564 -0.5400  0.1490 -0.3529
 4024TIP3   OH212014   7.721   3.573   0.286 -0.3272  0.3839 -0.0745
 4024TIP3    H112015   7.664   3.505   0.252 -0.9036  1.1901 -0.7495
 4024TIP3    H212016   7.662   3.643   0.313  0.3922  1.7994 -2.0697
 4025TIP3   OH212017   7.712   2.995   0.282 -0.0046 -0.6766 -0.5344
 4025TIP3    H112018   7.708   2.954   0.196 -1.1020 -2.3735  0.2905
 4025TIP3    H212019   7.806   2.999   0.302  0.2125 -0.9974 -1.4632
 4026TIP3   OH212020   4.800   3.640   3.897  0.0364 -1.1574 -0.6608
 4026TIP3    H112021   4.752   3.559   3.881 -1.4418 -0.6585  1.1764
 4026TIP3    H212022   4.740   3.710   3.871  0.8593 -0.6085 -1.1117
 4027TIP3   OH212023   5.311   2.857   1.468  0.2800  0.0665  0.0698
 4027TIP3    H112024   5.285   2.948   1.450  2.8133  0.7380 -0.3008
 4027TIP3    H212025   5.366   2.862   1.545 -0.5853 -1.3416  0.8055
 4028TIP3   OH212026   6.909   3.690   2.220  0.3608  0.3319  0.2504
 4028TIP3    H112027   6.937   3.646   2.300 -1.1790  0.2717  0.7847
 4028TIP3    H212028   6.818   3.715   2.237 -0.0827  0.0867 -1.5670
 4029TIP3   OH212029   1.420   5.628   6.877  0.6447 -0.0877 -0.1972
 4029TIP3    H112030   1.454   5.558   6.933 -0.1609  0.7170  1.3365
 4029TIP3    H212031   1.333   5.598   6.850  1.1310 -0.5859 -1.2467
 4030TIP3   OH212032   6.708   2.078   3.634 -0.3342 -0.2809  0.2379
 4030TIP3    H112033   6.689   2.167   3.602  1.2298  0.1911  0.5889
 4030TIP3    H212034   6.761   2.039   3.565  1.6989  0.1831  1.5004
 4031TIP3   OH212035   4.489   5.736   2.303 -0.1974 -0.1522 -0.6769
 4031TIP3    H112036   4.393   5.736   2.303 -0.1939 -0.5871  0.0275
 4031TIP3    H212037   4.512   5.789   2.226 -0.9990  1.3497  0.0989
 4032TIP3   OH212038   6.969   1.975   0.003 -0.0472 -0.4676  0.4805
 4032TIP3    H112039   7.045   1.927   0.036  0.6476  0.6342  0.4871
 4032TIP3    H212040   6.897   1.950   0.062 -0.3308 -3.5711 -1.1001
 4033TIP3   OH212041   3.920   3.521   1.866 -1.0069  0.2842 -0.1817
 4033TIP3    H112042   3.913   3.611   1.836 -1.7445 -0.2041 -1.5134
 4033TIP3    H212043   3.871   3.470   1.802  1.4551 -1.3860 -0.8007
 4034TIP3   OH212044   6.099   2.248   2.017  0.1967  0.4578  0.0768
 4034TIP3    H112045   6.011   2.255   2.053  1.1527  1.2256  2.3414
 4034TIP3    H212046   6.102   2.315   1.948 -0.3095  1.8936  1.4349
 4035TIP3   OH212047   0.763   5.612   0.442  0.6891 -0.0624 -0.9760
 4035TIP3    H112048   0.804   5.677   0.385 -0.3504  2.3056  0.8952
 4035TIP3    H212049   0.669   5.623   0.428  0.3922  0.7816  1.3608
 4036TIP3   OH212050   6.916   1.215   2.698  0.2876 -0.0517  0.6218
 4036TIP3    H112051   6.858   1.291   2.703  0.2041 -0.1524  1.1759
 4036TIP3    H212052   6.859   1.142   2.675  0.8653  0.6581 -3.4941
 4037TIP3   OH212053   6.007   4.838   2.742 -0.4470  0.1541 -0.0581
 4037TIP3    H112054   6.081   4.871   2.691 -0.1391  1.9873  1.5565
 4037TIP3    H212055   6.043   4.764   2.791 -0.4974 -0.9770 -1.6642
 4038TIP3   OH212056   5.210   5.475   0.951  0.1299 -0.2222 -0.0762
 4038TIP3    H112057   5.251   5.483   0.865  0.0147 -1.7022 -0.2922
 4038TIP3    H212058   5.180   5.563   0.972  1.2030  0.3888 -1.0277
 4039TIP3   OH212059   7.245   4.343   2.758  0.4950  0.5222 -0.1546
 4039TIP3    H112060   7.228   4.404   2.687  2.6059  1.1684 -0.1456
 4039TIP3    H212061   7.322   4.294   2.730  0.1981 -0.5408  0.8478
 4040TIP3   OH212062   7.674   4.264   0.776  0.3435  0.6240  0.2038
 4040TIP3    H112063   7.607   4.266   0.708 -1.4481 -0.5945  1.8856
 4040TIP3    H212064   7.665   4.178   0.817 -0.2428  2.1653  3.5280
 4041TIP3   OH212065   8.111   2.520   1.570 -0.1306 -0.3322  0.0588
 4041TIP3    H112066   8.185   2.507   1.511 -0.7938 -1.5080 -0.5250
 4041TIP3    H212067   8.074   2.604   1.544  0.1261 -0.4196 -0.5984
 4042TIP3   OH212068   7.225   3.422   2.287  0.4439 -0.1280  0.2025
 4042TIP3    H112069   7.282   3.498   2.281  0.0858  0.1696  0.5909
 4042TIP3    H212070   7.157   3.437   2.221 -0.2458  0.4097  1.0384
 4043TIP3   OH212071   7.201   4.494   0.428 -0.2602 -0.5031 -0.4763
 4043TIP3    H112072   7.222   4.565   0.489 -0.5790  0.6284 -1.6452
 4043TIP3    H212073   7.115   4.463   0.456  0.3269 -1.1090  0.6602
 4044TIP3   OH212074   7.513   4.008   1.880  0.2254 -0.7661  0.6571
 4044TIP3    H112075   7.553   4.052   1.805 -1.6614 -1.5896 -0.8607
 4044TIP3    H212076   7.448   4.070   1.913  0.7020 -0.6122  1.3361
 4045TIP3   OH212077   7.787   4.488   1.223  0.3900  0.1442 -0.1001
 4045TIP3    H112078   7.769   4.495   1.317 -1.0595 -0.7928 -0.2998
 4045TIP3    H212079   7.727   4.551   1.183  0.5309  0.0578 -0.4455
 4046TIP3   OH212080   6.757   4.165   1.491 -0.3658 -0.0624 -0.6667
 4046TIP3    H112081   6.736   4.245   1.441  0.9195 -0.3763 -1.7445
 4046TIP3    H212082   6.764   4.195   1.582 -0.3242  0.9886 -1.0019
 4047TIP3   OH212083   8.287   5.368   1.057  0.3877 -0.4714 -0.3048
 4047TIP3    H112084   8.378   5.346   1.080 -0.0020  0.1278  1.8560
 4047TIP3    H212085   8.270   5.317   0.977  2.8823  0.0398 -1.2138
 4048TIP3   OH212086   8.074   3.919   2.850  0.2835 -1.1316  0.2029
 4048TIP3    H112087   8.141   3.935   2.916 -1.8563  1.0578  1.9200
 4048TIP3    H212088   8.066   4.002   2.803 -1.6129 -1.1972  0.3824
 4049TIP3   OH212089   1.462   4.387   2.573  0.4702  0.3696  0.3827
 4049TIP3    H112090   1.434   4.464   2.623  0.5851  1.8721 -1.7723
 4049TIP3    H212091   1.557   4.387   2.580  0.3383 -1.1205  2.5412
 4050TIP3   OH212092   8.359   3.812   0.320  0.1790 -0.0759 -0.2322
 4050TIP3    H112093   8.434   3.863   0.351 -0.6623  0.4620  0.9570
 4050TIP3    H212094   8.317   3.869   0.255  1.3186 -0.7638 -1.6107
 4051TIP3   OH212095   1.874   7.142   6.687 -0.0669 -0.5237  0.4479
 4051TIP3    H112096   1.783   7.166   6.669  0.0673 -0.7658 -0.5755
 4051TIP3    H212097   1.885   7.056   6.646  1.4552  0.7916 -1.9953
 4052TIP3   OH212098   0.343   2.642   1.677  0.2913  0.2306 -0.9343
 4052TIP3    H112099   0.266   2.699   1.674 -0.1237 -0.2513 -0.0444
 4052TIP3    H212100   0.347   2.614   1.769  1.0744 -0.3601 -1.1472
 4053TIP3   OH212101   0.220   3.984   1.430 -0.7349  0.2695  0.1106
 4053TIP3    H112102   0.264   3.999   1.513 -0.1029  1.4065 -0.4149
 4053TIP3    H212103   0.170   4.064   1.414 -0.7518  0.1131 -0.6647
 4054TIP3   OH212104   7.011   5.205   4.247 -0.1398  0.1505 -0.3853
 4054TIP3    H112105   6.924   5.185   4.281  1.0429 -1.9387  1.5821
 4054TIP3    H212106   7.049   5.120   4.227  1.2146  1.0732 -1.9041
 4055TIP3   OH212107   6.816   3.948   2.387 -0.2701  0.3555  0.2355
 4055TIP3    H112108   6.787   4.038   2.398 -0.4747  0.0998  2.0571
 4055TIP3    H212109   6.762   3.898   2.449  0.5936 -0.8558  0.0343
 4056TIP3   OH212110   7.646   6.168   1.125 -0.3829  0.5358  0.3451
 4056TIP3    H112111   7.609   6.083   1.148  0.7701  0.3686  1.5935
 4056TIP3    H212112   7.631   6.223   1.201  1.4750  0.6085  0.6847
 4057TIP3   OH212113   8.012   5.228   2.611 -0.2734 -0.1611 -0.6519
 4057TIP3    H112114   7.989   5.307   2.660  0.3388 -1.0314  1.0823
 4057TIP3    H212115   8.071   5.259   2.543  0.5032  0.7990  0.4364
 4058TIP3   OH212116   4.958   4.333   1.690 -0.0604  0.1380 -0.7103
 4058TIP3    H112117   4.893   4.319   1.758 -0.8628  0.9217 -1.3078
 4058TIP3    H212118   4.976   4.246   1.655 -1.7105  0.0555 -1.3828
 4059TIP3   OH212119   6.699   3.567   1.805 -0.2588  0.7240  0.9154
 4059TIP3    H112120   6.731   3.518   1.729  0.3163 -0.4171  1.8803
 4059TIP3    H212121   6.688   3.657   1.773 -0.8420  0.0659 -0.7339
 4060TIP3   OH212122   4.040   7.344   6.277 -0.7191 -0.9026  0.2840
 4060TIP3    H112123   3.958   7.374   6.237 -1.2195 -3.2928 -0.5479
 4060TIP3    H212124   4.024   7.350   6.371 -0.9905  0.8730  0.1396
 4061TIP3   OH212125   3.763   6.974   6.537  0.0379 -1.0175  0.4585
 4061TIP3    H112126   3.720   6.888   6.531 -3.4820  0.6917 -0.6628
 4061TIP3    H212127   3.732   7.011   6.620  1.5988 -0.8485  0.9762
 4062TIP3   OH212128   7.613   3.094   0.980 -0.0819 -0.1038 -0.7720
 4062TIP3    H112129   7.693   3.115   1.028 -1.6218  0.4443  1.6044
 4062TIP3    H212130   7.575   3.020   1.027 -0.9380 -0.4163 -1.9301
 4063TIP3   OH212131   2.810   7.230   6.440  0.1811 -0.4081  0.3430
 4063TIP3    H112132   2.905   7.243   6.437 -0.0061  0.6993 -1.4680
 4063TIP3    H212133   2.793   7.163   6.374 -0.5167  1.0458 -1.0040
 4064TIP3   OH212134   0.374   4.766   0.512 -0.0474  0.6542  0.4382
 4064TIP3    H112135   0.327   4.840   0.474 -1.0086 -2.2936 -4.6369
 4064TIP3    H212136   0.306   4.705   0.539  0.7696  0.7454  2.8279
 4065TIP3   OH212137   8.316   3.148   0.278  0.2569  0.0590  0.0510
 4065TIP3    H112138   8.244   3.211   0.275  0.4548  0.2834  0.0101
 4065TIP3    H212139   8.307   3.106   0.364 -0.8116 -0.9751 -0.5460
 4066TIP3   OH212140   0.153   3.724   1.702  0.2053 -0.1330  0.2305
 4066TIP3    H112141   0.195   3.735   1.787 -1.4433 -1.2294  1.2250
 4066TIP3    H212142   0.083   3.789   1.700  0.3305 -0.0111 -0.3504
 4067TIP3   OH212143   0.957   5.096   6.772  0.6235 -0.5362 -0.2209
 4067TIP3    H112144   0.954   5.013   6.724  0.2379 -0.7587  0.1841
 4067TIP3    H212145   0.867   5.129   6.769  0.8376  0.0244 -0.6484
 4068TIP3   OH212146   0.426   1.710   1.806 -0.1212 -0.6154  0.0781
 4068TIP3    H112147   0.394   1.659   1.881  2.3370  0.8330  2.1630
 4068TIP3    H212148   0.513   1.675   1.788 -0.9025 -1.3184 -2.4942
 4069TIP3   OH212149   7.829   2.304   2.002 -0.4218  0.1299 -0.7457
 4069TIP3    H112150   7.898   2.366   1.977 -1.1797  1.5368  0.5222
 4069TIP3    H212151   7.846   2.285   2.094 -0.8996 -0.6072 -0.8079
 4070TIP3   OH212152   5.993   4.461   1.502  0.2319 -0.7236  0.7217
 4070TIP3    H112153   5.966   4.388   1.558  1.0013 -1.0592  0.6617
 4070TIP3    H212154   6.046   4.420   1.433  2.3654  0.1036  1.8232
 4071TIP3   OH212155   5.208   6.207   0.396 -0.2945  0.5711 -0.5946
 4071TIP3    H112156   5.112   6.209   0.387 -0.2578  0.9339 -0.9615
 4071TIP3    H212157   5.229   6.290   0.438 -0.2107  0.1178  0.2590
 4072TIP3   OH212158   1.221   6.239   2.059  0.2399 -0.5379 -0.4929
 4072TIP3    H112159   1.295   6.202   2.011  1.1202  1.1388 -0.4527
 4072TIP3    H212160   1.187   6.165   2.109  0.8570 -1.7186 -1.7630
 4073TIP3   OH212161   0.288   3.757   2.871  0.2372 -0.0771  0.3582
 4073TIP3    H112162   0.375   3.748   2.834 -0.4776  0.5825 -1.5207
 4073TIP3    H212163   0.258   3.843   2.842 -0.2196  0.6099  2.7663
 4074TIP3   OH212164   0.102   7.642   6.756  0.7518 -0.5550  0.5286
 4074TIP3    H112165   0.177   7.596   6.720  0.6568 -0.9925  0.8783
 4074TIP3    H212166   0.094   7.721   6.703  1.6038 -0.3875  0.6530
 4075TIP3   OH212167   4.715   5.141   2.158  0.0037 -0.2008 -0.0322
 4075TIP3    H112168   4.664   5.178   2.086 -0.5185 -0.2698  0.3065
 4075TIP3    H212169   4.804   5.136   2.123 -0.5991 -2.0671 -1.3846
 4076TIP3   OH212170   5.711   5.091   0.729 -0.2606 -0.1824 -0.1151
 4076TIP3    H112171   5.768   5.070   0.803 -0.2122 -1.7606 -0.5879
 4076TIP3    H212172   5.646   5.151   0.766  1.0581  0.8016  0.6797
 4077TIP3   OH212173   6.100   4.880   1.700 -1.1239  0.0864 -0.0240
 4077TIP3    H112174   6.019   4.878   1.750 -0.3507 -0.9849  1.2329
 4077TIP3    H212175   6.126   4.788   1.692 -1.2092  0.2412 -2.3833
 4078TIP3   OH212176   8.020   5.814   1.693 -0.2171 -0.0250  0.0349
 4078TIP3    H112177   8.030   5.885   1.756 -0.1765  1.0556 -1.1669
 4078TIP3    H212178   8.092   5.826   1.631 -0.0800 -1.2452 -0.0534
 4079TIP3   OH212179   6.640   3.794   2.608  0.0502  0.3809 -0.1319
 4079TIP3    H112180   6.562   3.749   2.577  0.6860  0.1826 -1.4777
 4079TIP3    H212181   6.626   3.805   2.702 -0.2207 -2.4195  0.1859
 4080TIP3   OH212182   6.165   4.720   4.025 -0.2951  0.2580 -0.0270
 4080TIP3    H112183   6.088   4.747   4.074 -0.1773  3.2219 -1.3876
 4080TIP3    H212184   6.142   4.635   3.988 -2.1665  0.2272  1.1755
 4081TIP3   OH212185   5.425   4.694   2.311 -0.0538  0.9513 -0.2354
 4081TIP3    H112186   5.421   4.744   2.229  0.8860  1.3550 -0.0482
 4081TIP3    H212187   5.511   4.652   2.308 -0.4749  0.0674  0.0277
 4082TIP3   OH212188   3.539   2.399   1.888  0.3846  0.2320  0.9301
 4082TIP3    H112189   3.529   2.494   1.892  0.3255  0.2267  0.9062
 4082TIP3    H212190   3.524   2.378   1.796  0.3707  0.1964  0.9404
 4083TIP3   OH212191   6.031   2.056   2.253  0.3760  0.8286  0.3393
 4083TIP3    H112192   6.056   2.096   2.169 -0.2612  0.2879 -0.1193
 4083TIP3    H212193   6.112   2.053   2.303  1.3231 -1.2008 -1.2412
 4084TIP3   OH212194   7.456   2.740   2.030 -0.5156 -0.2807 -0.2080
 4084TIP3    H112195   7.431   2.657   1.989  0.4395 -0.2539 -0.8898
 4084TIP3    H212196   7.445   2.805   1.961  0.6953 -0.1647 -0.3070
 4085TIP3   OH212197   6.337   4.795   3.624  0.1899  0.2191 -0.8918
 4085TIP3    H112198   6.351   4.840   3.707  2.4621  2.5675 -2.4608
 4085TIP3    H212199   6.347   4.702   3.645 -0.3153  0.7095  1.6434
 4086TIP3   OH212200   1.139   7.392   5.770 -0.0586 -0.4805  0.2050
 4086TIP3    H112201   1.097   7.437   5.697  0.7231 -0.1648 -0.0553
 4086TIP3    H212202   1.193   7.325   5.728 -0.4942 -1.0591  0.5516
 4087TIP3   OH212203   8.425   5.609   1.877 -0.1049 -0.4024  0.1095
 4087TIP3    H112204   8.433   5.582   1.968  2.5399  0.0889  0.0724
 4087TIP3    H212205   8.432   5.528   1.827 -0.1886 -0.5350  0.3137
 4088TIP3   OH212206   3.260   4.415   0.621 -0.4468 -0.4848 -0.2155
 4088TIP3    H112207   3.256   4.477   0.547 -1.4579  1.3026  1.2895
 4088TIP3    H212208   3.181   4.434   0.672  0.3694 -1.5298  1.4669
 4089TIP3   OH212209   7.640   3.473   1.116  0.5883 -0.1933 -0.5839
 4089TIP3    H112210   7.555   3.483   1.160  0.2861 -0.5368 -1.0830
 4089TIP3    H212211   7.617   3.462   1.024  1.1272 -1.3296 -0.5852
 4090TIP3   OH212212  -0.002   5.032   0.915 -0.0082 -0.2531 -0.1525
 4090TIP3    H112213   0.067   5.003   0.854 -0.4590 -1.9661  0.1310
 4090TIP3    H212214   0.045   5.079   0.983  0.7907 -0.6494 -0.4216
 4091TIP3   OH212215   0.346   2.206   3.238 -0.2733 -0.1134 -0.4611
 4091TIP3    H112216   0.319   2.241   3.154  0.1253 -0.7585 -0.8630
 4091TIP3    H212217   0.284   2.134   3.255  1.0382 -1.4572 -1.2853
 4092TIP3   OH212218   8.394   3.325   0.021  0.2337  0.2744  0.0776
 4092TIP3    H112219   8.359   3.268   0.090  1.3571 -1.0870 -0.4572
 4092TIP3    H212220   8.454   3.384   0.067  1.5695 -1.1299  0.1858
 4093TIP3   OH212221   5.903   3.090   1.523 -0.6336 -0.1180  1.1232
 4093TIP3    H112222   5.950   3.052   1.598  2.1334 -2.7076 -1.7386
 4093TIP3    H212223   5.849   3.019   1.491  0.4263  0.0186 -1.0383
 4094TIP3   OH212224   1.323   2.606   0.170 -1.0843 -0.3988  0.2100
 4094TIP3    H112225   1.269   2.675   0.133  0.8100  1.0656  0.1159
 4094TIP3    H212226   1.338   2.545   0.098  0.8059  1.3379 -0.9331
 4095TIP3   OH212227   5.671   2.463   3.534  0.3441  0.1506  0.1960
 4095TIP3    H112228   5.598   2.513   3.573  0.6510  0.8798 -0.1492
 4095TIP3    H212229   5.647   2.453   3.442  0.2990 -0.3160  0.2578
 4096TIP3   OH212230   1.120   3.952   0.690  0.2521  0.2308 -0.1136
 4096TIP3    H112231   1.099   3.891   0.761  0.4760 -0.7665 -0.9022
 4096TIP3    H212232   1.063   4.027   0.707  0.1345 -0.0883  0.9957
 4097TIP3   OH212233   6.876   2.732   1.607  0.0768 -0.1451 -0.4934
 4097TIP3    H112234   6.797   2.678   1.596  0.0681 -0.5592  1.3724
 4097TIP3    H212235   6.946   2.681   1.567 -0.0067 -1.3982  0.8813
 4098TIP3   OH212236   7.731   3.732   1.241 -0.4784 -0.9327  0.3028
 4098TIP3    H112237   7.739   3.660   1.178 -0.7254 -1.1640  0.5306
 4098TIP3    H212238   7.821   3.749   1.270 -0.2415 -0.0724 -0.9421
 4099TIP3   OH212239   6.975   2.320   2.010 -0.4138 -0.2949 -0.0271
 4099TIP3    H112240   7.010   2.388   2.068 -1.6238  1.5616 -1.3902
 4099TIP3    H212241   7.049   2.263   1.991  0.2636 -0.2602  2.3934
 4100TIP3   OH212242   5.740   0.708   5.850 -0.6001 -0.2574 -0.2076
 4100TIP3    H112243   5.659   0.749   5.822 -0.7466 -0.5665 -0.2413
 4100TIP3    H212244   5.719   0.614   5.853 -0.2476 -0.3359 -0.2133
 4101TIP3   OH212245   0.726   2.891   0.472 -0.1570  0.1670 -0.2264
 4101TIP3    H112246   0.631   2.889   0.457 -0.0524 -0.4591 -0.8324
 4101TIP3    H212247   0.763   2.851   0.393  0.4980 -1.6410  0.9723
 4102TIP3   OH212248   8.111   4.829   2.900  0.1000 -0.4121  0.0004
 4102TIP3    H112249   8.157   4.778   2.834 -2.7942  1.3713 -3.6115
 4102TIP3    H212250   8.166   4.906   2.915 -1.0970  1.2253 -3.5395
 4103TIP3   OH212251   6.812   4.684   2.217 -0.3828  0.4192  0.7030
 4103TIP3    H112252   6.838   4.598   2.182  0.4455  0.5515  0.9946
 4103TIP3    H212253   6.860   4.747   2.163 -0.0334  0.6630  1.3033
 4104TIP3   OH212254   0.060   2.854   1.240 -0.1208 -0.0233  0.2064
 4104TIP3    H112255  -0.029   2.850   1.275  0.3428 -0.4363  1.3921
 4104TIP3    H212256   0.098   2.769   1.263  0.6810  0.2781  0.0150
 4105TIP3   OH212257   0.459   3.912   1.351 -0.6203 -0.3366 -0.1363
 4105TIP3    H112258   0.367   3.935   1.364 -0.0296  0.8071  2.1353
 4105TIP3    H212259   0.456   3.829   1.304 -2.7977 -0.1145 -0.4551
 4106TIP3   OH212260   6.717   3.228   1.401 -0.0426  0.3722 -0.0638
 4106TIP3    H112261   6.805   3.193   1.413  0.0087  0.4208 -0.2887
 4106TIP3    H212262   6.686   3.189   1.319 -0.3053  0.2032  0.1124
 4107TIP3   OH212263   0.518   4.177   0.861  0.8066 -0.0750 -0.6382
 4107TIP3    H112264   0.589   4.147   0.805 -0.6294 -0.3458 -2.3576
 4107TIP3    H212265   0.460   4.101   0.870  0.0528  0.5228 -0.3515
 4108TIP3   OH212266   7.107   2.598   1.804  0.4340 -0.7472  0.2184
 4108TIP3    H112267   7.202   2.597   1.816  0.4662 -1.2960 -0.0506
 4108TIP3    H212268   7.071   2.585   1.892  0.6481 -2.9629  0.0178
 4109TIP3   OH212269   7.786   3.795   2.319  0.0142 -0.4252  0.3199
 4109TIP3    H112270   7.808   3.888   2.331  0.3833 -0.5696  0.7406
 4109TIP3    H212271   7.779   3.760   2.407 -0.6959 -0.6663  0.1710
 4110TIP3   OH212272   5.219   1.433   0.396 -0.2659  0.2231 -0.3480
 4110TIP3    H112273   5.182   1.433   0.485  1.7297  2.2790  0.5231
 4110TIP3    H212274   5.307   1.398   0.408  0.8353  2.6427 -1.1235
 4111TIP3   OH212275   0.823   2.565   0.466  0.5965 -0.0156  0.3392
 4111TIP3    H112276   0.899   2.612   0.432  0.4492  0.1571  0.2523
 4111TIP3    H212277   0.859   2.507   0.534  0.5468  1.4410  1.6359
 4112TIP3   OH212278   3.967   6.656   5.552  0.4923 -0.1713  0.4686
 4112TIP3    H112279   3.915   6.578   5.535  1.6728 -0.6035 -1.2737
 4112TIP3    H212280   4.053   6.623   5.578  0.4934  0.5497  1.4506
 4113TIP3   OH212281   8.383   3.389   0.561 -0.0702  0.2180 -0.3352
 4113TIP3    H112282   8.367   3.295   0.554 -0.3598  0.2632 -0.2865
 4113TIP3    H212283   8.313   3.430   0.510  1.1291  0.3464 -1.9165
 4114TIP3   OH212284   6.931   3.875   0.770  0.1666 -0.3714 -0.3393
 4114TIP3    H112285   6.912   3.949   0.712 -0.8480  0.8659  1.5240
 4114TIP3    H212286   6.846   3.832   0.783  0.4827 -0.9583 -0.1785
 4115TIP3   OH212287   6.753   4.117   1.041 -0.1649  0.7091  0.2879
 4115TIP3    H112288   6.784   4.034   1.078  0.1690  0.6628 -0.1003
 4115TIP3    H212289   6.662   4.100   1.018  0.4573 -0.1613 -1.6225
 4116TIP3   OH212290   8.021   3.639   2.190  0.0721 -0.0002  0.4067
 4116TIP3    H112291   7.936   3.661   2.228  0.1284 -0.0834  0.5827
 4116TIP3    H212292   8.034   3.703   2.120 -0.4903 -0.4719 -0.1424
 4117TIP3   OH212293   7.383   2.611   1.178  0.6220 -0.3678 -0.1047
 4117TIP3    H112294   7.375   2.565   1.261 -0.7650 -0.3969 -0.2439
 4117TIP3    H212295   7.384   2.542   1.111  2.3927 -0.3774 -0.0780
 4118TIP3   OH212296  -0.008   3.359   2.706 -0.0156  0.1965  0.8522
 4118TIP3    H112297   0.039   3.366   2.623 -0.7322 -0.4461  0.3812
 4118TIP3    H212298   0.042   3.412   2.767  0.5276  0.6593  0.0071
 4119TIP3   OH212299   0.528   4.183   1.987  0.0893 -0.2776  0.1717
 4119TIP3    H112300   0.536   4.089   1.971 -0.2440 -0.5609  1.6384
 4119TIP3    H212301   0.435   4.202   1.974  0.2709 -0.0012 -0.8174
 4120TIP3   OH212302   6.975   4.780   0.389  0.3017  0.1842  0.7691
 4120TIP3    H112303   6.916   4.827   0.329  0.7782 -0.0641  0.0977
 4120TIP3    H212304   7.005   4.847   0.450  0.3547  0.5936  0.3018
 4121TIP3   OH212305   0.924   6.976   6.395 -0.2066 -0.0009  0.4672
 4121TIP3    H112306   0.893   7.023   6.318 -1.5979 -0.5653  0.6731
 4121TIP3    H212307   0.881   7.019   6.469  0.3056 -0.1335  0.8503
 4122TIP3   OH212308   5.744   5.759   0.033 -0.0758  0.1686 -0.1931
 4122TIP3    H112309   5.746   5.785   0.125 -0.2454 -2.3473  0.5490
 4122TIP3    H212310   5.826   5.712   0.019 -0.5571 -0.4407 -1.0338
 4123TIP3   OH212311   5.904   3.340   0.160  0.3692 -0.2393 -0.2191
 4123TIP3    H112312   5.849   3.284   0.215 -0.4220 -1.4784 -2.2387
 4123TIP3    H212313   5.843   3.395   0.112  0.9707 -0.3040 -1.0744
 4124TIP3   OH212314   0.287   6.232   0.650  0.0125 -0.9424 -0.0443
 4124TIP3    H112315   0.219   6.247   0.716 -1.1844 -1.8913 -1.0430
 4124TIP3    H212316   0.288   6.312   0.598  0.7639 -0.3028  0.9112
 4125TIP3   OH212317   6.361   4.064   1.548 -0.0200  0.2022 -0.5541
 4125TIP3    H112318   6.280   4.059   1.599 -0.3952  1.2539 -1.0326
 4125TIP3    H212319   6.422   4.009   1.595 -0.2765  1.3868  1.2050
 4126TIP3   OH212320   6.409   5.663   2.596 -0.2290  0.2077 -0.7256
 4126TIP3    H112321   6.447   5.698   2.676 -1.1116 -0.8580  0.1639
 4126TIP3    H212322   6.446   5.718   2.526  1.4379  0.4003  0.2904
 4127TIP3   OH212323   5.636   3.782   2.018 -0.4988  0.1355 -0.1974
 4127TIP3    H112324   5.617   3.839   1.943 -2.7198  0.7012  0.7201
 4127TIP3    H212325   5.722   3.810   2.048 -0.3939  1.1861 -1.4196
 4128TIP3   OH212326   0.740   1.909   0.612  0.7174  0.0027 -0.1791
 4128TIP3    H112327   0.773   1.995   0.639 -0.5493 -0.3654  2.7589
 4128TIP3    H212328   0.653   1.904   0.652 -0.5555 -1.3814 -2.9832
 4129TIP3   OH212329   0.108   5.550   0.977  0.1938  0.6230  0.3454
 4129TIP3    H112330   0.051   5.622   0.949 -0.6100  0.5159  1.6570
 4129TIP3    H212331   0.137   5.576   1.065  1.7074  0.3940 -0.0793
 4130TIP3   OH212332   6.374   2.615   1.696 -0.2067  0.1387 -0.3843
 4130TIP3    H112333   6.316   2.580   1.628  0.6823  2.1680 -2.2248
 4130TIP3    H212334   6.315   2.654   1.761 -1.0212 -1.1639 -0.3211
 4131TIP3   OH212335   5.834   4.654   0.988  0.0734 -0.2035  0.6516
 4131TIP3    H112336   5.913   4.610   0.958 -0.0708 -1.4344  2.0391
 4131TIP3    H212337   5.859   4.694   1.072 -0.8771 -0.9583  1.3095
 4132TIP3   OH212338   6.337   2.943   1.974 -0.7664 -0.2383  0.3035
 4132TIP3    H112339   6.432   2.930   1.973 -0.3947  2.1321 -2.9584
 4132TIP3    H212340   6.326   3.037   1.979 -2.8969 -0.3901 -1.0671
 4133TIP3   OH212341   5.949   5.065   3.374  0.2938  0.4166  0.0869
 4133TIP3    H112342   6.025   5.008   3.361 -1.1275 -1.2095 -1.5118
 4133TIP3    H212343   5.910   5.035   3.456  0.7242  0.4846  0.3178
 4134TIP3   OH212344   6.981   2.055   0.591 -0.4470  0.6849  0.7429
 4134TIP3    H112345   6.966   1.962   0.606 -1.0054  0.8611  1.2701
 4134TIP3    H212346   7.052   2.078   0.651  0.6131  0.3030 -0.3391
 4135TIP3   OH212347   7.408   1.346   4.002  0.2424 -1.5419  0.3341
 4135TIP3    H112348   7.477   1.406   3.976 -0.4369 -0.7790  0.2581
 4135TIP3    H212349   7.428   1.323   4.092  0.0635 -0.5497  0.6331
 4136TIP3   OH212350   6.670   3.051   2.136 -0.4534 -0.3805  0.7838
 4136TIP3    H112351   6.756   3.056   2.178  0.9929 -0.1412 -2.1064
 4136TIP3    H212352   6.644   2.960   2.148  1.6858 -1.2821 -1.0784
 4137TIP3   OH212353   7.640   5.147   0.470  0.2153  0.3788 -0.6856
 4137TIP3    H112354   7.574   5.178   0.531  0.7285  0.8527 -0.3627
 4137TIP3    H212355   7.723   5.164   0.514  0.6437  1.8228 -1.9968
 4138TIP3   OH212356   7.607   4.560   4.178  0.1700  0.0262  0.0374
 4138TIP3    H112357   7.634   4.642   4.220 -0.3671 -0.3407  1.1426
 4138TIP3    H212358   7.673   4.496   4.207 -0.5464 -0.3615  0.8365
 4139TIP3   OH212359   5.402   1.118   6.943 -0.3074 -0.0264 -0.3896
 4139TIP3    H112360   5.445   1.037   6.914  0.6873  0.7036 -0.9841
 4139TIP3    H212361   5.419   1.181   6.873 -2.6553  0.2050 -0.7962
 4140TIP3   OH212362   5.408   3.438   0.872  0.6432 -0.5245  0.0603
 4140TIP3    H112363   5.313   3.446   0.859  0.4700 -0.5373  1.2077
 4140TIP3    H212364   5.431   3.513   0.928  1.5633  0.2936 -1.3863
 4141TIP3   OH212365   8.369   4.274   1.883  0.0782  0.7734  0.7204
 4141TIP3    H112366   8.403   4.363   1.892  0.4216  0.5718  1.5213
 4141TIP3    H212367   8.334   4.269   1.794  2.2164  0.9592 -0.1370
 4142TIP3   OH212368   5.641   3.645   2.760 -0.5668  0.1890  0.0911
 4142TIP3    H112369   5.730   3.666   2.788 -0.1940  0.3595 -1.1905
 4142TIP3    H212370   5.646   3.553   2.735 -0.2993  0.6614 -1.6745
 4143TIP3   OH212371   7.073   4.247   1.744  0.5343 -0.2184  0.1522
 4143TIP3    H112372   6.979   4.248   1.724  0.6734  0.8507 -0.5045
 4143TIP3    H212373   7.105   4.166   1.705  0.3497  0.6684 -1.9421
 4144TIP3   OH212374   0.283   1.328   1.977  0.1841  0.3173 -0.5214
 4144TIP3    H112375   0.215   1.365   1.921  0.9268 -0.3680 -1.8954
 4144TIP3    H212376   0.312   1.249   1.931  2.0596  0.7114 -0.0540
 4145TIP3   OH212377   5.105   0.736   6.027 -0.0024  0.0766 -1.1335
 4145TIP3    H112378   5.187   0.688   6.016  0.6210  1.3685 -2.3056
 4145TIP3    H212379   5.085   0.770   5.939 -1.1339  0.8238 -0.6015
 4146TIP3   OH212380   6.382   1.637   2.764 -0.1376 -0.5442  0.2740
 4146TIP3    H112381   6.475   1.616   2.760 -0.5345 -2.0068 -1.7093
 4146TIP3    H212382   6.370   1.673   2.852  2.3439 -0.0678  0.4523
 4147TIP3   OH212383   5.490   2.404   2.326 -0.1544 -0.3400 -0.1940
 4147TIP3    H112384   5.469   2.427   2.416 -1.7120 -0.5679 -0.4755
 4147TIP3    H212385   5.523   2.314   2.330 -1.8575 -0.9700 -0.0407
 4148TIP3   OH212386   1.177   4.017   2.879 -0.0620  0.2649 -0.3469
 4148TIP3    H112387   1.248   4.081   2.871 -1.0453  1.4518  0.2732
 4148TIP3    H212388   1.150   4.022   2.971  0.3089 -1.5413 -0.1309
 4149TIP3   OH212389   6.541   1.805   2.436  0.1715 -0.1314 -0.4125
 4149TIP3    H112390   6.583   1.878   2.481  1.0356 -1.4405  0.9716
 4149TIP3    H212391   6.606   1.776   2.372  0.2584 -0.3643 -0.2198
 4150TIP3   OH212392   7.981   4.844   1.923  0.0442 -0.3851  0.4604
 4150TIP3    H112393   7.986   4.922   1.867 -0.9986  0.7678  1.9446
 4150TIP3    H212394   7.940   4.778   1.867 -1.7367  0.9991  0.0827
 4151TIP3   OH212395   7.459   2.074   3.893 -0.1202  0.1480 -0.0989
 4151TIP3    H112396   7.400   2.094   3.820  0.5963 -1.4531 -1.1477
 4151TIP3    H212397   7.432   2.134   3.963 -1.2984  1.2029 -1.4246
 4152TIP3   OH212398   7.751   0.817   4.374 -0.3401 -0.1397  0.1478
 4152TIP3    H112399   7.801   0.835   4.294 -1.2718  0.1967 -0.3656
 4152TIP3    H212400   7.729   0.903   4.409 -0.1322 -0.2852  0.6488
 4153TIP3   OH212401   0.968   5.028   1.761 -0.9143 -0.1079 -0.2038
 4153TIP3    H112402   1.009   4.953   1.804  0.4082  0.5456 -0.3141
 4153TIP3    H212403   1.037   5.065   1.706 -1.3064  1.6665  0.4624
 4154TIP3   OH212404   6.851   4.673   1.576  0.3548 -0.3690 -0.1524
 4154TIP3    H112405   6.756   4.662   1.573  0.1612  1.1447  0.3744
 4154TIP3    H212406   6.882   4.628   1.498 -0.8534 -0.2281 -0.7288
 4155TIP3   OH212407   1.227   4.713   2.542  0.3087  0.5569  0.0000
 4155TIP3    H112408   1.277   4.736   2.463 -0.9341 -0.1918 -1.0327
 4155TIP3    H212409   1.136   4.723   2.516 -0.1202  0.1193  1.3002
 4156TIP3   OH212410   7.063   3.857   2.473 -0.3874  0.3955  0.6193
 4156TIP3    H112411   6.987   3.900   2.434 -0.6420  0.6017  1.3358
 4156TIP3    H212412   7.026   3.796   2.537  0.0474  0.6435  1.1167
 4157TIP3   OH212413   6.411   2.582   2.431 -0.0376  0.0289  0.4191
 4157TIP3    H112414   6.395   2.488   2.442 -0.4474  0.2342  1.5945
 4157TIP3    H212415   6.506   2.591   2.440  0.1596 -0.4568 -1.0958
 4158TIP3   OH212416   6.890   4.809   3.265  0.0159  0.2833  0.2225
 4158TIP3    H112417   6.875   4.720   3.295  1.1504 -0.3221 -0.9521
 4158TIP3    H212418   6.919   4.856   3.343 -1.5738 -0.1218  1.0575
 4159TIP3   OH212419   8.117   1.710   3.120  0.2510 -0.0586 -0.2019
 4159TIP3    H112420   8.162   1.780   3.072  0.5543  0.0255  0.1960
 4159TIP3    H212421   8.026   1.715   3.091 -0.1156  1.6952  1.1824
 4160TIP3   OH212422   7.272   4.649   3.256  0.3058  0.6099  0.5265
 4160TIP3    H112423   7.338   4.610   3.198  0.9074  1.7118  0.4512
 4160TIP3    H212424   7.191   4.644   3.206  0.7974  1.4435 -0.3778
 4161TIP3   OH212425   8.259   3.292   3.934 -0.2654  0.0305 -0.4873
 4161TIP3    H112426   8.312   3.217   3.961  0.3097 -0.0695 -1.8470
 4161TIP3    H212427   8.251   3.345   4.013  0.1686 -0.9521  0.2361
 4162TIP3   OH212428   0.228   3.929   4.233 -0.5752 -1.3771 -0.2410
 4162TIP3    H112429   0.260   3.841   4.212  1.6137 -0.7686  0.4254
 4162TIP3    H212430   0.262   3.984   4.163 -1.5089 -0.9655 -0.3752
 4163TIP3   OH212431   3.883   7.513   6.821  0.5922  0.2972 -0.3161
 4163TIP3    H112432   3.954   7.510   6.757 -0.1405  1.0685 -1.1804
 4163TIP3    H212433   3.809   7.470   6.778  0.4223 -0.1702  0.4341
 4164TIP3   OH212434   7.743   2.639   2.017  0.0859 -0.4360 -0.4097
 4164TIP3    H112435   7.800   2.592   2.078 -0.6983 -0.4196  0.3417
 4164TIP3    H212436   7.668   2.665   2.070  0.1515  0.9976 -0.9991
 4165TIP3   OH212437   8.150   7.224   1.934  0.4539  0.1859  0.4963
 4165TIP3    H112438   8.191   7.138   1.950  0.1497 -0.3225 -1.3558
 4165TIP3    H212439   8.223   7.286   1.939  1.1090 -0.4684 -0.6041
 4166TIP3   OH212440   8.332   3.446   1.869 -0.3547 -0.3149  0.0760
 4166TIP3    H112441   8.331   3.534   1.908  0.8306  0.4338 -1.5036
 4166TIP3    H212442   8.424   3.420   1.872 -0.2144 -0.2108 -2.2110
 4167TIP3   OH212443   7.176   2.795   1.242 -0.2947  0.3788 -0.0061
 4167TIP3    H112444   7.218   2.862   1.296  1.1775  0.3635 -1.0923
 4167TIP3    H212445   7.241   2.725   1.237 -0.9909 -0.2283 -0.6173
 4168TIP3   OH212446   0.976   3.434   3.248  0.1032  0.0322 -0.0550
 4168TIP3    H112447   0.957   3.520   3.212  3.4247  0.4850 -0.8910
 4168TIP3    H212448   0.999   3.381   3.172 -1.3556 -1.4582  0.5172
 4169TIP3   OH212449   8.255   3.492   2.688  0.5469 -0.8535  0.5529
 4169TIP3    H112450   8.270   3.556   2.758  2.0908 -1.1518  0.5063
 4169TIP3    H212451   8.322   3.425   2.702  0.2647 -1.3948 -0.6586
 4170TIP3   OH212452   1.534   6.138   4.867  0.8762  0.1377  0.6158
 4170TIP3    H112453   1.629   6.127   4.855  0.8246  0.8557 -0.5373
 4170TIP3    H212454   1.507   6.062   4.918  2.0357 -0.1968  0.7483
 4171TIP3   OH212455   5.765   5.494   1.571  0.3119 -0.2646 -0.0004
 4171TIP3    H112456   5.763   5.517   1.664  0.2151 -3.1320  0.7563
 4171TIP3    H212457   5.832   5.426   1.565  2.6624  2.1559 -2.6497
 4172TIP3   OH212458   7.291   0.679   6.351  0.5286 -0.3622  0.1124
 4172TIP3    H112459   7.311   0.766   6.316 -1.1075 -0.3512 -0.8562
 4172TIP3    H212460   7.357   0.622   6.311  0.9439  0.2555 -0.0975
 4173TIP3   OH212461   0.964   2.252   1.862  0.0392  0.3445 -0.0664
 4173TIP3    H112462   1.015   2.191   1.914  0.5558  0.1564 -0.7797
 4173TIP3    H212463   0.880   2.207   1.848  0.6454 -0.4970 -1.1218
 4174TIP3   OH212464   4.726   0.649   6.413 -0.1956  0.1747 -0.5965
 4174TIP3    H112465   4.643   0.615   6.380 -1.1217  1.9847 -0.2014
 4174TIP3    H212466   4.750   0.719   6.352  0.9093 -0.1627 -0.5617
 4175TIP3   OH212467   6.090   3.062   2.227  0.2581  0.0256  0.0535
 4175TIP3    H112468   6.092   2.966   2.228 -0.2959  0.0189  0.2696
 4175TIP3    H212469   6.048   3.084   2.144  0.8461  0.0924 -0.2335
 4176TIP3   OH212470   5.748   6.333   2.525  0.2118  0.4812 -0.2262
 4176TIP3    H112471   5.685   6.389   2.571  0.7358  1.3848 -0.6095
 4176TIP3    H212472   5.751   6.253   2.577 -0.2942  0.9350  0.5046
 4177TIP3   OH212473   1.008   4.848   1.083 -0.1145 -0.1104 -0.1488
 4177TIP3    H112474   1.004   4.812   1.172 -0.3799 -0.6787 -0.3877
 4177TIP3    H212475   0.917   4.868   1.061 -0.0073  0.3773 -0.1518
 4178TIP3   OH212476   1.907   4.057   0.362  0.1202 -0.2829 -0.4134
 4178TIP3    H112477   1.987   4.036   0.315 -0.8675  0.6523 -2.5515
 4178TIP3    H212478   1.845   3.989   0.335  0.0296 -0.7212  0.8563
 4179TIP3   OH212479   0.643   3.657   1.785  0.0394  0.6132 -0.3347
 4179TIP3    H112480   0.563   3.686   1.741  0.2291  0.9843 -0.4442
 4179TIP3    H212481   0.614   3.594   1.851 -0.2618  0.1026 -0.9445
 4180TIP3   OH212482   8.396   6.538   1.679  0.5762 -0.1457  0.2249
 4180TIP3    H112483   8.314   6.496   1.705  1.0244 -0.5388  1.0312
 4180TIP3    H212484   8.388   6.628   1.708 -0.1006  0.1649 -0.8790
 4181TIP3   OH212485   8.067   2.728   0.501 -0.1579  0.4161 -0.3675
 4181TIP3    H112486   8.044   2.649   0.549  0.3109  0.3802 -0.1980
 4181TIP3    H212487   7.990   2.784   0.509  0.6068  1.1688  2.0111
 4182TIP3   OH212488   4.868   3.321   2.240 -0.5244  0.4360  0.2856
 4182TIP3    H112489   4.844   3.239   2.283  2.1084 -0.2985  0.4446
 4182TIP3    H212490   4.930   3.362   2.300 -0.3988  1.6455 -0.6608
 4183TIP3   OH212491   6.569   6.060   2.763  0.6987  1.1709 -0.4710
 4183TIP3    H112492   6.621   6.091   2.689  1.3416  0.7415 -0.2095
 4183TIP3    H212493   6.584   5.965   2.764  0.4340  1.1350  0.0054
 4184TIP3   OH212494   1.541   2.786   2.341 -0.0844  0.0780 -0.0330
 4184TIP3    H112495   1.544   2.877   2.312  0.1039  0.1421  0.1887
 4184TIP3    H212496   1.549   2.790   2.436 -1.0045 -0.1095  0.0639
 4185TIP3   OH212497   7.747   3.961   0.895 -0.3055 -0.5722  0.0367
 4185TIP3    H112498   7.743   3.933   0.803 -1.5351  0.9707 -0.4067
 4185TIP3    H212499   7.694   3.897   0.942 -1.3563 -0.2203 -0.6500
 4186TIP3   OH212500   7.358   3.472   1.959  0.4495 -0.0209 -0.3277
 4186TIP3    H112501   7.443   3.456   1.919  0.2902  0.9435 -1.0769
 4186TIP3    H212502   7.376   3.535   2.029  0.7077 -1.6030  1.0590
 4187TIP3   OH212503   0.491   4.354   0.167 -0.0187  0.7075  0.2478
 4187TIP3    H112504   0.436   4.364   0.089  0.1147  3.0223  0.4149
 4187TIP3    H212505   0.581   4.366   0.135 -0.0264  2.5632  0.8835
 4188TIP3   OH212506   8.420   4.722   0.897  0.4653  0.6294 -0.0185
 4188TIP3    H112507   8.370   4.645   0.925  1.7612 -0.8014 -1.5173
 4188TIP3    H212508   8.362   4.796   0.915 -1.3687 -0.8075  0.1718
 4189TIP3   OH212509   1.196   0.551   2.521  0.0017  0.2026  0.5587
 4189TIP3    H112510   1.224   0.628   2.571 -0.7317  0.6296  0.3267
 4189TIP3    H212511   1.112   0.577   2.483  0.3094 -0.3027 -0.4788
 4190TIP3   OH212512   7.378   2.366   3.275 -0.5252  0.0295  0.3539
 4190TIP3    H112513   7.435   2.442   3.278 -0.3209  0.1066 -3.2606
 4190TIP3    H212514   7.300   2.391   3.324  0.7915  1.4459  1.7401
 4191TIP3   OH212515   0.840   5.542   1.691  0.9741  0.2109 -0.3409
 4191TIP3    H112516   0.853   5.635   1.672  0.5592  0.4030  0.2735
 4191TIP3    H212517   0.894   5.496   1.628  1.6172  0.8913 -0.2889
 4192TIP3   OH212518   7.135   5.123   0.233  0.3306 -0.7569 -0.7905
 4192TIP3    H112519   7.189   5.116   0.312 -0.9025 -1.9658 -0.0330
 4192TIP3    H212520   7.165   5.051   0.178 -0.0667 -1.0463 -0.6328
 4193TIP3   OH212521   6.072   5.180   0.696 -0.0886 -0.0530 -0.5193
 4193TIP3    H112522   6.048   5.231   0.619  1.1580  0.6902 -0.4373
 4193TIP3    H212523   6.023   5.219   0.767  2.1542  2.2035 -0.1401
 4194TIP3   OH212524   7.956   3.588   0.121  0.5388 -0.1415  0.2460
 4194TIP3    H112525   7.892   3.589   0.049  0.3330 -0.3337  0.4264
 4194TIP3    H212526   7.903   3.578   0.200  0.7254  0.6049  0.4698
 4195TIP3   OH212527   0.448   2.646   1.928 -0.4033 -0.4444  0.2207
 4195TIP3    H112528   0.453   2.741   1.930 -0.7670 -0.4370  0.8992
 4195TIP3    H212529   0.446   2.620   2.020 -0.1768 -1.1127  0.0382
 4196TIP3   OH212530   7.910   6.450   0.659 -0.3152 -0.3525  0.0297
 4196TIP3    H112531   7.932   6.489   0.743  0.4928  1.0822 -0.8338
 4196TIP3    H212532   7.954   6.505   0.594 -0.5703 -1.6833 -1.3139
 4197TIP3   OH212533   8.467   7.146   0.147 -0.9852 -0.1185  0.1542
 4197TIP3    H112534   8.413   7.081   0.101 -1.9731  0.1693  0.8923
 4197TIP3    H212535   8.504   7.097   0.221  2.0206 -1.0528 -1.8807
 4198TIP3   OH212536   6.410   2.985   1.236 -0.5898 -0.2478  0.3136
 4198TIP3    H112537   6.351   2.926   1.188 -0.2304 -0.3053 -0.0630
 4198TIP3    H212538   6.448   2.931   1.305  0.0811 -0.5866 -0.3078
 4199TIP3   OH212539   6.388   4.787   1.315 -0.1200  0.1192 -1.2075
 4199TIP3    H112540   6.348   4.721   1.371  0.9371  0.9687  0.6059
 4199TIP3    H212541   6.314   4.833   1.275 -0.9487  0.7520  0.9932
 4200TIP3   OH212542   5.011   4.325   0.514  0.2766  0.5288  0.5192
 4200TIP3    H112543   4.987   4.233   0.516  0.1992  0.4593 -1.8884
 4200TIP3    H212544   4.934   4.370   0.481  0.9496  1.2099 -0.1590
 4201TIP3   OH212545   1.297   1.601   1.327 -0.2628  0.5063 -0.0667
 4201TIP3    H112546   1.222   1.593   1.386 -0.3848  0.4321 -0.2309
 4201TIP3    H212547   1.322   1.693   1.331 -0.6360  0.6215 -0.3464
 4202TIP3   OH212548   6.899   2.710   3.179  0.1717  0.1190 -0.1678
 4202TIP3    H112549   6.876   2.617   3.186  3.8734 -0.8926  0.1026
 4202TIP3    H212550   6.878   2.733   3.089  0.0612 -1.2619 -0.5076
 4203TIP3   OH212551   4.924   1.164   6.739 -0.1832  0.1343  0.2018
 4203TIP3    H112552   4.970   1.226   6.683  1.2388 -1.2195 -0.1728
 4203TIP3    H212553   4.898   1.215   6.816 -0.6363  1.5982 -0.9082
 4204TIP3   OH212554   6.839   1.484   2.182  0.6389 -0.0762 -0.2235
 4204TIP3    H112555   6.895   1.521   2.114  0.2350 -0.4617 -0.7748
 4204TIP3    H212556   6.875   1.396   2.198  1.5936  0.5408  1.0790
 4205TIP3   OH212557   2.156   4.871   1.804  0.0023  0.1462  0.5616
 4205TIP3    H112558   2.166   4.777   1.785 -1.0193  0.3668 -1.1138
 4205TIP3    H212559   2.070   4.878   1.844 -0.8114  0.6303 -1.2254
 4206TIP3   OH212560   5.245   5.131   2.372  0.5555  0.0214 -0.7875
 4206TIP3    H112561   5.175   5.072   2.401  0.9801 -0.3056 -0.4188
 4206TIP3    H212562   5.210   5.219   2.386 -0.5438 -0.1338 -2.4591
 4207TIP3   OH212563   5.640   2.205   2.389 -0.2223 -0.0496 -0.1923
 4207TIP3    H112564   5.719   2.230   2.341 -1.6273  0.3722 -2.3232
 4207TIP3    H212565   5.666   2.127   2.438  1.4012 -0.1832 -1.2124
 4208TIP3   OH212566   8.030   3.844   1.289 -0.0128  0.3634  0.2308
 4208TIP3    H112567   8.117   3.880   1.306  1.3933 -2.1001 -1.5484
 4208TIP3    H212568   7.978   3.920   1.261  2.1105  1.5211 -0.6692
 4209TIP3   OH212569   0.640   2.842   3.264  0.4163 -0.3373 -0.5836
 4209TIP3    H112570   0.633   2.876   3.353 -0.7353  0.3278 -0.9170
 4209TIP3    H212571   0.552   2.810   3.244  0.7159 -0.6577 -1.4186
 4210TIP3   OH212572   8.448   2.139   2.957  0.4733  0.1781  0.2615
 4210TIP3    H112573   8.442   2.044   2.973  1.5063  0.1519  0.5703
 4210TIP3    H212574   8.414   2.179   3.037 -0.7179  0.0779 -0.1858
 4211TIP3   OH212575   6.710   4.869   0.238 -0.3531 -0.0259  0.5176
 4211TIP3    H112576   6.617   4.885   0.254 -0.0324  1.1809  1.1948
 4211TIP3    H212577   6.730   4.919   0.159 -0.2816 -0.3237  0.3441
 4212TIP3   OH212578   8.154   5.046   2.039  0.1666  0.1791  0.0649
 4212TIP3    H112579   8.072   4.998   2.053  1.3453 -1.4984  1.4038
 4212TIP3    H212580   8.129   5.138   2.048 -1.5259 -0.3155  0.7582
 4213TIP3   OH212581   0.095   6.255   0.860  0.1825 -0.4516 -0.7081
 4213TIP3    H112582   0.074   6.344   0.830  1.8524 -0.0570 -0.7278
 4213TIP3    H212583   0.141   6.268   0.942 -0.5659 -1.3681 -0.1401
 4214TIP3   OH212584   7.511   3.928   5.861 -0.5489 -0.0281 -0.7818
 4214TIP3    H112585   7.563   3.864   5.908  0.1663  1.0038 -0.1381
 4214TIP3    H212586   7.422   3.917   5.896 -0.0872  0.5130  0.6021
 4215TIP3   OH212587   0.187   7.410   1.607  0.7866  0.2214 -0.4053
 4215TIP3    H112588   0.130   7.460   1.665  0.5811 -2.2253  1.5953
 4215TIP3    H212589   0.275   7.426   1.640  0.5695 -2.1715  1.4532
 4216TIP3   OH212590   2.346   6.974   4.848 -0.2114  0.0629  0.1523
 4216TIP3    H112591   2.268   7.001   4.897  1.0739  0.2477  2.1855
 4216TIP3    H212592   2.386   6.907   4.903  0.7496 -0.4597 -1.1616
 4217TIP3   OH212593   5.749   7.172   1.901  0.2702  0.5224  0.2741
 4217TIP3    H112594   5.825   7.230   1.891 -0.4063  1.2923 -0.4629
 4217TIP3    H212595   5.778   7.105   1.963  2.1750 -0.2676 -1.4428
 4218TIP3   OH212596   8.054   4.877   1.000 -0.2962  0.2641  0.4826
 4218TIP3    H112597   8.034   4.932   0.924 -0.3268  0.8728  0.9262
 4218TIP3    H212598   8.066   4.789   0.964 -0.6510  0.4866 -0.1835
 4219TIP3   OH212599   7.363   5.062   1.934  0.2267 -0.3032 -0.5452
 4219TIP3    H112600   7.305   5.049   1.859  1.1302  0.7347 -1.4421
 4219TIP3    H212601   7.314   5.118   1.993 -0.0046 -0.0867 -0.9396
 4220TIP3   OH212602   1.929   5.880   4.308 -0.2026 -0.1033  0.4955
 4220TIP3    H112603   1.837   5.892   4.286  0.4355  0.7655 -1.9463
 4220TIP3    H212604   1.946   5.788   4.291 -0.5377 -0.1776  0.5586
 4221TIP3   OH212605   2.477   4.071   3.761  0.1202  0.1245  0.0827
 4221TIP3    H112606   2.478   4.120   3.679 -1.6672  0.9424  0.5145
 4221TIP3    H212607   2.420   3.996   3.743  1.4725 -0.8914 -0.0595
 4222TIP3   OH212608   0.616   6.112   3.571 -0.3130  0.1925  0.1826
 4222TIP3    H112609   0.546   6.143   3.514 -1.3560 -1.9372  0.2762
 4222TIP3    H212610   0.695   6.121   3.517 -0.8895  0.8647 -0.5773
 4223TIP3   OH212611   0.012   3.845   1.293 -0.1173 -0.5723  0.0369
 4223TIP3    H112612   0.072   3.891   1.352  0.2348 -0.1992 -0.6064
 4223TIP3    H212613   0.039   3.753   1.298  1.1168 -0.2803 -0.9483
 4224TIP3   OH212614   7.940   6.046   2.602  0.0294  0.0194  0.0854
 4224TIP3    H112615   7.996   5.998   2.542  0.4110  1.4243 -0.7009
 4224TIP3    H212616   7.984   6.041   2.686  1.1970  0.8502 -0.4603
 4225TIP3   OH212617   7.599   5.559   2.223 -0.3462  0.1314 -0.4449
 4225TIP3    H112618   7.665   5.490   2.223  0.4033  0.7783 -2.8201
 4225TIP3    H212619   7.532   5.528   2.162 -1.2022  0.4212  0.3375
 4226TIP3   OH212620   8.249   2.479   2.921 -0.0240  0.3017 -0.3095
 4226TIP3    H112621   8.170   2.507   2.875  0.7865  0.4987 -1.6260
 4226TIP3    H212622   8.250   2.532   3.000 -0.6825  1.0434 -0.7821
 4227TIP3   OH212623   0.512   5.823   2.952 -0.3884  0.2569  0.1573
 4227TIP3    H112624   0.527   5.879   2.876 -0.6729  1.6543  1.1146
 4227TIP3    H212625   0.423   5.789   2.940 -0.4364  0.4848 -0.1239
 4228TIP3   OH212626   6.808   5.053   0.939 -0.1952  0.4827  0.3963
 4228TIP3    H112627   6.717   5.027   0.956 -0.7575  2.2976  0.2549
 4228TIP3    H212628   6.823   5.127   0.998  0.9371  0.7134 -0.1709
 4229TIP3   OH212629   1.763   6.180   3.358  0.4904  0.0810  0.4205
 4229TIP3    H112630   1.699   6.115   3.330  1.9736 -0.9918 -0.5418
 4229TIP3    H212631   1.807   6.208   3.278  1.2364  0.7950  1.0598
 4230TIP3   OH212632   6.678   3.423   4.714 -0.0968  0.2737 -0.3111
 4230TIP3    H112633   6.754   3.457   4.668  0.2909  0.1522  0.2370
 4230TIP3    H212634   6.705   3.336   4.743 -0.1148  0.5939  0.6889
 4231TIP3   OH212635   7.953   6.548   2.065 -0.2690  0.5959 -0.4733
 4231TIP3    H112636   7.961   6.603   1.987 -0.3874 -1.2686 -1.8300
 4231TIP3    H212637   8.040   6.549   2.104 -0.1775  1.4306 -0.6795
 4232TIP3   OH212638   1.779   4.230   3.819 -0.1898  0.4250 -0.1477
 4232TIP3    H112639   1.859   4.259   3.864 -0.0655 -0.3663  0.1590
 4232TIP3    H212640   1.810   4.170   3.752 -0.5805 -0.5384  0.5174
 4233TIP3   OH212641   2.697   2.723   0.590 -0.2689  0.0473 -0.0852
 4233TIP3    H112642   2.651   2.790   0.641 -1.1520  0.0651 -0.9018
 4233TIP3    H212643   2.646   2.643   0.604 -0.8685  0.1878 -1.4293
 4234TIP3   OH212644   6.865   3.895   3.201 -0.1684 -0.3224 -0.0191
 4234TIP3    H112645   6.778   3.891   3.240 -0.3332 -0.7207 -0.4187
 4234TIP3    H212646   6.924   3.911   3.274 -0.3576 -2.0951  0.5423
 4235TIP3   OH212647   3.636   0.166   4.236  0.1899  0.0997  0.0894
 4235TIP3    H112648   3.691   0.101   4.281 -1.2326 -1.2262 -0.0293
 4235TIP3    H212649   3.553   0.164   4.284  0.1327  1.8913  0.1097
 4236TIP3   OH212650   8.196   5.397   2.438 -0.0742  0.0935  0.6293
 4236TIP3    H112651   8.274   5.453   2.434  0.5389 -0.7508  0.5944
 4236TIP3    H212652   8.124   5.458   2.451  0.6322  0.8616  1.0220
 4237TIP3   OH212653   7.728   3.156   3.533  0.8958 -0.0826 -0.0093
 4237TIP3    H112654   7.678   3.237   3.544  0.2012 -0.6954  1.5836
 4237TIP3    H212655   7.676   3.089   3.579  1.3742 -1.4669 -1.4351
 4238TIP3   OH212656   0.990   4.376   3.174  0.2266  0.3257 -0.3659
 4238TIP3    H112657   1.056   4.410   3.113 -1.1206 -1.0514 -2.6786
 4238TIP3    H212658   0.965   4.451   3.228 -1.0549  2.5217 -3.8503
 4239TIP3   OH212659   0.260   5.730   3.015 -0.4044 -0.1707  0.2569
 4239TIP3    H112660   0.227   5.778   3.091 -1.1545 -0.7559  0.3009
 4239TIP3    H212661   0.244   5.638   3.036 -1.2358 -0.2942 -0.8952
 4240TIP3   OH212662   0.267   5.132   1.735  0.1763  0.1892  0.5319
 4240TIP3    H112663   0.255   5.104   1.826 -0.7943 -0.4039  0.2318
 4240TIP3    H212664   0.246   5.225   1.735  0.5024  0.2639  0.9770
 4241TIP3   OH212665   7.198   6.022   2.527  0.5230 -0.3551 -0.6476
 4241TIP3    H112666   7.235   5.946   2.483 -1.0548 -0.2737 -2.1822
 4241TIP3    H212667   7.103   6.013   2.515  0.0175 -0.2926  2.6941
 4242TIP3   OH212668   7.243   4.818   3.609 -0.5950 -0.0491  0.1685
 4242TIP3    H112669   7.291   4.899   3.594  0.2710 -0.7368 -0.8083
 4242TIP3    H212670   7.159   4.831   3.564  0.0781 -0.2135 -1.1498
 4243TIP3   OH212671   7.642   2.162   2.809  0.1902  0.8237  0.2471
 4243TIP3    H112672   7.671   2.101   2.740 -0.1239  0.5559  0.3518
 4243TIP3    H212673   7.706   2.151   2.879 -0.4604 -0.1571  0.6955
 4244TIP3   OH212674   1.101   6.187   2.845  0.1193 -0.2160  0.3136
 4244TIP3    H112675   1.089   6.150   2.757 -0.2362 -0.8048  0.6030
 4244TIP3    H212676   1.173   6.136   2.882 -1.3747 -1.6828  1.2772
 4245TIP3   OH212677   7.727   6.484   2.199  0.4192 -0.1118  0.2291
 4245TIP3    H112678   7.734   6.529   2.283 -0.4773 -0.5631  0.5522
 4245TIP3    H212679   7.784   6.534   2.140 -0.9682  1.7735  0.4401
 4246TIP3   OH212680   0.450   5.096   3.338 -0.3870 -0.0135  0.0491
 4246TIP3    H112681   0.355   5.111   3.336 -0.5136 -0.6932  0.5586
 4246TIP3    H212682   0.469   5.084   3.431  0.7914  3.7720  0.3776
 4247TIP3   OH212683   1.124   2.301   3.468  0.2019  0.0140  1.0331
 4247TIP3    H112684   1.029   2.291   3.459  0.5457 -0.7603 -2.7016
 4247TIP3    H212685   1.156   2.212   3.482  0.5129  0.0496  0.5624
 4248TIP3   OH212686   7.756   6.567   4.742  0.1890 -0.1820 -0.2655
 4248TIP3    H112687   7.774   6.520   4.660  0.9185 -1.1439  0.4368
 4248TIP3    H212688   7.835   6.555   4.795  0.5102  2.1313 -0.1911
 4249TIP3   OH212689   7.363   4.042   3.109  0.3083 -0.3620  0.8839
 4249TIP3    H112690   7.349   3.984   3.183  0.5563 -1.9321 -0.2733
 4249TIP3    H212691   7.455   4.030   3.086 -0.4219 -2.0296 -1.3991
 4250TIP3   OH212692   8.150   4.667   2.115  0.0707  0.6293 -0.3108
 4250TIP3    H112693   8.109   4.581   2.119 -0.2505  0.8632  1.7555
 4250TIP3    H212694   8.106   4.710   2.041 -1.6501 -0.0295  0.2994
 4251TIP3   OH212695   7.948   5.130   2.282  0.4731 -0.1131  0.0268
 4251TIP3    H112696   7.939   5.036   2.299 -0.3167 -0.3718 -1.7392
 4251TIP3    H212697   7.859   5.161   2.265  0.7467  0.9149  0.4144
 4252TIP3   OH212698   0.497   6.933   6.104  0.4948  0.2616  0.4463
 4252TIP3    H112699   0.464   6.883   6.030  0.8686  1.1593 -0.3256
 4252TIP3    H212700   0.419   6.974   6.142  0.2220 -0.6779  0.9273
 4253TIP3   OH212701   0.601   6.169   4.756  0.4787  0.0299  0.2321
 4253TIP3    H112702   0.523   6.215   4.788  0.8245  0.5406  0.3578
 4253TIP3    H212703   0.617   6.207   4.670  0.5546 -0.1105  0.1862
 4254TIP3   OH212704   6.201   5.796   1.944  0.1004  0.7993  0.5846
 4254TIP3    H112705   6.240   5.871   1.991 -2.6013  1.7910  1.3472
 4254TIP3    H212706   6.215   5.722   2.003 -0.8013  1.5038  1.7081
 4255TIP3   OH212707   7.736   4.079   2.735  0.2299 -0.3779 -0.4640
 4255TIP3    H112708   7.819   4.128   2.730 -0.3683  1.0483  2.4147
 4255TIP3    H212709   7.764   3.988   2.742  1.5782  0.0866  0.5496
 4256TIP3   OH212710   8.359   5.521   4.086  0.2711  0.6196  0.6477
 4256TIP3    H112711   8.445   5.483   4.104 -0.1635 -0.7839 -0.1140
 4256TIP3    H212712   8.365   5.553   3.996 -0.4926 -0.9807  0.0003
 4257TIP3   OH212713   0.480   3.555   1.991 -0.0497 -0.2375  0.4410
 4257TIP3    H112714   0.415   3.626   1.994  2.6373  2.2330  2.1461
 4257TIP3    H212715   0.486   3.524   2.081  1.9448  0.3238  0.5124
 4258TIP3   OH212716   8.509   3.938   3.392  0.0886  0.0562  0.9323
 4258TIP3    H112717   8.528   3.846   3.410 -0.8032 -0.4766 -0.7177
 4258TIP3    H212718   8.417   3.939   3.369  0.3949  1.1615 -0.2903
 4259TIP3   OH212719   6.961   3.648   3.171 -1.1182 -0.0827 -0.2279
 4259TIP3    H112720   6.980   3.641   3.078  1.8434  1.0331  0.2181
 4259TIP3    H212721   6.940   3.741   3.184 -1.4525 -0.2188  0.2214
 4260TIP3   OH212722   8.083   5.213   1.629 -0.0689  0.0327 -0.0286
 4260TIP3    H112723   8.105   5.160   1.552  1.3990 -0.5782  0.7977
 4260TIP3    H212724   8.019   5.276   1.596  1.4718  0.5965 -2.0749
 4261TIP3   OH212725   7.910   3.711   2.793  0.2116 -0.1339  0.0007
 4261TIP3    H112726   7.963   3.790   2.806 -0.8972  0.7033 -0.4681
 4261TIP3    H212727   7.971   3.638   2.809  1.3306  0.8085  0.1116
 4262TIP3   OH212728   7.410   4.589   2.350 -0.0177 -0.2338  0.5454
 4262TIP3    H112729   7.497   4.585   2.311 -0.4116 -1.1959 -0.2526
 4262TIP3    H212730   7.362   4.652   2.296 -0.3173 -0.9546 -0.0324
 4263TIP3   OH212731   8.133   1.753   1.232 -0.1505 -0.0058 -0.1886
 4263TIP3    H112732   8.134   1.798   1.147  1.4769  0.9004  0.2905
 4263TIP3    H212733   8.084   1.812   1.289 -1.7539 -0.8909 -0.6291
 4264TIP3   OH212734   1.869   5.331   2.425  0.1542 -0.3751 -0.6100
 4264TIP3    H112735   1.818   5.256   2.393 -0.1914 -0.2056 -0.4586
 4264TIP3    H212736   1.960   5.308   2.405  0.0155 -0.6603 -0.9221
 4265TIP3   OH212737   1.263   4.668   1.510  0.0897  0.2146  1.1427
 4265TIP3    H112738   1.173   4.655   1.479  0.0450 -1.4576  1.8823
 4265TIP3    H212739   1.296   4.742   1.459 -0.4741 -1.5246 -1.8714
 4266TIP3   OH212740   6.696   2.962   3.713  0.2626  0.1653  0.2608
 4266TIP3    H112741   6.721   2.930   3.799  1.2246 -2.1725 -0.8400
 4266TIP3    H212742   6.612   2.918   3.694  0.7228 -0.3957 -0.5290
 4267TIP3   OH212743   7.902   5.772   2.824 -0.4875 -0.3496  0.4031
 4267TIP3    H112744   7.891   5.867   2.834 -1.0781 -0.4912  1.1295
 4267TIP3    H212745   7.825   5.734   2.866  0.3296 -1.2004  1.1653
 4268TIP3   OH212746   6.493   7.965   2.082 -0.1074 -0.5876 -0.2804
 4268TIP3    H112747   6.531   7.879   2.063 -0.3379 -0.7089 -0.1932
 4268TIP3    H212748   6.568   8.025   2.080  0.3250 -1.0374  1.2479
 4269TIP3   OH212749   6.408   4.885   1.706 -0.8033  0.0114  0.6317
 4269TIP3    H112750   6.315   4.893   1.683 -1.2669 -2.4646  1.5431
 4269TIP3    H212751   6.411   4.906   1.800 -0.0999  2.1446  0.1635
 4270TIP3   OH212752   2.130   5.450   1.521 -0.3945 -0.8757  0.1077
 4270TIP3    H112753   2.146   5.509   1.447  2.8673 -0.4906  1.0408
 4270TIP3    H212754   2.074   5.381   1.486 -1.3502  0.8817 -1.9253
 4271TIP3   OH212755   8.472   6.084   1.501  0.6675  0.0662 -0.7405
 4271TIP3    H112756   8.399   6.027   1.479  0.8278  0.1172 -1.4316
 4271TIP3    H212757   8.468   6.154   1.435  0.6791  0.6617 -0.1105
 4272TIP3   OH212758   7.355   4.590   1.808 -0.2949 -0.5861 -0.0013
 4272TIP3    H112759   7.310   4.565   1.889 -1.9175  0.4770 -0.5426
 4272TIP3    H212760   7.294   4.565   1.738  0.9395 -1.1781 -0.8774
 4273TIP3   OH212761   6.445   3.830   2.814  0.2811 -0.1324  0.1807
 4273TIP3    H112762   6.432   3.736   2.801  1.0611 -0.1932 -0.1775
 4273TIP3    H212763   6.426   3.845   2.906 -0.6094 -0.5095  0.0638
 4274TIP3   OH212764   6.612   6.591   1.086  0.0201  0.7034  0.0678
 4274TIP3    H112765   6.642   6.548   1.006  0.2180  2.2364 -0.7149
 4274TIP3    H212766   6.691   6.633   1.122  0.1339 -0.7835  1.6093
 4275TIP3   OH212767   1.029   3.641   3.733  0.1056  0.1913 -0.0379
 4275TIP3    H112768   0.944   3.604   3.757  0.4171  0.5312  1.6189
 4275TIP3    H212769   1.015   3.735   3.734  0.5589  0.2552  0.4702
 4276TIP3   OH212770   8.257   4.812   1.493 -0.2101 -0.7517 -0.5152
 4276TIP3    H112771   8.306   4.841   1.570 -1.2905 -1.0031  0.2779
 4276TIP3    H212772   8.201   4.886   1.470 -0.5912 -1.0286 -0.4750
 4277TIP3   OH212773   1.193   2.170   4.163 -0.0565  0.2046  0.0579
 4277TIP3    H112774   1.273   2.222   4.166 -1.4433  2.4147 -0.2681
 4277TIP3    H212775   1.178   2.154   4.070 -1.0261  1.4709 -0.0170
 4278TIP3   OH212776   0.496   2.753   3.789  0.3178  0.4167  0.1006
 4278TIP3    H112777   0.407   2.787   3.785 -0.2538 -0.9169  1.1254
 4278TIP3    H212778   0.489   2.664   3.753  1.1066  0.0539  0.8388
 4279TIP3   OH212779   8.301   5.978   2.094 -0.0511  0.3160 -0.3929
 4279TIP3    H112780   8.396   5.963   2.097  0.0310  0.2185 -2.6800
 4279TIP3    H212781   8.279   6.009   2.182  1.8467 -1.0996  0.6071
 4280TIP3   OH212782   8.065   7.010   4.540 -0.1546  0.9866  0.3065
 4280TIP3    H112783   8.045   6.921   4.569 -3.0478  1.3547 -0.4735
 4280TIP3    H212784   8.067   7.061   4.621 -0.8949  0.6720  0.5208
 4281TIP3   OH212785   2.246   6.496   1.454 -0.0147  0.1299  0.3602
 4281TIP3    H112786   2.310   6.567   1.458 -1.8541  1.8442  0.2210
 4281TIP3    H212787   2.293   6.420   1.490  1.4125  1.8537  2.3087
 4282TIP3   OH212788   6.976   4.915   1.191  0.1515  0.7313  0.2340
 4282TIP3    H112789   7.019   4.911   1.105 -1.7901  0.0798 -0.7451
 4282TIP3    H212790   6.976   5.008   1.213  0.4569  0.9343 -0.6013
 4283TIP3   OH212791   1.146   2.039   3.894  0.2644  0.1345  0.3477
 4283TIP3    H112792   1.232   1.998   3.892  1.0643  1.8088 -1.9463
 4283TIP3    H212793   1.085   1.967   3.874  1.2519 -0.7565  0.4951
 4284TIP3   OH212794   7.669   4.673   2.606  0.8456 -0.3967  0.0592
 4284TIP3    H112795   7.580   4.671   2.642  0.6864 -0.2051 -0.3152
 4284TIP3    H212796   7.723   4.631   2.673  0.3331 -1.3248 -0.1002
 4285TIP3   OH212797   0.535   6.326   3.365 -0.7753 -0.5756 -0.4443
 4285TIP3    H112798   0.549   6.388   3.437  0.6743 -1.6953  0.2590
 4285TIP3    H212799   0.605   6.345   3.303 -0.5357 -1.2503 -0.3907
 4286TIP3   OH212800   1.673   4.927   0.712 -0.3614 -0.2363  0.5458
 4286TIP3    H112801   1.735   4.998   0.730  0.7704 -1.0836  0.1211
 4286TIP3    H212802   1.613   4.928   0.786 -1.2630  2.1016 -0.1729
 4287TIP3   OH212803   8.336   4.761   3.462  0.3447 -0.4816  0.6152
 4287TIP3    H112804   8.282   4.760   3.541  0.8391  0.3837  0.9765
 4287TIP3    H212805   8.351   4.854   3.445  0.8060 -0.6861 -0.1176
 4288TIP3   OH212806   7.204   5.328   2.759  0.3548 -0.0740  0.0624
 4288TIP3    H112807   7.219   5.423   2.752 -0.2579 -0.1083 -1.7292
 4288TIP3    H212808   7.109   5.319   2.759  0.4150 -0.7082  0.0909
 4289TIP3   OH212809   7.732   5.303   5.132 -0.0173  0.2194  0.1195
 4289TIP3    H112810   7.728   5.357   5.210  0.1540  1.6205 -0.8287
 4289TIP3    H212811   7.776   5.223   5.161 -0.0769  0.6652  1.4808
 4290TIP3   OH212812   7.873   4.275   3.565  0.1491 -0.0488  0.2787
 4290TIP3    H112813   7.892   4.287   3.658  0.3275 -0.0785  0.2478
 4290TIP3    H212814   7.824   4.193   3.560  1.2709 -0.7317  0.2123
 4291TIP3   OH212815   7.533   3.049   2.361  0.0471  0.3003  0.7660
 4291TIP3    H112816   7.567   2.975   2.310 -1.2783  0.3816 -0.2454
 4291TIP3    H212817   7.470   3.092   2.303  0.9122  2.3310  1.2798
 4292TIP3   OH212818   6.100   3.933   4.706 -0.0804  0.2774  0.1507
 4292TIP3    H112819   6.166   3.881   4.752  0.0233  0.2736 -0.0036
 4292TIP3    H212820   6.147   3.976   4.635 -0.5696 -1.1068 -1.0500
 4293TIP3   OH212821   8.068   2.990   4.180 -0.6779 -0.2140 -0.5807
 4293TIP3    H112822   8.135   2.953   4.122 -0.9215  0.3364 -1.2130
 4293TIP3    H212823   7.985   2.974   4.135 -0.8327  0.6027 -0.5895
 4294TIP3   OH212824   7.811   5.328   2.951 -0.6119  0.0714  0.0289
 4294TIP3    H112825   7.820   5.394   2.882 -1.2202  1.7913  1.5674
 4294TIP3    H212826   7.749   5.265   2.915 -1.2101  1.1455 -0.8759
 4295TIP3   OH212827   7.850   5.487   2.696 -0.3455 -0.3563 -0.0876
 4295TIP3    H112828   7.799   5.521   2.623 -0.9508 -0.3175  0.3449
 4295TIP3    H212829   7.931   5.538   2.695 -0.7810  0.3461 -0.1119
 4296TIP3   OH212830   1.108   4.279   4.165 -0.5290 -0.6477  0.4799
 4296TIP3    H112831   1.196   4.313   4.184  0.0302 -1.7831 -0.0213
 4296TIP3    H212832   1.073   4.340   4.100 -0.5354  0.4111  1.4491
 4297TIP3   OH212833   2.485   6.690   1.705  0.2722  0.1452  0.4449
 4297TIP3    H112834   2.427   6.742   1.760  1.0129  0.1924  1.1879
 4297TIP3    H212835   2.488   6.737   1.622  0.8585  1.2388  1.0789
 4298TIP3   OH212836   6.965   7.065   3.849 -0.2927 -0.7178 -0.0190
 4298TIP3    H112837   7.049   7.032   3.881 -0.1330 -0.6627 -0.3753
 4298TIP3    H212838   6.906   7.057   3.924  0.3669  0.4859  0.6385
 4299TIP3   OH212839   0.648   5.775   3.418 -0.6744 -0.0517  0.2217
 4299TIP3    H112840   0.617   5.834   3.349 -1.4850 -0.3522  0.3240
 4299TIP3    H212841   0.703   5.829   3.474  1.6680 -0.2427 -1.7824
 4300TIP3   OH212842   1.224   6.857   0.999 -0.0537  0.4478  0.5017
 4300TIP3    H112843   1.287   6.808   1.052 -1.1646 -1.0510  0.4553
 4300TIP3    H212844   1.146   6.863   1.053  0.3659  3.0753  0.9074
 4301TIP3   OH212845   0.054   5.932   2.042  0.3495  0.3744 -0.1759
 4301TIP3    H112846   0.115   5.929   1.969 -0.2260  1.8655 -0.7341
 4301TIP3    H212847   0.089   5.998   2.101  0.5464 -0.4695  0.6741
 4302TIP3   OH212848   0.956   4.813   5.234 -0.2562 -0.0119 -0.4845
 4302TIP3    H112849   0.981   4.721   5.240  0.1770  0.1161 -0.2726
 4302TIP3    H212850   0.861   4.812   5.236 -0.3447 -0.6256 -2.9292
 4303TIP3   OH212851   8.385   5.587   2.406 -0.0726  0.1223 -1.0550
 4303TIP3    H112852   8.461   5.537   2.436 -1.3645 -0.7710  0.7765
 4303TIP3    H212853   8.398   5.674   2.442 -0.6972 -0.4547  0.5818
 4304TIP3   OH212854   0.066   4.227   0.745 -0.3555  0.1472  0.0146
 4304TIP3    H112855   0.134   4.195   0.686 -1.7829 -1.5376 -0.7610
 4304TIP3    H212856   0.098   4.312   0.775  1.6110 -0.1720 -1.1168
 4305TIP3   OH212857   2.241   3.984   1.278 -0.3922 -0.2318 -0.3213
 4305TIP3    H112858   2.255   4.051   1.345 -1.6288  0.0407 -0.3258
 4305TIP3    H212859   2.147   3.966   1.281 -0.3015 -0.9213 -1.3099
 4306TIP3   OH212860   0.096   4.445   2.332 -0.3970 -0.1312 -0.1162
 4306TIP3    H112861   0.018   4.478   2.286 -0.8881  2.5685  2.4796
 4306TIP3    H212862   0.169   4.466   2.273 -1.1923  1.4777 -0.5563
 4307TIP3   OH212863   8.447   5.234   2.203  0.4332 -0.9313  0.2343
 4307TIP3    H112864   8.456   5.329   2.191 -1.6905 -0.7154  0.2627
 4307TIP3    H212865   8.428   5.201   2.115 -0.8355 -1.0809  0.5605
 4308TIP3   OH212866   8.351   4.413   4.416 -0.0604  0.1743  0.3299
 4308TIP3    H112867   8.418   4.402   4.484  0.4023 -1.0562 -0.3016
 4308TIP3    H212868   8.314   4.500   4.432  3.9465  2.3004 -1.2689
 4309TIP3   OH212869   2.007   4.974   2.182 -0.0264 -0.0499 -0.0012
 4309TIP3    H112870   1.994   5.061   2.143  0.2455 -0.7457 -1.7036
 4309TIP3    H212871   2.074   4.933   2.127  1.1577 -0.6922  1.8646
 4310TIP3   OH212872   8.484   4.075   2.053  0.3715  0.0869 -0.0514
 4310TIP3    H112873   8.476   4.154   2.000 -0.6418 -0.0283 -0.0908
 4310TIP3    H212874   8.465   4.103   2.142 -2.6140 -0.5540 -0.4215
 4311TIP3   OH212875   1.415   4.070   0.664  0.1829 -0.1623  0.1019
 4311TIP3    H112876   1.325   4.045   0.687  0.5536 -2.3371 -0.6614
 4311TIP3    H212877   1.408   4.160   0.633 -1.7585 -0.3594 -0.1138
 4312TIP3   OH212878   7.964   3.029   2.657 -0.9573  0.1350 -0.3241
 4312TIP3    H112879   7.879   2.985   2.659 -0.7020 -0.5478 -2.5580
 4312TIP3    H212880   8.026   2.963   2.689 -0.9466 -0.2197 -1.0615
 4313TIP3   OH212881   2.108   4.063   4.240  0.6310 -0.3204  0.3470
 4313TIP3    H112882   2.147   3.997   4.299  0.9904 -0.4278 -0.0102
 4313TIP3    H212883   2.061   4.122   4.299 -0.0358 -1.1241  0.6393
 4314TIP3   OH212884   7.465   4.211   2.659  0.6688  0.2732 -0.3936
 4314TIP3    H112885   7.441   4.185   2.569  0.9056 -1.0605 -0.0862
 4314TIP3    H212886   7.560   4.200   2.662  0.5432 -0.6370  0.3159
 4315TIP3   OH212887   6.438   1.724   6.453  0.4156 -0.1400 -0.0408
 4315TIP3    H112888   6.358   1.772   6.431 -0.9767 -2.3550  0.0370
 4315TIP3    H212889   6.477   1.702   6.369  0.6932  0.5283 -0.0884
 4316TIP3   OH212890   0.106   5.357   4.067 -0.0418  0.4904 -0.3308
 4316TIP3    H112891   0.112   5.289   4.134 -0.9367  1.4063  0.6971
 4316TIP3    H212892   0.182   5.341   4.011 -0.3477 -1.4716 -0.2370
 4317TIP3   OH212893   0.114   7.450   1.361  0.4768  0.3513 -0.2397
 4317TIP3    H112894   0.154   7.439   1.448 -0.1470 -0.0148  0.0057
 4317TIP3    H212895   0.117   7.544   1.345 -0.0599  0.5066  0.5037
 4318TIP3   OH212896   0.284   6.102   5.062  0.0451  0.2502  0.2117
 4318TIP3    H112897   0.318   6.179   5.018 -0.5582 -0.9826 -2.4881
 4318TIP3    H212898   0.192   6.099   5.036 -0.4683 -0.2651  1.9732
 4319TIP3   OH212899   0.271   3.638   2.337  0.2458  0.0685 -0.1195
 4319TIP3    H112900   0.226   3.560   2.304  0.0351 -0.2388  0.8735
 4319TIP3    H212901   0.364   3.621   2.321  0.1589 -0.1439 -0.4009
 4320TIP3   OH212902   7.750   5.361   6.628 -0.2739 -0.0792 -0.0386
 4320TIP3    H112903   7.719   5.431   6.571  0.4189  0.0540 -0.2633
 4320TIP3    H212904   7.715   5.383   6.714  0.3017  0.7920 -0.0152
 4321TIP3   OH212905   1.392   4.844   5.080  0.3799 -0.2233 -0.0102
 4321TIP3    H112906   1.347   4.761   5.098  0.6402 -0.3445  0.1020
 4321TIP3    H212907   1.382   4.895   5.160 -0.0195 -0.0343 -0.1803
 4322TIP3   OH212908   0.805   3.607   2.831  0.0059  0.2204  0.2103
 4322TIP3    H112909   0.827   3.690   2.788  0.6309 -0.0262  0.0462
 4322TIP3    H212910   0.820   3.541   2.763  0.3849 -0.1109  0.6186
 4323TIP3   OH212911   8.263   5.940   1.414  0.2523 -0.2189 -0.1843
 4323TIP3    H112912   8.244   5.861   1.363  0.2023  0.1216 -0.6974
 4323TIP3    H212913   8.179   5.983   1.424 -0.1529 -1.4909  2.2447
 4324TIP3   OH212914   0.454   2.968   2.120 -0.3977  0.3872 -0.1335
 4324TIP3    H112915   0.393   2.963   2.047 -1.7766 -0.3159  1.0275
 4324TIP3    H212916   0.522   2.904   2.099 -1.3236 -0.5435 -0.3288
 4325TIP3   OH212917   7.487   4.206   3.884  1.2998  0.0130 -0.3572
 4325TIP3    H112918   7.426   4.264   3.929  1.2170  0.0939 -0.5762
 4325TIP3    H212919   7.468   4.119   3.920  2.0051  0.2408  0.6087
 4326TIP3   OH212920   8.460   4.268   2.950 -0.1304 -0.0406  0.2668
 4326TIP3    H112921   8.537   4.212   2.955 -1.8481 -2.4991  0.1635
 4326TIP3    H212922   8.481   4.343   3.006  2.0751 -0.9682  0.7255
 4327TIP3   OH212923   3.231   5.201   1.199 -0.0760 -0.1382 -0.2001
 4327TIP3    H112924   3.314   5.208   1.247 -0.9889 -0.3018  1.4597
 4327TIP3    H212925   3.252   5.147   1.123  0.9844 -1.6469  1.1066
 4328TIP3   OH212926   0.923   3.868   2.741 -0.2672 -0.4752 -0.2422
 4328TIP3    H112927   0.985   3.941   2.743  1.1283 -1.6330  1.0651
 4328TIP3    H212928   0.847   3.899   2.790  0.6859 -0.1839  1.0896
 4329TIP3   OH212929   0.085   6.583   3.163 -0.3242  0.0857 -0.1293
 4329TIP3    H112930   0.125   6.604   3.078  0.8598 -0.5289  0.2788
 4329TIP3    H212931   0.158   6.570   3.222 -1.1346 -0.6401  0.7312
 4330TIP3   OH212932   7.998   6.232   2.086 -0.2280 -0.1435  0.2265
 4330TIP3    H112933   8.075   6.251   2.033 -0.2465  0.3208  0.3607
 4330TIP3    H212934   7.971   6.317   2.120  0.0567 -0.5061  1.3626
 4331TIP3   OH212935   0.129   4.772   1.807 -0.0351 -1.1715  1.0459
 4331TIP3    H112936   0.211   4.753   1.762 -0.6651 -1.3505 -0.0641
 4331TIP3    H212937   0.152   4.838   1.873  0.4044  1.3653 -1.5169
 4332TIP3   OH212938   2.531   3.696   1.018  0.2106 -0.2464 -0.6959
 4332TIP3    H112939   2.511   3.619   1.071 -0.0663 -0.2505 -0.8085
 4332TIP3    H212940   2.481   3.767   1.058  1.0821  0.0469 -0.1108
 4333TIP3   OH212941   1.511   6.742   0.866 -0.7337  0.4939  0.2956
 4333TIP3    H112942   1.468   6.709   0.786  0.1332 -1.3650  0.5661
 4333TIP3    H212943   1.604   6.730   0.850 -0.5399  0.3819  1.4602
 4334TIP3   OH212944   7.436   4.952   4.162  0.6690 -0.7443 -0.1784
 4334TIP3    H112945   7.424   4.944   4.067 -1.1798  1.6773 -0.1806
 4334TIP3    H212946   7.452   5.045   4.177 -1.6204 -0.6642  2.1556
 4335TIP3   OH212947   2.846   5.615   4.323 -0.0140 -0.1204  0.2862
 4335TIP3    H112948   2.873   5.703   4.295  0.4272  0.1982  1.6719
 4335TIP3    H212949   2.764   5.599   4.276  1.4958 -0.2675 -2.4231
 4336TIP3   OH212950   2.324   7.159   2.527 -0.1346  0.3618 -0.2349
 4336TIP3    H112951   2.375   7.079   2.541 -2.8393 -1.5527 -0.9526
 4336TIP3    H212952   2.343   7.184   2.437  0.3464  0.2507 -0.1666
 4337TIP3   OH212953   2.105   5.403   1.818  0.2093  0.1118 -0.3033
 4337TIP3    H112954   2.127   5.382   1.727 -1.0126  1.1535 -0.8558
 4337TIP3    H212955   2.010   5.413   1.818  0.3823  2.0277  0.6800
 4338TIP3   OH212956   8.400   5.833   4.427 -0.2043 -0.5955 -0.6608
 4338TIP3    H112957   8.352   5.751   4.412 -0.4428 -0.4967 -0.4466
 4338TIP3    H212958   8.489   5.815   4.397 -0.7302 -0.3164 -2.4762
 4339TIP3   OH212959   2.688   6.297   3.845  0.1770 -0.2566  0.6643
 4339TIP3    H112960   2.729   6.280   3.760  0.4303  2.2228  0.2459
 4339TIP3    H212961   2.740   6.368   3.883 -1.1425  0.0247  2.0093
 4340TIP3   OH212962   2.848   5.995   0.255 -0.1218  0.0053  0.2967
 4340TIP3    H112963   2.857   6.077   0.207 -0.0534 -1.1475 -1.6908
 4340TIP3    H212964   2.797   5.938   0.197 -0.8293 -1.1261  1.9614
 4341TIP3   OH212965   1.268   3.682   3.891  0.0052 -0.2198  0.1786
 4341TIP3    H112966   1.238   3.648   3.975 -0.8490 -2.7110 -1.0795
 4341TIP3    H212967   1.191   3.674   3.834  1.2286 -0.6752 -1.4272
 4342TIP3   OH212968   0.165   5.097   1.981 -0.4156  0.3095  0.0592
 4342TIP3    H112969   0.069   5.102   1.975 -0.3299  1.6759 -0.3510
 4342TIP3    H212970   0.191   5.183   2.015  0.6408 -0.1877  0.5118
 4343TIP3   OH212971   1.369   4.236   2.856  0.5437 -0.2555  0.0091
 4343TIP3    H112972   1.403   4.299   2.920 -1.8533 -0.1987  1.2907
 4343TIP3    H212973   1.335   4.291   2.785  0.4368 -0.1937  0.1077
 4344TIP3   OH212974   2.615   7.051   1.648  0.3242 -0.6148  0.4525
 4344TIP3    H112975   2.643   7.013   1.731  0.2059  0.5842  1.0597
 4344TIP3    H212976   2.636   7.144   1.656 -0.5693 -0.3223 -0.4795
 4345TIP3   OH212977   6.291   5.882   2.421  0.3746  0.7739 -0.1570
 4345TIP3    H112978   6.252   5.818   2.361  0.5480  0.5975 -0.0813
 4345TIP3    H212979   6.226   5.892   2.491 -0.3877  1.9225 -1.0110
 4346TIP3   OH212980   0.220   5.905   3.241 -0.5692 -0.1388 -0.3391
 4346TIP3    H112981   0.147   5.954   3.202 -0.4199 -0.2381 -0.7498
 4346TIP3    H212982   0.292   5.968   3.244  0.1625 -0.8316 -2.5439
 4347TIP3   OH212983   7.930   4.298   3.856 -0.2120 -0.2888  0.3246
 4347TIP3    H112984   7.952   4.374   3.909  0.0430  0.8205 -1.3279
 4347TIP3    H212985   7.898   4.233   3.919  2.6224  0.0046  2.1330
 4348TIP3   OH212986   1.191   3.531   2.240 -0.0124  0.6825 -0.6888
 4348TIP3    H112987   1.273   3.494   2.208  0.1523 -1.0211  1.5974
 4348TIP3    H212988   1.158   3.466   2.302 -0.8718  3.3589  1.7565
 4349TIP3   OH212989   1.717   6.301   1.365 -0.2965  0.3011 -0.0193
 4349TIP3    H112990   1.716   6.358   1.442 -2.5030  2.4206 -1.5378
 4349TIP3    H212991   1.692   6.358   1.292 -3.3859 -2.7076 -1.4949
 4350TIP3   OH212992   1.510   5.018   2.454  0.0035  0.4571  0.0545
 4350TIP3    H112993   1.599   5.041   2.427  0.1794  0.7694  0.9063
 4350TIP3    H212994   1.499   4.928   2.423 -0.0280  1.0259 -1.6329
 4351TIP3   OH212995   1.556   5.838   0.066  0.3037 -0.2542  0.4919
 4351TIP3    H112996   1.470   5.877   0.081 -0.0532 -0.8815  0.0911
 4351TIP3    H212997   1.570   5.780   0.141  0.9400  0.8201  1.2117
 4352TIP3   OH212998   1.299   4.070   5.160 -0.8054  0.1130  0.0894
 4352TIP3    H112999   1.261   3.999   5.107 -0.6103  0.3305 -0.3486
 4352TIP3    H213000   1.301   4.035   5.249  0.8042 -1.0801 -0.3732
 4353TIP3   OH213001   2.342   4.416   3.362 -0.4141  0.0977 -0.4806
 4353TIP3    H113002   2.369   4.447   3.275  0.6250  0.1208 -0.1588
 4353TIP3    H213003   2.422   4.422   3.415 -0.9515 -0.2750  0.3772
 4354TIP3   OH213004   7.692   5.039   2.958  0.2350 -0.0566  0.3921
 4354TIP3    H113005   7.652   5.023   3.043  0.6966 -1.1237  0.4199
 4354TIP3    H213006   7.773   4.988   2.959  0.4964  0.3208 -0.4927
 4355TIP3   OH213007   2.157   5.107   3.251 -0.1514 -0.4055  0.0691
 4355TIP3    H113008   2.113   5.045   3.310 -1.0032  0.5820  0.4912
 4355TIP3    H213009   2.162   5.061   3.167 -1.9453 -0.5755  0.0319
 4356TIP3   OH213010   2.989   4.145   3.325 -0.2704 -0.2079 -0.2469
 4356TIP3    H113011   3.038   4.140   3.407  0.7483 -0.6954 -0.8798
 4356TIP3    H213012   2.961   4.236   3.319 -0.2641 -0.1446  0.5860
 4357TIP3   OH213013   1.154   5.246   3.681  0.4331  0.5040  0.2291
 4357TIP3    H113014   1.170   5.258   3.587 -0.0794 -1.5890 -0.1370
 4357TIP3    H213015   1.071   5.198   3.685  0.7745  0.0448  1.7413
 4358TIP3   OH213016   3.812   4.881   5.565 -0.2530  0.3005 -0.4865
 4358TIP3    H113017   3.747   4.906   5.500 -0.2583  0.5625 -0.3809
 4358TIP3    H213018   3.889   4.856   5.515 -0.2793  0.4390 -0.5965
 4359TIP3   OH213019   2.738   4.061   1.161  0.3327  0.4066  0.0394
 4359TIP3    H113020   2.828   4.087   1.179  0.8389 -0.6982 -0.7596
 4359TIP3    H213021   2.736   3.967   1.181 -0.7431  0.5029  0.4110
 4360TIP3   OH213022   3.659   5.687   1.727  0.6891  0.1316 -0.0218
 4360TIP3    H113023   3.681   5.736   1.648 -0.5064  1.8344  0.6862
 4360TIP3    H213024   3.732   5.626   1.738  0.9957  0.0557 -2.2722
 4361TIP3   OH213025   1.436   5.340   2.997 -0.2313  0.2736  0.8322
 4361TIP3    H113026   1.356   5.354   3.048 -0.1488 -1.2280  1.3904
 4361TIP3    H213027   1.419   5.261   2.947  1.2514 -0.5938  1.6529
 4362TIP3   OH213028   2.531   4.243   1.096  0.1339  0.2211 -0.1946
 4362TIP3    H113029   2.572   4.329   1.107 -0.7910  0.6831 -0.2703
 4362TIP3    H213030   2.600   4.180   1.119  0.9476  0.9667 -0.5650
 4363TIP3   OH213031   3.720   6.652   1.665 -0.4290 -0.4412  0.4139
 4363TIP3    H113032   3.743   6.559   1.672 -0.8565 -0.6513 -0.8334
 4363TIP3    H213033   3.785   6.688   1.604 -1.4732 -0.3596 -0.6689
 4364TIP3   OH213034   2.089   5.677   3.055 -0.6636 -0.1455 -0.2953
 4364TIP3    H113035   2.027   5.607   3.035 -1.4914  0.7917 -1.0666
 4364TIP3    H213036   2.162   5.633   3.098 -1.6886 -1.3242  0.2642
 4365TIP3   OH213037   1.554   5.990   3.303 -0.4769 -0.2382 -0.2686
 4365TIP3    H113038   1.567   5.952   3.216  0.6485 -1.9768  0.6298
 4365TIP3    H213039   1.462   5.974   3.323 -0.7135  0.0745 -1.0760
 4366TIP3   OH213040   1.470   7.354   1.010 -0.4313 -0.1929 -0.4791
 4366TIP3    H113041   1.423   7.273   0.990  1.0577 -1.3432  0.5807
 4366TIP3    H213042   1.526   7.332   1.084 -0.6106  2.0425  0.3546
 4367TIP3   OH213043   2.909   6.420   2.379 -0.0926 -0.0088  0.3204
 4367TIP3    H113044   2.844   6.404   2.448  1.2533  0.5650  1.7585
 4367TIP3    H213045   2.982   6.362   2.402 -0.2995 -1.0639 -1.5920
 4368TIP3   OH213046   4.395   0.350   4.274  0.4361 -0.7067 -0.0951
 4368TIP3    H113047   4.469   0.292   4.290  1.6667  1.4310  2.3979
 4368TIP3    H213048   4.329   0.323   4.338 -0.5393 -1.8778 -1.5659
 4369TIP3   OH213049   0.809   6.088   3.028 -0.2423 -0.4216  0.4133
 4369TIP3    H113050   0.831   6.027   2.957  3.6816  1.1659  0.1329
 4369TIP3    H213051   0.818   6.037   3.108  0.6215 -0.8751  0.0333
 4370TIP3   OH213052   1.203   5.673   5.065  0.2807  0.2211  0.3844
 4370TIP3    H113053   1.117   5.716   5.067  1.2682  2.2297  0.3303
 4370TIP3    H213054   1.234   5.678   5.155  0.3419 -0.5136  0.4047
 4371TIP3   OH213055   1.579   4.223   1.557  0.5088 -0.1408 -0.4239
 4371TIP3    H113056   1.551   4.306   1.519 -0.5476 -1.1228 -1.8601
 4371TIP3    H213057   1.674   4.230   1.563  0.5426  0.7043 -1.6997
 4372TIP3   OH213058   0.417   5.793   3.565  0.0973  0.3183  0.2230
 4372TIP3    H113059   0.488   5.737   3.536  1.3056  3.2634 -2.8334
 4372TIP3    H213060   0.440   5.817   3.655  2.0928 -0.1080 -0.1651
 4373TIP3   OH213061   1.923   7.576   0.837  0.2141  0.5259 -0.3982
 4373TIP3    H113062   1.895   7.498   0.885  2.1485  0.7608  1.1861
 4373TIP3    H213063   1.892   7.562   0.748 -1.7984 -0.8089  0.4756
 4374TIP3   OH213064   3.163   5.987   3.966  0.1683 -0.5719  0.5479
 4374TIP3    H113065   3.152   6.006   4.059  0.1477 -0.2860  0.4862
 4374TIP3    H213066   3.080   6.012   3.926  0.3938 -0.1210  0.3594
 4375TIP3   OH213067   2.911   4.841   2.976  0.3530 -0.0593  0.4516
 4375TIP3    H113068   2.841   4.839   3.041  1.1955  1.2954  1.4227
 4375TIP3    H213069   2.935   4.749   2.963  0.0039 -0.3587  1.8660
 4376TIP3   OH213070   0.302   6.929   1.828  0.2348  0.2978  0.3674
 4376TIP3    H113071   0.321   6.962   1.740  0.5540  1.0748  0.7295
 4376TIP3    H213072   0.321   6.835   1.823 -2.0734 -0.1345 -1.0814
 4377TIP3   OH213073   3.314   7.051   1.507  0.2853 -0.2052  0.7984
 4377TIP3    H113074   3.237   6.994   1.503  1.6216 -2.0640  0.7543
 4377TIP3    H213075   3.376   7.003   1.562  2.0565  0.4450 -0.5944
 4378TIP3   OH213076   8.076   5.026   4.264 -0.5724 -0.3450  0.4918
 4378TIP3    H113077   8.086   4.932   4.273  2.0249 -0.1842 -0.1710
 4378TIP3    H213078   8.003   5.037   4.203  1.4301 -2.0469 -2.3455
 4379TIP3   OH213079   2.107   5.410   3.637 -0.3465 -0.4083 -0.7048
 4379TIP3    H113080   2.158   5.336   3.671 -1.9325 -0.9005  0.6561
 4379TIP3    H213081   2.165   5.452   3.573  0.9804 -2.1677 -0.6792
 4380TIP3   OH213082   2.898   6.826   3.759 -0.2771  0.3092  0.3446
 4380TIP3    H113083   2.917   6.757   3.695  0.0544  1.1063 -0.4300
 4380TIP3    H213084   2.834   6.787   3.818 -0.3068 -0.5689 -0.2568
 4381TIP3   OH213085   8.324   6.924   4.563 -0.4013  0.3063  0.1156
 4381TIP3    H113086   8.236   6.951   4.537 -0.2060  0.6570 -0.1771
 4381TIP3    H213087   8.324   6.829   4.553 -1.1256  0.1740  1.2616
 4382TIP3   OH213088   1.414   7.443   0.761  0.0193  0.1290  0.2809
 4382TIP3    H113089   1.491   7.499   0.770  1.8913 -1.9345 -2.3528
 4382TIP3    H213090   1.417   7.386   0.838  0.7003  0.5190  0.5503
 4383TIP3   OH213091   7.855   5.975   2.231  0.9855 -0.1092  0.2246
 4383TIP3    H113092   7.939   5.935   2.251 -0.0162 -1.3479  2.0645
 4383TIP3    H213093   7.869   6.068   2.247  1.2870 -0.6136  3.1549
 4384TIP3   OH213094   3.846   5.318   1.068  0.1447  0.1930  0.1160
 4384TIP3    H113095   3.803   5.315   1.153 -0.8709 -0.9907 -0.4316
 4384TIP3    H213096   3.836   5.409   1.039 -0.6631  0.2845  0.6645
 4385TIP3   OH213097   3.308   5.299   3.052  0.4173  0.1898 -0.1224
 4385TIP3    H113098   3.369   5.373   3.054 -0.0680  0.6227 -1.0736
 4385TIP3    H213099   3.307   5.267   3.142  0.2603  1.6550  0.4148
 4386TIP3   OH213100   2.020   4.335   3.868  0.3083  0.4217 -0.1291
 4386TIP3    H113101   2.059   4.270   3.810 -2.3719  0.1645 -1.7203
 4386TIP3    H213102   2.027   4.418   3.820 -1.9275  0.2072 -0.9063
 4387TIP3   OH213103   3.889   0.042   3.828 -0.4606  0.3890 -0.0626
 4387TIP3    H113104   3.921   0.099   3.758 -0.1810 -1.4524 -1.4713
 4387TIP3    H213105   3.821   0.094   3.872  0.3339  2.0894 -0.7912
 4388TIP3   OH213106   8.142   6.952   1.986 -0.8542  0.3275  0.1344
 4388TIP3    H113107   8.048   6.968   1.996 -1.0008 -1.5808  2.2832
 4388TIP3    H213108   8.164   6.894   2.059  1.9755  0.6376 -0.4253
 4389TIP3   OH213109   1.747   5.932   2.028 -0.4781 -0.3048  0.2838
 4389TIP3    H113110   1.760   5.989   1.952 -1.5716 -0.0416  0.2861
 4389TIP3    H213111   1.751   5.991   2.103  0.0989 -0.4921  0.4024
 4390TIP3   OH213112   3.058   4.569   4.748 -0.3330 -0.2815 -0.2973
 4390TIP3    H113113   3.106   4.512   4.688 -0.5243 -0.1159 -0.6069
 4390TIP3    H213114   2.982   4.597   4.698 -0.1355  0.4078 -0.2091
 4391TIP3   OH213115   3.196   4.575   2.798  0.2210 -0.2581  0.1883
 4391TIP3    H113116   3.235   4.641   2.855 -0.0060  1.3672 -1.5192
 4391TIP3    H213117   3.200   4.494   2.850  2.8163  0.5379  1.3223
 4392TIP3   OH213118   2.763   6.869   1.097 -0.0398 -0.2538  0.6609
 4392TIP3    H113119   2.813   6.911   1.168 -0.1200 -0.1686  0.6675
 4392TIP3    H213120   2.811   6.788   1.079  0.6781  0.3077 -0.0132
 4393TIP3   OH213121   0.918   7.122   6.644  0.3505 -0.2871 -0.2067
 4393TIP3    H113122   0.936   7.184   6.573 -0.5137  0.9755  0.6470
 4393TIP3    H213123   0.997   7.125   6.699 -0.0506  0.7733  0.3294
 4394TIP3   OH213124   3.628   6.398   2.184  0.4641 -0.1021 -0.2933
 4394TIP3    H113125   3.585   6.323   2.143  2.1173 -0.1779 -1.9472
 4394TIP3    H213126   3.710   6.407   2.137  0.8126  2.0357  0.6710
 4395TIP3   OH213127   0.390   4.711   2.546  0.2788 -0.1955 -0.1257
 4395TIP3    H113128   0.380   4.622   2.511 -0.2150  0.1385 -0.8302
 4395TIP3    H213129   0.301   4.736   2.573  0.2007  0.5757 -1.0973
 4396TIP3   OH213130   3.365   4.453   3.460  0.2447  0.2966  0.5479
 4396TIP3    H113131   3.458   4.474   3.451  0.6072 -0.9883  1.1385
 4396TIP3    H213132   3.349   4.455   3.555  0.2035 -1.5761  0.6112
 4397TIP3   OH213133   2.277   3.881   3.620 -0.5835 -0.2776 -0.4956
 4397TIP3    H113134   2.207   3.849   3.676 -0.3113  0.7363  0.4223
 4397TIP3    H213135   2.233   3.917   3.543 -1.0521  0.1083 -0.0460
 4398TIP3   OH213136   7.983   4.383   1.072  0.0421 -0.3327 -0.3718
 4398TIP3    H113137   8.022   4.321   1.133  0.6339 -0.3740 -0.7841
 4398TIP3    H213138   7.916   4.428   1.123  0.6543 -0.2346  0.3576
 4399TIP3   OH213139   2.926   5.603  -0.013  0.3018 -0.2494  0.5476
 4399TIP3    H113140   2.945   5.660   0.060 -0.6008  0.3664  0.3168
 4399TIP3    H213141   2.887   5.525   0.027 -0.3919  0.1768  0.7244
 4400TIP3   OH213142   1.780   2.849   3.951 -0.3415 -0.4661  0.0880
 4400TIP3    H113143   1.844   2.885   3.890  0.3349 -2.8208 -0.6381
 4400TIP3    H213144   1.823   2.853   4.036  0.6282 -1.6241 -0.3297
 4401TIP3   OH213145   2.974   6.361   2.034  0.1767  0.1428  0.0882
 4401TIP3    H113146   2.957   6.446   2.074  0.6611  0.6673 -0.7891
 4401TIP3    H213147   3.060   6.335   2.068 -0.6019 -0.6827  1.4777
 4402TIP3   OH213148   8.100   5.620   2.685  0.2772  0.0475 -0.8089
 4402TIP3    H113149   8.049   5.687   2.730  1.0402 -0.7128  1.2200
 4402TIP3    H213150   8.115   5.656   2.597 -0.2227  2.0553 -0.0912
 4403TIP3   OH213151   0.912   6.367   3.365  0.6008 -0.8168  0.4696
 4403TIP3    H113152   0.852   6.439   3.382  0.3306 -0.3319 -2.2840
 4403TIP3    H213153   0.994   6.393   3.407  0.7583  1.5310 -1.2186
 4404TIP3   OH213154   2.754   5.560   1.361  0.0830 -0.2733 -0.4704
 4404TIP3    H113155   2.820   5.585   1.297 -0.1059 -0.6311 -0.8054
 4404TIP3    H213156   2.683   5.521   1.309 -1.1031  1.5560 -0.2994
 4405TIP3   OH213157   8.143   4.660   1.267  0.5468  0.4893 -0.5804
 4405TIP3    H113158   8.211   4.639   1.203  0.2686 -1.7450 -0.1765
 4405TIP3    H213159   8.191   4.688   1.345  1.0216 -1.1893 -0.2571
 4406TIP3   OH213160   2.317   7.610   1.542  0.0224 -0.1215  0.1712
 4406TIP3    H113161   2.366   7.625   1.623 -0.7859  0.8366  0.4862
 4406TIP3    H213162   2.291   7.697   1.513  0.8622 -0.4079 -1.4775
 4407TIP3   OH213163   0.007   4.923   5.217 -0.1989 -0.2099  0.1713
 4407TIP3    H113164  -0.066   4.934   5.156  0.1409  0.8480 -0.0549
 4407TIP3    H213165   0.076   4.980   5.183  0.2085 -0.0605  1.2242
 4408TIP3   OH213166   8.188   5.679   2.103  0.0834  0.0135 -0.3847
 4408TIP3    H113167   8.271   5.677   2.055  0.4110 -1.3144  0.2039
 4408TIP3    H213168   8.188   5.764   2.146  1.1867  0.0013 -0.3240
 4409TIP3   OH213169   8.271   5.016   1.157 -0.6376 -0.1937 -0.5243
 4409TIP3    H113170   8.197   4.991   1.101  0.1442  0.9494 -2.0974
 4409TIP3    H213171   8.347   4.976   1.115 -0.1421  0.0202  0.1704
 4410TIP3   OH213172   7.181   2.522   3.351  0.5194 -0.0897 -0.3529
 4410TIP3    H113173   7.150   2.505   3.440 -1.1190 -0.2130 -0.9299
 4410TIP3    H213174   7.183   2.617   3.343  2.1693 -0.0513  0.3101
 4411TIP3   OH213175   1.606   6.633   3.238 -0.1027 -0.5387  0.2472
 4411TIP3    H113176   1.575   6.543   3.236  0.2231 -0.6765  1.2237
 4411TIP3    H213177   1.573   6.672   3.157  0.3769 -1.7355 -0.5414
 4412TIP3   OH213178   3.003   5.810   4.222  0.3367 -0.1286 -0.8448
 4412TIP3    H113179   3.060   5.886   4.230  0.3554 -0.0298 -1.8610
 4412TIP3    H213180   3.037   5.762   4.146 -1.2972  0.2593 -1.8438
 4413TIP3   OH213181   2.198   3.628   1.323 -0.0496 -0.1005 -0.7850
 4413TIP3    H113182   2.217   3.550   1.374  0.1902 -0.2330 -1.0739
 4413TIP3    H213183   2.281   3.676   1.321 -0.0187 -0.1676 -1.1696
 4414TIP3   OH213184   1.652   6.182   3.916 -0.5009 -0.1708  0.2131
 4414TIP3    H113185   1.666   6.181   4.010 -0.5600  0.3023  0.2262
 4414TIP3    H213186   1.674   6.093   3.888  2.0042  0.3732  0.3059
 4415TIP3   OH213187   3.327   6.422   1.893  0.4418  0.0839 -0.7697
 4415TIP3    H113188   3.276   6.347   1.864  1.4271 -1.0473  0.3736
 4415TIP3    H213189   3.389   6.386   1.957  1.4849  1.7221 -0.8261
 4416TIP3   OH213190   1.840   4.328   4.703  0.1867 -0.3621 -0.2436
 4416TIP3    H113191   1.923   4.328   4.750  0.0160 -0.1574  0.0581
 4416TIP3    H213192   1.775   4.303   4.768  0.0747 -0.9681 -0.5907
 4417TIP3   OH213193   3.845   4.461   1.813  0.9182 -0.1144 -0.4403
 4417TIP3    H113194   3.804   4.537   1.773  2.3978  0.0860 -1.6151
 4417TIP3    H213195   3.846   4.481   1.907  0.4771  0.9070 -0.6479
 4418TIP3   OH213196   0.300   5.329   5.031  0.2768  0.6228 -0.2483
 4418TIP3    H113197   0.337   5.244   5.008 -1.1078 -0.4875  1.5234
 4418TIP3    H213198   0.225   5.340   4.972  0.1232  0.3527 -0.1048
 4419TIP3   OH213199   1.524   4.623   4.169  0.2274  0.7361  0.0663
 4419TIP3    H113200   1.582   4.627   4.093  2.2864  0.7390  1.5986
 4419TIP3    H213201   1.583   4.620   4.245 -1.7727  1.1733  1.6973
 4420TIP3   OH213202   3.571   4.588   3.734  0.2004 -0.6267  0.6287
 4420TIP3    H113203   3.640   4.625   3.679  1.0118 -2.9930 -0.0104
 4420TIP3    H213204   3.568   4.496   3.709 -3.0440 -0.6082  0.8366
 4421TIP3   OH213205   0.571   5.425   2.015 -0.0391  0.0411 -0.7498
 4421TIP3    H113206   0.558   5.339   2.054  3.1258 -0.2738 -0.2303
 4421TIP3    H213207   0.565   5.410   1.920  0.4938 -0.7732 -0.6598
 4422TIP3   OH213208   3.401   6.790   3.003  0.3941  0.0703  0.3996
 4422TIP3    H113209   3.327   6.820   3.057 -1.0477 -0.2686 -1.3115
 4422TIP3    H213210   3.445   6.724   3.056 -1.9946 -1.4833  0.5396
 4423TIP3   OH213211   2.018   3.993   3.118  0.3267 -0.7738  0.4574
 4423TIP3    H113212   2.022   4.087   3.139 -1.0431 -0.5601 -0.2090
 4423TIP3    H213213   2.107   3.971   3.090 -0.1228  1.1220 -2.6800
 4424TIP3   OH213214   3.211   5.330   2.617 -0.0461 -0.0529 -0.0435
 4424TIP3    H113215   3.151   5.385   2.567 -0.7810 -2.1829 -1.5735
 4424TIP3    H213216   3.263   5.284   2.551  2.7077  1.1039  1.2403
 4425TIP3   OH213217   8.139   6.916   1.350  0.5232 -0.4664  0.0626
 4425TIP3    H113218   8.073   6.907   1.282 -0.0507 -0.4922  0.6278
 4425TIP3    H213219   8.165   7.008   1.348 -0.0355 -0.3032  0.3165
 4426TIP3   OH213220   7.859   0.866   6.770  0.2966  0.4328  0.0520
 4426TIP3    H113221   7.894   0.793   6.821 -0.4566  0.1414  0.1742
 4426TIP3    H213222   7.905   0.943   6.802  1.1423  0.0045 -0.1143
 4427TIP3   OH213223   3.435   7.292   0.933  0.0973  0.0221 -0.1329
 4427TIP3    H113224   3.527   7.297   0.907 -0.2134  1.6939 -1.0153
 4427TIP3    H213225   3.434   7.321   1.024  0.6795 -1.9714  0.5407
 4428TIP3   OH213226   1.612   5.669   3.753  0.4493 -0.2211  0.3522
 4428TIP3    H113227   1.541   5.606   3.740  2.4476 -2.8889  1.7506
 4428TIP3    H213228   1.617   5.717   3.670 -1.6826 -1.3062 -0.4527
 4429TIP3   OH213229   3.960   6.273   3.971  0.3275  0.3184 -0.8488
 4429TIP3    H113230   4.008   6.353   3.949  0.5190  0.7427  1.0415
 4429TIP3    H213231   3.891   6.303   4.031  1.1324 -1.0852  0.8229
 4430TIP3   OH213232   3.770   5.826   1.461 -0.3659 -0.0151 -1.3200
 4430TIP3    H113233   3.827   5.853   1.533 -1.3454 -0.0336 -0.5288
 4430TIP3    H213234   3.812   5.862   1.383 -0.5428  2.0273 -0.5036
 4431TIP3   OH213235   2.222   5.045   4.972  0.3213  0.5835 -0.1599
 4431TIP3    H113236   2.262   5.132   4.973 -0.5168  0.9893  2.4310
 4431TIP3    H213237   2.156   5.049   5.041 -0.7948 -1.6374 -1.0525
 4432TIP3   OH213238   2.343   7.058   3.445  1.0202  0.1900  0.4063
 4432TIP3    H113239   2.301   7.068   3.530 -0.0701 -1.9972  0.1667
 4432TIP3    H213240   2.329   7.142   3.401 -5.1836 -1.0734 -0.5375
 4433TIP3   OH213241   2.311   4.872   4.128 -0.4062 -0.3177 -0.0407
 4433TIP3    H113242   2.328   4.782   4.099  0.0892 -0.3461  0.3338
 4433TIP3    H213243   2.382   4.923   4.088 -2.6534  0.4859 -3.1815
 4434TIP3   OH213244   0.601   5.826   4.437 -0.4610  0.2447 -0.0737
 4434TIP3    H113245   0.565   5.871   4.513  0.7730  1.0323  0.0651
 4434TIP3    H213246   0.626   5.740   4.470 -0.0536  0.5373  0.3926
 4435TIP3   OH213247   2.474   5.228   3.959  0.1501 -0.0117  0.2895
 4435TIP3    H113248   2.443   5.154   3.908 -2.4366  1.0288  0.2946
 4435TIP3    H213249   2.544   5.266   3.906  1.3762 -2.2944  0.2055
 4436TIP3   OH213250   0.156   4.880   3.496 -0.6181  0.1474  0.0227
 4436TIP3    H113251   0.107   4.804   3.465  1.1695 -0.7780 -0.6587
 4436TIP3    H213252   0.121   4.899   3.583 -1.3612 -1.1867  0.0173
 4437TIP3   OH213253   8.117   5.316   2.175  0.1998 -0.4017  0.2162
 4437TIP3    H113254   8.071   5.234   2.196  1.3454 -0.9687  0.5163
 4437TIP3    H213255   8.165   5.338   2.255  0.0988  0.4431  0.0538
 4438TIP3   OH213256   3.510   6.383   3.380  0.5746  0.6932  0.5383
 4438TIP3    H113257   3.545   6.356   3.465  0.5157  0.2876  0.4350
 4438TIP3    H213258   3.416   6.365   3.387  0.5032  1.0776  0.5488
 4439TIP3   OH213259   8.132   4.943   2.570 -0.0639  0.5439 -0.1939
 4439TIP3    H113260   8.222   4.974   2.555  1.1629 -1.1876  3.1477
 4439TIP3    H213261   8.104   4.989   2.650 -1.2211 -0.8112  0.1871
 4440TIP3   OH213262   1.624   4.367   4.529 -0.3409  0.0532 -0.3871
 4440TIP3    H113263   1.665   4.356   4.443 -0.7025 -0.6775 -0.4773
 4440TIP3    H213264   1.692   4.342   4.592 -0.3814 -0.3708 -0.5058
 4441TIP3   OH213265   1.430   4.123   3.476 -0.2752 -0.7236  0.3808
 4441TIP3    H113266   1.343   4.153   3.449 -0.0301 -1.4900 -1.3707
 4441TIP3    H213267   1.484   4.203   3.475 -0.8135 -0.3519  0.8551
 4442TIP3   OH213268   2.099   4.616   4.777 -0.6486  0.1439  0.1566
 4442TIP3    H113269   2.084   4.710   4.769 -0.3120  0.4731  2.8888
 4442TIP3    H213270   2.131   4.589   4.691 -0.5694  2.5572 -0.5956
 4443TIP3   OH213271   1.428   5.501   3.675 -0.0962  0.0405 -0.4944
 4443TIP3    H113272   1.380   5.467   3.599 -0.2320 -0.3939 -0.2139
 4443TIP3    H213273   1.486   5.429   3.701 -2.1769 -0.9136  1.6581
 4444TIP3   OH213274   7.725   3.356   2.862 -0.0090 -0.6385  0.2741
 4444TIP3    H113275   7.809   3.358   2.815 -0.4230  0.5594 -0.4445
 4444TIP3    H213276   7.665   3.313   2.801 -0.3172  0.0530  0.0802
 4445TIP3   OH213277   1.497   7.029   3.415 -0.1783  0.3080 -0.0803
 4445TIP3    H113278   1.533   6.999   3.331 -0.6237  1.0190 -0.5363
 4445TIP3    H213279   1.458   6.951   3.453  1.6097 -0.4256  0.3097
 4446TIP3   OH213280   0.652   4.535   2.233  0.2447  0.0324  0.0594
 4446TIP3    H113281   0.693   4.470   2.291 -0.1941  0.1012  0.4549
 4446TIP3    H213282   0.725   4.588   2.201  0.5051 -0.0555  0.4964
 4447TIP3   OH213283   3.299   4.267   1.802 -0.0882  0.4290 -0.4215
 4447TIP3    H113284   3.225   4.220   1.839  0.8841 -0.8502 -0.0535
 4447TIP3    H213285   3.358   4.281   1.876 -0.2103  1.9030 -0.6078
 4448TIP3   OH213286   4.559   3.250   0.905  0.3671 -0.0805  0.5696
 4448TIP3    H113287   4.485   3.198   0.874 -0.1853  0.6331  0.6661
 4448TIP3    H213288   4.525   3.294   0.983  1.9059 -2.3102  2.5400
 4449TIP3   OH213289   0.856   5.532   2.372  0.5061  0.1283  0.2297
 4449TIP3    H113290   0.823   5.442   2.373 -0.5795  0.5113 -0.7497
 4449TIP3    H213291   0.780   5.586   2.394  1.0123  0.8509  0.2202
 4450TIP3   OH213292   3.386   7.084   1.219 -0.1175 -0.3949  0.3754
 4450TIP3    H113293   3.389   7.096   1.314 -0.6795  1.9725  0.1128
 4450TIP3    H213294   3.309   7.029   1.204 -0.1406 -0.6079  1.2668
 4451TIP3   OH213295   7.943   5.333   1.919  0.2094  0.3098  0.3890
 4451TIP3    H113296   7.985   5.328   2.005 -1.6690  2.9458  1.5368
 4451TIP3    H213297   8.002   5.387   1.867  1.6216 -1.7361 -0.2060
 4452TIP3   OH213298   0.647   4.825   2.080 -0.0765  0.6584 -0.2027
 4452TIP3    H113299   0.736   4.838   2.112  0.5795  0.2202 -1.8072
 4452TIP3    H213300   0.599   4.792   2.156  1.4720 -0.4957  0.2924
 4453TIP3   OH213301   8.247   4.660   4.453 -0.1351 -0.4563  0.0896
 4453TIP3    H113302   8.312   4.728   4.435 -0.5382  0.8517  3.2957
 4453TIP3    H213303   8.170   4.686   4.402 -0.4395  1.7712  1.6507
 4454TIP3   OH213304   8.205   6.357   2.410  0.2363  0.0437 -0.1511
 4454TIP3    H113305   8.223   6.264   2.422  0.4142 -0.2484 -2.4938
 4454TIP3    H213306   8.114   6.368   2.435 -1.1013 -1.6234 -3.9939
 4455TIP3   OH213307   1.883   6.496   1.225 -0.3343 -0.1205  0.1148
 4455TIP3    H113308   1.888   6.472   1.132  0.2077  0.5529 -0.0343
 4455TIP3    H213309   1.948   6.440   1.267 -0.7879 -0.6355  0.1360
 4456TIP3   OH213310   2.352   6.916   1.825 -0.5867  0.2856 -0.1014
 4456TIP3    H113311   2.352   6.938   1.732 -0.8708  1.9156  0.2576
 4456TIP3    H213312   2.402   6.987   1.866  0.0528 -0.7448  0.9140
 4457TIP3   OH213313   1.004   7.186   2.078  0.2197 -0.1396 -0.0488
 4457TIP3    H113314   1.033   7.185   1.987  0.7867  0.3790  0.1198
 4457TIP3    H213315   1.029   7.273   2.110 -0.2957 -0.1906  0.4999
 4458TIP3   OH213316   5.095  -0.000   2.522 -0.0060 -0.6056 -0.2872
 4458TIP3    H113317   5.075   0.091   2.503 -0.4913 -1.3019 -3.4335
 4458TIP3    H213318   5.182  -0.013   2.485  0.2383 -1.2854  0.5353
 4459TIP3   OH213319   8.396   5.138   1.937  0.9742  0.1700 -0.1838
 4459TIP3    H113320   8.320   5.111   1.989  0.3861 -1.5096 -1.8588
 4459TIP3    H213321   8.371   5.221   1.898 -0.3795 -0.8278 -1.4743
 4460TIP3   OH213322   0.730   5.334   4.036 -0.3540  0.4429 -0.4060
 4460TIP3    H113323   0.786   5.256   4.037 -0.3993  0.4048 -0.8398
 4460TIP3    H213324   0.655   5.309   3.982  0.2088  1.1960 -1.5410
 4461TIP3   OH213325   1.200   4.711   2.919 -0.0156  0.6127  0.5962
 4461TIP3    H113326   1.124   4.728   2.974 -1.0215 -0.8412 -0.3185
 4461TIP3    H213327   1.192   4.775   2.848 -2.4986 -1.9594 -1.5527
 4462TIP3   OH213328   0.355   7.055   2.989  0.1995  0.7978 -0.5622
 4462TIP3    H113329   0.265   7.085   2.977 -0.5563 -1.7743 -1.6512
 4462TIP3    H213330   0.400   7.085   2.909  0.0778  1.2408 -0.4664
 4463TIP3   OH213331   0.157   5.784   3.938 -0.1538  0.4045  0.6697
 4463TIP3    H113332   0.176   5.855   3.878 -0.3508 -0.3353 -0.2772
 4463TIP3    H213333   0.232   5.725   3.930 -0.5626 -0.1003  0.5475
 4464TIP3   OH213334   0.899   3.923   3.825 -0.2254 -0.1669 -0.1056
 4464TIP3    H113335   0.830   3.965   3.775 -1.4534  1.1290  2.5927
 4464TIP3    H213336   0.975   3.980   3.813 -0.7740  0.6573  0.2652
 4465TIP3   OH213337   1.506   3.595   4.162 -0.1537 -0.0797  0.5119
 4465TIP3    H113338   1.419   3.619   4.131 -0.4891  0.1804  1.6214
 4465TIP3    H213339   1.490   3.551   4.245  0.7105 -0.9498  0.2156
 4466TIP3   OH213340   8.348   5.329   1.494  0.7577 -0.3316 -0.7124
 4466TIP3    H113341   8.351   5.311   1.588 -0.6422  0.1315 -0.5706
 4466TIP3    H213342   8.371   5.421   1.486  3.1579 -0.9277 -1.0345
 4467TIP3   OH213343   1.027   6.542   3.758 -0.3670 -0.2156  0.2132
 4467TIP3    H113344   0.952   6.495   3.722 -1.6318  1.7083  0.2777
 4467TIP3    H213345   1.064   6.482   3.823 -1.8152 -1.2075  0.1373
 4468TIP3   OH213346   7.524   4.795   1.836 -0.5745  0.3496 -0.5483
 4468TIP3    H113347   7.451   4.741   1.806  0.4001 -0.9087 -0.6952
 4468TIP3    H213348   7.570   4.820   1.755 -1.5879  2.2317 -0.5586
 4469TIP3   OH213349   1.623   5.494   4.889 -0.0018  0.5770  0.1718
 4469TIP3    H113350   1.594   5.484   4.980 -0.8170 -1.0680 -0.2356
 4469TIP3    H213351   1.564   5.559   4.852 -2.4629 -1.8151 -0.2961
 4470TIP3   OH213352   3.530   0.148   2.573  0.0224  0.3092  0.0837
 4470TIP3    H113353   3.563   0.059   2.561 -0.3680  0.0214  1.1083
 4470TIP3    H213354   3.472   0.162   2.498  1.0822  0.1780 -0.7721
 4471TIP3   OH213355   0.653   4.738   2.586  0.1058  0.0419 -0.4591
 4471TIP3    H113356   0.558   4.751   2.590  0.0645 -0.1406 -0.7682
 4471TIP3    H213357   0.663   4.644   2.566  0.3382  0.1816 -1.0135
 4472TIP3   OH213358   2.449   4.626   4.066  0.2499  0.5837 -0.1992
 4472TIP3    H113359   2.433   4.533   4.049 -0.4302  0.7740 -0.6458
 4472TIP3    H213360   2.450   4.634   4.161 -2.4910  0.5657 -0.1289
 4473TIP3   OH213361   2.223   5.112   2.732  0.4590  0.2267  0.5450
 4473TIP3    H113362   2.279   5.059   2.675 -0.3063 -0.4654  0.4141
 4473TIP3    H213363   2.225   5.066   2.816 -0.9837 -0.5795  0.1605
 4474TIP3   OH213364   0.138   4.041   2.505 -0.8104  0.7235  0.7331
 4474TIP3    H113365   0.229   4.037   2.534 -0.4413  0.0402 -0.4829
 4474TIP3    H213366   0.093   4.091   2.573  0.4251  0.8565  1.4614
 4475TIP3   OH213367   2.509   3.250   3.605 -0.0491  0.7139  0.0986
 4475TIP3    H113368   2.470   3.323   3.556 -0.5191  1.1765  1.1385
 4475TIP3    H213369   2.439   3.184   3.608  0.1968  0.4298 -0.3949
 4476TIP3   OH213370   7.738   6.512   0.384  0.1681 -0.1435  0.1719
 4476TIP3    H113371   7.737   6.601   0.350  0.1013 -0.7626 -1.4925
 4476TIP3    H213372   7.798   6.515   0.458 -0.0235  1.3356  0.2704
 4477TIP3   OH213373   3.282   6.129   4.773 -0.4785 -0.1766  0.0638
 4477TIP3    H113374   3.303   6.195   4.706 -0.9156 -1.1423 -1.0511
 4477TIP3    H213375   3.214   6.074   4.732  1.4153 -2.6447  0.1057
 4478TIP3   OH213376   1.432   2.202   5.505  0.2685 -0.2885  0.4996
 4478TIP3    H113377   1.421   2.171   5.594  1.3084 -1.7156  0.1465
 4478TIP3    H213378   1.491   2.277   5.513  1.3142 -1.1496  0.8872
 4479TIP3   OH213379   0.632   3.957   3.644 -0.3594  0.8568 -0.2264
 4479TIP3    H113380   0.634   3.869   3.682 -1.1478  1.7877  2.0471
 4479TIP3    H213381   0.540   3.981   3.646  0.0182  2.2756  0.4793
 4480TIP3   OH213382   3.071   5.248   5.381  0.3971 -0.3667  0.2240
 4480TIP3    H113383   3.049   5.339   5.403  1.4846 -0.3349  1.2470
 4480TIP3    H213384   3.024   5.195   5.445  1.4841 -0.4032  1.0147
 4481TIP3   OH213385   0.289   6.477   4.016  0.2276  0.8587 -0.9876
 4481TIP3    H113386   0.248   6.467   3.931 -0.1014  1.9401 -0.9567
 4481TIP3    H213387   0.222   6.516   4.072  0.1986 -0.5207 -0.0309
 4482TIP3   OH213388   1.246   5.423   3.192  0.0613  0.8451  0.0523
 4482TIP3    H113389   1.280   5.495   3.245 -1.4729  1.4378  0.2571
 4482TIP3    H213390   1.155   5.447   3.175 -0.2866 -0.7516 -0.3949
 4483TIP3   OH213391   1.521   7.344   4.802 -0.3255  0.0612 -0.0649
 4483TIP3    H113392   1.520   7.324   4.896 -2.6898 -0.5835 -0.2035
 4483TIP3    H213393   1.512   7.258   4.759  1.5532  0.2614 -0.9214
 4484TIP3   OH213394   1.112   3.964   2.205 -0.3189 -0.0396  0.2491
 4484TIP3    H113395   1.066   3.967   2.288  0.0020 -0.1695  0.4313
 4484TIP3    H213396   1.195   4.008   2.221  0.0825 -0.7668  0.2203
 4485TIP3   OH213397   3.131   5.746   3.722 -0.0516 -0.0596 -0.0265
 4485TIP3    H113398   3.153   5.815   3.784 -1.8295  2.1664 -1.7662
 4485TIP3    H213399   3.035   5.738   3.728  0.0852 -2.0157 -0.2091
 4486TIP3   OH213400   1.944   6.805   1.110  0.1463  0.0302 -0.7785
 4486TIP3    H113401   2.000   6.801   1.032  0.6484 -0.3740 -0.4062
 4486TIP3    H213402   1.974   6.732   1.165  0.4451  0.8825  0.2167
 4487TIP3   OH213403   6.096   0.160   3.611 -0.1579 -0.0452  0.3220
 4487TIP3    H113404   6.039   0.157   3.687  1.0237 -0.7877  1.1979
 4487TIP3    H213405   6.074   0.080   3.562 -0.5955  0.2003  0.1144
 4488TIP3   OH213406   4.064   5.711   1.533 -0.3886  0.4730 -0.1321
 4488TIP3    H113407   4.026   5.671   1.455 -0.6100 -0.2070  0.3156
 4488TIP3    H213408   4.141   5.759   1.501 -0.3592  0.0320 -0.7334
 4489TIP3   OH213409   2.107   6.843   5.326 -0.1323 -0.1569  0.3296
 4489TIP3    H113410   2.179   6.815   5.383 -1.9474 -0.3678  2.5809
 4489TIP3    H213411   2.057   6.905   5.380 -1.9875 -0.4715 -0.9863
 4490TIP3   OH213412   3.492   5.100   3.484  0.2745 -0.3851 -0.4754
 4490TIP3    H113413   3.488   5.196   3.489  1.7446 -0.3933  1.2007
 4490TIP3    H213414   3.455   5.070   3.567 -4.1678 -1.4490 -2.6581
 4491TIP3   OH213415   3.106   7.531   3.572  0.0891  0.9188  0.3497
 4491TIP3    H113416   3.066   7.503   3.490 -1.1073  2.9543  0.2024
 4491TIP3    H213417   3.089   7.625   3.576  1.5144  1.1245  2.1744
 4492TIP3   OH213418   3.461   6.133   2.112 -0.3663 -0.3215 -0.2848
 4492TIP3    H113419   3.464   6.038   2.121  0.2210 -0.2503  0.3903
 4492TIP3    H213420   3.370   6.153   2.090 -0.9756 -0.8878  1.5803
 4493TIP3   OH213421   1.995   6.216   1.619 -0.0384 -0.1829  0.4009
 4493TIP3    H113422   2.008   6.122   1.625 -0.2928 -0.3101 -0.9575
 4493TIP3    H213423   2.065   6.247   1.561 -0.3871  0.3654  0.2652
 4494TIP3   OH213424   1.866   6.630   3.123  0.8918 -0.6352 -0.6518
 4494TIP3    H113425   1.863   6.584   3.039 -0.1993 -1.4342 -0.1952
 4494TIP3    H213426   1.775   6.631   3.153  1.0501  0.8929 -0.1406
 4495TIP3   OH213427   1.831   7.788   1.689  0.0831  0.3589  0.3227
 4495TIP3    H113428   1.875   7.705   1.705 -1.0762 -0.2967  0.1394
 4495TIP3    H213429   1.838   7.802   1.594  0.0028  0.3142  0.3101
 4496TIP3   OH213430   1.713   5.613   2.812  0.9084 -0.0374  0.1292
 4496TIP3    H113431   1.722   5.597   2.718  1.2423 -0.6435  0.2608
 4496TIP3    H213432   1.619   5.607   2.829  0.9819 -1.4533  0.0955
 4497TIP3   OH213433   7.123   4.795   2.843 -0.5850  0.2271  0.1504
 4497TIP3    H113434   7.085   4.745   2.914 -1.5233  1.3743  0.4704
 4497TIP3    H213435   7.125   4.885   2.875  1.8821  0.3102 -0.0705
 4498TIP3   OH213436   0.725   5.200   2.642  0.1903 -0.4047  0.1772
 4498TIP3    H113437   0.776   5.264   2.692 -0.7551  0.7168 -0.2760
 4498TIP3    H213438   0.634   5.223   2.660 -0.1733 -1.8828  0.3281
 4499TIP3   OH213439   0.836   5.516   2.857  0.4259  0.6802 -0.7660
 4499TIP3    H113440   0.753   5.485   2.821  1.9180 -3.4040 -1.0171
 4499TIP3    H213441   0.903   5.483   2.796  2.5335 -0.6483  2.1110
 4500TIP3   OH213442   2.290   6.338   1.079  0.3920  0.3821  0.2707
 4500TIP3    H113443   2.367   6.356   1.132  1.4313 -1.1603 -0.6715
 4500TIP3    H213444   2.318   6.357   0.989 -0.4009  0.0297 -0.0563
 4501TIP3   OH213445   4.123   6.914   3.196 -0.1221 -0.1290  0.3635
 4501TIP3    H113446   4.117   6.819   3.182 -1.2374 -0.1676  1.0983
 4501TIP3    H213447   4.166   6.923   3.281  0.4072  0.0308  0.0803
 4502TIP3   OH213448   8.038   4.700   3.326 -0.3448  0.2122  0.6264
 4502TIP3    H113449   8.099   4.679   3.254  0.3019  0.2338  1.1635
 4502TIP3    H213450   8.034   4.795   3.327 -0.0662  0.2224  0.8547
 4503TIP3   OH213451   3.171   7.113   4.606 -0.3379  0.3958  0.6657
 4503TIP3    H113452   3.093   7.167   4.618 -0.4804  0.5434 -0.7774
 4503TIP3    H213453   3.179   7.064   4.687 -0.4680  2.2528  1.8416
 4504TIP3   OH213454   2.623   5.084   3.241 -0.6620 -0.1162  0.2179
 4504TIP3    H113455   2.690   5.150   3.222 -0.2024 -0.7278 -0.2709
 4504TIP3    H213456   2.543   5.120   3.202 -0.4495  0.2419  0.1078
 4505TIP3   OH213457   0.617   4.459   2.575 -0.7942  0.1132 -0.3932
 4505TIP3    H113458   0.620   4.394   2.645 -1.3534  0.8946  0.3504
 4505TIP3    H213459   0.564   4.417   2.507  1.8509 -1.7011 -1.4459
 4506TIP3   OH213460   8.478   5.494   4.562 -0.0887  0.5412  0.2328
 4506TIP3    H113461   8.502   5.553   4.490  0.2083  0.7414  0.4951
 4506TIP3    H213462   8.507   5.539   4.641 -0.0980  0.1621  0.4545
 4507TIP3   OH213463   3.111   5.933   2.083 -0.5052  0.0881  0.1214
 4507TIP3    H113464   3.188   5.921   2.027 -0.5409 -0.2185  0.1330
 4507TIP3    H213465   3.129   5.879   2.160 -1.0361 -0.5435 -0.1924
 4508TIP3   OH213466   5.501   5.291   0.243  0.4341  0.0363  0.0222
 4508TIP3    H113467   5.531   5.229   0.310  1.0248 -0.6629 -0.8750
 4508TIP3    H213468   5.571   5.291   0.178 -1.3121 -1.2691 -1.9066
 4509TIP3   OH213469   1.511   3.778   2.943  0.0471 -0.0296 -0.4242
 4509TIP3    H113470   1.505   3.804   2.851  1.2704  0.6335 -0.3264
 4509TIP3    H213471   1.546   3.855   2.987  0.2702 -0.6328  0.4576
 4510TIP3   OH213472   2.534   5.575   2.442 -0.0473  0.3014  0.3728
 4510TIP3    H113473   2.450   5.544   2.476 -0.6715  0.5253 -0.9256
 4510TIP3    H213474   2.520   5.668   2.426  1.2522  0.8984  2.5402
 4511TIP3   OH213475   1.263   2.864   6.146  0.1546  0.1767 -0.6690
 4511TIP3    H113476   1.328   2.933   6.131 -0.6940  1.0973 -0.1923
 4511TIP3    H213477   1.268   2.847   6.240  1.0677 -1.1351 -0.9444
 4512TIP3   OH213478   0.500   4.278   4.358  0.2457 -0.0918 -0.6926
 4512TIP3    H113479   0.531   4.347   4.416 -1.7178  0.3856 -0.1683
 4512TIP3    H213480   0.570   4.212   4.359  0.9646  0.6659  0.8988
 4513TIP3   OH213481   2.619   7.038   3.427 -0.1566  0.7984  0.0254
 4513TIP3    H113482   2.656   6.984   3.498 -0.9694 -2.1254 -1.7022
 4513TIP3    H213483   2.524   7.029   3.437 -0.2802  0.3433 -1.3989
 4514TIP3   OH213484   7.878   7.393   5.225  0.2303  0.1376  0.3502
 4514TIP3    H113485   7.823   7.348   5.161  0.2780  1.5030 -0.6672
 4514TIP3    H213486   7.836   7.478   5.238  1.0225  0.4310  1.0539
 4515TIP3   OH213487   2.493   7.539   3.400  0.1994 -0.0719 -0.2921
 4515TIP3    H113488   2.554   7.610   3.420  0.1935  0.2423 -1.3600
 4515TIP3    H213489   2.476   7.498   3.485  2.5458 -0.7110 -0.1019
 4516TIP3   OH213490   3.610   3.090   1.106 -0.5313 -0.6364 -0.9576
 4516TIP3    H113491   3.667   3.153   1.150 -1.6395 -1.9317  2.5930
 4516TIP3    H213492   3.662   3.010   1.102 -1.3745 -1.2997  0.6212
 4517TIP3   OH213493   2.835   5.880   0.504  0.0362  0.6093 -0.2419
 4517TIP3    H113494   2.919   5.835   0.494  0.1278  0.7142  0.0478
 4517TIP3    H213495   2.832   5.942   0.430 -0.9764 -1.2487 -1.7998
 4518TIP3   OH213496   1.711   6.493   3.843 -0.2618 -0.0321  0.2486
 4518TIP3    H113497   1.729   6.587   3.841  1.2929 -0.3004  0.3156
 4518TIP3    H213498   1.754   6.462   3.923 -0.3713 -0.8667 -0.0089
 4519TIP3   OH213499   1.352   5.817   3.120 -0.4869 -0.0435 -0.2651
 4519TIP3    H113500   1.426   5.766   3.088 -0.6653 -1.3838  1.4007
 4519TIP3    H213501   1.321   5.769   3.197 -0.4837  2.6988  1.5346
 4520TIP3   OH213502   2.196   5.394   4.734  0.0105 -0.2683  0.1926
 4520TIP3    H113503   2.191   5.434   4.647 -2.0698 -0.1656  0.3381
 4520TIP3    H213504   2.122   5.334   4.737  0.2470 -0.5016  1.7837
 4521TIP3   OH213505   4.291   0.560   4.146 -0.2304 -0.1249 -0.5433
 4521TIP3    H113506   4.347   0.500   4.195  0.3253  0.3504 -0.5773
 4521TIP3    H213507   4.351   0.629   4.116 -1.3121  1.9099  1.8064
 4522TIP3   OH213508   7.767   5.335   3.211  0.1694  0.4915 -0.0424
 4522TIP3    H113509   7.809   5.420   3.226  2.0987 -0.8434  2.5366
 4522TIP3    H213510   7.792   5.312   3.122  0.7671  2.0079 -0.2869
 4523TIP3   OH213511   0.874   6.801   1.932 -0.3189  0.3581 -0.2939
 4523TIP3    H113512   0.782   6.814   1.953 -0.8047 -2.4100 -0.4873
 4523TIP3    H213513   0.921   6.822   2.013 -1.1763  1.0872  0.0143
 4524TIP3   OH213514   1.270   6.045   3.019 -0.1006  0.0294 -0.6283
 4524TIP3    H113515   1.317   5.963   3.033  0.7538  0.4273 -1.1059
 4524TIP3    H213516   1.240   6.071   3.106 -1.0754 -1.1934 -0.5877
 4525TIP3   OH213517   0.781   4.705   1.524  0.3295  0.0136  0.0548
 4525TIP3    H113518   0.755   4.616   1.546  1.0422 -0.1100  0.4120
 4525TIP3    H213519   0.805   4.744   1.607  2.0164 -0.1179 -0.3458
 4526TIP3   OH213520   1.157   5.781   2.600 -0.3179  0.5295 -0.5328
 4526TIP3    H113521   1.063   5.799   2.602 -0.5552 -0.7911  2.4879
 4526TIP3    H213522   1.164   5.694   2.562 -0.0729  1.6763 -3.2345
 4527TIP3   OH213523   3.340   5.197   2.405 -0.2132 -0.0257 -0.3156
 4527TIP3    H113524   3.282   5.127   2.372 -0.4048 -0.5662  1.1301
 4527TIP3    H213525   3.426   5.155   2.412 -0.4737 -0.3327  1.2154
 4528TIP3   OH213526   1.753   3.682   2.308  0.0164 -0.8119 -0.1827
 4528TIP3    H113527   1.795   3.691   2.394  2.0065  1.7585 -1.3562
 4528TIP3    H213528   1.790   3.602   2.272 -0.1151 -1.3987  0.9660
 4529TIP3   OH213529   1.321   3.946   1.424 -0.2398  0.7074 -0.2875
 4529TIP3    H113530   1.399   3.905   1.462  0.4716  2.4578  0.1625
 4529TIP3    H213531   1.349   3.975   1.338 -0.8963 -0.1768 -0.8137
 4530TIP3   OH213532   0.622   3.213   1.358  0.3971  0.0124 -0.3324
 4530TIP3    H113533   0.681   3.140   1.342  0.1316 -0.1430 -0.5928
 4530TIP3    H213534   0.534   3.175   1.357  0.3606  0.0154  1.3604
 4531TIP3   OH213535   0.800   3.090   2.370 -0.5688  0.1760 -0.3781
 4531TIP3    H113536   0.757   3.019   2.418 -1.9845  1.0878 -0.2652
 4531TIP3    H213537   0.785   3.068   2.278  1.3149 -1.0645 -0.4125
 4532TIP3   OH213538   4.699   5.609   1.790  0.5798  0.2690 -0.5267
 4532TIP3    H113539   4.689   5.583   1.699  0.1284  0.2042 -0.4608
 4532TIP3    H213540   4.648   5.690   1.798  1.7145  1.0061 -0.6559
 4533TIP3   OH213541   7.195   5.251   2.101 -0.1230 -0.6014  0.0477
 4533TIP3    H113542   7.125   5.299   2.056  1.2595  1.8015  0.3691
 4533TIP3    H213543   7.162   5.240   2.190 -1.2975 -2.0599 -0.5545
 4534TIP3   OH213544   8.316   4.474   2.618  0.0818  0.1605 -0.3291
 4534TIP3    H113545   8.305   4.548   2.678  0.2387 -0.7399  0.8335
 4534TIP3    H213546   8.278   4.504   2.536 -0.4036  1.3178  0.3021
 4535TIP3   OH213547   0.894   5.886   3.219  0.7755  0.5772 -0.5033
 4535TIP3    H113548   0.985   5.872   3.191  0.5381  1.2546 -1.6198
 4535TIP3    H213549   0.845   5.816   3.177  0.8766 -0.2294  0.6888
 4536TIP3   OH213550   0.425   4.394   1.226 -0.1812  0.2471 -0.7788
 4536TIP3    H113551   0.362   4.376   1.156 -1.7632  0.5907  0.5198
 4536TIP3    H213552   0.424   4.315   1.280  0.5921  0.2129 -0.8099
 4537TIP3   OH213553   2.000   7.451   2.345 -0.0284  0.3788 -0.0079
 4537TIP3    H113554   1.980   7.449   2.439  0.1505  0.4780  0.0331
 4537TIP3    H213555   1.926   7.407   2.304 -1.2825  2.4746 -0.0343
 4538TIP3   OH213556   0.820   4.483   2.889  0.1556  0.7644 -0.3907
 4538TIP3    H113557   0.820   4.555   2.953 -0.5439  1.0273 -0.6752
 4538TIP3    H213558   0.900   4.496   2.838  0.3031  1.0342 -0.0971
 4539TIP3   OH213559   2.977   5.527   2.767  0.0809  0.1295  0.4106
 4539TIP3    H113560   3.021   5.446   2.792  0.7262  0.0997 -0.7736
 4539TIP3    H213561   3.014   5.593   2.827 -0.1414 -0.3620  1.0980
 4540TIP3   OH213562   7.461   6.245   3.100 -0.8610 -0.3100  0.0361
 4540TIP3    H113563   7.470   6.320   3.159 -0.4300 -0.1641 -0.2102
 4540TIP3    H213564   7.472   6.282   3.012  0.9728 -0.8917 -0.0076
 4541TIP3   OH213565   0.485   5.936   6.526 -0.2421  0.6437 -0.2520
 4541TIP3    H113566   0.492   6.025   6.491  0.4796  0.0000 -1.7743
 4541TIP3    H213567   0.394   5.912   6.509 -0.4535  1.0904  0.2028
 4542TIP3   OH213568   3.029   7.870   1.497 -0.3220  0.1269  0.4735
 4542TIP3    H113569   3.095   7.805   1.472  0.9022  1.4709  0.1557
 4542TIP3    H213570   2.946   7.825   1.483  0.4647 -0.9546 -0.9625
 4543TIP3   OH213571   5.338   5.860   2.003 -0.4833 -0.1293  0.3784
 4543TIP3    H113572   5.339   5.801   1.928 -0.7147 -0.2449  0.4642
 4543TIP3    H213573   5.374   5.942   1.970 -0.1371 -0.3268  0.2647
 4544TIP3   OH213574   3.817   5.353   2.033 -0.1322  0.0984 -0.4550
 4544TIP3    H113575   3.802   5.293   1.960 -0.5512 -0.0578 -0.2423
 4544TIP3    H213576   3.735   5.351   2.083  0.0211  0.4836 -0.1841
 4545TIP3   OH213577   1.387   5.592   2.732 -0.6507 -0.1255 -0.2556
 4545TIP3    H113578   1.343   5.507   2.731 -0.8682 -0.0395  1.0272
 4545TIP3    H213579   1.348   5.638   2.807 -0.5663  1.1171 -0.9672
 4546TIP3   OH213580   3.641   5.988   1.792 -0.6391 -0.1052  0.2352
 4546TIP3    H113581   3.639   5.986   1.887  0.1096  1.8165  0.3115
 4546TIP3    H213582   3.719   5.938   1.768 -1.7956 -2.1024  0.5386
 4547TIP3   OH213583   3.403   3.755   1.170 -0.4563 -0.4295 -0.1600
 4547TIP3    H113584   3.451   3.674   1.152  0.2990  0.1744 -0.9390
 4547TIP3    H213585   3.445   3.791   1.248 -0.1259 -0.2725 -0.4106
 4548TIP3   OH213586   2.383   5.364   1.506  0.0283 -0.1784 -0.5390
 4548TIP3    H113587   2.442   5.430   1.541 -1.7911  0.3693  1.6429
 4548TIP3    H213588   2.299   5.408   1.497 -1.1667 -2.0915  0.7479
 4549TIP3   OH213589   2.039   7.004   2.539 -0.2471 -0.0470 -0.7520
 4549TIP3    H113590   2.008   7.069   2.602  0.0423 -0.3888 -0.2530
 4549TIP3    H213591   1.974   7.006   2.469 -0.3319  0.6550 -0.6569
 4550TIP3   OH213592   3.423   4.739   2.285  0.3173  0.5954  0.6792
 4550TIP3    H113593   3.374   4.673   2.334  0.0710 -0.1507 -0.5472
 4550TIP3    H213594   3.515   4.714   2.294  0.2436  0.2364  0.4384
 4551TIP3   OH213595   3.249   4.930   2.384  0.3658  0.1545  0.0686
 4551TIP3    H113596   3.326   4.882   2.353 -0.4227 -1.2298  0.1990
 4551TIP3    H213597   3.258   4.928   2.480  0.1425 -0.0614  0.0855
 4552TIP3   OH213598   3.385   6.760   0.874  0.4014 -0.0640 -0.0572
 4552TIP3    H113599   3.455   6.779   0.936  0.1559 -1.4373  0.6622
 4552TIP3    H213600   3.316   6.720   0.927  0.4890 -1.9660 -1.3238
 4553TIP3   OH213601   4.337   5.765   0.924  0.7756 -0.3350  0.5575
 4553TIP3    H113602   4.361   5.674   0.942 -1.5062 -1.2196 -0.6776
 4553TIP3    H213603   4.336   5.771   0.829 -2.0601  0.1314  0.5755
 4554TIP3   OH213604   3.807   3.724   3.560 -0.2461 -0.1862  0.4661
 4554TIP3    H113605   3.858   3.715   3.479  0.0094  0.1226  0.5898
 4554TIP3    H213606   3.869   3.763   3.623 -1.0216  1.4723  0.2285
 4555TIP3   OH213607   4.379   5.352   2.625  0.8721  0.3090  0.7760
 4555TIP3    H113608   4.337   5.268   2.608 -2.3559  1.9501  0.2812
 4555TIP3    H213609   4.455   5.353   2.566 -0.6186 -1.1324 -1.2140
 4556TIP3   OH213610   3.114   4.683   2.251  0.5962 -0.5741 -0.1422
 4556TIP3    H113611   3.148   4.634   2.325  3.3374 -1.2380 -1.7812
 4556TIP3    H213612   3.146   4.772   2.265  0.0054 -0.3979  0.1241
 4557TIP3   OH213613   3.761   5.214   2.745  0.4761 -0.2047  0.3268
 4557TIP3    H113614   3.759   5.298   2.697  1.6277 -1.1709 -1.5003
 4557TIP3    H213615   3.680   5.170   2.720  0.7542 -0.4125 -0.2441
 4558TIP3   OH213616   3.810   5.465   1.515 -0.2424 -0.3033 -0.0900
 4558TIP3    H113617   3.882   5.504   1.466  1.3047 -1.7372  0.9798
 4558TIP3    H213618   3.829   5.485   1.607 -3.0694  2.2892  0.0117
 4559TIP3   OH213619   3.985   3.784   3.028 -0.1452 -0.9110 -0.4577
 4559TIP3    H113620   3.889   3.787   3.027 -0.1631 -0.7493  0.8142
 4559TIP3    H213621   4.008   3.802   3.119  1.2570  4.0117 -1.6092
 4560TIP3   OH213622   2.976   4.989   1.004 -0.4415  0.2673 -0.1727
 4560TIP3    H113623   2.986   4.955   1.093 -0.9749 -1.5449 -0.7903
 4560TIP3    H213624   2.902   5.049   1.010  0.7799  1.7074  1.0228
 4561TIP3   OH213625   3.581   6.358   1.765  0.3240 -0.2449 -0.2257
 4561TIP3    H113626   3.588   6.316   1.679 -0.2722 -1.6216  0.3794
 4561TIP3    H213627   3.501   6.411   1.760 -0.3708 -1.2672 -0.1402
 4562TIP3   OH213628   4.903   5.940   2.225  0.8300 -0.0942  0.1747
 4562TIP3    H113629   4.861   5.924   2.309  0.9919  0.3213  0.3361
 4562TIP3    H213630   4.831   5.948   2.163  0.7573 -2.3842 -0.0870
 4563TIP3   OH213631   3.045   7.470   3.109 -0.0526 -0.1847  0.4381
 4563TIP3    H113632   3.126   7.467   3.059 -1.2406 -0.2503 -1.5481
 4563TIP3    H213633   3.037   7.561   3.136  0.9347 -0.2849  1.0767
 4564TIP3   OH213634   3.113   6.502   3.919  0.1734 -0.1312 -0.5624
 4564TIP3    H113635   3.170   6.574   3.891 -0.8200  1.7920  2.0441
 4564TIP3    H213636   3.153   6.423   3.883  3.5731  1.3230 -0.1414
 4565TIP3   OH213637   2.355   7.100   3.016  1.3303  0.2503  1.2297
 4565TIP3    H113638   2.354   7.023   3.072  0.6220  0.3954  1.4236
 4565TIP3    H213639   2.294   7.079   2.945  1.1905  0.6063  1.2447
 4566TIP3   OH213640   4.203   5.020   2.881  0.2335  0.4384 -0.3839
 4566TIP3    H113641   4.162   5.055   2.802 -1.5448  3.7122  1.8597
 4566TIP3    H213642   4.171   4.930   2.887 -0.8896  0.6669 -2.5121
 4567TIP3   OH213643   5.854   7.168   4.029 -0.1199  0.1787  0.0298
 4567TIP3    H113644   5.796   7.096   4.003  1.7641 -1.1233 -0.6504
 4567TIP3    H213645   5.847   7.171   4.124 -2.6650  1.2430 -0.1331
 4568TIP3   OH213646   3.224   2.337   0.407 -0.0541  0.0228 -0.1827
 4568TIP3    H113647   3.136   2.340   0.445 -0.4760 -1.2082 -0.9888
 4568TIP3    H213648   3.277   2.393   0.463 -0.8900 -0.8795  1.5714
 4569TIP3   OH213649   6.813   0.858   3.197  0.0297  0.2038 -0.1697
 4569TIP3    H113650   6.844   0.778   3.155 -2.1829 -0.6119 -0.3338
 4569TIP3    H213651   6.818   0.924   3.127 -0.5973 -0.4087 -0.8084
 4570TIP3   OH213652   3.965   7.182   3.255 -0.0008 -0.0936  0.5536
 4570TIP3    H113653   3.932   7.107   3.304 -1.7081  1.2513  1.5059
 4570TIP3    H213654   3.894   7.203   3.194  1.7681 -1.2452 -2.0129
 4571TIP3   OH213655   4.382   6.041   1.604  0.3537  0.3653  0.3585
 4571TIP3    H113656   4.408   5.948   1.603  2.2952  0.8924  0.3325
 4571TIP3    H213657   4.315   6.046   1.672 -0.7539 -1.3103 -0.5529
 4572TIP3   OH213658   2.313   5.985   3.708 -0.0970 -0.8253  0.2950
 4572TIP3    H113659   2.246   5.946   3.651  0.0678  0.9055 -1.1547
 4572TIP3    H213660   2.389   5.995   3.651 -0.0821  1.3848  0.6619
 4573TIP3   OH213661   2.509   6.739   1.097 -0.3638 -0.1260 -0.0900
 4573TIP3    H113662   2.590   6.790   1.092 -1.9520  2.2913 -2.1663
 4573TIP3    H213663   2.502   6.697   1.011 -1.8711  0.5387 -0.2978
 4574TIP3   OH213664   3.098   6.217   2.417 -0.2592  0.0165  0.6276
 4574TIP3    H113665   3.160   6.192   2.486 -0.9435 -1.9740  0.5695
 4574TIP3    H213666   3.036   6.144   2.414 -0.8216  0.5591 -1.4266
 4575TIP3   OH213667   4.441   3.858   2.057 -0.4287  0.3829 -0.4377
 4575TIP3    H113668   4.385   3.783   2.035 -0.8226  0.9236 -1.3226
 4575TIP3    H213669   4.473   3.839   2.145 -2.4172  0.2885  0.3024
 4576TIP3   OH213670   5.155   5.311   2.065 -0.6759 -0.3733 -0.0226
 4576TIP3    H113671   5.224   5.369   2.033 -2.7211  0.9182 -2.2447
 4576TIP3    H213672   5.139   5.342   2.155  0.4314  0.4150 -0.0704
 4577TIP3   OH213673   3.179   6.802   1.860 -0.0311 -0.7754 -0.4414
 4577TIP3    H113674   3.174   6.767   1.949 -2.0915 -1.0321 -0.6393
 4577TIP3    H213675   3.273   6.802   1.839  0.2980 -2.6549  0.9506
 4578TIP3   OH213676   2.063   5.670   0.655  0.1998 -0.2201  0.3844
 4578TIP3    H113677   1.988   5.629   0.610  1.0163 -1.2614 -0.0612
 4578TIP3    H213678   2.139   5.620   0.624  0.8395 -0.6055  2.5195
 4579TIP3   OH213679   3.897   5.903   2.824 -0.2860 -0.3314  0.2986
 4579TIP3    H113680   3.951   5.847   2.880 -1.2043 -1.1134  0.4095
 4579TIP3    H213681   3.807   5.883   2.850 -0.6792  0.0872 -0.7240
 4580TIP3   OH213682   2.887   6.757   1.940 -0.2878 -0.2079  0.0861
 4580TIP3    H113683   2.899   6.706   2.020  1.0597  1.2591  0.8545
 4580TIP3    H213684   2.965   6.740   1.888 -0.8732 -0.6707 -0.6562
 4581TIP3   OH213685   4.454   4.971   2.125  0.5503  0.1633 -0.0344
 4581TIP3    H113686   4.522   4.925   2.076  0.2357  0.6711 -0.9733
 4581TIP3    H213687   4.437   5.050   2.073 -0.4495  0.2505  0.4139
 4582TIP3   OH213688   4.801   3.667   0.151 -0.2275 -0.9765  0.4719
 4582TIP3    H113689   4.816   3.606   0.079 -0.3001 -0.2187 -0.1944
 4582TIP3    H213690   4.729   3.723   0.121 -0.1443 -0.5451  1.0572
 4583TIP3   OH213691   3.553   7.087   2.441  0.0594  0.0919  0.1013
 4583TIP3    H113692   3.569   7.004   2.396 -2.6758 -0.2903 -0.2250
 4583TIP3    H213693   3.581   7.154   2.378 -0.9530 -0.5199 -1.0236
 4584TIP3   OH213694   6.363   0.344   2.421 -0.3125  0.1190  0.0659
 4584TIP3    H113695   6.398   0.294   2.347  0.5747  3.8241 -2.1596
 4584TIP3    H213696   6.268   0.330   2.416 -0.1819 -0.4070 -1.2417
 4585TIP3   OH213697   3.117   6.810   3.127 -0.2276 -0.0080 -0.9989
 4585TIP3    H113698   3.074   6.809   3.213  1.7112  2.1166  0.0317
 4585TIP3    H213699   3.056   6.859   3.071 -0.8489 -0.1869 -0.4958
 4586TIP3   OH213700   4.774   7.543   1.108 -0.1341  0.0991 -0.2116
 4586TIP3    H113701   4.849   7.543   1.049  0.0312  0.9373 -0.0153
 4586TIP3    H213702   4.768   7.453   1.140  0.9916  0.0953  0.0152
 4587TIP3   OH213703   3.594   6.050   2.623  0.0352 -0.0181  0.3357
 4587TIP3    H113704   3.527   6.026   2.560  0.6759  1.8961 -1.1109
 4587TIP3    H213705   3.677   6.042   2.576  0.5327  1.2770  0.9534
 4588TIP3   OH213706   4.958   5.380   0.712  0.3894 -0.0364  0.2554
 4588TIP3    H113707   5.031   5.435   0.738  2.0506 -1.7876 -0.5655
 4588TIP3    H213708   4.998   5.309   0.661 -1.6959 -1.8147  0.9882
 4589TIP3   OH213709   2.841   5.718   2.415  0.0528 -0.1299 -0.5588
 4589TIP3    H113710   2.904   5.647   2.406  0.2510 -0.5805  3.2933
 4589TIP3    H213711   2.763   5.677   2.454 -0.3465  1.4685  0.3914
 4590TIP3   OH213712   1.399   7.768   2.485  1.0210  0.2657 -0.1638
 4590TIP3    H113713   1.326   7.785   2.544  1.0339 -0.6595  0.1304
 4590TIP3    H213714   1.370   7.695   2.431  1.8579 -0.3511  0.2038
 4591TIP3   OH213715   4.408   5.165   1.716 -0.3573  0.4273 -0.2532
 4591TIP3    H113716   4.444   5.209   1.639  0.9805 -1.2155 -0.6128
 4591TIP3    H213717   4.314   5.184   1.713 -0.4468 -0.2172 -2.7124
 4592TIP3   OH213718   6.407   0.632   2.465 -0.2178  0.3369 -0.7606
 4592TIP3    H113719   6.395   0.537   2.455 -0.4058  0.2055  0.6054
 4592TIP3    H213720   6.478   0.641   2.529 -0.3643  1.1116 -0.7020
 4593TIP3   OH213721   3.563   5.433   3.017 -0.2326 -0.4143 -0.0662
 4593TIP3    H113722   3.544   5.527   3.018 -4.0742 -1.1123  1.2301
 4593TIP3    H213723   3.514   5.399   2.942  0.0980 -1.5675  0.2267
 4594TIP3   OH213724   4.611   7.560   3.342  0.5946 -0.2431 -0.2607
 4594TIP3    H113725   4.638   7.598   3.426  0.2164  2.5234 -1.3156
 4594TIP3    H213726   4.552   7.626   3.304  0.9325 -1.3336 -2.7756
 4595TIP3   OH213727   4.578   6.221   1.919  0.3212 -0.1261  0.5269
 4595TIP3    H113728   4.571   6.189   2.009  2.5581 -0.1906  0.7029
 4595TIP3    H213729   4.532   6.305   1.920 -2.1139 -1.4188  1.0301
 4596TIP3   OH213730   3.857   3.667   1.120 -0.1381  0.2875 -0.2886
 4596TIP3    H113731   3.847   3.744   1.176 -0.7791  1.7913 -2.3988
 4596TIP3    H213732   3.943   3.677   1.080 -0.7039  0.5585 -1.4762
 4597TIP3   OH213733   1.882   5.931   2.568 -0.2550  0.3195 -0.1027
 4597TIP3    H113734   1.917   5.863   2.510  1.2974  0.0030  1.1706
 4597TIP3    H213735   1.811   5.888   2.615  1.2133 -0.6793  1.2514
 4598TIP3   OH213736   4.199   4.273   2.840  0.0303 -0.5525 -0.3364
 4598TIP3    H113737   4.270   4.228   2.793 -0.2928 -0.4066 -0.9779
 4598TIP3    H213738   4.186   4.220   2.919  0.9366 -0.5077 -0.1490
 4599TIP3   OH213739   1.579   5.011   3.077  0.0955  0.2922  0.2592
 4599TIP3    H113740   1.551   4.922   3.055 -0.4087  0.9737 -1.9639
 4599TIP3    H213741   1.518   5.068   3.031  2.0615  1.8012 -0.5543
 4600TIP3   OH213742   0.640   1.179   6.512  0.1588  0.5833 -0.3970
 4600TIP3    H113743   0.616   1.271   6.519  0.6813  0.6611  0.5158
 4600TIP3    H213744   0.566   1.138   6.469 -1.1273  1.0014  1.3682
 4601TIP3   OH213745   3.843   6.795   1.418  0.5172 -0.0051  0.3228
 4601TIP3    H113746   3.777   6.751   1.366  0.4100  0.5786 -0.0406
 4601TIP3    H213747   3.900   6.838   1.354  0.3497  0.7632  0.6755
 4602TIP3   OH213748   2.128   5.233   1.166 -0.0286  0.1394  0.4372
 4602TIP3    H113749   2.189   5.170   1.126 -0.0931  0.5559 -0.3284
 4602TIP3    H213750   2.159   5.318   1.135 -0.3087  0.4383  0.9817
 4603TIP3   OH213751   2.968   5.969   1.576  0.3450  0.2067 -0.2568
 4603TIP3    H113752   2.992   5.966   1.669  2.1942 -0.5511 -0.7250
 4603TIP3    H213753   2.963   6.062   1.556 -0.6179  0.3726  0.7401
 4604TIP3   OH213754   3.356   4.049   1.667 -0.2957 -0.0257 -0.5632
 4604TIP3    H113755   3.356   4.139   1.699  1.1623 -0.0435 -0.4906
 4604TIP3    H213756   3.448   4.030   1.650 -0.7670 -0.9698 -2.0856
 4605TIP3   OH213757   1.702   7.050   4.219  0.3783  0.2589 -0.0782
 4605TIP3    H113758   1.687   7.138   4.185 -0.7599 -0.3109 -1.1031
 4605TIP3    H213759   1.756   7.008   4.151 -1.1758 -0.6098 -0.8102
 4606TIP3   OH213760   3.198   4.503   2.038  0.3039  0.4066  0.3831
 4606TIP3    H113761   3.283   4.505   1.995 -0.2464  0.8208 -0.6893
 4606TIP3    H213762   3.185   4.593   2.071  0.4096  0.2729  0.7927
 4607TIP3   OH213763   4.312   6.203   2.228  0.1954 -0.3080  0.4412
 4607TIP3    H113764   4.284   6.230   2.140 -0.9998  0.5712  1.0707
 4607TIP3    H213765   4.253   6.131   2.250 -1.0023  0.9354  1.3986
 4608TIP3   OH213766   1.124   5.845   0.763  0.1357  0.9877 -0.4192
 4608TIP3    H113767   1.057   5.852   0.830  0.4012  0.6531 -0.1151
 4608TIP3    H213768   1.105   5.916   0.702 -0.9691  0.3963 -0.7605
 4609TIP3   OH213769   3.160   4.919   3.386 -0.4430 -0.1477 -0.0521
 4609TIP3    H113770   3.100   4.919   3.311 -1.1583  0.3992  0.5237
 4609TIP3    H213771   3.176   4.826   3.403 -0.9945 -0.2952 -0.3056
 4610TIP3   OH213772  -0.027   4.190   2.323 -1.3449 -0.0148  0.0729
 4610TIP3    H113773   0.023   4.120   2.364  0.3483 -0.4600 -2.7116
 4610TIP3    H213774   0.022   4.270   2.345 -0.7983 -0.1801 -0.5567
 4611TIP3   OH213775   5.238   4.362   0.631 -0.5662  0.2054  0.4212
 4611TIP3    H113776   5.300   4.366   0.558 -0.3714  1.6621  0.6578
 4611TIP3    H213777   5.154   4.340   0.589 -0.2855  0.1467 -0.1243
 4612TIP3   OH213778   1.865   5.456   3.456 -0.2502  0.1196  0.4607
 4612TIP3    H113779   1.893   5.399   3.527 -2.4600 -0.6541  0.7435
 4612TIP3    H213780   1.881   5.405   3.376  1.9998  0.8933  0.3937
 4613TIP3   OH213781   2.586   5.579   4.281  0.1006 -0.8261  0.5298
 4613TIP3    H113782   2.587   5.569   4.186  0.8479 -0.1639  0.4663
 4613TIP3    H213783   2.497   5.554   4.307  0.0517 -1.5195 -0.2849
 4614TIP3   OH213784   4.692   7.427   2.149 -0.2801 -0.0919 -0.3167
 4614TIP3    H113785   4.756   7.414   2.219  0.6626 -0.1578 -1.1792
 4614TIP3    H213786   4.745   7.440   2.070 -1.3321 -0.4282 -1.0914
 4615TIP3   OH213787   2.813   3.383   3.686  0.0275 -0.3908 -0.0642
 4615TIP3    H113788   2.790   3.334   3.765  0.6339  0.6391  0.7735
 4615TIP3    H213789   2.770   3.336   3.615 -0.8441 -1.1253  0.9274
 4616TIP3   OH213790   2.725   4.416   3.143  0.0988  0.0203 -0.0100
 4616TIP3    H113791   2.744   4.420   3.237 -1.7406  0.1056  0.3869
 4616TIP3    H213792   2.760   4.332   3.115  0.0658 -0.3069  0.9093
 4617TIP3   OH213793   4.145   5.864   3.050  0.2372 -0.6322 -0.1379
 4617TIP3    H113794   4.143   5.783   3.000 -1.3738 -0.2201 -0.7543
 4617TIP3    H213795   4.062   5.865   3.097  0.7158  0.1475  0.6999
 4618TIP3   OH213796   1.243   7.545   1.357  0.0349  0.2208 -0.0348
 4618TIP3    H113797   1.302   7.496   1.415 -0.7281 -0.3273  0.2879
 4618TIP3    H213798   1.157   7.506   1.373  0.0557 -0.9862 -2.6458
 4619TIP3   OH213799   5.479   6.412   1.876  0.0012  0.3752 -0.4979
 4619TIP3    H113800   5.542   6.406   1.948 -0.3912 -0.9311 -0.2562
 4619TIP3    H213801   5.534   6.417   1.798  0.4486  2.9791 -0.0555
 4620TIP3   OH213802   2.104   7.062   3.252  0.0496  0.0862  0.3057
 4620TIP3    H113803   2.089   7.155   3.269 -1.8769 -0.3262  1.0666
 4620TIP3    H213804   2.143   7.029   3.333 -0.4863 -0.0093  0.5321
 4621TIP3   OH213805   4.205   5.511   1.667  0.7417 -0.3255  0.2303
 4621TIP3    H113806   4.246   5.555   1.742 -0.8356 -0.9943  1.5231
 4621TIP3    H213807   4.143   5.576   1.633  0.0448 -0.7134  0.7392
 4622TIP3   OH213808   7.973   2.587   6.784  0.2872 -0.6666 -0.3782
 4622TIP3    H113809   7.924   2.662   6.817  3.0195  0.4188  1.4300
 4622TIP3    H213810   7.923   2.557   6.708 -1.8234  1.8814 -0.0694
 4623TIP3   OH213811   1.580   7.118   1.756 -0.0457 -0.4317 -0.0401
 4623TIP3    H113812   1.660   7.076   1.724  0.2356 -0.6059  0.8554
 4623TIP3    H213813   1.575   7.091   1.848 -0.9026 -0.0672  0.0238
 4624TIP3   OH213814   1.405   6.495   1.624  0.5323 -0.5898 -0.1795
 4624TIP3    H113815   1.474   6.538   1.573  0.9622 -2.2669 -1.0366
 4624TIP3    H213816   1.408   6.404   1.596 -1.7549 -0.7628  0.1030
 4625TIP3   OH213817   3.713   5.051   2.129 -0.1209  1.0485  0.4256
 4625TIP3    H113818   3.793   5.069   2.079  0.4409 -4.9458 -1.2173
 4625TIP3    H213819   3.690   4.961   2.105 -4.8095  1.0187  4.3944
 4626TIP3   OH213820   4.073   4.809   3.024  0.5643  0.2953 -0.3761
 4626TIP3    H113821   4.092   4.717   3.004  2.1921  0.2365  1.2457
 4626TIP3    H213822   3.982   4.821   2.998 -0.0792 -2.1456  0.5908
 4627TIP3   OH213823   2.708   5.262   2.682  0.1073  0.1795  0.0961
 4627TIP3    H113824   2.625   5.261   2.634  0.5246  0.6455 -0.6416
 4627TIP3    H213825   2.691   5.209   2.760 -1.0466  0.6957  0.2164
 4628TIP3   OH213826   1.694   6.132   0.634  0.5676 -0.6192 -0.2493
 4628TIP3    H113827   1.707   6.163   0.724  0.2938 -0.2286 -0.3404
 4628TIP3    H213828   1.688   6.213   0.582 -2.2465 -0.7429 -0.2118
 4629TIP3   OH213829   2.844   5.825   3.865 -0.0479 -0.0378  0.0358
 4629TIP3    H113830   2.834   5.756   3.931  0.9856 -0.5664 -0.3505
 4629TIP3    H213831   2.755   5.856   3.849 -0.3847 -0.4427  1.1127
 4630TIP3   OH213832   3.428   5.704   3.053 -0.0546 -0.3249 -0.3866
 4630TIP3    H113833   3.435   5.774   3.118  1.0903 -1.3580  0.6100
 4630TIP3    H213834   3.380   5.634   3.098 -0.0866 -0.6815 -0.9694
 4631TIP3   OH213835   4.824   7.327   2.726  0.2014 -0.6009 -0.1191
 4631TIP3    H113836   4.896   7.314   2.665 -0.0499 -0.5783 -0.4195
 4631TIP3    H213837   4.758   7.374   2.676  0.6475  0.8519  0.6230
 4632TIP3   OH213838   3.867   5.980   2.546 -0.1220  0.1668  0.0477
 4632TIP3    H113839   3.886   5.968   2.639 -1.7485  0.2941  0.4077
 4632TIP3    H213840   3.926   6.050   2.518  0.0467  0.4443  1.0846
 4633TIP3   OH213841   3.388   6.975   2.058 -0.2003 -0.1132  0.1157
 4633TIP3    H113842   3.353   7.058   2.090 -0.1948 -0.4877  1.1254
 4633TIP3    H213843   3.325   6.909   2.086 -0.1332 -0.4630 -0.5549
 4634TIP3   OH213844   3.436   7.470   2.661  0.7265 -0.0275 -0.7989
 4634TIP3    H113845   3.519   7.467   2.613  0.5200 -0.9432 -1.1137
 4634TIP3    H213846   3.451   7.415   2.738  0.7371  0.6349 -0.3265
 4635TIP3   OH213847   6.897   0.050   3.487  0.3452 -0.1757 -0.7064
 4635TIP3    H113848   6.888   0.015   3.576  1.3758  0.1740 -0.4458
 4635TIP3    H213849   6.951   0.128   3.498  0.3199 -0.0244 -1.6183
 4636TIP3   OH213850   3.371   7.404   1.508 -0.8442 -0.2525 -0.7498
 4636TIP3    H113851   3.430   7.342   1.550  0.6961  1.6226 -0.0504
 4636TIP3    H213852   3.426   7.451   1.445 -1.2299  2.3968  0.8015
 4637TIP3   OH213853   4.239   4.297   2.210  0.1858 -0.2227  0.1659
 4637TIP3    H113854   4.315   4.342   2.173  0.8758 -2.2720 -1.0281
 4637TIP3    H213855   4.254   4.298   2.304  1.3534  0.0093 -0.0116
 4638TIP3   OH213856   2.669   7.786   1.966 -0.2109  0.0526 -0.1970
 4638TIP3    H113857   2.716   7.869   1.954 -0.9696  0.4916 -0.1692
 4638TIP3    H213858   2.638   7.790   2.056  0.5870 -0.7022  0.1168
 4639TIP3   OH213859   4.292   4.592   3.520 -0.4557 -0.3374  0.2704
 4639TIP3    H113860   4.382   4.613   3.545  0.0134  0.6736 -2.1762
 4639TIP3    H213861   4.279   4.501   3.548  1.4448 -0.6026  0.2966
 4640TIP3   OH213862   3.507   7.678   2.316 -0.5054 -0.0637  0.4943
 4640TIP3    H113863   3.486   7.676   2.222  1.7876 -0.7037 -0.0341
 4640TIP3    H213864   3.510   7.585   2.341  1.7182  0.0155  0.5321
 4641TIP3   OH213865   3.203   5.797   2.322 -0.4136  0.2162  0.0412
 4641TIP3    H113866   3.183   5.784   2.415 -1.3030 -1.2477 -0.3415
 4641TIP3    H213867   3.184   5.712   2.282  1.0011  0.5328 -1.3042
 4642TIP3   OH213868   4.266   6.405   1.679 -0.2018  0.0787  0.0091
 4642TIP3    H113869   4.262   6.475   1.744 -1.8078 -0.2411  0.2724
 4642TIP3    H213870   4.227   6.329   1.722 -0.1173 -0.4930 -0.8965
 4643TIP3   OH213871   5.521   6.858   2.140  0.5703  0.3556  0.4264
 4643TIP3    H113872   5.435   6.878   2.104  1.3863  1.6820 -0.8317
 4643TIP3    H213873   5.503   6.801   2.215 -1.3743  0.4195  0.0279
 4644TIP3   OH213874   7.800   2.720   6.546 -0.0314 -0.2594 -0.1223
 4644TIP3    H113875   7.884   2.733   6.503 -0.8909  1.7922 -1.2598
 4644TIP3    H213876   7.807   2.634   6.588  2.9480  0.2906  0.6004
 4645TIP3   OH213877   1.161   4.083   0.372 -0.4084  0.6782  0.2875
 4645TIP3    H113878   1.161   4.011   0.435 -1.1883  1.6412  1.4051
 4645TIP3    H213879   1.106   4.053   0.300 -1.2366  0.4009  1.0361
 4646TIP3   OH213880   4.507   6.733   2.624 -0.0850  0.3667  0.0371
 4646TIP3    H113881   4.418   6.748   2.591  0.4793  1.2062 -1.1453
 4646TIP3    H213882   4.499   6.742   2.719 -1.2501  0.5003 -0.0608
 4647TIP3   OH213883   3.128   7.500   2.645 -0.1414 -0.4277 -0.2606
 4647TIP3    H113884   3.176   7.568   2.597  1.1245 -0.4300  0.9953
 4647TIP3    H213885   3.157   7.418   2.606 -1.1086 -0.3234 -1.2619
 4648TIP3   OH213886   0.940   2.648   2.109  0.0209 -0.4154 -0.2484
 4648TIP3    H113887   1.002   2.600   2.054 -0.2345 -1.9827  0.7815
 4648TIP3    H213888   0.949   2.607   2.195 -0.8601  0.8155  0.4404
 4649TIP3   OH213889   4.339   6.380   0.950  0.5851  0.6056 -0.0694
 4649TIP3    H113890   4.324   6.421   0.865 -0.4472 -0.2071 -0.2971
 4649TIP3    H213891   4.374   6.293   0.929  0.4464  0.4486  0.3360
 4650TIP3   OH213892   2.078   7.597   1.349 -0.4774  0.3091  0.2624
 4650TIP3    H113893   2.128   7.611   1.429  0.8885  1.2426 -0.7360
 4650TIP3    H213894   2.109   7.513   1.315  0.0970  0.6757 -0.1232
 4651TIP3   OH213895   3.082   5.029   3.104 -0.2300  0.4039  0.1411
 4651TIP3    H113896   3.032   5.108   3.124 -0.8095  0.5702 -1.8622
 4651TIP3    H213897   3.015   4.964   3.084  0.2849 -0.2528  0.5252
 4652TIP3   OH213898   5.641   4.681   3.422  0.1537 -0.4384 -0.3075
 4652TIP3    H113899   5.578   4.706   3.489  0.9392 -3.4663  1.6318
 4652TIP3    H213900   5.725   4.717   3.453  0.6360 -2.3906  0.6874
 4653TIP3   OH213901   3.584   5.694   1.311 -0.3689  0.0940  0.4452
 4653TIP3    H113902   3.652   5.749   1.349 -1.1564  0.8507  0.8023
 4653TIP3    H213903   3.593   5.706   1.217 -1.8543  2.5345  0.5553
 4654TIP3   OH213904   4.293   3.169   2.339 -0.5142  0.3244 -0.5998
 4654TIP3    H113905   4.270   3.246   2.391  1.5148  0.5931 -0.0564
 4654TIP3    H213906   4.279   3.095   2.398  0.7861  0.5523  0.0173
 4655TIP3   OH213907   3.977   5.597   2.006  0.0530  0.3542 -0.0056
 4655TIP3    H113908   4.053   5.651   1.984  0.0890  1.4880  2.7798
 4655TIP3    H213909   3.989   5.573   2.098 -2.9265  0.5487  0.5039
 4656TIP3   OH213910   5.698   4.973   1.369 -0.0778  0.0309 -0.5537
 4656TIP3    H113911   5.656   4.905   1.317  0.9028 -1.6265  0.7482
 4656TIP3    H213912   5.631   5.001   1.430  0.2942 -1.8001  0.7595
 4657TIP3   OH213913   4.954   5.765   1.989  0.4825  0.4165 -0.8368
 4657TIP3    H113914   4.992   5.698   1.932  1.3928  1.7579 -1.8358
 4657TIP3    H213915   4.868   5.730   2.014  1.7639 -2.0122  0.3139
 4658TIP3   OH213916   5.378   5.469   1.996  0.1941 -0.0661 -0.0504
 4658TIP3    H113917   5.370   5.419   1.915  2.4118  0.0049 -0.3413
 4658TIP3    H213918   5.365   5.560   1.969  0.7061 -0.0629 -0.2855
 4659TIP3   OH213919   3.391   5.620   3.653 -0.0020  0.3658  0.2769
 4659TIP3    H113920   3.446   5.691   3.685  0.2811  0.6042 -0.7178
 4659TIP3    H213921   3.307   5.633   3.697  0.4513  0.5469  1.0936
 4660TIP3   OH213922   4.569   0.200   1.570 -0.0013  0.7690  0.3729
 4660TIP3    H113923   4.593   0.168   1.657  0.9480  1.4003  0.3548
 4660TIP3    H213924   4.510   0.133   1.535  1.6999 -0.8094  0.4547
 4661TIP3   OH213925   2.787   6.520   1.312  0.0501 -0.3316  0.2318
 4661TIP3    H113926   2.843   6.583   1.357 -1.0463  1.3401 -0.7127
 4661TIP3    H213927   2.720   6.498   1.377 -0.5704  0.8195 -0.0036
 4662TIP3   OH213928   4.592   7.888   1.455  1.2478  0.7318 -0.6568
 4662TIP3    H113929   4.546   7.843   1.526  0.1404  0.6360 -1.4333
 4662TIP3    H213930   4.681   7.855   1.460  0.8149 -0.3970 -0.2527
 4663TIP3   OH213931   3.967   4.787   1.419 -0.1230  0.4043 -0.0558
 4663TIP3    H113932   4.057   4.803   1.446  0.7065 -2.1801 -1.1699
 4663TIP3    H213933   3.939   4.869   1.378  1.5297  1.4037  0.8056
 4664TIP3   OH213934   1.901   6.618   2.422 -0.0649  0.6150 -0.4778
 4664TIP3    H113935   1.869   6.537   2.382  1.1182  0.3893 -0.9924
 4664TIP3    H213936   1.836   6.639   2.489 -0.6498 -0.4809 -0.6939
 4665TIP3   OH213937   5.575   0.558   3.483 -0.2081  0.1444 -0.2212
 4665TIP3    H113938   5.608   0.637   3.440 -1.3283  0.4006 -0.6397
 4665TIP3    H213939   5.570   0.582   3.575 -1.0746  0.7528 -0.4219
 4666TIP3   OH213940   6.463   5.511   3.603  0.3699 -0.0234 -0.6568
 4666TIP3    H113941   6.466   5.521   3.508  0.6911 -1.0972 -0.7612
 4666TIP3    H213942   6.444   5.418   3.617 -0.7254  0.3255  0.3196
 4667TIP3   OH213943   1.739   5.847   2.979 -0.8643 -0.2706  0.0655
 4667TIP3    H113944   1.669   5.818   3.037  0.8903 -2.3733  1.2032
 4667TIP3    H213945   1.730   5.791   2.902  0.0466 -1.0931  0.5524
 4668TIP3   OH213946   4.004   7.519   2.674  0.4269 -0.0514 -0.0786
 4668TIP3    H113947   3.979   7.583   2.741 -0.6754  0.1939 -0.7199
 4668TIP3    H213948   3.969   7.555   2.592 -2.0792 -2.5192 -0.1572
 4669TIP3   OH213949   3.975   5.471   0.793 -0.0169  0.5724 -0.4080
 4669TIP3    H113950   3.921   5.487   0.715  0.9729  0.4291 -1.1207
 4669TIP3    H213951   4.045   5.413   0.764  0.0747  0.0989  0.7086
 4670TIP3   OH213952   3.513   6.354   4.005  0.1668 -0.0606  0.4070
 4670TIP3    H113953   3.545   6.409   3.933 -0.7252 -1.3244 -0.9578
 4670TIP3    H213954   3.502   6.416   4.078  0.0575  1.4234 -0.8300
 4671TIP3   OH213955   1.453   5.039   4.350  0.7473 -0.4105  0.1409
 4671TIP3    H113956   1.431   5.099   4.421 -1.4985 -3.2526  1.9213
 4671TIP3    H213957   1.503   4.969   4.391  1.9149 -0.6463 -1.6094
 4672TIP3   OH213958   4.044   5.654   2.901  0.4148 -0.0908  0.1807
 4672TIP3    H113959   4.017   5.569   2.936  0.1385  0.6293  1.7901
 4672TIP3    H213960   4.098   5.633   2.825 -1.4675 -1.6420 -0.7677
 4673TIP3   OH213961   1.714   3.227   6.727  0.5517  0.0135 -0.2701
 4673TIP3    H113962   1.756   3.161   6.671  0.3045  0.9973 -1.6454
 4673TIP3    H213963   1.629   3.189   6.749  0.2796 -0.0052 -1.3173
 4674TIP3   OH213964   4.775   6.495   3.692 -0.3954 -0.2112  0.5812
 4674TIP3    H113965   4.780   6.591   3.694 -2.4485 -0.0872  1.5493
 4674TIP3    H213966   4.687   6.477   3.659 -0.0058 -1.7561  0.3913
 4675TIP3   OH213967   3.274   6.737   3.901 -0.3177 -0.3108 -0.1568
 4675TIP3    H113968   3.275   6.810   3.839 -2.0702 -0.9319 -0.9577
 4675TIP3    H213969   3.203   6.758   3.962  1.3548  0.2614  1.6166
 4676TIP3   OH213970   1.988   5.286   2.790  0.6934  0.4346 -0.2879
 4676TIP3    H113971   1.988   5.278   2.695  0.6848 -1.0555 -0.1729
 4676TIP3    H213972   2.075   5.258   2.817  1.1424  2.1037  0.0593
 4677TIP3   OH213973   4.833   5.234   0.981 -0.2254 -0.5092  0.8246
 4677TIP3    H113974   4.870   5.192   0.904 -1.7759 -0.2767 -0.0628
 4677TIP3    H213975   4.796   5.316   0.948 -1.1047 -0.5213  1.7734
 4678TIP3   OH213976   2.959   3.567   6.843  0.5477 -0.4321 -0.1672
 4678TIP3    H113977   3.030   3.626   6.867  0.7781 -0.8120  0.0968
 4678TIP3    H213978   2.883   3.624   6.830  1.1149  0.0828 -1.3321
 4679TIP3   OH213979   3.863   5.391   4.156  0.5562 -0.3053 -0.5073
 4679TIP3    H113980   3.840   5.466   4.211  1.0174 -0.1824 -0.4868
 4679TIP3    H213981   3.781   5.340   4.151  0.6000 -0.4988  0.5877
 4680TIP3   OH213982   4.744   7.838   0.996 -0.5299 -0.0622  0.0391
 4680TIP3    H113983   4.736   7.744   0.983  2.0238 -0.3908  0.6897
 4680TIP3    H213984   4.807   7.848   1.067 -3.0554  2.0964  2.1062
 4681TIP3   OH213985   2.179   4.980   3.753 -0.2086  0.1722  0.0113
 4681TIP3    H113986   2.269   5.009   3.768 -0.3091 -0.9066  2.9451
 4681TIP3    H213987   2.125   5.041   3.805 -1.2784  1.2620 -2.2834
 4682TIP3   OH213988   4.586   4.548   1.661  0.3480  0.3608  0.0824
 4682TIP3    H113989   4.490   4.551   1.668  0.3020  1.0444 -0.7789
 4682TIP3    H213990   4.610   4.465   1.703 -0.6263  0.1392  0.2290
 4683TIP3   OH213991   3.457   5.433   2.317  0.5944 -0.9487 -0.6258
 4683TIP3    H113992   3.475   5.398   2.230  1.9938 -1.5589 -0.1118
 4683TIP3    H213993   3.430   5.357   2.369 -1.3206 -0.3999 -0.8034
 4684TIP3   OH213994   2.098   4.603   4.040  0.1094  0.1568  0.6947
 4684TIP3    H113995   2.026   4.590   3.978  0.6113  1.0449 -0.0990
 4684TIP3    H213996   2.146   4.521   4.039  0.1452  0.1886 -0.1421
 4685TIP3   OH213997   5.341   5.460   1.249 -0.4431 -0.1497  0.0161
 4685TIP3    H113998   5.436   5.465   1.254 -0.4673 -0.6975  1.1225
 4685TIP3    H213999   5.323   5.414   1.167  0.2345  0.2639 -0.3657
 4686TIP3   OH214000   2.330   5.546   3.880 -0.4517  0.0134 -0.0599
 4686TIP3    H114001   2.382   5.469   3.856  1.1652  0.9211  0.4097
 4686TIP3    H214002   2.382   5.620   3.848 -1.3776  0.9508  0.5869
 4687TIP3   OH214003   3.412   4.464   4.217 -0.5599  0.1088 -0.5419
 4687TIP3    H114004   3.410   4.370   4.235 -0.2225  0.4083  1.1091
 4687TIP3    H214005   3.436   4.470   4.124 -1.5054 -1.4496 -0.8973
 4688TIP3   OH214006   3.402   5.053   2.959 -0.1541  0.1393 -0.2156
 4688TIP3    H114007   3.344   5.130   2.958  0.4807  0.6205 -0.5813
 4688TIP3    H214008   3.425   5.041   3.051  0.5875  1.0375 -0.2729
 4689TIP3   OH214009   2.942   4.566   2.969  0.0787 -0.1368 -0.2524
 4689TIP3    H114010   3.011   4.500   2.968  0.5697  0.3692 -1.8403
 4689TIP3    H214011   2.867   4.522   2.927  0.3011  0.1844 -1.0019
 4690TIP3   OH214012   4.173   5.567   3.858  0.2285  0.0272 -0.0633
 4690TIP3    H114013   4.107   5.623   3.899  1.5092  0.9587  0.7448
 4690TIP3    H214014   4.151   5.478   3.887 -1.5269  0.1342 -0.9731
 4691TIP3   OH214015   4.143   7.065   5.301  0.5660  0.1845 -0.7378
 4691TIP3    H114016   4.229   7.052   5.340  0.8547 -0.8890 -1.7134
 4691TIP3    H214017   4.090   6.992   5.334 -0.4546  1.7197  1.1459
 4692TIP3   OH214018   4.671   5.443   3.738  0.0543  0.3596 -0.7028
 4692TIP3    H114019   4.751   5.480   3.775 -0.3182 -0.3861  0.9089
 4692TIP3    H214020   4.613   5.518   3.725  0.5126  0.7359 -0.5911
 4693TIP3   OH214021   2.284   4.416   4.317  0.2558  0.5641 -0.0594
 4693TIP3    H114022   2.244   4.378   4.239  0.6429 -1.6730  0.7961
 4693TIP3    H214023   2.378   4.401   4.306  0.5753  2.6484 -0.4057
 4694TIP3   OH214024   1.595   6.723   1.559 -0.6917 -0.8005  0.3060
 4694TIP3    H114025   1.526   6.729   1.626 -0.7430 -0.4588  0.2259
 4694TIP3    H214026   1.646   6.803   1.571 -2.0478  0.3873 -1.5298
 4695TIP3   OH214027   2.226   2.257   3.845 -0.1429 -0.2632  0.0675
 4695TIP3    H114028   2.266   2.231   3.928 -2.6338  0.2954  1.4823
 4695TIP3    H214029   2.255   2.348   3.833  1.2755 -0.7615 -0.3478
 4696TIP3   OH214030   2.676   5.917   4.284 -0.5170  0.2169  0.1891
 4696TIP3    H114031   2.769   5.900   4.294 -0.4494 -1.2623 -2.3913
 4696TIP3    H214032   2.671   5.999   4.237 -0.4769 -0.3399 -0.7921
 4697TIP3   OH214033   1.653   6.141   2.723  0.3775  0.3249  0.0619
 4697TIP3    H114034   1.660   6.046   2.712 -0.4087  0.2228  0.4276
 4697TIP3    H214035   1.599   6.169   2.649  1.1291  0.5662 -0.3942
 4698TIP3   OH214036   5.122   6.115   2.292 -0.6178 -0.8076 -0.7498
 4698TIP3    H114037   5.136   6.083   2.381 -0.3319  0.4013 -0.3459
 4698TIP3    H214038   5.043   6.071   2.263 -2.1958  0.7069  1.0670
 4699TIP3   OH214039   3.033   5.961   4.592 -0.3833  0.1043 -0.5681
 4699TIP3    H114040   2.980   6.012   4.531 -0.6308 -0.1547 -0.5762
 4699TIP3    H214041   2.971   5.898   4.629 -0.5439  1.1207  0.9397
 4700TIP3   OH214042   4.516   7.685   1.169  0.0074  0.6273 -0.0521
 4700TIP3    H114043   4.536   7.682   1.263 -0.1869  1.1005  0.0049
 4700TIP3    H214044   4.578   7.623   1.130  0.3347  0.6967  0.3480
 4701TIP3   OH214045   4.355   5.460   3.661 -0.1656  0.0175  0.3250
 4701TIP3    H114046   4.315   5.384   3.703 -0.8860 -0.2020 -0.7344
 4701TIP3    H214047   4.343   5.531   3.724 -0.2418 -0.5500  0.9610
 4702TIP3   OH214048   4.494   6.483   1.870  0.7478 -0.4960  0.1313
 4702TIP3    H114049   4.577   6.523   1.893  0.6095  1.0806 -2.0286
 4702TIP3    H214050   4.453   6.545   1.810 -1.1890 -2.0947 -0.2475
 4703TIP3   OH214051   6.626   0.616   2.619 -0.3708  0.2719  0.3113
 4703TIP3    H114052   6.660   0.698   2.655 -2.0315  0.7269  0.9015
 4703TIP3    H214053   6.671   0.547   2.669  3.4601  0.6867 -2.3738
 4704TIP3   OH214054   3.065   2.140   6.868  0.1652  0.5289 -0.3306
 4704TIP3    H114055   3.035   2.223   6.832  2.9197  1.3535 -0.8804
 4704TIP3    H214056   3.029   2.137   6.956 -0.9888  1.7204 -0.7460
 4705TIP3   OH214057   2.057   6.406   1.832 -0.5525 -0.1220  0.3679
 4705TIP3    H114058   2.043   6.345   1.760 -2.2368 -0.5185  1.0130
 4705TIP3    H214059   2.075   6.351   1.908 -0.5171  0.2490  0.6324
 4706TIP3   OH214060   3.319   2.566   2.958 -0.1161 -0.9159  0.2887
 4706TIP3    H114061   3.410   2.579   2.988 -0.5269  0.1858  1.0961
 4706TIP3    H214062   3.319   2.477   2.922  0.6588 -1.9404  2.6806
 4707TIP3   OH214063   2.487   7.924   4.529 -0.4111  0.4746 -0.7458
 4707TIP3    H114064   2.525   7.903   4.615 -1.3431  0.3402 -0.3608
 4707TIP3    H214065   2.398   7.951   4.549 -1.0603 -0.8408 -1.7957
 4708TIP3   OH214066   2.620   5.993   3.870  0.3089 -0.0532  0.3937
 4708TIP3    H114067   2.554   5.941   3.915  0.7796  0.6502  1.9285
 4708TIP3    H214068   2.613   6.080   3.909  3.5364 -0.4835  2.1035
 4709TIP3   OH214069   4.154   6.074   2.539  0.1353  0.2396  0.2045
 4709TIP3    H114070   4.203   6.154   2.557  0.9083 -0.1724 -0.0333
 4709TIP3    H214071   4.208   6.004   2.575 -0.8657 -0.1197  1.0230
 4710TIP3   OH214072   1.296   0.424   5.941  0.3756  0.1288  0.1670
 4710TIP3    H114073   1.268   0.492   5.879 -1.7929  0.8674  1.8748
 4710TIP3    H214074   1.377   0.458   5.978  0.8578  0.4052 -1.1278
 4711TIP3   OH214075   4.650   5.862   1.179 -0.2098  1.0922  0.0829
 4711TIP3    H114076   4.627   5.865   1.086 -2.3011 -1.2622  0.4694
 4711TIP3    H214077   4.581   5.911   1.222  1.0252  2.5986  0.3824
 4712TIP3   OH214078   6.286   4.367   2.384 -0.8566  0.2331  0.1865
 4712TIP3    H114079   6.253   4.425   2.452  0.2089 -0.1521  1.0449
 4712TIP3    H214080   6.243   4.283   2.401  1.6978 -0.7256  2.2983
 4713TIP3   OH214081   3.000   6.292   4.280 -1.0291 -0.1041  0.2824
 4713TIP3    H114082   2.922   6.348   4.287  0.3214  1.9293 -0.3291
 4713TIP3    H214083   3.071   6.353   4.257  0.5274 -2.0719 -0.2837
 4714TIP3   OH214084   1.778   5.150   1.797  0.4470  0.5124  0.0422
 4714TIP3    H114085   1.696   5.102   1.789  0.6492 -0.1226  1.5971
 4714TIP3    H214086   1.839   5.102   1.741 -0.4124  1.4285 -1.7143
 4715TIP3   OH214087   6.160   6.621   4.492 -0.2507  0.2148  0.2782
 4715TIP3    H114088   6.108   6.682   4.545 -1.0761 -0.3953  0.1693
 4715TIP3    H214089   6.152   6.654   4.403 -0.2434  0.2615  0.2947
 4716TIP3   OH214090   4.372   6.814   1.180 -0.2162 -1.0010 -0.3116
 4716TIP3    H114091   4.415   6.728   1.179  1.3958 -0.2088 -0.6003
 4716TIP3    H214092   4.399   6.855   1.097  0.1344  0.3122  0.4444
 4717TIP3   OH214093   3.314   5.432   4.859 -0.6107 -0.1731 -0.2955
 4717TIP3    H114094   3.321   5.410   4.951  2.4926 -1.5261 -0.7859
 4717TIP3    H214095   3.363   5.514   4.850 -1.3904  0.2571 -0.6420
 4718TIP3   OH214096   1.826   5.416   1.843  0.0717  0.2481  0.2035
 4718TIP3    H114097   1.795   5.326   1.843  0.9802 -0.1107  2.5251
 4718TIP3    H214098   1.749   5.468   1.866 -0.5416  0.1179 -1.5092
 4719TIP3   OH214099   4.380   5.393   4.015 -0.5450 -0.1949  0.1530
 4719TIP3    H114100   4.424   5.450   3.951  1.4606 -2.7441 -0.8035
 4719TIP3    H214101   4.380   5.444   4.096  3.2587  0.3343 -0.1114
 4720TIP3   OH214102   5.529   4.255   2.486 -0.5998  0.6404  0.0572
 4720TIP3    H114103   5.524   4.196   2.561 -0.8654 -0.7527 -1.0334
 4720TIP3    H214104   5.578   4.206   2.420 -3.7909  0.2470 -2.1173
 4721TIP3   OH214105   2.011   4.670   4.311  0.2790  0.1539  0.0263
 4721TIP3    H114106   2.058   4.748   4.340 -0.8775  1.1522 -0.7715
 4721TIP3    H214107   2.041   4.655   4.222  0.9293 -0.6638  0.3718
 4722TIP3   OH214108   3.619   6.824   2.819 -0.7002 -0.5995 -0.1133
 4722TIP3    H114109   3.587   6.769   2.890  0.0442 -2.5593 -1.2659
 4722TIP3    H214110   3.646   6.763   2.751  0.8651  1.1692 -1.1352
 4723TIP3   OH214111   2.519   5.748   1.673  0.2220  0.2330  0.1561
 4723TIP3    H114112   2.458   5.718   1.740 -0.9329 -0.2742 -1.1006
 4723TIP3    H214113   2.578   5.674   1.659 -0.2280 -0.0645 -0.1763
 4724TIP3   OH214114   2.067   5.886   3.647  0.1361 -0.3160 -0.4842
 4724TIP3    H114115   2.036   5.822   3.583 -1.3818 -0.0833 -0.0017
 4724TIP3    H214116   2.017   5.867   3.726  0.2892  0.9161 -0.0774
 4725TIP3   OH214117   3.390   7.571   5.158  0.0892 -0.2666 -0.5719
 4725TIP3    H114118   3.392   7.492   5.212 -0.9951  0.5428  0.6865
 4725TIP3    H214119   3.430   7.545   5.075 -0.8056 -2.3122 -0.3910
 4726TIP3   OH214120   4.300   5.454   1.153 -0.0615 -0.4647 -0.4897
 4726TIP3    H114121   4.380   5.401   1.160  0.1819 -0.3139 -2.1468
 4726TIP3    H214122   4.308   5.518   1.224 -0.0513 -2.2061  1.1400
 4727TIP3   OH214123   3.022   7.231   2.567  0.3004 -0.2128  0.3274
 4727TIP3    H114124   2.931   7.215   2.543 -0.2725 -1.9991  3.3878
 4727TIP3    H214125   3.017   7.262   2.658  2.5780  2.2679 -0.3452
 4728TIP3   OH214126   3.258   4.211   2.733 -0.4182 -1.0335  0.2060
 4728TIP3    H114127   3.262   4.117   2.711 -0.0672 -0.9611 -0.0487
 4728TIP3    H214128   3.239   4.254   2.650 -0.3855 -0.8654  0.2867
 4729TIP3   OH214129   2.947   6.447   1.704 -0.0583 -0.4710 -0.1109
 4729TIP3    H114130   2.959   6.432   1.798  0.5695 -1.9399 -0.3931
 4729TIP3    H214131   2.863   6.492   1.697 -1.0222 -2.0255  1.0323
 4730TIP3   OH214132   0.987   6.505   2.416  0.7834 -0.3032 -0.0958
 4730TIP3    H114133   0.980   6.581   2.474 -0.8043 -0.1368 -0.4712
 4730TIP3    H214134   1.080   6.499   2.395  1.2432  0.2064  1.7099
 4731TIP3   OH214135   2.747   6.219   1.056 -0.3333 -0.5573  0.3996
 4731TIP3    H114136   2.808   6.239   1.127 -1.2937 -0.4811  1.2283
 4731TIP3    H214137   2.684   6.291   1.058  0.6089  0.3716 -1.6847
 4732TIP3   OH214138   4.589   5.746   2.552 -0.3438  0.4227  0.1831
 4732TIP3    H114139   4.643   5.667   2.552  0.2810  0.8385 -0.4628
 4732TIP3    H214140   4.542   5.742   2.469  0.6828  1.3826 -0.4663
 4733TIP3   OH214141   4.679   5.180   2.906  0.0072 -0.1699  0.4139
 4733TIP3    H114142   4.731   5.259   2.921  0.6732 -0.0276 -2.2793
 4733TIP3    H214143   4.742   5.108   2.912 -0.1358 -0.2847  0.5373
 4734TIP3   OH214144   2.335   6.837   3.113 -0.3398  0.3718  0.3079
 4734TIP3    H114145   2.244   6.809   3.130 -0.4723  0.5865 -0.0476
 4734TIP3    H214146   2.383   6.811   3.191 -0.5500 -0.4848  0.1640
 4735TIP3   OH214147   2.654   6.569   2.316  0.4417  0.4435 -0.5821
 4735TIP3    H114148   2.568   6.607   2.299 -0.0048  0.4343  1.4977
 4735TIP3    H214149   2.713   6.644   2.319  0.2777  0.5766 -0.6586
 4736TIP3   OH214150   2.416   6.102   0.637 -0.6856  0.5949 -0.0307
 4736TIP3    H114151   2.342   6.140   0.684 -0.6375  0.5712  0.0632
 4736TIP3    H214152   2.470   6.063   0.705 -0.9321  0.0212 -0.1669
 4737TIP3   OH214153   4.089   5.377   4.530  0.4859 -0.2768  0.2694
 4737TIP3    H114154   4.169   5.426   4.508  0.1409 -0.0585 -0.5038
 4737TIP3    H214155   4.094   5.298   4.476  1.3479 -1.4215  1.9685
 4738TIP3   OH214156   1.647   5.355   3.746 -0.9002  0.1776 -0.2911
 4738TIP3    H114157   1.711   5.285   3.736  0.0997  1.1283 -0.6075
 4738TIP3    H214158   1.651   5.380   3.838 -0.5521  0.4711 -0.3821
 4739TIP3   OH214159   6.175   4.333   1.836 -0.0517 -0.1958  0.2866
 4739TIP3    H114160   6.231   4.256   1.829 -1.1518 -0.9267 -0.5438
 4739TIP3    H214161   6.211   4.382   1.910 -0.4623 -2.4063  1.9723
 4740TIP3   OH214162   2.879   2.610   3.783  0.1494  0.4921  0.0505
 4740TIP3    H114163   2.818   2.683   3.793 -0.8210 -0.4695  1.3609
 4740TIP3    H214164   2.846   2.563   3.706  1.0251  1.6384 -1.0551
 4741TIP3   OH214165   6.840   6.489   6.180 -0.3007 -0.0907  0.6463
 4741TIP3    H114166   6.784   6.558   6.144 -0.4089 -0.6293 -0.2160
 4741TIP3    H214167   6.859   6.518   6.269  0.3989  1.4936 -0.0051
 4742TIP3   OH214168   4.832   0.769   0.119 -0.3442  0.1916 -0.0406
 4742TIP3    H114169   4.756   0.817   0.086  0.2062  1.6353  0.7705
 4742TIP3    H214170   4.888   0.836   0.157  0.6884 -1.0354  0.6248
 4743TIP3   OH214171   3.247   3.174   2.085 -0.0541  0.0103  0.5292
 4743TIP3    H114172   3.214   3.097   2.040  0.8875 -0.4170  0.5414
 4743TIP3    H214173   3.324   3.142   2.133 -0.3960  0.6920  1.5371
 4744TIP3   OH214174   2.576   3.705   1.781  0.3126  0.0986  0.0574
 4744TIP3    H114175   2.607   3.772   1.841 -1.2323  1.2520 -0.4009
 4744TIP3    H214176   2.653   3.650   1.764  0.4175 -1.2781  4.3373
 4745TIP3   OH214177   1.945   7.031   0.374  0.0559 -0.2216 -0.0548
 4745TIP3    H114178   1.988   7.030   0.460 -0.2254  0.4321  0.0962
 4745TIP3    H214179   2.013   7.063   0.314 -0.3838  1.4102  0.2859
 4746TIP3   OH214180   3.023   2.692   0.925  0.7696  0.5083  0.3157
 4746TIP3    H114181   3.042   2.786   0.929 -1.8051  1.1092 -1.0602
 4746TIP3    H214182   3.109   2.651   0.914  1.7644  2.8001 -0.7260
 4747TIP3   OH214183   3.714   6.145   2.311  0.3837  0.4153  0.0864
 4747TIP3    H114184   3.643   6.146   2.248 -1.3627 -2.7068  1.8589
 4747TIP3    H214185   3.688   6.207   2.379 -0.0822  0.1459  0.1524
 4748TIP3   OH214186   3.060   6.712   1.390  0.2732  0.9433 -0.0915
 4748TIP3    H114187   3.046   6.789   1.444 -0.9607 -0.2966  1.3700
 4748TIP3    H214188   3.130   6.664   1.434  1.0611  1.2171 -1.0162
 4749TIP3   OH214189   4.862   7.413   0.009  0.2870  0.0465 -0.0556
 4749TIP3    H114190   4.949   7.391   0.042 -0.6934  0.6889  3.1805
 4749TIP3    H214191   4.824   7.330  -0.019  1.4030 -0.4308 -0.1529
 4750TIP3   OH214192   2.471   6.404   3.988  0.7468 -0.1378 -0.4016
 4750TIP3    H114193   2.396   6.364   3.944 -0.1594  1.8952 -0.7641
 4750TIP3    H214194   2.546   6.382   3.933  0.3391 -1.6766 -0.3623
 4751TIP3   OH214195   2.413   4.361   4.029 -0.0794  0.6695 -0.6502
 4751TIP3    H114196   2.484   4.304   4.002 -0.2446  0.2389 -0.1806
 4751TIP3    H214197   2.351   4.303   4.074 -0.1815  1.2402 -0.0489
 4752TIP3   OH214198   3.520   5.346   2.031  0.3194 -0.3626  0.9152
 4752TIP3    H114199   3.490   5.255   2.038  2.1509 -1.1533 -1.0263
 4752TIP3    H214200   3.447   5.392   1.989 -0.9237 -0.7347  2.6126
 4753TIP3   OH214201   3.948   3.394   3.555  0.1238  0.2949  0.1618
 4753TIP3    H114202   3.993   3.471   3.519 -0.1456  0.8941  1.1129
 4753TIP3    H214203   3.856   3.407   3.531  0.0683  0.3075  0.3811
 4754TIP3   OH214204   4.008   7.178   2.636 -0.4361 -0.6525 -0.0312
 4754TIP3    H114205   3.945   7.131   2.582  1.5348 -0.8136 -2.2729
 4754TIP3    H214206   4.062   7.110   2.675  0.7552 -0.4127 -1.1989
 4755TIP3   OH214207   4.212   5.715   2.215  0.1994 -0.1359 -0.3267
 4755TIP3    H114208   4.258   5.731   2.132 -0.1612  2.0126 -0.1506
 4755TIP3    H214209   4.158   5.793   2.227  1.4018  0.2811  2.7206
 4756TIP3   OH214210   4.101   1.314   6.410 -0.5946 -0.1026  0.5064
 4756TIP3    H114211   4.163   1.286   6.343 -1.3590 -0.5403 -0.0281
 4756TIP3    H214212   4.153   1.366   6.471  0.2743 -0.3913  0.0167
 4757TIP3   OH214213   5.116   5.397   2.351  0.5659 -0.4990 -0.0164
 4757TIP3    H114214   5.039   5.454   2.351 -0.1308 -1.3826 -2.0877
 4757TIP3    H214215   5.172   5.433   2.420 -0.6281  1.5940 -0.0768
 4758TIP3   OH214216   6.048   3.779   1.669  0.0362  0.0722  0.3085
 4758TIP3    H114217   6.074   3.791   1.578 -3.1611  1.6926 -0.4512
 4758TIP3    H214218   5.965   3.732   1.665  0.0869 -0.2425  2.4185
 4759TIP3   OH214219   4.884   7.948   3.114 -0.1790  0.1319 -0.4066
 4759TIP3    H114220   4.818   7.912   3.174 -1.0307  1.8052 -0.3083
 4759TIP3    H214221   4.866   7.904   3.030 -0.4895 -0.4919 -0.0141
 4760TIP3   OH214222   3.534   4.887   1.530 -0.4042  0.3263  0.4080
 4760TIP3    H114223   3.474   4.850   1.595 -1.1198  0.6580 -0.0668
 4760TIP3    H214224   3.563   4.812   1.478 -2.7091  0.5548 -1.2661
 4761TIP3   OH214225   5.192   3.999   1.306  0.5186  0.0587  0.0498
 4761TIP3    H114226   5.252   3.926   1.300  1.9963  1.2226  0.4562
 4761TIP3    H214227   5.192   4.038   1.218  0.5781  0.2381  0.1292
 4762TIP3   OH214228   4.524   7.053   3.026 -0.3320  0.6916  0.0531
 4762TIP3    H114229   4.495   7.080   3.113 -0.9257  1.1336 -0.2852
 4762TIP3    H214230   4.610   7.012   3.041 -1.1807 -0.7438  1.0585
 4763TIP3   OH214231   5.360   7.059   3.791 -0.4517  0.4196 -0.3081
 4763TIP3    H114232   5.315   7.051   3.706  0.1022 -1.2915 -0.4580
 4763TIP3    H214233   5.312   7.128   3.837 -1.5068  0.5324 -1.5479
 4764TIP3   OH214234   7.615   5.745   0.780 -0.4140  0.1920 -0.1365
 4764TIP3    H114235   7.675   5.672   0.766  0.5466  0.7686  0.8821
 4764TIP3    H214236   7.546   5.732   0.714  1.7241  0.5179 -2.5149
 4765TIP3   OH214237   4.764   5.984   0.158  0.2392  0.3136  0.1307
 4765TIP3    H114238   4.822   6.002   0.084 -1.3007 -0.6863 -1.3547
 4765TIP3    H214239   4.818   5.933   0.219  0.5417 -1.9269 -1.9122
 4766TIP3   OH214240   5.201   6.011   3.165  0.1401  0.0024 -0.0683
 4766TIP3    H114241   5.135   5.979   3.104 -0.3908 -0.1421  0.5840
 4766TIP3    H214242   5.166   6.093   3.198  0.5385  0.2021 -0.1292
 4767TIP3   OH214243   4.809   3.910   3.182 -0.0468  0.2158 -0.2369
 4767TIP3    H114244   4.718   3.909   3.154 -0.3013 -1.9997  0.5581
 4767TIP3    H214245   4.859   3.902   3.101 -0.6512 -1.7219 -0.4296
 4768TIP3   OH214246   1.020   3.406   6.629 -0.7294 -0.0373 -0.3459
 4768TIP3    H114247   0.970   3.451   6.698 -2.1489 -2.2082  0.0684
 4768TIP3    H214248   0.966   3.331   6.605  0.9082 -0.6840 -2.1139
 4769TIP3   OH214249   5.102   6.890   1.088 -0.5045  0.8076 -0.2431
 4769TIP3    H114250   5.156   6.817   1.057  1.2925  1.3167  1.6673
 4769TIP3    H214251   5.049   6.914   1.011 -0.8202 -2.2109 -1.0173
 4770TIP3   OH214252   5.938   5.281   0.922  0.0266  0.0470 -0.2760
 4770TIP3    H114253   5.980   5.332   0.991  0.0225 -0.2663 -0.0417
 4770TIP3    H214254   5.857   5.328   0.904 -0.7819 -0.7898  1.1054
 4771TIP3   OH214255   5.516   5.666   2.612 -0.3787  0.2504  0.0014
 4771TIP3    H114256   5.436   5.655   2.561 -0.4352  1.2775 -0.1309
 4771TIP3    H214257   5.486   5.680   2.702 -0.2857 -1.3189  0.2850
 4772TIP3   OH214258   6.649   4.468   1.462 -0.4666  0.2817  0.4709
 4772TIP3    H114259   6.565   4.423   1.450 -0.9835  1.0457  1.1460
 4772TIP3    H214260   6.643   4.506   1.550 -0.2308  2.0248 -0.2379
 4773TIP3   OH214261   6.805  -0.021   0.940 -0.0743 -0.1528  0.4357
 4773TIP3    H114262   6.853   0.045   0.991 -1.5964  0.2509  1.3626
 4773TIP3    H214263   6.715   0.013   0.936 -0.3929 -1.1460 -0.8703
 4774TIP3   OH214264   4.807   4.138   0.814  0.0101  0.2101  0.0723
 4774TIP3    H114265   4.854   4.113   0.734  0.1717 -0.1360  0.2734
 4774TIP3    H214266   4.833   4.229   0.829  0.5250  0.0609  0.1107
 4775TIP3   OH214267   4.656   6.514   3.194 -0.1491 -0.2049  0.0190
 4775TIP3    H114268   4.662   6.422   3.167 -0.7396 -0.2351 -0.0211
 4775TIP3    H214269   4.567   6.540   3.171  0.2933  0.6487 -0.8104
 4776TIP3   OH214270   6.359   5.182   2.296  0.2248 -0.3879  0.5115
 4776TIP3    H114271   6.421   5.115   2.267 -0.3100 -0.5367 -0.3059
 4776TIP3    H214272   6.408   5.264   2.290  1.0242 -0.7556  1.9480
 4777TIP3   OH214273   4.767   5.866   0.657 -0.1809 -0.0822 -0.1282
 4777TIP3    H114274   4.810   5.940   0.614 -0.0774  0.1635  0.3921
 4777TIP3    H214275   4.675   5.875   0.635  0.0384 -0.6646 -1.3338
 4778TIP3   OH214276   7.132   4.500   1.672  0.1195  0.1861  0.1703
 4778TIP3    H114277   7.098   4.484   1.583 -1.3793 -0.1975  0.7848
 4778TIP3    H214278   7.137   4.412   1.711 -1.8130  0.5718  1.3537
 4779TIP3   OH214279   5.327   4.366   2.301  0.1872  0.2295 -0.1316
 4779TIP3    H114280   5.393   4.340   2.367 -1.3054 -1.2458  0.8136
 4779TIP3    H214281   5.270   4.427   2.348  1.0033  1.7088 -1.0298
 4780TIP3   OH214282   7.274   6.328   1.800 -0.4804  0.8565  0.1097
 4780TIP3    H114283   7.286   6.339   1.895  1.3380  1.9242 -0.2329
 4780TIP3    H214284   7.356   6.290   1.769 -0.3469  2.2836 -1.3310
 4781TIP3   OH214285   5.081   6.669   2.200  0.4502 -0.3866  0.4105
 4781TIP3    H114286   5.066   6.584   2.241  1.6034 -0.5510  0.4903
 4781TIP3    H214287   5.143   6.652   2.129  0.0494  0.2502 -0.1030
 4782TIP3   OH214288   5.893   5.662   1.229  0.7865  0.2421 -0.4422
 4782TIP3    H114289   5.899   5.567   1.236  1.5945  0.4940  2.8989
 4782TIP3    H214290   5.983   5.692   1.221  0.6965  0.8506  0.6919
 4783TIP3   OH214291   7.219   7.333   1.827  0.4599 -0.4466  0.1797
 4783TIP3    H114292   7.141   7.284   1.799  1.9987 -1.4960 -2.4402
 4783TIP3    H214293   7.205   7.349   1.920 -2.7101 -0.9395 -0.1602
 4784TIP3   OH214294   5.589   5.544   1.367  0.1874 -0.5840 -0.2677
 4784TIP3    H114295   5.666   5.535   1.423  0.6778  1.2853 -0.5996
 4784TIP3    H214296   5.522   5.489   1.409  0.7390  0.2591  1.7938
 4785TIP3   OH214297   2.800   2.437   5.838 -0.4803  0.1503  0.3396
 4785TIP3    H114298   2.831   2.346   5.839  0.1475  0.3605  2.0851
 4785TIP3    H214299   2.881   2.489   5.837 -0.8341  0.6937  0.0517
 4786TIP3   OH214300   5.231   6.949   1.732 -0.5127  0.2812 -1.0205
 4786TIP3    H114301   5.148   6.910   1.707 -0.6577  1.0817 -1.8224
 4786TIP3    H214302   5.218   7.043   1.720 -0.6183  0.7323  2.1826
 4787TIP3   OH214303   5.859   4.839   0.571 -0.0936 -0.0362  0.4454
 4787TIP3    H114304   5.900   4.908   0.519 -0.7594  0.4065  0.5049
 4787TIP3    H214305   5.782   4.880   0.610 -1.3416 -1.2012 -0.7195
 4788TIP3   OH214306   6.655   4.694   0.449 -0.0396 -0.1475 -0.7651
 4788TIP3    H114307   6.684   4.762   0.388  0.8864  0.8124  0.7155
 4788TIP3    H214308   6.735   4.664   0.491 -0.3834 -2.4706 -1.6757
 4789TIP3   OH214309   3.852   4.449   3.032  0.0770 -0.1820 -0.0004
 4789TIP3    H114310   3.815   4.525   2.987  1.1500  1.9260  2.5629
 4789TIP3    H214311   3.816   4.454   3.121  1.4448 -1.7389  0.6582
 4790TIP3   OH214312   5.593   5.719   2.053  0.2763  0.0094  0.0094
 4790TIP3    H114313   5.505   5.756   2.054  0.3820  0.2377  1.0097
 4790TIP3    H214314   5.641   5.769   2.118  1.6334  1.0286 -1.7474
 4791TIP3   OH214315   4.711   6.640   1.947  0.2672 -0.0673 -0.0291
 4791TIP3    H114316   4.804   6.662   1.954  0.4418 -0.0611 -2.0679
 4791TIP3    H214317   4.687   6.666   1.858 -1.8750  0.5788  0.7056
 4792TIP3   OH214318   6.305   6.052   1.962  0.2763 -0.7341 -0.3472
 4792TIP3    H114319   6.276   6.089   2.046  0.1365 -1.7521  0.0621
 4792TIP3    H214320   6.258   6.103   1.896 -1.0414 -1.1445  0.2549
 4793TIP3   OH214321   4.678   6.337   1.317  0.1235  0.8111 -0.3193
 4793TIP3    H114322   4.611   6.405   1.310 -0.1611  0.4198 -1.5557
 4793TIP3    H214323   4.759   6.381   1.293 -0.1644  0.5694 -1.7943
 4794TIP3   OH214324   2.472   1.834   5.143  0.0400  0.3738 -0.5549
 4794TIP3    H114325   2.509   1.922   5.132  0.7586  0.1476 -0.0062
 4794TIP3    H214326   2.400   1.830   5.080  0.7312  0.9499 -1.3926
 4795TIP3   OH214327   3.259   7.290   3.272 -0.6394 -0.0454  0.4266
 4795TIP3    H114328   3.204   7.259   3.200 -0.7044  1.5270 -0.2284
 4795TIP3    H214329   3.198   7.321   3.338 -0.5543  0.0929  0.4394
 4796TIP3   OH214330   3.735   3.406   1.703 -0.0722  0.2028  0.0513
 4796TIP3    H114331   3.653   3.446   1.732 -0.0706  1.0295 -1.0592
 4796TIP3    H214332   3.723   3.393   1.609  1.4914  1.3099 -0.3111
 4797TIP3   OH214333   0.370   0.028   0.517 -0.0291  0.0647  0.1006
 4797TIP3    H114334   0.319   0.104   0.488 -0.2637 -0.0209  0.2874
 4797TIP3    H214335   0.383   0.043   0.610  3.0630  1.7184 -0.5190
 4798TIP3   OH214336   6.643   4.552   2.562 -0.3819  0.5586 -0.5097
 4798TIP3    H114337   6.641   4.506   2.646 -0.8043 -0.4121 -1.0379
 4798TIP3    H214338   6.676   4.639   2.583  0.4083  0.0285  0.5276
 4799TIP3   OH214339   5.354   5.082   1.312 -0.3356 -0.1405 -0.5347
 4799TIP3    H114340   5.303   5.114   1.237  0.1580  1.2510 -0.3038
 4799TIP3    H214341   5.415   5.018   1.275  0.0864  0.7400 -1.3778
 4800TIP3   OH214342   3.292   5.975   1.793 -0.1188 -0.0394  0.1717
 4800TIP3    H114343   3.351   6.016   1.730  0.0155 -0.9885 -0.3274
 4800TIP3    H214344   3.327   5.886   1.804 -0.5671 -0.1140  1.0218
 4801TIP3   OH214345   5.101   5.061   3.313 -0.3755 -0.2933 -0.4341
 4801TIP3    H114346   5.190   5.047   3.283 -0.5586 -0.7130 -0.7932
 4801TIP3    H214347   5.093   5.004   3.390 -0.0421  0.4570  0.1664
 4802TIP3   OH214348   4.460   6.055   1.307 -0.4340  0.3374  0.6428
 4802TIP3    H114349   4.405   6.096   1.240  0.5870  1.9845  0.7754
 4802TIP3    H214350   4.476   6.125   1.371  1.6937 -0.1286  0.6695
 4803TIP3   OH214351   4.099   7.877   3.015  0.1066  0.4887 -0.4618
 4803TIP3    H114352   4.189   7.885   3.048  0.3737 -3.3913 -0.0179
 4803TIP3    H214353   4.046   7.928   3.078  1.3774 -1.6140  2.4257
 4804TIP3   OH214354   6.846   6.627   1.246 -0.3453 -0.2528  0.7596
 4804TIP3    H114355   6.879   6.545   1.283  1.4562 -0.0220 -0.3035
 4804TIP3    H214356   6.846   6.688   1.320  0.3445 -0.6253  1.0700
 4805TIP3   OH214357   5.594   7.404   0.837  0.4060  0.2595 -0.5181
 4805TIP3    H114358   5.569   7.318   0.803 -1.2765  0.2942  0.5954
 4805TIP3    H214359   5.565   7.465   0.769 -0.9886  0.1589 -0.0251
 4806TIP3   OH214360   8.397   1.972   6.923  0.5517  0.1467  0.1679
 4806TIP3    H114361   8.491   1.990   6.911  0.8243 -1.0200  0.4914
 4806TIP3    H214362   8.361   1.970   6.834  1.5955 -3.3757 -0.2481
 4807TIP3   OH214363   1.049   0.137   2.074  0.0584  0.2943 -0.9128
 4807TIP3    H114364   1.095   0.083   2.009  2.1126  0.0777  0.6625
 4807TIP3    H214365   1.114   0.203   2.099 -0.2802 -0.3770  1.8055
 4808TIP3   OH214366   3.397   2.336   6.700  0.7684 -0.0269 -0.0291
 4808TIP3    H114367   3.442   2.376   6.625 -0.6967 -0.2721 -1.0731
 4808TIP3    H214368   3.437   2.250   6.709  2.1787  0.6909  0.6012
 4809TIP3   OH214369   5.070   7.638   2.870 -0.0183 -0.2863 -0.4412
 4809TIP3    H114370   5.086   7.563   2.813 -0.0704 -0.5910 -0.0537
 4809TIP3    H214371   5.120   7.619   2.949 -0.6297 -0.2636 -0.0484
 4810TIP3   OH214372   6.812   2.971   1.526  0.2059 -0.4325  0.0822
 4810TIP3    H114373   6.836   2.879   1.531 -0.0556 -0.4834  0.3354
 4810TIP3    H214374   6.783   2.994   1.614  3.0210  0.6337  0.7833
 4811TIP3   OH214375   5.355   6.784   3.790  0.1255 -0.1834  0.1963
 4811TIP3    H114376   5.355   6.783   3.694  2.4345  1.5247  0.1637
 4811TIP3    H214377   5.339   6.875   3.814  2.4667 -0.0645  1.4066
 4812TIP3   OH214378   1.998   2.615   6.731 -0.3083  0.8831 -0.6203
 4812TIP3    H114379   2.005   2.557   6.656  1.0559 -1.2550  1.0969
 4812TIP3    H214380   2.086   2.651   6.743 -0.0286 -0.2718  1.0519
 4813TIP3   OH214381   1.702   0.842   5.425 -0.0562  0.0046 -0.4649
 4813TIP3    H114382   1.722   0.856   5.517  0.7974 -1.2118 -0.4570
 4813TIP3    H214383   1.761   0.901   5.378 -1.1964  1.3663 -0.2074
 4814TIP3   OH214384   3.991   4.947   2.229  0.5789  0.5681 -0.2882
 4814TIP3    H114385   3.938   4.993   2.294  0.6364  0.7451 -0.3647
 4814TIP3    H214386   3.975   4.994   2.147  0.0948  0.0130 -0.5085
 4815TIP3   OH214387   5.029   5.719   1.494  0.1022 -0.2807 -0.0561
 4815TIP3    H114388   5.010   5.629   1.521 -0.8364 -0.6716 -1.9181
 4815TIP3    H214389   4.959   5.740   1.432  1.5717  0.9227 -1.3501
 4816TIP3   OH214390   3.702   4.747   2.394 -0.1775 -0.4766 -0.0932
 4816TIP3    H114391   3.770   4.693   2.352  0.5368 -0.8180  1.4567
 4816TIP3    H214392   3.683   4.815   2.330  1.0376 -0.8634 -0.8932
 4817TIP3   OH214393   4.237   4.884   1.459  0.0376  1.0463 -0.3673
 4817TIP3    H114394   4.178   4.941   1.510 -1.3684 -0.5477 -0.1775
 4817TIP3    H214395   4.272   4.942   1.391 -0.7787  2.3430  0.2841
 4818TIP3   OH214396   4.663   6.461   3.965  0.1667  0.2981  0.7208
 4818TIP3    H114397   4.665   6.460   3.869 -0.4382 -0.1861  0.7089
 4818TIP3    H214398   4.753   6.480   3.991  0.1452  1.3346  0.0443
 4819TIP3   OH214399   4.230   5.792   3.700 -0.2111 -0.2153 -0.3029
 4819TIP3    H114400   4.245   5.854   3.772  0.4410 -1.6279  0.7914
 4819TIP3    H214401   4.220   5.707   3.743  1.5515 -1.3054 -1.9425
 4820TIP3   OH214402   7.967   0.114   1.498  0.6832  0.0794 -0.4153
 4820TIP3    H114403   7.900   0.106   1.430  0.7332  3.6684 -0.9820
 4820TIP3    H214404   7.994   0.024   1.517 -4.0394 -1.4327 -0.4000
 4821TIP3   OH214405   5.064   6.851   2.607  0.2551 -0.3641  0.0567
 4821TIP3    H114406   4.997   6.831   2.542 -0.1372 -0.0125  0.3474
 4821TIP3    H214407   5.021   6.912   2.667  0.9770  0.1948  0.0016
 4822TIP3   OH214408   3.665   5.803   2.972  0.6004  0.0444 -0.3808
 4822TIP3    H114409   3.599   5.734   2.970  1.2876 -0.7806  2.5817
 4822TIP3    H214410   3.619   5.882   2.947 -0.8104 -1.0208 -1.2102
 4823TIP3   OH214411   4.998   6.594   0.212  0.3335  0.1844  0.0234
 4823TIP3    H114412   4.971   6.509   0.246  1.9113 -0.9078 -1.3659
 4823TIP3    H214413   5.054   6.630   0.280  0.8017 -0.5239  0.0206
 4824TIP3   OH214414   4.494   5.200   1.977 -0.2291 -0.2223  0.0629
 4824TIP3    H114415   4.515   5.293   1.985  1.3121 -0.5036 -0.4534
 4824TIP3    H214416   4.455   5.192   1.890 -0.3205 -0.0611  0.0895
 4825TIP3   OH214417   4.666   7.899   0.744 -0.7192 -0.5676  0.2696
 4825TIP3    H114418   4.671   7.995   0.737 -0.3065 -0.6677 -0.8751
 4825TIP3    H214419   4.694   7.880   0.833 -0.2589  0.3416  0.3204
 4826TIP3   OH214420   6.143   5.953   0.844  0.0853  0.2129 -0.6199
 4826TIP3    H114421   6.170   6.029   0.793  0.5068 -0.0996 -0.8644
 4826TIP3    H214422   6.076   5.986   0.904 -0.7071  0.4958 -1.6577
 4827TIP3   OH214423   5.426   5.310   0.539  0.1668  0.6131  0.0754
 4827TIP3    H114424   5.445   5.329   0.631  0.7585 -0.2371  0.1317
 4827TIP3    H214425   5.499   5.257   0.509 -0.4926  0.0784 -0.6267
 4828TIP3   OH214426   6.240   2.665   1.925 -0.3830 -0.4301  0.6574
 4828TIP3    H114427   6.209   2.756   1.928  0.0494 -0.3013  1.1658
 4828TIP3    H214428   6.313   2.662   1.986  2.3721 -0.0797 -2.4886
 4829TIP3   OH214429   1.824   0.482   6.211  0.1061  0.8916  0.0530
 4829TIP3    H114430   1.777   0.424   6.271 -2.3227  1.8131 -0.9030
 4829TIP3    H214431   1.875   0.423   6.156 -0.5313 -0.1869  0.6014
 4830TIP3   OH214432   6.168   1.113   2.682 -0.4432 -0.1039 -0.0040
 4830TIP3    H114433   6.202   1.117   2.772  0.1441  3.6992 -0.3260
 4830TIP3    H214434   6.139   1.202   2.663 -0.1092 -0.7099 -3.7816
 4831TIP3   OH214435   5.267   5.837   2.732  0.1702  0.3459 -0.4743
 4831TIP3    H114436   5.210   5.790   2.672 -0.4749 -0.0368  0.4147
 4831TIP3    H214437   5.323   5.770   2.771 -1.4467  0.1144  1.5585
 4832TIP3   OH214438   4.431   6.725   2.922 -0.4531  0.2499  0.2448
 4832TIP3    H114439   4.432   6.630   2.938  0.5069  0.6297  2.6941
 4832TIP3    H214440   4.443   6.764   3.009  1.2631  2.5745 -0.9831
 4833TIP3   OH214441   4.264   1.947   6.722  0.7665 -0.6018 -0.0811
 4833TIP3    H114442   4.248   1.952   6.628 -2.0152  0.2293  0.4116
 4833TIP3    H214443   4.359   1.936   6.729  1.0095 -0.7536 -2.9715
 4834TIP3   OH214444   4.809   5.828   1.385 -0.0208  0.0038 -0.0069
 4834TIP3    H114445   4.821   5.921   1.407  1.0866 -0.1474  0.0437
 4834TIP3    H214446   4.743   5.828   1.315  1.2248  0.9703 -1.2197
 4835TIP3   OH214447   6.136   5.464   2.922 -0.0599 -0.2884  0.4046
 4835TIP3    H114448   6.214   5.487   2.871 -1.1370  1.7501 -0.3851
 4835TIP3    H214449   6.154   5.498   3.009 -0.1741  0.4142  0.1561
 4836TIP3   OH214450   3.880   3.031   0.673 -0.0850 -0.5627 -0.1435
 4836TIP3    H114451   3.800   2.996   0.634 -0.1735  0.3156 -0.7647
 4836TIP3    H214452   3.869   3.126   0.669  0.1660 -0.4524  1.4927
 4837TIP3   OH214453   4.199   6.986   3.458  0.3914  0.2731  0.7301
 4837TIP3    H114454   4.123   7.019   3.507  0.3659  1.3100  0.0205
 4837TIP3    H214455   4.257   6.949   3.524  0.5785  2.0904  1.6014
 4838TIP3   OH214456   1.744   0.830   5.696 -0.1044 -0.2854 -0.3318
 4838TIP3    H114457   1.767   0.739   5.708 -0.0944 -0.1193  0.9740
 4838TIP3    H214458   1.826   0.878   5.704 -0.5033  0.0915  2.0175
 4839TIP3   OH214459   4.762   3.285   1.644 -0.4299 -0.2914 -0.3286
 4839TIP3    H114460   4.815   3.307   1.721  0.1071 -2.5298 -0.0118
 4839TIP3    H214461   4.715   3.366   1.623  0.7012  0.8317  1.3182
 4840TIP3   OH214462   1.150   1.620   5.173 -0.1969  0.2250 -0.7554
 4840TIP3    H114463   1.155   1.614   5.078  0.0609  3.6964 -1.0098
 4840TIP3    H214464   1.241   1.619   5.202 -0.3287 -3.9749 -0.2444
 4841TIP3   OH214465   4.398   5.427   2.916 -0.2795  0.4945  0.2742
 4841TIP3    H114466   4.347   5.364   2.967  3.0938 -1.0767  1.8470
 4841TIP3    H214467   4.406   5.386   2.830 -0.4397  0.0744  0.4561
 4842TIP3   OH214468   4.138   5.587   0.450  0.1767  0.2929  0.0086
 4842TIP3    H114469   4.207   5.603   0.515  0.0092 -0.9377  0.5111
 4842TIP3    H214470   4.177   5.523   0.390 -0.6843 -0.7576  0.5600
 4843TIP3   OH214471   6.621   4.467   2.832 -0.1322  0.0761 -0.2749
 4843TIP3    H114472   6.596   4.560   2.833  1.7554  0.6029  1.0085
 4843TIP3    H214473   6.548   4.422   2.873 -0.6858  1.1044 -0.1068
 4844TIP3   OH214474   6.398   6.078   0.679 -0.1596  0.0461  0.0750
 4844TIP3    H114475   6.375   6.142   0.611  1.5853  0.0848 -0.5106
 4844TIP3    H214476   6.401   6.128   0.760 -0.4513  0.3640 -0.1100
 4845TIP3   OH214477   3.379   2.759   6.250 -0.0978 -0.7654  0.4112
 4845TIP3    H114478   3.465   2.800   6.254 -1.1958  1.6907 -0.4970
 4845TIP3    H214479   3.345   2.767   6.339 -1.0398  2.0194 -0.1454
 4846TIP3   OH214480   5.783   5.902   2.171  0.0472 -0.1458  0.1977
 4846TIP3    H114481   5.743   5.972   2.119 -1.0767 -0.6479  0.3583
 4846TIP3    H214482   5.877   5.911   2.157 -0.1954  0.3563 -1.0985
 4847TIP3   OH214483   4.866   5.726   2.729  0.1970  0.1678 -0.2525
 4847TIP3    H114484   4.827   5.694   2.648  0.9220 -0.5065 -0.3445
 4847TIP3    H214485   4.805   5.702   2.797 -0.9202  1.6459 -0.7040
 4848TIP3   OH214486   1.265   0.936   6.738  0.0861  0.6856  0.5970
 4848TIP3    H114487   1.313   0.862   6.776 -0.3682  0.4109  0.6308
 4848TIP3    H214488   1.203   0.897   6.677  1.7777  1.2069 -1.5277
 4849TIP3   OH214489   4.350   5.745   1.218 -0.0712  0.2505 -0.2539
 4849TIP3    H114490   4.272   5.778   1.262  0.7561  0.3663  1.1292
 4849TIP3    H214491   4.339   5.772   1.126 -1.7651  0.0411 -0.1197
 4850TIP3   OH214492   4.980   4.837   3.491  0.0772 -0.9439  0.0510
 4850TIP3    H114493   4.967   4.755   3.444 -0.7677 -2.0608  2.1897
 4850TIP3    H214494   5.070   4.832   3.524 -0.0596 -1.1176  0.3950
 4851TIP3   OH214495   8.391   1.971   5.720  0.5719  0.2349 -0.4862
 4851TIP3    H114496   8.474   1.927   5.740 -0.2560 -0.4650  1.6344
 4851TIP3    H214497   8.327   1.900   5.716 -0.9707  1.1785  3.9893
 4852TIP3   OH214498   5.335   7.275   3.397  0.0749 -0.1450 -0.3466
 4852TIP3    H114499   5.368   7.364   3.386  2.6343 -0.9753  0.2360
 4852TIP3    H214500   5.402   7.232   3.451 -1.2366 -2.3527 -0.4441
 4853TIP3   OH214501   4.720   7.003   0.638 -0.3795 -0.1645  0.6147
 4853TIP3    H114502   4.806   7.007   0.595 -0.9683 -0.2444 -0.5843
 4853TIP3    H214503   4.723   7.074   0.703  0.5725 -0.1222  0.5291
 4854TIP3   OH214504   6.893   0.076   1.605 -0.0224 -0.0768  0.0952
 4854TIP3    H114505   6.956   0.018   1.647 -0.6329 -0.9529 -0.1966
 4854TIP3    H214506   6.914   0.163   1.640  2.3866 -0.0865 -1.1920
 4855TIP3   OH214507   4.734   7.339   4.555 -0.6227  0.0177 -0.3894
 4855TIP3    H114508   4.759   7.419   4.601 -0.8410  0.0776 -0.3753
 4855TIP3    H214509   4.681   7.369   4.482 -0.4001 -0.0882 -0.5943
 4856TIP3   OH214510   2.612   1.991   6.423  0.7785  0.2166 -0.1539
 4856TIP3    H114511   2.609   1.902   6.389  0.8030 -0.4372  1.5191
 4856TIP3    H214512   2.671   1.986   6.499  1.0290  1.7166 -0.2307
 4857TIP3   OH214513   4.549   5.980   2.733 -0.8932  0.1674 -0.3194
 4857TIP3    H114514   4.618   6.041   2.707 -1.6867  1.1775 -0.1012
 4857TIP3    H214515   4.588   5.893   2.722  0.7336  0.7438  0.7151
 4858TIP3   OH214516   4.984   6.206   1.533 -0.5914  0.7054 -0.3117
 4858TIP3    H114517   5.047   6.263   1.576 -0.5649  1.0254 -0.7665
 4858TIP3    H214518   4.980   6.127   1.587 -0.2893  0.9563  0.0694
 4859TIP3   OH214519   4.296   7.598   0.223 -0.5595 -0.3714 -0.7353
 4859TIP3    H114520   4.285   7.503   0.218  0.8921 -0.6249  0.4625
 4859TIP3    H214521   4.390   7.612   0.212 -0.7052  0.9063 -0.5009
 4860TIP3   OH214522   2.936   4.324   0.919  0.1813 -0.3091 -0.0284
 4860TIP3    H114523   3.015   4.328   0.974  0.2414  0.9095 -0.2006
 4860TIP3    H214524   2.953   4.385   0.848 -0.8257 -0.2241 -0.2031
 4861TIP3   OH214525   4.962   5.134   1.989 -0.0342 -0.5049 -0.8282
 4861TIP3    H114526   5.036   5.191   2.010  0.2093 -1.3393  0.6868
 4861TIP3    H214527   5.002   5.056   1.950 -0.2853 -0.1024 -1.9169
 4862TIP3   OH214528   4.876   3.523   1.922  0.2642 -0.1536 -0.4372
 4862TIP3    H114529   4.819   3.537   1.998  0.2273  1.5177 -0.7684
 4862TIP3    H214530   4.944   3.590   1.930  1.2397 -1.0536 -0.9684
 4863TIP3   OH214531   4.863   1.822   6.329 -0.6284 -0.5239 -0.0301
 4863TIP3    H114532   4.918   1.748   6.354 -0.9861 -1.0077 -0.6470
 4863TIP3    H214533   4.787   1.781   6.286 -0.2603  0.2525 -1.4596
 4864TIP3   OH214534   1.486   1.914   6.939  0.3405  0.9072 -0.2099
 4864TIP3    H114535   1.442   1.956   6.865  0.0402  1.8440  0.4850
 4864TIP3    H214536   1.540   1.984   6.977  0.5624  0.4080  0.3965
 4865TIP3   OH214537   5.779   5.700   2.519  0.3563  0.0783  0.2122
 4865TIP3    H114538   5.683   5.698   2.518  0.3621 -0.4440  0.1798
 4865TIP3    H214539   5.802   5.653   2.599  0.5623  1.6648  1.1074
 4866TIP3   OH214540   4.380   5.539   0.598 -0.0546  0.8215  0.0518
 4866TIP3    H114541   4.394   5.521   0.691  0.1276 -0.1679 -0.1590
 4866TIP3    H214542   4.406   5.630   0.587  0.4724  0.7726  0.8564
 4867TIP3   OH214543   3.330   7.498   0.701  0.3375 -0.5128  0.4208
 4867TIP3    H114544   3.247   7.453   0.687 -0.2027  0.6918 -0.2514
 4867TIP3    H214545   3.360   7.467   0.787 -1.2020 -0.3208  1.0362
 4868TIP3   OH214546   7.411   4.879   2.589 -0.2846 -0.7857  0.3169
 4868TIP3    H114547   7.380   4.846   2.504 -0.2025  0.5893 -0.2633
 4868TIP3    H214548   7.503   4.899   2.574 -0.1214 -1.0892  0.9087
 4869TIP3   OH214549   5.687   5.624   1.058 -0.3697 -0.6467  0.4339
 4869TIP3    H114550   5.761   5.649   1.114 -0.6626 -1.0338  1.0023
 4869TIP3    H214551   5.643   5.554   1.107 -0.8939 -0.6705 -0.0736
 4870TIP3   OH214552   2.237   2.469   6.487  0.2269  0.2434 -0.0648
 4870TIP3    H114553   2.206   2.380   6.469  3.1186 -0.5883 -1.0979
 4870TIP3    H214554   2.241   2.474   6.583 -1.3051 -0.2303  0.0380
 4871TIP3   OH214555   1.660   1.396   4.671 -0.1939  0.2893 -0.0568
 4871TIP3    H114556   1.687   1.304   4.670  0.1103  0.3587  1.2036
 4871TIP3    H214557   1.663   1.422   4.579 -0.0173 -0.8821 -0.3984
 4872TIP3   OH214558   4.725   7.501   1.671  0.1734  0.5195 -0.0317
 4872TIP3    H114559   4.780   7.425   1.654  2.4007  1.1644  3.7606
 4872TIP3    H214560   4.776   7.575   1.638  1.5816  1.0875  3.2289
 4873TIP3   OH214561   0.732   0.229   1.442  0.6339 -0.0783 -0.4342
 4873TIP3    H114562   0.795   0.157   1.431  1.9268  0.9649  0.0844
 4873TIP3    H214563   0.710   0.255   1.352  0.6142 -0.7268 -0.6220
 4874TIP3   OH214564   6.191   4.533   2.605 -0.1950  0.6687 -0.2086
 4874TIP3    H114565   6.171   4.606   2.547 -0.9405  1.4280  0.9858
 4874TIP3    H214566   6.173   4.566   2.693  0.0890 -0.7410  0.3982
 4875TIP3   OH214567   2.994   2.141   6.318 -0.5842  0.0937  0.1661
 4875TIP3    H114568   2.906   2.175   6.301  0.6985  2.5627 -1.9480
 4875TIP3    H214569   3.041   2.214   6.357  1.3503 -0.2108 -1.4887
 4876TIP3   OH214570   8.466   0.177   3.905 -0.0462 -0.3324  0.0263
 4876TIP3    H114571   8.453   0.088   3.871 -0.6743 -0.2314  0.0080
 4876TIP3    H214572   8.561   0.183   3.917  0.1609 -0.4578 -1.4467
 4877TIP3   OH214573   1.493   1.947   5.317 -0.3332  0.0221  0.3588
 4877TIP3    H114574   1.444   1.983   5.243  0.4976  0.3811 -0.0180
 4877TIP3    H214575   1.474   2.007   5.389 -1.4998 -0.5779  0.5579
 4878TIP3   OH214576   8.069   1.454   2.853  0.2058 -0.3681  0.0537
 4878TIP3    H114577   8.136   1.510   2.814  0.3156  0.0621  0.8486
 4878TIP3    H214578   8.015   1.427   2.779  0.8243 -0.1321 -0.4939
 4879TIP3   OH214579   5.421   5.404   3.303 -0.4648 -0.0872  0.0725
 4879TIP3    H114580   5.329   5.428   3.294 -0.3799 -0.4832 -1.9984
 4879TIP3    H214581   5.469   5.487   3.303 -0.7375  0.0711  0.2982
 4880TIP3   OH214582   7.414   2.461   4.249  0.8277  0.3885 -0.2057
 4880TIP3    H114583   7.462   2.544   4.252  1.0282  0.2624  0.0002
 4880TIP3    H214584   7.453   2.407   4.317  0.1798  0.4012  0.1873
 4881TIP3   OH214585   6.254   5.523   2.041 -0.0432  0.1639  0.4003
 4881TIP3    H114586   6.320   5.453   2.042  1.7333  1.7954  0.1161
 4881TIP3    H214587   6.187   5.491   1.981  0.9663 -1.1342 -0.0694
 4882TIP3   OH214588   2.913   1.651   6.089 -0.0990 -0.0703  0.0794
 4882TIP3    H114589   2.947   1.738   6.110 -3.2782  0.9804  1.2418
 4882TIP3    H214590   2.846   1.667   6.023 -0.7523 -1.6170  0.3383
 4883TIP3   OH214591   4.145   5.250   1.719  0.5597  0.2639  0.2967
 4883TIP3    H114592   4.131   5.247   1.814 -0.4968  0.4811  0.1459
 4883TIP3    H214593   4.168   5.341   1.701 -1.3084  0.7148  0.0651
 4884TIP3   OH214594   5.396   6.165   3.440 -0.1067 -0.1941  0.2690
 4884TIP3    H114595   5.372   6.257   3.447  1.5428  0.3251 -0.4931
 4884TIP3    H214596   5.461   6.162   3.369  0.8050 -1.7332  1.1186
 4885TIP3   OH214597   3.870   7.458   0.515  0.3671 -0.2438 -0.3955
 4885TIP3    H114598   3.845   7.509   0.439 -0.1339  0.4291  0.2158
 4885TIP3    H214599   3.804   7.479   0.581  1.8413  0.6113  0.8376
 4886TIP3   OH214600   4.120   5.272   4.127  0.2515 -0.6673  0.1204
 4886TIP3    H114601   4.053   5.337   4.106 -1.1602 -1.3730  2.3099
 4886TIP3    H214602   4.088   5.229   4.206  2.3639 -2.3497  0.1026
 4887TIP3   OH214603   5.101   5.947   1.855  0.0101  0.2475  0.2153
 4887TIP3    H114604   5.026   5.923   1.910 -0.1885  1.5086  0.5269
 4887TIP3    H214605   5.178   5.927   1.909 -0.0835 -1.4631 -0.2761
 4888TIP3   OH214606   3.467   5.732   4.609 -0.2988 -0.5705 -0.4241
 4888TIP3    H114607   3.410   5.719   4.685 -1.3816 -1.3974 -1.3601
 4888TIP3    H214608   3.407   5.738   4.535  0.7277  0.6149 -1.1792
 4889TIP3   OH214609   2.421   1.987   6.195  0.0504 -0.3694  0.0358
 4889TIP3    H114610   2.381   1.963   6.278  1.1287  0.1854  0.7220
 4889TIP3    H214611   2.381   2.072   6.173 -0.4161 -0.6319 -0.1480
 4890TIP3   OH214612   5.731   4.216   4.142  0.1777 -0.8816  0.0174
 4890TIP3    H114613   5.798   4.283   4.156  0.4711 -1.1973  0.1487
 4890TIP3    H214614   5.774   4.150   4.088 -0.7263 -0.0241 -1.7736
 4891TIP3   OH214615   3.167   4.990   3.915  0.8516 -0.0769  0.2690
 4891TIP3    H114616   3.151   4.898   3.934  1.4120 -0.2152  0.0749
 4891TIP3    H214617   3.249   4.991   3.866  0.9987  0.5485  0.5180
 4892TIP3   OH214618   5.981   6.123   1.776  0.0729  0.0308  0.2729
 4892TIP3    H114619   5.937   6.193   1.728 -0.7342 -1.6880 -1.5760
 4892TIP3    H214620   6.074   6.144   1.770  0.0967 -0.7636 -3.1701
 4893TIP3   OH214621   4.708   4.546   2.481  0.5985  0.1616  0.3001
 4893TIP3    H114622   4.700   4.579   2.571  0.9186  0.5106  0.2023
 4893TIP3    H214623   4.645   4.598   2.431  0.8716  0.4072  0.2067
 4894TIP3   OH214624   5.632   6.888   0.758 -0.1781  0.3902 -0.2275
 4894TIP3    H114625   5.712   6.941   0.754  0.5667 -0.8184 -2.0639
 4894TIP3    H214626   5.596   6.893   0.669 -0.3502 -1.7525 -0.2982
 4895TIP3   OH214627   5.876   6.739   3.779 -0.1305  0.0261  0.3156
 4895TIP3    H114628   5.963   6.701   3.762  0.0989  0.6921 -0.0411
 4895TIP3    H214629   5.876   6.821   3.729 -0.0988  1.1729  2.1265
 4896TIP3   OH214630   3.881   5.849   1.210  0.0796 -0.1524  0.8174
 4896TIP3    H114631   3.819   5.786   1.175  1.3264 -0.9688  0.0276
 4896TIP3    H214632   3.966   5.821   1.176  1.0865  0.0885  3.0389
 4897TIP3   OH214633   5.297   4.529   2.061 -0.3308  0.0020  0.3036
 4897TIP3    H114634   5.221   4.579   2.090 -0.5813  0.6957 -1.4999
 4897TIP3    H214635   5.316   4.470   2.134 -1.2051  1.3833  1.6883
 4898TIP3   OH214636   5.866   5.317   3.620 -0.0061  0.1247 -0.9304
 4898TIP3    H114637   5.782   5.312   3.574 -0.0736  0.1685 -0.8123
 4898TIP3    H214638   5.930   5.337   3.552 -0.1287  0.3591 -0.9773
 4899TIP3   OH214639   4.897   5.672   3.095  0.4063  0.0549 -0.4249
 4899TIP3    H114640   4.894   5.670   3.191  0.7416  0.2343 -0.4100
 4899TIP3    H214641   4.834   5.739   3.070  1.0008  0.6638 -0.2929
 4900TIP3   OH214642   3.952   4.281   2.670  0.2191  0.3567 -0.5157
 4900TIP3    H114643   3.985   4.212   2.613  1.6404 -0.2785  1.0170
 4900TIP3    H214644   4.013   4.281   2.744 -1.7560  0.9288  1.1445
 4901TIP3   OH214645   5.794   6.759   2.966 -0.0904  0.3602 -0.2271
 4901TIP3    H114646   5.770   6.736   2.876 -0.8681  1.2498 -0.2557
 4901TIP3    H214647   5.879   6.717   2.980 -0.3422 -0.4699 -1.0975
 4902TIP3   OH214648   4.596   6.287   4.174 -0.1376  0.2026  0.5899
 4902TIP3    H114649   4.577   6.199   4.140  0.6124 -0.0790  0.8909
 4902TIP3    H214650   4.589   6.344   4.098  1.1733 -0.3717  0.0257
 4903TIP3   OH214651   4.239   7.758   2.213  0.1944 -0.2464 -0.0641
 4903TIP3    H114652   4.327   7.724   2.197 -0.1781 -1.7970  1.0578
 4903TIP3    H214653   4.209   7.710   2.291 -1.2949  0.9127  0.0947
 4904TIP3   OH214654   7.940   0.343   2.742  0.1618  0.5395  0.0992
 4904TIP3    H114655   7.921   0.287   2.817 -0.7720 -0.8583 -1.1436
 4904TIP3    H214656   7.855   0.365   2.705  0.6472  0.1967 -1.2662
 4905TIP3   OH214657   4.231   7.920   1.750 -0.0460  0.2864  0.5713
 4905TIP3    H114658   4.287   7.851   1.715  1.1374  1.5258  0.0242
 4905TIP3    H214659   4.196   7.882   1.831  0.8014 -0.8510  0.4249
 4906TIP3   OH214660   5.555   7.346   0.268 -0.4150 -0.2782 -0.2352
 4906TIP3    H114661   5.579   7.438   0.283  1.8951 -1.0123  0.7730
 4906TIP3    H214662   5.530   7.314   0.355  1.0116 -1.2127 -0.1551
 4907TIP3   OH214663   2.967   1.181   6.221 -0.5748 -0.0244 -0.0472
 4907TIP3    H114664   2.952   1.153   6.131 -2.0684  1.9230 -0.4565
 4907TIP3    H214665   2.900   1.136   6.272  0.7032 -1.6618  0.2251
 4908TIP3   OH214666   6.387   6.718   1.191 -0.5352  0.7230  0.3009
 4908TIP3    H114667   6.470   6.690   1.151 -0.7444  1.5388 -0.7355
 4908TIP3    H214668   6.321   6.661   1.151 -0.7507  1.5691 -0.5627
 4909TIP3   OH214669   4.863   5.635   3.354  0.0066  0.2611 -0.2191
 4909TIP3    H114670   4.786   5.680   3.389 -0.0265 -0.9631  1.3726
 4909TIP3    H214671   4.931   5.648   3.420  0.8581  0.4492 -1.1251
 4910TIP3   OH214672   5.562   4.520   1.344 -0.4172  0.4853 -0.3937
 4910TIP3    H114673   5.548   4.461   1.418 -1.9673  1.2737 -0.0499
 4910TIP3    H214674   5.581   4.461   1.270  1.1059 -0.2966  0.5922
 4911TIP3   OH214675   6.521   6.296   1.042 -0.7291  0.0895 -0.3028
 4911TIP3    H114676   6.601   6.266   0.998 -0.0049  0.8982  0.4414
 4911TIP3    H214677   6.548   6.311   1.133 -1.9944 -0.7136  0.2285
 4912TIP3   OH214678   4.757   6.688   0.471 -0.4050 -0.2034 -0.3985
 4912TIP3    H114679   4.669   6.685   0.509  0.2474  3.2520  1.5854
 4912TIP3    H214680   4.806   6.622   0.521 -1.3045 -0.5944 -0.0197
 4913TIP3   OH214681   5.195   6.142   1.342  0.3788 -0.0570  0.1776
 4913TIP3    H114682   5.106   6.165   1.369  0.5381 -1.2925  1.7746
 4913TIP3    H214683   5.212   6.057   1.382  1.7265 -0.5651 -1.3817
 4914TIP3   OH214684   6.002   4.340   0.373  0.6831 -0.0480  0.0449
 4914TIP3    H114685   5.937   4.314   0.307  0.8672 -0.1498 -0.0941
 4914TIP3    H214686   6.084   4.301   0.343  0.8745  0.3450  0.0574
 4915TIP3   OH214687   3.420   6.714   1.372 -0.7432  0.5819  0.4334
 4915TIP3    H114688   3.361   6.771   1.323  0.3958  1.9954  0.6721
 4915TIP3    H214689   3.378   6.705   1.458 -1.9557 -0.6474 -0.2595
 4916TIP3   OH214690   5.599   7.799   4.305 -0.3129  0.3578  0.5244
 4916TIP3    H114691   5.630   7.711   4.326  0.5962  0.5137 -0.1204
 4916TIP3    H214692   5.510   7.802   4.340  0.5166  0.0313  2.7736
 4917TIP3   OH214693   0.225   0.362   1.219  0.3369  0.7145  0.2462
 4917TIP3    H114694   0.249   0.442   1.172 -0.3547  1.5292  1.2666
 4917TIP3    H214695   0.171   0.392   1.292 -0.7173 -0.7827  0.0890
 4918TIP3   OH214696   4.008   4.109   0.559  0.2547 -0.8791  0.7238
 4918TIP3    H114697   3.989   4.122   0.652  0.0498 -0.7389  0.6609
 4918TIP3    H214698   3.939   4.050   0.528  0.6160 -1.3393  0.7787
 4919TIP3   OH214699   4.416   3.917   1.770  0.1859  0.0712 -0.0449
 4919TIP3    H114700   4.396   3.987   1.833  0.6648 -0.9944  1.2999
 4919TIP3    H214701   4.465   3.852   1.820  1.1835 -0.4755 -1.6964
 4920TIP3   OH214702   6.080   7.119   2.644 -0.5492 -0.2277  0.4761
 4920TIP3    H114703   6.051   7.182   2.710  1.3312  1.2091 -0.0061
 4920TIP3    H214704   6.165   7.153   2.615 -0.6332 -1.6832 -1.5591
 4921TIP3   OH214705   4.905   6.630   3.156  0.2726  0.3087  0.0197
 4921TIP3    H114706   4.813   6.608   3.171 -0.2049  1.3588 -1.2354
 4921TIP3    H214707   4.939   6.556   3.105 -0.5715  1.0816 -1.7215
 4922TIP3   OH214708   5.089   5.562   2.757 -0.1918 -0.1337  0.3483
 4922TIP3    H114709   5.008   5.603   2.728 -0.4525 -1.7419 -1.2665
 4922TIP3    H214710   5.061   5.482   2.802  0.5192 -1.5507 -1.6436
 4923TIP3   OH214711   6.737   4.357   2.136  0.0051 -0.1922 -0.1435
 4923TIP3    H114712   6.783   4.285   2.180  2.1561 -0.1619 -2.2453
 4923TIP3    H214713   6.688   4.400   2.206 -0.8927 -3.3282  1.2634
 4924TIP3   OH214714   5.062   7.259   0.792 -0.2744 -0.0450  0.0491
 4924TIP3    H114715   5.144   7.291   0.755  0.4971 -2.6396 -0.5850
 4924TIP3    H214716   4.994   7.307   0.745  0.8436  0.6609 -0.8717
 4925TIP3   OH214717   4.491   3.408   1.879  0.0568 -0.6897  0.2535
 4925TIP3    H114718   4.578   3.438   1.905 -0.2155 -0.7409  1.2210
 4925TIP3    H214719   4.452   3.374   1.959 -0.7372 -0.9602 -0.2446
 4926TIP3   OH214720   3.570   5.365   3.415 -0.1090  0.7482 -0.1916
 4926TIP3    H114721   3.629   5.402   3.480  0.4599 -2.1475  1.0315
 4926TIP3    H214722   3.627   5.322   3.351 -0.7719  0.6602 -0.7381
 4927TIP3   OH214723   5.700   5.554   4.274 -0.4616  0.0518  0.3926
 4927TIP3    H114724   5.721   5.468   4.238  0.1652 -0.0549  1.0027
 4927TIP3    H214725   5.755   5.615   4.223  1.5972 -0.2576  2.1882
 4928TIP3   OH214726   6.409   6.022   0.212 -0.6637  0.1670  0.0921
 4928TIP3    H114727   6.457   5.971   0.278 -0.4807  0.9359  0.5547
 4928TIP3    H214728   6.381   5.957   0.147  0.3775 -0.3982  0.1974
 4929TIP3   OH214729   3.846   4.287   1.579 -0.4286 -0.0074  0.2559
 4929TIP3    H114730   3.849   4.336   1.661  2.2412 -1.0663  0.8422
 4929TIP3    H214731   3.836   4.353   1.511 -1.1759  0.9956  1.3251
 4930TIP3   OH214732   0.870   2.623   6.873 -0.2958 -0.7246 -0.1487
 4930TIP3    H114733   0.930   2.618   6.798  0.2618  1.0924  0.1640
 4930TIP3    H214734   0.808   2.551   6.859  1.3028 -1.9550 -1.0410
 4931TIP3   OH214735   4.632   5.976   1.808  0.5632 -0.0981  0.6731
 4931TIP3    H114736   4.715   5.990   1.763 -0.0656  0.2507 -0.4079
 4931TIP3    H214737   4.601   6.065   1.829 -0.4859 -0.1011 -0.7293
 4932TIP3   OH214738   4.117   7.355   2.881 -0.5463 -0.3017 -0.0909
 4932TIP3    H114739   4.171   7.425   2.918 -0.7783 -0.2508  0.1503
 4932TIP3    H214740   4.122   7.284   2.944  0.5543 -0.9079 -0.8470
 4933TIP3   OH214741   4.982   6.797   1.615  0.0799  0.3530  0.3673
 4933TIP3    H114742   4.957   6.724   1.672 -0.0694  0.9829  1.1219
 4933TIP3    H214743   4.952   6.875   1.662 -1.0351  0.8303 -1.0827
 4934TIP3   OH214744   6.247   6.197   1.699 -0.4042  0.6010  0.0252
 4934TIP3    H114745   6.300   6.158   1.629  0.3199  0.1896  0.8027
 4934TIP3    H214746   6.302   6.267   1.735 -0.7369  0.7484  0.2568
 4935TIP3   OH214747   3.681   4.899   3.434 -0.8836  0.2328 -0.0624
 4935TIP3    H114748   3.664   4.881   3.341 -0.9430 -0.0995  0.0111
 4935TIP3    H214749   3.640   4.984   3.450 -1.7658 -0.1758 -0.0892
 4936TIP3   OH214750   4.649   5.929   2.085 -0.3197 -0.2012  0.6116
 4936TIP3    H114751   4.647   6.012   2.132 -2.1044 -0.1401  0.4334
 4936TIP3    H214752   4.621   5.951   1.996  0.3716 -0.8022  0.2354
 4937TIP3   OH214753   4.200   7.757   2.586 -0.1626 -0.4237  0.3849
 4937TIP3    H114754   4.253   7.805   2.650 -2.9383  1.8321  1.1075
 4937TIP3    H214755   4.176   7.676   2.631 -1.0933  0.6064  1.7790
 4938TIP3   OH214756   4.642   6.993   2.742 -0.1988  0.1536 -0.8558
 4938TIP3    H114757   4.670   6.998   2.651 -0.3577 -0.8987 -0.9657
 4938TIP3    H214758   4.674   6.908   2.773  0.2216  0.6821  0.1915
 4939TIP3   OH214759   4.693   5.411   0.796  0.2255 -0.5205 -0.1574
 4939TIP3    H114760   4.711   5.479   0.860  0.1102 -1.2478  0.6513
 4939TIP3    H214761   4.777   5.396   0.752  0.8033 -1.4805  1.2504
 4940TIP3   OH214762   4.712   5.082   0.443  0.3963 -0.6635  0.1424
 4940TIP3    H114763   4.623   5.093   0.409  0.0021  0.0818  1.3594
 4940TIP3    H214764   4.767   5.134   0.385  0.0406 -1.1108 -0.6038
 4941TIP3   OH214765   5.497   5.797   1.293  0.3900  0.0771  0.0146
 4941TIP3    H114766   5.479   5.707   1.319  0.8794 -0.8799 -2.7737
 4941TIP3    H214767   5.590   5.809   1.312  0.2435  0.1333  0.7238
 4942TIP3   OH214768   5.630   3.954   1.817 -0.0220  0.1596  0.3824
 4942TIP3    H114769   5.535   3.958   1.802  0.0792 -0.7467 -0.5636
 4942TIP3    H214770   5.667   4.007   1.746  0.1681  0.8896  1.0181
 4943TIP3   OH214771   5.728   4.618   2.396 -0.0721  0.0596 -0.3040
 4943TIP3    H114772   5.755   4.700   2.438  2.0133 -1.1748  0.8580
 4943TIP3    H214773   5.690   4.566   2.466  0.2028 -0.6358 -0.6576
 4944TIP3   OH214774   5.727   4.143   2.325 -0.7326 -0.0865  0.3852
 4944TIP3    H114775   5.699   4.061   2.284  3.1252 -0.5808 -1.4379
 4944TIP3    H214776   5.711   4.210   2.258  2.4959 -0.4130 -0.7870
 4945TIP3   OH214777   5.350   7.546   1.432  0.3790  0.4176 -0.4087
 4945TIP3    H114778   5.256   7.545   1.418  0.4770 -1.8868 -1.1619
 4945TIP3    H214779   5.362   7.598   1.511 -1.4550  1.2737 -0.6645
 4946TIP3   OH214780   3.689   5.264   3.195  0.3525  0.2096 -0.1789
 4946TIP3    H114781   3.653   5.182   3.160 -1.7536  0.3680  1.4938
 4946TIP3    H214782   3.646   5.333   3.144  0.2391  0.3357  0.0869
 4947TIP3   OH214783   6.223   5.089   0.469 -0.7085  0.2289  0.0519
 4947TIP3    H114784   6.241   5.181   0.449 -0.4284  0.3201  0.7174
 4947TIP3    H214785   6.250   5.079   0.560 -1.4485 -0.3272  0.2152
 4948TIP3   OH214786   1.455   0.290   6.686  0.0742 -0.4726  0.7697
 4948TIP3    H114787   1.462   0.379   6.651 -1.1374 -1.2432 -1.5943
 4948TIP3    H214788   1.546   0.261   6.693  0.4415  0.5108  0.3388
 4949TIP3   OH214789   5.445   4.424   0.961  0.2998 -0.2642  0.4199
 4949TIP3    H114790   5.380   4.494   0.950  0.2195 -0.0913  1.8793
 4949TIP3    H214791   5.485   4.415   0.875 -0.2416  1.0461  0.0140
 4950TIP3   OH214792   3.913   7.546   0.840  0.7045  0.4204  0.1208
 4950TIP3    H114793   3.992   7.568   0.890  0.4917 -0.2156  0.7271
 4950TIP3    H214794   3.934   7.574   0.750  1.1208  1.4625  0.5285
 4951TIP3   OH214795   2.553   0.463   6.907 -0.4375  0.1123 -0.3123
 4951TIP3    H114796   2.584   0.534   6.851  0.8699  0.9929  1.4898
 4951TIP3    H214797   2.608   0.468   6.985 -1.1642 -2.1010  0.3769
 4952TIP3   OH214798   4.062   5.881   0.932 -0.2781 -0.2672  0.8726
 4952TIP3    H114799   4.146   5.834   0.932 -1.2823 -2.1590 -1.2161
 4952TIP3    H214800   4.069   5.943   0.860 -0.3651  0.1976  1.2599
 4953TIP3   OH214801   3.793   7.591   0.228 -0.2645 -0.4787  0.4656
 4953TIP3    H114802   3.881   7.623   0.208  0.1697 -1.0129  1.4823
 4953TIP3    H214803   3.734   7.650   0.181  0.6434 -0.3124 -0.4867
 4954TIP3   OH214804   2.638   2.661   5.367  0.7251 -0.3314  0.2598
 4954TIP3    H114805   2.730   2.688   5.365  1.0761 -1.4924  0.5319
 4954TIP3    H214806   2.634   2.594   5.434 -0.5277  0.4167  0.9615
 4955TIP3   OH214807   6.012   6.420   3.234  0.4014  0.3274  0.9925
 4955TIP3    H114808   6.017   6.470   3.152 -1.3935 -0.4202  0.4147
 4955TIP3    H214809   6.056   6.476   3.298 -0.9746  2.3695  0.2002
 4956TIP3   OH214810   4.874   5.116   3.126 -0.0113  0.1065  0.2548
 4956TIP3    H114811   4.879   5.035   3.075 -1.6408  0.0918  0.0922
 4956TIP3    H214812   4.937   5.103   3.197  1.3290 -0.3937 -1.0176
 4957TIP3   OH214813   5.175   6.082   2.571 -0.1786 -0.3333  0.0008
 4957TIP3    H114814   5.174   5.988   2.591 -2.6687  0.0460  1.8543
 4957TIP3    H214815   5.268   6.105   2.572  0.4605 -2.7363 -0.3053
 4958TIP3   OH214816   5.959   6.747   1.694 -0.3087 -0.0321  0.1191
 4958TIP3    H114817   5.906   6.722   1.769 -0.1760 -0.2209  0.1513
 4958TIP3    H214818   5.897   6.753   1.621 -0.3140 -0.6719  0.0643
 4959TIP3   OH214819   4.917   6.678   4.851  0.3898 -0.4494  0.4306
 4959TIP3    H114820   4.875   6.593   4.861 -0.4297 -0.0093  0.8226
 4959TIP3    H214821   4.897   6.705   4.761 -0.8499  0.1095  0.8633
 4960TIP3   OH214822   6.890   5.245   1.652  0.1249 -0.0841  0.1375
 4960TIP3    H114823   6.807   5.292   1.666  0.6844  1.0585 -0.3029
 4960TIP3    H214824   6.863   5.157   1.625 -0.9512  0.2554  0.0529
 4961TIP3   OH214825   5.557   6.396   1.574  0.4469 -0.3754  0.4508
 4961TIP3    H114826   5.639   6.359   1.540 -0.6047 -0.4796 -2.0623
 4961TIP3    H214827   5.494   6.324   1.567 -0.4099  0.3939  0.1818
 4962TIP3   OH214828   0.752   0.331   0.752  0.0289 -0.4439  0.0373
 4962TIP3    H114829   0.799   0.396   0.700  1.2748 -2.0010 -0.8100
 4962TIP3    H214830   0.666   0.370   0.767  0.7371  1.3699 -0.4997
 4963TIP3   OH214831   4.071   2.480   6.441 -0.4265  0.2265  0.4389
 4963TIP3    H114832   4.164   2.466   6.422 -0.1486  0.5902  1.5087
 4963TIP3    H214833   4.029   2.397   6.416  0.2235 -0.0428  0.2314
 4964TIP3   OH214834   0.310   6.184   1.297  0.1934  0.2944 -0.0972
 4964TIP3    H114835   0.316   6.128   1.375 -1.5780 -0.1192 -0.2220
 4964TIP3    H214836   0.399   6.216   1.282  0.7909 -0.6909  1.3152
 4965TIP3   OH214837   7.992   4.534   1.545 -0.6403 -0.2893 -0.0159
 4965TIP3    H114838   7.997   4.522   1.450 -0.6153  1.1448 -0.2096
 4965TIP3    H214839   8.084   4.543   1.572 -0.6046 -1.3727  0.2463
 4966TIP3   OH214840   5.790   6.691   0.886 -0.4528  0.8761 -0.5886
 4966TIP3    H114841   5.738   6.611   0.900 -2.2201  1.8341 -1.4411
 4966TIP3    H214842   5.732   6.747   0.834  0.4322  3.0614  0.7511
 4967TIP3   OH214843   6.345   4.669   0.444 -0.0558  0.5421 -0.3486
 4967TIP3    H114844   6.342   4.758   0.410  0.2716 -0.2339 -2.4884
 4967TIP3    H214845   6.439   4.649   0.448 -0.0586  0.8130  1.5961
 4968TIP3   OH214846   6.126   4.629   2.856  0.5220  0.0441  0.0331
 4968TIP3    H114847   6.091   4.550   2.897  2.9373 -0.6643  0.8065
 4968TIP3    H214848   6.154   4.684   2.928  2.1464  0.0243 -0.5370
 4969TIP3   OH214849   4.476   6.258   3.241 -0.6921  0.3474  0.0231
 4969TIP3    H114850   4.417   6.239   3.169 -2.7347 -1.7236  2.1364
 4969TIP3    H214851   4.429   6.229   3.319  3.4525 -2.3477  1.7313
 4970TIP3   OH214852   8.319   6.511   1.196 -0.8460 -0.4227 -0.2396
 4970TIP3    H114853   8.255   6.520   1.266 -0.6594  2.0475 -0.3470
 4970TIP3    H214854   8.397   6.556   1.229 -0.3633 -0.2852 -1.5335
 4971TIP3   OH214855   6.220   3.936   2.683  0.2643  0.2412  0.2770
 4971TIP3    H114856   6.285   3.866   2.693 -0.6072 -0.7161 -0.6696
 4971TIP3    H214857   6.174   3.937   2.767 -0.3120 -0.9376 -0.0094
 4972TIP3   OH214858   6.175   5.552   1.424  0.2940  0.3540  0.4468
 4972TIP3    H114859   6.135   5.624   1.473  1.1183  1.0388  0.1410
 4972TIP3    H214860   6.171   5.579   1.333 -1.5342 -1.0708  0.0776
 4973TIP3   OH214861   3.214   2.015   6.034  0.1951 -0.4466  0.0613
 4973TIP3    H114862   3.121   2.025   6.054  0.5830 -0.9008  2.1985
 4973TIP3    H214863   3.256   2.092   6.073  0.8032 -0.6152 -0.2450
 4974TIP3   OH214864   7.654   4.171   1.696 -0.4463 -0.3478 -0.3227
 4974TIP3    H114865   7.744   4.201   1.706 -0.4366 -0.3596 -0.3799
 4974TIP3    H214866   7.639   4.174   1.601 -0.2823 -1.0044 -0.3726
 4975TIP3   OH214867   6.698   5.504   1.239  0.3676 -0.7637  0.5789
 4975TIP3    H114868   6.628   5.562   1.269  1.1243 -0.0210  0.9180
 4975TIP3    H214869   6.672   5.480   1.150  0.0424  0.0979  0.4323
 4976TIP3   OH214870   4.301   5.848   2.595 -0.1143 -0.1565 -0.2097
 4976TIP3    H114871   4.383   5.892   2.618 -1.6347  0.9132  3.5073
 4976TIP3    H214872   4.304   5.764   2.641 -0.8656 -0.3488 -0.5044
 4977TIP3   OH214873   0.263   4.311   0.314  0.4887  0.1492 -0.1911
 4977TIP3    H114874   0.351   4.307   0.277  0.7304 -2.6571  0.6063
 4977TIP3    H214875   0.276   4.351   0.401  0.9591 -0.1668 -0.1144
 4978TIP3   OH214876   0.685   5.269   1.044  0.4622 -0.0117  0.0525
 4978TIP3    H114877   0.766   5.296   1.000  0.1703 -1.8064 -1.6093
 4978TIP3    H214878   0.703   5.181   1.076 -0.1711  0.3425  1.4004
 4979TIP3   OH214879   7.331   5.297   1.732 -0.1479  0.0279  0.4135
 4979TIP3    H114880   7.310   5.268   1.644 -3.9310  0.3291  1.1062
 4979TIP3    H214881   7.347   5.216   1.781 -2.0604 -0.4016  0.3556
 4980TIP3   OH214882   6.167   6.815   2.476 -0.0924 -0.0581  0.3454
 4980TIP3    H114883   6.236   6.851   2.532 -0.1072  0.5925 -0.0502
 4980TIP3    H214884   6.180   6.858   2.391  0.6129 -1.8455 -0.4850
 4981TIP3   OH214885   7.562   2.877   0.503  0.3539 -0.4873  0.0930
 4981TIP3    H114886   7.605   2.919   0.429 -1.0448 -0.4945 -0.7347
 4981TIP3    H214887   7.629   2.875   0.571  0.9980  1.4157 -0.4599
 4982TIP3   OH214888   6.131   6.901   0.120  0.3792 -0.0799 -0.2110
 4982TIP3    H114889   6.087   6.818   0.139 -0.1908  0.4566  0.8247
 4982TIP3    H214890   6.060   6.961   0.097  0.5670  0.7786  1.4297
 4983TIP3   OH214891   6.451   7.854   2.767 -0.0171  0.3478 -0.3271
 4983TIP3    H114892   6.511   7.855   2.693 -1.3214 -0.7251 -1.4280
 4983TIP3    H214893   6.456   7.943   2.803  3.5164 -0.2020  0.7037
 4984TIP3   OH214894   6.200   2.170   5.738 -0.7611 -0.5619 -0.2333
 4984TIP3    H114895   6.164   2.138   5.820 -2.7285 -0.2215 -0.9566
 4984TIP3    H214896   6.278   2.116   5.724 -0.2308 -0.3899  1.9997
 4985TIP3   OH214897   6.703   6.148   3.402 -0.1986  0.3101  0.2436
 4985TIP3    H114898   6.651   6.068   3.393  0.6274 -0.0109 -1.7468
 4985TIP3    H214899   6.639   6.218   3.390 -1.0438  0.0113  2.5957
 4986TIP3   OH214900   7.403   3.986   0.807  0.2696 -0.1721 -0.2231
 4986TIP3    H114901   7.406   4.068   0.759 -2.2769 -0.6488 -1.2224
 4986TIP3    H214902   7.376   4.011   0.895 -0.3093  0.0817 -0.4719
 4987TIP3   OH214903   2.229   1.388   5.724 -0.2113  0.7616 -0.2699
 4987TIP3    H114904   2.289   1.403   5.798  0.3891 -0.4208 -0.5058
 4987TIP3    H214905   2.179   1.469   5.718 -0.7156  0.6460  1.8477
 4988TIP3   OH214906   5.612   4.287   2.106 -0.8019  0.0819  0.3390
 4988TIP3    H114907   5.556   4.210   2.094 -1.3726  0.0351  2.9138
 4988TIP3    H214908   5.551   4.358   2.126 -0.2990  1.3276 -2.3029
 4989TIP3   OH214909   6.481   5.671   1.318  0.2466  0.0530 -0.3533
 4989TIP3    H114910   6.502   5.625   1.399 -0.9483  0.7857  0.3824
 4989TIP3    H214911   6.434   5.750   1.346  1.0348  1.0185 -1.6790
 4990TIP3   OH214912   4.481   7.035   2.236  0.6869  0.4047 -0.1170
 4990TIP3    H114913   4.394   7.063   2.267  0.5635 -0.7881  0.6303
 4990TIP3    H214914   4.540   7.103   2.268  0.2050  0.5153  0.5554
 4991TIP3   OH214915   2.471   1.481   6.621 -0.5988 -0.1150  0.3664
 4991TIP3    H114916   2.545   1.498   6.679 -0.5449  1.2043 -0.0799
 4991TIP3    H214917   2.504   1.416   6.559  0.6991  1.5935 -0.7786
 4992TIP3   OH214918   7.819   0.388   1.937  0.1704  0.5029  0.4213
 4992TIP3    H114919   7.782   0.415   1.853 -1.6659  1.7938  1.6123
 4992TIP3    H214920   7.775   0.307   1.958  0.1506  0.5218  0.4528
 4993TIP3   OH214921   7.386   2.399   0.983  0.4709 -0.0537 -0.3802
 4993TIP3    H114922   7.378   2.416   0.889  0.1368 -0.4118 -0.4186
 4993TIP3    H214923   7.354   2.310   0.994  0.9544 -0.1791  0.0073
 4994TIP3   OH214924   7.202   6.232   2.259 -0.3799 -0.2961 -0.0956
 4994TIP3    H114925   7.176   6.161   2.200 -0.8499 -0.2590  0.0702
 4994TIP3    H214926   7.158   6.213   2.341 -0.4182  0.1297 -0.0162
 4995TIP3   OH214927   7.303   4.318   2.225 -0.2402  0.1484  0.0214
 4995TIP3    H114928   7.319   4.377   2.299  0.1198 -0.4515  0.4394
 4995TIP3    H214929   7.245   4.250   2.261 -2.5576  1.4982 -1.0920
 4996TIP3   OH214930   7.256   3.885   2.282  0.1739 -0.3790 -0.0502
 4996TIP3    H114931   7.196   3.865   2.353  0.6295 -0.7637  0.2252
 4996TIP3    H214932   7.202   3.878   2.203 -0.6898  1.4796  0.3453
 4997TIP3   OH214933   7.523   6.112   3.633 -0.3906 -0.0922  0.0833
 4997TIP3    H114934   7.430   6.127   3.653 -0.6643  0.4552 -1.5809
 4997TIP3    H214935   7.523   6.039   3.571  0.1978  0.8573 -1.0450
 4998TIP3   OH214936   7.313   4.163   1.974  0.0926  0.3136 -0.4497
 4998TIP3    H114937   7.240   4.213   1.937 -1.8850 -2.0027  0.2404
 4998TIP3    H214938   7.329   4.203   2.060  0.0329  1.1582 -0.8210
 4999TIP3   OH214939   5.522   4.392   0.715 -0.4437 -0.3973 -0.1186
 4999TIP3    H114940   5.600   4.338   0.703  0.2606  0.7480 -0.7126
 4999TIP3    H214941   5.450   4.337   0.683  0.3728 -0.6410 -1.5581
 5000TIP3   OH214942   1.458   0.508   1.989  0.1506 -0.2935  0.0310
 5000TIP3    H114943   1.448   0.594   1.948 -0.6455  0.1283  1.0524
 5000TIP3    H214944   1.386   0.456   1.954 -0.4193  0.0099  0.7311
 5001TIP3   OH214945   7.838   5.193   0.120 -0.5704  0.1841  0.3720
 5001TIP3    H114946   7.745   5.176   0.133 -1.4659  4.3619  0.1338
 5001TIP3    H214947   7.845   5.289   0.117  3.3105 -0.0485 -2.5600
 5002TIP3   OH214948   6.093   5.364   2.418  0.4322  0.6219  0.2732
 5002TIP3    H114949   6.012   5.408   2.393  0.3293  0.8264  0.9576
 5002TIP3    H214950   6.151   5.434   2.446  1.9504  0.8200 -3.1143
 5003TIP3   OH214951   4.449   2.512   4.838 -0.6667  0.5582  1.0955
 5003TIP3    H114952   4.394   2.435   4.850  0.9758 -0.6336  1.1260
 5003TIP3    H214953   4.491   2.526   4.923  2.7929 -1.5105 -0.1689
 5004TIP3   OH214954   4.633   4.874   0.955  0.3049 -0.1751 -0.4636
 5004TIP3    H114955   4.600   4.842   1.039 -0.7559 -0.4825 -0.9800
 5004TIP3    H214956   4.692   4.805   0.924  0.1557 -0.3802 -0.2917
 5005TIP3   OH214957   8.006   6.753   2.885 -0.0469  0.0161  0.0383
 5005TIP3    H114958   7.945   6.714   2.947 -0.2675  0.7869  0.3108
 5005TIP3    H214959   8.011   6.690   2.813 -2.2177  0.5731 -0.6249
 5006TIP3   OH214960   5.983   4.219   1.676  0.8296  0.1856  0.4700
 5006TIP3    H114961   6.030   4.136   1.687  1.1526  0.5572  1.9953
 5006TIP3    H214962   6.043   4.285   1.713 -1.1874  0.5839  3.1954
 5007TIP3   OH214963   6.296   6.596   0.343  0.6505  0.1686  0.1011
 5007TIP3    H114964   6.248   6.657   0.400  0.2468  0.5204 -0.6061
 5007TIP3    H214965   6.351   6.653   0.289 -1.0337  0.0326 -1.7823
 5008TIP3   OH214966   0.785   6.759   0.476  0.0301 -0.9900  0.2055
 5008TIP3    H114967   0.771   6.845   0.437  1.3122 -0.1265  1.5791
 5008TIP3    H214968   0.749   6.697   0.413 -1.2252  0.5714 -0.6435
 5009TIP3   OH214969   5.569   1.136   5.794  0.1872  0.5306  0.4106
 5009TIP3    H114970   5.487   1.088   5.778  0.5681  0.2055 -0.5819
 5009TIP3    H214971   5.561   1.167   5.884 -1.5596  1.5162 -0.0540
 5010TIP3   OH214972   6.433   6.564   1.495  0.6129 -0.0167 -0.1187
 5010TIP3    H114973   6.337   6.560   1.502  0.5972  0.0022 -0.3264
 5010TIP3    H214974   6.450   6.648   1.451  0.6629 -0.6533 -1.3186
 5011TIP3   OH214975   4.080   1.355   6.827 -0.0431  0.4260  0.6247
 5011TIP3    H114976   4.168   1.341   6.862 -0.1353  1.0550  1.1189
 5011TIP3    H214977   4.029   1.389   6.901 -0.6190  0.3717  0.2614
 5012TIP3   OH214978   7.239   5.533   1.340 -0.2392 -0.2708  0.0255
 5012TIP3    H114979   7.178   5.482   1.393  1.0806 -0.0770  1.7540
 5012TIP3    H214980   7.293   5.581   1.403  0.3043  1.2112 -1.5154
 5013TIP3   OH214981   1.271   1.212   3.091 -0.6320 -0.1700 -0.6310
 5013TIP3    H114982   1.366   1.203   3.092 -0.2158  3.3318 -0.4383
 5013TIP3    H214983   1.247   1.234   3.181 -1.8076 -2.3253 -0.3872
 5014TIP3   OH214984   7.266   6.853   0.517 -0.0340 -0.3687  0.2481
 5014TIP3    H114985   7.186   6.841   0.568 -0.6708 -2.4276 -1.1512
 5014TIP3    H214986   7.237   6.890   0.434  0.0631 -3.7639 -1.3643
 5015TIP3   OH214987   1.429   6.250   1.465  0.3587 -0.1849  0.0406
 5015TIP3    H114988   1.520   6.220   1.469  0.2286 -0.6675 -0.5295
 5015TIP3    H214989   1.407   6.247   1.372 -0.2378 -0.0667  0.1769
 5016TIP3   OH214990   8.307   6.757   1.860  0.5650  0.5202 -0.8152
 5016TIP3    H114991   8.270   6.843   1.882 -0.3202 -0.5006  1.8348
 5016TIP3    H214992   8.394   6.758   1.901 -0.4524 -0.7841  1.4559
 5017TIP3   OH214993   6.509   7.638   2.950  0.6352 -0.0211 -0.2971
 5017TIP3    H114994   6.602   7.661   2.960  0.5288  0.0295  0.6731
 5017TIP3    H214995   6.476   7.700   2.886  1.9676 -1.9691 -2.9386
 5018TIP3   OH214996   6.634   7.756   1.361 -0.2800 -0.1610  0.3558
 5018TIP3    H114997   6.624   7.661   1.360  1.7063 -0.3982 -0.7092
 5018TIP3    H214998   6.585   7.786   1.284 -0.5982 -0.3718  0.4785
 5019TIP3   OH214999   5.188   7.330   2.969  0.4194 -0.4847  0.2909
 5019TIP3    H115000   5.159   7.377   3.047  1.9735  1.2799 -0.1394
 5019TIP3    H215001   5.273   7.293   2.994  0.8448 -0.0500 -0.4711
 5020TIP3   OH215002   6.131   3.789   3.380  0.0660  0.3686 -0.8026
 5020TIP3    H115003   6.165   3.878   3.372  0.4202  0.5132  1.7326
 5020TIP3    H215004   6.174   3.754   3.458  0.1872 -2.1613 -1.9731
 5021TIP3   OH215005   5.899   5.953   1.568 -0.0454 -0.6522 -0.2090
 5021TIP3    H115006   5.932   6.012   1.635  1.8576 -0.7804 -1.0121
 5021TIP3    H215007   5.967   5.887   1.558 -1.8076 -2.5454  0.1062
 5022TIP3   OH215008   6.287   6.393   0.950  0.0508  0.9725  0.2804
 5022TIP3    H115009   6.254   6.449   1.020 -1.0799 -1.5630  1.8324
 5022TIP3    H215010   6.376   6.369   0.978 -0.0086  0.8111  0.3298
 5023TIP3   OH215011   4.225   1.462   5.021 -0.6970  0.6063 -0.1861
 5023TIP3    H115012   4.189   1.430   5.104 -0.8623  1.7683  0.1984
 5023TIP3    H215013   4.313   1.492   5.044 -0.7990  1.0719 -0.4074
 5024TIP3   OH215014   6.924   7.630   1.711 -0.3692  0.5875 -0.1932
 5024TIP3    H115015   6.979   7.624   1.789 -0.0823  1.9405 -0.2665
 5024TIP3    H215016   6.951   7.712   1.669 -1.4111  0.5227 -1.0221
 5025TIP3   OH215017   7.447   6.983   1.468  0.6407 -0.5860  0.4998
 5025TIP3    H115018   7.536   7.019   1.463  0.4767 -0.1171  0.9098
 5025TIP3    H215019   7.405   7.014   1.388  0.9439 -1.0703  0.1524
 5026TIP3   OH215020   0.098   6.101   1.751  0.1580  0.0400 -0.3584
 5026TIP3    H115021   0.051   6.085   1.669 -1.3889 -0.5629  0.6269
 5026TIP3    H215022   0.158   6.027   1.759 -1.0864 -0.9438  0.0273
 5027TIP3   OH215023   6.015   4.944   2.344 -0.2013 -0.6456 -0.6450
 5027TIP3    H115024   5.950   4.973   2.280  0.2191 -0.2513 -0.8996
 5027TIP3    H215025   6.087   5.007   2.335 -0.1378 -0.5960  0.2079
 5028TIP3   OH215026   5.816   6.059   0.618 -0.1037  0.3424  0.1468
 5028TIP3    H115027   5.896   6.095   0.579 -1.3413  0.2396 -2.6064
 5028TIP3    H215028   5.844   5.977   0.658  0.8409 -0.8494 -2.7898
 5029TIP3   OH215029   6.634   3.687   2.214  0.6198 -1.0393  0.8555
 5029TIP3    H115030   6.632   3.601   2.173  0.2320 -0.5071 -0.2634
 5029TIP3    H215031   6.545   3.700   2.248  0.2598 -0.4696 -0.2800
 5030TIP3   OH215032   4.949   2.077   6.411  0.2839  0.0219  0.1454
 5030TIP3    H115033   4.949   1.983   6.394  0.1399 -0.4395  2.4749
 5030TIP3    H215034   5.042   2.099   6.422  0.2713  0.0148  0.2662
 5031TIP3   OH215035   5.518   5.356   2.463 -0.5198 -0.4129  0.3842
 5031TIP3    H115036   5.530   5.434   2.409  0.5003 -0.4863  0.4834
 5031TIP3    H215037   5.434   5.369   2.507 -2.2014 -1.1385 -2.5052
 5032TIP3   OH215038   7.601   4.700   1.099  0.0337  0.3424 -0.4845
 5032TIP3    H115039   7.572   4.790   1.082 -1.5042  0.0093  0.2948
 5032TIP3    H215040   7.616   4.663   1.012  1.3770  1.5504 -0.8000
 5033TIP3   OH215041   3.266   2.843   6.502 -0.8351  0.2476  0.6218
 5033TIP3    H115042   3.179   2.812   6.478 -1.1851  1.2171  0.6245
 5033TIP3    H215043   3.253   2.891   6.584 -0.0803 -0.7504  1.3353
 5034TIP3   OH215044   7.260   1.425   1.069  0.1861 -0.3881 -0.6671
 5034TIP3    H115045   7.269   1.339   1.108 -0.9319 -0.9895 -1.6943
 5034TIP3    H215046   7.288   1.414   0.978  0.5320  0.4491 -0.6738
 5035TIP3   OH215047   5.643   5.154   0.445  0.0811  0.2700  0.3202
 5035TIP3    H115048   5.677   5.096   0.513  0.5238  0.0444 -0.0835
 5035TIP3    H215049   5.697   5.134   0.368 -0.9491 -0.0709 -0.3277
 5036TIP3   OH215050   6.811   5.377   0.511 -0.0235  0.0621 -0.6183
 5036TIP3    H115051   6.796   5.335   0.595  2.2448  0.8793  0.2383
 5036TIP3    H215052   6.842   5.307   0.454 -2.8806 -0.7756 -1.2128
 5037TIP3   OH215053   7.134   3.006   2.438 -0.2850 -0.4413  0.5698
 5037TIP3    H115054   7.079   2.996   2.360 -0.3844  0.8039  0.4690
 5037TIP3    H215055   7.216   2.963   2.415 -0.8672 -1.4509  0.3566
 5038TIP3   OH215056   5.065   6.430   1.049 -0.3639 -0.4506  0.0628
 5038TIP3    H115057   5.075   6.459   1.140 -1.9890 -0.9374  0.4131
 5038TIP3    H215058   5.015   6.349   1.055  0.3433 -0.9986 -1.2183
 5039TIP3   OH215059   7.908   6.637   5.057 -0.5369  0.5405  0.2275
 5039TIP3    H115060   7.972   6.683   5.110 -0.8218  0.0755  0.9987
 5039TIP3    H215061   7.958   6.599   4.985 -0.0588  0.7287  0.4615
 5040TIP3   OH215062   0.321   0.836   3.781  0.4221  0.3876  0.1589
 5040TIP3    H115063   0.270   0.909   3.746  0.0096 -0.4361 -0.9994
 5040TIP3    H215064   0.256   0.781   3.825  0.1911 -0.9322 -1.7637
 5041TIP3   OH215065   6.859   7.426   3.680  0.3579 -0.3009  0.7716
 5041TIP3    H115066   6.879   7.456   3.769 -0.3967  1.2998  0.4101
 5041TIP3    H215067   6.814   7.343   3.693 -0.5818  0.3762  1.9321
 5042TIP3   OH215068   7.470   5.777   4.609  0.6985  0.1479  0.5474
 5042TIP3    H115069   7.546   5.721   4.594  1.1339  0.3712  1.8692
 5042TIP3    H215070   7.395   5.722   4.587  1.2301 -0.1026 -0.6831
 5043TIP3   OH215071   7.082   3.910   0.995  0.0659  0.4073  0.4423
 5043TIP3    H115072   7.049   3.890   0.908  1.0108  1.4810 -0.1746
 5043TIP3    H215073   7.177   3.911   0.985  0.1257  2.5741  1.0237
 5044TIP3   OH215074   0.581   3.911   1.068  0.3845 -0.3403 -0.0451
 5044TIP3    H115075   0.616   3.946   1.150  1.3193 -2.9043  0.7140
 5044TIP3    H215076   0.559   3.820   1.089 -1.5734 -0.3582 -2.0298
 5045TIP3   OH215077   4.250   6.664   1.812  0.3226  0.2228  0.7880
 5045TIP3    H115078   4.173   6.687   1.864 -0.3194 -0.5189  0.1633
 5045TIP3    H215079   4.279   6.748   1.776 -0.6090  0.4064  0.4479
 5046TIP3   OH215080   7.996   6.074   2.868 -0.3154 -0.0596  0.4238
 5046TIP3    H115081   7.941   6.139   2.912 -2.4621 -1.7366  0.3106
 5046TIP3    H215082   8.058   6.045   2.935  0.3700  1.7447  0.6005
 5047TIP3   OH215083   5.847   7.320   0.938 -0.2161 -0.0999 -0.1503
 5047TIP3    H115084   5.773   7.375   0.912 -0.4843 -0.3428  0.1061
 5047TIP3    H215085   5.808   7.247   0.986  0.1824 -0.2606 -0.0667
 5048TIP3   OH215086   6.952   5.161   3.561  0.2758  0.3306  0.3358
 5048TIP3    H115087   6.947   5.204   3.646  0.0113  1.5360 -0.2793
 5048TIP3    H215088   7.001   5.222   3.506  3.8748 -2.1287  0.6336
 5049TIP3   OH215089   1.463   7.417   1.530 -0.0653  0.0657  0.3677
 5049TIP3    H115090   1.546   7.445   1.492  0.5461 -1.1824  0.7595
 5049TIP3    H215091   1.474   7.432   1.624 -0.5209  0.4924  0.3533
 5050TIP3   OH215092   5.758   7.077   1.636  0.1790 -0.2567 -0.2724
 5050TIP3    H115093   5.772   7.099   1.728  1.4299  2.2633 -1.0058
 5050TIP3    H215094   5.665   7.053   1.631  0.3807 -1.5736  1.8347
 5051TIP3   OH215095   7.230   4.726   2.211 -0.0993  0.0776  0.4222
 5051TIP3    H115096   7.150   4.777   2.226  0.4252  0.7425  1.0269
 5051TIP3    H215097   7.209   4.669   2.137 -1.0921  0.3292  0.5034
 5052TIP3   OH215098   8.048   3.607   1.135  0.0088 -0.0029  0.4823
 5052TIP3    H115099   8.045   3.690   1.184  0.2524  0.2860  0.0113
 5052TIP3    H215100   8.122   3.617   1.075 -0.0034 -0.5393  0.3781
 5053TIP3   OH215101   5.597   6.897   1.149 -0.7082 -0.1467 -0.4722
 5053TIP3    H115102   5.573   6.872   1.059 -1.2591 -2.8445  0.3647
 5053TIP3    H215103   5.679   6.851   1.165 -0.5080  0.4913  0.3499
 5054TIP3   OH215104   5.485   5.990   2.816  0.5767  0.4767  0.0821
 5054TIP3    H115105   5.395   5.958   2.810  0.4804  0.7867 -0.1744
 5054TIP3    H215106   5.481   6.059   2.883 -0.1566  3.0595 -2.5043
 5055TIP3   OH215107   7.311   6.537   1.072 -0.7652 -0.6320  0.7491
 5055TIP3    H115108   7.373   6.496   1.133 -1.9774 -1.4838  1.4135
 5055TIP3    H215109   7.367   6.579   1.006  0.5299 -0.9510  1.6325
 5056TIP3   OH215110   7.725   6.748   2.369 -0.1812 -0.4869  0.2865
 5056TIP3    H115111   7.647   6.797   2.344 -0.2305 -1.1996 -0.9803
 5056TIP3    H215112   7.797   6.793   2.325 -0.2155 -1.4758 -0.7983
 5057TIP3   OH215113   1.034   2.532   1.832  0.1774  0.4255  0.3924
 5057TIP3    H115114   1.033   2.436   1.829  1.2468  0.3577  1.7624
 5057TIP3    H215115   0.960   2.558   1.778 -0.1567 -1.1763  0.0443
 5058TIP3   OH215116   4.816   7.723   2.955  0.7826  0.1103  0.4083
 5058TIP3    H115117   4.809   7.650   3.016 -0.2024 -0.8362 -0.7963
 5058TIP3    H215118   4.898   7.708   2.908 -0.0906 -1.0209 -0.8023
 5059TIP3   OH215119   2.289   0.075   1.698 -0.1273 -0.3870 -0.0922
 5059TIP3    H115120   2.294   0.046   1.789  0.4261  0.7751  0.2513
 5059TIP3    H215121   2.375   0.115   1.681 -0.4880  0.0475 -0.8973
 5060TIP3   OH215122   5.550   5.837   3.065 -0.3385 -0.8043  0.2614
 5060TIP3    H115123   5.595   5.872   2.988  0.8694 -3.3212 -0.2296
 5060TIP3    H215124   5.606   5.858   3.139  1.2131 -3.0219 -0.2264
 5061TIP3   OH215125   6.647   7.130   0.128 -0.0340 -0.2819  0.1147
 5061TIP3    H115126   6.566   7.157   0.171 -0.2068  0.0090 -0.3905
 5061TIP3    H215127   6.716   7.179   0.174 -0.1695 -0.3324  0.3742
 5062TIP3   OH215128   5.998   5.391   1.231  0.2758  0.1842 -0.3519
 5062TIP3    H115129   6.060   5.382   1.303 -0.0932 -1.1895 -0.1912
 5062TIP3    H215130   5.924   5.335   1.256  0.4120 -0.7929 -2.0822
 5063TIP3   OH215131   5.860   5.231   1.902 -0.4729  0.6670 -0.3253
 5063TIP3    H115132   5.804   5.230   1.979  1.0402 -0.1945  0.7932
 5063TIP3    H215133   5.802   5.209   1.829 -1.0044 -3.4421  1.2157
 5064TIP3   OH215134   0.232   6.289   1.889 -0.9976  0.6752 -0.1017
 5064TIP3    H115135   0.177   6.223   1.847  0.0562 -0.0735 -0.3272
 5064TIP3    H215136   0.254   6.351   1.819 -1.1454  0.7007 -0.1249
 5065TIP3   OH215137   1.166   5.389   2.842 -0.4385 -0.4291 -0.5431
 5065TIP3    H115138   1.189   5.298   2.859  1.1722 -0.0197 -0.4643
 5065TIP3    H215139   1.143   5.424   2.928 -0.7080 -0.6614 -0.5195
 5066TIP3   OH215140   8.050   6.656   1.819  0.7857  0.4835  0.1995
 5066TIP3    H115141   8.137   6.694   1.834  0.2644  1.0436  2.0370
 5066TIP3    H215142   7.998   6.728   1.783  1.1306  0.0996 -1.0639
 5067TIP3   OH215143   5.717   6.069   2.646  0.3918  0.3335 -0.4855
 5067TIP3    H115144   5.659   6.070   2.721 -1.3460  1.1852 -1.7954
 5067TIP3    H215145   5.747   5.978   2.640  0.5667  0.2625  1.2201
 5068TIP3   OH215146   4.328   1.562   6.326 -0.7471 -0.7199 -0.4748
 5068TIP3    H115147   4.308   1.477   6.288  0.1545 -0.8721 -0.6148
 5068TIP3    H215148   4.243   1.607   6.331 -0.8857 -0.6879 -2.6669
 5069TIP3   OH215149   5.920   4.735   3.244 -0.0599 -0.3638 -0.2815
 5069TIP3    H115150   5.838   4.731   3.196 -0.7549  0.2061  0.8441
 5069TIP3    H215151   5.899   4.783   3.324  1.2877 -0.5098  0.1755
 5070TIP3   OH215152   4.523   5.014   3.718 -0.2478 -0.5047  0.0750
 5070TIP3    H115153   4.606   5.014   3.670 -0.5730  0.8994 -0.5060
 5070TIP3    H215154   4.461   4.970   3.659  0.1242 -1.7914  0.6177
 5071TIP3   OH215155   5.221   6.417   1.634 -0.1062  0.5704 -0.1408
 5071TIP3    H115156   5.262   6.466   1.561  0.3808  2.0332  1.0820
 5071TIP3    H215157   5.291   6.411   1.699 -0.7416 -0.1700  0.4587
 5072TIP3   OH215158   1.333   0.672   2.980  0.8311  0.2301  0.7340
 5072TIP3    H115159   1.348   0.763   2.954 -0.0578  0.3036  0.4778
 5072TIP3    H215160   1.238   0.666   2.992  1.0384 -0.2796  2.1602
 5073TIP3   OH215161   3.238   1.506   6.442  0.0236 -0.6674  0.1681
 5073TIP3    H115162   3.175   1.555   6.389  0.5736 -0.7076 -0.5193
 5073TIP3    H215163   3.227   1.415   6.414 -1.3851 -1.0311  1.8313
 5074TIP3   OH215164   8.232   6.459   2.145 -0.1856 -0.6238 -0.1273
 5074TIP3    H115165   8.314   6.439   2.101 -0.3087 -0.5188 -0.4092
 5074TIP3    H215166   8.245   6.431   2.235  0.7199  0.8599  0.2122
 5075TIP3   OH215167   7.041   3.384   1.729 -0.0934 -0.6932  0.8377
 5075TIP3    H115168   6.963   3.394   1.675 -0.5730 -1.3940  1.3860
 5075TIP3    H215169   7.081   3.470   1.729 -0.1305 -0.6617 -0.5602
 5076TIP3   OH215170   0.160   6.743   2.334  0.7653  0.4828 -0.3196
 5076TIP3    H115171   0.189   6.772   2.420 -0.7381 -0.7122  0.6039
 5076TIP3    H215172   0.069   6.772   2.328  0.5868 -0.2259 -1.1329
 5077TIP3   OH215173   6.400   7.413   0.016 -0.0874 -0.1021  0.1634
 5077TIP3    H115174   6.437   7.370   0.092 -1.2830 -1.4369  0.0113
 5077TIP3    H215175   6.418   7.506   0.030 -0.5230 -0.2997  2.1982
 5078TIP3   OH215176   7.790   7.777   1.914  0.6293  0.2951  0.2834
 5078TIP3    H115177   7.733   7.759   1.988  1.0033  0.1397  0.5345
 5078TIP3    H215178   7.736   7.759   1.837  0.8987 -1.5960  0.5171
 5079TIP3   OH215179   8.077   5.577   1.823 -0.0101  0.0586 -0.2029
 5079TIP3    H115180   8.101   5.635   1.895 -1.5746 -0.6682  0.9366
 5079TIP3    H215181   8.032   5.634   1.760  0.1055  0.4297  0.0530
 5080TIP3   OH215182   0.782   0.812   1.975 -0.5132 -0.3940 -0.0143
 5080TIP3    H115183   0.745   0.729   2.005 -1.7914  0.6937  1.4612
 5080TIP3    H215184   0.777   0.870   2.051 -1.9997  1.8142 -1.7290
 5081TIP3   OH215185   6.602   6.936   2.087 -0.5517  0.1550  0.0714
 5081TIP3    H115186   6.594   7.002   2.018 -2.4112  0.8519  0.9398
 5081TIP3    H215187   6.563   6.857   2.048  0.3460 -0.0468 -0.4358
 5082TIP3   OH215188   7.298   2.736   3.817 -0.2019  0.5865 -0.1293
 5082TIP3    H115189   7.352   2.805   3.855  1.9825 -0.9585 -0.3171
 5082TIP3    H215190   7.237   2.782   3.760  0.1551  2.4754  0.9509
 5083TIP3   OH215191   5.719   5.198   2.698  0.8149 -0.1030 -0.7040
 5083TIP3    H115192   5.814   5.209   2.706  0.4850  2.5573  0.1628
 5083TIP3    H215193   5.683   5.254   2.767 -1.3756 -2.1802 -0.0890
 5084TIP3   OH215194   7.716   3.542   1.693 -0.1773  0.4107  0.1249
 5084TIP3    H115195   7.810   3.560   1.694  0.0326 -0.6531  3.1021
 5084TIP3    H215196   7.704   3.485   1.617  2.2983 -2.8386  2.0474
 5085TIP3   OH215197   6.611   4.369   0.780  0.5103 -0.0023 -0.3963
 5085TIP3    H115198   6.569   4.289   0.812  1.0842 -0.1087  0.1024
 5085TIP3    H215199   6.705   4.351   0.784  0.7576  1.4424  1.8143
 5086TIP3   OH215200   3.444   1.202   6.630  0.2620 -0.0411 -0.2874
 5086TIP3    H115201   3.449   1.267   6.560  2.9569  0.6995  0.5050
 5086TIP3    H215202   3.478   1.248   6.707 -0.1500 -1.6351  0.8756
 5087TIP3   OH215203   5.098   5.067   0.880  0.6416 -0.1238 -0.1732
 5087TIP3    H115204   5.061   5.103   0.799  0.7817  0.7939  0.1596
 5087TIP3    H215205   5.065   4.978   0.884  0.9351 -0.2958 -1.4351
 5088TIP3   OH215206   7.038   4.711   1.804  0.0338  0.2161 -0.1113
 5088TIP3    H115207   6.967   4.734   1.744 -0.6489  1.1218  1.0158
 5088TIP3    H215208   7.073   4.629   1.770 -3.4663 -1.7961  0.9266
 5089TIP3   OH215209   3.939   0.680   6.495  0.0466  0.7964 -0.7020
 5089TIP3    H115210   3.910   0.601   6.542  0.9506  3.2887  4.3879
 5089TIP3    H215211   3.896   0.674   6.410 -2.3154 -3.6720  0.6305
 5090TIP3   OH215212   6.858   3.531   0.956  0.6367 -0.4862 -0.1950
 5090TIP3    H115213   6.868   3.510   0.863 -1.0078 -0.8632 -0.3002
 5090TIP3    H215214   6.901   3.459   1.002  0.5736 -0.8242 -0.6609
 5091TIP3   OH215215   6.803   6.488   0.914 -0.2496  0.0319  0.4042
 5091TIP3    H115216   6.782   6.395   0.926  1.2305 -0.2590  0.8275
 5091TIP3    H215217   6.895   6.489   0.890 -0.5293  1.3370 -0.6701
 5092TIP3   OH215218   8.296   5.225   0.816  0.5232 -0.0103 -0.8531
 5092TIP3    H115219   8.339   5.259   0.738  1.4597  1.2197  0.1742
 5092TIP3    H215220   8.346   5.146   0.839  0.4584 -0.1792 -1.2898
 5093TIP3   OH215221   8.312   3.358   1.538  0.1208  0.0720  0.1048
 5093TIP3    H115222   8.240   3.299   1.517  0.3673 -0.1769 -0.0493
 5093TIP3    H215223   8.301   3.376   1.631  1.1529 -1.7665  0.6134
 5094TIP3   OH215224   2.506   4.916   4.574 -0.3502 -0.3395 -0.3714
 5094TIP3    H115225   2.448   4.929   4.498 -1.1185  0.2058  0.2946
 5094TIP3    H215226   2.504   5.000   4.620  2.8348  0.4394 -1.5874
 5095TIP3   OH215227   0.493   0.193   4.008 -0.0194  0.4781  0.0057
 5095TIP3    H115228   0.527   0.247   3.937 -1.9010  2.6565  0.7139
 5095TIP3    H215229   0.566   0.135   4.031  1.6477  1.8924 -1.5825
 5096TIP3   OH215230   8.322   7.443   1.984 -0.0554  0.0232 -0.1878
 5096TIP3    H115231   8.250   7.487   1.938 -0.9887 -0.9747  0.2959
 5096TIP3    H215232   8.344   7.502   2.056 -0.4839  0.2743 -0.2608
 5097TIP3   OH215233   7.969   6.729   3.373 -0.1176  0.0546  0.3264
 5097TIP3    H115234   7.963   6.634   3.366  1.0414  0.1124 -1.8332
 5097TIP3    H215235   7.882   6.761   3.350  0.1748 -0.3740 -1.3733
 5098TIP3   OH215236   7.501   4.113   3.584 -0.0711  0.5200 -0.2930
 5098TIP3    H115237   7.425   4.114   3.642 -0.5310  2.0677 -0.9003
 5098TIP3    H215238   7.499   4.198   3.540  0.5758 -0.4360 -2.2086
 5099TIP3   OH215239   8.028   7.597   3.563 -0.0664 -0.3451 -0.5743
 5099TIP3    H115240   8.070   7.563   3.642 -0.3380  0.5255 -0.0407
 5099TIP3    H215241   8.048   7.533   3.495  0.8945 -0.6690  0.0055
 5100TIP3   OH215242   8.084   6.790   6.669 -0.5406  0.4600 -0.0793
 5100TIP3    H115243   8.053   6.806   6.580 -0.6223  1.0085  0.0503
 5100TIP3    H215244   8.160   6.732   6.658 -0.0485  1.1949 -0.5548
 5101TIP3   OH215245   0.247   6.377   3.760  0.6257 -0.5497  0.2463
 5101TIP3    H115246   0.220   6.421   3.679  0.4870 -1.3308 -0.1358
 5101TIP3    H215247   0.212   6.288   3.752  1.1161 -0.8034  0.8998
 5102TIP3   OH215248   8.021   7.600   4.976 -0.0405  0.4968  0.2479
 5102TIP3    H115249   8.110   7.577   5.002 -0.1540 -0.0814  0.1199
 5102TIP3    H215250   7.997   7.671   5.036 -0.3809 -0.9618  1.8828
 5103TIP3   OH215251   3.706   7.377   0.945  0.0592 -0.3898  0.6230
 5103TIP3    H115252   3.757   7.423   0.879  0.3959 -0.8919  0.5290
 5103TIP3    H215253   3.770   7.325   0.993 -0.0662  0.5884  1.8783
 5104TIP3   OH215254   0.394   6.449   4.626 -0.0676 -0.2083 -0.3344
 5104TIP3    H115255   0.330   6.489   4.568  0.1272 -0.2421 -0.5747
 5104TIP3    H215256   0.476   6.495   4.607  0.0243 -0.3062 -0.1792
 5105TIP3   OH215257   1.300   4.017   3.874 -0.1121  0.5845 -0.2844
 5105TIP3    H115258   1.207   4.017   3.855 -0.2347 -1.2155  0.1785
 5105TIP3    H215259   1.340   3.969   3.802  0.3104  0.2918  0.1380
 5106TIP3   OH215260   6.212   6.957   2.258 -0.4508  0.1614 -0.4409
 5106TIP3    H115261   6.293   6.996   2.226  0.4896  0.2707  1.9140
 5106TIP3    H215262   6.151   7.030   2.265 -0.2430  0.3612 -0.7494
 5107TIP3   OH215263   3.445   1.780   3.660 -0.1532  0.3519 -0.3265
 5107TIP3    H115264   3.370   1.829   3.692  1.0666  0.9681  1.6751
 5107TIP3    H215265   3.501   1.845   3.618  0.1194  0.2162 -0.1816
 5108TIP3   OH215266   0.282   5.449   3.623 -0.4327  0.0897 -0.6043
 5108TIP3    H115267   0.237   5.526   3.590 -0.6148 -0.3685 -1.4281
 5108TIP3    H215268   0.336   5.419   3.550  0.4418  0.0440  0.0446
 5109TIP3   OH215269   6.496   7.064   1.852  0.1164  0.3465 -0.8472
 5109TIP3    H115270   6.517   7.042   1.762 -1.0288  2.0956 -1.5635
 5109TIP3    H215271   6.529   7.153   1.864  1.2093 -0.2517  0.7912
 5110TIP3   OH215272   8.317   7.070   2.740  0.6682 -0.0155  0.4349
 5110TIP3    H115273   8.225   7.044   2.736  0.9056 -0.8663  0.3701
 5110TIP3    H215274   8.362   6.993   2.776  1.2276  0.7041  1.2779
 5111TIP3   OH215275   8.429   6.983   4.300  0.7056  0.5552  0.1600
 5111TIP3    H115276   8.378   6.919   4.250  1.0942  0.5284 -0.2016
 5111TIP3    H215277   8.405   6.967   4.391  1.9035 -1.0782  0.2071
 5112TIP3   OH215278   0.662   7.184   3.061 -0.4529 -0.3465 -0.2857
 5112TIP3    H115279   0.573   7.193   3.028 -0.5189  3.4512  0.6576
 5112TIP3    H215280   0.715   7.239   3.003  0.8324 -0.4464  0.7549
 5113TIP3   OH215281   7.959   7.955   4.285  0.3685  0.0166  0.3212
 5113TIP3    H115282   7.984   7.898   4.212  2.1409 -0.3851  1.2068
 5113TIP3    H215283   7.909   7.898   4.344 -0.4446  0.1585 -0.2248
 5114TIP3   OH215284   0.068   6.463   1.480 -0.1777 -0.2366  0.2394
 5114TIP3    H115285   0.002   6.490   1.544  0.5548 -1.0159  1.3466
 5114TIP3    H215286   0.099   6.378   1.512  1.1673 -0.0104 -0.4126
 5115TIP3   OH215287   7.006   7.414   1.528  0.9075 -0.2743 -0.2503
 5115TIP3    H115288   7.003   7.495   1.579 -1.6336  0.0293 -0.8380
 5115TIP3    H215289   7.084   7.424   1.472  0.7199  1.6807 -0.1913
 5116TIP3   OH215290   0.170   5.757   4.424  0.0369 -0.5051 -0.3548
 5116TIP3    H115291   0.210   5.808   4.353  0.3349 -0.6956 -0.3232
 5116TIP3    H215292   0.198   5.667   4.407 -1.1228 -0.7746 -0.8522
 5117TIP3   OH215293   0.482   4.006   0.476 -0.1172  0.1113 -0.8243
 5117TIP3    H115294   0.556   4.029   0.533 -1.1205 -2.8083  1.8141
 5117TIP3    H215295   0.504   4.044   0.391  2.7341  2.3013  0.8111
 5118TIP3   OH215296   0.237   6.799   5.233  0.4093  0.1738  0.4934
 5118TIP3    H115297   0.271   6.819   5.321  0.6026  1.7914  0.0703
 5118TIP3    H215298   0.297   6.844   5.174 -1.5305  1.7590 -0.3274
 5119TIP3   OH215299   8.463   6.456   2.464 -0.0261 -0.0683  0.7035
 5119TIP3    H115300   8.376   6.450   2.426  0.7110 -0.6796 -0.9035
 5119TIP3    H215301   8.468   6.546   2.497 -0.6594  0.4915 -0.6835
 5120TIP3   OH215302   0.015   4.396   4.612  0.1598  0.3589  0.0128
 5120TIP3    H115303  -0.036   4.343   4.673  0.3887 -0.3365 -0.4030
 5120TIP3    H215304   0.105   4.366   4.623  0.3004  0.7146 -0.1682
 5121TIP3   OH215305   1.617   4.913   3.822  0.1177  0.7445  0.1601
 5121TIP3    H115306   1.536   4.864   3.803  0.9960 -0.5488 -0.3127
 5121TIP3    H215307   1.607   4.942   3.912 -0.4744 -0.2249  0.4128
 5122TIP3   OH215308   1.207   7.846   2.200  0.0026  0.1368 -0.4993
 5122TIP3    H115309   1.183   7.900   2.276  2.4511  2.2571 -1.1437
 5122TIP3    H215310   1.249   7.769   2.238  0.8110  0.9725  0.3392
 5123TIP3   OH215311   7.856   6.859   3.786  0.4037  0.3165 -0.1811
 5123TIP3    H115312   7.804   6.792   3.742 -0.5211  0.5043  0.5913
 5123TIP3    H215313   7.939   6.861   3.738 -0.2409 -0.1008 -1.3417
 5124TIP3   OH215314   7.901   5.166   0.549  0.2166 -0.1757  0.1617
 5124TIP3    H115315   7.943   5.142   0.467 -2.0854 -0.0609 -1.0882
 5124TIP3    H215316   7.955   5.237   0.584  1.7650 -0.8910 -0.7518
 5125TIP3   OH215317   7.493   2.369   0.425 -0.0574 -0.4361 -0.5544
 5125TIP3    H115318   7.577   2.339   0.459 -0.4042 -1.3463 -0.4899
 5125TIP3    H215319   7.480   2.454   0.466  0.8023 -0.3176 -0.5138
 5126TIP3   OH215320   2.098   6.635   3.572  0.3363 -0.9384 -0.3016
 5126TIP3    H115321   2.049   6.576   3.514 -0.6700 -0.2542 -0.1576
 5126TIP3    H215322   2.129   6.578   3.643 -0.3204 -1.3616 -0.3495
 5127TIP3   OH215323   1.757   6.696   3.467 -0.3976  0.2273 -0.1547
 5127TIP3    H115324   1.832   6.754   3.453 -0.7283  0.7258  0.1297
 5127TIP3    H215325   1.712   6.694   3.383  0.0106 -0.1846 -0.3659
 5128TIP3   OH215326   1.530   1.225   1.583 -0.9661 -0.0966  0.0653
 5128TIP3    H115327   1.598   1.249   1.646 -0.1125 -0.7083 -0.6212
 5128TIP3    H215328   1.497   1.141   1.615 -2.7027  1.0608  1.4423
 5129TIP3   OH215329   2.665   5.412   0.861  0.9032  0.0092  0.2411
 5129TIP3    H115330   2.593   5.373   0.812  1.4264 -0.2044 -0.3632
 5129TIP3    H215331   2.647   5.506   0.860  1.2063  0.0629 -0.8418
 5130TIP3   OH215332   2.346   6.249   3.776  0.0021  0.0891 -0.3073
 5130TIP3    H115333   2.333   6.266   3.683 -0.6405  0.5166 -0.1455
 5130TIP3    H215334   2.327   6.156   3.786  1.8228 -0.3639 -0.8990
 5131TIP3   OH215335   0.311   7.260   1.274  0.3177 -0.4827  0.0273
 5131TIP3    H115336   0.394   7.266   1.321  1.4811  1.6013 -2.1382
 5131TIP3    H215337   0.268   7.345   1.289 -0.1128 -0.4706 -1.1390
 5132TIP3   OH215338   1.539   6.593   4.505 -0.2097 -0.0335  0.2664
 5132TIP3    H115339   1.633   6.610   4.512 -0.2090  0.0785  0.0065
 5132TIP3    H215340   1.508   6.658   4.441 -0.3256 -0.5827 -0.2429
 5133TIP3   OH215341   7.051   7.555   2.300 -0.4244 -0.2860 -0.0506
 5133TIP3    H115342   7.047   7.470   2.344 -0.6761  0.7020  1.9055
 5133TIP3    H215343   7.136   7.591   2.325 -0.3579  0.0738 -0.8034
 5134TIP3   OH215344   1.774   6.917   1.631  0.3677 -0.0133 -0.7075
 5134TIP3    H115345   1.810   6.906   1.543  1.1726  2.2030 -0.6896
 5134TIP3    H215346   1.851   6.928   1.686 -0.2321  2.1801 -0.2733
 5135TIP3   OH215347   7.883   2.855   6.871  0.3479  0.1930 -0.0263
 5135TIP3    H115348   7.815   2.907   6.828  0.6858  0.3495 -0.3741
 5135TIP3    H215349   7.964   2.882   6.828  0.8424  1.2192  1.5065
 5136TIP3   OH215350   7.724   6.172   5.219  0.4684  0.2745  0.1618
 5136TIP3    H115351   7.639   6.180   5.262 -0.0149 -0.5249 -0.6219
 5136TIP3    H215352   7.772   6.110   5.273  0.8527  1.3470  1.0591
 5137TIP3   OH215353   4.878   0.086   1.320 -0.0818  0.7278 -0.3782
 5137TIP3    H115354   4.930   0.110   1.396  0.7066  0.7552 -0.9228
 5137TIP3    H215355   4.934   0.105   1.245  0.1275 -1.6719 -0.8738
 5138TIP3   OH215356   6.749   5.922   2.320 -0.6133  0.3108  0.5679
 5138TIP3    H115357   6.663   5.955   2.296 -1.1624 -1.0309  0.6828
 5138TIP3    H215358   6.750   5.832   2.288  0.3682 -0.0046  1.4674
 5139TIP3   OH215359   0.378   6.538   1.434  0.2541  0.3673  0.5270
 5139TIP3    H115360   0.435   6.504   1.365 -1.0323 -1.4042  0.2896
 5139TIP3    H215361   0.292   6.545   1.393 -0.7716 -1.7416  2.1978
 5140TIP3   OH215362   1.204   7.022   3.709 -0.4828 -0.2268  0.4235
 5140TIP3    H115363   1.280   7.077   3.726  0.6425 -1.4992 -0.3971
 5140TIP3    H215364   1.193   6.970   3.789  0.0153 -0.6123  0.2462
 5141TIP3   OH215365   8.495   5.645   4.795 -0.2402  0.1293 -0.8174
 5141TIP3    H115366   8.448   5.725   4.814  1.2798  0.9974 -0.6546
 5141TIP3    H215367   8.487   5.592   4.875  1.8744  1.6663  0.4555
 5142TIP3   OH215368   4.055   0.257   3.534 -0.5915  0.0880 -0.1485
 5142TIP3    H115369   4.056   0.161   3.539 -2.6597  0.0709  0.2428
 5142TIP3    H215370   4.076   0.286   3.622  2.2070  0.0502 -0.7413
 5143TIP3   OH215371   2.267   6.687   2.883 -0.3353  0.3312 -0.1258
 5143TIP3    H115372   2.324   6.731   2.946  0.5284 -1.3420  0.3044
 5143TIP3    H215373   2.189   6.741   2.879 -0.1658  0.7734  1.9543
 5144TIP3   OH215374   0.719   5.884   2.154 -0.0144 -0.3953 -0.5471
 5144TIP3    H115375   0.733   5.911   2.063 -0.3946 -0.3209 -0.5811
 5144TIP3    H215376   0.798   5.833   2.175  0.4619  0.2968 -0.6444
 5145TIP3   OH215377   7.458   5.326   0.948  0.0355  0.2827 -0.0551
 5145TIP3    H115378   7.492   5.283   1.026  1.6437 -0.8322 -1.3335
 5145TIP3    H215379   7.436   5.415   0.976  0.4475 -0.1553  1.6774
 5146TIP3   OH215380   0.132   7.831   4.487 -0.0064 -0.4968 -0.2702
 5146TIP3    H115381   0.094   7.837   4.575  0.2034 -2.3871 -0.0259
 5146TIP3    H215382   0.224   7.855   4.499 -0.2146  0.2491 -0.1579
 5147TIP3   OH215383   2.099   6.329   1.290  0.4531  0.5997 -0.3774
 5147TIP3    H115384   2.155   6.308   1.215  1.2404  1.3967 -0.0236
 5147TIP3    H215385   2.153   6.386   1.345 -0.5505  1.0075  0.2004
 5148TIP3   OH215386   2.803   6.349   2.884  0.1902 -0.2092 -0.0708
 5148TIP3    H115387   2.867   6.421   2.887  0.7510 -0.7288  0.5968
 5148TIP3    H215388   2.855   6.272   2.862  0.0627 -0.9153  1.9955
 5149TIP3   OH215389   1.090   7.504   3.010 -0.1502 -0.2881  0.2151
 5149TIP3    H115390   1.049   7.581   2.971 -1.5207 -1.2268 -0.2735
 5149TIP3    H215391   1.077   7.435   2.944  1.0015 -0.9457  0.6658
 5150TIP3   OH215392   1.969   7.995   2.338 -0.0846 -0.2713 -0.4680
 5150TIP3    H115393   1.945   8.081   2.374  0.5179 -1.1650  2.1828
 5150TIP3    H215394   1.892   7.940   2.355 -0.5164 -0.2369 -2.2714
 5151TIP3   OH215395   4.659   0.607   3.667  0.9933 -0.2047 -0.3394
 5151TIP3    H115396   4.704   0.562   3.739 -0.8069 -0.8654  0.4116
 5151TIP3    H215397   4.666   0.546   3.594  2.9700  0.5367 -0.8167
 5152TIP3   OH215398   0.764   5.964   1.431  0.2050  0.0144 -0.3051
 5152TIP3    H115399   0.728   6.052   1.435  0.0429 -0.1154  1.1466
 5152TIP3    H215400   0.848   5.974   1.387  0.6898  1.0485  0.8451
 5153TIP3   OH215401   3.174   7.922   1.937 -0.3592 -0.0994 -0.2603
 5153TIP3    H115402   3.169   7.836   1.978  0.3328  0.7896  1.7512
 5153TIP3    H215403   3.265   7.928   1.906  0.2632  0.7887  1.6576
 5154TIP3   OH215404   4.137   5.322   1.977  0.0677 -0.0765  0.5870
 5154TIP3    H115405   4.070   5.391   1.981  0.2565  0.1255  0.2712
 5154TIP3    H215406   4.192   5.338   2.054 -1.6490 -1.7003  2.2179
 5155TIP3   OH215407   2.413   7.526   2.174 -0.4918 -0.0350  0.0932
 5155TIP3    H115408   2.470   7.568   2.109 -1.5916  0.3928 -0.6146
 5155TIP3    H215409   2.404   7.591   2.244 -2.6601  1.1991 -1.2663
 5156TIP3   OH215410   1.549   6.661   2.332 -0.2480  0.0519  0.5463
 5156TIP3    H115411   1.607   6.687   2.404 -0.0320 -1.0127  0.7677
 5156TIP3    H215412   1.560   6.729   2.266 -0.4987  1.0897  1.5456
 5157TIP3   OH215413   2.966   0.770   0.139  0.1252  0.1350 -0.3553
 5157TIP3    H115414   2.949   0.738   0.051  1.9729  1.6009 -1.2634
 5157TIP3    H215415   3.060   0.755   0.153  0.4752  2.5935  0.2192
 5158TIP3   OH215416   0.757   7.306   0.235 -0.6243  0.1499  0.3602
 5158TIP3    H115417   0.736   7.337   0.323  0.0352 -2.1902  1.3647
 5158TIP3    H215418   0.671   7.290   0.194 -0.9209  0.5900  0.8082
 5159TIP3   OH215419   1.740   6.875   0.291  0.4193 -0.2132 -0.3181
 5159TIP3    H115420   1.791   6.810   0.243  0.5449 -0.9004  0.7492
 5159TIP3    H215421   1.805   6.939   0.321  0.5683 -0.7320  0.4650
 5160TIP3   OH215422   5.079   1.148   1.748  0.1982  0.5100  0.2403
 5160TIP3    H115423   5.012   1.092   1.709  0.6001 -0.4131  0.8433
 5160TIP3    H215424   5.161   1.118   1.710  0.2447  1.8954 -0.7864
 5161TIP3   OH215425   3.389   0.645   4.441  0.2467  0.6313 -0.1947
 5161TIP3    H115426   3.440   0.593   4.379 -0.0882  0.1020 -0.0346
 5161TIP3    H215427   3.300   0.644   4.405 -0.8489 -2.9814  2.2483
 5162TIP3   OH215428   1.648   4.050   1.276  0.2437 -0.0003 -0.0263
 5162TIP3    H115429   1.571   4.031   1.222 -1.8066  0.6652  2.5614
 5162TIP3    H215430   1.674   4.138   1.251  1.8524 -1.1838 -2.7933
 5163TIP3   OH215431   0.039   5.990   1.210  0.3068  0.0149  0.4023
 5163TIP3    H115432  -0.044   6.008   1.253  0.4089  0.3164  0.4677
 5163TIP3    H215433   0.104   6.042   1.257  0.1431  1.7736 -1.2511
 5164TIP3   OH215434   7.361   5.525   5.663  0.1294 -0.0422  0.1083
 5164TIP3    H115435   7.296   5.477   5.611 -0.8398  1.3053  0.0425
 5164TIP3    H215436   7.351   5.616   5.636  1.3584  0.3200  0.8432
 5165TIP3   OH215437   5.921   0.448   1.315 -0.5079 -0.1200  0.1102
 5165TIP3    H115438   6.000   0.416   1.359 -0.4970 -0.5279 -0.2122
 5165TIP3    H215439   5.860   0.467   1.386  0.8779  2.9328  0.5886
 5166TIP3   OH215440   8.317   6.948   3.012  0.6192  0.5125 -0.1513
 5166TIP3    H115441   8.348   6.882   2.950  0.8330  0.2005  0.2888
 5166TIP3    H215442   8.266   6.899   3.076  0.8023  0.7693  0.1952
 5167TIP3   OH215443   1.889   6.772   2.181  0.3738  0.2223 -0.0522
 5167TIP3    H115444   1.966   6.754   2.127  1.5712  0.3977  1.5461
 5167TIP3    H215445   1.896   6.711   2.254 -1.7813 -0.7311 -0.6081
 5168TIP3   OH215446   0.631   6.854   2.047  0.5798 -0.4439 -0.0555
 5168TIP3    H115447   0.547   6.859   2.093  0.0552 -0.2567 -1.0279
 5168TIP3    H215448   0.657   6.945   2.035  1.8899 -0.5048  1.9582
 5169TIP3   OH215449   3.457   0.835   2.866 -0.2247 -0.0232 -0.2078
 5169TIP3    H115450   3.516   0.879   2.804  0.3023 -0.3187  0.0797
 5169TIP3    H215451   3.374   0.828   2.819  0.9979 -3.0284 -2.0639
 5170TIP3   OH215452   1.793   7.657   1.107 -0.1548  0.8668 -0.4106
 5170TIP3    H115453   1.726   7.678   1.042  0.5906  3.2947 -0.4471
 5170TIP3    H215454   1.865   7.717   1.087  0.3224  1.2519  2.2765
 5171TIP3   OH215455   1.087   7.035   2.397  0.4797 -0.1208  0.1855
 5171TIP3    H115456   1.000   7.030   2.356  1.2948 -0.8457 -1.4927
 5171TIP3    H215457   1.128   7.112   2.357  1.1328 -0.6050 -0.0909
 5172TIP3   OH215458   0.830   6.084   3.415 -0.0498  0.4764  0.2207
 5172TIP3    H115459   0.826   6.164   3.362 -2.3685 -0.6580 -1.3504
 5172TIP3    H215460   0.861   6.017   3.355  0.6261 -0.1035  1.2077
 5173TIP3   OH215461   0.445   6.384   2.535 -0.5851 -0.3413 -0.1880
 5173TIP3    H115462   0.418   6.454   2.476 -0.1614  0.7559  0.9073
 5173TIP3    H215463   0.541   6.386   2.533 -0.5629 -1.8660 -1.2927
 5174TIP3   OH215464   8.026   4.986   3.359 -0.2827 -0.0622  0.1748
 5174TIP3    H115465   7.930   4.980   3.354 -0.1692 -0.7087 -1.3699
 5174TIP3    H215466   8.045   4.985   3.453 -1.6596 -2.2102  0.4517
 5175TIP3   OH215467   0.419   5.048   2.320 -0.1197 -0.0610 -0.2946
 5175TIP3    H115468   0.444   5.087   2.404 -0.5101  0.4866 -0.4260
 5175TIP3    H215469   0.324   5.039   2.325 -0.1131 -0.2831 -0.5699
 5176TIP3   OH215470   5.091   0.221   1.138  0.4857  0.0026 -0.3441
 5176TIP3    H115471   5.175   0.265   1.153 -0.1511  0.3702  2.2502
 5176TIP3    H215472   5.032   0.292   1.111  1.0044 -0.2819 -2.3404
 5177TIP3   OH215473   6.977   6.744   2.458  0.3932 -0.3893 -0.1709
 5177TIP3    H115474   7.046   6.715   2.399 -0.2944  0.7696 -1.5681
 5177TIP3    H215475   6.931   6.664   2.483 -0.4503 -0.7307 -2.6737
 5178TIP3   OH215476   7.571   5.863   2.289 -0.1312 -0.0075 -0.5176
 5178TIP3    H115477   7.651   5.913   2.302 -0.5957  0.7061 -0.3789
 5178TIP3    H215478   7.600   5.781   2.249  0.8791 -0.5334  1.2233
 5179TIP3   OH215479   2.636   7.016   2.939  0.6040 -0.7586  0.1016
 5179TIP3    H115480   2.662   6.963   3.014  0.3520  0.1698  0.8431
 5179TIP3    H215481   2.547   7.044   2.958 -0.0279 -1.7499 -1.2404
 5180TIP3   OH215482   1.347   5.434   1.398 -0.2513  0.1920  0.4444
 5180TIP3    H115483   1.331   5.460   1.489 -1.2081  2.1366 -0.2460
 5180TIP3    H215484   1.262   5.447   1.355  0.9666  2.2996 -1.4074
 5181TIP3   OH215485   2.176   6.490   3.815 -0.1880 -0.2486 -0.1119
 5181TIP3    H115486   2.226   6.446   3.746  0.9966 -0.5459  0.8919
 5181TIP3    H215487   2.243   6.520   3.877 -1.3061 -1.9488  2.0277
 5182TIP3   OH215488   1.027   6.456   2.903 -0.1155  0.5908 -0.2769
 5182TIP3    H115489   0.977   6.478   2.825  0.9876  0.5623 -0.9924
 5182TIP3    H215490   1.064   6.370   2.884 -3.2831 -1.3788  1.9470
 5183TIP3   OH215491   0.684   5.104   1.769 -0.1920  0.0619  0.5193
 5183TIP3    H115492   0.652   5.037   1.829 -0.3323  0.0772  0.4638
 5183TIP3    H215493   0.777   5.110   1.786 -0.0207 -0.7747 -0.0976
 5184TIP3   OH215494   0.927   4.699   2.519  0.0652 -0.3714  0.4148
 5184TIP3    H115495   0.919   4.698   2.424 -0.1669 -1.8282  0.4329
 5184TIP3    H215496   0.901   4.787   2.545  2.2343  0.7207 -1.0385
 5185TIP3   OH215497   3.215   6.663   2.771  0.1667  0.3098  0.4861
 5185TIP3    H115498   3.279   6.708   2.825 -1.7028  0.6050  2.5550
 5185TIP3    H215499   3.152   6.731   2.746  0.1107 -0.1581 -0.7039
 5186TIP3   OH215500   4.746   0.325   1.392  0.1233  0.3264  0.1210
 5186TIP3    H115501   4.691   0.296   1.465 -1.1546  0.7306 -0.6873
 5186TIP3    H215502   4.774   0.243   1.350 -0.0440  0.1280  0.3916
 5187TIP3   OH215503   8.270   6.098   2.599  0.4000 -0.2860 -0.1081
 5187TIP3    H115504   8.205   6.057   2.542 -0.4591  2.1793 -0.9494
 5187TIP3    H215505   8.226   6.109   2.683  0.6162 -0.9938  0.1053
 5188TIP3   OH215506   3.042   6.922   2.720  0.8837 -0.1298 -0.1782
 5188TIP3    H115507   3.067   6.987   2.654 -2.1055  1.2947  0.0065
 5188TIP3    H215508   2.993   6.856   2.671 -0.1423  0.2161  0.3528
 5189TIP3   OH215509   2.354   6.376   2.463  0.4902  0.8247  0.0131
 5189TIP3    H115510   2.413   6.317   2.511 -0.0995  0.2040 -0.0108
 5189TIP3    H215511   2.398   6.392   2.380 -0.1674 -1.0587 -0.7317
 5190TIP3   OH215512   2.327   6.883   2.507  0.0870  0.4762  0.4318
 5190TIP3    H115513   2.254   6.943   2.514 -1.2576 -1.1540  0.7317
 5190TIP3    H215514   2.291   6.798   2.533  1.6781 -0.6597 -0.9479
 5191TIP3   OH215515   2.251   4.187   3.228 -0.0831 -0.2542 -0.0153
 5191TIP3    H115516   2.281   4.238   3.303 -0.7118  0.0678  0.0136
 5191TIP3    H215517   2.255   4.248   3.155  2.6372 -1.1493 -0.7013
 5192TIP3   OH215518   1.539   7.432   2.880  0.1019  0.4279  0.5133
 5192TIP3    H115519   1.491   7.375   2.940 -0.0141 -0.9772 -0.8976
 5192TIP3    H215520   1.479   7.504   2.862 -0.0825  0.5515  1.6154
 5193TIP3   OH215521   2.054   6.664   0.405 -0.5153  0.3978  0.4067
 5193TIP3    H115522   2.090   6.685   0.319  0.3306  0.5467  0.7882
 5193TIP3    H215523   1.963   6.693   0.402 -0.9170 -0.9842 -0.9508
 5194TIP3   OH215524   1.376   7.546   4.673 -0.4689 -0.0826  0.2609
 5194TIP3    H115525   1.405   7.531   4.582  0.9519  0.0430  0.6803
 5194TIP3    H215526   1.419   7.477   4.723  0.5706  1.2190  1.1722
 5195TIP3   OH215527   1.826   7.354   3.377  0.0098 -0.1357 -0.6149
 5195TIP3    H115528   1.869   7.439   3.385 -1.9134  0.7676  0.4716
 5195TIP3    H215529   1.816   7.341   3.282  1.3120  0.3258 -0.8200
 5196TIP3   OH215530   6.938   4.657   1.244 -0.2464 -0.0186  0.2977
 5196TIP3    H115531   6.891   4.657   1.160 -0.5955 -0.1363  0.4926
 5196TIP3    H215532   6.974   4.746   1.250  2.2932 -0.8531 -1.3573
 5197TIP3   OH215533   5.895   5.753   6.732  0.1982  0.5995  0.7662
 5197TIP3    H115534   5.939   5.690   6.790 -0.6931 -0.3118  0.4546
 5197TIP3    H215535   5.954   5.761   6.657 -1.3187 -2.5438 -0.8332
 5198TIP3   OH215536   8.188   6.877   4.963 -0.0833 -0.1949  0.4421
 5198TIP3    H115537   8.242   6.930   5.022  2.6197 -1.1507 -1.0882
 5198TIP3    H215538   8.148   6.941   4.904  1.1688  0.3761  0.1917
 5199TIP3   OH215539   3.157   0.068   5.308  0.0713 -0.2821 -0.1386
 5199TIP3    H115540   3.100   0.091   5.235  1.8504  0.1654 -1.3993
 5199TIP3    H215541   3.211   0.145   5.322 -0.8574 -0.0163  2.2664
 5200TIP3   OH215542   4.992   6.982   0.825 -0.2338  0.0975 -0.2934
 5200TIP3    H115543   5.001   7.075   0.804 -2.0411  0.7165  1.5775
 5200TIP3    H215544   4.981   6.939   0.739 -2.0058  1.9199 -1.0246
 5201TIP3   OH215545   2.886   7.963   1.864  0.0364  0.4527 -0.7221
 5201TIP3    H115546   2.891   7.991   1.772  1.7327  0.3412 -0.6765
 5201TIP3    H215547   2.975   7.937   1.886 -1.3104 -4.5280 -0.5685
 5202TIP3   OH215548   0.051   7.148   2.960  0.0052 -0.0284  0.0960
 5202TIP3    H115549  -0.042   7.158   2.977 -0.0276  0.5428 -0.4256
 5202TIP3    H215550   0.057   7.075   2.898 -0.2252  1.0743 -1.2447
 5203TIP3   OH215551   0.173   3.823   6.903 -0.0197 -0.0926 -0.4968
 5203TIP3    H115552   0.079   3.832   6.889 -0.3565 -0.6957  1.2423
 5203TIP3    H215553   0.192   3.732   6.880 -0.0831 -0.3149  0.3327
 5204TIP3   OH215554   1.341   5.632   3.369  0.2847 -0.3364 -0.0048
 5204TIP3    H115555   1.404   5.577   3.415  1.7215  0.7096 -0.6646
 5204TIP3    H215556   1.349   5.718   3.411  0.1536  0.1023 -0.8585
 5205TIP3   OH215557   4.322   1.308   1.945 -0.2647 -0.0519  0.1206
 5205TIP3    H115558   4.269   1.245   1.897 -2.2221  1.4760  0.2367
 5205TIP3    H215559   4.366   1.360   1.878 -0.4733 -0.0039  0.0236
 5206TIP3   OH215560   0.141   7.116   3.976  0.6238  0.3258 -0.3982
 5206TIP3    H115561   0.232   7.118   4.006  0.1924  0.5633  0.9040
 5206TIP3    H215562   0.094   7.169   4.039 -0.5658 -0.4666 -0.6105
 5207TIP3   OH215563   0.657   7.441   2.071 -0.2308  0.0916  0.6798
 5207TIP3    H115564   0.678   7.445   1.978  0.9362 -0.3328  0.9062
 5207TIP3    H215565   0.738   7.470   2.115  0.4149 -2.9117  1.6350
 5208TIP3   OH215566   0.350   7.163   5.038  0.5840 -0.3164  0.7335
 5208TIP3    H115567   0.301   7.211   4.972  2.8087 -1.1279 -1.5656
 5208TIP3    H215568   0.405   7.229   5.080 -1.3722  0.3377  2.3744
 5209TIP3   OH215569   0.785   7.009   4.018  0.2377  0.2362  0.4220
 5209TIP3    H115570   0.855   7.048   3.964 -0.9553 -0.3176 -1.5634
 5209TIP3    H215571   0.819   6.923   4.041 -0.2910 -0.5661 -1.6522
 5210TIP3   OH215572   0.200   6.643   0.966 -0.0962 -0.0260 -0.2118
 5210TIP3    H115573   0.175   6.643   1.059 -0.6796  3.7343 -0.2966
 5210TIP3    H215574   0.118   6.654   0.919  0.5335  1.1988 -1.0314
 5211TIP3   OH215575   2.202   6.210   3.345 -0.2551  0.1109 -0.4084
 5211TIP3    H115576   2.270   6.142   3.340 -0.3194  0.1844 -4.8914
 5211TIP3    H215577   2.122   6.164   3.320 -0.9602  1.0937  0.0418
 5212TIP3   OH215578   3.211   6.949   2.338  0.4357 -0.1719 -0.8760
 5212TIP3    H115579   3.257   6.937   2.421 -0.7718 -0.9041 -0.3019
 5212TIP3    H215580   3.232   6.872   2.287  0.5195 -0.1123 -0.9301
 5213TIP3   OH215581   6.111   6.217   0.829 -0.2490 -0.0363 -0.2701
 5213TIP3    H115582   6.163   6.289   0.864 -0.2552 -0.5139  0.7189
 5213TIP3    H215583   6.025   6.255   0.812 -0.2904  0.1564  0.3747
 5214TIP3   OH215584   2.413   5.861   4.324 -0.0433 -0.1701 -0.8258
 5214TIP3    H115585   2.421   5.810   4.243  1.0482 -0.7438 -0.3697
 5214TIP3    H215586   2.499   5.901   4.335  0.2441 -1.1947  0.7743
 5215TIP3   OH215587   3.254   5.528   1.358  0.1352 -0.0084  0.1841
 5215TIP3    H115588   3.270   5.575   1.440 -1.6591  1.1249 -0.0779
 5215TIP3    H215589   3.214   5.446   1.385 -0.7751  0.5103  0.4446
 5216TIP3   OH215590   6.886   4.975   1.608 -0.3962 -0.1530  0.3334
 5216TIP3    H115591   6.935   4.914   1.552  0.5196 -0.8868  1.9226
 5216TIP3    H215592   6.796   4.969   1.575  0.2315 -0.1251 -1.4544
 5217TIP3   OH215593   3.903   0.247   4.659 -0.3754  0.5526  0.4934
 5217TIP3    H115594   3.878   0.177   4.719  0.3802  0.4614  0.7133
 5217TIP3    H215595   3.976   0.210   4.608 -0.0853  1.1130  0.4929
 5218TIP3   OH215596   0.142   7.369   4.242 -0.8458  0.0522 -0.3781
 5218TIP3    H115597   0.173   7.279   4.229 -1.0395 -0.1694  0.6168
 5218TIP3    H215598   0.060   7.359   4.290 -0.3294  0.7888  0.6932
 5219TIP3   OH215599   2.479   7.147   1.962  0.0742  0.4107 -0.3357
 5219TIP3    H115600   2.440   7.175   2.044  0.6056 -1.2866  0.5140
 5219TIP3    H215601   2.572   7.167   1.971  0.3977 -1.1900  0.1296
 5220TIP3   OH215602   8.313   7.632   3.500 -0.6344  0.5300  0.0336
 5220TIP3    H115603   8.313   7.695   3.429 -0.2717  1.2265  0.6444
 5220TIP3    H215604   8.312   7.685   3.580  0.3199 -0.2163  0.5568
 5221TIP3   OH215605   6.901   7.705   1.342 -0.4999  0.2010  0.3817
 5221TIP3    H115606   6.813   7.720   1.308 -0.8036  1.6405  1.7419
 5221TIP3    H215607   6.899   7.740   1.431  1.4256  0.1698  0.4655
 5222TIP3   OH215608   7.961   6.298   3.649 -0.2778 -0.7340 -0.5649
 5222TIP3    H115609   8.005   6.276   3.568 -1.2377 -0.6449 -1.1232
 5222TIP3    H215610   7.868   6.295   3.627 -0.4941  1.7757 -0.1218
 5223TIP3   OH215611   3.564   0.401   4.895  0.1173 -0.1709  0.5084
 5223TIP3    H115612   3.608   0.486   4.902  2.6449 -1.4553  0.7279
 5223TIP3    H215613   3.533   0.398   4.805  2.0733  0.0250 -0.1847
 5224TIP3   OH215614   1.059   7.524   3.574  0.3589 -0.3449  0.2362
 5224TIP3    H115615   1.095   7.576   3.502 -1.3426  0.8341  0.2020
 5224TIP3    H215616   1.126   7.528   3.642  0.8455  0.7927 -0.2833
 5225TIP3   OH215617   1.427   7.869   4.026 -0.0444 -0.1781  0.3396
 5225TIP3    H115618   1.382   7.785   4.017 -0.1786 -0.1070  0.3528
 5225TIP3    H215619   1.357   7.934   4.028  0.0376 -0.0967  0.7259
 5226TIP3   OH215620   1.456   6.425   3.084  0.2036 -0.7267  0.1045
 5226TIP3    H115621   1.472   6.354   3.022  0.5435 -0.1439 -0.4935
 5226TIP3    H215622   1.407   6.490   3.033  0.5878 -0.1896  0.4152
 5227TIP3   OH215623   0.385   7.252   5.707  0.2634 -0.0175  0.1451
 5227TIP3    H115624   0.372   7.253   5.612 -0.1196  0.6550  0.2013
 5227TIP3    H215625   0.313   7.198   5.741 -1.6237  2.5103  0.3310
 5228TIP3   OH215626   7.348   6.739   5.053  0.0968  0.4004 -0.1504
 5228TIP3    H115627   7.388   6.680   5.117  0.7426  1.2135  0.2053
 5228TIP3    H215628   7.400   6.728   4.974 -0.9362 -0.8899 -0.6690
 5229TIP3   OH215629   2.280   7.660   3.598 -0.3104  0.0444  0.2683
 5229TIP3    H115630   2.298   7.644   3.691 -1.3344  1.8719  0.7943
 5229TIP3    H215631   2.300   7.576   3.556  1.0590 -0.5443  1.9962
 5230TIP3   OH215632   2.323   7.284   3.306 -0.5514 -0.0099 -0.4629
 5230TIP3    H115633   2.325   7.261   3.214  0.1635  0.0403 -0.4570
 5230TIP3    H215634   2.347   7.377   3.309  2.3617 -0.7349  0.0143
 5231TIP3   OH215635   8.008   6.750   4.617 -0.5714  0.0270  0.0551
 5231TIP3    H115636   8.006   6.682   4.685  2.2466  0.5388  0.7050
 5231TIP3    H215637   7.928   6.801   4.631  0.1902  0.3980  3.2957
 5232TIP3   OH215638   8.397   5.856   2.763  0.0391  0.0667 -0.6850
 5232TIP3    H115639   8.482   5.855   2.807 -0.1924 -0.1671 -0.2393
 5232TIP3    H215640   8.341   5.802   2.818 -1.0015  2.0378  0.2578
 5233TIP3   OH215641   2.213   4.328   3.006 -0.5821 -0.0716  0.2586
 5233TIP3    H115642   2.285   4.374   2.962 -0.5709 -0.7862 -0.4815
 5233TIP3    H215643   2.152   4.306   2.936 -1.6105  0.6777  0.9112
 5234TIP3   OH215644   2.027   5.988   4.082 -0.0571 -0.1470 -0.0286
 5234TIP3    H115645   2.075   5.906   4.078  1.0497  0.4483  0.9413
 5234TIP3    H215646   1.969   5.980   4.157 -2.5798 -1.4299 -2.0266
 5235TIP3   OH215647   1.775   6.479   2.903  0.1040 -0.0570 -0.0320
 5235TIP3    H115648   1.820   6.529   2.835  2.7794 -1.9624  0.2546
 5235TIP3    H215649   1.687   6.466   2.869  0.4554  1.7187 -1.7072
 5236TIP3   OH215650   8.422   7.657   5.618  0.7519  0.1486  0.5077
 5236TIP3    H115651   8.349   7.616   5.572  0.0339  0.2346  1.5433
 5236TIP3    H215652   8.474   7.700   5.549 -0.6400  0.8047 -0.1422
 5237TIP3   OH215653   8.311   5.735   5.445 -1.7249  0.2735  0.7592
 5237TIP3    H115654   8.291   5.665   5.382  0.0881  0.3553  0.0803
 5237TIP3    H215655   8.363   5.692   5.513 -0.3301  1.0200  0.1778
 5238TIP3   OH215656   3.858   0.547   3.454 -0.0195 -0.6117 -0.7569
 5238TIP3    H115657   3.845   0.480   3.522  0.0067 -1.8582 -1.9506
 5238TIP3    H215658   3.893   0.498   3.379  2.7221  1.1639 -0.7365
 5239TIP3   OH215659   3.188   6.266   3.607 -0.1973  0.1435 -0.1256
 5239TIP3    H115660   3.189   6.355   3.572  0.3944 -0.9322 -2.9586
 5239TIP3    H215661   3.227   6.274   3.694 -1.4201  2.8541  0.2197
 5240TIP3   OH215662   0.549   7.597   4.397  0.1118 -0.4255  0.1300
 5240TIP3    H115663   0.523   7.612   4.488 -0.2701 -0.4628  0.0292
 5240TIP3    H215664   0.478   7.544   4.361  0.2451 -0.3783 -0.1998
 5241TIP3   OH215665   1.770   7.292   2.293 -0.4752 -0.0833 -0.4194
 5241TIP3    H115666   1.684   7.307   2.331 -0.4873 -0.7329 -0.1848
 5241TIP3    H215667   1.795   7.205   2.323  0.9824  0.7585  0.8950
 5242TIP3   OH215668   5.535   0.752   1.684  0.0066  0.3462 -0.2926
 5242TIP3    H115669   5.612   0.798   1.718 -0.5959  1.1611 -0.0279
 5242TIP3    H215670   5.553   0.743   1.590  1.1229 -0.8379  0.0174
 5243TIP3   OH215671   3.284   7.946   1.169  0.2628  0.0222 -0.1715
 5243TIP3    H115672   3.245   8.033   1.164  0.1331 -0.0574 -0.6175
 5243TIP3    H215673   3.299   7.931   1.262 -0.9670 -0.0290  0.0303
 5244TIP3   OH215674   4.739   1.145   0.958 -0.0614 -0.2660  0.1584
 5244TIP3    H115675   4.708   1.082   0.894  0.3684  0.8999 -1.2213
 5244TIP3    H215676   4.684   1.222   0.945  0.2888  0.1264  0.9272
 5245TIP3   OH215677   4.923   0.088   3.178 -0.5161  0.3255 -0.2810
 5245TIP3    H115678   4.829   0.103   3.188 -0.3276 -0.0311  2.3422
 5245TIP3    H215679   4.929   0.015   3.116 -2.0111 -0.4036  0.4118
 5246TIP3   OH215680   8.307   7.459   1.014  0.2200  0.5611  0.5314
 5246TIP3    H115681   8.230   7.405   0.996  0.7886 -0.2496  0.5312
 5246TIP3    H215682   8.377   7.397   1.035  1.0920  1.2505 -0.2578
 5247TIP3   OH215683   1.181   6.731   4.089  0.6443 -0.6058  0.2342
 5247TIP3    H115684   1.197   6.654   4.034  4.5922  0.2087  0.1115
 5247TIP3    H215685   1.203   6.702   4.177  0.7065 -0.0344  0.4051
 5248TIP3   OH215686   3.659   0.193   3.968 -0.7482 -0.3793  0.8018
 5248TIP3    H115687   3.597   0.138   3.919 -0.8826 -0.7082  1.3361
 5248TIP3    H215688   3.637   0.177   4.060  0.9960 -1.5253  1.0366
 5249TIP3   OH215689   0.971   5.001   2.845 -0.4369  0.3586  0.0241
 5249TIP3    H115690   0.921   5.064   2.898 -1.0131 -0.3141  0.2898
 5249TIP3    H215691   0.906   4.935   2.819  0.1885 -0.1923 -0.1419
 5250TIP3   OH215692   1.660   0.388   1.717 -0.4777 -0.0695  0.1967
 5250TIP3    H115693   1.729   0.430   1.768 -0.5170  0.3630 -0.1069
 5250TIP3    H215694   1.599   0.459   1.695 -0.2737 -0.1873 -0.7665
 5251TIP3   OH215695   1.692   6.434   2.359  0.0211 -0.1088  0.3722
 5251TIP3    H115696   1.609   6.426   2.407  0.5501  0.0207  1.3266
 5251TIP3    H215697   1.671   6.488   2.283 -1.2923 -1.9710 -0.6389
 5252TIP3   OH215698   4.350   4.664   4.367 -0.6418 -0.0958 -0.1133
 5252TIP3    H115699   4.398   4.689   4.288 -0.8966 -1.0591 -0.5767
 5252TIP3    H215700   4.340   4.569   4.360  3.1496 -0.8827  3.1590
 5253TIP3   OH215701   0.285   6.006   3.492  0.0263  0.1024 -0.3786
 5253TIP3    H115702   0.364   5.962   3.525 -0.6703  0.9139  2.5823
 5253TIP3    H215703   0.247   5.945   3.429  1.0270 -1.9511  0.9681
 5254TIP3   OH215704   3.482   7.947   2.379 -0.4038 -0.2544 -0.7372
 5254TIP3    H115705   3.386   7.950   2.375 -0.5017 -2.0141  0.0722
 5254TIP3    H215706   3.503   7.855   2.361  1.0951 -0.0384 -0.0620
 5255TIP3   OH215707   3.376   4.878   2.649 -0.6252  0.1428  0.3680
 5255TIP3    H115708   3.438   4.808   2.669 -2.1854 -1.1135  0.9413
 5255TIP3    H215709   3.299   4.857   2.702 -0.9168  2.5976  0.9524
 5256TIP3   OH215710   7.761   7.124   3.749 -0.2634 -0.3171  0.4665
 5256TIP3    H115711   7.697   7.145   3.817 -0.3158 -1.1549  0.6746
 5256TIP3    H215712   7.784   7.032   3.764  0.5646 -0.1880  0.0461
 5257TIP3   OH215713   8.309   6.916   3.370  0.2459  0.4878 -0.0820
 5257TIP3    H115714   8.328   6.823   3.379 -0.3039  0.0259 -3.0522
 5257TIP3    H215715   8.376   6.949   3.309 -0.4447  1.7109 -0.2032
 5258TIP3   OH215716   1.707   6.709   2.584 -0.3556 -0.2226 -0.6075
 5258TIP3    H115717   1.679   6.786   2.635 -0.2016 -0.4835 -0.1215
 5258TIP3    H215718   1.664   6.635   2.627  1.5140 -0.6907  0.5081
 5259TIP3   OH215719   6.979   2.230   4.937 -0.5089 -0.6554  0.0614
 5259TIP3    H115720   6.999   2.180   5.016 -0.6279  0.1585  0.6142
 5259TIP3    H215721   7.027   2.185   4.867  0.2912 -0.8804  0.7418
 5260TIP3   OH215722   8.450   5.980   3.995 -0.1960  0.4580  0.0292
 5260TIP3    H115723   8.503   5.901   3.997 -0.2786  0.3719 -1.0000
 5260TIP3    H215724   8.502   6.044   4.044  0.2163 -0.0164  0.2227
 5261TIP3   OH215725   0.176   5.580   1.596  0.1328  0.7532  0.0630
 5261TIP3    H115726   0.178   5.629   1.514  0.5217 -1.2818 -1.1644
 5261TIP3    H215727   0.085   5.554   1.607  0.1557  0.6775  0.0744
 5262TIP3   OH215728   1.129   5.863   3.948 -0.5462  0.3249  0.0790
 5262TIP3    H115729   1.177   5.798   3.897 -1.1585 -0.6923  0.7710
 5262TIP3    H215730   1.197   5.913   3.994  0.1149  2.3827 -3.0051
 5263TIP3   OH215731   2.289   5.477   2.514 -0.0282 -0.0370  0.0317
 5263TIP3    H115732   2.216   5.455   2.457  1.2680  0.6077 -1.9214
 5263TIP3    H215733   2.252   5.536   2.580 -1.1204  0.8447 -1.3608
 5264TIP3   OH215734   1.033   7.124   1.522  0.4494  0.1561 -0.3955
 5264TIP3    H115735   1.124   7.101   1.501 -0.4030 -4.3345  0.4257
 5264TIP3    H215736   1.032   7.138   1.616  0.0754 -1.0499 -0.2112
 5265TIP3   OH215737   1.106   7.439   2.150 -0.8048  0.4964 -0.1147
 5265TIP3    H115738   1.154   7.483   2.080  0.7864  0.0475  0.6780
 5265TIP3    H215739   1.034   7.499   2.170 -0.7497  1.0554 -1.4959
 5266TIP3   OH215740   0.692   6.129   2.371 -0.6121  0.0380  0.2349
 5266TIP3    H115741   0.695   6.076   2.291 -1.8719 -0.0600  0.2533
 5266TIP3    H215742   0.666   6.067   2.439  1.0677 -0.0153  0.8475
 5267TIP3   OH215743   1.439   4.291   3.828 -0.5294 -0.4382  0.0966
 5267TIP3    H115744   1.423   4.197   3.824  0.3769 -0.7597  2.8733
 5267TIP3    H215745   1.506   4.307   3.762  0.0029 -1.8986  0.2621
 5268TIP3   OH215746   2.375   7.370   2.985  0.8214 -0.4711 -0.0888
 5268TIP3    H115747   2.368   7.275   2.987  1.6421 -0.5494 -0.4916
 5268TIP3    H215748   2.399   7.390   2.895 -0.2271  0.1868 -0.2216
 5269TIP3   OH215749   1.807   4.812   3.341  0.0461  0.7927 -0.2317
 5269TIP3    H115750   1.718   4.780   3.328 -2.1842  4.6685  4.0772
 5269TIP3    H215751   1.804   4.903   3.309  1.9100  1.5133  1.5670
 5270TIP3   OH215752   3.406   6.690   2.516  0.1113  0.4921 -0.2403
 5270TIP3    H115753   3.314   6.663   2.510 -0.1838  0.9136  1.9618
 5270TIP3    H215754   3.404   6.772   2.565  1.7467 -0.0070  0.7016
 5271TIP3   OH215755   8.413   6.228   2.934  0.4430 -0.3247  0.6358
 5271TIP3    H115756   8.346   6.168   2.967  0.3097 -0.4874  0.0633
 5271TIP3    H215757   8.433   6.285   3.009  0.3404 -0.8753  1.0826
 5272TIP3   OH215758   1.188   4.745   2.155 -0.1678 -0.0536 -0.0956
 5272TIP3    H115759   1.202   4.655   2.184 -1.7126  0.8428  3.6528
 5272TIP3    H215760   1.260   4.794   2.193 -0.3924  0.6359 -0.5490
 5273TIP3   OH215761   1.304   7.255   3.353 -0.3516 -0.4873  0.0873
 5273TIP3    H115762   1.372   7.188   3.365  0.8258  0.9152  1.4094
 5273TIP3    H215763   1.276   7.278   3.441 -0.8277  0.6771 -0.3576
 5274TIP3   OH215764   3.984   0.717   5.914  0.2963  0.5958 -0.0588
 5274TIP3    H115765   3.916   0.779   5.886 -0.9655 -0.8755 -0.3514
 5274TIP3    H215766   4.066   0.759   5.890 -0.5488  1.9877 -0.5924
 5275TIP3   OH215767   0.843   7.903   5.138  0.0036  0.7739 -0.3900
 5275TIP3    H115768   0.890   7.822   5.119 -0.7777  0.4907 -1.1515
 5275TIP3    H215769   0.894   7.972   5.096  1.1391  0.7961  0.9820
 5276TIP3   OH215770   0.864   4.176   6.781  0.2357  0.7547  0.3534
 5276TIP3    H115771   0.788   4.165   6.838  0.7027 -0.6666  0.7216
 5276TIP3    H215772   0.919   4.101   6.800  0.0533 -0.1635 -2.5229
 5277TIP3   OH215773   5.633   0.092   4.047 -0.3756  0.3586  0.9781
 5277TIP3    H115774   5.563   0.089   3.983  0.3969 -1.8905  0.1733
 5277TIP3    H215775   5.708   0.128   4.000  0.0919 -0.9603  0.6805
 5278TIP3   OH215776   5.102   0.268   2.455 -0.1860 -0.1682  0.9847
 5278TIP3    H115777   5.187   0.289   2.495  1.2010 -2.4852 -0.6685
 5278TIP3    H215778   5.098   0.322   2.376 -0.5435  0.3883  1.3761
 5279TIP3   OH215779   7.935   0.624   1.844  0.2950 -0.0948  0.0417
 5279TIP3    H115780   8.005   0.591   1.788 -0.0313 -1.7067  0.5569
 5279TIP3    H215781   7.884   0.546   1.866 -0.9898  0.8946  0.6036
 5280TIP3   OH215782   5.990   3.579   6.092  0.0592  0.6130 -0.4282
 5280TIP3    H115783   5.968   3.505   6.149 -0.4221  2.7741  2.2973
 5280TIP3    H215784   6.082   3.596   6.111 -0.4002  2.0532  0.6014
 5281TIP3   OH215785   2.130   7.108   0.129 -0.1430  0.4291  0.7680
 5281TIP3    H115786   2.222   7.083   0.122 -0.3481  0.0551 -0.8029
 5281TIP3    H215787   2.129   7.202   0.110  0.0819  0.7661  2.3102
 5282TIP3   OH215788   4.000   1.316   1.913  0.1333  0.4594 -0.0437
 5282TIP3    H115789   4.076   1.374   1.913  1.1122 -0.7389  2.8289
 5282TIP3    H215790   3.944   1.349   1.982 -0.0983 -0.9793  0.4740
 5283TIP3   OH215791   0.650   4.521   6.930 -0.1201 -0.0053  0.5440
 5283TIP3    H115792   0.584   4.469   6.884  0.3918  0.7266 -1.0845
 5283TIP3    H215793   0.612   4.609   6.936  0.7266  0.4510 -0.5071
 5284TIP3   OH215794   4.353   7.227   1.188  1.0778  0.1249 -0.0593
 5284TIP3    H115795   4.426   7.187   1.141  1.4303 -0.1937  0.7549
 5284TIP3    H215796   4.289   7.157   1.198  1.1236  0.1143  0.1763
 5285TIP3   OH215797   5.755   0.275   0.642  0.0342 -0.0540 -0.9013
 5285TIP3    H115798   5.696   0.213   0.600 -1.1543  0.5093 -0.1007
 5285TIP3    H215799   5.736   0.359   0.600  0.6167  0.0406 -0.9808
 5286TIP3   OH215800   6.193   0.395   2.944  0.0017 -0.2381  0.0138
 5286TIP3    H115801   6.200   0.398   2.849  0.5837  0.0074  0.0595
 5286TIP3    H215802   6.115   0.447   2.965  0.0281 -0.0670 -0.3115
 5287TIP3   OH215803   4.241   0.754   2.162  0.1219 -0.0896 -0.2084
 5287TIP3    H115804   4.176   0.786   2.099  0.0571 -0.0734 -0.1332
 5287TIP3    H215805   4.204   0.774   2.247  0.1077 -0.3119 -0.1615
 5288TIP3   OH215806   2.891   7.603   1.958 -0.4091  0.8270 -0.3157
 5288TIP3    H115807   2.893   7.556   2.041 -0.3934  1.1547 -0.1307
 5288TIP3    H215808   2.823   7.669   1.968 -3.0511 -1.5425 -1.8908
 5289TIP3   OH215809   4.686   6.595   1.015  0.0530 -0.0730 -0.5238
 5289TIP3    H115810   4.772   6.622   1.048  0.5862  0.1588 -2.0404
 5289TIP3    H215811   4.665   6.659   0.947 -0.7885 -0.8056 -0.9687
 5290TIP3   OH215812   4.767   7.715   2.114 -0.3716  0.3479  0.0100
 5290TIP3    H115813   4.832   7.763   2.165 -1.3027 -0.9122  2.5000
 5290TIP3    H215814   4.818   7.652   2.063  0.5583  1.2998 -0.2376
 5291TIP3   OH215815   3.153   7.912   0.592  0.4141 -0.0749 -0.1113
 5291TIP3    H115816   3.185   7.850   0.526  0.8339 -0.6110  0.5786
 5291TIP3    H215817   3.206   7.893   0.669 -0.7451 -0.1281  0.6794
 5292TIP3   OH215818   1.015   5.655   1.066 -0.3513 -0.6478 -0.7224
 5292TIP3    H115819   0.984   5.732   1.018  1.9424 -0.9386 -2.7572
 5292TIP3    H215820   1.093   5.686   1.112 -1.9508 -0.6354  2.1341
 5293TIP3   OH215821   0.246   5.929   4.619 -0.2748 -0.2572  1.0578
 5293TIP3    H115822   0.195   5.997   4.662 -1.4460  1.0391 -2.2235
 5293TIP3    H215823   0.182   5.875   4.575  0.9944 -0.2313 -0.8732
 5294TIP3   OH215824   3.647   7.507   0.654 -0.4347  0.4539  0.0371
 5294TIP3    H115825   3.595   7.495   0.734 -1.2985 -2.8751 -0.9491
 5294TIP3    H215826   3.582   7.505   0.583  0.7838 -2.2719 -1.0980
 5295TIP3   OH215827   1.618   6.385   1.811  0.3658 -0.0531 -0.1792
 5295TIP3    H115828   1.531   6.426   1.814 -0.2647 -1.3846  0.1132
 5295TIP3    H215829   1.662   6.417   1.889  0.7649  1.9522 -1.1828
 5296TIP3   OH215830   4.710   0.868   3.777  0.4088 -0.1053 -0.0113
 5296TIP3    H115831   4.699   0.776   3.751 -0.0677  0.5126 -2.0694
 5296TIP3    H215832   4.710   0.916   3.695  1.6896  1.6575  0.9846
 5297TIP3   OH215833   3.953   1.491   0.927  0.0556 -0.4851  0.3794
 5297TIP3    H115834   3.981   1.410   0.969  2.0369 -1.1835 -2.1356
 5297TIP3    H215835   3.911   1.462   0.845  1.9095  1.0240 -1.1497
 5298TIP3   OH215836   6.360   0.386   1.818  0.0402  0.4763  0.0358
 5298TIP3    H115837   6.453   0.390   1.840  0.0939  1.4054 -0.3334
 5298TIP3    H215838   6.335   0.295   1.835  0.7735  0.4621  1.0944
 5299TIP3   OH215839   1.178   7.781   1.539 -0.4787  0.2469  0.3396
 5299TIP3    H115840   1.242   7.736   1.486 -0.3340  0.9714 -0.1079
 5299TIP3    H215841   1.103   7.722   1.543 -0.1725 -0.1578  0.0192
 5300TIP3   OH215842   4.401   7.964   3.751  0.1278  0.5409 -0.4754
 5300TIP3    H115843   4.349   7.984   3.829 -1.5597 -1.8950 -0.9062
 5300TIP3    H215844   4.422   7.871   3.760 -0.5240  0.0888 -3.1390
 5301TIP3   OH215845   1.816   5.083   0.908  0.2028  0.2756  0.0192
 5301TIP3    H115846   1.867   5.161   0.931  0.0725  0.3639  0.0153
 5301TIP3    H215847   1.725   5.109   0.924  0.2377 -0.2497  1.0747
 5302TIP3   OH215848   4.258   6.432   0.673  0.1125 -0.7504  0.3368
 5302TIP3    H115849   4.340   6.426   0.624  0.7092  0.4494  1.1504
 5302TIP3    H215850   4.193   6.460   0.608  0.9459  1.0640  0.2507
 5303TIP3   OH215851   3.620   4.445   0.734  0.1757 -0.3492  0.1371
 5303TIP3    H115852   3.703   4.484   0.762  0.9390 -1.5656 -0.3677
 5303TIP3    H215853   3.646   4.366   0.687 -1.3186 -1.1629  0.6489
 5304TIP3   OH215854   4.906   0.050   0.941 -0.2720  0.4966 -0.5360
 5304TIP3    H115855   4.907  -0.046   0.944 -1.1758  0.4963  0.2916
 5304TIP3    H215856   4.978   0.077   0.999 -1.9091  0.3102  1.6854
 5305TIP3   OH215857   1.143   7.499   3.980 -0.2824  0.3917 -0.0171
 5305TIP3    H115858   1.105   7.552   3.911  0.4442  0.7550 -0.1392
 5305TIP3    H215859   1.149   7.411   3.943 -0.6753  0.4057 -0.1158
 5306TIP3   OH215860   1.552   7.857   1.822 -0.0280 -0.1713  0.6614
 5306TIP3    H115861   1.566   7.872   1.916 -0.6872 -0.6689  0.8398
 5306TIP3    H215862   1.639   7.835   1.788  0.6007  2.0070  0.7723
 5307TIP3   OH215863   4.047   0.309   1.374 -0.1320 -0.5838  0.1685
 5307TIP3    H115864   4.055   0.226   1.326  0.5481  0.1967 -1.0899
 5307TIP3    H215865   3.953   0.320   1.386 -0.2525 -1.3382 -0.0366
 5308TIP3   OH215866   2.307   7.816   1.146  0.8267 -0.0855  0.0058
 5308TIP3    H115867   2.224   7.789   1.106  1.4521 -1.4700 -0.3850
 5308TIP3    H215868   2.348   7.872   1.080  0.7412 -0.3640 -0.2847
 5309TIP3   OH215869   3.800   7.769   1.814  0.6321 -0.0501 -0.0940
 5309TIP3    H115870   3.824   7.704   1.879  2.7829  1.0062  0.2283
 5309TIP3    H215871   3.856   7.844   1.834  1.2179  0.3587 -3.0371
 5310TIP3   OH215872   5.860   1.086   1.648 -0.0208 -0.1800 -1.0725
 5310TIP3    H115873   5.951   1.085   1.676  0.1498 -1.6291 -1.6405
 5310TIP3    H215874   5.831   1.176   1.662  1.0476 -0.0720  0.5427
 5311TIP3   OH215875   2.160   7.329   0.875 -0.0550  0.3152  0.3762
 5311TIP3    H115876   2.183   7.342   0.967 -0.7696  0.3171  0.5641
 5311TIP3    H215877   2.105   7.404   0.853  0.6569  0.6611 -0.2472
 5312TIP3   OH215878   3.815   7.050   1.596 -0.2653  0.0597 -0.5130
 5312TIP3    H115879   3.780   6.976   1.546 -2.1941 -0.5337  1.6453
 5312TIP3    H215880   3.864   7.009   1.667 -0.7897  0.8684  0.3198
 5313TIP3   OH215881   1.622   7.509   2.204  0.2478 -0.0562  0.6859
 5313TIP3    H115882   1.717   7.508   2.190  0.3767  2.7854  1.0197
 5313TIP3    H215883   1.611   7.555   2.287 -1.4365 -0.0488  0.4653
 5314TIP3   OH215884   5.607   1.441   1.144 -0.3803  0.0476  0.6440
 5314TIP3    H115885   5.618   1.527   1.186 -2.8947  0.7602 -0.0675
 5314TIP3    H215886   5.568   1.386   1.213 -0.8934  0.1242  0.4158
 5315TIP3   OH215887   4.102   7.181   4.001  0.2736 -0.3911  0.3029
 5315TIP3    H115888   4.029   7.242   3.991  0.6576 -0.1397 -1.1046
 5315TIP3    H215889   4.091   7.144   4.089 -0.1967  1.3917  1.0127
 5316TIP3   OH215890   1.192   7.510   3.273  0.2169  0.1264  0.0959
 5316TIP3    H115891   1.246   7.432   3.281  1.2421  0.7019 -1.1598
 5316TIP3    H215892   1.156   7.506   3.184  0.8100  1.4219 -0.2157
 5317TIP3   OH215893   4.765   7.928   2.648  0.0483 -0.1263 -0.4289
 5317TIP3    H115894   4.747   7.839   2.617 -0.1856  0.0052 -0.6768
 5317TIP3    H215895   4.850   7.950   2.610  1.2997 -1.1734  1.6585
 5318TIP3   OH215896   4.889   5.925   5.110 -0.9214  0.1637 -0.2970
 5318TIP3    H115897   4.809   5.918   5.057 -1.3762  1.0336  0.2475
 5318TIP3    H215898   4.955   5.876   5.061 -1.0123  1.9316 -2.2615
 5319TIP3   OH215899   6.415   1.186   1.100  0.1130 -0.0046 -0.2417
 5319TIP3    H115900   6.369   1.104   1.080  2.0263 -0.8567 -1.3136
 5319TIP3    H215901   6.485   1.159   1.160 -0.7435  1.2719  1.3741
 5320TIP3   OH215902   6.633   1.811   2.925 -0.2836 -0.1019 -0.3522
 5320TIP3    H115903   6.672   1.881   2.978 -0.3756 -0.7284  0.5425
 5320TIP3    H215904   6.704   1.783   2.867  0.3347 -0.5943  0.6313
 5321TIP3   OH215905   4.310   6.265   0.244  0.3175  0.4897 -0.2181
 5321TIP3    H115906   4.368   6.321   0.296 -0.9989  0.4085  1.3892
 5321TIP3    H215907   4.230   6.316   0.234 -0.7036 -0.8554  0.8191
 5322TIP3   OH215908   7.721   0.659   4.137  0.0647 -0.1683  0.4218
 5322TIP3    H115909   7.687   0.659   4.227  0.5621 -2.2249  0.6512
 5322TIP3    H215910   7.652   0.617   4.086 -0.7858  2.1960 -0.4324
 5323TIP3   OH215911   5.676   6.154   1.443  0.6386  0.5159  0.4614
 5323TIP3    H115912   5.721   6.074   1.470  1.3278  0.7595  0.0336
 5323TIP3    H215913   5.583   6.133   1.454  0.8644  0.1629  1.7440
 5324TIP3   OH215914   6.222   0.069   1.523  0.0816 -0.0351  0.2055
 5324TIP3    H115915   6.231  -0.014   1.476  0.7215  0.5785 -0.7720
 5324TIP3    H215916   6.136   0.063   1.565 -0.9365 -0.2160 -1.8304
 5325TIP3   OH215917   4.540   6.774   2.113 -0.0241  0.6241  0.0468
 5325TIP3    H115918   4.535   6.869   2.120 -0.9904  0.5842 -0.0507
 5325TIP3    H215919   4.588   6.758   2.032 -1.4378  1.0244 -0.8846
 5326TIP3   OH215920   2.225   7.895   0.611  0.1375  0.3832  0.3552
 5326TIP3    H115921   2.295   7.886   0.547 -1.6571 -1.9165 -1.3905
 5326TIP3    H215922   2.249   7.835   0.682  0.8790  1.0671  0.6903
 5327TIP3   OH215923   6.098   0.362   2.335 -0.2945 -0.0508 -0.2107
 5327TIP3    H115924   6.117   0.367   2.241 -0.3253 -1.4896 -0.3048
 5327TIP3    H215925   6.095   0.453   2.363  0.3291  0.3830 -1.4849
 5328TIP3   OH215926   3.095   5.679   0.472  0.0727  0.1227  0.2300
 5328TIP3    H115927   3.178   5.723   0.454 -0.0707  0.0123 -0.7016
 5328TIP3    H215928   3.109   5.636   0.557  0.9747  0.0716  0.0618
 5329TIP3   OH215929   1.395   6.064   3.687  0.0973 -0.3155 -0.1713
 5329TIP3    H115930   1.319   6.118   3.668  1.8622  2.1917 -0.2773
 5329TIP3    H215931   1.389   6.048   3.782 -0.7365 -0.4432 -0.2381
 5330TIP3   OH215932   4.591   0.276   0.559  0.8291 -0.0063 -0.0295
 5330TIP3    H115933   4.684   0.274   0.579  0.7936  1.2620  0.2971
 5330TIP3    H215934   4.586   0.308   0.469  0.7592 -1.2428 -0.4771
 5331TIP3   OH215935   2.727   7.786   2.229 -0.1377  0.1982 -0.1893
 5331TIP3    H115936   2.821   7.801   2.227  0.0020 -0.5189  0.4804
 5331TIP3    H215937   2.688   7.873   2.224  0.5401  0.4489 -1.2165
 5332TIP3   OH215938   2.749   6.612   0.868  0.2311  0.1866 -0.0835
 5332TIP3    H115939   2.688   6.647   0.802 -0.0994 -0.3840 -0.0808
 5332TIP3    H215940   2.786   6.534   0.828 -0.6709 -0.6925  0.7579
 5333TIP3   OH215941   2.147   7.783   1.832 -0.3882  0.2830 -0.3931
 5333TIP3    H115942   2.117   7.692   1.838 -0.6522  0.3783 -0.2328
 5333TIP3    H215943   2.227   7.785   1.886 -1.3235  0.5297  1.0253
 5334TIP3   OH215944   1.488   6.765   0.278  0.1988  0.3513 -0.4971
 5334TIP3    H115945   1.448   6.784   0.362  0.4988 -1.0223 -0.0218
 5334TIP3    H215946   1.571   6.813   0.279  0.1975  0.3442  0.0001
 5335TIP3   OH215947   7.983   2.854   6.299  0.6736 -0.3966  0.1419
 5335TIP3    H115948   8.033   2.788   6.348 -0.3464 -2.0065 -0.9260
 5335TIP3    H215949   8.030   2.862   6.216 -0.0640 -0.9134 -0.3289
 5336TIP3   OH215950   3.020   7.775   2.455  0.7381 -0.4443 -0.0037
 5336TIP3    H115951   3.008   7.789   2.548  0.7581 -0.3425 -0.0166
 5336TIP3    H215952   3.074   7.848   2.426 -0.9562  0.6507 -0.4779
 5337TIP3   OH215953   4.111   7.536   2.348  0.1783  0.1548 -0.2536
 5337TIP3    H115954   4.161   7.487   2.413  1.9501  0.7169 -1.1349
 5337TIP3    H215955   4.105   7.477   2.273 -2.0987 -0.5967  0.5033
 5338TIP3   OH215956   2.931   5.977   2.348  0.3860  0.1665 -0.0952
 5338TIP3    H115957   2.883   5.898   2.371 -0.5163  0.1565 -1.8558
 5338TIP3    H215958   2.989   5.950   2.277  1.2596  0.7254  0.3960
 5339TIP3   OH215959   1.891   7.058   1.966  0.4031 -0.4277  0.1653
 5339TIP3    H115960   1.895   6.980   2.021  2.6197 -1.2527 -1.0960
 5339TIP3    H215961   1.912   7.026   1.878  0.1759  1.4037 -0.5792
 5340TIP3   OH215962   6.011   0.196   1.167  0.3878 -0.3431  0.6513
 5340TIP3    H115963   5.950   0.265   1.193  0.0106  0.2287 -1.6581
 5340TIP3    H215964   6.029   0.213   1.075  0.2981 -3.3391  0.0295
 5341TIP3   OH215965   4.594   0.347   2.659  0.1896  0.6377  0.4409
 5341TIP3    H115966   4.564   0.304   2.579  0.3295  1.0044  0.1917
 5341TIP3    H215967   4.689   0.340   2.657  0.1165 -0.9472  1.4712
 5342TIP3   OH215968   8.060   3.501   6.041  0.8641 -0.6242 -0.1008
 5342TIP3    H115969   8.119   3.576   6.034  1.1655 -0.8216  0.3003
 5342TIP3    H215970   8.000   3.510   5.967  0.1240  0.6679  0.6416
 5343TIP3   OH215971   2.867   7.762   3.637  0.1558  0.3154 -0.1521
 5343TIP3    H115972   2.905   7.804   3.715  3.8738 -3.5864  0.3280
 5343TIP3    H215973   2.933   7.773   3.569 -0.8906 -0.6257 -1.3553
 5344TIP3   OH215974   6.623   1.208   1.959 -0.1497 -0.3264  0.0115
 5344TIP3    H115975   6.568   1.154   1.902 -2.1620  2.3357 -0.6515
 5344TIP3    H215976   6.647   1.284   1.906  0.6072  0.6442  1.6948
 5345TIP3   OH215977   4.869   0.188   0.701  0.0925  0.1932  0.2189
 5345TIP3    H115978   4.887   0.161   0.792  2.6855 -0.4403 -0.4425
 5345TIP3    H215979   4.940   0.250   0.680 -1.2511  1.3682 -0.9488
 5346TIP3   OH215980   5.253   0.181   3.453 -0.5477  0.0172 -0.1451
 5346TIP3    H115981   5.210   0.239   3.516  1.8098  2.6692 -0.8737
 5346TIP3    H215982   5.266   0.099   3.500 -2.9718  0.4103  1.2723
 5347TIP3   OH215983   6.222   1.830   3.684  0.0131  0.3618 -0.0247
 5347TIP3    H115984   6.240   1.761   3.620 -1.8162  0.8938 -1.1513
 5347TIP3    H215985   6.294   1.824   3.747  0.3690 -1.9632 -0.6090
 5348TIP3   OH215986   2.971   6.609   2.192  0.3833  0.2404 -0.2397
 5348TIP3    H115987   2.906   6.676   2.211  0.5399  0.2188  0.3821
 5348TIP3    H215988   2.940   6.531   2.238  1.4653  0.5570  1.0651
 5349TIP3   OH215989   0.515   4.759   5.657  0.4310  0.3058  0.1996
 5349TIP3    H115990   0.575   4.690   5.687 -0.6520 -1.8111 -2.3057
 5349TIP3    H215991   0.486   4.801   5.738  2.3726 -1.0998  1.7016
 5350TIP3   OH215992   2.582   7.796   0.484  0.1876  0.2228  0.5757
 5350TIP3    H115993   2.574   7.724   0.547 -0.5779  0.3915  0.6854
 5350TIP3    H215994   2.581   7.875   0.538 -1.6037  0.4141  0.2937
 5351TIP3   OH215995   4.836   7.416   0.277 -0.7112  0.7296 -0.6006
 5351TIP3    H115996   4.749   7.387   0.305 -0.2060 -0.3228 -0.1200
 5351TIP3    H215997   4.832   7.415   0.182 -1.2668  0.8136 -0.5791
 5352TIP3   OH215998   5.989   0.288   0.071  0.2291 -0.3517 -0.3080
 5352TIP3    H115999   5.937   0.358   0.108  1.1031  0.8566 -1.3192
 5352TIP3    H216000   5.978   0.214   0.131 -1.7090  0.2447  0.0729
 5353TIP3   OH216001   2.647   6.796   0.050  0.0400 -0.7607 -0.0674
 5353TIP3    H116002   2.587   6.844   0.108 -1.3624 -0.6529 -1.5865
 5353TIP3    H216003   2.653   6.709   0.090  1.2719  0.1340  1.7627
 5354TIP3   OH216004   8.402   7.705   1.695 -0.3231  0.3640 -0.4744
 5354TIP3    H116005   8.371   7.785   1.652  0.8997  0.5340 -1.0518
 5354TIP3    H216006   8.391   7.722   1.788 -2.0218  0.3976 -0.6621
 5355TIP3   OH216007   3.058   7.090   0.500  0.0676  0.1620 -0.3998
 5355TIP3    H116008   3.021   7.053   0.580 -0.2181 -0.7387 -0.9344
 5355TIP3    H216009   3.153   7.087   0.513  0.0750 -1.4159 -0.7076
 5356TIP3   OH216010   7.782   6.782   4.246 -0.0327  0.7958  0.1832
 5356TIP3    H116011   7.872   6.770   4.275  0.4589  0.1465 -1.5726
 5356TIP3    H216012   7.730   6.775   4.326  1.3791  0.0902  1.0500
 5357TIP3   OH216013   2.817   6.972   0.679  0.2177  0.0127 -0.5468
 5357TIP3    H116014   2.824   6.882   0.649 -0.4419  0.4483 -2.0655
 5357TIP3    H216015   2.869   6.975   0.759  0.6485 -1.5887 -0.7521
 5358TIP3   OH216016   4.839   1.398   0.612 -0.7030 -0.1884  0.4407
 5358TIP3    H116017   4.775   1.464   0.640 -0.6306 -0.2444  0.7401
 5358TIP3    H216018   4.884   1.372   0.693  0.3146  0.4992  0.1014
 5359TIP3   OH216019   1.102   3.847   5.430  0.6959 -0.7888  0.0990
 5359TIP3    H116020   1.135   3.785   5.364 -2.4341 -2.2999 -0.1540
 5359TIP3    H216021   1.129   3.809   5.514 -0.3327 -1.9633 -0.0970
 5360TIP3   OH216022   3.098   7.376   0.817  0.0200 -0.6234  0.5995
 5360TIP3    H116023   3.107   7.285   0.844  0.3887 -0.8198 -0.1669
 5360TIP3    H216024   3.134   7.427   0.890  1.5356 -1.1652  0.2383
 5361TIP3   OH216025   0.205   4.184   6.664 -0.4742  0.3589  0.5775
 5361TIP3    H116026   0.130   4.124   6.659  0.5075 -0.7564 -1.1698
 5361TIP3    H216027   0.273   4.133   6.707 -0.0068  0.6236  0.1478
 5362TIP3   OH216028   3.902   6.506   2.959  0.1234 -0.0349  0.7302
 5362TIP3    H116029   3.858   6.466   2.884  0.0982  0.2563  0.5913
 5362TIP3    H216030   3.893   6.441   3.029  1.6439 -1.0725  0.0007
 5363TIP3   OH216031   3.155   7.320   1.216 -0.5367  0.2349 -0.6237
 5363TIP3    H116032   3.109   7.336   1.298 -0.5955  3.2038 -1.1724
 5363TIP3    H216033   3.240   7.364   1.227 -0.9903  1.6493 -2.5456
 5364TIP3   OH216034   4.251   5.207   3.058  0.0779 -0.0458 -0.4719
 5364TIP3    H116035   4.232   5.161   3.139 -1.8782 -0.1880 -0.9898
 5364TIP3    H216036   4.246   5.140   2.990 -1.7850  0.7194 -1.1070
 5365TIP3   OH216037   2.315   7.292   1.755 -0.4989  0.0302 -0.1090
 5365TIP3    H116038   2.296   7.382   1.781 -3.7708 -0.3959 -0.8184
 5365TIP3    H216039   2.363   7.255   1.830  0.7554  2.2647  0.2436
 5366TIP3   OH216040   3.724   7.580   1.542 -0.2100 -0.5479  0.0272
 5366TIP3    H116041   3.703   7.577   1.449  0.8597 -0.3932 -0.2350
 5366TIP3    H216042   3.733   7.488   1.567 -1.0488 -0.6082  0.1143
 5367TIP3   OH216043   7.776   1.086   1.630  0.3273 -0.2251  0.5560
 5367TIP3    H116044   7.810   1.009   1.676  0.5239  0.3432  1.3715
 5367TIP3    H216045   7.689   1.059   1.600  0.2950 -0.6946  1.0503
 5368TIP3   OH216046   5.699   0.816   0.940  0.0026  0.0188  0.1143
 5368TIP3    H116047   5.656   0.735   0.968 -2.3791  0.6499 -1.5807
 5368TIP3    H216048   5.641   0.886   0.970 -0.1314  0.8976 -2.1074
 5369TIP3   OH216049   7.873   3.519   5.848 -0.6930 -0.2618  0.0474
 5369TIP3    H116050   7.832   3.460   5.785 -0.0276 -1.2144  0.4930
 5369TIP3    H216051   7.804   3.537   5.913 -0.4409 -1.8482  0.7886
 5370TIP3   OH216052   2.479   7.377   2.696  0.3037  0.2574 -0.2664
 5370TIP3    H116053   2.496   7.288   2.664  0.9479  0.3196 -0.0975
 5370TIP3    H216054   2.394   7.399   2.659  0.3389 -0.2637 -0.6714
 5371TIP3   OH216055   5.022   6.019   4.010  0.2933 -0.3569  0.4926
 5371TIP3    H116056   5.088   6.007   4.078  0.8319 -0.3598 -0.0310
 5371TIP3    H216057   5.063   5.988   3.930 -0.1741  0.0868  0.0740
 5372TIP3   OH216058   4.931   1.312   2.407 -0.0162  0.2145 -0.2630
 5372TIP3    H116059   4.954   1.221   2.423  1.1460  0.3180 -1.2697
 5372TIP3    H216060   4.842   1.320   2.440  0.7887 -0.6169  2.2421
 5373TIP3   OH216061   5.457   0.356   0.976 -0.2495 -0.2273  0.1349
 5373TIP3    H116062   5.507   0.282   0.942 -0.3849  0.0165 -0.5870
 5373TIP3    H216063   5.427   0.326   1.062 -0.0299 -0.8888 -0.0137
 5374TIP3   OH216064   0.105   1.472   6.577  0.3024  0.0893 -0.5885
 5374TIP3    H116065   0.182   1.416   6.575 -0.3191 -0.7794 -2.9027
 5374TIP3    H216066   0.034   1.415   6.545 -0.6943  1.6706 -1.2602
 5375TIP3   OH216067   5.666   0.521   0.576  0.0654 -0.0298  0.0929
 5375TIP3    H116068   5.696   0.607   0.606  0.8050 -0.4081  0.4485
 5375TIP3    H216069   5.608   0.540   0.502  2.1453  0.6326 -1.3906
 5376TIP3   OH216070   1.247   6.605   3.001  0.2711 -0.1441  0.2326
 5376TIP3    H116071   1.174   6.549   2.978  2.2510 -2.5485 -0.4417
 5376TIP3    H216072   1.236   6.683   2.945 -1.5268 -0.6317 -0.1190
 5377TIP3   OH216073   3.356   7.972   0.819 -0.3089  0.4768  0.3949
 5377TIP3    H116074   3.430   7.979   0.878 -1.1743 -1.5662  1.7769
 5377TIP3    H216075   3.370   7.890   0.772 -1.3244  0.4308  0.1612
 5378TIP3   OH216076   5.670   0.337   2.059 -0.5779  0.0268 -0.0271
 5378TIP3    H116077   5.692   0.378   2.142  2.1898 -0.6616 -0.3658
 5378TIP3    H216078   5.732   0.376   1.996 -1.7074 -0.4790 -1.4718
 5379TIP3   OH216079   1.637   1.903   5.856  0.3780  0.0146  0.1822
 5379TIP3    H116080   1.562   1.886   5.799 -0.0103  0.6773  0.4755
 5379TIP3    H216081   1.710   1.919   5.797  0.2687 -0.5752 -0.1086
 5380TIP3   OH216082   0.530   7.721   2.095  0.8348  0.3305 -0.0380
 5380TIP3    H116083   0.609   7.776   2.095  0.2155  1.2406 -1.6441
 5380TIP3    H216084   0.562   7.632   2.080  1.5428  0.7023 -0.7397
 5381TIP3   OH216085   7.759   0.438   1.675 -0.0265 -0.1451  0.7553
 5381TIP3    H116086   7.693   0.449   1.606 -0.1020 -1.0026  0.6864
 5381TIP3    H216087   7.841   0.431   1.628 -0.0444 -0.4287  0.7637
 5382TIP3   OH216088   4.530   6.359   2.670  0.6335  0.4650 -0.6509
 5382TIP3    H116089   4.472   6.315   2.608  0.6210  1.2293 -1.1968
 5382TIP3    H216090   4.472   6.387   2.741  0.2669  1.5042 -1.3472
 5383TIP3   OH216091   2.183   5.551   2.786 -0.5403  0.4270 -0.0949
 5383TIP3    H116092   2.158   5.568   2.877 -0.5823  1.4053 -0.2812
 5383TIP3    H216093   2.176   5.637   2.743 -1.9274 -0.3059 -1.3541
 5384TIP3   OH216094   8.123   2.408   6.363 -1.2151 -0.0114  0.6044
 5384TIP3    H116095   8.169   2.348   6.305 -2.0015 -1.0038  0.9913
 5384TIP3    H216096   8.166   2.398   6.447 -1.9962 -0.7973  0.9185
 5385TIP3   OH216097   3.066   7.800   1.057 -0.6341  0.0390 -0.0687
 5385TIP3    H116098   3.130   7.838   1.117 -0.4243 -0.4568  0.0270
 5385TIP3    H216099   3.026   7.875   1.013  0.4459  0.3177 -0.5844
 5386TIP3   OH216100   3.205   7.683   2.084  0.7668 -0.2884  0.2571
 5386TIP3    H116101   3.137   7.665   2.149  3.0109 -0.4956  2.6178
 5386TIP3    H216102   3.266   7.610   2.092  2.7522  1.3199  0.1945
 5387TIP3   OH216103   6.629   0.173   4.747  0.3630 -0.7792 -0.5707
 5387TIP3    H116104   6.553   0.219   4.710  0.9644  0.6501 -0.0733
 5387TIP3    H216105   6.647   0.219   4.829  1.5102 -1.3708 -0.4848
 5388TIP3   OH216106   2.098   6.081   3.108 -0.4863  0.2450 -0.2804
 5388TIP3    H116107   2.006   6.086   3.081 -0.4591  0.2398 -0.3724
 5388TIP3    H216108   2.121   5.989   3.096  0.5635  0.8741 -3.5960
 5389TIP3   OH216109   2.376   6.633   2.159  0.3625  0.7680  0.2994
 5389TIP3    H116110   2.360   6.603   2.070  1.6277  0.2038  0.2447
 5389TIP3    H216111   2.291   6.663   2.191 -0.0190  1.3205 -1.2239
 5390TIP3   OH216112   4.797   7.803   1.756 -0.9065  0.2151  0.2999
 5390TIP3    H116113   4.827   7.810   1.847 -2.3647  1.5026  0.6922
 5390TIP3    H216114   4.701   7.800   1.763 -1.0274  0.5166 -1.2173
 5391TIP3   OH216115   3.666   7.266   2.265 -0.2787  0.5765 -0.5970
 5391TIP3    H116116   3.620   7.326   2.206 -2.3525  0.0985  0.5037
 5391TIP3    H216117   3.661   7.308   2.351  1.0501  0.3384 -0.3884
 5392TIP3   OH216118   0.166   5.659   3.505 -0.2376  0.0305 -0.0009
 5392TIP3    H116119   0.109   5.713   3.452 -0.7068 -2.0344 -1.6722
 5392TIP3    H216120   0.247   5.709   3.512 -0.8738  1.2115 -0.9815
 5393TIP3   OH216121   4.066   7.437   3.617 -0.4932 -0.3185  0.4354
 5393TIP3    H116122   4.056   7.460   3.525 -1.2868  0.4460  0.6974
 5393TIP3    H216123   4.139   7.376   3.620 -1.2482 -1.2995 -0.8436
 5394TIP3   OH216124   0.714   7.671   1.362  0.3476 -0.0853 -0.0114
 5394TIP3    H116125   0.694   7.600   1.301 -0.2565  0.8269 -0.8919
 5394TIP3    H216126   0.682   7.750   1.318 -0.7819  0.4992  1.8106
 5395TIP3   OH216127   5.836   3.952   1.452 -0.6755 -0.3548  0.1106
 5395TIP3    H116128   5.818   4.027   1.509 -1.5452 -0.7678  0.3800
 5395TIP3    H216129   5.825   3.986   1.363 -1.1239 -0.1828  0.2326
 5396TIP3   OH216130   3.137   7.610   1.792 -0.1591 -0.3660 -0.2405
 5396TIP3    H116131   3.166   7.556   1.865  1.6619  0.2397 -0.4797
 5396TIP3    H216132   3.044   7.624   1.808  0.2854  0.1222  2.2314
 5397TIP3   OH216133   7.229   0.544   2.487  0.4089 -0.1276  0.2770
 5397TIP3    H116134   7.194   0.607   2.424  0.5895 -0.4299 -0.1233
 5397TIP3    H216135   7.265   0.473   2.434 -0.2969 -0.8438  0.7513
 5398TIP3   OH216136   3.885   7.014   0.277 -0.0717  0.0544 -0.3572
 5398TIP3    H116137   3.961   7.011   0.335 -0.3255 -2.0147 -0.0664
 5398TIP3    H216138   3.810   7.010   0.336 -0.3873  0.9301 -0.6997
 5399TIP3   OH216139   4.341   6.283   2.484  0.3604 -0.1539 -0.4877
 5399TIP3    H116140   4.326   6.230   2.406  1.5206  0.2827 -1.0093
 5399TIP3    H216141   4.327   6.373   2.455 -1.4706 -0.1392  0.3614
 5400TIP3   OH216142   4.452   0.812   1.401 -0.0989 -0.4050 -0.6762
 5400TIP3    H116143   4.511   0.871   1.447 -0.0194 -0.0054 -1.2937
 5400TIP3    H216144   4.454   0.841   1.310  0.2018 -1.5610 -1.0486
 5401TIP3   OH216145   0.018   3.186   4.945 -0.7749  0.3715  0.1269
 5401TIP3    H116146   0.008   3.166   5.038 -2.2789  0.2783 -0.0410
 5401TIP3    H216147  -0.019   3.109   4.901  0.6365  0.0698 -0.5608
 5402TIP3   OH216148   0.485   5.736   0.332  0.5259 -0.6299  0.3671
 5402TIP3    H116149   0.553   5.717   0.268  1.1388  1.1217  0.4566
 5402TIP3    H216150   0.405   5.744   0.280  1.2098  1.9034 -0.3885
 5403TIP3   OH216151   2.452   5.878   1.918  0.1313 -0.0352 -0.5131
 5403TIP3    H116152   2.417   5.951   1.969 -0.8768 -1.5089  0.9390
 5403TIP3    H216153   2.401   5.802   1.947  0.5181 -1.1516 -2.6895
 5404TIP3   OH216154   3.392   6.548   3.743  0.2437  0.2540 -0.1951
 5404TIP3    H116155   3.362   6.613   3.807  2.3780  1.8933 -0.8018
 5404TIP3    H216156   3.336   6.562   3.667  0.6020  1.3184 -0.2759
 5405TIP3   OH216157   4.874   6.765   1.198 -0.1699 -0.4413  0.0510
 5405TIP3    H116158   4.961   6.800   1.215  0.5747 -0.6401 -3.0503
 5405TIP3    H216159   4.834   6.827   1.137 -1.5385 -1.2440  0.1044
 5406TIP3   OH216160   7.839   4.186   6.878  0.1304  0.0905  0.1920
 5406TIP3    H116161   7.778   4.240   6.827  1.1668  1.4877  0.4003
 5406TIP3    H216162   7.889   4.138   6.812  1.6608  2.1044 -0.1436
 5407TIP3   OH216163   3.440   6.716   1.869  0.0643 -0.6785 -0.0963
 5407TIP3    H116164   3.388   6.644   1.833  1.8004 -2.2418  0.4231
 5407TIP3    H216165   3.531   6.688   1.856  0.8402  2.4924 -2.0177
 5408TIP3   OH216166   6.740   0.442   1.984 -0.2512 -0.1609 -0.1342
 5408TIP3    H116167   6.703   0.414   2.068 -0.7761  0.1985 -0.2434
 5408TIP3    H216168   6.830   0.468   2.005  0.0467 -1.3453  0.0752
 5409TIP3   OH216169   4.768   6.785   1.454 -0.3845  0.3114  0.0627
 5409TIP3    H116170   4.841   6.790   1.515 -1.1863  0.8724  0.9961
 5409TIP3    H216171   4.808   6.792   1.367  0.8059 -1.0470  0.5030
 5410TIP3   OH216172   0.557   7.929   5.097 -0.3239 -0.3000 -0.3772
 5410TIP3    H116173   0.629   7.866   5.090  0.2543  0.4302 -1.0583
 5410TIP3    H216174   0.485   7.879   5.135  1.1119 -0.5805  2.1026
 5411TIP3   OH216175   5.354   2.523   3.866 -0.1136  0.4524 -0.1316
 5411TIP3    H116176   5.266   2.529   3.904 -0.2311  0.9606 -0.4660
 5411TIP3    H216177   5.413   2.531   3.941 -0.3586 -0.5641  0.1709
 5412TIP3   OH216178   2.713   6.963   1.896  0.2196  0.2805 -0.1758
 5412TIP3    H116179   2.769   6.886   1.898  0.9499  0.7603 -1.6036
 5412TIP3    H216180   2.650   6.949   1.967  1.9049 -0.4259  1.1929
 5413TIP3   OH216181   0.572   7.341   3.540 -0.5935  0.2254 -0.0841
 5413TIP3    H116182   0.598   7.254   3.570  1.4108  0.1706 -1.8427
 5413TIP3    H216183   0.653   7.380   3.508 -1.0565  3.5705  2.5586
 5414TIP3   OH216184   1.808   7.750   3.082  0.7572  0.3944 -0.1374
 5414TIP3    H116185   1.763   7.818   3.031  0.2790 -0.5809 -1.0464
 5414TIP3    H216186   1.745   7.677   3.085  1.4626 -0.2004  0.3763
 5415TIP3   OH216187   5.165   4.277   0.117  0.1543 -0.6864 -0.4002
 5415TIP3    H116188   5.128   4.270   0.029 -2.5864  1.2350  0.5215
 5415TIP3    H216189   5.189   4.369   0.126  1.3605 -1.0759  0.5029
 5416TIP3   OH216190   4.437   0.968   1.176 -0.2531  0.3281  0.3664
 5416TIP3    H116191   4.384   1.021   1.117 -0.2925  1.5354  1.4775
 5416TIP3    H216192   4.519   1.017   1.186  0.3945 -0.6614  0.0570
 5417TIP3   OH216193   1.983   5.796   0.234  0.6254  0.3383  0.0557
 5417TIP3    H116194   1.977   5.821   0.326  0.7284  0.8422 -0.0705
 5417TIP3    H216195   2.072   5.821   0.208  1.0054 -0.8941  0.1326
 5418TIP3   OH216196   3.253   6.288   1.552  0.3447 -0.4611  0.5500
 5418TIP3    H116197   3.211   6.278   1.638  0.8338 -0.5191  0.7794
 5418TIP3    H216198   3.325   6.225   1.552  1.8475  1.2114  1.0197
 5419TIP3   OH216199   3.383   5.915   0.056  0.2529  0.1046  0.3966
 5419TIP3    H116200   3.312   5.960   0.100 -1.4782 -0.0767 -2.1128
 5419TIP3    H216201   3.380   5.826   0.090 -0.6127  0.1491  0.4476
 5420TIP3   OH216202   8.418   2.598   6.730 -0.8071 -0.1804 -0.1293
 5420TIP3    H116203   8.491   2.613   6.670  0.1928  0.1457  1.1567
 5420TIP3    H216204   8.349   2.562   6.675 -0.0440  0.5005 -1.5564
 5421TIP3   OH216205   1.300   7.190   1.584 -0.3700 -0.6197  0.2075
 5421TIP3    H116206   1.358   7.263   1.563 -0.5153 -0.9124 -1.2544
 5421TIP3    H216207   1.348   7.113   1.556 -0.7911 -0.9854  0.4928
 5422TIP3   OH216208   3.348   5.727   0.898  0.1789 -0.1824  0.0380
 5422TIP3    H116209   3.333   5.667   0.825 -0.3926  0.8818 -0.7297
 5422TIP3    H216210   3.290   5.697   0.967 -0.7234 -0.0096 -0.6424
 5423TIP3   OH216211   2.404   6.780   3.380  0.3062 -0.1654  0.2932
 5423TIP3    H116212   2.371   6.870   3.382  1.0024  0.1687 -2.0783
 5423TIP3    H216213   2.454   6.771   3.461 -0.5654  1.2627  1.0101
 5424TIP3   OH216214   2.645   6.034   2.532  0.2884  0.8797 -0.7312
 5424TIP3    H116215   2.623   6.097   2.600  0.1758 -0.6821  0.7338
 5424TIP3    H216216   2.708   6.079   2.476  0.2574  2.2485  0.3165
 5425TIP3   OH216217   2.579   6.779   2.549  0.5782  0.5691 -0.0823
 5425TIP3    H116218   2.600   6.693   2.584 -0.0871  0.1465 -0.7062
 5425TIP3    H216219   2.483   6.781   2.547  0.5761  1.6035  0.6124
 5426TIP3   OH216220   3.394   7.844   2.783 -0.2316  0.3227  0.2109
 5426TIP3    H116221   3.307   7.871   2.812 -0.9794 -3.2052  1.5095
 5426TIP3    H216222   3.378   7.782   2.711  1.0735 -1.6498  1.5559
 5427TIP3   OH216223   2.312   5.997   1.714 -0.6457  0.0499  0.1194
 5427TIP3    H116224   2.388   5.955   1.755  0.9357  3.1088  0.4421
 5427TIP3    H216225   2.268   5.926   1.667  1.8110 -1.9976  0.8040
 5428TIP3   OH216226   6.804   2.815   5.273  0.0182  0.3998  0.0373
 5428TIP3    H116227   6.754   2.821   5.192  1.2639  0.4974 -0.7362
 5428TIP3    H216228   6.859   2.893   5.274  0.6358 -0.0274  0.5422
 5429TIP3   OH216229   2.429   6.114   0.368  0.0795 -0.6622  0.2210
 5429TIP3    H116230   2.352   6.058   0.353  0.0238 -0.0880 -1.8364
 5429TIP3    H216231   2.443   6.110   0.462 -2.5530 -0.7069  0.6604
 5430TIP3   OH216232   6.814   0.756   3.457 -0.6171 -0.3682  0.5959
 5430TIP3    H116233   6.853   0.810   3.526 -0.4229 -1.4645  1.3675
 5430TIP3    H216234   6.809   0.813   3.381  4.5091 -0.7882 -0.1894
 5431TIP3   OH216235   3.222   7.584   0.979 -0.6816 -0.2481  0.0522
 5431TIP3    H116236   3.314   7.604   0.995 -0.7115  0.1592 -0.2640
 5431TIP3    H216237   3.176   7.667   0.997 -0.8238 -0.0637 -1.1552
 5432TIP3   OH216238   5.645   5.903   0.928  0.0910 -0.5200 -0.7516
 5432TIP3    H116239   5.663   5.822   0.977 -2.2060  0.0623  1.1213
 5432TIP3    H216240   5.590   5.875   0.855 -1.2169 -0.5907  0.2444
 5433TIP3   OH216241   4.948   6.239   3.882 -0.0898 -0.4616 -0.0176
 5433TIP3    H116242   4.970   6.161   3.934 -2.2509 -1.6983 -0.8634
 5433TIP3    H216243   4.862   6.219   3.844 -0.5232  2.2069 -0.5571
 5434TIP3   OH216244   7.169   1.025   2.098 -0.2762 -0.4321  0.6448
 5434TIP3    H116245   7.170   1.077   2.018 -1.8196 -1.3764 -0.0036
 5434TIP3    H216246   7.230   0.953   2.081 -0.3275 -0.4294  0.4476
 5435TIP3   OH216247   5.331   0.301   1.223 -0.7361  0.1935  0.1863
 5435TIP3    H116248   5.384   0.226   1.250 -0.3388  0.1721 -0.6544
 5435TIP3    H216249   5.363   0.373   1.278  0.3953  0.2511 -0.5316
 5436TIP3   OH216250   7.087   2.168   0.203  0.1703 -0.0889  0.7647
 5436TIP3    H116251   7.147   2.095   0.191 -0.8822 -1.0008  1.0299
 5436TIP3    H216252   7.135   2.229   0.259  1.2592 -0.3223  0.1045
 5437TIP3   OH216253   3.474   7.623   1.295 -0.4790 -0.0429  0.0470
 5437TIP3    H116254   3.553   7.639   1.244  1.1361 -1.5844  1.9780
 5437TIP3    H216255   3.425   7.559   1.244 -0.0290  0.1930 -0.6877
 5438TIP3   OH216256   3.744   6.047   2.046 -0.8830 -0.4179  0.0896
 5438TIP3    H116257   3.713   6.135   2.067 -0.2774  0.2056 -1.5518
 5438TIP3    H216258   3.781   6.014   2.128 -2.8154  0.1143  1.2089
 5439TIP3   OH216259   5.926   7.711   2.568  0.3524  0.2596 -0.0643
 5439TIP3    H116260   5.847   7.736   2.520  0.7410  0.1557 -0.7541
 5439TIP3    H216261   5.894   7.684   2.654 -0.5687 -1.6078 -0.9559
 5440TIP3   OH216262   2.638   5.062   5.657  0.0627  0.0542  0.1645
 5440TIP3    H116263   2.556   5.028   5.690 -1.1367  3.6135  1.1430
 5440TIP3    H216264   2.613   5.117   5.582  1.8157 -0.8268 -1.0987
 5441TIP3   OH216265   5.486   7.906   3.078  0.4076 -0.0461  0.1136
 5441TIP3    H116266   5.437   7.860   3.010  1.5615 -0.8959 -0.1723
 5441TIP3    H216267   5.429   7.978   3.105 -0.6112 -0.4874 -0.8181
 5442TIP3   OH216268   6.963   1.745   1.217  0.3911  0.0741  0.1370
 5442TIP3    H116269   6.898   1.753   1.287  1.1183  1.4274  0.6742
 5442TIP3    H216270   7.014   1.668   1.241  0.0855  0.0202  0.6335
 5443TIP3   OH216271   5.971   7.282   1.419 -0.1478  0.4057  0.1104
 5443TIP3    H116272   5.907   7.215   1.397  0.0105  0.0071  0.8555
 5443TIP3    H216273   5.997   7.263   1.509  2.2718 -0.4469 -0.7311
 5444TIP3   OH216274   0.290   0.504   1.900  0.1891  0.2336  0.0754
 5444TIP3    H116275   0.302   0.425   1.848  0.4855  0.0279  0.4561
 5444TIP3    H216276   0.375   0.549   1.894  0.8171 -0.6917  1.8927
 5445TIP3   OH216277   7.153   0.522   1.263  0.3574 -0.4415 -0.1720
 5445TIP3    H116278   7.203   0.500   1.185 -0.3845  0.4946 -0.9222
 5445TIP3    H216279   7.210   0.580   1.313  0.3492 -0.0483 -0.6187
 5446TIP3   OH216280   5.667   0.688   1.446  0.0252 -0.2689 -0.1545
 5446TIP3    H116281   5.697   0.756   1.386 -0.6856  0.1254 -0.0686
 5446TIP3    H216282   5.748   0.647   1.477  0.4980  0.9776  0.3139
 5447TIP3   OH216283   3.049   2.694   6.539  0.2209 -0.7466  0.0520
 5447TIP3    H116284   2.953   2.695   6.537  0.2535  0.8018 -1.3550
 5447TIP3    H216285   3.071   2.690   6.632 -1.2260  2.7691  0.6347
 5448TIP3   OH216286   4.268   6.123   2.911 -0.1569 -0.4841  0.0096
 5448TIP3    H116287   4.320   6.055   2.869  1.0525 -0.2191  1.0523
 5448TIP3    H216288   4.230   6.081   2.988  0.6531  0.0338  0.6977
 5449TIP3   OH216289   4.335   6.908   0.525 -0.0038 -0.2840 -0.1429
 5449TIP3    H116290   4.344   6.954   0.441 -2.3684  1.4916  0.5166
 5449TIP3    H216291   4.354   6.975   0.591  1.0067 -1.4563  0.7736
 5450TIP3   OH216292   4.383   7.671   3.597  0.2696 -0.4616 -0.2020
 5450TIP3    H116293   4.363   7.705   3.509 -2.2595 -2.0948 -0.2941
 5450TIP3    H216294   4.298   7.663   3.640  1.3141 -1.5728  1.7207
 5451TIP3   OH216295   2.032   1.240   1.286 -0.3843 -0.4302  0.5523
 5451TIP3    H116296   1.939   1.221   1.276 -0.3172 -0.3096 -0.3222
 5451TIP3    H216297   2.059   1.188   1.363 -1.5789  1.0399  1.9779
 5452TIP3   OH216298   4.615   6.235   4.434 -0.3897  0.3066 -0.7596
 5452TIP3    H116299   4.612   6.273   4.346  0.8744 -2.2627 -1.9658
 5452TIP3    H216300   4.550   6.165   4.432 -0.9648  0.7838  0.6483
 5453TIP3   OH216301   7.043   0.241   2.847  0.5647  0.2826  0.1006
 5453TIP3    H116302   7.124   0.206   2.808  0.7011 -1.0046  1.4951
 5453TIP3    H216303   6.983   0.167   2.848 -0.0591  0.7915  0.6278
 5454TIP3   OH216304   2.190   3.594   6.103  0.3929  0.1174  0.3282
 5454TIP3    H116305   2.179   3.589   6.198  1.8166 -1.1026  0.4443
 5454TIP3    H216306   2.208   3.504   6.077  1.0442  0.6226 -0.9657
 5455TIP3   OH216307   5.837   7.430   2.313 -0.1674 -0.4166 -0.1445
 5455TIP3    H116308   5.931   7.414   2.315 -0.1510 -0.2462  1.4151
 5455TIP3    H216309   5.800   7.354   2.268  0.5445 -1.4519  1.0005
 5456TIP3   OH216310   4.585   5.252   1.386 -0.2571  0.1333  0.5708
 5456TIP3    H116311   4.505   5.292   1.422  0.0109 -0.1243  1.4695
 5456TIP3    H216312   4.565   5.239   1.293 -2.2310 -2.2995  1.2592
 5457TIP3   OH216313   0.393   1.289   2.424  0.0287 -0.4708 -0.7223
 5457TIP3    H116314   0.386   1.201   2.387 -0.0615 -0.0317 -1.7634
 5457TIP3    H216315   0.483   1.316   2.406  0.7447 -1.2072  1.5746
 5458TIP3   OH216316   6.170   5.963   2.659  0.0709  1.0637 -0.0532
 5458TIP3    H116317   6.188   5.906   2.734 -1.7469 -0.8561 -1.0014
 5458TIP3    H216318   6.226   6.039   2.672  1.5402 -0.3144  2.0043
 5459TIP3   OH216319   1.842   0.639   1.174  0.0758  0.0547 -0.0949
 5459TIP3    H116320   1.757   0.674   1.201  0.1140 -0.3997  0.6108
 5459TIP3    H216321   1.869   0.696   1.101 -0.6280  0.4680 -0.0377
 5460TIP3   OH216322   5.662   5.257   2.110 -0.0107  0.2010  0.2010
 5460TIP3    H116323   5.603   5.332   2.097  0.4341  0.5577  0.2230
 5460TIP3    H216324   5.606   5.189   2.147 -0.1769  0.8952  1.2300
 5461TIP3   OH216325   8.108   2.204   3.004 -0.2794  0.0406 -0.1707
 5461TIP3    H116326   8.068   2.201   3.091 -0.2529  0.0840 -0.1574
 5461TIP3    H216327   8.119   2.297   2.985  1.0046  0.0056  0.3724
 5462TIP3   OH216328   3.682   6.719   2.545  0.1453 -0.0447 -0.1406
 5462TIP3    H116329   3.751   6.671   2.499  1.3042  0.8135  0.6665
 5462TIP3    H216330   3.601   6.691   2.503  1.1912  0.9266 -2.8995
 5463TIP3   OH216331   4.448   5.064   6.563  0.2268  0.2239  0.2316
 5463TIP3    H116332   4.504   5.003   6.612 -0.5112  0.1957  1.0473
 5463TIP3    H216333   4.409   5.120   6.630 -1.0996 -0.0666 -0.2970
 5464TIP3   OH216334   5.315   0.927   2.277  0.2090 -0.1847 -0.3071
 5464TIP3    H116335   5.381   0.867   2.242 -0.8866 -0.8692 -1.2382
 5464TIP3    H216336   5.345   0.947   2.366  2.9803  1.4943 -1.5541
 5465TIP3   OH216337   6.802   0.100   3.101  0.5482  0.3686  0.3573
 5465TIP3    H116338   6.853   0.173   3.136  1.4738 -0.1439  0.0972
 5465TIP3    H216339   6.744   0.141   3.036  0.6446  0.9480  0.6278
 5466TIP3   OH216340   1.583   1.895   0.893  0.2365 -0.3370  0.1334
 5466TIP3    H116341   1.505   1.916   0.841 -0.3920 -0.4720  1.0009
 5466TIP3    H216342   1.573   1.802   0.914  1.7449 -0.9187 -1.5911
 5467TIP3   OH216343   6.921   0.013   0.246 -0.1576  0.6203  0.4154
 5467TIP3    H116344   6.904   0.019   0.152  0.0274 -0.5727  0.3004
 5467TIP3    H216345   6.843  -0.029   0.282 -0.5472  1.7347  0.9138
 5468TIP3   OH216346   3.828   7.108   0.820  0.0302 -0.3639  0.3168
 5468TIP3    H116347   3.739   7.117   0.787  0.5431  0.3395 -0.8929
 5468TIP3    H216348   3.826   7.148   0.907 -0.1191  2.4906 -0.9360
 5469TIP3   OH216349   7.149   0.758   3.345  0.1879  0.5880  0.7936
 5469TIP3    H116350   7.227   0.730   3.297 -0.1261 -0.5900  0.9623
 5469TIP3    H216351   7.080   0.765   3.279 -0.4598 -1.8494  1.1549
 5470TIP3   OH216352   3.994   7.610   1.634  0.2925 -0.3230 -0.0812
 5470TIP3    H116353   4.024   7.556   1.707  1.1762 -1.1969 -1.0601
 5470TIP3    H216354   4.025   7.564   1.556 -0.4757  0.6858 -1.0043
 5471TIP3   OH216355   4.377   7.679   4.357 -0.6801 -0.0088 -0.0286
 5471TIP3    H116356   4.287   7.652   4.373 -0.7133  1.6571  3.0290
 5471TIP3    H216357   4.427   7.643   4.431  1.0383 -0.2571 -1.2656
 5472TIP3   OH216358   6.496   4.582   1.122  0.6497 -0.0855 -0.2834
 5472TIP3    H116359   6.455   4.639   1.187 -0.0372 -0.2519 -0.5696
 5472TIP3    H216360   6.468   4.618   1.038  1.4291  0.0543 -0.4897
 5473TIP3   OH216361   6.700   7.919   2.597 -0.1100  0.5220 -0.2665
 5473TIP3    H116362   6.768   7.858   2.568  0.2038  0.8440 -0.2096
 5473TIP3    H216363   6.676   7.968   2.518  0.4859  1.1474 -0.0595
 5474TIP3   OH216364   7.173   0.123   1.873 -0.0987 -0.3436  0.5661
 5474TIP3    H116365   7.267   0.111   1.885 -0.1014 -1.3819 -0.3959
 5474TIP3    H216366   7.143   0.041   1.836 -0.9098  1.0274 -1.8862
 5475TIP3   OH216367   0.078   2.069   2.678  0.0330  0.3464  0.6107
 5475TIP3    H116368   0.082   2.069   2.774  1.6534 -0.1038  0.5629
 5475TIP3    H216369   0.142   2.135   2.652  2.2278 -2.0152 -0.2062
 5476TIP3   OH216370   3.305   7.253   1.830 -0.1804  0.0493  0.5159
 5476TIP3    H116371   3.394   7.219   1.829  0.3026  1.1036  3.2163
 5476TIP3    H216372   3.294   7.297   1.745  2.4997  1.4415  0.8451
 5477TIP3   OH216373   7.819   0.717   0.823  0.1718  0.5271 -0.3439
 5477TIP3    H116374   7.734   0.724   0.867 -0.5543  0.3272 -1.6538
 5477TIP3    H216375   7.845   0.626   0.835  0.2557  0.6213  0.1735
 5478TIP3   OH216376   5.145   7.525   3.183 -0.2069 -0.3922  0.0264
 5478TIP3    H116377   5.214   7.568   3.234  0.6450  1.2509 -2.4451
 5478TIP3    H216378   5.064   7.550   3.228  0.7413 -2.5345  3.0899
 5479TIP3   OH216379   4.378   7.950   3.059 -0.0076 -0.6793  0.1410
 5479TIP3    H116380   4.401   8.034   3.100 -0.1937 -0.6838  0.2540
 5479TIP3    H216381   4.453   7.929   3.004 -0.5632  0.2636 -0.9999
 5480TIP3   OH216382   4.700   0.727   1.036  0.2509  0.6567  0.3481
 5480TIP3    H116383   4.616   0.772   1.040  0.1381  0.4183  0.8350
 5480TIP3    H216384   4.682   0.647   0.986  0.2383  0.7122  0.2644
 5481TIP3   OH216385   1.323   2.153   6.824  0.1441  0.0988 -0.1491
 5481TIP3    H116386   1.316   2.119   6.913 -0.4131  0.8473  0.1039
 5481TIP3    H216387   1.276   2.237   6.827 -0.1044  0.0066 -1.2113
 5482TIP3   OH216388   3.543   5.493   1.514 -0.5414 -0.0566 -0.5020
 5482TIP3    H116389   3.524   5.555   1.443  0.7297  0.3087 -0.5408
 5482TIP3    H216390   3.637   5.503   1.529 -0.9898  0.7186  2.0459
 5483TIP3   OH216391   6.867   0.454   3.804 -0.0771  0.6586 -0.4763
 5483TIP3    H116392   6.783   0.498   3.810 -0.1827  0.2958  0.6352
 5483TIP3    H216393   6.856   0.372   3.852  0.1107 -0.6179 -2.5398
 5484TIP3   OH216394   1.886   0.494   2.386  0.1134  0.3340  0.7991
 5484TIP3    H116395   1.928   0.511   2.301 -0.7829 -0.4181  0.1875
 5484TIP3    H216396   1.876   0.399   2.388 -0.3322  0.3989  1.5302
 5485TIP3   OH216397   0.127   1.387   2.504 -0.0035 -0.2740 -0.2719
 5485TIP3    H116398   0.093   1.299   2.519 -0.4638  0.0432  0.5998
 5485TIP3    H216399   0.222   1.376   2.501  0.0977 -0.4664  2.3126
 5486TIP3   OH216400   5.335   0.835   1.940  0.1111  0.0357 -0.1932
 5486TIP3    H116401   5.366   0.750   1.971  1.9383  0.4126 -0.9562
 5486TIP3    H216402   5.245   0.819   1.912  0.6394 -1.7802 -0.8909
 5487TIP3   OH216403   7.570   1.330   0.111  0.3884  0.3491 -0.2132
 5487TIP3    H116404   7.662   1.357   0.114 -0.1373  2.2299 -0.4747
 5487TIP3    H216405   7.550   1.320   0.018  0.2648  0.0985 -0.1620
 5488TIP3   OH216406   7.821   0.048   2.465  0.4059  0.0793 -0.1749
 5488TIP3    H116407   7.910   0.020   2.488  0.3950 -0.0805 -0.3303
 5488TIP3    H216408   7.829   0.143   2.453  0.1582  0.3503  1.6845
 5489TIP3   OH216409   5.553   0.731   2.186 -0.2399 -0.0242  0.4283
 5489TIP3    H116410   5.496   0.654   2.177 -1.1994  0.7589 -0.4430
 5489TIP3    H216411   5.634   0.705   2.143  0.1271 -1.2060  1.7989
 5490TIP3   OH216412   7.067   1.596   1.930 -0.1262  0.0261 -0.1013
 5490TIP3    H116413   7.093   1.640   2.011  0.6395 -0.2091 -0.2158
 5490TIP3    H216414   7.129   1.524   1.921 -1.6074 -1.3164  0.2699
 5491TIP3   OH216415   5.438   7.530   2.281  0.4308 -0.4638  0.1133
 5491TIP3    H116416   5.515   7.547   2.227  1.9805  3.4001  3.2622
 5491TIP3    H216417   5.472   7.519   2.370 -2.4951 -0.2116  1.3459
 5492TIP3   OH216418   3.870   7.640   2.382 -0.0140 -0.8316 -0.0734
 5492TIP3    H116419   3.944   7.579   2.389 -0.4510 -1.4696 -0.9370
 5492TIP3    H216420   3.904   7.722   2.418  0.8733 -1.3255  0.2548
 5493TIP3   OH216421   1.972   6.657   1.709 -0.9544 -0.7560  0.6386
 5493TIP3    H116422   1.972   6.563   1.729 -0.5118 -0.7871  0.5181
 5493TIP3    H216423   1.938   6.662   1.619  1.4426 -1.0497 -0.3381
 5494TIP3   OH216424   6.554   4.968   1.017 -0.1970 -0.1092  0.5715
 5494TIP3    H116425   6.532   4.970   1.110 -2.8140  1.4119 -0.0508
 5494TIP3    H216426   6.514   4.887   0.985  0.9511 -0.7805  0.8096
 5495TIP3   OH216427   3.107   4.312   6.914  0.2265 -0.0737 -0.1363
 5495TIP3    H116428   3.086   4.282   7.002 -0.2577  0.0247 -0.2166
 5495TIP3    H216429   3.197   4.284   6.899  0.0998 -0.6361  0.1552
 5496TIP3   OH216430   7.818   0.913   1.853 -0.1222 -0.3870  0.1301
 5496TIP3    H116431   7.823   0.818   1.839 -0.2150 -0.1975 -1.2044
 5496TIP3    H216432   7.741   0.924   1.909  1.0146 -1.2615  1.9166
 5497TIP3   OH216433   5.109   1.430   2.178  0.0700 -0.1484  0.1619
 5497TIP3    H116434   5.154   1.351   2.207 -1.3651 -1.5021 -1.1762
 5497TIP3    H216435   5.016   1.411   2.193 -0.5362  0.0452 -2.9248
 5498TIP3   OH216436  -0.005   0.029   1.224 -0.0404  0.2591 -0.3550
 5498TIP3    H116437  -0.036  -0.049   1.179 -0.9579  1.3919 -1.7444
 5498TIP3    H216438   0.090   0.023   1.220 -0.1122 -0.0457 -1.7911
 5499TIP3   OH216439   6.938   0.061   1.327 -0.1545 -0.0932  0.6146
 5499TIP3    H116440   6.908   0.086   1.415 -0.9481 -1.2617  0.6738
 5499TIP3    H216441   7.023   0.105   1.318 -1.7929  3.2209  0.4661
 5500TIP3   OH216442   7.951   0.753   3.015  0.3817  0.8203 -0.2870
 5500TIP3    H116443   8.023   0.691   3.005  0.5781  0.7501  1.3924
 5500TIP3    H216444   7.871   0.700   3.004  0.5593  0.6989 -1.0496
 5501TIP3   OH216445   6.558   6.496   0.336 -0.5958 -0.0395 -0.0966
 5501TIP3    H116446   6.577   6.506   0.243 -0.3590  3.3492  0.2595
 5501TIP3    H216447   6.465   6.471   0.339 -0.1327 -2.0165 -1.2692
 5502TIP3   OH216448   1.754   4.268   5.985 -0.0460 -0.1388  0.1223
 5502TIP3    H116449   1.771   4.191   5.930 -2.7440 -0.8318  0.1710
 5502TIP3    H216450   1.685   4.315   5.938 -0.5934  0.5922  1.6382
 5503TIP3   OH216451   7.816   6.493   1.128 -0.0334 -0.2146 -0.6416
 5503TIP3    H116452   7.737   6.440   1.127 -0.8843  0.8995  2.6490
 5503TIP3    H216453   7.867   6.461   1.202  1.9328  0.0576 -1.8280
 5504TIP3   OH216454   7.937   1.822   2.710 -0.4269  0.5100  0.7221
 5504TIP3    H116455   7.908   1.756   2.648  0.4757  0.3065  0.4983
 5504TIP3    H216456   7.928   1.780   2.796 -0.1160  0.1886  0.6001
 5505TIP3   OH216457   4.329   7.239   3.684 -0.3243 -0.4878 -0.3707
 5505TIP3    H116458   4.397   7.268   3.624 -0.9697  1.3837 -0.2164
 5505TIP3    H216459   4.364   7.256   3.772  0.2779 -2.4522 -0.1959
 5506TIP3   OH216460   7.397   1.953   1.604  0.3829 -0.8032 -0.1406
 5506TIP3    H116461   7.350   1.872   1.583  1.4392 -1.0932 -1.4738
 5506TIP3    H216462   7.464   1.960   1.535  0.9635  0.6622  0.5587
 5507TIP3   OH216463   4.283   6.703   3.957  0.5146  0.4312 -0.4774
 5507TIP3    H116464   4.240   6.755   3.889 -0.8197  0.8061  0.6325
 5507TIP3    H216465   4.324   6.768   4.014  0.6756  0.1683 -0.2955
 5508TIP3   OH216466   0.339   0.173   2.151 -0.6450  0.5260 -0.2062
 5508TIP3    H116467   0.405   0.156   2.084  0.0137 -1.8870  0.9979
 5508TIP3    H216468   0.383   0.155   2.234 -2.0435  1.4799  0.7827
 5509TIP3   OH216469   2.258   2.835   5.911  0.0120 -0.2625  0.3782
 5509TIP3    H116470   2.334   2.777   5.915 -0.1212 -0.3669  1.7041
 5509TIP3    H216471   2.237   2.852   6.003 -0.5234  1.1299  0.0004
 5510TIP3   OH216472   7.839   0.101   0.020  0.1573  0.0956 -0.2449
 5510TIP3    H116473   7.794   0.027  -0.020  0.4230 -0.1126 -0.1612
 5510TIP3    H216474   7.790   0.119   0.100 -0.3240  0.4584 -0.6140
 5511TIP3   OH216475   7.602   0.542   0.571  0.0650 -0.2291 -0.2913
 5511TIP3    H116476   7.667   0.477   0.545  1.1138  0.1138  1.3935
 5511TIP3    H216477   7.521   0.491   0.584  0.5609 -0.9980 -0.1757
 5512TIP3   OH216478   4.234   7.771   0.781  0.3803 -0.3579  0.0972
 5512TIP3    H116479   4.299   7.779   0.851 -0.2762 -1.8785  0.8942
 5512TIP3    H216480   4.150   7.772   0.827 -0.1318  0.4295 -0.8385
 5513TIP3   OH216481   7.266   3.553   0.933  0.5674 -0.5544 -0.3066
 5513TIP3    H116482   7.298   3.620   0.993 -0.5997 -0.0342 -0.2617
 5513TIP3    H216483   7.315   3.474   0.958  0.6529 -0.1589  0.8166
 5514TIP3   OH216484   3.471   7.570   2.059 -0.0226  0.0113  0.1842
 5514TIP3    H116485   3.412   7.495   2.054 -0.3494  0.2922 -0.3000
 5514TIP3    H216486   3.463   7.612   1.973 -1.5130  1.8499  1.1953
 5515TIP3   OH216487   6.462   2.289   0.102  0.3518 -0.1443  0.5106
 5515TIP3    H116488   6.523   2.264   0.172  2.0718  0.6460 -0.6610
 5515TIP3    H216489   6.451   2.209   0.051  1.4428  0.0168 -0.0050
 5516TIP3   OH216490   2.369   4.405   6.422 -0.4423  0.3879  0.2436
 5516TIP3    H116491   2.281   4.423   6.388 -0.3486 -2.8002 -1.8834
 5516TIP3    H216492   2.388   4.316   6.394  3.0067  0.5759  1.7286
 5517TIP3   OH216493   2.120   1.770   5.933  0.5547  0.2422 -0.0222
 5517TIP3    H116494   2.072   1.719   5.998  2.0379 -0.4087  0.5950
 5517TIP3    H216495   2.209   1.776   5.968  1.2305  0.4156 -1.6806
 5518TIP3   OH216496   6.945   0.911   3.745 -0.2724  0.4602  0.1202
 5518TIP3    H116497   6.886   0.979   3.778 -0.5472  0.7519 -0.9267
 5518TIP3    H216498   6.968   0.941   3.657  0.6919 -0.1253  0.1695
 5519TIP3   OH216499   7.815   1.769   1.833 -0.2197 -0.1741  0.0651
 5519TIP3    H116500   7.806   1.820   1.913 -1.9583  0.7888 -0.7178
 5519TIP3    H216501   7.843   1.832   1.767  1.0205 -0.9232 -0.1401
 5520TIP3   OH216502   6.154   6.555   1.443  0.0634  0.3553  0.3938
 5520TIP3    H116503   6.084   6.574   1.506  0.5128  1.0100  0.7032
 5520TIP3    H216504   6.163   6.460   1.445  1.1727  0.4848  2.5235
 5521TIP3   OH216505   7.714   1.339   1.744  0.2300 -0.0739 -0.5578
 5521TIP3    H116506   7.751   1.279   1.679 -1.5952 -0.4377 -1.3095
 5521TIP3    H216507   7.727   1.296   1.828 -1.2407 -1.6576 -1.1078
 5522TIP3   OH216508   5.010   7.567   0.439  0.3218 -0.0622 -0.6121
 5522TIP3    H116509   4.998   7.543   0.531 -1.2669  2.0877 -0.2135
 5522TIP3    H216510   4.926   7.546   0.398  0.5858  0.2107 -1.2913
 5523TIP3   OH216511   0.628   0.304   2.329 -0.8005  0.3145 -0.1285
 5523TIP3    H116512   0.558   0.250   2.365 -0.6919  1.0310  1.1415
 5523TIP3    H216513   0.583   0.374   2.281 -0.9527  0.7933  0.7134
 5524TIP3   OH216514   7.334   1.332   3.557 -0.0048 -0.2251  0.0948
 5524TIP3    H116515   7.318   1.279   3.634 -0.4426  0.7368  0.6766
 5524TIP3    H216516   7.264   1.307   3.495  0.1586 -0.7622  0.1269
 5525TIP3   OH216517   1.182   3.236   6.752 -0.3887 -0.2528 -0.2070
 5525TIP3    H116518   1.129   3.212   6.828  0.3190 -0.4659  0.2281
 5525TIP3    H216519   1.134   3.308   6.711 -1.2042 -0.6930 -0.0396
 5526TIP3   OH216520   5.419   6.277   0.722 -0.4178  0.0293  0.7407
 5526TIP3    H116521   5.391   6.188   0.743 -0.7957  0.0813  0.4478
 5526TIP3    H216522   5.339   6.329   0.724 -0.6516 -0.1490 -1.8886
 5527TIP3   OH216523   7.947   0.889   2.367 -0.2477 -0.3746  0.1821
 5527TIP3    H116524   7.934   0.869   2.460  0.3228 -0.1336  0.3162
 5527TIP3    H216525   7.967   0.982   2.365  0.5904 -0.5552 -0.0979
 5528TIP3   OH216526   4.031   6.532   3.996  0.2277 -0.3969  0.4740
 5528TIP3    H116527   4.075   6.614   3.972  1.0687 -0.7079  0.9546
 5528TIP3    H216528   3.943   6.559   4.021 -0.1032  0.1537 -1.1667
 5529TIP3   OH216529   8.213   6.743   2.188 -0.0685 -0.6824 -0.9457
 5529TIP3    H116530   8.272   6.753   2.262 -0.2644  0.4152 -0.9301
 5529TIP3    H216531   8.227   6.653   2.158  0.9156 -0.7342 -0.3561
 5530TIP3   OH216532   6.357   0.057   0.049  0.4081  0.4728 -0.3184
 5530TIP3    H116533   6.380   0.015   0.133  3.8345  0.8423 -0.9803
 5530TIP3    H216534   6.292   0.122   0.073  0.2555 -0.4048  1.8570
 5531TIP3   OH216535   6.156   7.401   3.099  0.4483 -0.5729  0.3298
 5531TIP3    H116536   6.240   7.354   3.104 -0.3016 -1.7839  1.6549
 5531TIP3    H216537   6.090   7.332   3.099 -0.5652  0.3885 -0.6701
 5532TIP3   OH216538   4.931   6.897   2.058 -0.1001  0.6001 -0.1518
 5532TIP3    H116539   4.927   6.956   2.133  1.3829  0.2172  0.2496
 5532TIP3    H216540   4.998   6.832   2.082 -1.5327 -1.0997 -0.6766
 5533TIP3   OH216541   5.928   5.801   1.845  0.2791  0.1756 -0.1049
 5533TIP3    H116542   5.915   5.895   1.830  1.4204  0.2451 -0.6977
 5533TIP3    H216543   6.015   5.795   1.885  0.7759 -0.7269 -1.2777
 5534TIP3   OH216544   4.644   7.227   4.170  0.3753 -0.1808 -0.1800
 5534TIP3    H116545   4.601   7.310   4.147 -1.3720 -0.5179  1.6655
 5534TIP3    H216546   4.623   7.168   4.098  0.4746  0.6007 -0.8536
 5535TIP3   OH216547   5.979   7.432   2.018  0.0842  0.3359  0.0243
 5535TIP3    H116548   6.050   7.474   2.066 -0.6607  1.0517  0.5298
 5535TIP3    H216549   5.935   7.504   1.972  0.6517 -0.3070 -1.5711
 5536TIP3   OH216550   3.522   7.068   1.805  0.3269 -0.5608 -0.7511
 5536TIP3    H116551   3.473   7.014   1.867 -0.0415 -0.1026 -0.6484
 5536TIP3    H216552   3.535   7.010   1.729 -1.1071 -0.4046 -1.1250
 5537TIP3   OH216553   8.125   0.471   1.712  0.3822  0.0153 -0.1590
 5537TIP3    H116554   8.156   0.413   1.781  0.0995  0.7858  0.6359
 5537TIP3    H216555   8.094   0.413   1.643  0.8484 -0.7642  0.2849
 5538TIP3   OH216556   8.479   0.389   0.454 -0.0177 -0.2683  0.1621
 5538TIP3    H116557   8.457   0.475   0.418 -0.9100  0.0035  1.3301
 5538TIP3    H216558   8.496   0.335   0.377 -0.0973  0.7708 -0.6059
 5539TIP3   OH216559   8.406   0.149   2.496  0.3154  0.0552  0.1135
 5539TIP3    H116560   8.425   0.231   2.450 -1.2545  0.3206 -0.0977
 5539TIP3    H216561   8.471   0.087   2.462 -0.1870  0.5084 -1.7485
 5540TIP3   OH216562   1.595   3.677   6.078 -0.2835  0.0410  0.1425
 5540TIP3    H116563   1.615   3.618   6.150 -1.2455 -1.3494 -0.7108
 5540TIP3    H216564   1.524   3.732   6.111  1.2601  1.3838  1.2772
 5541TIP3   OH216565   1.311   3.728   6.689  0.6643 -0.3639  0.5008
 5541TIP3    H116566   1.251   3.779   6.635 -0.3829 -0.8631  1.1826
 5541TIP3    H216567   1.312   3.641   6.650  0.8605 -0.3910  0.5630
 5542TIP3   OH216568   4.266   6.668   0.819 -0.2427 -0.7529 -0.2477
 5542TIP3    H116569   4.254   6.583   0.778 -0.1394 -1.0504  0.3309
 5542TIP3    H216570   4.184   6.684   0.866 -0.8785  0.1902 -1.6415
 5543TIP3   OH216571   1.174   1.214   3.575 -0.3800 -0.0393 -0.1325
 5543TIP3    H116572   1.265   1.219   3.603  0.1927 -0.1299 -1.9161
 5543TIP3    H216573   1.178   1.214   3.480 -2.1792 -1.1475 -0.2406
 5544TIP3   OH216574   4.250   6.055   3.209 -0.1020  0.2346  0.5639
 5544TIP3    H116575   4.235   6.030   3.301 -0.3879 -0.0505  0.4410
 5544TIP3    H216576   4.203   5.989   3.159 -0.0392  0.4593  0.2118
 5545TIP3   OH216577   2.585   1.405   5.700 -0.0435 -0.4569 -0.1955
 5545TIP3    H116578   2.676   1.397   5.672 -0.4244  0.4166 -1.7618
 5545TIP3    H216579   2.590   1.450   5.785  0.9090  1.2623 -1.1280
 5546TIP3   OH216580   5.863   6.819   1.219  0.2332 -0.1609  0.3296
 5546TIP3    H116581   5.907   6.866   1.290  2.4669 -2.0005  0.2489
 5546TIP3    H216582   5.893   6.862   1.139 -0.3604  0.3902  0.4082
 5547TIP3   OH216583   1.845   2.645   6.363  0.0100 -0.2326  0.4673
 5547TIP3    H116584   1.776   2.603   6.313  0.3681 -0.3304  0.0553
 5547TIP3    H216585   1.825   2.739   6.358  1.3387 -0.0422 -1.8251
 5548TIP3   OH216586   4.543   7.101   1.034  0.5441 -0.1125 -0.1481
 5548TIP3    H116587   4.509   7.027   0.984  0.6712  0.1738 -0.6605
 5548TIP3    H216588   4.635   7.081   1.046  0.3228 -0.6170  0.7550
 5549TIP3   OH216589   5.601   6.910   2.740 -0.2415  0.3741 -0.2901
 5549TIP3    H116590   5.638   6.958   2.667 -0.2562 -0.3288 -0.7660
 5549TIP3    H216591   5.508   6.930   2.738 -0.1138  1.0022  0.0342
 5550TIP3   OH216592   6.499   0.821   1.583  0.3048 -0.0681  0.3965
 5550TIP3    H116593   6.453   0.839   1.501 -3.2285  0.9948  2.4993
 5550TIP3    H216594   6.560   0.751   1.561 -2.5527 -1.7997 -2.5037
 5551TIP3   OH216595   4.511   7.669   2.193 -0.1313 -0.0595 -0.0841
 5551TIP3    H116596   4.521   7.575   2.206 -1.4127  0.0047  1.5839
 5551TIP3    H216597   4.599   7.700   2.173  0.8780 -1.1914  2.3617
 5552TIP3   OH216598   6.908   0.183   1.930  0.3247  0.1390 -0.1957
 5552TIP3    H116599   7.001   0.191   1.910  0.3633  0.1733 -0.0069
 5552TIP3    H216600   6.882   0.271   1.959  0.8935 -0.5545  2.5797
 5553TIP3   OH216601   4.386   7.682   2.823  0.2346  0.2733  0.0738
 5553TIP3    H116602   4.414   7.630   2.748 -0.2116  0.0373  0.0740
 5553TIP3    H216603   4.467   7.723   2.854  0.5307 -0.1439 -0.1333
 5554TIP3   OH216604   4.302   0.561   3.092 -0.2714  0.0112  0.1135
 5554TIP3    H116605   4.375   0.587   3.148  0.9168  0.4334 -1.6026
 5554TIP3    H216606   4.343   0.530   3.012 -1.9732 -0.0886 -0.7385
 5555TIP3   OH216607   4.222   6.602   0.055  0.4119 -0.0485 -0.4649
 5555TIP3    H116608   4.254   6.692   0.062 -0.5367  0.2522  0.0980
 5555TIP3    H216609   4.293   6.555   0.011  1.7757  0.5254  1.0475
 5556TIP3   OH216610   4.376   4.612   2.155  0.2168  0.1792  0.3102
 5556TIP3    H116611   4.451   4.558   2.130  0.1133  0.9525 -1.7061
 5556TIP3    H216612   4.340   4.644   2.073 -0.5485  2.2245  1.4028
 5557TIP3   OH216613   6.208   0.262   3.303  0.3632 -0.2549  0.1132
 5557TIP3    H116614   6.210   0.173   3.338  0.9839  0.1043  1.0115
 5557TIP3    H216615   6.265   0.312   3.361 -0.0474  0.7506 -0.3363
 5558TIP3   OH216616   5.394   5.365   2.913  0.3984  0.2944 -0.3785
 5558TIP3    H116617   5.482   5.337   2.939  0.0537  0.0512  0.5164
 5558TIP3    H216618   5.399   5.460   2.909  0.5500  0.3131  0.2273
 5559TIP3   OH216619   4.831   4.671   0.918  0.1866  0.4028 -0.0918
 5559TIP3    H116620   4.874   4.651   0.835 -1.3275  0.0583 -0.8213
 5559TIP3    H216621   4.865   4.606   0.980 -0.0484 -0.5075 -0.9123
 5560TIP3   OH216622   6.620   7.621   6.336  0.7818 -0.4444 -0.5215
 5560TIP3    H116623   6.671   7.542   6.352  1.2875  0.0943  0.6248
 5560TIP3    H216624   6.564   7.600   6.261  2.3680 -1.2068 -1.5195
 5561TIP3   OH216625   2.589   7.549   0.622 -0.5053 -0.4765  0.5328
 5561TIP3    H116626   2.502   7.532   0.657 -0.2630 -1.7794  0.5328
 5561TIP3    H216627   2.647   7.496   0.675  0.0239 -1.3724 -0.9059
 5562TIP3   OH216628   5.818   7.365   3.651  0.2715  0.0116  0.2502
 5562TIP3    H116629   5.760   7.356   3.728  0.7280  0.1873  0.6173
 5562TIP3    H216630   5.902   7.332   3.681 -0.2311 -2.5762 -1.0277
 5563TIP3   OH216631   4.490   7.266   2.782  0.1187  0.2809  0.1221
 5563TIP3    H116632   4.436   7.280   2.704 -0.6917 -0.1794  0.5873
 5563TIP3    H216633   4.522   7.353   2.805  1.4128  0.2441 -1.4692
 5564TIP3   OH216634   7.168   0.033   0.372  0.1786 -0.4294 -0.0905
 5564TIP3    H116635   7.081   0.020   0.336  0.4656 -3.0238  0.0569
 5564TIP3    H216636   7.154   0.054   0.464 -0.3281  0.2198 -0.3193
 5565TIP3   OH216637   4.573   4.545   0.992 -0.2187  0.3095  0.3738
 5565TIP3    H116638   4.663   4.555   1.024  0.2702 -1.0279 -0.5511
 5565TIP3    H216639   4.580   4.559   0.897 -1.0846  0.7933  0.3808
 5566TIP3   OH216640   8.047   0.812   0.956  0.0207  0.4464  0.1235
 5566TIP3    H116641   8.017   0.871   1.024 -0.9141  0.6952 -0.5033
 5566TIP3    H216642   7.967   0.778   0.916  0.5549 -0.3909 -0.2566
 5567TIP3   OH216643   5.760   6.690   1.447  0.4676  0.5839  0.0228
 5567TIP3    H116644   5.803   6.770   1.418  2.7449 -0.1455  1.2276
 5567TIP3    H216645   5.748   6.639   1.367  1.5183  0.9793 -0.4023
 5568TIP3   OH216646   3.351   5.727   0.449  0.3938  0.2888  0.1086
 5568TIP3    H116647   3.413   5.793   0.481  0.5750  0.4097 -0.4802
 5568TIP3    H216648   3.380   5.646   0.490  0.2527  0.5445  0.7294
 5569TIP3   OH216649   5.481   7.389   1.629  0.1934 -0.4644 -0.3337
 5569TIP3    H116650   5.464   7.457   1.564 -2.4514  0.0095  0.7823
 5569TIP3    H216651   5.569   7.407   1.661  0.4746  0.9187 -1.8666
 5570TIP3   OH216652   2.220   3.107   4.354  0.1388  0.2680 -0.6155
 5570TIP3    H116653   2.191   3.017   4.371  1.6331 -0.0843  0.1724
 5570TIP3    H216654   2.140   3.155   4.332 -0.4787 -1.5914 -2.5860
 5571TIP3   OH216655   7.390   0.119   2.232 -0.0085 -0.1183 -0.0850
 5571TIP3    H116656   7.445   0.061   2.285  0.1858  0.7571  0.7044
 5571TIP3    H216657   7.300   0.100   2.260  0.1607  1.0891  1.3697
 5572TIP3   OH216658   7.663   7.867   2.770  0.1662 -0.2852 -0.5719
 5572TIP3    H116659   7.742   7.912   2.740 -0.0878  1.7884  1.6721
 5572TIP3    H216660   7.693   7.783   2.804  1.2652  0.1055 -0.5776
 5573TIP3   OH216661   7.561   6.667   0.966 -0.1140 -0.2308 -0.4685
 5573TIP3    H116662   7.545   6.609   0.892  0.1042  2.4928 -2.7276
 5573TIP3    H216663   7.644   6.636   1.002 -0.5505 -2.0076 -0.9020
 5574TIP3   OH216664   0.182   0.858   1.955  0.7395 -0.2388  0.0522
 5574TIP3    H116665   0.117   0.802   1.913  0.1194 -0.4598  1.3020
 5574TIP3    H216666   0.263   0.807   1.953  0.4204 -0.7495  0.2458
 5575TIP3   OH216667   1.895   0.719   1.678 -0.1680 -0.4179 -0.2059
 5575TIP3    H116668   1.939   0.677   1.752  2.2183  1.2328 -0.6228
 5575TIP3    H216669   1.894   0.652   1.610 -1.6347 -1.6735  0.9991
 5576TIP3   OH216670   3.226   3.883   6.710  0.2142 -0.0655 -0.7382
 5576TIP3    H116671   3.299   3.893   6.771  0.3400 -2.2066 -0.4963
 5576TIP3    H216672   3.264   3.892   6.623  0.0539  2.9021 -0.5439
 5577TIP3   OH216673   4.787   7.078   1.392 -0.1090 -0.1582  0.0342
 5577TIP3    H116674   4.872   7.036   1.378 -0.1771 -0.4035  0.3642
 5577TIP3    H216675   4.728   7.006   1.416 -0.5623 -0.0847 -0.8109
 5578TIP3   OH216676   8.456   6.855   1.304  0.2296  0.0207  0.3137
 5578TIP3    H116677   8.404   6.880   1.381  2.2608  1.3401  1.2959
 5578TIP3    H216678   8.416   6.905   1.232 -1.2611 -0.7111  0.6163
 5579TIP3   OH216679   6.874   5.596   1.412  0.7734 -0.3073 -0.3763
 5579TIP3    H116680   6.818   5.543   1.355 -0.6511 -1.0633  1.6679
 5579TIP3    H216681   6.939   5.534   1.446  0.8180 -0.1434 -0.1635
 5580TIP3   OH216682   5.134   6.613   0.475  0.2853  0.1907  0.1348
 5580TIP3    H116683   5.209   6.617   0.535 -0.1268  1.2031  0.5913
 5580TIP3    H216684   5.066   6.567   0.524 -0.0499  1.0135  0.4462
 5581TIP3   OH216685   2.149   3.156   6.352  0.0530 -0.0417 -0.0375
 5581TIP3    H116686   2.124   3.114   6.270 -0.0243 -0.7209  0.3340
 5581TIP3    H216687   2.201   3.232   6.325 -0.9136  0.3723 -0.7509
 5582TIP3   OH216688   1.929   3.349   6.232 -0.7029  0.3926 -0.1848
 5582TIP3    H116689   2.001   3.315   6.179 -2.3884 -0.6037 -1.8564
 5582TIP3    H216690   1.954   3.440   6.250  1.4475 -0.2357  0.1149
 5583TIP3   OH216691   5.756   6.903   2.002 -0.1554 -0.2953  0.1905
 5583TIP3    H116692   5.674   6.881   2.047 -0.7506 -0.5490 -0.9888
 5583TIP3    H216693   5.792   6.818   1.975 -1.8492  0.0079 -3.3114
 5584TIP3   OH216694   4.586   7.854   2.855  0.1224  0.8293 -0.1862
 5584TIP3    H116695   4.633   7.914   2.797  0.1654 -0.6001 -1.6285
 5584TIP3    H216696   4.655   7.809   2.904  0.1362  0.9711 -0.0734
 5585TIP3   OH216697   1.652   2.541   1.079 -0.3469  0.3066 -0.2932
 5585TIP3    H116698   1.576   2.557   1.136 -1.1678 -1.6057 -0.7956
 5585TIP3    H216699   1.635   2.595   1.001 -0.5721  0.8637  0.1435
 5586TIP3   OH216700   0.151   0.162   0.232 -0.1646  0.3403  0.6954
 5586TIP3    H116701   0.089   0.214   0.180  0.8449 -0.2791 -1.1485
 5586TIP3    H216702   0.141   0.073   0.200  1.9816  0.2986  0.0463
 5587TIP3   OH216703   0.437   0.128   2.423 -0.1316 -0.4976  0.0589
 5587TIP3    H116704   0.465   0.036   2.424 -0.7275 -0.6901  2.3808
 5587TIP3    H216705   0.354   0.128   2.471  2.0681  1.8562  4.1012
 5588TIP3   OH216706   6.966   5.920   1.516 -0.2103 -0.2504 -0.5487
 5588TIP3    H116707   6.964   6.014   1.496  0.3557 -0.2069 -0.4273
 5588TIP3    H216708   7.028   5.913   1.588 -0.9051 -0.6233  0.0131
 5589TIP3   OH216709   1.486   2.373   1.926  0.3023 -0.1523 -0.3521
 5589TIP3    H116710   1.510   2.451   1.975 -1.8767  1.2336 -1.4291
 5589TIP3    H216711   1.487   2.302   1.991  0.3389  1.1113  1.0433
 5590TIP3   OH216712   0.818   1.487   1.362 -0.0225  0.3507 -0.7773
 5590TIP3    H116713   0.905   1.524   1.374  0.0680  0.1735 -0.8828
 5590TIP3    H216714   0.832   1.411   1.306  0.1706 -1.4117  1.5456
 5591TIP3   OH216715   5.681   7.628   1.563 -0.0636 -0.5445 -0.4436
 5591TIP3    H116716   5.601   7.638   1.614  1.4099  0.5834  1.7237
 5591TIP3    H216717   5.670   7.688   1.489 -0.9901 -0.0174  0.1192
 5592TIP3   OH216718   1.134   1.022   1.572 -0.3089  0.1003 -0.5187
 5592TIP3    H116719   1.089   1.067   1.643  0.6856  0.4795 -0.1157
 5592TIP3    H216720   1.158   1.092   1.511 -1.5710 -0.2781 -1.4668
 5593TIP3   OH216721   6.969   7.876   1.630 -0.0294  0.1001 -0.0865
 5593TIP3    H116722   7.057   7.861   1.597 -0.0159 -0.0577  0.0262
 5593TIP3    H216723   6.979   7.944   1.696 -0.1235  0.7840 -0.7659
 5594TIP3   OH216724   0.092   0.234   0.963 -0.0579 -0.1654  0.0948
 5594TIP3    H116725   0.163   0.272   1.015  0.5568 -0.2764 -0.6514
 5594TIP3    H216726   0.071   0.302   0.899 -0.7808 -0.0443  0.4600
 5595TIP3   OH216727   6.018   6.384   2.423  0.4799  0.0415  0.7006
 5595TIP3    H116728   5.926   6.365   2.439  0.2196  0.7768  0.0952
 5595TIP3    H216729   6.053   6.407   2.509  0.8714 -3.3613  1.5213
 5596TIP3   OH216730   5.653   7.636   0.349  0.0706 -0.6534 -0.8384
 5596TIP3    H116731   5.658   7.707   0.286 -0.8697 -0.3650 -0.5938
 5596TIP3    H216732   5.741   7.631   0.386 -0.7781  3.0361  2.0182
 5597TIP3   OH216733   6.707   7.463   0.391 -0.0579  0.2474  0.0496
 5597TIP3    H116734   6.670   7.551   0.398 -0.4646  0.0477  0.4097
 5597TIP3    H216735   6.726   7.437   0.481 -1.1949 -0.5642  0.0680
 5598TIP3   OH216736   5.739   6.419   0.939 -0.2235  0.3789  0.7407
 5598TIP3    H116737   5.700   6.332   0.938 -0.6355  0.5360  2.1240
 5598TIP3    H216738   5.820   6.410   0.889 -2.3759  0.2218 -2.9323
 5599TIP3   OH216739   6.773   5.242   1.129  1.1030 -0.3626  0.2830
 5599TIP3    H116740   6.789   5.171   1.191  0.5349 -0.3776  0.4200
 5599TIP3    H216741   6.747   5.316   1.184 -0.3937 -0.6673  0.0004
 5600TIP3   OH216742   4.822   7.292   1.198 -0.2491  0.0510 -0.1287
 5600TIP3    H116743   4.890   7.263   1.137 -0.2987  1.3607 -0.8352
 5600TIP3    H216744   4.815   7.222   1.262  1.9180 -0.0081  0.0639
 5601TIP3   OH216745   2.587   3.046   6.728  0.0495 -0.1974 -0.1448
 5601TIP3    H116746   2.512   2.989   6.741  1.0238 -1.5480 -0.3494
 5601TIP3    H216747   2.662   2.994   6.756  0.8044  1.5363  1.1678
 5602TIP3   OH216748   5.234   3.158   0.367 -0.6510  0.1152 -0.2856
 5602TIP3    H116749   5.253   3.091   0.433 -0.5665  0.0406 -0.3861
 5602TIP3    H216750   5.318   3.201   0.352 -0.1104 -1.5515 -2.2208
 5603TIP3   OH216751   5.221   4.778   1.201  0.4140  0.3015  0.8063
 5603TIP3    H116752   5.210   4.846   1.267 -2.7378  0.0490  0.6310
 5603TIP3    H216753   5.137   4.776   1.155  2.2192 -0.1633 -2.6085
 5604TIP3   OH216754   7.015   7.692   5.904 -0.3526  0.1597  0.5517
 5604TIP3    H116755   7.001   7.597   5.898  0.9204  0.0716 -1.3759
 5604TIP3    H216756   6.970   7.727   5.827  1.4445  0.8318 -0.2221
 5605TIP3   OH216757   1.301   1.577   6.186  0.1362 -0.3229  0.1086
 5605TIP3    H116758   1.342   1.492   6.205 -2.4375 -1.3695  1.2775
 5605TIP3    H216759   1.306   1.625   6.268 -1.5182 -0.7115  0.4487
 5606TIP3   OH216760   3.608   3.441  -0.025 -0.1313 -0.2895  0.2895
 5606TIP3    H116761   3.525   3.418   0.019 -0.1643 -0.4425  0.1451
 5606TIP3    H216762   3.669   3.456   0.047 -0.8798  2.0964  0.4786
 5607TIP3   OH216763   1.282   7.199   6.632  0.1723 -0.1278  0.1510
 5607TIP3    H116764   1.233   7.142   6.691 -0.6747  1.4661  1.0448
 5607TIP3    H216765   1.273   7.286   6.671  2.2844  0.4657 -0.6183
 5608TIP3   OH216766   1.465   1.476   6.483 -0.7662  0.1239  0.0884
 5608TIP3    H116767   1.475   1.571   6.480 -1.4292  0.1951  0.0681
 5608TIP3    H216768   1.379   1.462   6.524 -1.1334 -0.4393 -0.8518
 5609TIP3   OH216769   4.381   5.498   0.894  0.4641 -0.0189  0.0999
 5609TIP3    H116770   4.332   5.459   0.967 -0.6884  0.4684 -0.4015
 5609TIP3    H216771   4.473   5.480   0.915  0.0734 -1.0506  0.9969
 5610TIP3   OH216772   4.133   1.885   5.696  0.2685  0.0389  0.2507
 5610TIP3    H116773   4.083   1.961   5.727 -0.7961  0.1200 -1.5716
 5610TIP3    H216774   4.067   1.820   5.674  1.0619 -0.5916 -0.2939
 5611TIP3   OH216775   6.053   5.886   0.380  0.4420 -0.1976 -0.2151
 5611TIP3    H116776   6.096   5.954   0.328  1.2441 -0.9849 -0.5902
 5611TIP3    H216777   6.017   5.933   0.455 -0.8108  0.9753 -1.5072
 5612TIP3   OH216778   5.763   7.803   5.749 -0.0781 -0.2962 -1.1000
 5612TIP3    H116779   5.690   7.812   5.810  2.5203  1.0538  1.9307
 5612TIP3    H216780   5.731   7.843   5.668 -2.1868  1.6442  0.6294
 5613TIP3   OH216781   1.181   0.243   6.688 -0.6389 -0.1967 -0.3866
 5613TIP3    H116782   1.274   0.264   6.688 -0.4913 -0.8022 -1.8296
 5613TIP3    H216783   1.171   0.179   6.618 -1.2731 -4.1245  3.0938
 5614TIP3   OH216784   7.012   7.759   2.843 -0.0964  0.2870  0.2382
 5614TIP3    H116785   7.091   7.737   2.793 -0.2550  0.2984 -0.0167
 5614TIP3    H216786   7.031   7.729   2.932  0.3686  0.6880  0.2772
 5615TIP3   OH216787   5.406   4.671   1.838  0.2682 -0.5160  0.5540
 5615TIP3    H116788   5.361   4.610   1.779  1.1382  0.9317 -1.6765
 5615TIP3    H216789   5.371   4.650   1.924 -2.7345 -1.2002 -0.7423
 5616TIP3   OH216790   7.104   7.940   6.013 -0.3028 -0.0685  0.2860
 5616TIP3    H116791   7.141   8.014   5.965  1.0301 -0.3301  0.8765
 5616TIP3    H216792   7.042   7.900   5.952 -1.4257  1.8283  0.1459
 5617TIP3   OH216793   5.238   5.376   0.209  0.3748  0.0984  0.0664
 5617TIP3    H116794   5.330   5.355   0.190  0.9868  0.7921  2.1265
 5617TIP3    H216795   5.228   5.467   0.178  0.5168  0.1934  0.3020
 5618TIP3   OH216796   1.762   0.441   4.221 -0.6314 -0.4005 -0.2688
 5618TIP3    H116797   1.711   0.492   4.158  0.6834  1.2779 -0.0022
 5618TIP3    H216798   1.757   0.490   4.303  2.0389  0.2507 -0.4318
 5619TIP3   OH216799   4.937   3.687   0.589  0.4451 -0.4584  0.0658
 5619TIP3    H116800   4.895   3.725   0.667 -0.9291 -0.7584 -0.5210
 5619TIP3    H216801   4.891   3.727   0.515  1.1842 -0.8166 -0.5894
 5620TIP3   OH216802   8.277   6.577   6.666  0.3678  0.3588  0.1247
 5620TIP3    H116803   8.350   6.525   6.698  0.5465  1.9943  2.5485
 5620TIP3    H216804   8.227   6.518   6.611  1.9365 -1.6161  0.7737
 5621TIP3   OH216805   5.016   5.042   1.612 -0.6324  0.1316 -0.3458
 5621TIP3    H116806   5.038   5.075   1.525  0.1520  0.4339 -0.0429
 5621TIP3    H216807   4.933   5.085   1.634  0.3658  1.9286  0.0438
 5622TIP3   OH216808   2.576   5.123   1.177 -0.2573  0.1352 -0.2109
 5622TIP3    H116809   2.545   5.101   1.089 -0.1598 -0.2628 -0.1461
 5622TIP3    H216810   2.567   5.042   1.227  1.1581 -0.0689 -0.2676
 5623TIP3   OH216811   2.585   0.058   4.701  0.4147  0.1090  0.4995
 5623TIP3    H116812   2.539   0.141   4.715 -0.8572 -0.4593 -0.1796
 5623TIP3    H216813   2.677   0.082   4.695 -0.0852  1.6825 -1.3347
 5624TIP3   OH216814   7.318   7.490   3.857 -0.3312 -0.0768  0.2191
 5624TIP3    H116815   7.412   7.475   3.860 -0.6211 -2.3858 -0.7432
 5624TIP3    H216816   7.282   7.427   3.920 -1.2627  0.5153  0.2892
 5625TIP3   OH216817   0.347   0.854   4.724 -0.0769 -0.1974 -0.4161
 5625TIP3    H116818   0.417   0.890   4.670 -1.5031 -0.3667 -2.4298
 5625TIP3    H216819   0.392   0.794   4.784  1.8029  1.7769  0.1812
 5626TIP3   OH216820   8.460   6.760   5.168  0.0707  0.2150 -0.6978
 5626TIP3    H116821   8.549   6.795   5.175 -0.2559  0.7403  1.1958
 5626TIP3    H216822   8.407   6.835   5.140 -0.0814  0.4032  0.0793
 5627TIP3   OH216823   6.807   7.640   5.692 -0.0321 -0.1460 -0.1472
 5627TIP3    H116824   6.846   7.553   5.680  0.9293  0.1804  0.5555
 5627TIP3    H216825   6.718   7.623   5.720 -0.2330 -0.9070 -1.2274
 5628TIP3   OH216826   3.978   4.532   0.363  0.0980  0.1325  0.1134
 5628TIP3    H116827   4.042   4.468   0.394  0.2436 -0.1549 -0.7687
 5628TIP3    H216828   4.028   4.590   0.305 -0.6308 -0.7311 -1.4393
 5629TIP3   OH216829   5.035   5.750   0.519  0.4613 -0.5092 -0.6575
 5629TIP3    H116830   5.107   5.811   0.533  0.1833  0.5553 -3.6004
 5629TIP3    H216831   4.967   5.778   0.582  1.2277  0.7359 -0.3729
 5630TIP3   OH216832   4.698   4.488   0.097 -0.1108 -0.1273 -0.3220
 5630TIP3    H116833   4.678   4.563   0.153  4.5736  1.0853 -0.0043
 5630TIP3    H216834   4.694   4.523   0.008  2.0153  0.5893 -0.1761
 5631TIP3   OH216835   7.900   6.985   6.139  0.2981 -0.1669  0.0538
 5631TIP3    H116836   7.924   6.968   6.230 -1.3591 -0.4499  0.4675
 5631TIP3    H216837   7.831   7.051   6.144 -0.7902 -1.2036 -0.9006
 5632TIP3   OH216838   5.685   7.374   3.887 -0.0942  0.2175 -0.3114
 5632TIP3    H116839   5.592   7.394   3.899 -0.4473 -0.7107 -1.3481
 5632TIP3    H216840   5.700   7.296   3.941  0.3345  0.9378  0.6332
 5633TIP3   OH216841   7.338   6.649   6.356 -0.6451  0.8050  0.4117
 5633TIP3    H116842   7.339   6.604   6.272 -1.3876 -0.6444  1.1511
 5633TIP3    H216843   7.409   6.609   6.406 -1.0229  0.7665  0.9225
 5634TIP3   OH216844   8.029   1.366   3.332 -0.2758 -0.0416 -0.1571
 5634TIP3    H116845   8.090   1.299   3.301  0.7527  1.1576 -0.7758
 5634TIP3    H216846   7.952   1.317   3.360  1.5889 -1.7738  2.2229
 5635TIP3   OH216847   6.804   7.830   6.337  0.0232 -0.3288  0.5920
 5635TIP3    H116848   6.872   7.780   6.293  0.7376 -0.5533  1.9198
 5635TIP3    H216849   6.733   7.767   6.353 -0.5395 -0.0731 -0.8659
 5636TIP3   OH216850   0.573   0.223   6.014 -0.4788  0.3939  0.1678
 5636TIP3    H116851   0.639   0.285   6.046  0.1159 -0.0244 -0.2317
 5636TIP3    H216852   0.500   0.232   6.075 -0.9534  2.4630 -0.6502
 5637TIP3   OH216853   4.394   3.971   3.939 -0.2901  0.4030  0.4017
 5637TIP3    H116854   4.362   3.922   3.863 -1.0227  2.0128 -0.3651
 5637TIP3    H216855   4.371   4.062   3.919  0.7151  1.0049  1.9532
 5638TIP3   OH216856   3.045   2.928   3.061  0.1590 -0.5721  0.2375
 5638TIP3    H116857   2.956   2.916   3.026  0.4842 -1.3548 -0.3437
 5638TIP3    H216858   3.032   2.976   3.143 -0.9526 -2.0891  0.9813
 5639TIP3   OH216859   1.220   7.433   6.795  0.2720 -0.4037  0.2778
 5639TIP3    H116860   1.181   7.427   6.882  1.9467  0.8223  1.1462
 5639TIP3    H216861   1.155   7.480   6.742 -0.3766 -0.3885  1.0800
 5640TIP3   OH216862   7.922   1.003   6.203  0.1153 -0.2001 -0.2082
 5640TIP3    H116863   7.895   0.935   6.141  1.1445 -0.7772 -0.0418
 5640TIP3    H216864   8.016   0.989   6.214 -0.2561 -0.8613  2.3960
 5641TIP3   OH216865   2.745   0.195   6.449 -0.1118 -0.4340  0.0710
 5641TIP3    H116866   2.753   0.125   6.384  0.5103 -0.0086 -0.3156
 5641TIP3    H216867   2.707   0.153   6.525  0.1704 -1.1787 -0.1977
 5642TIP3   OH216868   3.351   1.654   4.025  0.1817 -0.0072  0.3391
 5642TIP3    H116869   3.417   1.655   4.094 -0.7681  3.6138  1.2595
 5642TIP3    H216870   3.401   1.638   3.945  1.7464 -0.5099  1.3916
 5643TIP3   OH216871   8.447   7.904   4.924 -0.3871 -0.0107 -0.3366
 5643TIP3    H116872   8.510   7.835   4.946 -0.8585 -0.9739 -1.9884
 5643TIP3    H216873   8.409   7.929   5.009  1.0670 -0.5109  0.4862
 5644TIP3   OH216874   7.366   7.868   4.274 -0.0621  0.0458 -0.3334
 5644TIP3    H116875   7.420   7.947   4.283  0.7079 -0.3722 -1.1864
 5644TIP3    H216876   7.359   7.854   4.179  1.0653 -1.7538 -0.1775
 5645TIP3   OH216877   1.093   1.588   4.608  0.0920 -0.3509  0.3290
 5645TIP3    H116878   1.035   1.624   4.675 -0.2635 -0.4095  0.0590
 5645TIP3    H216879   1.158   1.538   4.656 -0.2813 -0.5603  0.6165
 5646TIP3   OH216880   4.824   3.701   1.228 -0.2303  0.2359  0.0906
 5646TIP3    H116881   4.754   3.744   1.180 -0.7968  0.8980  1.4795
 5646TIP3    H216882   4.780   3.632   1.278  0.1003  0.6429  0.9552
 5647TIP3   OH216883   1.678   0.302   6.370 -0.3294  0.6836 -0.6884
 5647TIP3    H116884   1.588   0.324   6.345  0.4267  0.6844 -3.5894
 5647TIP3    H216885   1.705   0.375   6.426 -2.4767  0.1013  1.2145
 5648TIP3   OH216886   8.020   7.849   4.791  0.4501 -0.2473 -0.2613
 5648TIP3    H116887   8.025   7.815   4.702  1.8483 -2.2322  0.5348
 5648TIP3    H216888   8.111   7.852   4.821 -0.0191  0.1960  1.1721
 5649TIP3   OH216889   1.542   2.671   5.591  0.1681 -0.5520  0.3372
 5649TIP3    H116890   1.450   2.692   5.577  0.0102 -1.2594  0.2891
 5649TIP3    H216891   1.553   2.670   5.686  0.4577  0.9267  0.3261
 5650TIP3   OH216892   3.032   0.236   4.913 -0.5764  0.2184  0.2583
 5650TIP3    H116893   3.124   0.255   4.896 -0.6628 -0.2113 -0.7624
 5650TIP3    H216894   2.988   0.321   4.901 -0.1333  0.7349  2.2195
 5651TIP3   OH216895   4.919   2.468   0.177  0.0290  0.2216 -1.0940
 5651TIP3    H116896   4.900   2.560   0.195 -0.8821 -0.1828  0.0513
 5651TIP3    H216897   5.007   2.469   0.139  0.1961  1.5248 -0.7062
 5652TIP3   OH216898   8.211   7.424   6.143  0.1284  0.2547  0.1167
 5652TIP3    H116899   8.173   7.349   6.098 -0.8820  0.5435  0.4660
 5652TIP3    H216900   8.290   7.445   6.093  1.1110 -1.8126  0.7562
 5653TIP3   OH216901   8.439   4.861   4.421 -0.0904  0.0817  0.5133
 5653TIP3    H116902   8.476   4.939   4.462  4.2666 -1.9284  0.6350
 5653TIP3    H216903   8.453   4.873   4.327 -0.6598  0.0422  0.4197
 5654TIP3   OH216904   7.010   7.227   6.948  0.0924 -0.1903  0.1271
 5654TIP3    H116905   7.074   7.286   6.989 -0.4729 -0.6713  1.7523
 5654TIP3    H216906   7.001   7.259   6.859  0.6731  1.4643  0.6512
 5655TIP3   OH216907   2.796   0.061   5.369 -0.0504 -0.2956 -0.1109
 5655TIP3    H116908   2.869   0.121   5.353 -1.3041  0.6703 -2.2837
 5655TIP3    H216909   2.740   0.107   5.431  0.8083 -0.7502  1.0223
 5656TIP3   OH216910   6.792   7.788   5.325 -0.4247  0.5633 -0.4287
 5656TIP3    H116911   6.885   7.806   5.314 -0.5825  0.8277 -1.3678
 5656TIP3    H216912   6.748   7.853   5.270 -1.1863  0.9169  0.5933
 5657TIP3   OH216913   1.923   1.912   5.801  0.7455  0.5433  0.0864
 5657TIP3    H116914   1.971   1.994   5.808  2.1701 -0.0108 -2.4663
 5657TIP3    H216915   1.983   1.847   5.838 -0.0952  0.5479  1.4659
 5658TIP3   OH216916   2.639   1.075   6.158 -0.2314 -0.3162  0.2182
 5658TIP3    H116917   2.593   1.142   6.208  1.2392 -0.1253  1.3503
 5658TIP3    H216918   2.685   1.023   6.224  0.7590 -0.8155 -0.8466
 5659TIP3   OH216919   7.187   7.549   4.215  0.5789  0.2333  0.8080
 5659TIP3    H116920   7.110   7.494   4.202 -0.2644  1.3025  1.2023
 5659TIP3    H216921   7.261   7.491   4.199 -0.2983 -0.9834  1.1094
 5660TIP3   OH216922   0.993   1.403   6.352  0.4371 -0.2565 -0.0897
 5660TIP3    H116923   0.936   1.393   6.429  0.1870  1.4412 -0.0201
 5660TIP3    H216924   1.043   1.322   6.348  0.3739 -0.4201  1.8151
 5661TIP3   OH216925   4.338   4.688   1.055  0.5308 -0.0099 -0.1449
 5661TIP3    H116926   4.419   4.657   1.014  0.4398  0.9071 -1.0450
 5661TIP3    H216927   4.356   4.686   1.149  1.4345 -0.2408 -0.3156
 5662TIP3   OH216928   2.340   0.209   5.500  0.4268  0.3116  0.2362
 5662TIP3    H116929   2.327   0.151   5.425 -1.5768  1.1507 -0.1198
 5662TIP3    H216930   2.307   0.159   5.575  0.3343  0.3183  0.2005
 5663TIP3   OH216931   0.958   2.513   6.208  0.4811  0.3497 -0.1295
 5663TIP3    H116932   0.883   2.494   6.152 -0.3191 -0.1080  1.0781
 5663TIP3    H216933   1.021   2.443   6.189 -0.0255 -0.1323 -0.0457
 5664TIP3   OH216934   1.845   0.417   5.535  0.0760 -0.1176  0.7196
 5664TIP3    H116935   1.917   0.473   5.505 -1.4123  0.5071 -1.8189
 5664TIP3    H216936   1.876   0.382   5.619  2.3891  1.9165  0.7912
 5665TIP3   OH216937   8.061   7.080   5.652  0.2431 -0.7837 -0.2209
 5665TIP3    H116938   8.016   7.030   5.719  1.3309 -2.2311 -0.5621
 5665TIP3    H216939   8.154   7.065   5.668  0.5077 -2.0178 -2.6573
 5666TIP3   OH216940   1.354   2.930   4.964  0.2330 -0.0207 -0.0264
 5666TIP3    H116941   1.292   2.948   5.035 -1.3027 -3.6042 -0.3564
 5666TIP3    H216942   1.433   2.901   5.009 -0.4129 -1.3522  0.2760
 5667TIP3   OH216943   2.044   2.284   6.158  0.2398  0.3871 -0.2200
 5667TIP3    H116944   1.977   2.219   6.134  1.4628 -1.0919  0.2717
 5667TIP3    H216945   2.052   2.274   6.253  0.5872  1.1306 -0.1752
 5668TIP3   OH216946   8.049   7.522   6.331  0.1861  0.2470 -0.0974
 5668TIP3    H116947   7.980   7.532   6.265 -0.9072  0.4963  1.0631
 5668TIP3    H216948   8.122   7.482   6.283 -0.8769 -0.3295 -1.2692
 5669TIP3   OH216949   1.963   1.460   2.301 -0.1595  0.0371 -0.2122
 5669TIP3    H116950   2.011   1.425   2.225  1.8190 -1.4927  1.6827
 5669TIP3    H216951   1.900   1.391   2.322 -1.4783  0.9435 -1.1156
 5670TIP3   OH216952   3.109   1.878   5.342 -0.1302  0.4010  0.4005
 5670TIP3    H116953   3.113   1.881   5.246 -1.1545  1.6927  0.3833
 5670TIP3    H216954   3.093   1.968   5.368  0.9472  0.1846  1.8460
 5671TIP3   OH216955   7.528   7.976   5.459  0.9708  0.0581 -0.3497
 5671TIP3    H116956   7.513   7.889   5.496  0.2200  0.8326  1.1859
 5671TIP3    H216957   7.442   8.016   5.456  1.3816  0.9233 -0.6309
 5672TIP3   OH216958   8.512   7.508   6.408  0.1151 -0.5169  0.6682
 5672TIP3    H116959   8.430   7.556   6.423  0.0619 -0.5275  0.4021
 5672TIP3    H216960   8.545   7.541   6.325  1.1686  0.5773  1.5177
 5673TIP3   OH216961   3.071   0.091   3.875  0.4755 -0.2901 -0.0345
 5673TIP3    H116962   3.112   0.170   3.840 -0.9982  0.8446  0.7722
 5673TIP3    H216963   2.990   0.082   3.825 -0.4334 -0.0471  1.3815
 5674TIP3   OH216964   3.944   2.238   5.538  0.0252 -0.2727 -0.6767
 5674TIP3    H116965   3.934   2.328   5.507  3.5025 -0.0416 -1.3240
 5674TIP3    H216966   3.960   2.186   5.459  2.5686 -0.6825  0.0413
 5675TIP3   OH216967   2.607   0.403   5.698  0.8194  0.3252  0.3396
 5675TIP3    H116968   2.520   0.437   5.676  0.6329 -0.4491 -0.1207
 5675TIP3    H216969   2.605   0.395   5.794 -0.2433 -1.3538  0.1910
 5676TIP3   OH216970   7.683   7.489   6.893 -0.5229  0.2260  0.1144
 5676TIP3    H116971   7.685   7.394   6.881  0.3169  0.0283  1.7186
 5676TIP3    H216972   7.750   7.522   6.832 -0.2812 -0.2686  0.1063
 5677TIP3   OH216973   5.643   1.671   5.779 -0.3020 -0.2499  0.1357
 5677TIP3    H116974   5.620   1.579   5.782 -1.1663 -0.0245  0.4593
 5677TIP3    H216975   5.562   1.717   5.800  0.2253  0.5682  0.4095
 5678TIP3   OH216976   2.119   2.183   6.406  0.1141  0.0595 -0.2588
 5678TIP3    H116977   2.070   2.108   6.442 -0.4335  1.7521  2.7108
 5678TIP3    H216978   2.210   2.153   6.406 -0.4483 -1.7491 -2.1928
 5679TIP3   OH216979   2.228   1.649   4.784 -0.0747  0.5610  0.0066
 5679TIP3    H116980   2.236   1.556   4.804  2.3324  0.5139 -1.0194
 5679TIP3    H216981   2.213   1.651   4.689 -0.6866  1.1983  0.1172
 5680TIP3   OH216982   2.124   7.263   5.647 -0.5199  0.1389 -0.3817
 5680TIP3    H116983   2.098   7.200   5.714 -0.5948  1.0454  0.4486
 5680TIP3    H216984   2.219   7.272   5.658 -0.6488  0.9028  0.1501
 5681TIP3   OH216985   4.306   1.249   4.377  0.3046  0.2021 -0.0765
 5681TIP3    H116986   4.332   1.216   4.291 -1.1641 -0.9358 -0.0965
 5681TIP3    H216987   4.252   1.326   4.358  1.0894  0.7506 -0.1201
 5682TIP3   OH216988   3.212   0.231   6.973 -0.6711 -0.1068 -0.4019
 5682TIP3    H116989   3.232   0.313   6.927 -3.3822  1.0911  0.4309
 5682TIP3    H216990   3.207   0.165   6.904 -0.1478  0.7658 -1.2812
 5683TIP3   OH216991   2.130   1.297   6.633  0.0636 -0.3680 -0.1925
 5683TIP3    H116992   2.165   1.334   6.714 -0.1148  1.2850 -0.8442
 5683TIP3    H216993   2.206   1.261   6.588  0.5748  0.9838 -0.4416
 5684TIP3   OH216994   5.057   3.701   0.210 -0.5045  0.3744 -0.2068
 5684TIP3    H116995   5.058   3.781   0.157 -0.0815 -1.0330 -2.3633
 5684TIP3    H216996   4.969   3.667   0.201 -0.3625  0.0013 -0.1924
 5685TIP3   OH216997   2.806   0.268   4.508  0.3144  0.4925 -0.5216
 5685TIP3    H116998   2.863   0.277   4.585 -0.0530  0.8934 -0.2940
 5685TIP3    H216999   2.845   0.197   4.458  1.1196  0.8774 -0.4516
 5686TIP3   OH217000   2.817   0.833   6.761 -0.0482 -0.6776 -0.0328
 5686TIP3    H117001   2.793   0.854   6.851 -0.3048  0.6562 -0.4079
 5686TIP3    H217002   2.858   0.913   6.728 -1.5670 -0.5537 -1.6655
 5687TIP3   OH217003   5.748   3.871   0.680  0.0122 -0.0748  0.2684
 5687TIP3    H117004   5.726   3.910   0.596 -1.2807  0.0781  0.6644
 5687TIP3    H217005   5.844   3.874   0.684  0.0648  0.2761 -1.0113
 5688TIP3   OH217006   5.948   2.513   5.174  0.0666  0.2847  0.9761
 5688TIP3    H117007   5.910   2.452   5.238 -0.4852 -1.1910 -0.7251
 5688TIP3    H217008   6.009   2.459   5.123  0.9510  1.5899  0.6514
 5689TIP3   OH217009   3.618   1.725   5.259 -0.8179 -0.6477 -0.2534
 5689TIP3    H117010   3.573   1.757   5.180 -1.0598  0.5066  0.3437
 5689TIP3    H217011   3.614   1.798   5.320 -0.8721 -1.6413  0.9402
 5690TIP3   OH217012   3.141   0.904   5.192  0.1602  0.5403  0.0479
 5690TIP3    H117013   3.160   0.987   5.149  0.5682  0.1234 -0.5965
 5690TIP3    H217014   3.223   0.880   5.235 -0.4228  1.2451  1.5623
 5691TIP3   OH217015   3.038   0.144   6.517 -0.6417 -0.1406 -0.1808
 5691TIP3    H117016   3.082   0.165   6.435  0.6137 -0.7099  0.3426
 5691TIP3    H217017   2.945   0.157   6.498 -0.2032  1.8084 -1.0582
 5692TIP3   OH217018   3.590   0.857   6.680 -0.0753  0.3687  0.4553
 5692TIP3    H117019   3.664   0.851   6.740  1.2301  1.3083 -1.0230
 5692TIP3    H217020   3.605   0.937   6.630 -1.3246 -0.1932 -0.8801
 5693TIP3   OH217021   4.804   0.688   4.421 -0.0261  0.1456 -0.2567
 5693TIP3    H117022   4.874   0.745   4.390 -1.5478  0.9656 -2.2883
 5693TIP3    H217023   4.725   0.720   4.377 -1.2676 -2.2501  0.1353
 5694TIP3   OH217024   5.240   4.631   0.479 -0.1040  0.2275  0.3547
 5694TIP3    H117025   5.329   4.632   0.443 -0.1007  2.2507  0.3713
 5694TIP3    H217026   5.208   4.542   0.461  1.4287 -0.1063 -0.8431
 5695TIP3   OH217027   7.159   7.312   5.692  0.5755  0.1884 -0.4565
 5695TIP3    H117028   7.084   7.352   5.736  0.7943 -0.4112  0.4728
 5695TIP3    H217029   7.197   7.253   5.757  1.7033  0.2875 -0.9985
 5696TIP3   OH217030   5.015   4.642   0.688  0.4119 -0.0003  0.3966
 5696TIP3    H117031   5.104   4.675   0.676  0.6953 -0.9653 -0.2216
 5696TIP3    H217032   5.025   4.547   0.686 -0.9966 -0.1525 -2.7102
 5697TIP3   OH217033   3.882   2.086   6.112 -0.1805 -0.3434  0.2760
 5697TIP3    H117034   3.872   1.997   6.143 -2.3075  0.2922  1.4770
 5697TIP3    H217035   3.892   2.077   6.017 -1.5558 -1.7751  0.2546
 5698TIP3   OH217036   2.685   1.651   6.830  0.5168 -0.0401 -0.0602
 5698TIP3    H117037   2.657   1.743   6.831  0.5086 -0.0525  1.2437
 5698TIP3    H217038   2.774   1.653   6.866 -0.4833 -0.8636  2.5348
 5699TIP3   OH217039   2.983   0.830   6.013 -0.2026  0.2394  0.4640
 5699TIP3    H117040   3.069   0.796   5.987 -0.3439 -0.0911  0.4301
 5699TIP3    H217041   2.980   0.816   6.108 -0.1854  0.3270  0.4778
 5700TIP3   OH217042   2.685   0.816   4.556 -0.7111 -0.2787  0.2894
 5700TIP3    H117043   2.606   0.870   4.559 -0.3190  0.2597  1.3700
 5700TIP3    H217044   2.663   0.744   4.497 -1.4062  0.8124 -0.8108
 5701TIP3   OH217045   7.855   7.701   3.948  0.1638 -0.2885 -0.2267
 5701TIP3    H117046   7.847   7.672   3.857 -0.8644  0.4593 -0.3815
 5701TIP3    H217047   7.776   7.754   3.964  0.6489  0.1201  0.9000
 5702TIP3   OH217048   3.839   1.314   6.680 -0.2040 -0.2270 -0.0255
 5702TIP3    H117049   3.901   1.364   6.733  0.2467 -0.3909 -0.3913
 5702TIP3    H217050   3.891   1.241   6.646 -0.4839 -0.1133 -0.6972
 5703TIP3   OH217051   3.019   2.133   5.397  0.3900 -0.6467 -0.3859
 5703TIP3    H117052   3.029   2.228   5.393 -0.4638 -0.5149  0.4181
 5703TIP3    H217053   2.926   2.119   5.417  0.6311 -1.6317  0.0964
 5704TIP3   OH217054   3.306   1.865   4.231 -0.1771 -0.4253 -0.2665
 5704TIP3    H117055   3.328   1.933   4.168  0.2197  0.5039  0.8769
 5704TIP3    H217056   3.316   1.783   4.182  1.1271  0.2289 -1.1148
 5705TIP3   OH217057   2.031   0.263   6.773  0.1947  0.2187 -0.2891
 5705TIP3    H117058   2.105   0.204   6.755 -1.4525 -2.5433  1.5449
 5705TIP3    H217059   2.030   0.324   6.699  1.2458 -2.8530 -2.9539
 5706TIP3   OH217060   3.340   1.794   5.546  0.0147 -0.0599 -0.3449
 5706TIP3    H117061   3.403   1.860   5.517 -1.2451  1.2283 -0.1866
 5706TIP3    H217062   3.282   1.781   5.471 -0.3501 -0.2579 -0.0326
 5707TIP3   OH217063   2.381   7.120   5.228 -0.0186  0.0797 -0.9563
 5707TIP3    H117064   2.307   7.090   5.281 -0.1565 -0.0477 -1.2182
 5707TIP3    H217065   2.344   7.133   5.141 -0.2146  2.1324 -0.5905
 5708TIP3   OH217066   3.697   1.098   5.006  0.4265  0.0172 -0.0955
 5708TIP3    H117067   3.648   1.019   4.979  1.5954 -1.1638  1.1559
 5708TIP3    H217068   3.789   1.075   4.993  0.6998  2.0735 -1.9969
 5709TIP3   OH217069   3.289   0.617   3.207 -0.0136 -0.3301  0.8601
 5709TIP3    H117070   3.202   0.648   3.184  0.5439 -0.1511 -1.1349
 5709TIP3    H217071   3.311   0.553   3.139 -0.3010 -3.6519  3.7264
 5710TIP3   OH217072   4.265   0.608   5.040 -0.5435 -0.1054  0.1476
 5710TIP3    H117073   4.218   0.563   5.111 -1.0506  1.5214  0.8775
 5710TIP3    H217074   4.239   0.561   4.961  0.5179 -2.3388  1.0780
 5711TIP3   OH217075   2.844   1.588   4.514  0.0559  0.0106 -1.4273
 5711TIP3    H117076   2.906   1.568   4.584 -3.1224 -0.6681  1.2769
 5711TIP3    H217077   2.855   1.516   4.451  0.9893 -0.8516 -0.2919
 5712TIP3   OH217078   6.323   3.618   2.178 -0.2795  0.1020  0.4817
 5712TIP3    H117079   6.342   3.627   2.085  0.6945 -1.6796  0.4949
 5712TIP3    H217080   6.272   3.696   2.200 -1.1031  0.1777 -1.6786
 5713TIP3   OH217081   1.240   1.569   4.927 -0.4673  0.1500 -0.0990
 5713TIP3    H117082   1.254   1.489   4.875 -4.1921  0.2490 -1.3764
 5713TIP3    H217083   1.265   1.640   4.868  1.2347  0.0394  0.4573
 5714TIP3   OH217084   2.951   0.191   5.174  0.5490  0.5725  0.1488
 5714TIP3    H117085   2.927   0.284   5.180  0.9872  0.7322 -0.4796
 5714TIP3    H217086   2.975   0.179   5.082 -0.6848 -0.4627 -0.0457
 5715TIP3   OH217087   1.272   1.701   4.307 -0.4672  0.0496  0.2170
 5715TIP3    H117088   1.190   1.683   4.353 -1.2911  2.4396 -0.2571
 5715TIP3    H217089   1.339   1.655   4.359 -1.9354 -0.9089  1.2963
 5716TIP3   OH217090   7.044   7.099   5.301  1.1469 -0.3053 -0.2543
 5716TIP3    H117091   7.026   7.094   5.395 -2.5286 -0.8747 -0.9146
 5716TIP3    H217092   7.089   7.017   5.281  0.4504 -0.9431  0.7240
 5717TIP3   OH217093   2.005   0.959   5.794 -0.4472  0.3305 -0.1678
 5717TIP3    H117094   1.985   1.050   5.772  1.3962  0.7408 -0.2778
 5717TIP3    H217095   1.961   0.943   5.877 -0.1238  1.5755  0.2413
 5718TIP3   OH217096   6.690   3.712   1.587 -0.4004  0.2519  0.3807
 5718TIP3    H117097   6.634   3.645   1.549 -0.4290  0.9077 -0.7702
 5718TIP3    H217098   6.700   3.777   1.517  2.2747 -0.1347  0.3300
 5719TIP3   OH217099   4.968   1.404   4.541  0.2332  0.2045 -0.0167
 5719TIP3    H117100   4.935   1.418   4.630  0.8578  0.5707  0.1563
 5719TIP3    H217101   5.061   1.384   4.553 -0.1930 -2.2184 -0.3770
 5720TIP3   OH217102   3.186   1.934   2.255  0.6066 -0.2271  0.2192
 5720TIP3    H117103   3.121   1.991   2.215 -0.3974 -1.0502  0.6493
 5720TIP3    H217104   3.270   1.963   2.219  0.2986  2.5128  1.5484
 5721TIP3   OH217105   7.273   7.679   4.461  0.5491 -0.3193  0.6263
 5721TIP3    H117106   7.211   7.656   4.392  0.5361  0.8380  0.2526
 5721TIP3    H217107   7.310   7.763   4.434 -0.0882  0.5805  2.4496
 5722TIP3   OH217108   3.314   2.534   5.865  0.2489 -0.0231 -0.2716
 5722TIP3    H117109   3.231   2.535   5.914  0.6770  0.5183  0.4503
 5722TIP3    H217110   3.294   2.485   5.785 -0.9304  0.6247 -0.3838
 5723TIP3   OH217111   8.028   7.292   5.948  0.1635  0.3076 -0.1237
 5723TIP3    H117112   7.953   7.349   5.957 -0.7797 -0.7432 -1.1512
 5723TIP3    H217113   7.993   7.211   5.911  1.5990 -0.6309  0.4954
 5724TIP3   OH217114   1.703   0.870   3.693  0.0693  0.7255 -0.3391
 5724TIP3    H117115   1.638   0.853   3.625 -0.2857  1.5024 -0.1894
 5724TIP3    H217116   1.766   0.798   3.684 -0.5168  0.2716 -0.8303
 5725TIP3   OH217117   1.138   0.810   3.278 -0.1619 -0.1504  0.1277
 5725TIP3    H117118   1.089   0.808   3.195 -0.3587  2.4625  0.1251
 5725TIP3    H217119   1.072   0.790   3.344 -0.1932 -1.3932 -0.2690
 5726TIP3   OH217120   5.299   1.306   6.617  0.3404  0.2796 -0.4619
 5726TIP3    H117121   5.330   1.264   6.536  0.4759 -1.2013  0.3351
 5726TIP3    H217122   5.359   1.273   6.685 -0.7386  0.2825  0.4991
 5727TIP3   OH217123   3.436   0.983   6.467  0.0274 -0.1570  0.4722
 5727TIP3    H117124   3.414   1.057   6.524 -0.7285  1.6867 -2.1180
 5727TIP3    H217125   3.364   0.921   6.479  0.4107 -0.2972  2.2826
 5728TIP3   OH217126   3.134   2.001   5.066 -0.0377 -0.6881  0.0804
 5728TIP3    H117127   3.208   1.972   5.013 -0.0836  0.2397 -0.5011
 5728TIP3    H217128   3.057   1.975   5.015 -0.1113 -1.3796  0.5394
 5729TIP3   OH217129   4.441   1.810   6.329  0.1057 -0.1137 -0.0756
 5729TIP3    H117130   4.444   1.723   6.368  0.0833 -0.2349 -0.3493
 5729TIP3    H217131   4.361   1.850   6.364  0.4575  0.0398  0.5704
 5730TIP3   OH217132   3.609   0.898   5.443 -0.7143  0.2609  0.1128
 5730TIP3    H117133   3.521   0.884   5.407 -0.3537 -1.1007 -0.2745
 5730TIP3    H217134   3.600   0.975   5.500 -2.4274 -0.6200  1.0568
 5731TIP3   OH217135   3.462   2.880   5.643 -0.1710 -0.0020 -0.3851
 5731TIP3    H117136   3.452   2.967   5.606  1.1897  0.6974  0.8454
 5731TIP3    H217137   3.432   2.821   5.574  0.6082  1.3499 -1.9204
 5732TIP3   OH217138   1.159   7.188   4.730  0.3630 -0.3461 -0.6473
 5732TIP3    H117139   1.214   7.114   4.754  0.5114 -0.6979 -2.0023
 5732TIP3    H217140   1.123   7.219   4.812  1.6068 -0.8894  0.1213
 5733TIP3   OH217141   7.248   3.319   0.178 -0.1062 -0.2091 -0.6300
 5733TIP3    H117142   7.242   3.402   0.131  1.2960 -0.2203 -0.8653
 5733TIP3    H217143   7.321   3.273   0.136 -1.5199 -2.0170 -1.1926
 5734TIP3   OH217144   3.171   1.502   2.545 -0.2041 -0.7628 -0.3832
 5734TIP3    H117145   3.202   1.545   2.466  0.5483 -2.1605 -0.8564
 5734TIP3    H217146   3.180   1.569   2.613  3.2002 -0.8822 -0.6458
 5735TIP3   OH217147   7.714   7.208   4.240  0.5671 -0.3043 -0.2799
 5735TIP3    H117148   7.666   7.125   4.246  1.2764 -0.6190  1.2257
 5735TIP3    H217149   7.803   7.183   4.215  0.1531  0.2295 -2.4117
 5736TIP3   OH217150   2.133   0.507   6.002  1.0202 -0.1691  0.2822
 5736TIP3    H117151   2.150   0.594   6.039 -0.6652 -0.0424  0.7950
 5736TIP3    H217152   2.185   0.447   6.055  0.6984  0.3150  1.1461
 5737TIP3   OH217153   2.347   0.445   5.625 -0.2525 -0.2370  0.1036
 5737TIP3    H117154   2.279   0.435   5.691 -0.5276 -2.2093 -0.4433
 5737TIP3    H217155   2.333   0.372   5.564  0.9907  0.6063 -1.2307
 5738TIP3   OH217156   3.937   0.547   2.324  0.2361 -0.0944 -0.3373
 5738TIP3    H117157   3.935   0.631   2.371  1.9759 -0.1020 -0.2150
 5738TIP3    H217158   3.853   0.544   2.278  0.5541  2.1998 -1.1562
 5739TIP3   OH217159   7.662   7.740   5.940 -0.2288  0.4209  0.3119
 5739TIP3    H117160   7.620   7.684   6.005  0.6688  0.5823  1.0344
 5739TIP3    H217161   7.590   7.794   5.905 -1.6402 -2.9531 -2.3249
 5740TIP3   OH217162   4.147   2.729   4.902  0.6227 -0.5520 -0.0568
 5740TIP3    H117163   4.219   2.789   4.885  0.7000 -0.7676 -0.4938
 5740TIP3    H217164   4.141   2.675   4.823 -0.7420  0.2025 -0.4850
 5741TIP3   OH217165   4.592   0.796   4.287  0.4366 -0.3910  0.4312
 5741TIP3    H117166   4.519   0.765   4.340  0.5061 -1.7837 -0.2590
 5741TIP3    H217167   4.566   0.776   4.197  1.1527  0.1918  0.0887
 5742TIP3   OH217168   0.803   6.652   5.860 -0.1893  0.0657 -0.1174
 5742TIP3    H117169   0.837   6.565   5.882  0.9322  0.4851 -0.2009
 5742TIP3    H217170   0.870   6.713   5.889 -1.7589  1.0304  1.5828
 5743TIP3   OH217171   2.876   0.271   4.042 -0.1029 -0.1763 -0.1483
 5743TIP3    H117172   2.845   0.358   4.070  0.5732 -0.1670  0.5934
 5743TIP3    H217173   2.949   0.289   3.984  0.6819 -0.2589  0.7982
 5744TIP3   OH217174   1.833   6.581   4.220 -0.3968 -0.3645 -0.0484
 5744TIP3    H117175   1.887   6.512   4.182  0.0306 -1.4647  2.4010
 5744TIP3    H217176   1.743   6.557   4.199 -0.2916 -2.0737  1.3722
 5745TIP3   OH217177   4.457   0.997   5.516  0.1301 -0.1056 -0.0626
 5745TIP3    H117178   4.432   0.939   5.445  0.3252 -0.6371  0.3049
 5745TIP3    H217179   4.548   1.020   5.498 -0.2516  0.8973 -0.7598
 5746TIP3   OH217180   8.293   7.645   6.728 -0.1452  0.4712 -0.0554
 5746TIP3    H117181   8.382   7.639   6.763 -0.1434  3.7264  0.6832
 5746TIP3    H217182   8.305   7.675   6.638 -0.4636  0.5890 -0.0595
 5747TIP3   OH217183   7.441   5.665   0.575 -0.6897 -0.0238 -0.5663
 5747TIP3    H117184   7.423   5.733   0.511 -0.3687 -0.2469 -0.8932
 5747TIP3    H217185   7.529   5.634   0.554 -1.0385 -0.9110 -0.7584
 5748TIP3   OH217186   0.847   7.273   2.560  0.1584  0.1467  0.2978
 5748TIP3    H117187   0.807   7.188   2.546 -0.0529  0.1417  0.9092
 5748TIP3    H217188   0.777   7.336   2.541  0.0394  0.1561  0.7688
 5749TIP3   OH217189   2.462   7.948   6.138 -0.5102 -0.1379  0.2416
 5749TIP3    H117190   2.472   8.002   6.217  0.1920  2.1152 -1.3526
 5749TIP3    H217191   2.547   7.907   6.126 -0.1023  0.8360 -0.2643
 5750TIP3   OH217192   2.596   1.901   3.816  0.4492  0.4211 -0.3083
 5750TIP3    H117193   2.612   1.991   3.842  0.5922 -0.0067  1.0962
 5750TIP3    H217194   2.638   1.848   3.883  0.8820 -0.7000 -1.4418
 5751TIP3   OH217195   4.717   0.180   5.762  0.4775  0.3022 -0.0443
 5751TIP3    H117196   4.790   0.234   5.793  1.1090  0.1442 -1.1963
 5751TIP3    H217197   4.702   0.210   5.672 -1.4430  0.9005  0.4548
 5752TIP3   OH217198   5.536   3.862   0.348 -0.5675  0.3900 -0.0606
 5752TIP3    H117199   5.456   3.915   0.347 -1.5234 -1.0072  0.2566
 5752TIP3    H217200   5.542   3.831   0.439  0.9939  1.4437  0.2119
 5753TIP3   OH217201   0.913   1.386   4.637  0.3248 -0.5497 -0.0237
 5753TIP3    H117202   0.849   1.414   4.571 -0.5797 -1.5984  0.3722
 5753TIP3    H217203   0.986   1.446   4.627  0.2381 -0.7260 -2.0377
 5754TIP3   OH217204   0.982   1.505   3.979  0.0129  0.0276 -0.4061
 5754TIP3    H117205   0.913   1.439   3.980 -0.4215  0.4725 -0.8355
 5754TIP3    H217206   1.063   1.455   3.990 -0.4777 -0.3631  1.4750
 5755TIP3   OH217207   0.318   7.359   2.328  0.5900 -0.2622 -0.0485
 5755TIP3    H117208   0.368   7.328   2.252  0.3997  1.9641 -1.1154
 5755TIP3    H217209   0.226   7.350   2.301  0.4051 -2.7518  1.2697
 5756TIP3   OH217210   7.991   5.009   0.003 -0.1088 -0.5014  0.0610
 5756TIP3    H117211   8.083   5.034  -0.003  0.2093 -0.5916  3.6277
 5756TIP3    H217212   7.944   5.091   0.017 -0.0711 -0.8449  2.4231
 5757TIP3   OH217213   2.805   0.571   5.691 -0.0520 -0.0781 -0.2396
 5757TIP3    H117214   2.722   0.524   5.694 -0.8859  1.4285  1.4668
 5757TIP3    H217215   2.788   0.647   5.635 -0.0235  0.5333  0.5604
 5758TIP3   OH217216   2.541   3.944   6.906  0.0795  0.3712 -0.2029
 5758TIP3    H117217   2.454   3.970   6.876 -0.3404  1.7878  2.1174
 5758TIP3    H217218   2.524   3.883   6.978  0.9498  1.7389  1.2020
 5759TIP3   OH217219   2.742   2.109   4.984 -0.4619 -0.7783  0.4308
 5759TIP3    H117220   2.805   2.181   4.988 -2.0612  0.7275 -0.4536
 5759TIP3    H217221   2.796   2.030   4.980  1.3879  0.5106 -1.3581
 5760TIP3   OH217222   7.211   4.575   0.156  0.0759  0.1834  0.1234
 5760TIP3    H117223   7.120   4.580   0.128 -0.2106 -1.1019  0.8005
 5760TIP3    H217224   7.208   4.576   0.251  0.8072  0.5560  0.1529
 5761TIP3   OH217225   0.906   6.774   4.065 -0.3090  0.2957 -0.0531
 5761TIP3    H117226   0.993   6.753   4.097  0.5147  0.9789 -1.7625
 5761TIP3    H217227   0.868   6.689   4.042  0.5298  0.1232 -0.8309
 5762TIP3   OH217228   6.985   7.689   6.174  0.4986 -0.5582  0.9829
 5762TIP3    H117229   7.000   7.735   6.092 -2.0030  0.2039  0.9458
 5762TIP3    H217230   7.071   7.688   6.216  1.4423  0.5388 -0.8534
 5763TIP3   OH217231   4.703   1.023   5.269  0.0262 -0.5162 -0.1835
 5763TIP3    H117232   4.779   0.996   5.218  0.8615 -0.0911  0.8058
 5763TIP3    H217233   4.740   1.068   5.345 -1.1567 -1.8426  1.2119
 5764TIP3   OH217234   0.893   1.944   4.195  0.1234 -0.6903  0.0076
 5764TIP3    H117235   0.958   1.910   4.258 -0.2033  0.4262  0.9616
 5764TIP3    H217236   0.935   1.934   4.110  1.6731  0.2877  0.6395
 5765TIP3   OH217237   5.789   5.231   1.323  0.4990  0.0960  0.3824
 5765TIP3    H117238   5.774   5.138   1.334 -0.6554  0.1405 -0.7563
 5765TIP3    H217239   5.823   5.260   1.408  1.1678 -1.4039  0.6356
 5766TIP3   OH217240   2.214   3.047   6.858 -0.0503  0.3260 -0.0259
 5766TIP3    H117241   2.225   3.073   6.949  2.2655  1.5604 -0.6293
 5766TIP3    H217242   2.119   3.054   6.842 -0.7459 -1.8307  2.7994
 5767TIP3   OH217243   1.852   7.356   3.949  0.0370 -0.1188  0.1406
 5767TIP3    H117244   1.776   7.323   3.902  0.8010 -0.0771 -1.1630
 5767TIP3    H217245   1.816   7.416   4.014 -1.1036 -0.8700  0.2145
 5768TIP3   OH217246   3.972   1.307   4.411  0.6649  0.2939  0.2056
 5768TIP3    H117247   3.949   1.241   4.345 -0.7418  0.5313  0.4271
 5768TIP3    H217248   4.030   1.368   4.366 -1.0944  1.0327 -1.1511
 5769TIP3   OH217249   4.480   0.356   5.290 -0.4427 -0.5708 -0.0807
 5769TIP3    H117250   4.481   0.317   5.203  3.2051  0.2930 -0.5355
 5769TIP3    H217251   4.478   0.282   5.350 -0.5202 -1.2493 -0.9090
 5770TIP3   OH217252   4.481   1.631   6.702 -0.4143 -0.2988  0.1636
 5770TIP3    H117253   4.389   1.653   6.716 -0.4109 -0.4673  0.4510
 5770TIP3    H217254   4.516   1.704   6.651 -1.0394 -0.8588 -1.0944
 5771TIP3   OH217255   6.752   4.941   5.925 -0.0837 -0.5925  0.4210
 5771TIP3    H117256   6.831   4.900   5.963 -0.6969  0.4511  2.9565
 5771TIP3    H217257   6.784   5.021   5.884  0.2941 -0.5812  0.7305
 5772TIP3   OH217258   5.768   4.257   0.096  0.1001 -0.2479  0.1442
 5772TIP3    H117259   5.837   4.192   0.087  2.3712  2.0524  0.1288
 5772TIP3    H217260   5.766   4.302   0.012 -0.7201  0.3919  0.4913
 5773TIP3   OH217261   0.408   7.570   2.985  0.2739  0.2107  0.3218
 5773TIP3    H117262   0.460   7.542   3.061  1.1100  0.3457 -0.1844
 5773TIP3    H217263   0.321   7.534   3.000  1.2424 -2.4733 -0.1701
 5774TIP3   OH217264   8.308   7.975   5.148  0.2074  0.4179  0.0461
 5774TIP3    H117265   8.277   8.059   5.115  1.7172  1.1599  0.4624
 5774TIP3    H217266   8.355   7.997   5.228 -0.4445 -0.9707  0.8330
 5775TIP3   OH217267   6.000   4.001   0.265  0.5209  0.4007 -0.2155
 5775TIP3    H117268   5.960   3.935   0.209 -2.0805  1.8294 -0.1239
 5775TIP3    H217269   6.063   4.046   0.209 -1.7699  1.5612 -1.9060
 5776TIP3   OH217270   0.021   6.623   5.797  0.5929 -0.6721  0.8283
 5776TIP3    H117271   0.014   6.528   5.788 -0.7743 -0.6287  1.3143
 5776TIP3    H217272   0.047   6.637   5.888  1.9534 -0.6063  0.4511
 5777TIP3   OH217273   2.144   2.462   5.273  0.8674 -0.5185  0.4905
 5777TIP3    H117274   2.205   2.468   5.199 -1.1313  1.2621 -1.0693
 5777TIP3    H217275   2.182   2.395   5.329  1.9271 -2.6449 -2.6335
 5778TIP3   OH217276   0.104   7.511   4.575  0.6031 -0.4748 -0.1642
 5778TIP3    H117277   0.111   7.598   4.536  0.5229 -0.2135  0.4003
 5778TIP3    H217278   0.195   7.480   4.580  0.5419 -0.9072 -1.4303
 5779TIP3   OH217279   3.319   7.646   6.537 -0.3671  0.1582  0.4404
 5779TIP3    H117280   3.326   7.670   6.630 -1.9366  0.9433  0.3650
 5779TIP3    H217281   3.330   7.550   6.537 -0.8379  0.0964  1.4896
 5780TIP3   OH217282   0.012   7.009   3.239  0.2490 -0.2783 -0.0909
 5780TIP3    H117283   0.075   6.941   3.217  0.3230 -0.0258 -0.6755
 5780TIP3    H217284  -0.039   7.021   3.158  1.2720  1.4657 -0.4945
 5781TIP3   OH217285   3.842   1.747   6.679 -0.2071 -0.0652  0.2973
 5781TIP3    H117286   3.767   1.692   6.657  0.5827 -0.9577 -0.1681
 5781TIP3    H217287   3.918   1.696   6.654  0.5297  1.6811 -1.1565
 5782TIP3   OH217288   3.460   2.077   6.391 -0.0217 -0.2127  0.2032
 5782TIP3    H117289   3.523   2.010   6.367 -0.3476 -0.3823 -0.1802
 5782TIP3    H217290   3.512   2.157   6.402  0.2865 -0.4031  0.1009
 5783TIP3   OH217291   6.651   4.599   0.170 -0.3720 -0.3597  0.1597
 5783TIP3    H117292   6.699   4.662   0.224 -1.4317  0.1966  0.4722
 5783TIP3    H217293   6.641   4.643   0.085 -1.6226  0.1360  0.5615
 5784TIP3   OH217294   3.361   2.476   6.293  0.1895 -0.6778  0.2491
 5784TIP3    H117295   3.417   2.464   6.370  0.4063 -2.8599 -0.2027
 5784TIP3    H217296   3.369   2.569   6.272 -0.8695  0.2453  3.5956
 5785TIP3   OH217297   5.568   4.217   0.307  0.2856  0.1851 -0.0508
 5785TIP3    H117298   5.602   4.218   0.218  0.3992 -2.5398 -0.0921
 5785TIP3    H217299   5.644   4.197   0.362  0.0890  1.1904  0.6040
 5786TIP3   OH217300   3.809   4.758   1.109  0.2211  0.0436  0.2811
 5786TIP3    H117301   3.745   4.770   1.179  0.3823 -0.0638  0.4485
 5786TIP3    H217302   3.865   4.836   1.114 -0.3871  0.5218 -0.3849
 5787TIP3   OH217303   6.763   7.577   6.616  0.1058 -0.5182  1.0600
 5787TIP3    H117304   6.684   7.624   6.643  0.9777  1.0474  0.9843
 5787TIP3    H217305   6.754   7.566   6.521  0.5372  0.7702  0.8600
 5788TIP3   OH217306   7.744   2.269   3.755  0.6101  0.1930  0.4950
 5788TIP3    H117307   7.704   2.226   3.679  0.7255  0.9131  0.0245
 5788TIP3    H217308   7.805   2.204   3.789  0.8722  0.0180 -0.2849
 5789TIP3   OH217309   2.639   2.932   3.317 -0.9274  0.0205 -0.5533
 5789TIP3    H117310   2.658   2.990   3.244  0.2248 -0.1004 -0.3622
 5789TIP3    H217311   2.543   2.926   3.319 -1.0392  1.6111 -0.7941
 5790TIP3   OH217312   1.481   1.156   6.832 -0.5622 -0.4697  0.0294
 5790TIP3    H117313   1.502   1.135   6.741 -0.9027 -0.4467 -0.0561
 5790TIP3    H217314   1.524   1.240   6.848 -0.7726 -0.3129 -0.2150
 5791TIP3   OH217315   3.040   2.656   5.659 -0.5266  0.2957 -0.6773
 5791TIP3    H117316   2.966   2.634   5.716  0.4881 -0.0479  0.5439
 5791TIP3    H217317   3.077   2.735   5.700  1.0373 -0.7443 -0.0629
 5792TIP3   OH217318   2.538   2.141   4.788 -0.0498 -0.6654 -0.2462
 5792TIP3    H117319   2.490   2.058   4.793  0.4312 -1.0420 -1.8308
 5792TIP3    H217320   2.606   2.133   4.854 -1.3203 -0.6606  1.1078
 5793TIP3   OH217321   7.649   7.770   4.667  0.3800  0.4101 -0.0298
 5793TIP3    H117322   7.703   7.802   4.738  0.2235  0.8587 -0.1134
 5793TIP3    H217323   7.572   7.827   4.667 -1.0737 -1.4614  1.3978
 5794TIP3   OH217324   0.418   7.165   5.448 -0.1985 -0.2512  0.0412
 5794TIP3    H117325   0.482   7.129   5.510 -0.7911  1.0331  1.4298
 5794TIP3    H217326   0.471   7.204   5.379  0.5028  0.2428  0.8517
 5795TIP3   OH217327   3.259   1.425   5.290 -0.1167 -0.4399  0.2307
 5795TIP3    H117328   3.177   1.395   5.252 -0.6647 -0.9666  1.7544
 5795TIP3    H217329   3.305   1.469   5.219 -1.4626 -0.6536 -0.7838
 5796TIP3   OH217330   2.564   6.910   6.225 -0.0630  0.2129  0.2841
 5796TIP3    H117331   2.650   6.908   6.182  0.3695  3.1889  0.9528
 5796TIP3    H217332   2.506   6.865   6.163  1.8906 -1.6786 -0.2544
 5797TIP3   OH217333   3.754   2.397   6.698  0.2907  0.2290 -0.0793
 5797TIP3    H117334   3.802   2.462   6.647  2.0177 -0.1290  1.0308
 5797TIP3    H217335   3.812   2.377   6.772 -0.3338 -2.3238 -0.2166
 5798TIP3   OH217336   0.346   7.792   5.836 -0.0826  0.1172 -0.4960
 5798TIP3    H117337   0.373   7.750   5.918  0.7115  0.2477 -0.6789
 5798TIP3    H217338   0.257   7.762   5.822 -0.6579  1.0607  1.0379
 5799TIP3   OH217339   2.775   2.681   6.266 -0.2658 -0.4961  0.1293
 5799TIP3    H117340   2.740   2.623   6.198 -1.1208 -0.0491  0.1859
 5799TIP3    H217341   2.829   2.744   6.219  0.7565 -1.4018  0.0775
 5800TIP3   OH217342   3.746   1.732   5.005  0.3036 -0.2458 -0.1032
 5800TIP3    H117343   3.754   1.674   5.081  1.0072  1.6506  1.3076
 5800TIP3    H217344   3.796   1.810   5.030 -2.1572  1.7182 -1.2055
 5801TIP3   OH217345   7.950   7.576   4.688  0.1121 -0.1764  0.4020
 5801TIP3    H117346   8.018   7.528   4.641 -0.1893  0.2762 -0.5041
 5801TIP3    H217347   7.984   7.582   4.777  0.1699 -2.0240  0.5295
 5802TIP3   OH217348   7.339   3.775   0.592 -0.4573 -0.1768  0.4642
 5802TIP3    H117349   7.349   3.833   0.668  1.7251  0.5089 -0.3078
 5802TIP3    H217350   7.295   3.698   0.626 -3.0721  1.7434  1.6127
 5803TIP3   OH217351   3.059   7.712   5.973  0.4937  0.4843 -0.4495
 5803TIP3    H117352   3.037   7.681   6.061 -0.8707  0.0768 -0.9328
 5803TIP3    H217353   3.130   7.775   5.988 -0.9717  1.8112  1.1180
 5804TIP3   OH217354   0.248   7.836   5.459  0.2768  0.1785 -0.2787
 5804TIP3    H117355   0.248   7.931   5.462  0.3034  0.2310 -1.9618
 5804TIP3    H217356   0.335   7.812   5.429  0.2602 -0.3866  0.0992
 5805TIP3   OH217357   4.697   1.391   6.198  0.4261  0.3213  0.3525
 5805TIP3    H117358   4.705   1.299   6.224  0.1690  0.0010 -0.6421
 5805TIP3    H217359   4.785   1.426   6.206  0.8489 -0.4485 -0.7971
 5806TIP3   OH217360   3.882   1.486   5.677 -0.1908  0.0710  0.0092
 5806TIP3    H117361   3.941   1.422   5.638  1.0038  0.5429  1.0096
 5806TIP3    H217362   3.817   1.504   5.609  0.5393 -0.8096 -0.9271
 5807TIP3   OH217363   3.039   0.634   5.531  0.0797 -0.0231 -0.4306
 5807TIP3    H117364   2.996   0.611   5.613  1.0507 -1.4236 -0.2891
 5807TIP3    H217365   3.017   0.726   5.517  0.3615  0.3884  1.6785
 5808TIP3   OH217366   2.367   2.043   6.717 -0.2146  0.3472 -0.2001
 5808TIP3    H117367   2.462   2.046   6.716 -0.1617 -0.3978  1.5659
 5808TIP3    H217368   2.339   2.131   6.691  0.9614  1.0001  0.7381
 5809TIP3   OH217369   5.122   2.411   5.236  0.3110  0.3858  0.3980
 5809TIP3    H117370   5.180   2.365   5.176 -2.4066  0.5695 -2.5224
 5809TIP3    H217371   5.106   2.348   5.307  3.2145 -0.0059  0.7596
 5810TIP3   OH217372   5.538   5.272   0.823  0.3284  0.3775 -0.0866
 5810TIP3    H117373   5.519   5.252   0.914 -2.7427  1.0503 -0.5258
 5810TIP3    H217374   5.620   5.320   0.825 -0.2745  1.3362  2.4356
 5811TIP3   OH217375   2.508   3.257   5.626  0.7073 -0.0262  0.0636
 5811TIP3    H117376   2.496   3.331   5.684  0.2339 -0.9391  1.1424
 5811TIP3    H217377   2.593   3.220   5.650  0.7933 -0.0367 -0.2468
 5812TIP3   OH217378   3.926   3.128   6.327  0.1122  0.0370  0.6024
 5812TIP3    H117379   3.979   3.207   6.335  0.9717 -0.5211  0.5530
 5812TIP3    H217380   3.910   3.100   6.417  0.3273 -0.0634  0.6115
 5813TIP3   OH217381   1.976   1.225   5.796  0.0298  0.6475  0.1435
 5813TIP3    H117382   2.041   1.291   5.822  0.0311 -0.0680  2.0470
 5813TIP3    H217383   1.892   1.260   5.826 -0.1804  0.5930 -0.3893
 5814TIP3   OH217384   2.282   0.275   4.946 -0.1601 -0.2245  0.2398
 5814TIP3    H117385   2.259   0.348   4.888  0.0377 -2.4010 -2.7211
 5814TIP3    H217386   2.208   0.214   4.940  1.2464 -1.9451 -0.2589
 5815TIP3   OH217387   2.870   1.269   5.430 -1.0613 -0.3540 -0.5818
 5815TIP3    H117388   2.790   1.221   5.409 -1.6956 -0.0163  0.9916
 5815TIP3    H217389   2.858   1.298   5.521  0.5767  0.2365 -0.5301
 5816TIP3   OH217390   1.059   7.172   3.502 -0.3621  0.0379  0.0977
 5816TIP3    H117391   1.068   7.151   3.409 -3.1368 -0.6708 -0.0295
 5816TIP3    H217392   1.117   7.110   3.546  1.1466  0.5255 -1.1333
 5817TIP3   OH217393   6.129   1.557   6.864 -0.4398  0.1978 -0.3035
 5817TIP3    H117394   6.142   1.562   6.770  0.4512 -0.7242 -0.2379
 5817TIP3    H217395   6.096   1.469   6.880  0.4343 -0.0247  0.3505
 5818TIP3   OH217396   3.621   1.878   5.470 -0.0061  0.3440 -0.3319
 5818TIP3    H117397   3.677   1.802   5.486  0.2474  1.3100  3.7638
 5818TIP3    H217398   3.636   1.935   5.545 -0.2118  4.4946 -3.2995
 5819TIP3   OH217399   5.292   0.344   6.200 -0.4952 -0.3056 -0.0971
 5819TIP3    H117400   5.300   0.309   6.111  1.5289  0.1330 -0.1067
 5819TIP3    H217401   5.198   0.356   6.212 -0.7607  0.2783 -2.4290
 5820TIP3   OH217402   6.894   7.422   4.223  0.3667 -0.0287  0.4197
 5820TIP3    H117403   6.877   7.355   4.289  0.1459  0.3600  0.7622
 5820TIP3    H217404   6.842   7.497   4.252  0.4205  0.2075 -0.0945
 5821TIP3   OH217405   2.862   1.589   3.408  0.0333 -0.1222  0.5124
 5821TIP3    H117406   2.905   1.542   3.337  0.4923  2.1560 -0.7865
 5821TIP3    H217407   2.771   1.559   3.405  0.5844 -1.8323  0.5401
 5822TIP3   OH217408   7.429   7.368   4.253  0.4492 -0.3001 -0.0476
 5822TIP3    H117409   7.468   7.443   4.297 -0.1689 -0.4282  0.7267
 5822TIP3    H217410   7.495   7.300   4.257  0.0472 -0.6051  1.5035
 5823TIP3   OH217411   2.763   0.444   2.517  0.0380  0.3798  0.0481
 5823TIP3    H117412   2.670   0.422   2.512 -0.3636  1.3841  2.6001
 5823TIP3    H217413   2.805   0.364   2.548 -0.0976  0.2531 -0.0923
 5824TIP3   OH217414   5.056   0.809   5.758 -0.1332 -0.3158  0.7220
 5824TIP3    H117415   5.100   0.811   5.673 -0.1594 -1.8918  0.6630
 5824TIP3    H217416   5.020   0.898   5.768  1.5512  0.4673 -0.0035
 5825TIP3   OH217417   5.334   0.958   4.117  0.5913 -0.1788 -0.0824
 5825TIP3    H117418   5.262   1.021   4.108  1.5342  0.7463 -1.5582
 5825TIP3    H217419   5.303   0.880   4.071  0.8506  0.5314 -1.5152
 5826TIP3   OH217420   3.573   3.540   5.057 -0.2920 -0.2354  0.0767
 5826TIP3    H117421   3.607   3.611   5.111 -1.1228 -0.3150  0.7119
 5826TIP3    H217422   3.531   3.481   5.119  1.7161 -2.0772 -0.2438
 5827TIP3   OH217423   4.346   0.940   3.952  0.2962  0.5348  0.5899
 5827TIP3    H117424   4.289   0.974   3.883  1.6090  0.9342 -0.3059
 5827TIP3    H217425   4.426   0.991   3.945  0.1703  1.1051  2.9273
 5828TIP3   OH217426   7.280   1.166   6.063  0.3342  0.1320 -0.6625
 5828TIP3    H117427   7.263   1.119   5.981 -0.2534  0.3930 -0.6863
 5828TIP3    H217428   7.219   1.129   6.126 -0.8982  1.6196 -0.9540
 5829TIP3   OH217429   5.316   2.101   5.808  0.2018 -0.2724  0.2371
 5829TIP3    H117430   5.333   2.006   5.811  2.2980  0.0950  0.6116
 5829TIP3    H217431   5.390   2.140   5.854 -1.1428  1.5093  0.9436
 5830TIP3   OH217432   5.043   0.802   3.478 -0.1875  0.2088 -0.1854
 5830TIP3    H117433   5.064   0.772   3.566 -1.4008  1.1466  0.4461
 5830TIP3    H217434   5.116   0.772   3.424  0.4883 -0.5154  1.1056
 5831TIP3   OH217435   4.387   2.633   5.814  0.4354  0.0308 -0.1767
 5831TIP3    H117436   4.456   2.610   5.752  1.8269 -0.1963  1.4177
 5831TIP3    H217437   4.320   2.566   5.800 -1.2886  2.4180 -4.4213
 5832TIP3   OH217438   7.011   0.959   4.337  0.1234  0.2229 -0.0389
 5832TIP3    H117439   7.064   0.886   4.305  0.0244 -1.0188  2.4886
 5832TIP3    H217440   7.016   1.024   4.267  0.3964 -2.0950 -2.2616
 5833TIP3   OH217441   6.042   2.127   4.979  0.0694  0.0478 -0.2585
 5833TIP3    H117442   6.023   2.085   5.063  0.7664  1.2260  0.5085
 5833TIP3    H217443   6.138   2.129   4.974  0.0382 -1.3789 -1.7954
 5834TIP3   OH217444   0.899   7.904   6.061 -0.5332 -0.1649  0.3868
 5834TIP3    H117445   0.937   7.980   6.017 -0.3011 -0.5277 -0.0487
 5834TIP3    H217446   0.941   7.829   6.019 -0.8112 -0.5357  0.7656
 5835TIP3   OH217447   7.177   0.958   5.933  0.4683 -0.6773 -0.1461
 5835TIP3    H117448   7.208   0.924   5.850  0.0125  0.0131 -0.6094
 5835TIP3    H217449   7.187   0.885   5.995  0.8244 -1.1832 -0.7960
 5836TIP3   OH217450   3.523   0.656   5.154  0.1952 -0.2904  0.0628
 5836TIP3    H117451   3.447   0.675   5.210  0.6804 -1.8796  1.3094
 5836TIP3    H217452   3.518   0.562   5.138  2.2653 -0.5486  0.7560
 5837TIP3   OH217453   0.902   7.982   2.812 -0.1093  0.1188 -0.2450
 5837TIP3    H117454   0.826   7.954   2.864 -0.9207  0.6224 -1.1384
 5837TIP3    H217455   0.973   7.992   2.876 -1.0079  0.4464  0.7186
 5838TIP3   OH217456   6.963   1.256   6.232  0.2847 -0.5991 -0.5078
 5838TIP3    H117457   7.018   1.177   6.231 -1.0799 -1.5703  0.0043
 5838TIP3    H217458   6.945   1.270   6.325  0.6568  0.4140 -0.5895
 5839TIP3   OH217459   5.357   0.451   3.328  0.3108 -0.4268 -0.3202
 5839TIP3    H117460   5.421   0.488   3.390  0.1638 -0.0012 -0.4162
 5839TIP3    H217461   5.321   0.375   3.373 -1.7445  1.4058  1.2483
 5840TIP3   OH217462   3.230   5.749   5.630 -0.0244 -0.6603  0.4927
 5840TIP3    H117463   3.218   5.661   5.595 -2.1908 -0.8900  1.7085
 5840TIP3    H217464   3.320   5.773   5.606 -0.3954 -2.0324 -2.3782
 5841TIP3   OH217465   4.127   2.260   6.113 -0.1176  0.4601 -0.3597
 5841TIP3    H117466   4.195   2.238   6.177 -1.9278  0.7296  1.7148
 5841TIP3    H217467   4.074   2.327   6.156 -2.2677 -0.4269 -1.5343
 5842TIP3   OH217468   0.091   7.847   6.577  0.4237  0.2369  0.6622
 5842TIP3    H117469   0.150   7.837   6.502  0.5051  0.2095  0.7299
 5842TIP3    H217470   0.025   7.909   6.547  1.3204  1.4187  1.1013
 5843TIP3   OH217471   1.267   6.978   3.969  0.7115 -0.4135 -0.6289
 5843TIP3    H117472   1.349   6.952   4.013  0.0157 -1.6080 -0.0058
 5843TIP3    H217473   1.202   6.915   4.000 -0.6282  0.9735 -0.5571
 5844TIP3   OH217474   3.687   2.992   3.909  0.6560  0.2299 -0.2309
 5844TIP3    H117475   3.637   3.055   3.856 -1.2892 -0.3225  0.8950
 5844TIP3    H217476   3.742   3.047   3.965 -0.3781  0.9333  0.1205
 5845TIP3   OH217477   6.547   1.027   4.115 -0.4586 -1.0377  0.2008
 5845TIP3    H117478   6.558   0.938   4.082 -2.0617 -1.3845  0.5845
 5845TIP3    H217479   6.495   1.072   4.048  0.7255 -0.2453 -0.2117
 5846TIP3   OH217480   6.168   0.097   2.970 -0.9946 -0.2823 -0.1430
 5846TIP3    H117481   6.228   0.167   2.946  0.3860 -0.4727  2.6066
 5846TIP3    H217482   6.116   0.081   2.891 -0.7706  3.2499 -1.0597
 5847TIP3   OH217483   0.944   7.964   4.353 -0.2891 -0.3359  0.4970
 5847TIP3    H117484   1.031   7.939   4.383  0.1643 -0.4502 -0.8707
 5847TIP3    H217485   0.892   7.884   4.360 -0.6072  0.0172  2.4090
 5848TIP3   OH217486   4.686   1.992   4.906 -0.6281 -0.2060 -0.4560
 5848TIP3    H117487   4.615   1.946   4.861 -0.9105 -0.5835  0.3653
 5848TIP3    H217488   4.757   1.996   4.842 -0.9637 -0.9033 -0.8699
 5849TIP3   OH217489   7.934   7.008   5.874 -0.2355 -0.0702 -0.0699
 5849TIP3    H117490   7.856   6.958   5.851 -0.7095  0.6021  0.0497
 5849TIP3    H217491   7.928   7.019   5.969 -0.1400  0.2110 -0.0962
 5850TIP3   OH217492   2.518   7.930   2.418  0.2643  0.0200 -0.2767
 5850TIP3    H117493   2.530   7.970   2.332  0.3973 -3.2284 -1.8559
 5850TIP3    H217494   2.607   7.920   2.452  0.4497 -1.4607 -1.1381
 5851TIP3   OH217495   3.416   1.237   6.086 -0.0817 -0.3514  0.2934
 5851TIP3    H117496   3.480   1.290   6.132  0.1483  0.0020 -0.4273
 5851TIP3    H217497   3.415   1.154   6.134 -0.1712  0.1651  1.1950
 5852TIP3   OH217498   6.130   2.511   4.520 -0.3425  0.3611 -0.6284
 5852TIP3    H117499   6.206   2.566   4.501 -1.7141  2.1948 -0.9333
 5852TIP3    H217500   6.056   2.559   4.483 -1.9556 -0.2955  1.6541
 5853TIP3   OH217501   5.672   1.952   5.837 -0.5676 -0.2855  0.5564
 5853TIP3    H117502   5.662   1.959   5.932  2.4047  0.0829  0.8664
 5853TIP3    H217503   5.673   1.857   5.821  1.4207 -0.4052  1.2190
 5854TIP3   OH217504   3.553   1.322   6.329  0.3214 -0.4663  0.4880
 5854TIP3    H117505   3.646   1.323   6.351  0.4844 -0.9062 -0.1599
 5854TIP3    H217506   3.530   1.414   6.318  0.5976 -0.3376  1.0023
 5855TIP3   OH217507   0.136   7.468   2.708  0.4350 -0.0099  0.0177
 5855TIP3    H117508   0.121   7.436   2.796  0.9490  0.2442  0.2022
 5855TIP3    H217509   0.093   7.404   2.651 -0.1511 -0.0137  0.4599
 5856TIP3   OH217510   4.307   1.252   5.262 -0.0278 -0.0972 -0.1437
 5856TIP3    H117511   4.250   1.176   5.247 -0.1262 -0.8549  3.5579
 5856TIP3    H217512   4.261   1.304   5.328  1.3228  1.8077 -0.6758
 5857TIP3   OH217513   3.272   0.310   4.778  0.2640  0.2101 -0.3468
 5857TIP3    H117514   3.199   0.330   4.719 -1.2863  0.5971  1.6259
 5857TIP3    H217515   3.343   0.367   4.749 -0.8889  1.3276 -1.0397
 5858TIP3   OH217516   6.989   3.611   4.887 -0.2438  0.2942  0.3103
 5858TIP3    H117517   7.067   3.667   4.895  0.7075 -0.7050 -1.7126
 5858TIP3    H217518   6.915   3.671   4.896  0.7555  1.5311  0.4392
 5859TIP3   OH217519   2.755   7.871   3.194  0.1663  0.0783  0.5662
 5859TIP3    H117520   2.712   7.944   3.240  0.2779 -0.0502  0.8759
 5859TIP3    H217521   2.758   7.899   3.102  0.5584  0.6291  0.7442
 5860TIP3   OH217522   4.963   0.954   5.317  0.1638  0.0923 -0.5179
 5860TIP3    H117523   4.901   0.926   5.383 -0.1844 -0.4926 -1.0847
 5860TIP3    H217524   5.046   0.967   5.364 -0.0558 -0.4163  0.0031
 5861TIP3   OH217525   4.425   1.552   3.609  0.2023 -0.7382 -0.0440
 5861TIP3    H117526   4.415   1.457   3.618  1.3282 -1.0356 -1.5737
 5861TIP3    H217527   4.385   1.572   3.524 -0.4029  0.2304  0.4616
 5862TIP3   OH217528   5.461   3.386   5.007 -0.0285 -0.0004  0.1160
 5862TIP3    H117529   5.372   3.360   4.985  0.1106 -1.3167  1.0786
 5862TIP3    H217530   5.450   3.458   5.069 -0.4380 -0.9177  1.1216
 5863TIP3   OH217531   5.905   0.616   2.717  0.7467  0.6686  0.2749
 5863TIP3    H117532   5.863   0.698   2.744  0.0683  0.8900 -1.4114
 5863TIP3    H217533   5.992   0.642   2.688  0.1838  0.9678 -1.2213
 5864TIP3   OH217534   5.396   2.935   3.903 -0.0066 -0.1190 -0.3848
 5864TIP3    H117535   5.412   3.006   3.841  0.7578  1.1856  1.2767
 5864TIP3    H217536   5.461   2.868   3.880  1.0226  0.8303 -0.2763
 5865TIP3   OH217537   3.980   0.557   5.566 -0.0286  0.4292 -0.1500
 5865TIP3    H117538   3.946   0.494   5.503  0.5614  1.9885 -2.0834
 5865TIP3    H217539   3.911   0.564   5.632  0.9933 -4.2108  1.6119
 5866TIP3   OH217540   3.974   0.679   6.169 -0.0060 -0.0322 -0.2812
 5866TIP3    H117541   4.007   0.673   6.080 -0.0333  4.8600 -0.7409
 5866TIP3    H217542   3.879   0.680   6.160  0.0107  1.8700 -0.3445
 5867TIP3   OH217543   7.001   2.651   4.786  0.5415 -0.1132  0.3878
 5867TIP3    H117544   6.941   2.669   4.858 -0.9051  0.8882 -1.0212
 5867TIP3    H217545   6.945   2.649   4.708  2.1356 -0.6362 -0.7775
 5868TIP3   OH217546   4.195   2.021   5.352 -0.2555  0.0322  0.2081
 5868TIP3    H117547   4.288   2.002   5.344  0.0886  1.8616 -0.3031
 5868TIP3    H217548   4.191   2.109   5.390 -1.7737  0.2232 -0.3379
 5869TIP3   OH217549   4.202   2.208   4.052  0.3716  0.0476 -0.6115
 5869TIP3    H117550   4.293   2.211   4.021  0.2657 -0.1873 -0.9517
 5869TIP3    H217551   4.187   2.294   4.090  1.4853 -0.6985  1.5973
 5870TIP3   OH217552   2.462   2.543   2.606  0.0427  0.4808  0.3782
 5870TIP3    H117553   2.505   2.546   2.520  2.7316 -1.8585  1.6035
 5870TIP3    H217554   2.479   2.630   2.643  0.7009  0.7754 -0.5709
 5871TIP3   OH217555   5.308   2.152   5.221 -0.2635  0.1857 -0.6406
 5871TIP3    H117556   5.386   2.195   5.184 -1.2420  1.0504 -1.7454
 5871TIP3    H217557   5.312   2.171   5.314  1.5215 -0.8552 -0.4697
 5872TIP3   OH217558   3.073   1.410   3.725 -0.0724  0.5587  0.1886
 5872TIP3    H117559   3.075   1.468   3.801 -1.5619 -0.3501  0.9367
 5872TIP3    H217560   3.140   1.445   3.666  0.4224  1.8388  1.4984
 5873TIP3   OH217561   5.347   3.616   5.816  0.4656 -0.5335 -0.0566
 5873TIP3    H117562   5.400   3.550   5.771  0.3486  0.4593 -1.6909
 5873TIP3    H217563   5.398   3.640   5.894  1.1042 -1.6060 -0.1488
 5874TIP3   OH217564   3.828   2.618   6.558 -0.4458 -0.4065 -0.0656
 5874TIP3    H117565   3.754   2.679   6.556  0.5152  0.7760  0.0782
 5874TIP3    H217566   3.859   2.616   6.468 -1.4265 -1.8869 -0.3917
 5875TIP3   OH217567   0.620   7.920   5.720 -0.0366 -0.3216  0.5847
 5875TIP3    H117568   0.632   7.946   5.812 -2.6501 -0.6856  1.0859
 5875TIP3    H217569   0.539   7.869   5.721  0.2618 -0.8732 -1.8413
 5876TIP3   OH217570   3.849   7.812   4.088 -0.3333 -0.0550  0.4625
 5876TIP3    H117571   3.902   7.890   4.102 -0.7734  0.1301  1.1165
 5876TIP3    H217572   3.868   7.786   3.998  1.2685 -0.2961  0.8642
 5877TIP3   OH217573   2.596   2.183   4.527  0.0515  0.4773 -0.1078
 5877TIP3    H117574   2.658   2.110   4.533  0.1301  0.4452 -1.1927
 5877TIP3    H217575   2.542   2.175   4.605 -0.5104 -1.2769 -0.6524
 5878TIP3   OH217576   3.584   2.236   2.406  0.0341  0.0993 -0.1800
 5878TIP3    H117577   3.612   2.235   2.315  1.3359 -0.8567  0.2113
 5878TIP3    H217578   3.537   2.153   2.418 -0.4593  0.3889 -0.0744
 5879TIP3   OH217579   5.529   0.629   4.766 -0.5617 -0.0288  0.5961
 5879TIP3    H117580   5.489   0.699   4.714 -1.3383 -0.9933 -0.1070
 5879TIP3    H217581   5.607   0.670   4.804  0.3623  0.5115 -1.8236
 5880TIP3   OH217582   3.878   0.874   4.164  0.0093  0.1576  0.1792
 5880TIP3    H117583   3.869   0.812   4.092  0.1998  0.5261 -0.1609
 5880TIP3    H217584   3.955   0.843   4.213  1.0478  1.0231 -0.8856
 5881TIP3   OH217585   4.247   1.981   4.878 -0.1100 -0.3092  0.4664
 5881TIP3    H117586   4.331   1.973   4.832 -1.2192  0.2752 -1.7220
 5881TIP3    H217587   4.187   1.923   4.829 -1.7343  1.6098  0.1299
 5882TIP3   OH217588   4.118   2.180   6.746  0.1073 -0.1629  0.1697
 5882TIP3    H117589   4.174   2.258   6.742  2.1825 -1.5711  1.2111
 5882TIP3    H217590   4.178   2.106   6.741 -1.7020 -1.7182  0.7626
 5883TIP3   OH217591   2.575   0.651   4.278 -0.3489  0.1329  0.4285
 5883TIP3    H117592   2.600   0.604   4.198 -0.9701  0.2410  0.1640
 5883TIP3    H217593   2.503   0.600   4.315  0.7146 -0.5617  1.5638
 5884TIP3   OH217594   6.195   2.451   5.441 -0.5226 -0.2805  0.2772
 5884TIP3    H117595   6.232   2.525   5.394  0.3116 -0.2423  0.9841
 5884TIP3    H217596   6.184   2.383   5.374 -1.5028  0.5500 -0.4177
 5885TIP3   OH217597   3.069   1.603   3.924 -0.5493  0.1550  0.3696
 5885TIP3    H117598   3.158   1.627   3.952 -0.8168 -0.5028  1.8621
 5885TIP3    H217599   3.028   1.686   3.902  0.1237  0.5729  0.6394
 5886TIP3   OH217600   4.480   3.032   3.341 -0.4629 -0.2074  0.2585
 5886TIP3    H117601   4.453   3.120   3.316  1.1241  0.2842  0.2481
 5886TIP3    H217602   4.421   3.009   3.413 -1.6342  0.3966 -0.4818
 5887TIP3   OH217603   8.399   7.457   5.906  0.7100 -0.1620  0.0276
 5887TIP3    H117604   8.429   7.391   5.843  1.6721  0.8751 -0.6138
 5887TIP3    H217605   8.334   7.509   5.858 -0.1786 -0.7297  0.5888
 5888TIP3   OH217606   6.433   1.401   4.665  0.4517 -0.1254  0.5352
 5888TIP3    H117607   6.527   1.399   4.646  0.2435 -0.8967 -0.4845
 5888TIP3    H217608   6.395   1.338   4.603 -0.8616  0.9278  0.2475
 5889TIP3   OH217609   4.677   2.032   6.462 -0.0410  0.4930  0.0905
 5889TIP3    H117610   4.757   2.082   6.445 -0.0396  0.2024 -0.7887
 5889TIP3    H217611   4.681   1.960   6.399 -0.6704  0.1063  0.4954
 5890TIP3   OH217612   1.299   7.764   6.083 -0.1172 -0.2165 -0.3670
 5890TIP3    H117613   1.386   7.764   6.122 -0.0811  1.0669 -0.4577
 5890TIP3    H217614   1.312   7.726   5.996  0.4068  0.3048 -0.5155
 5891TIP3   OH217615   2.871   1.080   2.517  0.3759 -0.3859  0.2130
 5891TIP3    H117616   2.948   1.136   2.505 -0.1874  0.4737  0.5204
 5891TIP3    H217617   2.805   1.138   2.556 -0.9935 -0.6685 -1.6161
 5892TIP3   OH217618   5.434   1.650   5.278 -0.2366  0.4253  0.3459
 5892TIP3    H117619   5.396   1.672   5.363  0.0314  0.3198  0.4898
 5892TIP3    H217620   5.429   1.732   5.228 -1.6505  0.1422 -0.0019
 5893TIP3   OH217621   5.550   2.762   5.247 -0.2495 -0.0173 -0.3367
 5893TIP3    H117622   5.497   2.840   5.264 -0.3495 -0.3095  0.7021
 5893TIP3    H217623   5.547   2.712   5.328 -1.4003 -1.8258 -1.4370
 5894TIP3   OH217624   2.238   1.541   4.465 -0.0610 -0.3742  0.2440
 5894TIP3    H117625   2.228   1.497   4.380  1.0129 -1.4277  0.6661
 5894TIP3    H217626   2.332   1.556   4.473 -0.1789 -0.1487  1.1986
 5895TIP3   OH217627   4.889   2.059   5.511 -0.6031  0.0173 -0.4813
 5895TIP3    H117628   4.801   2.023   5.501 -0.6406 -0.5141  1.5071
 5895TIP3    H217629   4.947   1.989   5.482 -0.8061  0.2731 -1.5406
 5896TIP3   OH217630   6.164   1.101   4.867 -0.1169  0.3713 -0.0801
 5896TIP3    H117631   6.105   1.025   4.872  1.6366 -0.9600  1.0710
 5896TIP3    H217632   6.111   1.169   4.825 -1.7998 -1.4128 -0.9683
 5897TIP3   OH217633   2.060   0.762   3.986 -0.2341  0.6505  0.2124
 5897TIP3    H117634   2.129   0.708   3.946 -0.5253 -0.1695  0.7839
 5897TIP3    H217635   2.044   0.831   3.923 -0.4368 -0.4157 -0.9347
 5898TIP3   OH217636   5.262   1.808   5.484 -0.1212  0.4382 -0.1871
 5898TIP3    H117637   5.186   1.850   5.445  1.2834  0.4654 -3.0259
 5898TIP3    H217638   5.226   1.748   5.549 -2.6622 -0.6677 -2.5231
 5899TIP3   OH217639   4.871   1.039   5.716  0.2195 -0.0409 -0.1509
 5899TIP3    H117640   4.815   1.076   5.785 -0.2416 -0.9481 -0.0248
 5899TIP3    H217641   4.842   1.081   5.636 -1.1771 -1.0476 -0.2015
 5900TIP3   OH217642   3.903   1.754   5.718 -0.3201 -0.9872  0.3424
 5900TIP3    H117643   3.819   1.776   5.758 -0.3709  0.2596 -0.4128
 5900TIP3    H217644   3.894   1.663   5.690 -0.8284 -1.3860  1.7382
 5901TIP3   OH217645   4.845   2.073   5.138  0.1587  0.2045  0.4003
 5901TIP3    H117646   4.787   2.112   5.203 -0.5971  0.8296 -0.6385
 5901TIP3    H217647   4.786   2.041   5.069  0.9650 -0.1929 -0.1116
 5902TIP3   OH217648   4.388   1.114   5.762  0.6581 -0.2161 -0.0103
 5902TIP3    H117649   4.400   1.060   5.684 -2.4790  1.2109 -1.5597
 5902TIP3    H217650   4.424   1.200   5.738 -1.8778  0.7322 -0.5721
 5903TIP3   OH217651   6.143   0.463   2.643  0.1686 -0.2408 -0.1939
 5903TIP3    H117652   6.124   0.370   2.638  1.0755 -0.4119 -0.5805
 5903TIP3    H217653   6.123   0.497   2.555 -0.2762 -0.0491 -0.0189
 5904TIP3   OH217654   2.320   2.728   3.128 -0.1543  0.0219 -0.0028
 5904TIP3    H117655   2.411   2.699   3.138 -0.4700 -0.9211  0.1257
 5904TIP3    H217656   2.325   2.801   3.066  0.7970  0.5433  0.6677
 5905TIP3   OH217657   2.778   2.845   4.106  0.8269 -0.1331  0.2265
 5905TIP3    H117658   2.770   2.874   4.015  1.4093 -0.5628  0.0356
 5905TIP3    H217659   2.689   2.827   4.134  0.6706 -0.2272 -0.3361
 5906TIP3   OH217660   4.800   3.162   5.227  0.1939  0.1359 -0.4390
 5906TIP3    H117661   4.743   3.222   5.275 -0.7972 -1.0480 -0.0910
 5906TIP3    H217662   4.789   3.078   5.271  2.4825 -0.0593 -0.1677
 5907TIP3   OH217663   3.122   7.808   3.517 -0.4055 -0.0505  0.0024
 5907TIP3    H117664   3.214   7.812   3.543 -0.3062 -1.8108 -0.0492
 5907TIP3    H217665   3.107   7.889   3.469  0.4973  1.3440  2.0020
 5908TIP3   OH217666   6.687   0.777   3.968  0.1233 -0.0573  0.0808
 5908TIP3    H117667   6.670   0.688   4.001  1.7174 -0.3561  0.1460
 5908TIP3    H217668   6.782   0.786   3.973  0.1793  0.7674 -2.2238
 5909TIP3   OH217669   4.813   2.813   5.653 -0.1948 -0.1049  0.2322
 5909TIP3    H117670   4.898   2.773   5.636  0.5092  0.0663  3.0988
 5909TIP3    H217671   4.756   2.738   5.674 -0.2006 -0.0533  0.4031
 5910TIP3   OH217672   2.064   1.757   3.512  0.2940 -0.3596 -0.5873
 5910TIP3    H117673   2.064   1.661   3.508 -2.5171 -0.3941 -0.2723
 5910TIP3    H217674   2.152   1.779   3.543  0.1093 -2.9651  2.0054
 5911TIP3   OH217675   5.290   1.694   4.965 -0.8468 -0.2655 -0.3968
 5911TIP3    H117676   5.368   1.655   4.925 -0.5145  0.5179 -0.5249
 5911TIP3    H217677   5.216   1.648   4.924 -0.4858 -0.1944 -1.1363
 5912TIP3   OH217678   7.606   1.930   4.366  0.3930  0.0940  0.0325
 5912TIP3    H117679   7.598   1.835   4.379 -0.1613  0.1062 -0.2478
 5912TIP3    H217680   7.623   1.964   4.454  0.0623 -0.2053  0.2136
 5913TIP3   OH217681   1.562   7.914   4.568  0.4782  0.4333  0.3466
 5913TIP3    H117682   1.524   7.949   4.487  1.1545 -0.0964 -0.2155
 5913TIP3    H217683   1.649   7.954   4.573  0.9563 -0.5562  0.1023
 5914TIP3   OH217684   5.695   0.909   3.679 -0.1975 -0.5621 -0.0434
 5914TIP3    H117685   5.721   0.839   3.739 -1.6228 -1.4102 -0.3733
 5914TIP3    H217686   5.622   0.952   3.724  1.8261  1.8893  0.9625
 5915TIP3   OH217687   4.982   3.969   3.401 -0.2817  0.3982 -0.0800
 5915TIP3    H117688   4.951   3.934   3.318 -0.7964  0.8736 -0.0840
 5915TIP3    H217689   4.928   4.045   3.418 -0.1485  0.3345  0.6708
 5916TIP3   OH217690   2.065   0.555   5.442  0.0039  0.1481 -0.2269
 5916TIP3    H117691   2.101   0.626   5.495 -0.6491 -0.2853  0.8121
 5916TIP3    H217692   2.133   0.536   5.378  0.1823  1.7142 -0.5226
 5917TIP3   OH217693   7.061   0.762   4.956  0.3281 -0.1838  0.1123
 5917TIP3    H117694   6.991   0.742   5.018  1.8101 -0.7676  1.6353
 5917TIP3    H217695   7.104   0.678   4.941 -0.0980 -0.0898 -1.8622
 5918TIP3   OH217696   4.798   2.667   5.231  0.6062  0.2281 -0.0831
 5918TIP3    H117697   4.749   2.604   5.178  1.3374 -0.4055 -0.0015
 5918TIP3    H217698   4.869   2.696   5.174  1.0404 -0.0010  0.3467
 5919TIP3   OH217699   2.946   0.584   3.467 -0.1466  0.1073 -0.4039
 5919TIP3    H117700   2.887   0.565   3.394 -0.1568 -1.3684 -0.0176
 5919TIP3    H217701   3.033   0.573   3.430  0.0338  4.1343 -1.5057
 5920TIP3   OH217702   2.454   1.260   4.419  0.4986  0.8136 -0.4782
 5920TIP3    H117703   2.502   1.299   4.346  0.0762  1.2411 -0.5273
 5920TIP3    H217704   2.362   1.276   4.398  0.3004 -0.6303 -0.7469
 5921TIP3   OH217705   6.982   2.191   5.835  0.0663  0.0529  0.1955
 5921TIP3    H117706   7.070   2.230   5.834  0.6518 -1.2248  0.3788
 5921TIP3    H217707   6.956   2.188   5.743 -0.3431  1.6181  0.2393
 5922TIP3   OH217708   4.491   0.864   5.281 -0.7090  0.7406  0.3244
 5922TIP3    H117709   4.552   0.931   5.252 -0.5886  0.5669  0.1772
 5922TIP3    H217710   4.543   0.784   5.285 -0.6875  0.7912  1.1717
 5923TIP3   OH217711   2.846   0.439   3.680 -0.4523  0.0114 -0.0092
 5923TIP3    H117712   2.889   0.487   3.608  0.5599  0.5250  0.9189
 5923TIP3    H217713   2.754   0.464   3.673 -0.4682 -0.4018 -1.4823
 5924TIP3   OH217714   2.439   1.182   3.531  0.6981  0.0628 -0.0549
 5924TIP3    H117715   2.387   1.254   3.566 -0.0559 -1.5494  2.2557
 5924TIP3    H217716   2.420   1.181   3.437  0.7459  2.8588 -0.1318
 5925TIP3   OH217717   2.407   7.969   3.852  0.2123 -0.6661 -0.2973
 5925TIP3    H117718   2.492   7.965   3.896  0.6017  0.4402 -0.9255
 5925TIP3    H217719   2.373   7.880   3.857  1.0180 -0.9215  0.7353
 5926TIP3   OH217720   8.342   7.382   4.357 -0.1520 -0.1037  0.1726
 5926TIP3    H117721   8.258   7.427   4.361 -0.5890 -0.8732 -0.3114
 5926TIP3    H217722   8.364   7.363   4.448 -0.6217 -0.1331  0.2792
 5927TIP3   OH217723   4.516   3.443   5.270  0.0902  0.5240 -0.1020
 5927TIP3    H117724   4.422   3.460   5.261 -0.1642 -0.5152  0.4943
 5927TIP3    H217725   4.521   3.355   5.308  1.3014  0.6413  0.0339
 5928TIP3   OH217726   3.734   0.643   3.978  0.0069  0.3865  0.0021
 5928TIP3    H117727   3.671   0.682   3.918  1.0834  2.4548  0.1634
 5928TIP3    H217728   3.693   0.652   4.064  0.2485  1.1877  0.0394
 5929TIP3   OH217729   2.952   0.705   4.557 -0.4080  0.8853  0.0126
 5929TIP3    H117730   3.027   0.758   4.584  0.0164 -1.1102  3.0293
 5929TIP3    H217731   2.882   0.730   4.616 -0.3149 -1.5732  1.2088
 5930TIP3   OH217732   5.597   0.638   6.670 -1.0436  0.5864 -0.0089
 5930TIP3    H117733   5.608   0.701   6.599 -0.5943  0.9556  0.3829
 5930TIP3    H217734   5.542   0.569   6.633  1.4711 -0.6346 -1.6247
 5931TIP3   OH217735   4.520   0.178   3.698 -0.3585 -0.8021  0.2942
 5931TIP3    H117736   4.544   0.099   3.745  2.1042 -0.2259  0.0535
 5931TIP3    H217737   4.539   0.250   3.759  2.2542 -0.0945 -1.2955
 5932TIP3   OH217738   5.023   0.366   6.183  0.3612 -0.5972 -0.2387
 5932TIP3    H117739   5.006   0.274   6.205  0.6061 -0.5314  0.2353
 5932TIP3    H217740   4.976   0.380   6.101  1.2426 -1.4600 -0.9070
 5933TIP3   OH217741   1.663   7.929   2.931 -0.4416  0.4528  0.7274
 5933TIP3    H117742   1.650   8.019   2.960  0.8601  1.1333 -0.7225
 5933TIP3    H217743   1.674   7.935   2.837  1.2824 -1.0165  0.7922
 5934TIP3   OH217744   0.479   7.951   3.461 -0.4263  0.0950  0.4333
 5934TIP3    H117745   0.387   7.930   3.476 -0.8810  0.6855 -1.3856
 5934TIP3    H217746   0.527   7.889   3.516 -1.8713 -1.6096 -0.1590
 5935TIP3   OH217747   2.066   7.715   3.457 -0.7101 -0.4369 -0.0145
 5935TIP3    H117748   2.111   7.688   3.377  0.0261 -0.4987  0.4192
 5935TIP3    H217749   2.125   7.690   3.528 -0.7602  0.8089  0.4851
 5936TIP3   OH217750   5.093   2.053   4.570  0.1271  0.4394  0.0401
 5936TIP3    H117751   5.099   1.983   4.635 -1.2428 -0.3727 -0.6648
 5936TIP3    H217752   5.035   2.118   4.609  1.3657  1.1827  0.6771
 5937TIP3   OH217753   3.737   0.718   5.680 -0.1265 -0.0859 -0.1414
 5937TIP3    H117754   3.752   0.761   5.596  0.5704 -0.0917 -0.0238
 5937TIP3    H217755   3.705   0.788   5.738  1.2974  0.3559  0.1357
 5938TIP3   OH217756   4.759   1.140   4.636 -0.3056  0.7582  0.6507
 5938TIP3    H117757   4.830   1.087   4.598 -0.8962  0.3910  0.0527
 5938TIP3    H217758   4.805   1.205   4.689  0.4550  0.0386  0.8992
 5939TIP3   OH217759   4.292   1.296   6.216 -0.2641  0.2634 -0.2481
 5939TIP3    H117760   4.279   1.221   6.158 -1.6544 -0.0205  0.4107
 5939TIP3    H217761   4.370   1.340   6.182  1.2466 -2.1157  0.0336
 5940TIP3   OH217762   4.216   2.430   5.709 -0.0186  0.4214  0.4155
 5940TIP3    H117763   4.123   2.446   5.720 -0.5172 -0.9616 -1.5614
 5940TIP3    H217764   4.234   2.352   5.760  0.2014  1.0610  1.3256
 5941TIP3   OH217765   5.292   0.292   5.893 -0.0302  0.2370  0.2954
 5941TIP3    H117766   5.374   0.243   5.900  0.4985  0.9550 -0.7627
 5941TIP3    H217767   5.292   0.327   5.804 -1.3428  0.5020  0.3861
 5942TIP3   OH217768   1.833   6.945   3.995  0.4158  0.0033 -0.0518
 5942TIP3    H117769   1.927   6.960   4.008  0.3188 -1.7551  2.8968
 5942TIP3    H217770   1.829   6.873   3.932  1.0349  0.2514 -0.3795
 5943TIP3   OH217771   3.442   0.270   5.761  0.0368 -0.6977 -0.4780
 5943TIP3    H117772   3.422   0.346   5.706 -1.7109 -0.8373 -0.0611
 5943TIP3    H217773   3.385   0.201   5.728 -1.3467 -0.6747  1.7505
 5944TIP3   OH217774   6.752   2.474   4.187 -0.0839  0.4698  0.7276
 5944TIP3    H117775   6.715   2.386   4.195 -0.0151  0.5374  1.8586
 5944TIP3    H217776   6.815   2.480   4.258 -0.5777  1.6724  1.0756
 5945TIP3   OH217777   3.474   1.242   4.566 -0.0755  0.0780 -0.2773
 5945TIP3    H117778   3.531   1.318   4.576  2.0663 -1.3071 -1.7616
 5945TIP3    H217779   3.419   1.243   4.645  1.0237  2.2207  0.4984
 5946TIP3   OH217780   5.642   1.752   4.099 -0.1730  0.2015 -0.3470
 5946TIP3    H117781   5.727   1.737   4.141 -0.2610  1.0717  0.1575
 5946TIP3    H217782   5.622   1.844   4.117 -1.3523 -0.0659 -0.2393
 5947TIP3   OH217783   6.083   0.504   5.783  0.1126  0.1856 -0.0632
 5947TIP3    H117784   6.175   0.520   5.760  0.4355  0.1042  1.1476
 5947TIP3    H217785   6.071   0.411   5.768  0.1652  0.2366 -0.4334
 5948TIP3   OH217786   8.277   0.641   5.473  0.2141  0.6598 -0.1782
 5948TIP3    H117787   8.215   0.687   5.529 -1.1970 -0.9375 -0.3699
 5948TIP3    H217788   8.336   0.708   5.442 -1.9928  2.3960 -0.7467
 5949TIP3   OH217789   7.803   4.038   0.163 -0.2400 -0.4466 -0.5991
 5949TIP3    H117790   7.814   4.132   0.151  1.6298 -0.4913  0.4845
 5949TIP3    H217791   7.743   4.030   0.237  0.4413 -0.0948 -0.0051
 5950TIP3   OH217792   1.310   5.456   5.769  0.1173 -0.2237  0.0401
 5950TIP3    H117793   1.383   5.491   5.820  0.4519 -0.8612 -0.0002
 5950TIP3    H217794   1.349   5.431   5.685 -0.5292  1.2911 -0.7276
 5951TIP3   OH217795   2.885   2.181   3.013 -0.5134  0.4137  0.0982
 5951TIP3    H117796   2.899   2.116   3.082 -0.4567  0.2207 -0.0943
 5951TIP3    H217797   2.805   2.152   2.970 -1.4682  1.4665  1.1431
 5952TIP3   OH217798   0.994   7.580   2.608  0.3119  0.0790 -0.0035
 5952TIP3    H117799   0.901   7.577   2.629  0.1656 -0.4550 -0.7500
 5952TIP3    H217800   1.006   7.518   2.537  0.7798  2.0217 -1.6753
 5953TIP3   OH217801   8.024   7.712   3.330 -0.6790 -1.2800 -0.0461
 5953TIP3    H117802   8.013   7.684   3.421  1.2975 -1.9485  0.0029
 5953TIP3    H217803   8.104   7.765   3.331  0.3903 -2.8050 -1.7204
 5954TIP3   OH217804   3.444   1.836   5.056 -0.3282 -0.2089  0.2128
 5954TIP3    H117805   3.490   1.915   5.085 -1.7453  0.3729  0.9261
 5954TIP3    H217806   3.447   1.842   4.960  1.3605 -0.3699  0.2277
 5955TIP3   OH217807   2.193   7.975   6.583 -0.2398  0.1411 -0.1439
 5955TIP3    H117808   2.146   7.986   6.666 -0.5780  1.6123 -0.5304
 5955TIP3    H217809   2.155   7.896   6.545 -0.6039 -0.1265  0.7466
 5956TIP3   OH217810   5.013   1.637   4.094  0.5520 -0.0955 -0.3258
 5956TIP3    H117811   5.003   1.708   4.030  1.0224 -1.6361 -2.1488
 5956TIP3    H217812   5.088   1.664   4.148  1.5591  0.2113 -1.8438
 5957TIP3   OH217813   7.428   0.296   5.148 -0.3590 -0.4232  0.2900
 5957TIP3    H117814   7.513   0.296   5.105 -0.8226 -1.9595 -0.6515
 5957TIP3    H217815   7.365   0.282   5.078 -1.3192 -0.3479  1.1220
 5958TIP3   OH217816   7.931   2.098   4.610  0.4286 -0.3137 -0.2089
 5958TIP3    H117817   7.934   2.139   4.523  2.6574 -1.0097 -0.4735
 5958TIP3    H217818   7.894   2.166   4.667  0.6606  0.7798 -1.3449
 5959TIP3   OH217819   6.416   7.549   4.495  0.3311 -0.5997  0.2789
 5959TIP3    H117820   6.504   7.568   4.526 -0.1195  0.9224  0.6960
 5959TIP3    H217821   6.422   7.559   4.400  0.4681  0.1102  0.3600
 5960TIP3   OH217822   3.078   5.943   4.884  0.2169 -0.1157  0.4651
 5960TIP3    H117823   3.074   5.961   4.978 -1.1063 -0.2966  0.4571
 5960TIP3    H217824   3.011   6.001   4.846 -1.0741 -1.9293 -0.0631
 5961TIP3   OH217825   6.325   2.222   4.970 -0.1593 -0.5239 -0.4980
 5961TIP3    H117826   6.401   2.216   4.913  0.8498 -0.5208  0.8278
 5961TIP3    H217827   6.337   2.151   5.033  0.8784  2.0056  2.2404
 5962TIP3   OH217828   3.550   7.833   4.035  0.7900 -0.0570 -0.2069
 5962TIP3    H117829   3.532   7.894   3.963  2.6028  1.8306  0.8946
 5962TIP3    H217830   3.614   7.772   3.998  0.5522 -0.0281 -0.6718
 5963TIP3   OH217831   0.163   7.851   3.266  0.0247 -0.3712 -0.4804
 5963TIP3    H117832   0.084   7.878   3.312 -0.5124 -0.6893 -1.2194
 5963TIP3    H217833   0.230   7.848   3.335 -0.9427 -1.5634  0.4406
 5964TIP3   OH217834   1.255   7.611   4.201  0.4854 -0.2673  0.5374
 5964TIP3    H117835   1.231   7.555   4.127 -0.6544  0.3564  0.4208
 5964TIP3    H217836   1.188   7.680   4.201  1.1843  0.4176  1.4071
 5965TIP3   OH217837   4.027   3.413   5.414 -0.6409  0.1070 -0.2645
 5965TIP3    H117838   3.987   3.369   5.489  0.3861  1.4568  1.0781
 5965TIP3    H217839   4.093   3.351   5.383 -0.2556  0.0503  0.6644
 5966TIP3   OH217840   6.379   2.766   5.453 -0.1583 -0.3123  0.0820
 5966TIP3    H117841   6.354   2.710   5.380 -0.4427 -1.0048  0.7091
 5966TIP3    H217842   6.417   2.844   5.411 -0.6521 -0.5418 -0.8071
 5967TIP3   OH217843   2.413   7.868   5.856  0.5291  0.2290  0.1351
 5967TIP3    H117844   2.423   7.798   5.920 -1.9293  0.8644  1.2975
 5967TIP3    H217845   2.406   7.948   5.909  1.7721  1.1697 -1.0938
 5968TIP3   OH217846   2.286   1.372   4.787 -1.0419 -0.3601  0.2723
 5968TIP3    H117847   2.326   1.385   4.701 -1.5605 -2.4537 -0.3082
 5968TIP3    H217848   2.351   1.407   4.848  0.2639 -0.7411 -0.8552
 5969TIP3   OH217849   6.578   2.514   4.967 -0.0188 -0.2683  0.0586
 5969TIP3    H117850   6.539   2.508   5.055  0.5058  2.1158  0.4887
 5969TIP3    H217851   6.503   2.516   4.908 -0.3786 -1.9306  0.4174
 5970TIP3   OH217852   1.963   7.769   5.740 -0.3211 -0.0159  0.2424
 5970TIP3    H117853   1.996   7.684   5.711 -0.6765  0.2918 -1.0883
 5970TIP3    H217854   1.912   7.749   5.819 -0.7874 -1.1048 -0.3145
 5971TIP3   OH217855   0.642   7.922   6.003  0.0960 -0.4316  0.5744
 5971TIP3    H117856   0.596   7.994   6.046 -0.4181 -0.1161 -0.4750
 5971TIP3    H217857   0.735   7.939   6.020  0.0244  0.8642 -0.2090
 5972TIP3   OH217858   3.323   0.917   5.445 -0.1670  0.1208  0.1988
 5972TIP3    H117859   3.349   1.009   5.449 -1.0003  0.3782 -0.2317
 5972TIP3    H217860   3.275   0.903   5.527  1.0348 -0.2694  0.8446
 5973TIP3   OH217861   7.175   2.003   4.759  0.4123 -0.7704 -0.2376
 5973TIP3    H117862   7.128   2.071   4.709  1.5423  0.8672  0.8763
 5973TIP3    H217863   7.182   1.930   4.698 -1.3694 -0.1128 -1.2729
 5974TIP3   OH217864   1.960   7.391   6.577  0.1898 -0.2767 -0.0757
 5974TIP3    H117865   1.947   7.337   6.655 -1.3989 -0.7411 -0.6501
 5974TIP3    H217866   1.914   7.473   6.598 -0.4996 -0.5202 -0.6542
 5975TIP3   OH217867   4.605   1.229   4.376 -0.3305 -1.1581  0.0845
 5975TIP3    H117868   4.629   1.256   4.465 -0.9512  1.4203 -0.4960
 5975TIP3    H217869   4.510   1.215   4.380 -0.6135  0.5574 -0.5621
 5976TIP3   OH217870   6.407   1.999   5.742 -0.2558  0.1635 -0.2523
 5976TIP3    H117871   6.458   1.922   5.720  0.2715  0.6915 -0.8795
 5976TIP3    H217872   6.472   2.068   5.758 -0.6615  0.1437  1.6530
 5977TIP3   OH217873   5.193   0.455   6.709  0.3118 -0.0253  0.9367
 5977TIP3    H117874   5.135   0.379   6.698 -0.2725  0.3912  1.1683
 5977TIP3    H217875   5.138   0.530   6.688  1.0422  0.3025  0.1848
 5978TIP3   OH217876   2.711   1.192   4.495 -0.3519 -0.0902  0.3794
 5978TIP3    H117877   2.623   1.201   4.460 -0.3004 -0.9717  0.0159
 5978TIP3    H217878   2.763   1.257   4.448 -1.3132  2.1705  2.3559
 5979TIP3   OH217879   4.486   1.889   4.758 -0.3333  0.6032 -0.5148
 5979TIP3    H117880   4.467   1.796   4.767 -3.0092  1.2102  0.6459
 5979TIP3    H217881   4.494   1.903   4.664 -0.8124 -0.6406 -0.7463
 5980TIP3   OH217882   4.833   1.919   2.716 -0.7012 -0.1712 -0.3391
 5980TIP3    H117883   4.919   1.882   2.694 -0.5521 -0.7542  1.1475
 5980TIP3    H217884   4.770   1.862   2.672 -0.3395  0.1084 -1.2292
 5981TIP3   OH217885   4.024   1.433   2.976 -0.3482 -0.4168 -0.2519
 5981TIP3    H117886   3.990   1.476   3.055  0.5847  0.2147 -0.1902
 5981TIP3    H217887   3.950   1.432   2.915 -0.5945  0.5909  0.0249
 5982TIP3   OH217888   5.568   3.886   5.780 -0.0629 -0.2275  0.0619
 5982TIP3    H117889   5.654   3.916   5.811 -1.4032  2.2353  1.5067
 5982TIP3    H217890   5.536   3.829   5.851 -0.5451  0.5935  0.5068
 5983TIP3   OH217891   7.391   6.620   1.666  0.3731  0.0113 -0.2571
 5983TIP3    H117892   7.403   6.543   1.721  2.3254 -0.4634 -1.2960
 5983TIP3    H217893   7.309   6.604   1.619 -0.1016 -0.6456  0.7855
 5984TIP3   OH217894   4.869   3.760   4.861 -0.0860 -0.0297 -0.3852
 5984TIP3    H117895   4.783   3.725   4.885 -0.9967  2.2303 -0.2316
 5984TIP3    H217896   4.931   3.697   4.899 -1.6219 -0.6258  1.2615
 5985TIP3   OH217897   3.673   4.458   4.739  0.2444 -0.6160 -0.0235
 5985TIP3    H117898   3.604   4.432   4.800 -0.6629 -1.3614 -1.3539
 5985TIP3    H217899   3.643   4.542   4.703  0.3092 -0.6657 -0.1918
 5986TIP3   OH217900   4.624   1.076   5.990 -0.4012  0.1656  0.0891
 5986TIP3    H117901   4.606   1.008   6.055  0.7353  0.1371  0.3722
 5986TIP3    H217902   4.539   1.091   5.947 -0.9569 -0.4338  0.9752
 5987TIP3   OH217903   5.308   1.469   3.127  0.1888  0.0603 -0.5554
 5987TIP3    H117904   5.269   1.524   3.195 -0.3364 -1.0372  0.0487
 5987TIP3    H217905   5.364   1.528   3.078  0.4502  0.9076  0.7315
 5988TIP3   OH217906   4.569   1.998   2.580  0.5642 -0.0653 -0.2639
 5988TIP3    H117907   4.554   1.923   2.522 -1.6543 -0.7181  1.1021
 5988TIP3    H217908   4.648   2.039   2.546 -0.1729 -0.9609 -3.2176
 5989TIP3   OH217909   1.890   2.585   4.350  0.3989  0.6131 -0.0384
 5989TIP3    H117910   1.932   2.630   4.277 -0.2028  0.7381 -0.3064
 5989TIP3    H217911   1.949   2.513   4.370  0.1654  0.0996 -1.1696
 5990TIP3   OH217912   5.564   0.583   5.638  0.2350 -0.2337  0.4959
 5990TIP3    H117913   5.641   0.563   5.584 -0.9295 -1.0565 -0.9034
 5990TIP3    H217914   5.571   0.523   5.712 -0.3521 -2.0615 -0.9009
 5991TIP3   OH217915   6.744   1.110   3.391  0.6636 -0.1426 -0.2110
 5991TIP3    H117916   6.752   1.032   3.336  0.6899 -1.7985  2.0626
 5991TIP3    H217917   6.651   1.133   3.387  0.5547 -0.6187 -0.4234
 5992TIP3   OH217918   0.450   0.932   2.079 -0.2703  0.0380  0.0627
 5992TIP3    H117919   0.377   0.965   2.131 -0.0232 -1.1088  1.1452
 5992TIP3    H217920   0.528   0.955   2.130 -0.0518 -1.5226  0.4626
 5993TIP3   OH217921   5.159   8.024   5.665  0.0215  0.1282  0.3754
 5993TIP3    H117922   5.203   7.954   5.714 -0.9911 -1.0323 -0.3198
 5993TIP3    H217923   5.132   7.982   5.583 -0.1164  1.4941 -0.2980
 5994TIP3   OH217924   6.436   1.348   4.311  0.0975 -0.1186 -0.7185
 5994TIP3    H117925   6.375   1.420   4.294  0.2134 -0.1895 -1.4386
 5994TIP3    H217926   6.472   1.367   4.398 -0.2345  0.4336 -0.6994
 5995TIP3   OH217927   5.394   1.904   5.130 -0.6597 -0.1888 -0.2659
 5995TIP3    H117928   5.356   1.992   5.123  0.8775  0.4004 -1.4015
 5995TIP3    H217929   5.348   1.852   5.064 -0.6996  0.0807 -0.4489
 5996TIP3   OH217930   6.678   0.926   4.908 -0.1831  0.0184  0.7424
 5996TIP3    H117931   6.665   0.944   4.815  0.3494  0.3828  0.7369
 5996TIP3    H217932   6.673   1.012   4.950  1.1457  0.0419  0.8634
 5997TIP3   OH217933   3.351   1.296   3.877 -0.7542  0.2609  0.5860
 5997TIP3    H117934   3.289   1.289   3.805 -0.7001  1.8323  0.3689
 5997TIP3    H217935   3.391   1.382   3.866 -1.1990  0.7991  2.8588
 5998TIP3   OH217936   7.140   1.138   3.691 -0.0423 -0.4346 -0.3876
 5998TIP3    H117937   7.205   1.086   3.643  0.2221 -0.0753 -0.4220
 5998TIP3    H217938   7.059   1.127   3.641  0.1727 -0.2717 -0.7719
 5999TIP3   OH217939   4.468   0.131   5.455 -0.2253 -0.4959 -0.6813
 5999TIP3    H117940   4.535   0.079   5.500 -2.4101 -1.5447  1.4941
 5999TIP3    H217941   4.440   0.075   5.382  1.3371  0.0088 -1.6887
 6000TIP3   OH217942   0.379   0.673   3.061 -0.2001 -0.7031 -0.2745
 6000TIP3    H117943   0.311   0.607   3.048 -0.5091 -0.2675 -0.8330
 6000TIP3    H217944   0.331   0.755   3.070  0.1953 -0.5313  0.3245
 6001TIP3   OH217945   1.908   5.785   3.853  0.1876  0.3878  0.3135
 6001TIP3    H117946   1.893   5.698   3.816 -1.0922  0.4701  0.6178
 6001TIP3    H217947   1.965   5.770   3.928  1.9259  0.0913 -1.0414
 6002TIP3   OH217948   4.884   1.008   3.598  0.1533 -0.1473 -0.5039
 6002TIP3    H117949   4.948   1.073   3.627 -0.0468 -0.3829  0.4602
 6002TIP3    H217950   4.937   0.940   3.557  0.6068 -0.8080  1.1510
 6003TIP3   OH217951   7.708   1.945   2.650 -0.1581 -0.6821 -0.4797
 6003TIP3    H117952   7.661   1.864   2.670  0.4318 -0.5500  1.5805
 6003TIP3    H217953   7.800   1.923   2.665 -0.0336  0.4793  0.4956
 6004TIP3   OH217954   4.466   7.445   5.267 -0.3954 -0.3429  0.4916
 6004TIP3    H117955   4.370   7.452   5.271 -0.2854  1.0024  0.8693
 6004TIP3    H217956   4.485   7.431   5.174 -0.7806  2.3577 -0.0250
 6005TIP3   OH217957   6.235   7.928   5.280  0.0408 -0.3036  0.3712
 6005TIP3    H117958   6.190   7.866   5.338 -0.9787 -0.9909 -1.1215
 6005TIP3    H217959   6.190   8.011   5.295 -0.6609 -0.6251  0.0829
 6006TIP3   OH217960   7.343   0.789   3.892  0.1189  0.1721  0.7377
 6006TIP3    H117961   7.301   0.722   3.946 -0.1342  0.1083  0.4654
 6006TIP3    H217962   7.274   0.816   3.831  0.2773  0.5443  0.7253
 6007TIP3   OH217963   2.555   7.987   4.283  0.9178  0.3475  0.0118
 6007TIP3    H117964   2.473   7.995   4.234  1.5228 -1.2128 -1.3082
 6007TIP3    H217965   2.528   7.956   4.370 -0.0049  1.2013  0.0338
 6008TIP3   OH217966   3.075   7.274   5.776  0.0707  0.1767 -0.6952
 6008TIP3    H117967   3.103   7.363   5.758  0.2327 -0.0840 -1.7791
 6008TIP3    H217968   3.077   7.267   5.872  1.6646  0.8198 -0.6519
 6009TIP3   OH217969   5.566   0.670   5.181 -0.6924 -1.1189 -0.9279
 6009TIP3    H117970   5.535   0.600   5.124 -0.9295 -3.0872  1.5066
 6009TIP3    H217971   5.618   0.626   5.248 -1.0682  0.9692  0.8273
 6010TIP3   OH217972   7.471   1.153   1.717  0.4387  0.4081  0.5382
 6010TIP3    H117973   7.560   1.147   1.751  0.6627 -0.6604 -0.2225
 6010TIP3    H217974   7.464   1.243   1.684  1.3114  0.4264  0.3867
 6011TIP3   OH217975   8.039   0.916   4.164  0.3130 -0.3297  0.5418
 6011TIP3    H117976   8.096   0.949   4.094 -0.0057 -0.3470  0.2724
 6011TIP3    H217977   8.006   0.995   4.207  0.9650 -0.3262  1.0450
 6012TIP3   OH217978   6.998   2.859   5.022  0.0492 -0.3457  0.1937
 6012TIP3    H117979   6.932   2.916   4.983 -0.1356  0.5338  1.7612
 6012TIP3    H217980   7.009   2.893   5.111 -0.0331 -2.7317  1.1325
 6013TIP3   OH217981   4.686   7.894   3.322  0.0726  0.3821  0.2380
 6013TIP3    H117982   4.591   7.882   3.323  0.1216 -0.3829 -1.4698
 6013TIP3    H217983   4.720   7.820   3.372 -0.2356  0.8612  1.1692
 6014TIP3   OH217984   8.332   0.242   4.274 -0.2084  0.3680  0.2633
 6014TIP3    H117985   8.357   0.321   4.227 -0.7272  1.5254  1.8795
 6014TIP3    H217986   8.381   0.171   4.232 -0.8348  1.3343 -2.1097
 6015TIP3   OH217987   8.456   0.876   3.512 -0.1744 -0.2950 -0.2572
 6015TIP3    H117988   8.406   0.898   3.434  0.8518 -0.9541 -1.1140
 6015TIP3    H217989   8.543   0.854   3.479 -0.3277 -2.6862  0.8525
 6016TIP3   OH217990   6.383   1.809   3.911  0.5320  0.2749  0.2835
 6016TIP3    H117991   6.370   1.758   3.991  0.4143  1.0550  0.7714
 6016TIP3    H217992   6.449   1.874   3.934 -1.7650  2.5304  0.7287
 6017TIP3   OH217993   6.705   0.434   5.588  0.2810 -0.4336  0.8438
 6017TIP3    H117994   6.718   0.471   5.675 -2.6787 -1.4861  1.8096
 6017TIP3    H217995   6.732   0.343   5.597  1.5913 -0.1113  0.1898
 6018TIP3   OH217996   7.805   1.164   5.645 -0.3369  0.6399  0.2254
 6018TIP3    H117997   7.728   1.221   5.633  0.3142  1.7408  1.1985
 6018TIP3    H217998   7.853   1.172   5.563 -2.5764 -2.1333 -1.4616
 6019TIP3   OH217999   6.897   1.315   6.493 -0.4733  0.0570 -0.4371
 6019TIP3    H118000   6.908   1.410   6.489  1.1795 -0.0971  0.1406
 6019TIP3    H218001   6.959   1.286   6.560 -1.2704 -1.3902 -0.3020
 6020TIP3   OH218002   0.925   1.732   5.070 -0.3892 -0.3426  0.4051
 6020TIP3    H118003   0.969   1.816   5.055 -0.1742 -0.2933  1.2710
 6020TIP3    H218004   0.970   1.695   5.147  0.5150 -1.9386 -0.8610
 6021TIP3   OH218005   2.954   7.877   3.857 -0.1773  0.3812  0.0585
 6021TIP3    H118006   2.977   7.866   3.949  0.3143 -0.7294 -0.1871
 6021TIP3    H218007   2.974   7.969   3.838  0.8788  0.2920  0.7220
 6022TIP3   OH218008   8.057   1.178   2.891 -0.0209 -0.4327  0.2846
 6022TIP3    H118009   8.093   1.266   2.892  0.8700 -0.7798 -0.4228
 6022TIP3    H218010   7.964   1.189   2.909 -0.0379  0.7105 -0.4744
 6023TIP3   OH218011   6.296   0.269   6.004 -0.1299  0.1286  0.2382
 6023TIP3    H118012   6.378   0.224   5.983  0.4026  1.4627 -0.6096
 6023TIP3    H218013   6.231   0.199   6.009  0.5479 -0.6717 -1.7082
 6024TIP3   OH218014   6.742   2.461   3.179  0.1402  0.9382 -0.1787
 6024TIP3    H118015   6.695   2.404   3.239  2.3860  2.6540  3.3661
 6024TIP3    H218016   6.805   2.403   3.136  0.2394  0.1464  1.0102
 6025TIP3   OH218017   1.288   2.608   1.861 -0.3825  0.3520 -0.0859
 6025TIP3    H118018   1.208   2.562   1.835  0.3103 -0.5367 -0.6587
 6025TIP3    H218019   1.339   2.543   1.908  0.2426  0.7749 -0.1731
 6026TIP3   OH218020   7.514   1.400   6.526  0.1553  0.2022  0.2947
 6026TIP3    H118021   7.546   1.465   6.590 -0.7660  0.4046  0.5623
 6026TIP3    H218022   7.496   1.322   6.579  0.0522  0.1459  0.1743
 6027TIP3   OH218023   7.469   2.826   3.567 -0.2088  0.6042  0.5124
 6027TIP3    H118024   7.379   2.838   3.596 -1.1630 -0.5228 -1.8619
 6027TIP3    H218025   7.465   2.833   3.472  2.0894 -0.1642  0.3213
 6028TIP3   OH218026   1.830   5.847  -0.030 -0.5260  0.2045  0.9311
 6028TIP3    H118027   1.740   5.874  -0.012  0.2049  3.0847  0.5971
 6028TIP3    H218028   1.869   5.835   0.057 -1.3020 -1.3592  1.0733
 6029TIP3   OH218029   7.408   2.369   5.223 -0.3261 -0.2210 -0.3075
 6029TIP3    H118030   7.425   2.276   5.206  0.8400  0.1408 -1.2132
 6029TIP3    H218031   7.328   2.370   5.276 -1.4017 -1.6323 -1.8711
 6030TIP3   OH218032   7.240   2.111   3.205  0.3001 -0.1389 -0.5039
 6030TIP3    H118033   7.157   2.115   3.157 -0.4035 -0.7791  0.6197
 6030TIP3    H218034   7.296   2.176   3.163 -0.3793 -0.5061 -2.0149
 6031TIP3   OH218035   4.979   0.266   5.910  0.5506 -0.3249  0.5113
 6031TIP3    H118036   5.072   0.285   5.916  0.7464 -1.3664  0.8164
 6031TIP3    H218037   4.970   0.176   5.942 -0.7307  0.2472  1.8740
 6032TIP3   OH218038   7.357   1.445   4.474 -0.0561  0.0120 -0.1581
 6032TIP3    H118039   7.326   1.483   4.557 -1.3506 -2.4904  0.5424
 6032TIP3    H218040   7.428   1.386   4.500  0.2672  0.0415 -0.9652
 6033TIP3   OH218041   7.573   1.650   4.436  0.0442 -0.1432  0.6738
 6033TIP3    H118042   7.509   1.587   4.467  0.0351  0.0089  0.9715
 6033TIP3    H218043   7.631   1.664   4.511 -0.2769  0.6072  0.7970
 6034TIP3   OH218044   4.133   7.670   4.550  0.0022  0.0466 -0.1474
 6034TIP3    H118045   4.112   7.762   4.532  2.0708  0.4008 -0.7710
 6034TIP3    H218046   4.146   7.667   4.645 -1.0180  0.1816  0.0092
 6035TIP3   OH218047   6.685   3.512   3.523 -0.4836 -0.1824 -0.7735
 6035TIP3    H118048   6.698   3.429   3.569  1.0135  0.0882 -0.7040
 6035TIP3    H218049   6.703   3.492   3.431  3.4063  0.8460 -0.2907
 6036TIP3   OH218050   3.359   7.795   4.664 -0.0893  0.3177  0.6022
 6036TIP3    H118051   3.277   7.750   4.643  1.6303 -2.4865 -0.4109
 6036TIP3    H218052   3.351   7.881   4.622 -2.8241  0.3946  1.2223
 6037TIP3   OH218053   7.853   1.200   1.272  0.1687 -0.8004 -0.5857
 6037TIP3    H118054   7.882   1.150   1.347  1.5295  1.8736  0.7472
 6037TIP3    H218055   7.810   1.277   1.310  1.2389  0.7905 -2.4960
 6038TIP3   OH218056   3.743   7.615   2.097  0.0912 -0.3096 -0.0493
 6038TIP3    H118057   3.660   7.568   2.105  0.0235 -0.3227 -0.7334
 6038TIP3    H218058   3.770   7.632   2.187 -0.9143  0.1429  0.1786
 6039TIP3   OH218059   4.503   7.264   5.479  0.0175 -0.4295  0.6342
 6039TIP3    H118060   4.496   7.325   5.406 -1.3751 -0.7036  0.5225
 6039TIP3    H218061   4.447   7.190   5.454  0.2567 -0.9323  1.5615
 6040TIP3   OH218062   7.335   0.670   5.490  0.2170  0.3850 -0.6703
 6040TIP3    H118063   7.391   0.599   5.520  0.0240  0.3107 -0.4789
 6040TIP3    H218064   7.385   0.713   5.421 -0.1634 -0.6972 -1.6435
 6041TIP3   OH218065   5.655   0.191   5.117 -0.5104 -0.0401 -0.2396
 6041TIP3    H118066   5.674   0.149   5.201  0.2695  0.2611 -0.2552
 6041TIP3    H218067   5.720   0.154   5.057 -0.7969  0.0542 -0.6063
 6042TIP3   OH218068   6.448   1.304   2.857  0.0591  0.7187 -0.6170
 6042TIP3    H118069   6.422   1.216   2.883  1.4520  0.7659  0.9792
 6042TIP3    H218070   6.501   1.292   2.778  2.5354 -0.1453  1.1208
 6043TIP3   OH218071   6.870   0.087   5.780  0.1876  0.1638 -0.2421
 6043TIP3    H118072   6.903   0.031   5.850 -4.2701 -0.8749  1.1445
 6043TIP3    H218073   6.790   0.126   5.815 -1.5110  0.6029 -4.2931
 6044TIP3   OH218074   4.920   2.676   5.990 -0.0752  0.6976 -0.1218
 6044TIP3    H118075   4.859   2.646   5.923  1.8248  0.1527 -1.6943
 6044TIP3    H218076   4.865   2.708   6.062 -2.1621  0.8730 -1.7532
 6045TIP3   OH218077   7.036   1.109   4.098  0.0880  0.0502  0.3708
 6045TIP3    H118078   7.107   1.166   4.069  0.5402 -0.3695  0.6450
 6045TIP3    H218079   6.966   1.124   4.035 -0.4033  2.1398  1.3879
 6046TIP3   OH218080   7.862   0.360   3.941 -0.1051 -0.3367 -0.5292
 6046TIP3    H118081   7.945   0.326   3.974 -0.1960  0.1228  0.1580
 6046TIP3    H218082   7.868   0.347   3.846  0.2411 -1.4423 -0.3732
 6047TIP3   OH218083   0.448   2.035   3.916  0.0397 -0.3346  0.6185
 6047TIP3    H118084   0.432   1.961   3.974  0.1920 -1.5645 -0.8789
 6047TIP3    H218085   0.391   2.019   3.841  0.2900  0.9301  0.1434
 6048TIP3   OH218086   2.790   1.812   5.612 -1.1212  0.2292 -0.8527
 6048TIP3    H118087   2.838   1.784   5.534  0.1948  0.6620 -0.2129
 6048TIP3    H218088   2.716   1.751   5.618 -0.2363 -0.9150 -1.4257
 6049TIP3   OH218089   5.308   0.262   4.472 -0.1087  0.3574 -0.1787
 6049TIP3    H118090   5.250   0.325   4.514  0.4575 -0.5109  1.9772
 6049TIP3    H218091   5.256   0.226   4.400 -1.5030  1.0810  0.4538
 6050TIP3   OH218092   7.540   0.762   5.318  0.0517 -0.0596  0.3694
 6050TIP3    H118093   7.607   0.794   5.378 -0.1620  1.0117  0.0309
 6050TIP3    H218094   7.583   0.689   5.272  0.8827  0.4331  0.3545
 6051TIP3   OH218095   6.616   3.602   4.368 -0.0492 -0.3868 -0.6374
 6051TIP3    H118096   6.622   3.624   4.460 -1.0720  1.4294 -0.9695
 6051TIP3    H218097   6.531   3.559   4.359  0.4689 -1.4441 -0.5810
 6052TIP3   OH218098   2.997   7.014   2.113 -0.5881 -0.0281  0.0141
 6052TIP3    H118099   2.942   6.941   2.085  0.3016 -0.3774 -0.8788
 6052TIP3    H218100   3.056   6.977   2.178  0.9711 -0.5323 -1.6378
 6053TIP3   OH218101   7.120   1.819   4.981  0.0232  0.2952  0.2521
 6053TIP3    H118102   7.200   1.773   5.005 -1.3138 -3.1799 -1.6798
 6053TIP3    H218103   7.150   1.885   4.917  1.5819  0.2991  0.9604
 6054TIP3   OH218104   7.344   3.559   4.102 -0.6079 -0.7010  0.8038
 6054TIP3    H118105   7.363   3.625   4.170 -0.3930  1.1066 -0.9756
 6054TIP3    H218106   7.249   3.560   4.093 -0.6135 -0.7303  0.8572
 6055TIP3   OH218107   6.487   1.009   5.304  0.5188  0.3010 -0.1221
 6055TIP3    H118108   6.499   0.954   5.382 -1.5015  0.4585  0.3172
 6055TIP3    H218109   6.512   1.097   5.334 -1.9494  0.6993  0.9034
 6056TIP3   OH218110   0.557   0.084   4.854  0.2285 -0.9507  0.1659
 6056TIP3    H118111   0.511   0.093   4.771  2.0478  0.2805 -0.7604
 6056TIP3    H218112   0.537   0.166   4.901 -0.9693 -1.7346  1.0507
 6057TIP3   OH218113   6.983   0.794   5.764  0.0655 -0.1903  0.0708
 6057TIP3    H118114   7.046   0.742   5.714 -0.9039 -0.6623 -0.6747
 6057TIP3    H218115   6.965   0.742   5.842  0.6440 -0.0200  0.3236
 6058TIP3   OH218116   0.731   0.852   3.117 -0.0958 -0.4753 -0.2316
 6058TIP3    H118117   0.639   0.877   3.132  1.0435  4.5567 -0.5095
 6058TIP3    H218118   0.774   0.867   3.201  0.7211 -1.4424 -0.4747
 6059TIP3   OH218119   7.030   1.131   5.411 -0.4976 -0.2839 -0.5882
 6059TIP3    H118120   6.964   1.062   5.421  0.8789 -1.3680  1.3750
 6059TIP3    H218121   7.044   1.137   5.317 -1.5438 -1.8225 -0.8645
 6060TIP3   OH218122   8.156   1.198   4.538 -0.3604 -0.1131  0.0855
 6060TIP3    H118123   8.203   1.256   4.478  1.4946 -0.9097  0.7494
 6060TIP3    H218124   8.148   1.248   4.619 -0.8451  0.1050 -0.0983
 6061TIP3   OH218125   4.826   7.802   6.080 -0.2137  0.1338 -0.5137
 6061TIP3    H118126   4.750   7.761   6.038  0.5567  0.0811 -1.8935
 6061TIP3    H218127   4.851   7.873   6.021  0.2154  0.7679  0.4235
 6062TIP3   OH218128   6.222   1.806   2.578 -0.5011  0.1720  0.2217
 6062TIP3    H118129   6.276   1.787   2.501 -0.6781 -0.8625  0.3321
 6062TIP3    H218130   6.278   1.784   2.652 -1.3023 -1.6339  0.3243
 6063TIP3   OH218131   5.978   1.239   6.114 -0.1376 -0.5306  0.1592
 6063TIP3    H118132   6.043   1.302   6.082 -0.2444 -0.0132  0.9445
 6063TIP3    H218133   5.951   1.191   6.036  1.0632 -0.6349 -0.2096
 6064TIP3   OH218134   7.671   0.869   2.318 -0.4008  0.6593  0.1135
 6064TIP3    H118135   7.766   0.856   2.321 -0.6014 -0.4465  2.1059
 6064TIP3    H218136   7.646   0.886   2.409 -1.9346  2.3668 -0.5867
 6065TIP3   OH218137   2.933   5.660   0.246  0.1056  0.0878  0.4022
 6065TIP3    H118138   2.984   5.680   0.324 -2.2549  1.3595  1.6990
 6065TIP3    H218139   2.843   5.685   0.270 -1.3419 -3.0778 -1.3717
 6066TIP3   OH218140   7.486   1.971   5.419 -0.3157 -0.2420  0.0456
 6066TIP3    H118141   7.454   1.899   5.473  0.1317 -1.6622 -1.5674
 6066TIP3    H218142   7.577   1.984   5.447 -0.6675  0.3389  0.9751
 6067TIP3   OH218143   3.705   0.151   0.015  0.5985  0.6463 -0.3838
 6067TIP3    H118144   3.634   0.088   0.027  2.4491 -1.8057 -1.9711
 6067TIP3    H218145   3.665   0.221  -0.038 -2.2079  2.2435  3.6169
 6068TIP3   OH218146   7.379   0.915   1.536  0.0944  0.0201 -0.1742
 6068TIP3    H118147   7.448   0.978   1.555  0.1479 -0.2428  0.5331
 6068TIP3    H218148   7.299   0.967   1.530  0.0080  0.0656  1.2209
 6069TIP3   OH218149   0.234   0.563   6.145 -0.7114  0.6167  0.0439
 6069TIP3    H118150   0.218   0.485   6.092  2.8717 -0.0202 -0.1691
 6069TIP3    H218151   0.222   0.636   6.084 -0.7035  0.0836 -0.6038
 6070TIP3   OH218152   5.250   0.819   3.696  0.2911 -0.9828 -0.2160
 6070TIP3    H118153   5.229   0.909   3.722 -4.0640 -1.5604 -1.3444
 6070TIP3    H218154   5.265   0.773   3.779 -1.8542 -0.2071  0.6237
 6071TIP3   OH218155   4.054   7.752   1.975  0.8911 -0.7014  0.0449
 6071TIP3    H118156   4.039   7.659   1.957  1.1236 -1.1805  2.1836
 6071TIP3    H218157   4.110   7.752   2.053 -0.0425  1.2493  0.7313
 6072TIP3   OH218158   4.086   4.439   3.245 -0.0086  0.4054  0.5690
 6072TIP3    H118159   4.149   4.511   3.251 -0.5715  0.8944  0.6468
 6072TIP3    H218160   4.034   4.459   3.167 -2.2288  1.7604  2.3436
 6073TIP3   OH218161   6.852   0.637   5.097 -0.3147 -0.1789 -0.4775
 6073TIP3    H118162   6.796   0.709   5.125 -0.2536 -0.7459  1.1442
 6073TIP3    H218163   6.811   0.558   5.133  1.2392 -0.6416  0.3215
 6074TIP3   OH218164   8.443   3.826   2.756  0.0040 -0.6490  0.0032
 6074TIP3    H118165   8.512   3.887   2.783 -0.5377 -0.1377  0.2390
 6074TIP3    H218166   8.449   3.825   2.661 -1.9145  2.0788 -0.2092
 6075TIP3   OH218167   3.643   7.012   5.874  0.1685 -0.3173 -0.3521
 6075TIP3    H118168   3.691   6.968   5.804  1.9060  0.8395  0.0860
 6075TIP3    H218169   3.575   7.062   5.829 -0.0563 -1.2475 -1.0515
 6076TIP3   OH218170   0.148   1.628   4.071 -0.6418  0.4554 -0.0221
 6076TIP3    H118171   0.216   1.666   4.126 -0.8697  1.3599 -0.3597
 6076TIP3    H218172   0.194   1.586   3.999 -0.3576 -0.4533  0.6798
 6077TIP3   OH218173   7.181   0.592   3.118 -0.1777  0.4330 -0.0784
 6077TIP3    H118174   7.185   0.654   3.045 -1.1790  1.8421  1.0380
 6077TIP3    H218175   7.087   0.583   3.135 -0.0762 -1.9538 -0.6874
 6078TIP3   OH218176   1.283   1.630   3.432  0.2881  0.1012  0.0441
 6078TIP3    H118177   1.239   1.692   3.490  0.3490  0.0592  0.1358
 6078TIP3    H218178   1.361   1.677   3.402  1.7571 -0.8410  2.1882
 6079TIP3   OH218179   6.153   7.412   4.956 -0.4020 -0.0066  0.2283
 6079TIP3    H118180   6.234   7.361   4.959  0.1714  0.9123  0.6754
 6079TIP3    H218181   6.093   7.365   5.014  0.6113  0.6341  1.8283
 6080TIP3   OH218182   0.686   1.971   2.666  0.5827 -0.0731  0.4201
 6080TIP3    H118183   0.773   1.975   2.706  0.1973 -1.1247  1.3888
 6080TIP3    H218184   0.625   1.990   2.738 -0.0267 -0.0815 -0.0861
 6081TIP3   OH218185   3.356   6.969   2.584  0.2425  0.0476 -0.4062
 6081TIP3    H118186   3.384   6.984   2.674 -0.8057  1.0268 -0.2153
 6081TIP3    H218187   3.423   7.012   2.531  1.0560 -0.8483 -0.1065
 6082TIP3   OH218188   1.376   7.941   5.628  0.2158  0.0675  0.3866
 6082TIP3    H118189   1.281   7.937   5.641  0.3209 -1.8850  0.6731
 6082TIP3    H218190   1.400   8.029   5.657 -1.4914  0.5384  0.4399
 6083TIP3   OH218191   7.673   2.337   2.561  0.2385 -0.2737 -0.1864
 6083TIP3    H118192   7.618   2.260   2.569  2.1007 -1.6530 -0.3479
 6083TIP3    H218193   7.745   2.323   2.624  0.0364  1.8296  0.5801
 6084TIP3   OH218194   8.047   1.173   3.758  0.3824  0.0332  0.2241
 6084TIP3    H118195   7.998   1.168   3.676  0.9647  2.0389 -0.2734
 6084TIP3    H218196   8.000   1.238   3.810  0.0502 -1.1846  1.4806
 6085TIP3   OH218197   6.719   0.642   4.869  0.1269  0.0805 -0.4033
 6085TIP3    H118198   6.682   0.730   4.875 -1.0849 -0.4134 -0.3389
 6085TIP3    H218199   6.761   0.627   4.954  1.3888  1.0380 -0.8435
 6086TIP3   OH218200   7.110   1.785   2.960 -0.8503  0.1432  0.2883
 6086TIP3    H118201   7.186   1.797   3.016 -0.2108 -2.2342 -0.0455
 6086TIP3    H218202   7.104   1.867   2.911 -1.5716  2.3772  3.9282
 6087TIP3   OH218203   7.592   2.535   3.399 -0.2276  0.1034 -0.4334
 6087TIP3    H118204   7.665   2.477   3.375  0.5298  1.3971 -1.3998
 6087TIP3    H218205   7.620   2.622   3.368 -2.0013  0.7019 -0.4281
 6088TIP3   OH218206   6.403   1.025   6.187  0.2185  0.1341  0.0639
 6088TIP3    H118207   6.483   1.046   6.138  0.4120  0.4385  0.5060
 6088TIP3    H218208   6.343   1.096   6.166  0.1390  0.0185 -0.0995
 6089TIP3   OH218209   8.187   1.722   4.345  0.2569 -0.4717 -0.1917
 6089TIP3    H118210   8.115   1.759   4.293  0.4083 -0.4526 -0.3908
 6089TIP3    H218211   8.255   1.702   4.280 -1.0084 -3.9920 -0.5371
 6090TIP3   OH218212   8.013   2.486   4.134 -0.2164  0.1299  0.0050
 6090TIP3    H118213   7.981   2.575   4.119  2.1779  1.3155  1.6064
 6090TIP3    H218214   7.933   2.434   4.149 -1.5252  2.6286  2.1551
 6091TIP3   OH218215   7.843   1.131   4.640  0.4649 -0.1363  0.0220
 6091TIP3    H118216   7.904   1.100   4.707 -0.1308  1.9423  1.5643
 6091TIP3    H218217   7.889   1.203   4.596 -1.0182  1.7870  1.5397
 6092TIP3   OH218218   3.862   0.314   5.012 -0.8919  0.1467  0.1502
 6092TIP3    H118219   3.905   0.382   4.960  1.7031 -2.1872 -0.8973
 6092TIP3    H218220   3.785   0.289   4.961 -1.5660  1.9060  0.2866
 6093TIP3   OH218221   0.747   0.903   3.607  0.0952  0.0152 -0.1278
 6093TIP3    H118222   0.656   0.925   3.587  0.4238  0.8898 -0.7225
 6093TIP3    H218223   0.796   0.939   3.533  0.7527 -1.9396 -0.6640
 6094TIP3   OH218224   7.590   1.271   3.458  0.1157 -0.8193  0.4501
 6094TIP3    H118225   7.617   1.352   3.500  0.5274 -1.5534  1.6383
 6094TIP3    H218226   7.519   1.237   3.514 -0.3482 -1.0550 -0.2726
 6095TIP3   OH218227   5.272   3.218   5.692  0.4915  0.0844 -0.1474
 6095TIP3    H118228   5.252   3.235   5.600  1.5812 -0.0370 -0.4163
 6095TIP3    H218229   5.241   3.296   5.738  1.6089  0.9658 -0.8553
 6096TIP3   OH218230   7.195   0.786   6.885  0.7252  0.3028  0.2503
 6096TIP3    H118231   7.191   0.710   6.944  1.5143  0.7311  0.8751
 6096TIP3    H218232   7.144   0.853   6.930 -0.1025  0.0975 -0.3768
 6097TIP3   OH218233   7.765   2.044   3.570  0.1847  0.3563  0.1747
 6097TIP3    H118234   7.700   2.085   3.513 -1.4564 -1.3238  0.7977
 6097TIP3    H218235   7.837   2.021   3.512 -1.3574 -1.1031 -1.1857
 6098TIP3   OH218236   6.679   1.615   3.878 -0.0056 -0.3997  0.4671
 6098TIP3    H118237   6.674   1.591   3.970 -1.4299  2.2839  1.1497
 6098TIP3    H218238   6.694   1.709   3.879 -2.8317  0.1554 -2.0113
 6099TIP3   OH218239   6.759   3.352   2.274 -0.2531  0.1338  0.4066
 6099TIP3    H118240   6.679   3.396   2.302 -1.0597 -0.1864 -1.3580
 6099TIP3    H218241   6.751   3.344   2.179  2.9126  2.2226 -0.1287
 6100TIP3   OH218242   8.186   3.498   4.986  0.9401 -0.3101 -0.4571
 6100TIP3    H118243   8.212   3.527   5.073  1.0706 -0.3700 -0.4750
 6100TIP3    H218244   8.123   3.428   5.001  0.7409 -0.1198 -0.4115
 6101TIP3   OH218245   6.296   2.099   4.143 -0.6477 -0.1101  0.0995
 6101TIP3    H118246   6.261   2.182   4.176 -1.7864 -0.6216  0.2229
 6101TIP3    H218247   6.311   2.047   4.222  0.9325  0.2940  0.0851
 6102TIP3   OH218248   6.935   4.470   5.928 -0.0041  0.1876  0.3440
 6102TIP3    H118249   7.012   4.452   5.874 -1.1751  0.3345 -1.4256
 6102TIP3    H218250   6.964   4.536   5.990  1.9510 -1.4826  1.2796
 6103TIP3   OH218251   5.811   1.774   4.364  0.0596 -0.4998 -0.1925
 6103TIP3    H118252   5.841   1.864   4.349 -0.7550 -0.1707  0.1035
 6103TIP3    H218253   5.774   1.775   4.452 -2.0292 -0.5407 -1.0343
 6104TIP3   OH218254   7.082   2.218   4.649  0.0768  0.2962  0.0717
 6104TIP3    H118255   7.003   2.252   4.608  0.0761  0.9339  0.6006
 6104TIP3    H218256   7.122   2.294   4.693 -1.1924 -0.8324  3.3223
 6105TIP3   OH218257   6.644   0.814   4.579 -0.3154 -0.5192 -0.4288
 6105TIP3    H118258   6.700   0.814   4.502 -0.3921 -1.8456 -0.5066
 6105TIP3    H218259   6.652   0.902   4.615  0.3667 -0.1402 -1.4798
 6106TIP3   OH218260   6.698   1.607   3.156 -0.5372 -0.2801 -0.0885
 6106TIP3    H118261   6.777   1.660   3.172 -0.6128  0.4963 -2.0693
 6106TIP3    H218262   6.707   1.580   3.065 -1.5708 -1.9178  0.2957
 6107TIP3   OH218263   7.174   0.405   4.258  0.0644 -0.0897  0.1771
 6107TIP3    H118264   7.224   0.365   4.329  1.8857 -0.5835 -1.3436
 6107TIP3    H218265   7.151   0.333   4.201  0.5185  0.5762 -0.8662
 6108TIP3   OH218266   7.482   2.905   2.920 -0.0090 -0.3302 -0.1904
 6108TIP3    H118267   7.439   2.826   2.955  0.0851  0.4492  1.7899
 6108TIP3    H218268   7.572   2.877   2.902  0.0602 -0.6580  0.6319
 6109TIP3   OH218269   8.059   0.083   6.170  0.5030 -0.1336  0.2049
 6109TIP3    H118270   8.129   0.134   6.211 -1.4198  2.5987  0.2630
 6109TIP3    H218271   7.985   0.144   6.166 -0.0384 -0.9018 -5.5553
 6110TIP3   OH218272   6.062   0.634   2.425  0.0934  0.0513  0.1770
 6110TIP3    H118273   6.100   0.705   2.477 -0.9254 -0.1041  1.1376
 6110TIP3    H218274   6.037   0.675   2.342 -0.3276  0.7704  0.6626
 6111TIP3   OH218275   7.288   0.897   5.686 -0.3928  0.0723 -0.2611
 6111TIP3    H118276   7.227   0.844   5.636  1.0315 -0.8024 -1.1229
 6111TIP3    H218277   7.374   0.875   5.650  0.5485  0.3593  1.7140
 6112TIP3   OH218278   7.799   0.379   6.711 -0.2396 -0.0591 -0.0407
 6112TIP3    H118279   7.767   0.290   6.728  0.4744 -0.2972  0.0630
 6112TIP3    H218280   7.751   0.407   6.633  0.7611 -1.1776 -1.0781
 6113TIP3   OH218281   8.266   0.326   3.790 -0.6890  0.0284  0.1936
 6113TIP3    H118282   8.350   0.312   3.835 -0.7463 -0.1932  0.2328
 6113TIP3    H218283   8.237   0.412   3.822 -0.7793 -0.1717  0.6599
 6114TIP3   OH218284   0.389   0.340   5.206  0.3996 -0.3335  0.4183
 6114TIP3    H118285   0.366   0.411   5.265  0.1040 -0.5147  0.5216
 6114TIP3    H218286   0.305   0.299   5.184  0.4912 -0.1657 -0.2544
 6115TIP3   OH218287   5.467   2.548   6.263  0.0898 -0.1752  0.3361
 6115TIP3    H118288   5.446   2.630   6.308 -0.0762  0.1753 -0.3733
 6115TIP3    H218289   5.385   2.524   6.219 -0.5328 -1.9204  2.4082
 6116TIP3   OH218290   2.290   6.554   3.322 -0.0783 -0.0261 -0.1978
 6116TIP3    H118291   2.208   6.546   3.372  0.6669 -0.1153  1.0201
 6116TIP3    H218292   2.323   6.641   3.344  0.5466 -0.2866 -0.1030
 6117TIP3   OH218293   8.227   0.293   2.839 -0.3915  0.4771  0.2801
 6117TIP3    H118294   8.207   0.239   2.915 -1.4497  1.1223  0.4645
 6117TIP3    H218295   8.155   0.279   2.778  1.8711 -2.3210 -1.9153
 6118TIP3   OH218296   6.615   1.821   5.639 -0.2631  0.2445  0.2080
 6118TIP3    H118297   6.601   1.727   5.649 -0.3434  0.3394  1.0452
 6118TIP3    H218298   6.689   1.829   5.579  0.9447 -0.3824  1.6096
 6119TIP3   OH218299   7.289   0.332   4.525  0.1838  0.3454  0.1903
 6119TIP3    H118300   7.298   0.237   4.522 -1.4290  0.1813  0.2179
 6119TIP3    H218301   7.223   0.347   4.593  1.3725  1.5537  1.1128
 6120TIP3   OH218302   6.652   0.833   5.169  0.5922  0.0396  0.5846
 6120TIP3    H118303   6.657   0.868   5.080 -1.2725 -0.4664  0.2525
 6120TIP3    H218304   6.574   0.874   5.206  0.2674 -1.2148  1.3202
 6121TIP3   OH218305   7.926   1.799   4.580  0.6100  0.3979 -0.2142
 6121TIP3    H118306   7.831   1.807   4.592  0.5614 -0.5658  0.0432
 6121TIP3    H218307   7.956   1.889   4.568 -0.3957  0.6768 -0.7164
 6122TIP3   OH218308   8.224   1.836   2.676 -0.1149  0.1661  0.2492
 6122TIP3    H118309   8.267   1.820   2.592  0.4940 -0.3567  0.6566
 6122TIP3    H218310   8.133   1.810   2.661  0.1754 -0.7156 -0.0065
 6123TIP3   OH218311   7.343   2.629   5.539 -0.3252 -0.2405  0.5295
 6123TIP3    H118312   7.409   2.692   5.509  0.7845 -0.6764  1.9739
 6123TIP3    H218313   7.376   2.544   5.510 -1.0822 -0.3106 -0.1450
 6124TIP3   OH218314   4.865   7.296   3.897  0.5887 -0.0321 -0.0439
 6124TIP3    H118315   4.924   7.372   3.898  0.8007 -0.1914 -0.4553
 6124TIP3    H218316   4.831   7.291   3.986 -0.2526  1.2048 -0.2823
 6125TIP3   OH218317   7.934   2.774   4.311 -0.2001  0.0010 -0.2219
 6125TIP3    H118318   7.843   2.798   4.297 -0.2379 -0.6065 -1.0310
 6125TIP3    H218319   7.983   2.854   4.290 -0.4365 -0.1525 -1.4078
 6126TIP3   OH218320   3.488   6.828   4.837 -0.6498 -0.3022  0.6119
 6126TIP3    H118321   3.433   6.778   4.777 -0.7255  0.8832 -0.3068
 6126TIP3    H218322   3.427   6.882   4.887 -0.6856 -1.9586  2.4527
 6127TIP3   OH218323   0.342   0.518   5.813 -0.1852  0.2606 -0.0690
 6127TIP3    H118324   0.369   0.579   5.882  1.9207  0.7973 -1.3393
 6127TIP3    H218325   0.407   0.529   5.744 -0.4741 -2.5504 -0.8379
 6128TIP3   OH218326   5.982   7.907   3.146  0.3222 -0.3956 -1.0801
 6128TIP3    H118327   5.926   7.970   3.193 -1.3413 -1.0442 -2.1340
 6128TIP3    H218328   5.988   7.832   3.204 -1.6798 -1.1727 -1.8405
 6129TIP3   OH218329   0.194   0.857   3.376  0.2503  0.3206  0.2153
 6129TIP3    H118330   0.241   0.940   3.391  1.5997 -0.2458 -0.7259
 6129TIP3    H218331   0.202   0.842   3.282  0.3345 -1.0662  0.4295
 6130TIP3   OH218332   1.007   1.664   3.342  0.5528 -0.2181 -0.3756
 6130TIP3    H118333   1.094   1.635   3.371  0.3072  0.3099  0.9117
 6130TIP3    H218334   1.003   1.756   3.367 -0.6676 -0.4358  0.2477
 6131TIP3   OH218335   7.215   2.441   4.761  0.0457  0.2933  0.2702
 6131TIP3    H118336   7.152   2.503   4.797  0.2766  1.1311 -0.7720
 6131TIP3    H218337   7.287   2.441   4.825 -1.3532 -1.3527  1.9413
 6132TIP3   OH218338   7.949   0.580   6.296 -0.0826  0.2194  0.1433
 6132TIP3    H118339   8.006   0.652   6.322 -0.3265  0.0192  1.2751
 6132TIP3    H218340   7.876   0.583   6.359  0.0134 -1.1370  0.3404
 6133TIP3   OH218341   1.358   0.671   6.804  0.1039  0.8159 -0.0422
 6133TIP3    H118342   1.373   0.626   6.721 -0.6412  1.7163 -0.6653
 6133TIP3    H218343   1.445   0.702   6.831  0.5333 -0.4726  0.1081
 6134TIP3   OH218344   0.518   0.648   3.656  0.1625  0.2602 -0.1421
 6134TIP3    H118345   0.501   0.560   3.689  2.7887 -0.9473 -1.8721
 6134TIP3    H218346   0.435   0.694   3.667 -1.5702 -2.7308 -0.2268
 6135TIP3   OH218347   5.111   7.279   5.341 -0.3758  0.1141  0.6959
 6135TIP3    H118348   5.064   7.275   5.424 -2.1364 -2.3456 -0.3520
 6135TIP3    H218349   5.191   7.230   5.356 -0.8951 -0.6969  0.8217
 6136TIP3   OH218350   7.154   1.545   4.078 -0.2924 -0.0392  0.5779
 6136TIP3    H118351   7.148   1.475   4.014 -1.2166  0.2833  0.2991
 6136TIP3    H218352   7.247   1.568   4.081 -0.0024 -1.2223  0.6256
 6137TIP3   OH218353   6.960   1.028   6.869  0.0334  0.1881 -0.7814
 6137TIP3    H118354   6.911   1.110   6.865 -1.0874 -0.4618 -0.5917
 6137TIP3    H218355   6.946   0.988   6.783  0.8815  0.3711 -1.0024
 6138TIP3   OH218356   8.250   2.208   5.422 -0.1410 -0.6523  0.2924
 6138TIP3    H118357   8.319   2.220   5.487  1.0426 -2.3184 -0.6189
 6138TIP3    H218358   8.295   2.173   5.345 -1.8509 -0.8694 -0.6419
 6139TIP3   OH218359   6.600   0.370   4.957 -0.5929  0.0534  0.5104
 6139TIP3    H118360   6.599   0.464   4.941 -1.4111 -0.1954 -0.9073
 6139TIP3    H218361   6.544   0.358   5.034 -0.0546  0.7758  1.0229
 6140TIP3   OH218362   7.578   1.758   3.039  0.3962  0.2202 -0.2222
 6140TIP3    H118363   7.549   1.799   2.957  0.3613 -0.3950 -0.5168
 6140TIP3    H218364   7.578   1.664   3.021  2.9154  0.2292 -0.3230
 6141TIP3   OH218365   6.748   3.092   6.293  0.6727 -0.3087  0.0650
 6141TIP3    H118366   6.824   3.036   6.307  1.4414  0.4604 -0.9517
 6141TIP3    H218367   6.735   3.136   6.377  1.1992 -0.6328  0.3182
 6142TIP3   OH218368   7.696   1.111   5.094  0.4068 -0.5204  0.2851
 6142TIP3    H118369   7.758   1.166   5.046  0.4109 -1.0689 -0.3330
 6142TIP3    H218370   7.744   1.083   5.172  0.0849  1.1599  1.1112
 6143TIP3   OH218371   6.868   3.369   4.922 -0.0574  0.5372  0.7682
 6143TIP3    H118372   6.870   3.319   4.841 -0.6152 -0.0835  1.1324
 6143TIP3    H218373   6.926   3.443   4.906 -0.2022  0.4428 -0.2096
 6144TIP3   OH218374   0.110   1.086   4.697  0.5711  0.6202 -0.3480
 6144TIP3    H118375   0.051   1.012   4.698  2.6282 -1.1325 -2.5691
 6144TIP3    H218376   0.056   1.160   4.669 -1.4276 -0.0166  1.6539
 6145TIP3   OH218377   7.792   1.535   6.636  0.1089 -0.3918  0.3008
 6145TIP3    H118378   7.841   1.592   6.696  0.6558 -0.4965 -0.0390
 6145TIP3    H218379   7.707   1.577   6.627  0.4458  0.2889  0.1883
 6146TIP3   OH218380   6.842   7.968   4.759  0.5878  0.4270 -0.1604
 6146TIP3    H118381   6.928   8.010   4.762  0.2983  1.1521 -1.6859
 6146TIP3    H218382   6.784   8.029   4.804  0.3552  1.2396 -1.5289
 6147TIP3   OH218383   6.338   3.644   4.288  0.5570 -0.9656 -0.0160
 6147TIP3    H118384   6.245   3.644   4.310  0.2409 -1.4566 -1.2607
 6147TIP3    H218385   6.374   3.719   4.335 -1.1440  1.2857 -2.1660
 6148TIP3   OH218386   5.966   0.912   4.937 -0.4012  0.0735  0.2396
 6148TIP3    H118387   5.976   0.828   4.981  0.5565  1.1932  2.2482
 6148TIP3    H218388   5.893   0.955   4.981 -1.9360 -0.3270 -1.8409
 6149TIP3   OH218389   6.174   2.561   6.509  0.0088  0.2706 -0.2524
 6149TIP3    H118390   6.171   2.469   6.483  0.0398  0.8395 -2.3250
 6149TIP3    H218391   6.103   2.603   6.461 -0.0725  1.3156  0.7483
 6150TIP3   OH218392   7.501   2.339   4.880 -0.1242 -0.2571  0.5168
 6150TIP3    H118393   7.501   2.420   4.931  1.8579  0.0086  0.1303
 6150TIP3    H218394   7.591   2.309   4.883  0.5076  0.8134 -4.4482
 6151TIP3   OH218395   2.497   7.642   4.662 -0.2157 -0.0929 -0.0715
 6151TIP3    H118396   2.478   7.550   4.679 -0.4512  0.1141  0.8117
 6151TIP3    H218397   2.413   7.680   4.638  0.0305 -0.2801 -1.2692
 6152TIP3   OH218398   6.576   1.895   4.300 -0.1924  0.2264 -0.2430
 6152TIP3    H118399   6.590   1.853   4.385  0.0532 -0.8761 -0.8321
 6152TIP3    H218400   6.486   1.926   4.304 -0.0419  0.5879  0.5970
 6153TIP3   OH218401   6.682   0.757   2.132 -0.1183  0.3582  0.1682
 6153TIP3    H118402   6.649   0.705   2.059  0.8644  1.3882 -1.0360
 6153TIP3    H218403   6.720   0.835   2.091 -1.5937  2.0636  1.9334
 6154TIP3   OH218404   1.119   2.659   0.828  0.0042  0.0300  0.5533
 6154TIP3    H118405   1.212   2.673   0.850  0.4043  1.4543 -1.8563
 6154TIP3    H218406   1.076   2.740   0.854  0.3392  1.3897 -2.8956
 6155TIP3   OH218407   4.772   0.768   4.042  0.9600  0.3337 -0.5269
 6155TIP3    H118408   4.774   0.825   3.966  0.1825  0.6433 -0.3218
 6155TIP3    H218409   4.781   0.827   4.117  0.1233  0.1988 -0.3133
 6156TIP3   OH218410   8.455   2.189   5.579 -0.0129 -0.2884 -0.7708
 6156TIP3    H118411   8.532   2.175   5.523  0.6574 -2.1047  0.5382
 6156TIP3    H218412   8.455   2.113   5.638 -0.5912  1.6518  1.8133
 6157TIP3   OH218413   3.646   4.667   1.436 -0.1179  0.3988  0.0415
 6157TIP3    H118414   3.583   4.615   1.486 -0.0965 -0.3597 -0.7169
 6157TIP3    H218415   3.713   4.604   1.409  0.1111  0.8894 -0.5521
 6158TIP3   OH218416   6.079   0.695   2.966 -0.1334 -0.0104 -0.4221
 6158TIP3    H118417   6.016   0.761   2.996  1.3208  1.2960 -0.2106
 6158TIP3    H218418   6.148   0.695   3.032 -0.7734 -2.7562  0.3201
 6159TIP3   OH218419   6.824   0.582   3.091  0.1268  0.3551  0.4264
 6159TIP3    H118420   6.741   0.580   3.043  0.9243  0.4307 -0.9624
 6159TIP3    H218421   6.836   0.492   3.122 -0.8435  0.5099  1.2858
 6160TIP3   OH218422   7.352   1.541   2.813 -0.5895 -0.4888 -0.0592
 6160TIP3    H118423   7.421   1.608   2.811 -0.5245 -0.5700 -0.4429
 6160TIP3    H218424   7.396   1.464   2.849 -0.2546 -0.8013 -1.1358
 6161TIP3   OH218425   0.395   2.882   5.238  0.3060  0.5998  0.6684
 6161TIP3    H118426   0.365   2.953   5.181 -0.4097 -1.6129 -1.8347
 6161TIP3    H218427   0.487   2.871   5.214  0.0596 -0.1896  0.0428
 6162TIP3   OH218428   1.132   0.213   6.021  0.2492  0.3803  0.0950
 6162TIP3    H118429   1.196   0.283   6.007 -0.3325  1.3380  2.0735
 6162TIP3    H218430   1.048   0.258   6.029 -0.6311 -0.8326 -1.9946
 6163TIP3   OH218431   7.131   2.890   4.753 -0.2493 -0.0527 -0.1149
 6163TIP3    H118432   7.108   2.800   4.777 -1.1351  0.2600  0.2217
 6163TIP3    H218433   7.128   2.890   4.657 -0.2043 -0.3961 -0.1173
 6164TIP3   OH218434   1.370   1.467   3.890 -0.3405  0.3610  0.8175
 6164TIP3    H118435   1.324   1.550   3.878 -0.5489 -0.1331 -2.0758
 6164TIP3    H218436   1.301   1.403   3.908 -0.5965  0.0211 -1.3338
 6165TIP3   OH218437   7.779   0.900   5.471  0.2257 -0.1146  0.4190
 6165TIP3    H118438   7.841   0.902   5.544 -0.0142  2.3115  0.5817
 6165TIP3    H218439   7.833   0.909   5.393  0.1548  1.2599  0.5213
 6166TIP3   OH218440   0.671   1.402   2.386  0.0143 -0.3707  0.0271
 6166TIP3    H118441   0.701   1.431   2.472 -0.5724 -1.9544  0.7884
 6166TIP3    H218442   0.712   1.463   2.325  1.1407  0.2561  1.3643
 6167TIP3   OH218443   4.965   7.730   5.482  0.3387  0.6961  0.1992
 6167TIP3    H118444   4.958   7.647   5.528 -1.8955 -0.3135 -1.8799
 6167TIP3    H218445   4.938   7.796   5.546  0.9536 -0.2816  1.4742
 6168TIP3   OH218446   7.221   7.635   5.259 -0.1455 -0.5278  0.3564
 6168TIP3    H118447   7.184   7.546   5.257  1.5455 -1.2930  1.5062
 6168TIP3    H218448   7.219   7.659   5.352 -0.2098  0.4880  0.0962
 6169TIP3   OH218449   5.258   7.863   2.891  0.4111  0.5595  0.1461
 6169TIP3    H118450   5.204   7.797   2.847  1.2628  0.2465 -0.4273
 6169TIP3    H218451   5.200   7.900   2.958  0.0615 -1.1113  0.8083
 6170TIP3   OH218452   7.036   1.649   5.788  0.3666 -0.0819  0.4084
 6170TIP3    H118453   6.974   1.644   5.861 -0.2171  0.7393 -0.0216
 6170TIP3    H218454   7.110   1.595   5.815  0.0388  0.0108  1.5006
 6171TIP3   OH218455   6.875   2.274   2.861  0.5465 -0.3792  0.0305
 6171TIP3    H118456   6.911   2.360   2.840 -0.3856 -0.3412 -1.5278
 6171TIP3    H218457   6.780   2.283   2.847  0.2191 -1.1689  1.5969
 6172TIP3   OH218458   6.474   0.284   2.694 -0.4331 -0.0013  0.3931
 6172TIP3    H118459   6.437   0.306   2.608 -1.5163 -0.9110  0.6221
 6172TIP3    H218460   6.468   0.189   2.700 -2.9803  0.2571  2.6331
 6173TIP3   OH218461   4.875   7.666   4.172  0.1014  0.4425 -0.1687
 6173TIP3    H118462   4.880   7.574   4.194  0.7294  0.8910  1.6131
 6173TIP3    H218463   4.894   7.712   4.253 -1.3880  2.1616 -0.7500
 6174TIP3   OH218464   8.121   0.069   4.441 -0.5797 -0.4591  0.5588
 6174TIP3    H118465   8.210   0.104   4.429 -0.1016 -1.9820 -0.4661
 6174TIP3    H218466   8.066   0.147   4.451  0.8545  0.5056  1.1360
 6175TIP3   OH218467   6.893   3.035   4.410  0.2038  0.0320 -0.1250
 6175TIP3    H118468   6.983   3.012   4.432  0.1959 -0.0261 -0.1543
 6175TIP3    H218469   6.887   3.129   4.430  0.5370  0.2442 -1.0049
 6176TIP3   OH218470   0.716   1.363   3.656 -0.1955  0.3072 -0.1270
 6176TIP3    H118471   0.626   1.336   3.673  0.0232 -0.8356 -0.7667
 6176TIP3    H218472   0.708   1.447   3.611 -0.9578 -0.0752 -0.7042
 6177TIP3   OH218473   0.498   1.482   4.628 -0.3134  0.1722 -0.1457
 6177TIP3    H118474   0.478   1.396   4.663  2.1508  0.1803  1.3692
 6177TIP3    H218475   0.418   1.509   4.583 -1.0728 -2.9202 -0.7294
 6178TIP3   OH218476   7.622   1.682   2.703  0.8032  0.1966 -0.4011
 6178TIP3    H118477   7.558   1.662   2.634 -0.7527 -0.6243  1.2390
 6178TIP3    H218478   7.700   1.634   2.677  0.3814  0.2393 -1.8158
 6179TIP3   OH218479   7.773   1.092   3.333 -0.0103  0.0789  0.8799
 6179TIP3    H118480   7.744   1.009   3.370 -0.6009  0.2718  0.8683
 6179TIP3    H218481   7.701   1.153   3.353  0.1604  0.4469  0.3848
 6180TIP3   OH218482   7.008   7.136   3.570 -0.2500  0.1058  0.2485
 6180TIP3    H118483   7.075   7.202   3.586 -1.6481  1.7444 -0.4743
 6180TIP3    H218484   6.981   7.106   3.657  1.2412 -0.4044  0.5433
 6181TIP3   OH218485   4.399   7.654   1.921  0.2957  0.1749 -0.6955
 6181TIP3    H118486   4.430   7.659   2.012  0.0910  0.7824 -0.6588
 6181TIP3    H218487   4.354   7.570   1.916 -0.6302  0.6127  0.0579
 6182TIP3   OH218488   2.569   1.348   4.196  0.2928  0.8094  0.3597
 6182TIP3    H118489   2.547   1.402   4.120 -2.0835  0.0116  0.4535
 6182TIP3    H218490   2.574   1.259   4.162 -1.5390  0.3444  1.2702
 6183TIP3   OH218491   8.374   1.466   3.077  0.4443  0.2020 -0.1447
 6183TIP3    H118492   8.311   1.501   3.141  0.4333 -1.2940  0.6984
 6183TIP3    H218493   8.443   1.428   3.131  1.0812  0.0761 -1.0500
 6184TIP3   OH218494   0.440   1.273   2.790 -0.4997 -0.1218  0.0556
 6184TIP3    H118495   0.441   1.307   2.701  1.1019 -0.5429 -0.1082
 6184TIP3    H218496   0.388   1.192   2.784 -0.6491  0.0067 -0.4303
 6185TIP3   OH218497   1.272   0.662   3.521 -0.7215  0.5165  0.5144
 6185TIP3    H118498   1.316   0.706   3.594 -0.7519 -0.3353  1.0637
 6185TIP3    H218499   1.199   0.615   3.562 -0.3367 -0.5162  0.0347
 6186TIP3   OH218500   7.479   1.641   4.737  0.4100 -0.3317  0.8502
 6186TIP3    H118501   7.388   1.648   4.766  0.7569 -0.5993  2.0521
 6186TIP3    H218502   7.511   1.561   4.778  0.9590 -0.6580 -0.2073
 6187TIP3   OH218503   0.658   3.544   3.360  0.2323  0.0714  0.4291
 6187TIP3    H118504   0.725   3.583   3.304 -0.5383  2.6455  1.2014
 6187TIP3    H218505   0.703   3.530   3.444  0.2289  0.2721  0.4640
 6188TIP3   OH218506   0.501   1.914   4.445  0.4546  0.1664  0.0426
 6188TIP3    H118507   0.479   1.987   4.387 -0.6452 -0.9747 -1.0005
 6188TIP3    H218508   0.523   1.956   4.528 -2.3476  1.5859  0.1378
 6189TIP3   OH218509   1.005   1.049   1.998 -1.0191  0.2885  0.4553
 6189TIP3    H118510   0.941   1.004   2.053 -0.7584 -1.8156 -0.8867
 6189TIP3    H218511   0.964   1.053   1.912 -0.4140  1.2898  0.2057
 6190TIP3   OH218512   8.061   1.667   3.794  0.1327  0.5240  0.0504
 6190TIP3    H118513   8.128   1.706   3.851  0.1480  1.6305 -0.7184
 6190TIP3    H218514   8.110   1.606   3.738  0.1470 -0.4120  1.0599
 6191TIP3   OH218515   7.856   7.768   4.459 -0.0465  0.0782 -0.3903
 6191TIP3    H118516   7.804   7.761   4.539  1.9181 -2.0991  0.7418
 6191TIP3    H218517   7.835   7.688   4.410  2.2617 -0.8600  0.1214
 6192TIP3   OH218518   2.907   1.387   5.996 -0.1120  0.2434  0.3166
 6192TIP3    H118519   2.996   1.381   6.030  0.1054  2.4487  0.2164
 6192TIP3    H218520   2.872   1.468   6.034 -1.2691  0.6077 -1.4602
 6193TIP3   OH218521   0.868   1.839   6.608  0.8073  0.4669 -0.0604
 6193TIP3    H118522   0.918   1.769   6.649 -0.6464 -0.2051  0.5846
 6193TIP3    H218523   0.898   1.919   6.651  1.7296  0.1271 -0.0739
 6194TIP3   OH218524   2.737   3.071   5.764 -0.1835 -0.1111 -0.2251
 6194TIP3    H118525   2.769   2.996   5.815  1.0069  0.3528 -0.2923
 6194TIP3    H218526   2.797   3.142   5.784 -0.5176  0.4638 -1.2090
 6195TIP3   OH218527   3.424   6.105   0.433  0.3635 -0.4996 -0.2343
 6195TIP3    H118528   3.444   6.028   0.487  1.0754 -0.2113 -0.0760
 6195TIP3    H218529   3.455   6.179   0.486 -1.8112  0.0367  0.3544
 6196TIP3   OH218530   8.346   8.016   5.958 -0.0087 -0.0710  0.3110
 6196TIP3    H118531   8.354   7.924   5.933  0.7365  0.8012 -2.9142
 6196TIP3    H218532   8.269   8.047   5.911 -0.5174  0.8785  1.7298
 6197TIP3   OH218533   0.217   4.589   5.630  0.4342 -0.3281 -0.0090
 6197TIP3    H118534   0.297   4.637   5.652  0.4525 -0.4242  0.1378
 6197TIP3    H218535   0.178   4.638   5.557  0.1323  0.2467  0.5383
 6198TIP3   OH218536   0.742   2.058   5.512  0.0985 -0.2075  0.3745
 6198TIP3    H118537   0.777   2.012   5.588 -0.5235  0.2762  0.9600
 6198TIP3    H218538   0.738   2.150   5.539  1.1627  0.1777 -0.7163
 6199TIP3   OH218539   5.938   5.051   0.446 -0.0199  0.1965 -0.0918
 6199TIP3    H118540   5.912   5.090   0.362  1.4793  0.3101 -0.5225
 6199TIP3    H218541   6.030   5.076   0.456 -0.0153 -0.3416  1.2986
 6200TIP3   OH218542   2.467   0.667   3.015  0.5967 -0.4864  0.0137
 6200TIP3    H118543   2.428   0.630   2.935 -2.2506  0.3692  0.9498
 6200TIP3    H218544   2.527   0.599   3.045  0.6733 -1.4093 -2.1062
 6201TIP3   OH218545   0.723   1.135   6.773 -0.3306 -0.2469  0.1454
 6201TIP3    H118546   0.682   1.177   6.697  1.2410 -1.1066 -1.2238
 6201TIP3    H218547   0.742   1.046   6.744 -0.8242 -0.9674  1.9810
 6202TIP3   OH218548   0.866   6.997   3.580  0.1135  0.1470  0.2204
 6202TIP3    H118549   0.915   6.966   3.656  1.1026  0.0425 -0.4548
 6202TIP3    H218550   0.915   7.074   3.549 -1.2447  1.2328  0.7197
 6203TIP3   OH218551   0.659   1.364   6.293 -0.1499  0.2643  1.0578
 6203TIP3    H118552   0.702   1.413   6.363 -0.2896  2.8584 -0.5977
 6203TIP3    H218553   0.580   1.415   6.274  0.5563  0.3684 -1.8618
 6204TIP3   OH218554   7.837   0.716   4.636  0.0983 -0.1880 -0.1803
 6204TIP3    H118555   7.804   0.731   4.547 -0.5049  1.1892  0.2548
 6204TIP3    H218556   7.773   0.657   4.676  0.7555 -1.3958 -0.8772
 6205TIP3   OH218557   2.315   2.449   3.451  0.7455  0.2085 -0.0609
 6205TIP3    H118558   2.244   2.405   3.404  1.3433  0.9621 -1.7155
 6205TIP3    H218559   2.393   2.434   3.397  1.1671  2.3353 -0.0737
 6206TIP3   OH218560   6.584   6.741   4.247 -0.4924 -0.4080 -0.3430
 6206TIP3    H118561   6.678   6.726   4.263 -0.4635  0.3164  0.2150
 6206TIP3    H218562   6.562   6.814   4.305 -1.6370 -1.2452  0.2952
 6207TIP3   OH218563   1.781   0.762   6.231 -0.1657 -0.0886 -0.0282
 6207TIP3    H118564   1.861   0.776   6.280  0.0911  1.1404 -0.7608
 6207TIP3    H218565   1.792   0.677   6.189  0.2853 -0.4157  0.7532
 6208TIP3   OH218566   8.145   7.230   5.451  0.1273  0.0091 -0.1945
 6208TIP3    H118567   8.214   7.174   5.416  0.0839  0.2823 -0.7276
 6208TIP3    H218568   8.103   7.177   5.519  1.3815  0.1406  0.6969
 6209TIP3   OH218569   3.039   3.014   4.891  0.0564  0.0387  0.4126
 6209TIP3    H118570   3.050   3.062   4.808 -1.1061  0.4409  0.4906
 6209TIP3    H218571   3.105   2.944   4.887  0.9589  0.9157 -0.2265
 6210TIP3   OH218572   0.924   1.701   4.774 -0.2870 -0.6759 -0.3349
 6210TIP3    H118573   0.841   1.745   4.758  0.3429  0.5930 -0.1650
 6210TIP3    H218574   0.922   1.680   4.867 -0.1826 -0.1271 -0.2048
 6211TIP3   OH218575   1.563   0.358   5.467  0.1290 -0.6148  0.5027
 6211TIP3    H118576   1.645   0.365   5.515  0.2284 -0.3055  0.2881
 6211TIP3    H218577   1.587   0.318   5.383  0.0644 -0.5039  0.4310
 6212TIP3   OH218578   7.686   2.040   5.600 -0.4775  0.2770  0.3486
 6212TIP3    H118579   7.704   2.016   5.691 -1.3072 -0.0055  0.4402
 6212TIP3    H218580   7.773   2.049   5.560 -0.1058 -2.1420  0.5019
 6213TIP3   OH218581   1.339   3.184   5.874  0.0593  0.4113  0.0595
 6213TIP3    H118582   1.362   3.125   5.802 -2.6692 -0.4544 -0.1651
 6213TIP3    H218583   1.272   3.242   5.837  0.1949  1.3576  1.2810
 6214TIP3   OH218584   2.314   0.799   6.913 -0.1697  0.2890 -0.4470
 6214TIP3    H118585   2.248   0.849   6.865  0.6332  1.0362 -0.7860
 6214TIP3    H218586   2.384   0.863   6.931  0.6312 -0.5775 -0.4315
 6215TIP3   OH218587   1.763   0.840   6.696  0.4245 -0.9435 -0.5246
 6215TIP3    H118588   1.706   0.881   6.632  0.9979  1.6757  0.5568
 6215TIP3    H218589   1.852   0.853   6.661  0.7025  0.0178  0.5162
 6216TIP3   OH218590   8.330   3.734   5.365 -0.3377 -0.4720 -1.0450
 6216TIP3    H118591   8.338   3.661   5.303  0.6998 -0.2374 -1.1921
 6216TIP3    H218592   8.325   3.812   5.309 -0.3099 -0.3334 -0.8524
 6217TIP3   OH218593   6.889   5.863   3.619 -0.0254  0.1072 -0.3638
 6217TIP3    H118594   6.891   5.951   3.581 -1.8920  0.3888  0.1652
 6217TIP3    H218595   6.905   5.876   3.712  2.7245 -0.4163 -0.7285
 6218TIP3   OH218596   3.402   3.051   3.962 -0.7753 -0.0782  0.1890
 6218TIP3    H118597   3.486   3.075   4.003  0.1352 -1.4815 -0.8422
 6218TIP3    H218598   3.367   2.983   4.019 -0.6298 -0.3440 -0.0343
 6219TIP3   OH218599   0.754   2.436   6.040 -0.5148 -0.1885 -0.8047
 6219TIP3    H118600   0.732   2.524   6.012 -0.3013 -0.4012 -1.6319
 6219TIP3    H218601   0.743   2.382   5.962  1.4962 -0.5494 -0.8655
 6220TIP3   OH218602   1.106   0.223   5.287 -0.9167 -0.2463  0.1903
 6220TIP3    H118603   1.015   0.193   5.286 -0.6580 -1.0497 -1.7035
 6220TIP3    H218604   1.111   0.288   5.217  0.6597 -2.4517 -1.8372
 6221TIP3   OH218605   1.047   2.330   3.983 -0.2008 -0.3354  0.3844
 6221TIP3    H118606   1.071   2.253   3.933  2.1654 -0.0525  1.0570
 6221TIP3    H218607   1.113   2.395   3.961 -0.6714  0.6592  1.8297
 6222TIP3   OH218608   2.204   0.777   4.664  0.6179  0.2684 -0.0698
 6222TIP3    H118609   2.232   0.816   4.747  0.5914 -0.5827  0.3472
 6222TIP3    H218610   2.199   0.850   4.603 -1.5439  1.2915  1.2614
 6223TIP3   OH218611   1.203   1.264   4.461 -0.0537 -0.2878  0.1067
 6223TIP3    H118612   1.118   1.265   4.417  1.1165  1.0989 -2.2633
 6223TIP3    H218613   1.264   1.233   4.394  1.4037 -0.6213  1.5604
 6224TIP3   OH218614   2.532   0.340   4.636  0.8098 -0.5645 -0.6205
 6224TIP3    H118615   2.603   0.307   4.580  0.5448 -1.7490 -0.2835
 6224TIP3    H218616   2.453   0.301   4.599  0.5245 -0.5758  0.0009
 6225TIP3   OH218617   1.617   0.262   5.219 -0.1367  0.2906 -0.4711
 6225TIP3    H118618   1.696   0.260   5.165  0.4681  1.0615  0.3745
 6225TIP3    H218619   1.545   0.269   5.157  0.3645 -1.8048 -1.3276
 6226TIP3   OH218620   0.532   0.686   5.684 -0.1860 -0.2831 -0.5030
 6226TIP3    H118621   0.627   0.693   5.678  0.1291 -1.1042  2.9598
 6226TIP3    H218622   0.500   0.772   5.658  1.4453 -0.0736 -1.9369
 6227TIP3   OH218623   0.407   2.128   4.329  0.0581 -0.2410  0.0473
 6227TIP3    H118624   0.340   2.191   4.302  2.0824  2.3049  0.7873
 6227TIP3    H218625   0.490   2.171   4.309  1.5357 -1.6494  2.8587
 6228TIP3   OH218626   1.870   1.833   6.177 -0.1030  0.0451  0.0949
 6228TIP3    H118627   1.829   1.888   6.244 -1.1962  1.4275 -1.6603
 6228TIP3    H218628   1.914   1.764   6.226 -2.5245 -0.1008  2.1764
 6229TIP3   OH218629   7.447   6.846   6.834  0.6124 -0.1725 -0.3521
 6229TIP3    H118630   7.442   6.848   6.930 -0.0465 -0.5779 -0.3789
 6229TIP3    H218631   7.499   6.923   6.812 -0.2154  0.5739  0.2653
 6230TIP3   OH218632   1.008   2.672   4.382  0.3371  0.1087  0.3382
 6230TIP3    H118633   1.095   2.705   4.360  0.1853  0.1769 -0.1769
 6230TIP3    H218634   0.954   2.751   4.390 -0.1803 -0.0273 -1.5655
 6231TIP3   OH218635   1.200   1.484   6.565  0.1520 -0.0117  0.1371
 6231TIP3    H118636   1.148   1.467   6.487 -0.3426  0.6388  0.3194
 6231TIP3    H218637   1.144   1.540   6.619  0.7090 -0.0035  0.7101
 6232TIP3   OH218638   1.561   1.397   2.891  0.0184  0.0287 -0.2207
 6232TIP3    H118639   1.506   1.402   2.812  1.0868 -0.1428 -0.9878
 6232TIP3    H218640   1.505   1.429   2.962 -0.0777  2.7858 -1.4855
 6233TIP3   OH218641   4.165   7.577   6.025  0.3526 -0.1332 -0.2258
 6233TIP3    H118642   4.196   7.619   5.945 -0.2056 -0.1011 -0.4203
 6233TIP3    H218643   4.186   7.640   6.095  1.0842 -0.2761 -0.3047
 6234TIP3   OH218644   1.781   0.774   4.904  0.1122 -0.4153  0.7666
 6234TIP3    H118645   1.768   0.708   4.972 -2.0449 -0.7684  0.0447
 6234TIP3    H218646   1.842   0.733   4.843 -0.5865 -1.4269  0.7414
 6235TIP3   OH218647   0.717   2.923   6.111 -0.2282 -0.2002 -0.0236
 6235TIP3    H118648   0.781   2.938   6.181 -0.4510 -0.0111  0.1399
 6235TIP3    H218649   0.741   2.987   6.044  1.3139 -1.8104 -1.0362
 6236TIP3   OH218650   6.726   7.782   4.604  0.2082  0.1020 -0.3048
 6236TIP3    H118651   6.779   7.852   4.644  0.5134  0.7504 -1.8363
 6236TIP3    H218652   6.635   7.809   4.618  0.2739 -0.3507  1.1349
 6237TIP3   OH218653   2.257   4.636   6.020 -0.2635 -0.2283 -0.2310
 6237TIP3    H118654   2.244   4.555   5.971 -0.1744 -0.9021  0.8454
 6237TIP3    H218655   2.176   4.685   6.008 -0.4371 -0.6097 -0.6344
 6238TIP3   OH218656   7.433   7.955   4.758  0.0746 -0.0426  0.2696
 6238TIP3    H118657   7.382   8.000   4.690 -0.8138 -0.5364  0.5938
 6238TIP3    H218658   7.471   8.025   4.810  0.0270  0.3371 -0.1997
 6239TIP3   OH218659   6.430   5.238   5.087  0.0316 -0.7099  0.2451
 6239TIP3    H118660   6.439   5.287   5.169 -0.6283  0.8141 -0.5923
 6239TIP3    H218661   6.511   5.187   5.081 -0.5798 -2.0613  2.6443
 6240TIP3   OH218662   5.785   7.332   6.174  0.3846  0.1987 -0.2681
 6240TIP3    H118663   5.855   7.303   6.115 -0.0128  0.4258 -0.8564
 6240TIP3    H218664   5.831   7.365   6.251  0.8514 -1.7607  0.3084
 6241TIP3   OH218665   2.327   2.502   5.046  0.0390  0.3534  0.2260
 6241TIP3    H118666   2.278   2.561   4.988  2.4096  1.2141 -0.9390
 6241TIP3    H218667   2.386   2.560   5.094  0.7967 -0.8169  0.7126
 6242TIP3   OH218668   7.490   7.166   5.368 -0.2381  0.4144  0.4961
 6242TIP3    H118669   7.585   7.176   5.361  0.0482 -1.1880  1.9262
 6242TIP3    H218670   7.461   7.247   5.411  0.2716  1.5664 -1.2614
 6243TIP3   OH218671   3.833   2.438   3.037  0.6878  0.6793 -0.1827
 6243TIP3    H118672   3.912   2.426   2.985  0.3051  1.1831 -0.8875
 6243TIP3    H218673   3.806   2.528   3.019 -0.9511  0.0068 -1.2422
 6244TIP3   OH218674   0.570   2.770   4.938 -0.3024  0.7874 -0.1964
 6244TIP3    H118675   0.630   2.718   4.993 -0.8213 -0.7205 -1.0160
 6244TIP3    H218676   0.621   2.846   4.912  1.1994 -0.3809 -0.7280
 6245TIP3   OH218677   7.717   6.702   6.698 -0.1661 -0.5935  1.0867
 6245TIP3    H118678   7.650   6.691   6.765  1.5512  0.1017  2.9597
 6245TIP3    H218679   7.782   6.635   6.716  0.1974 -0.5744 -0.0556
 6246TIP3   OH218680   0.657   0.392   6.515  0.2410  0.5291  0.0239
 6246TIP3    H118681   0.569   0.396   6.554 -0.4230  1.7391 -1.5408
 6246TIP3    H218682   0.713   0.361   6.586 -1.5754 -1.0936  0.8150
 6247TIP3   OH218683   1.929   2.255   5.165 -0.6459  0.1763  0.2751
 6247TIP3    H118684   2.014   2.275   5.205 -0.2525 -1.9309  0.5137
 6247TIP3    H218685   1.872   2.233   5.238 -1.2621  0.9911  0.0572
 6248TIP3   OH218686   3.762   3.763   4.255 -0.2447 -0.5534 -0.3283
 6248TIP3    H118687   3.694   3.725   4.311 -0.6706  0.4208 -0.1710
 6248TIP3    H218688   3.827   3.797   4.316 -0.8133  0.7020 -0.3902
 6249TIP3   OH218689   0.066   3.640   3.987 -0.1670  0.1543  0.8285
 6249TIP3    H118690   0.149   3.680   4.013  0.1660  0.0458 -0.0529
 6249TIP3    H218691   0.051   3.670   3.897 -0.1006 -1.3667  0.2854
 6250TIP3   OH218692   2.330   2.827   0.041  0.4789  0.0134  0.1728
 6250TIP3    H118693   2.356   2.822  -0.051  1.6691 -0.2546  0.5250
 6250TIP3    H218694   2.257   2.765   0.049  0.6003 -0.2196 -0.5007
 6251TIP3   OH218695   2.841   0.433   4.858  0.4867 -0.2262  1.0630
 6251TIP3    H118696   2.753   0.455   4.825  0.8233  0.7786  0.8061
 6251TIP3    H218697   2.828   0.419   4.952  0.2860  1.3904  1.2992
 6252TIP3   OH218698   2.029   7.073   6.924  0.4017  0.4059 -0.4911
 6252TIP3    H118699   1.983   7.132   6.864 -0.7711  0.9528  0.9283
 6252TIP3    H218700   2.037   6.991   6.875 -3.3556 -0.1597 -0.2842
 6253TIP3   OH218701   8.314   7.183   6.216 -0.3077  0.0386 -0.1519
 6253TIP3    H118702   8.279   7.270   6.233 -0.5188  0.3259 -1.9203
 6253TIP3    H218703   8.263   7.125   6.273  2.6291  1.4763  4.2040
 6254TIP3   OH218704   2.032   1.299   5.250  0.7719 -0.1967  0.1628
 6254TIP3    H118705   2.120   1.262   5.241  0.3342 -1.0937 -0.4631
 6254TIP3    H218706   2.014   1.295   5.344  1.4832  0.1850  0.3183
 6255TIP3   OH218707   0.425   0.070   4.602  0.9457  0.0103 -0.1097
 6255TIP3    H118708   0.358   0.138   4.591 -1.2608 -2.3055 -1.7614
 6255TIP3    H218709   0.449   0.047   4.512  0.9494 -2.0264  0.3998
 6256TIP3   OH218710   1.071   3.264   5.301  0.4762  0.3503 -0.7471
 6256TIP3    H118711   1.003   3.275   5.367 -1.0427 -0.3669 -2.1748
 6256TIP3    H218712   1.098   3.353   5.279 -0.5718  0.6642 -0.7714
 6257TIP3   OH218713   8.133   7.851   5.336  0.0302 -0.2364  0.7854
 6257TIP3    H118714   8.199   7.859   5.405  1.0291 -0.0006 -0.1795
 6257TIP3    H218715   8.178   7.879   5.256 -1.3199  0.1939  0.1519
 6258TIP3   OH218716   6.115   5.636   6.881  0.1987  0.1002  0.2921
 6258TIP3    H118717   6.174   5.711   6.872 -1.0128  0.9254 -1.1422
 6258TIP3    H218718   6.079   5.644   6.969  0.1791  1.1507  0.2007
 6259TIP3   OH218719   0.075   2.465   4.016 -0.2967 -0.0780  0.2992
 6259TIP3    H118720   0.013   2.447   4.087  1.0473 -0.9276  1.2875
 6259TIP3    H218721   0.113   2.550   4.039 -1.4086  0.6664 -0.5541
 6260TIP3   OH218722   3.244   0.662   5.344 -0.4842  0.7013  0.7057
 6260TIP3    H118723   3.281   0.747   5.371 -1.6894  1.7866 -0.9520
 6260TIP3    H218724   3.151   0.668   5.367  0.1086 -1.6527  3.9907
 6261TIP3   OH218725   0.647   1.734   4.635 -0.5706 -0.3672  1.0261
 6261TIP3    H118726   0.668   1.713   4.544  1.2331  0.3703  1.2564
 6261TIP3    H218727   0.581   1.669   4.660 -0.6782 -0.9208 -0.6219
 6262TIP3   OH218728   3.718   4.129   5.648  0.5214 -0.1112  0.6748
 6262TIP3    H118729   3.656   4.057   5.646 -2.7249  2.5612  0.4452
 6262TIP3    H218730   3.753   4.132   5.559 -1.0294 -0.0210  0.0472
 6263TIP3   OH218731   4.244   6.020   0.385 -0.5752  0.3176 -0.7030
 6263TIP3    H118732   4.204   5.946   0.338 -1.0643 -0.5327  1.0210
 6263TIP3    H218733   4.233   6.094   0.326  0.1001 -1.0099 -2.5608
 6264TIP3   OH218734   1.657   1.094   5.114 -0.3742 -0.2568 -0.2801
 6264TIP3    H118735   1.602   1.168   5.138  0.9970  0.7586 -0.2010
 6264TIP3    H218736   1.716   1.128   5.047  0.7592 -1.0619  0.2872
 6265TIP3   OH218737   2.038   1.467   6.889  0.5019  0.2691 -0.2524
 6265TIP3    H118738   2.039   1.373   6.909 -3.1535 -0.0641 -1.3553
 6265TIP3    H218739   2.024   1.472   6.795  2.5224  1.9557 -0.5054
 6266TIP3   OH218740   7.591   5.141   3.990 -0.2116 -0.7824  0.0761
 6266TIP3    H118741   7.524   5.177   3.932  0.0236 -0.5906 -0.0736
 6266TIP3    H218742   7.566   5.171   4.077  0.5821  0.6391 -0.1705
 6267TIP3   OH218743   8.342   2.256   4.600 -0.5572 -0.6286  0.2151
 6267TIP3    H118744   8.281   2.265   4.527 -0.6369  2.5215  0.6170
 6267TIP3    H218745   8.288   2.233   4.675 -0.8715 -0.7147 -0.0377
 6268TIP3   OH218746   3.276   3.037   6.249  0.1706 -0.1403  0.4317
 6268TIP3    H118747   3.254   3.054   6.157 -0.7227  0.2249  0.7056
 6268TIP3    H218748   3.282   2.941   6.254  1.2351 -0.1174 -0.2256
 6269TIP3   OH218749   7.605   7.514   5.731 -0.1225 -0.1885  0.2481
 6269TIP3    H118750   7.690   7.515   5.688 -0.0618 -0.0600  0.3700
 6269TIP3    H218751   7.590   7.605   5.757 -0.5874 -0.0909 -0.3482
 6270TIP3   OH218752   0.520   3.106   4.728  0.2206  0.6330  0.3329
 6270TIP3    H118753   0.429   3.102   4.702 -0.0020 -0.5376  1.2224
 6270TIP3    H218754   0.569   3.072   4.652  0.0114  2.2418 -0.5311
 6271TIP3   OH218755   0.660   2.350   4.336 -0.6850 -0.6377 -0.8076
 6271TIP3    H118756   0.698   2.336   4.249 -0.7520  0.7505 -1.0696
 6271TIP3    H218757   0.734   2.370   4.392 -0.6063 -1.8686 -0.4693
 6272TIP3   OH218758   6.458   7.537   6.124 -0.2886 -0.0693  0.5093
 6272TIP3    H118759   6.394   7.550   6.055  0.8792 -0.9416 -0.7811
 6272TIP3    H218760   6.532   7.593   6.100 -0.4576  0.7770  1.8665
 6273TIP3   OH218761   0.781   0.575   1.778 -0.3000  0.4197  0.4280
 6273TIP3    H118762   0.830   0.656   1.794  0.7258 -0.3060  1.0594
 6273TIP3    H218763   0.805   0.518   1.851 -1.6374 -0.1695  0.4200
 6274TIP3   OH218764   1.270   2.764   5.546  0.2933  0.1960 -0.4042
 6274TIP3    H118765   1.246   2.803   5.462 -1.1229 -0.8854 -0.5164
 6274TIP3    H218766   1.187   2.760   5.595  0.8131 -0.7065  0.4110
 6275TIP3   OH218767   1.133   1.963   5.606  0.0481 -0.0740  0.0825
 6275TIP3    H118768   1.182   2.037   5.642  1.0108 -1.4021  1.5714
 6275TIP3    H218769   1.181   1.886   5.636 -1.0497 -1.3191 -1.2787
 6276TIP3   OH218770   1.690   2.576   3.934 -0.1728  0.3191 -0.4686
 6276TIP3    H118771   1.646   2.598   4.016 -1.7731 -0.3592 -1.1230
 6276TIP3    H218772   1.738   2.655   3.911 -0.4891  0.8435  0.6105
 6277TIP3   OH218773   8.192   0.817   1.833 -0.3949  0.1062  0.2271
 6277TIP3    H118774   8.133   0.743   1.841  1.3156 -1.1399  1.9611
 6277TIP3    H218775   8.153   0.886   1.888 -0.5941 -0.4837  0.8302
 6278TIP3   OH218776   1.833   0.552   5.051 -0.5845  0.1350  0.5791
 6278TIP3    H118777   1.825   0.457   5.046 -0.9456  0.2859 -2.2685
 6278TIP3    H218778   1.798   0.574   5.138 -2.9732 -2.0970  0.2427
 6279TIP3   OH218779   7.504   2.300   4.442 -0.4216  0.1390  0.6932
 6279TIP3    H118780   7.496   2.374   4.503 -0.0225  0.0751  0.8250
 6279TIP3    H218781   7.420   2.255   4.448 -0.0559 -0.4136  1.9053
 6280TIP3   OH218782   1.164   3.764   3.445 -0.3700  0.1508 -0.3339
 6280TIP3    H118783   1.080   3.766   3.492  0.0414 -1.5303  0.5143
 6280TIP3    H218784   1.225   3.807   3.505 -0.4293  0.5298 -0.5457
 6281TIP3   OH218785   1.720   0.590   5.308  0.2069  0.2789  0.1212
 6281TIP3    H118786   1.712   0.533   5.385 -1.4972 -2.3315 -1.8555
 6281TIP3    H218787   1.705   0.678   5.341 -3.9124 -1.0993  2.3397
 6282TIP3   OH218788   7.172   0.696   4.264 -0.1514  0.3583  1.0646
 6282TIP3    H118789   7.161   0.602   4.246 -0.9462  0.5835  0.3330
 6282TIP3    H218790   7.266   0.710   4.259 -0.1627 -0.0158 -0.9568
 6283TIP3   OH218791   0.130   1.325   5.713  0.0912 -0.4051 -0.3185
 6283TIP3    H118792   0.215   1.309   5.672  0.2574  0.4796 -0.3370
 6283TIP3    H218793   0.151   1.357   5.801 -0.2634 -2.4262  0.5302
 6284TIP3   OH218794   2.971   1.301   5.160  0.0130 -0.6056 -0.3465
 6284TIP3    H118795   2.916   1.291   5.237 -0.1539 -1.4430 -0.5703
 6284TIP3    H218796   2.912   1.333   5.092  0.0754 -0.2526 -0.2338
 6285TIP3   OH218797   0.437   1.697   5.012  0.5108 -0.5261  0.1450
 6285TIP3    H118798   0.510   1.734   4.962 -0.2907  0.5605 -0.2454
 6285TIP3    H218799   0.371   1.766   5.012 -1.3549 -2.2554 -1.3192
 6286TIP3   OH218800   0.628   2.622   5.674 -0.2643 -0.0929 -0.3996
 6286TIP3    H118801   0.630   2.650   5.583  0.2841 -0.7726 -0.5999
 6286TIP3    H218802   0.537   2.596   5.689  0.0987 -2.0314 -1.3882
 6287TIP3   OH218803   7.513   7.572   5.433 -0.1836 -0.3350 -0.4298
 6287TIP3    H118804   7.470   7.486   5.434  1.5852 -1.2486 -0.6132
 6287TIP3    H218805   7.586   7.562   5.372 -1.3265  2.0083 -2.2319
 6288TIP3   OH218806   0.068   4.772   3.771 -0.1141  0.0220  0.1615
 6288TIP3    H118807   0.038   4.806   3.855  0.6906 -0.5628  0.6978
 6288TIP3    H218808   0.001   4.708   3.746 -0.4434  0.3202  0.2761
 6289TIP3   OH218809   0.377   3.123   3.328 -0.0554 -0.1351 -0.4095
 6289TIP3    H118810   0.409   3.209   3.356  0.1542 -0.4594  0.3480
 6289TIP3    H218811   0.328   3.141   3.248 -0.6858  0.7969  0.1783
 6290TIP3   OH218812   2.545   1.009   3.783  0.3444 -0.3974 -0.0936
 6290TIP3    H118813   2.473   0.946   3.782 -0.7518  0.8398 -2.0770
 6290TIP3    H218814   2.529   1.062   3.862  0.8036 -2.0425  1.1160
 6291TIP3   OH218815   7.663   4.334   6.706  0.0345 -0.4966  0.0385
 6291TIP3    H118816   7.577   4.366   6.735  0.5544  1.7029 -0.7370
 6291TIP3    H218817   7.653   4.319   6.612  0.5601 -0.0168 -0.0970
 6292TIP3   OH218818   0.904   1.733   2.685  0.4558 -0.4546  0.1451
 6292TIP3    H118819   0.951   1.650   2.678  0.4829 -0.3999 -0.3504
 6292TIP3    H218820   0.837   1.717   2.751  1.1972 -0.5186  0.8981
 6293TIP3   OH218821   0.810   3.059   5.352 -0.7989  0.0969  0.5195
 6293TIP3    H118822   0.763   3.053   5.435 -1.1128 -0.8857  0.2844
 6293TIP3    H218823   0.820   3.152   5.336  0.1645  0.2863  2.1618
 6294TIP3   OH218824   2.026   0.396   4.248 -0.0124 -0.1485 -0.3430
 6294TIP3    H118825   1.934   0.386   4.272  0.1695 -0.9213  0.0275
 6294TIP3    H218826   2.066   0.310   4.264  1.3645  0.8689  2.1760
 6295TIP3   OH218827   5.878   5.221   0.242 -0.1175  0.2872  0.0784
 6295TIP3    H118828   5.808   5.281   0.215 -0.2302 -0.4115 -1.2578
 6295TIP3    H218829   5.956   5.252   0.196 -0.3302 -0.9844 -1.1919
 6296TIP3   OH218830   2.969   3.749   1.010 -0.1681 -0.1927 -0.2007
 6296TIP3    H118831   3.001   3.723   1.096 -0.3253 -1.4237 -0.5010
 6296TIP3    H218832   3.033   3.814   0.980  0.9375 -1.1358  0.0663
 6297TIP3   OH218833   1.952   1.476   5.985  0.4297  0.0722  0.4445
 6297TIP3    H118834   2.017   1.512   6.046 -0.1082  0.0674  1.0277
 6297TIP3    H218835   1.892   1.550   5.969 -0.3679 -0.3947  1.2170
 6298TIP3   OH218836   3.849   3.221   1.258  0.2330 -0.2183  0.1682
 6298TIP3    H118837   3.776   3.242   1.317  0.7057  1.8759  0.0407
 6298TIP3    H218838   3.927   3.234   1.311  0.5480 -2.2877  0.2452
 6299TIP3   OH218839   6.361   7.053   6.092  0.7421 -0.0673 -0.1894
 6299TIP3    H118840   6.442   7.002   6.101  1.1693  0.3313 -1.5737
 6299TIP3    H218841   6.390   7.138   6.059 -0.0916  0.6625  0.9080
 6300TIP3   OH218842   0.620   0.782   6.085 -0.4184  0.1411 -0.1670
 6300TIP3    H118843   0.636   0.874   6.064 -0.2148 -0.0464 -0.8218
 6300TIP3    H218844   0.589   0.784   6.176 -0.6795  0.8799 -0.2664
 6301TIP3   OH218845   0.416   0.543   4.574  0.1064  0.2339 -0.1722
 6301TIP3    H118846   0.340   0.594   4.545 -2.0499 -1.4711  2.2293
 6301TIP3    H218847   0.464   0.603   4.632 -1.9056 -0.0613  1.8887
 6302TIP3   OH218848   3.714   0.551   5.938  0.1516  0.0540  0.0431
 6302TIP3    H118849   3.774   0.476   5.937  2.2576  1.6643  0.7441
 6302TIP3    H218850   3.697   0.569   5.846 -0.0814 -1.0341 -0.1428
 6303TIP3   OH218851   1.805   1.873   6.688  0.5022  0.1396  0.1355
 6303TIP3    H118852   1.900   1.863   6.689  0.3328 -1.6631 -0.7108
 6303TIP3    H218853   1.771   1.792   6.725 -0.7401  0.2896 -0.6408
 6304TIP3   OH218854   6.501   7.915   4.635  0.0744 -0.1289 -0.4318
 6304TIP3    H118855   6.456   7.921   4.551 -2.3131  0.0461  0.8041
 6304TIP3    H218856   6.529   8.004   4.654  0.3501 -0.1143 -0.8900
 6305TIP3   OH218857   8.366   1.632   4.162  0.4482 -0.1118  0.4367
 6305TIP3    H118858   8.334   1.542   4.152 -1.1653  0.3608  1.1044
 6305TIP3    H218859   8.455   1.630   4.127  0.6153 -2.0786  0.9091
 6306TIP3   OH218860   0.549   0.351   4.446  0.0623  0.0214 -0.2038
 6306TIP3    H118861   0.479   0.292   4.417 -0.0957 -0.0870  0.3756
 6306TIP3    H218862   0.506   0.412   4.506  0.5370 -0.3125  0.4911
 6307TIP3   OH218863   0.245   4.258   3.341 -0.3130 -0.0959 -1.3293
 6307TIP3    H118864   0.341   4.264   3.341 -0.3333  0.2755 -0.4997
 6307TIP3    H218865   0.223   4.221   3.426 -0.9005 -0.3015 -1.5694
 6308TIP3   OH218866   0.418   1.153   4.391 -0.2372  0.0900  0.3256
 6308TIP3    H118867   0.330   1.176   4.362 -0.3882 -0.5215  0.2976
 6308TIP3    H218868   0.474   1.169   4.315 -0.3643  0.2109  0.2589
 6309TIP3   OH218869   0.244   2.836   6.685 -0.2001 -0.0787 -0.2773
 6309TIP3    H118870   0.320   2.788   6.652 -2.1781 -2.1365 -2.0080
 6309TIP3    H218871   0.211   2.883   6.608 -1.5387 -0.3897  0.1010
 6310TIP3   OH218872   7.015   5.021   6.419  0.2322 -0.4799 -0.3489
 6310TIP3    H118873   6.955   5.092   6.396  0.8873  0.4872  0.8769
 6310TIP3    H218874   7.095   5.041   6.372 -0.2561 -1.5547 -1.6658
 6311TIP3   OH218875   8.471   1.583   3.441  0.0356 -0.4721 -0.1590
 6311TIP3    H118876   8.469   1.580   3.537 -0.3401  0.4859 -0.1309
 6311TIP3    H218877   8.387   1.546   3.414 -0.8417  1.3676 -0.0452
 6312TIP3   OH218878   1.842   2.224   5.723 -0.0695 -0.5921  0.2003
 6312TIP3    H118879   1.929   2.215   5.685 -0.6820 -0.9140 -1.1555
 6312TIP3    H218880   1.849   2.298   5.783  0.7273  0.3768 -1.0859
 6313TIP3   OH218881   1.066   2.687   6.685  0.0156  0.7685  0.7106
 6313TIP3    H118882   1.025   2.707   6.601 -0.9143  0.7867  1.1635
 6313TIP3    H218883   1.062   2.768   6.734  0.8105  0.8343  0.6811
 6314TIP3   OH218884   2.660   6.476   0.009  0.1600  0.2320  0.8334
 6314TIP3    H118885   2.710   6.536  -0.046  2.5665 -1.1546  1.4527
 6314TIP3    H218886   2.721   6.451   0.079 -0.3185 -3.8833 -0.0665
 6315TIP3   OH218887   2.121   0.854   5.286  0.0245  0.2127 -0.2376
 6315TIP3    H118888   2.074   0.884   5.364  0.6886 -0.0290  0.2629
 6315TIP3    H218889   2.057   0.861   5.215  0.2012  2.9115 -0.1797
 6316TIP3   OH218890   3.021   0.804   6.299  0.4668 -0.1889 -0.2773
 6316TIP3    H118891   3.105   0.831   6.335  0.5549 -1.1467  0.2599
 6316TIP3    H218892   3.022   0.708   6.305 -1.0510 -0.1714  0.6255
 6317TIP3   OH218893   4.493   7.476   4.182 -0.3374  0.7451 -0.1884
 6317TIP3    H118894   4.404   7.461   4.215 -0.9207  1.7537 -1.2826
 6317TIP3    H218895   4.517   7.562   4.217  0.6111  0.0352  0.9417
 6318TIP3   OH218896   3.239   2.104   4.465 -0.2216 -0.1686 -0.1332
 6318TIP3    H118897   3.202   2.165   4.528 -0.6331 -0.5575  0.0053
 6318TIP3    H218898   3.295   2.158   4.409  0.8956  0.0191  1.1428
 6319TIP3   OH218899   1.008   1.360   5.071  0.3911 -0.2066  0.1633
 6319TIP3    H118900   1.006   1.287   5.133 -0.3217 -1.7845 -1.6752
 6319TIP3    H218901   1.091   1.405   5.090  0.0141 -0.4432  2.4682
 6320TIP3   OH218902   4.494   5.938   0.249  0.0743  0.3753  0.2317
 6320TIP3    H118903   4.582   5.956   0.216  0.7825  0.5967  2.2127
 6320TIP3    H218904   4.474   5.851   0.215  0.8847  0.5010 -0.5866
 6321TIP3   OH218905   5.609   3.201   1.400 -0.2975 -0.6005 -0.1538
 6321TIP3    H118906   5.535   3.240   1.353  0.1182 -0.1784 -0.4667
 6321TIP3    H218907   5.686   3.228   1.350  0.1833  0.1620  0.9617
 6322TIP3   OH218908   2.252   1.927   6.468 -0.2600  0.2725 -0.2006
 6322TIP3    H118909   2.270   1.833   6.480  0.3148  0.0365 -2.6447
 6322TIP3    H218910   2.237   1.960   6.556 -0.2386 -2.0846  0.7162
 6323TIP3   OH218911   8.207   1.934   2.948  0.1902 -0.0808  0.4711
 6323TIP3    H118912   8.181   2.026   2.952  0.0666  0.0309 -2.0594
 6323TIP3    H218913   8.215   1.915   2.854  1.1605 -2.3852  0.9768
 6324TIP3   OH218914   0.958   0.362   6.771 -0.2932  0.2143  0.1072
 6324TIP3    H118915   0.943   0.327   6.859  0.3908  2.0448  0.9947
 6324TIP3    H218916   1.026   0.306   6.733  1.5238  1.1431  1.8801
 6325TIP3   OH218917   2.382   1.355   5.966  0.2202 -0.2176  0.1612
 6325TIP3    H118918   2.443   1.428   5.976 -1.5223  1.1411  1.1689
 6325TIP3    H218919   2.373   1.320   6.055 -0.0870 -0.7238 -0.0712
 6326TIP3   OH218920   0.683   2.624   6.605  0.5276  0.2623  0.3425
 6326TIP3    H118921   0.740   2.678   6.550  0.4148 -0.2804 -0.3223
 6326TIP3    H218922   0.605   2.609   6.551  0.8705 -1.1727  0.2122
 6327TIP3   OH218923   3.812   6.868   1.151 -0.1595 -0.0372 -0.3198
 6327TIP3    H118924   3.803   6.963   1.152  1.6669  0.1590 -0.3671
 6327TIP3    H218925   3.875   6.851   1.081 -0.4993 -1.2795 -0.3339
 6328TIP3   OH218926   0.661   1.599   3.538  0.0963  0.6306  0.1696
 6328TIP3    H118927   0.666   1.539   3.463  0.5670  0.4761  0.3243
 6328TIP3    H218928   0.688   1.684   3.504 -1.0287  0.8645 -0.1647
 6329TIP3   OH218929   0.098   1.729   5.400 -0.0839 -0.2827  0.3912
 6329TIP3    H118930   0.075   1.698   5.487  1.3707 -0.0933  0.8444
 6329TIP3    H218931   0.189   1.704   5.388 -0.2544 -0.2729 -1.0685
 6330TIP3   OH218932   1.311   2.068   5.778 -0.0244  0.0208  0.8484
 6330TIP3    H118933   1.397   2.106   5.794  0.1207 -0.5723  1.5093
 6330TIP3    H218934   1.295   2.011   5.854 -0.6529 -0.4907  0.3431
 6331TIP3   OH218935   0.847   1.088   4.889  0.4316  0.2075  0.5083
 6331TIP3    H118936   0.756   1.106   4.910  0.3605 -0.2467  0.5944
 6331TIP3    H218937   0.893   1.170   4.910  0.4746 -0.4330  3.0755
 6332TIP3   OH218938   2.163   1.657   5.699 -0.0521 -0.2886 -0.6213
 6332TIP3    H118939   2.196   1.732   5.648  0.9977 -0.3196 -0.0077
 6332TIP3    H218940   2.119   1.697   5.774 -3.2237 -0.1933 -2.4692
 6333TIP3   OH218941   1.714   4.051   6.815  0.6970  0.5176 -0.9345
 6333TIP3    H118942   1.703   3.970   6.765 -0.4176 -0.5209  0.9250
 6333TIP3    H218943   1.648   4.046   6.884  1.9060  2.1111  0.3821
 6334TIP3   OH218944   8.458   2.238   6.519  0.2453  0.1201  0.8847
 6334TIP3    H118945   8.492   2.149   6.516  0.3682  0.1782  0.5348
 6334TIP3    H218946   8.394   2.237   6.591 -0.5312 -0.5223  0.1951
 6335TIP3   OH218947   8.247   0.004   6.822  0.0051  0.0520  0.2984
 6335TIP3    H118948   8.297   0.003   6.903  0.5871  0.3477 -0.0496
 6335TIP3    H218949   8.313   0.009   6.753 -0.4351 -1.4010 -0.2484
 6336TIP3   OH218950   5.868   7.296   3.359  0.2162 -0.0006  0.5988
 6336TIP3    H118951   5.856   7.388   3.337  1.1466  0.0935  0.4482
 6336TIP3    H218952   5.865   7.294   3.455  0.0518  0.1677  0.5965
 6337TIP3   OH218953   8.250   1.442   4.454 -0.6640  0.6251  0.1095
 6337TIP3    H118954   8.186   1.450   4.524 -2.5694  0.4518 -1.5800
 6337TIP3    H218955   8.252   1.529   4.413  0.9090  0.9141  0.7353
 6338TIP3   OH218956   0.088   1.478   2.771 -0.2064 -0.5475 -0.2159
 6338TIP3    H118957   0.059   1.569   2.773 -1.6500 -0.9957  0.0893
 6338TIP3    H218958   0.118   1.465   2.681  0.9803  0.5096  0.0139
 6339TIP3   OH218959   1.726   0.496   5.917  0.4903 -0.4395  0.2610
 6339TIP3    H118960   1.804   0.546   5.892 -0.7529  0.5657 -1.7784
 6339TIP3    H218961   1.667   0.562   5.953 -0.7678 -0.5618 -1.4966
 6340TIP3   OH218962   1.994   4.182   6.338 -0.4836 -0.3925  0.5139
 6340TIP3    H118963   1.899   4.190   6.324 -0.2086  0.8460 -0.7098
 6340TIP3    H218964   2.002   4.159   6.431 -2.0195 -1.5687  0.3913
 6341TIP3   OH218965   1.536   2.458   4.511  0.6827  0.2220 -0.8379
 6341TIP3    H118966   1.503   2.546   4.498 -0.4220  0.1190  1.0111
 6341TIP3    H218967   1.557   2.454   4.605  0.0160 -1.6927 -0.7453
 6342TIP3   OH218968   2.048   2.587   5.510 -0.3628 -0.0185  0.0066
 6342TIP3    H118969   2.049   2.542   5.425 -0.8765 -0.7648  0.3905
 6342TIP3    H218970   2.140   2.604   5.529  0.0242 -2.8195  0.8402
 6343TIP3   OH218971   1.698   1.749   5.084 -0.1395 -0.0247  0.1122
 6343TIP3    H118972   1.662   1.792   5.006  0.0261 -0.4879 -0.2294
 6343TIP3    H218973   1.629   1.755   5.149 -0.4003  0.0943 -0.1752
 6344TIP3   OH218974   2.099   4.339   4.779  0.0345  0.1846  0.4854
 6344TIP3    H118975   2.089   4.401   4.707  1.3079 -0.6878 -0.4494
 6344TIP3    H218976   2.166   4.379   4.835 -1.1630  1.0052  1.3669
 6345TIP3   OH218977   3.527   5.938   0.849  0.1437 -0.2519  0.2291
 6345TIP3    H118978   3.501   6.027   0.871 -0.9176 -0.3796 -0.4619
 6345TIP3    H218979   3.449   5.885   0.868  0.4295 -0.8783 -0.3213
 6346TIP3   OH218980   1.911   2.358   3.485  0.0947  0.0779 -0.7225
 6346TIP3    H118981   1.840   2.414   3.455  0.2334  0.5080 -0.2547
 6346TIP3    H218982   1.869   2.275   3.506 -0.3818  0.5320  0.1727
 6347TIP3   OH218983   3.064   0.472   4.672 -0.2647  0.1236  0.5015
 6347TIP3    H118984   3.031   0.536   4.608 -0.6843 -1.4100 -0.8379
 6347TIP3    H218985   2.990   0.458   4.731 -0.1732  0.8725  0.7992
 6348TIP3   OH218986   0.221   0.138   5.137 -0.0719  0.1248 -0.0692
 6348TIP3    H118987   0.136   0.168   5.104  0.0159  0.4138 -0.0362
 6348TIP3    H218988   0.242   0.061   5.084  1.1213  1.8845 -2.1958
 6349TIP3   OH218989   1.827   1.086   3.225  0.2647  0.9625  0.2487
 6349TIP3    H118990   1.894   1.126   3.170  0.4466  0.9515  0.4639
 6349TIP3    H218991   1.875   1.050   3.300  0.4050 -1.6358 -1.0145
 6350TIP3   OH218992   6.345   6.753   5.237 -0.1504 -0.1064  0.4982
 6350TIP3    H118993   6.271   6.715   5.190 -0.4560  0.2903  0.6485
 6350TIP3    H218994   6.360   6.694   5.311 -0.1515 -0.3281  0.3205
 6351TIP3   OH218995   5.697   4.642   0.453  0.0834  0.2673 -0.0818
 6351TIP3    H118996   5.609   4.666   0.483  0.1245 -1.1197  1.2212
 6351TIP3    H218997   5.755   4.705   0.494 -0.1517  0.2243  0.3154
 6352TIP3   OH218998   2.323   2.664   5.595  0.6221  0.2738  0.1398
 6352TIP3    H118999   2.403   2.611   5.597  0.7300  0.4072 -0.4849
 6352TIP3    H219000   2.353   2.755   5.596  0.4637  0.3249  0.3495
 6353TIP3   OH219001   0.967   0.035   4.011  0.4226 -0.4436 -0.1710
 6353TIP3    H119002   1.053   0.004   3.983  0.2292 -0.5177 -0.6867
 6353TIP3    H219003   0.974   0.042   4.106  2.1127  2.8785 -0.4708
 6354TIP3   OH219004   2.688   2.584   4.447 -0.4352  0.1487  0.2896
 6354TIP3    H119005   2.699   2.545   4.534 -1.6394 -0.2288  0.2698
 6354TIP3    H219006   2.603   2.628   4.450 -0.9811 -0.7884 -1.0581
 6355TIP3   OH219007   3.163   1.339   6.012  0.8642  0.3981  0.6584
 6355TIP3    H119008   3.153   1.295   5.928 -1.5456 -0.5871  1.4216
 6355TIP3    H219009   3.238   1.295   6.053  1.1309 -0.0984 -0.3434
 6356TIP3   OH219010   0.989   2.014   6.788 -0.9818  0.7415  0.3112
 6356TIP3    H119011   0.966   2.029   6.880  0.4406 -1.6813  1.1204
 6356TIP3    H219012   1.084   2.001   6.789 -1.3969 -2.9845 -0.9169
 6357TIP3   OH219013   5.336   4.064   0.225 -0.2647  0.0395 -0.0714
 6357TIP3    H119014   5.427   4.091   0.238 -0.8107  0.4795  3.2434
 6357TIP3    H219015   5.289   4.145   0.205 -0.1018 -0.0246 -0.7078
 6358TIP3   OH219016   3.874   2.665   4.184 -0.6935  0.1027  0.5886
 6358TIP3    H119017   3.856   2.660   4.090  1.9624  0.7319 -0.0016
 6358TIP3    H219018   3.832   2.747   4.211 -1.2065  0.0874 -0.1373
 6359TIP3   OH219019   3.148   1.738   6.304 -0.4128 -0.4320 -0.5599
 6359TIP3    H119020   3.192   1.708   6.225 -0.9241 -0.3602 -0.8720
 6359TIP3    H219021   3.193   1.819   6.327 -1.1548  0.2689 -1.5512
 6360TIP3   OH219022   1.817   1.217   5.528 -0.0213 -0.2211  0.0923
 6360TIP3    H119023   1.828   1.151   5.459  1.3791  1.7274 -1.6299
 6360TIP3    H219024   1.901   1.217   5.575  0.9470  2.0694 -1.5498
 6361TIP3   OH219025   0.586   3.280   6.685 -0.3573  0.6151 -0.0710
 6361TIP3    H119026   0.555   3.250   6.600 -1.3148  0.0936  0.4536
 6361TIP3    H219027   0.631   3.362   6.667 -0.3251  0.3687 -1.1119
 6362TIP3   OH219028   5.914   3.450   6.693  0.0870  0.1841  0.3351
 6362TIP3    H119029   5.863   3.477   6.769 -0.0891 -1.7321  0.9220
 6362TIP3    H219030   5.994   3.412   6.729  0.6946  0.6574 -0.4880
 6363TIP3   OH219031   7.664   7.491   4.945  0.0714  0.1694  0.3947
 6363TIP3    H119032   7.710   7.574   4.953  0.1577 -0.0281  2.2170
 6363TIP3    H219033   7.595   7.495   5.012 -0.0847 -1.1107  0.3271
 6364TIP3   OH219034   1.430   1.333   6.249  0.6572 -0.0901 -0.6515
 6364TIP3    H119035   1.456   1.346   6.340 -0.3965  2.6357 -0.6795
 6364TIP3    H219036   1.507   1.360   6.198  0.9682 -0.8450 -0.5802
 6365TIP3   OH219037   8.224   1.553   3.318 -0.3068  0.1815  0.0821
 6365TIP3    H119038   8.152   1.489   3.328 -0.4035  0.0192 -1.6081
 6365TIP3    H219039   8.191   1.616   3.254  0.0556  1.5795  1.2496
 6366TIP3   OH219040   7.154   7.728   5.535  0.6508  0.1240 -0.2153
 6366TIP3    H119041   7.084   7.769   5.585  0.1881  1.1083 -1.6465
 6366TIP3    H219042   7.128   7.636   5.528 -0.0313  0.2982  0.0344
 6367TIP3   OH219043   8.297   0.216   4.760  0.3551 -0.0330 -0.2725
 6367TIP3    H119044   8.279   0.253   4.674 -0.5192  0.1191 -0.0319
 6367TIP3    H219045   8.211   0.192   4.794  0.4154  2.2564  1.6050
 6368TIP3   OH219046   0.456   2.257   6.801 -0.1163  0.0955 -0.7981
 6368TIP3    H119047   0.429   2.167   6.782  0.5209  0.0403 -1.4736
 6368TIP3    H219048   0.455   2.301   6.716  5.2291 -0.8188 -1.5177
 6369TIP3   OH219049   7.851   3.771   4.645  0.1019 -0.0850 -0.2715
 6369TIP3    H119050   7.770   3.788   4.694 -0.1771 -1.2493 -0.3142
 6369TIP3    H219051   7.863   3.849   4.591 -0.2820  0.6603  0.6976
 6370TIP3   OH219052   8.335   2.024   5.141  0.3262  0.3693  0.5153
 6370TIP3    H119053   8.419   2.070   5.140  0.4700  0.1129  0.8004
 6370TIP3    H219054   8.356   1.937   5.175 -0.6830  1.5305  4.2565
 6371TIP3   OH219055   0.358   3.046   5.456 -0.5876 -0.4260  0.3860
 6371TIP3    H119056   0.266   3.053   5.481 -0.4956 -1.4558  1.0378
 6371TIP3    H219057   0.360   2.978   5.389 -0.5130  0.7289 -0.8155
 6372TIP3   OH219058   8.264   1.716   5.746 -0.2196  0.1844 -0.1357
 6372TIP3    H119059   8.268   1.711   5.841  0.2598  0.1159 -0.1576
 6372TIP3    H219060   8.344   1.672   5.716 -1.0716 -1.0639 -0.6126
 6373TIP3   OH219061   1.326   2.557   6.583 -0.0805 -0.5811 -0.2495
 6373TIP3    H119062   1.324   2.490   6.515 -0.1273 -0.7290 -0.1039
 6373TIP3    H219063   1.233   2.571   6.604 -0.0843 -0.2707 -0.4761
 6374TIP3   OH219064   8.509   2.713   6.150  0.9402 -0.2986 -0.5257
 6374TIP3    H119065   8.473   2.626   6.169  1.4367 -0.6478 -1.1805
 6374TIP3    H219066   8.494   2.726   6.057 -0.0287  0.7441 -0.2370
 6375TIP3   OH219067   1.809   1.210   6.102 -0.0933 -0.3942  0.1162
 6375TIP3    H119068   1.882   1.271   6.095 -0.1806 -0.2528  0.4675
 6375TIP3    H219069   1.789   1.206   6.195  1.2570 -2.5457  0.3588
 6376TIP3   OH219070   7.783   8.015   4.716  0.4780  0.3439 -0.2517
 6376TIP3    H119071   7.836   8.002   4.637  2.4146 -1.1739  1.2450
 6376TIP3    H219072   7.832   7.971   4.785 -1.3426  1.3801  1.7576
 6377TIP3   OH219073   3.990   4.601   0.064  0.6487  0.1439  0.3143
 6377TIP3    H119074   3.978   4.654   0.143 -0.0013  1.0352 -0.3805
 6377TIP3    H219075   4.064   4.642   0.019 -0.6300  1.2096 -0.8334
 6378TIP3   OH219076   4.960   4.824   1.117  0.0107 -0.0682  0.2756
 6378TIP3    H119077   4.909   4.874   1.180 -0.0243 -2.2225  2.0040
 6378TIP3    H219078   4.895   4.775   1.066  0.1978 -1.0155  0.9253
 6379TIP3   OH219079   7.101   7.656   3.843  0.0129 -0.7441 -0.3256
 6379TIP3    H119080   7.037   7.587   3.862  1.3653 -2.0303 -0.4035
 6379TIP3    H219081   7.186   7.616   3.859  0.7955  1.2685  0.7802
 6380TIP3   OH219082   7.093   1.290   4.895 -0.3763 -0.2292 -0.4758
 6380TIP3    H119083   7.071   1.373   4.853 -0.2431  0.1962  0.2849
 6380TIP3    H219084   7.157   1.250   4.837  1.3200  1.2642  0.3310
 6381TIP3   OH219085   3.577   3.556   1.139 -0.2995 -0.2143 -0.1552
 6381TIP3    H119086   3.657   3.594   1.174 -0.7744  0.3544  0.3212
 6381TIP3    H219087   3.603   3.516   1.056  1.0119 -2.1926  1.1493
 6382TIP3   OH219088   0.255   2.859   4.921 -0.0900 -0.4330 -0.0037
 6382TIP3    H119089   0.339   2.814   4.931  0.2183 -0.2846 -1.6956
 6382TIP3    H219090   0.246   2.870   4.826 -1.4175  0.7028  0.2467
 6383TIP3   OH219091   0.062   1.396   3.280  0.3137  0.0353 -0.0032
 6383TIP3    H119092   0.076   1.467   3.342  1.3489 -0.0286 -0.1472
 6383TIP3    H219093   0.010   1.332   3.328  1.6501 -0.3008  1.0327
 6384TIP3   OH219094   0.498   2.154   5.051 -0.0274 -0.2143 -0.7270
 6384TIP3    H119095   0.514   2.212   5.125 -2.3886 -1.1999  0.6392
 6384TIP3    H219096   0.450   2.208   4.988  0.1405  0.0485 -0.6284
 6385TIP3   OH219097   6.816   7.975   5.840  0.1611 -0.3652 -0.1274
 6385TIP3    H119098   6.739   7.950   5.789  0.2067  0.9645 -0.8664
 6385TIP3    H219099   6.793   8.059   5.879  0.3000 -1.1522  1.6933
 6386TIP3   OH219100   0.274   1.958   4.127  0.1157 -0.0504  0.5765
 6386TIP3    H119101   0.336   1.891   4.157  0.9895  0.1911 -0.6658
 6386TIP3    H219102   0.262   2.014   4.204 -0.8827 -1.7900  1.7397
 6387TIP3   OH219103   1.570   2.023   3.099  0.0023  0.0858  0.1939
 6387TIP3    H119104   1.629   1.999   3.027  1.3864 -0.0422  1.3417
 6387TIP3    H219105   1.483   1.997   3.069  0.5624  0.0055 -1.4143
 6388TIP3   OH219106   2.026   1.185   4.025 -0.4000 -0.1949 -0.1422
 6388TIP3    H119107   2.105   1.239   4.032  0.4327 -1.3933 -0.2340
 6388TIP3    H219108   1.959   1.247   3.996  1.0164  0.4167 -2.3530
 6389TIP3   OH219109   3.501   3.756   3.577 -0.5397 -0.1024  0.5149
 6389TIP3    H119110   3.583   3.722   3.543 -0.3539  0.4462  0.4003
 6389TIP3    H219111   3.441   3.682   3.577 -0.3746 -0.2340 -0.4773
 6390TIP3   OH219112   2.037   0.432   3.762 -0.1436  0.5760 -0.2194
 6390TIP3    H119113   2.121   0.458   3.799 -0.9944  1.3786  1.1540
 6390TIP3    H219114   2.002   0.367   3.823 -1.2382  1.3960  0.0393
 6391TIP3   OH219115   0.884   2.276   5.083  0.0304  0.2226 -0.3057
 6391TIP3    H119116   0.852   2.227   5.007  0.8280 -0.0516 -0.4650
 6391TIP3    H219117   0.861   2.221   5.158 -0.9091  0.5708 -0.3245
 6392TIP3   OH219118   0.359   1.233   4.666 -0.3391 -0.1077  0.4298
 6392TIP3    H119119   0.394   1.202   4.583  1.3128 -0.9450  1.4105
 6392TIP3    H219120   0.288   1.173   4.686  0.8647 -1.4500  0.8132
 6393TIP3   OH219121   2.430   0.960   5.445  0.2427  0.3109  0.1983
 6393TIP3    H119122   2.435   0.866   5.461  1.2058  0.1457 -0.9687
 6393TIP3    H219123   2.359   0.991   5.501  1.2074 -0.7853  2.0621
 6394TIP3   OH219124   2.692   3.530   5.203  0.0661  0.0244 -0.3739
 6394TIP3    H119125   2.782   3.499   5.213 -0.3349 -1.1166 -0.2316
 6394TIP3    H219126   2.641   3.451   5.184 -0.9676  0.5919 -0.0237
 6395TIP3   OH219127   4.754   3.082   5.554 -0.0063 -0.0755 -0.1188
 6395TIP3    H119128   4.758   2.991   5.526 -0.2137 -0.1426  0.0656
 6395TIP3    H219129   4.838   3.119   5.529  0.8960 -0.8658  1.6975
 6396TIP3   OH219130   2.437   0.701   5.546  0.2588  0.0027  0.0460
 6396TIP3    H119131   2.414   0.615   5.579  0.8887 -1.3179 -2.8010
 6396TIP3    H219132   2.528   0.713   5.571  0.4205 -0.5375 -0.2727
 6397TIP3   OH219133   3.960   1.441   5.257  0.6359 -0.0921 -0.8340
 6397TIP3    H119134   3.876   1.414   5.222  1.5159 -2.5591 -1.1570
 6397TIP3    H219135   3.984   1.518   5.206 -1.1576  0.3050 -1.1019
 6398TIP3   OH219136   1.646   1.718   4.289  0.1872  0.1461  0.5117
 6398TIP3    H119137   1.564   1.723   4.338 -0.8357 -3.6095 -0.6059
 6398TIP3    H219138   1.625   1.755   4.203  0.1753  0.8503  0.8181
 6399TIP3   OH219139   2.481   0.125   5.832  0.3905 -0.0043  0.1437
 6399TIP3    H119140   2.386   0.124   5.819  0.5644 -1.4700 -1.2021
 6399TIP3    H219141   2.498   0.205   5.880 -1.6654 -0.2939  1.4009
 6400TIP3   OH219142   2.605   1.440   5.315  0.4253  0.2672  0.0213
 6400TIP3    H119143   2.660   1.383   5.369  0.6242  0.4475  0.0094
 6400TIP3    H219144   2.601   1.395   5.230  0.2848  0.0894  0.1218
 6401TIP3   OH219145   2.483   4.060   2.988  0.2800  0.1200  0.5776
 6401TIP3    H119146   2.575   4.050   2.967  0.1412 -1.7728  0.8061
 6401TIP3    H219147   2.442   4.085   2.905  0.6210 -1.6114 -0.1324
 6402TIP3   OH219148   4.831   1.831   6.003  0.9004  0.3365  0.2875
 6402TIP3    H119149   4.769   1.765   6.034  1.0711  0.0613  0.0443
 6402TIP3    H219150   4.850   1.884   6.081  0.1802  0.5674  0.3043
 6403TIP3   OH219151   1.199   3.581   4.500 -0.5777 -0.3255  0.4035
 6403TIP3    H119152   1.174   3.673   4.505  0.8498  0.2365 -2.0567
 6403TIP3    H219153   1.116   3.533   4.511 -1.5373  1.2773  0.2908
 6404TIP3   OH219154   2.725   1.223   3.514 -0.1193  0.3622 -0.0772
 6404TIP3    H119155   2.696   1.267   3.434 -0.5723 -0.2017 -0.2207
 6404TIP3    H219156   2.645   1.192   3.556  0.1375  0.4002  0.4503
 6405TIP3   OH219157   3.126   2.915   5.791 -0.0102 -0.1297  0.4210
 6405TIP3    H119158   3.146   2.889   5.881  1.6657  0.5548  0.2725
 6405TIP3    H219159   3.175   2.996   5.778  0.2125 -0.5155 -1.2862
 6406TIP3   OH219160   3.183   2.578   4.755  0.1374 -0.3477  0.0815
 6406TIP3    H119161   3.130   2.639   4.704  0.7673  0.5699  0.5100
 6406TIP3    H219162   3.203   2.506   4.695 -0.9619 -0.3374 -0.3018
 6407TIP3   OH219163   4.866   7.958   0.428  0.9013  0.2610 -0.1126
 6407TIP3    H119164   4.863   8.047   0.392 -2.0060  1.1614  2.2049
 6407TIP3    H219165   4.888   7.970   0.521  1.1876 -1.5093  0.0758
 6408TIP3   OH219166   1.385   0.734   4.999  0.7209 -0.0857  0.0574
 6408TIP3    H119167   1.420   0.699   5.080  0.6547 -1.0418 -0.3252
 6408TIP3    H219168   1.407   0.669   4.932 -1.5074 -0.5929 -0.2408
 6409TIP3   OH219169   0.098   2.212   6.130 -0.7035 -0.6733  0.2145
 6409TIP3    H119170   0.183   2.254   6.139  0.0471 -1.9197 -0.8914
 6409TIP3    H219171   0.096   2.146   6.199 -1.1038 -0.1174  0.7397
 6410TIP3   OH219172   2.480   3.049   4.233 -0.2786  0.1477  0.1962
 6410TIP3    H119173   2.486   2.955   4.249  2.3482  0.4775  1.3636
 6410TIP3    H219174   2.422   3.057   4.157 -0.3818 -2.3953 -0.0261
 6411TIP3   OH219175   1.171   0.746   4.739 -0.0660  0.0075 -0.5241
 6411TIP3    H119176   1.260   0.777   4.755  0.4264 -1.9230  0.6708
 6411TIP3    H219177   1.117   0.797   4.798  0.5635 -0.5251  0.5202
 6412TIP3   OH219178   1.983   1.372   3.298  0.1439 -0.1785  0.0931
 6412TIP3    H119179   1.900   1.369   3.345  0.6317 -0.1895  0.9757
 6412TIP3    H219180   2.031   1.295   3.329  1.5177  1.2414  1.5682
 6413TIP3   OH219181   2.897   3.969   2.343  0.0126 -0.0326  0.1414
 6413TIP3    H119182   2.814   3.937   2.379  0.5420 -2.1242 -0.4557
 6413TIP3    H219183   2.888   3.958   2.248  0.8949 -0.0645  0.0577
 6414TIP3   OH219184   5.335   2.118   2.384 -0.1489  0.1435  0.2280
 6414TIP3    H119185   5.272   2.152   2.446 -0.9866  0.0634 -0.5657
 6414TIP3    H219186   5.415   2.104   2.435 -0.9815 -0.4246  1.3926
 6415TIP3   OH219187   5.211   1.676   5.754 -0.3121 -0.4363 -0.1550
 6415TIP3    H119188   5.217   1.591   5.709 -0.7139 -0.9662  0.7854
 6415TIP3    H219189   5.121   1.704   5.738 -0.0242  0.0752 -0.9193
 6416TIP3   OH219190   2.503   1.111   5.798 -0.1255  0.2883  0.2255
 6416TIP3    H119191   2.418   1.073   5.819  0.1921  0.6327  2.2378
 6416TIP3    H219192   2.483   1.197   5.761 -0.6411  0.7585  1.5634
 6417TIP3   OH219193   1.705   1.473   4.946 -0.3301 -0.3040 -0.4342
 6417TIP3    H119194   1.695   1.439   4.857  1.1913  1.2306 -1.2230
 6417TIP3    H219195   1.677   1.564   4.940 -2.5791 -0.8365  1.2421
 6418TIP3   OH219196   4.201   3.891   4.571  0.2096  0.5167  0.2501
 6418TIP3    H119197   4.192   3.885   4.666  1.5091  0.6862  0.3875
 6418TIP3    H219198   4.277   3.948   4.557  0.3238  0.1062 -0.8827
 6419TIP3   OH219199   4.316   3.038   3.558 -0.1980  0.0062  0.3073
 6419TIP3    H119200   4.347   3.021   3.647  1.0010  0.2987 -0.0500
 6419TIP3    H219201   4.316   3.134   3.551  1.2830 -0.0447 -0.5514
 6420TIP3   OH219202   2.902   2.273   4.816 -0.2874  0.0232 -0.5887
 6420TIP3    H119203   2.864   2.217   4.748 -0.7366  1.6072 -1.6657
 6420TIP3    H219204   2.997   2.266   4.802 -0.2969 -1.3230 -0.0160
 6421TIP3   OH219205   2.782   2.495   4.681 -0.0766 -0.0286  0.3162
 6421TIP3    H119206   2.860   2.456   4.642 -1.3129 -2.3796  0.1411
 6421TIP3    H219207   2.795   2.485   4.775  0.1426  0.2173  0.3134
 6422TIP3   OH219208   3.492   1.911   6.009  0.1039  0.1581 -0.1218
 6422TIP3    H119209   3.400   1.887   6.004  0.0296  0.1430  1.1501
 6422TIP3    H219210   3.492   2.007   6.000  0.0866  0.0328 -1.4931
 6423TIP3   OH219211   2.685   2.646   4.991 -0.0117 -0.0260  0.0257
 6423TIP3    H119212   2.731   2.727   4.970  1.0576 -0.4897  0.5391
 6423TIP3    H219213   2.606   2.674   5.037 -0.9321  0.8504 -2.0433
 6424TIP3   OH219214   2.057   1.810   4.380 -0.0104  0.1140  0.6470
 6424TIP3    H119215   2.042   1.737   4.440 -0.7626  0.9272  1.4603
 6424TIP3    H219216   2.113   1.870   4.429  0.7043  0.0469 -0.0618
 6425TIP3   OH219217   6.993   6.686   1.707  0.3420  0.2017  0.4618
 6425TIP3    H119218   7.014   6.761   1.762 -2.3183  2.2384 -1.1679
 6425TIP3    H219219   6.964   6.724   1.625 -0.7932 -2.6362 -0.5103
 6426TIP3   OH219220   6.424   3.911   0.727  0.0814 -0.6362 -0.3852
 6426TIP3    H119221   6.352   3.854   0.754 -0.8221  1.0108  0.7440
 6426TIP3    H219222   6.500   3.876   0.774 -0.6293 -0.4213  0.9633
 6427TIP3   OH219223   2.352   2.786   3.957 -0.1418 -0.0938 -0.1037
 6427TIP3    H119224   2.325   2.850   3.891  1.4096 -1.5779 -2.2252
 6427TIP3    H219225   2.273   2.736   3.975 -0.9402  1.2802  0.2945
 6428TIP3   OH219226   2.428   4.786   5.524 -0.3746 -0.2373  0.2505
 6428TIP3    H119227   2.392   4.858   5.471 -1.8165 -0.4045  0.9661
 6428TIP3    H219228   2.390   4.707   5.486 -1.0488 -0.3929  1.2294
 6429TIP3   OH219229   3.764   3.867   4.734  0.0651 -0.3875  0.5351
 6429TIP3    H119230   3.810   3.787   4.709  0.1228  0.0383 -0.7680
 6429TIP3    H219231   3.824   3.938   4.712 -1.0470  0.1529 -0.8851
 6430TIP3   OH219232   2.608   0.543   4.014 -0.1552 -0.1125 -0.2884
 6430TIP3    H119233   2.602   0.591   3.932  0.9868  1.4643  0.5233
 6430TIP3    H219234   2.700   0.549   4.039 -0.5721 -0.1805  1.3408
 6431TIP3   OH219235   1.153   2.413   4.316 -0.4916 -0.0283  0.2592
 6431TIP3    H119236   1.111   2.349   4.259 -1.6934  1.2458 -0.3138
 6431TIP3    H219237   1.083   2.474   4.341  0.8023  1.6077  0.0359
 6432TIP3   OH219238   2.863   1.380   5.711  0.1165  0.4359  0.2482
 6432TIP3    H119239   2.936   1.418   5.663 -1.4447  2.1391 -0.8514
 6432TIP3    H219240   2.888   1.388   5.803  2.7475 -2.0440 -0.1859
 6433TIP3   OH219241   3.851   4.973   0.137  0.5219 -0.6719 -0.0023
 6433TIP3    H119242   3.925   4.926   0.177 -0.4690 -1.8782  0.4270
 6433TIP3    H219243   3.829   5.040   0.201  1.4707 -0.0734 -0.2903
 6434TIP3   OH219244   3.291   3.485   3.177 -0.1516  0.1456  0.1991
 6434TIP3    H119245   3.264   3.408   3.128  0.3208 -1.7811  2.8876
 6434TIP3    H219246   3.229   3.553   3.151 -0.3061 -0.9786 -2.5231
 6435TIP3   OH219247   4.111   3.823   4.215 -0.1795 -0.0984 -0.7044
 6435TIP3    H119248   4.051   3.788   4.148  0.2365 -0.8687 -0.6738
 6435TIP3    H219249   4.057   3.830   4.294  0.1445 -2.1949 -0.2834
 6436TIP3   OH219250   5.304   6.952   0.880  0.3353  0.0202  0.0484
 6436TIP3    H119251   5.322   6.859   0.872  1.5824  0.3201 -0.7117
 6436TIP3    H219252   5.213   6.961   0.851 -1.0071 -1.4369  3.5217
 6437TIP3   OH219253   1.554   1.359   5.154 -0.3667  0.2474 -0.0756
 6437TIP3    H119254   1.577   1.417   5.226  1.0419  1.0518 -1.1279
 6437TIP3    H219255   1.599   1.396   5.078 -0.5123 -1.4829 -1.0492
 6438TIP3   OH219256   5.141   3.574   5.194  0.2220  0.4300  0.1988
 6438TIP3    H119257   5.219   3.629   5.202  0.0859  0.4807  1.3009
 6438TIP3    H219258   5.113   3.584   5.103  2.4330 -0.8697 -0.6494
 6439TIP3   OH219259   3.006   3.890   3.675  0.0174  0.0676  0.2265
 6439TIP3    H119260   2.915   3.909   3.696  0.0730  0.9168 -0.2781
 6439TIP3    H219261   3.007   3.796   3.655 -0.6210 -0.0739  0.8463
 6440TIP3   OH219262   2.498   2.788   4.187  0.1759 -0.2603 -1.0469
 6440TIP3    H119263   2.440   2.773   4.112 -1.9217  1.0353  0.2614
 6440TIP3    H219264   2.457   2.739   4.259  2.3734 -1.8151 -0.7974
 6441TIP3   OH219265   2.949   2.954   5.582  0.0744  0.3694 -0.0675
 6441TIP3    H119266   3.015   2.954   5.652 -0.0920 -1.7114  0.1218
 6441TIP3    H219267   2.866   2.971   5.627  0.1399  0.3885  0.0456
 6442TIP3   OH219268   2.769   2.335   5.349 -0.0597 -0.3333 -0.8902
 6442TIP3    H119269   2.811   2.302   5.269 -1.2093 -0.8512 -1.2889
 6442TIP3    H219270   2.677   2.348   5.325 -0.4219 -0.5045  0.3520
 6443TIP3   OH219271   1.634   2.840   4.997  0.0348  0.3256 -0.5338
 6443TIP3    H119272   1.648   2.921   5.046 -1.5927  0.3343 -0.0552
 6443TIP3    H219273   1.665   2.860   4.908  0.7798  1.0740 -0.1072
 6444TIP3   OH219274   2.926   1.450   6.296 -0.3583 -0.5567  0.0703
 6444TIP3    H119275   2.955   1.389   6.229  3.5517 -0.4164  1.4947
 6444TIP3    H219276   2.932   1.536   6.255 -1.0077 -0.7112 -0.3552
 6445TIP3   OH219277   3.915   2.087   5.768 -0.5045  0.0753 -0.3577
 6445TIP3    H119278   3.908   2.149   5.695  0.4455  1.3521  0.6206
 6445TIP3    H219279   3.828   2.050   5.776 -0.9193  0.8011 -1.3921
 6446TIP3   OH219280   3.856   2.224   4.438 -0.0711 -0.4005 -0.0405
 6446TIP3    H119281   3.798   2.162   4.395  1.0044 -0.8198 -0.9043
 6446TIP3    H219282   3.839   2.307   4.394 -1.4260 -0.0798  1.0402
 6447TIP3   OH219283   3.618   2.108   4.413 -0.0675 -0.8234 -0.5324
 6447TIP3    H119284   3.618   2.159   4.494  1.5101 -0.7754 -0.5543
 6447TIP3    H219285   3.537   2.134   4.369 -1.2022 -1.2443  1.2618
 6448TIP3   OH219286   2.035   1.496   5.513  0.0310 -0.1497  0.0135
 6448TIP3    H119287   2.019   1.568   5.452  0.6549  0.6122  0.7346
 6448TIP3    H219288   2.100   1.531   5.575 -1.0218 -0.7039  1.4629
 6449TIP3   OH219289   1.312   1.221   5.247 -0.0166 -0.5288 -0.3860
 6449TIP3    H119290   1.341   1.130   5.246  0.4807 -0.3654 -1.9127
 6449TIP3    H219291   1.388   1.271   5.218 -0.0400  0.4576  1.1832
 6450TIP3   OH219292   2.736   1.380   4.725 -0.3461  0.8728  0.2334
 6450TIP3    H119293   2.650   1.416   4.702 -1.3080 -1.3104  0.3394
 6450TIP3    H219294   2.752   1.310   4.662  0.8923  0.5660  0.8634
 6451TIP3   OH219295   2.895   1.707   5.397  0.4815 -0.3015  0.0240
 6451TIP3    H119296   2.861   1.694   5.309  2.0206  0.4352 -0.7008
 6451TIP3    H219297   2.974   1.761   5.385  0.1275  0.6998  1.9301
 6452TIP3   OH219298   3.132   0.553   6.322  0.1737 -0.2504  0.2009
 6452TIP3    H119299   3.065   0.498   6.283 -0.4453  0.7965 -0.2402
 6452TIP3    H219300   3.155   0.508   6.403 -1.8686 -0.0636  0.9217
 6453TIP3   OH219301   8.368   7.988   6.609 -0.3539  0.1412 -0.3187
 6453TIP3    H119302   8.323   7.996   6.693 -0.9260  0.7478 -0.6856
 6453TIP3    H219303   8.303   7.953   6.549 -0.9987  3.0493 -1.3842
 6454TIP3   OH219304   2.633   1.135   5.431 -0.3788  0.1436  0.0265
 6454TIP3    H119305   2.596   1.051   5.457  1.6545 -0.8475 -0.1354
 6454TIP3    H219306   2.562   1.198   5.442 -2.5019 -1.8955 -1.6058
 6455TIP3   OH219307   0.546   1.706   3.800  0.3024 -0.0832 -0.4288
 6455TIP3    H119308   0.607   1.778   3.816 -1.1864  1.3895 -1.2883
 6455TIP3    H219309   0.561   1.681   3.709 -0.3971  0.2835 -0.6410
 6456TIP3   OH219310   3.326   1.965   4.828 -0.1002  0.4071  0.1437
 6456TIP3    H119311   3.341   1.894   4.767  0.5463 -0.4137  1.2382
 6456TIP3    H219312   3.406   2.017   4.826  0.6971 -0.7077  1.6902
 6457TIP3   OH219313   1.946   2.856   6.878  0.1289  0.4263 -0.0046
 6457TIP3    H119314   1.920   2.797   6.948 -0.0018  0.3845 -0.0879
 6457TIP3    H219315   1.977   2.799   6.808 -1.6944  0.3717 -0.7782
 6458TIP3   OH219316   2.966   2.653   5.146  0.1670 -0.2035  0.5940
 6458TIP3    H119317   2.901   2.699   5.093  0.9943 -1.1494 -1.3106
 6458TIP3    H219318   2.953   2.686   5.235 -2.0425  0.5619  0.0163
 6459TIP3   OH219319   4.015   2.758   5.146  0.1959 -0.0798  0.0466
 6459TIP3    H119320   4.071   2.742   5.070  0.5841 -0.9084  0.5068
 6459TIP3    H219321   3.982   2.848   5.133  1.4084  0.3125 -0.3571
 6460TIP3   OH219322   0.393   4.618   0.234  0.3694  0.0227  0.7357
 6460TIP3    H119323   0.382   4.610   0.329  1.2017  0.5830  0.8917
 6460TIP3    H219324   0.410   4.528   0.205  0.1858 -0.1418  1.1270
 6461TIP3   OH219325   8.476   7.808   5.402  0.1744 -0.4868  0.2584
 6461TIP3    H119326   8.569   7.819   5.423  0.4598 -0.5633 -0.9170
 6461TIP3    H219327   8.447   7.896   5.379 -0.3497 -0.2511  1.8065
 6462TIP3   OH219328   2.141   4.267   6.704  0.1618  0.8158  0.2637
 6462TIP3    H119329   2.209   4.209   6.669  0.8099 -0.9636  4.2138
 6462TIP3    H219330   2.059   4.225   6.679  0.5968 -0.3452  0.7373
 6463TIP3   OH219331   0.582   3.723   5.773 -0.7765 -0.6285  0.8666
 6463TIP3    H119332   0.645   3.652   5.762 -2.3438 -1.8466 -0.5969
 6463TIP3    H219333   0.520   3.690   5.839 -1.6733 -0.7465 -0.0268
 6464TIP3   OH219334   2.662   2.543   6.041  0.1476  0.3497 -1.1430
 6464TIP3    H119335   2.689   2.492   5.965 -0.2186 -2.2652  0.4408
 6464TIP3    H219336   2.575   2.578   6.017  0.8162  1.0498 -2.5935
 6465TIP3   OH219337   2.364   1.011   6.133  0.1008  0.4268  0.2293
 6465TIP3    H119338   2.338   1.083   6.190 -3.1960  0.4328 -1.1654
 6465TIP3    H219339   2.449   1.038   6.097 -1.2333  3.7763 -0.5394
 6466TIP3   OH219340   3.347   1.712   5.815 -0.3167  0.1611 -0.2386
 6466TIP3    H119341   3.353   1.762   5.734 -0.1716  0.5686  0.0224
 6466TIP3    H219342   3.422   1.652   5.812 -0.3118  0.1760 -0.4050
 6467TIP3   OH219343   4.467   5.120   5.902  0.0534 -0.0290 -0.0655
 6467TIP3    H119344   4.504   5.087   5.984 -0.7169  3.0102  1.5869
 6467TIP3    H219345   4.379   5.082   5.899  0.4870 -1.0472 -0.0676
 6468TIP3   OH219346   4.399   0.811   4.830  0.0779 -0.1493 -0.4935
 6468TIP3    H119347   4.347   0.755   4.888  0.0099  0.9021  0.4948
 6468TIP3    H219348   4.363   0.899   4.844  1.3590  0.4167 -0.6606
 6469TIP3   OH219349   4.633   0.050   4.703 -0.2065  0.3204 -0.1302
 6469TIP3    H119350   4.645   0.069   4.796  0.0425  0.4917 -0.1955
 6469TIP3    H219351   4.720   0.061   4.665 -0.1978 -0.2877 -0.2885
 6470TIP3   OH219352   1.927   0.165   4.810  0.0410  0.3356  0.4036
 6470TIP3    H119353   1.998   0.120   4.764 -0.4930 -1.7136  1.5488
 6470TIP3    H219354   1.934   0.256   4.782 -0.6103 -0.9199 -4.1889
 6471TIP3   OH219355   3.396   3.337   4.034 -0.3992  0.6240  0.3930
 6471TIP3    H119356   3.416   3.318   3.942 -2.4398  0.9946 -0.1658
 6471TIP3    H219357   3.413   3.431   4.043 -1.1971  0.8075  0.0888
 6472TIP3   OH219358   3.364   1.917   3.181 -0.0463  0.1476 -0.2153
 6472TIP3    H119359   3.280   1.963   3.168  0.3368  1.0832  0.5377
 6472TIP3    H219360   3.422   1.984   3.216  0.1139 -1.2579  2.3102
 6473TIP3   OH219361   2.783   3.792   6.397 -0.2713 -0.4477  0.7064
 6473TIP3    H119362   2.850   3.818   6.460  0.3661 -0.1964 -0.0856
 6473TIP3    H219363   2.830   3.744   6.329 -0.5170  1.7831 -1.0856
 6474TIP3   OH219364   4.258   3.664   0.814  0.1696 -0.6061 -0.6817
 6474TIP3    H119365   4.256   3.583   0.763  2.1924 -0.4865 -0.9922
 6474TIP3    H219366   4.190   3.719   0.774 -1.2621 -2.1477 -0.4274
 6475TIP3   OH219367   3.710   1.607   5.490  0.0119 -0.2864 -0.5267
 6475TIP3    H119368   3.705   1.636   5.399 -1.0694  2.3894  0.3655
 6475TIP3    H219369   3.636   1.547   5.500 -1.2945  1.2460 -0.7995
 6476TIP3   OH219370   5.807   4.186   4.824  0.0955  0.1978 -0.7890
 6476TIP3    H119371   5.893   4.219   4.798  0.2329  0.3399 -0.1684
 6476TIP3    H219372   5.771   4.146   4.745  0.5572  0.5133 -1.1573
 6477TIP3   OH219373   2.123   1.164   4.910 -0.1268 -0.2623 -0.5950
 6477TIP3    H119374   2.045   1.210   4.939  0.6298 -0.4227  1.7545
 6477TIP3    H219375   2.187   1.234   4.894 -0.0976 -0.2622 -0.4792
 6478TIP3   OH219376   2.888   2.691   4.302 -0.0531  0.3526 -0.6783
 6478TIP3    H119377   2.818   2.633   4.333  0.1756 -0.6024 -1.8936
 6478TIP3    H219378   2.847   2.743   4.233 -0.4090  2.0752  0.7914
 6479TIP3   OH219379   1.885   4.874   1.930 -0.6050 -0.4182  0.2458
 6479TIP3    H119380   1.818   4.885   1.863 -1.2629  1.4061  1.1480
 6479TIP3    H219381   1.837   4.877   2.013  0.5802  0.9040  0.9127
 6480TIP3   OH219382   3.214   0.623   3.504 -0.6556 -0.0368  0.2227
 6480TIP3    H119383   3.257   0.625   3.419 -0.2262 -0.0798  0.4416
 6480TIP3    H219384   3.255   0.693   3.555 -0.2331 -0.6349  0.7195
 6481TIP3   OH219385   1.856   3.039   6.589  0.0976 -0.2722 -0.2403
 6481TIP3    H119386   1.802   2.972   6.546  0.2364  0.3446 -1.3945
 6481TIP3    H219387   1.945   3.020   6.560  0.5553 -1.3772  1.7735
 6482TIP3   OH219388   0.335   3.067   2.863  0.5111  0.5142 -0.0680
 6482TIP3    H119389   0.419   3.024   2.851 -0.0015 -0.8473  1.0990
 6482TIP3    H219390   0.280   3.035   2.792  0.5824  0.3996 -0.0700
 6483TIP3   OH219391   3.658   2.276   5.453 -0.2623 -0.0346  0.0073
 6483TIP3    H119392   3.729   2.226   5.414 -0.5629 -1.7439  1.5497
 6483TIP3    H219393   3.614   2.213   5.511 -1.1482  1.8130  1.3800
 6484TIP3   OH219394   4.055   1.678   5.107  0.0729  0.1333  0.7154
 6484TIP3    H119395   4.000   1.756   5.120  0.4046  0.3989  0.5318
 6484TIP3    H219396   4.053   1.663   5.013  1.3889  0.9284  0.5622
 6485TIP3   OH219397   0.634   0.738   2.312  0.1775 -0.2994  0.5162
 6485TIP3    H119398   0.635   0.694   2.227 -0.2774  0.4564  0.1212
 6485TIP3    H219399   0.706   0.697   2.361  1.2091  0.1142 -0.6478
 6486TIP3   OH219400   2.379   1.641   6.305 -0.0763  0.1050 -0.1152
 6486TIP3    H119401   2.462   1.679   6.332 -0.0713  0.9911 -1.3683
 6486TIP3    H219402   2.398   1.547   6.294  0.8025  0.3343 -0.5903
 6487TIP3   OH219403   3.146   2.754   2.845 -0.2506  0.3141  0.3690
 6487TIP3    H119404   3.219   2.698   2.872  0.9779  1.7675  0.1437
 6487TIP3    H219405   3.108   2.786   2.927  0.3068  0.7069  0.4837
 6488TIP3   OH219406   5.754   3.457   4.521 -0.1865  0.4566  0.3134
 6488TIP3    H119407   5.743   3.452   4.616 -1.3885 -2.4846  0.0909
 6488TIP3    H219408   5.831   3.402   4.504 -2.0013 -1.8893 -0.6556
 6489TIP3   OH219409   2.241   2.354   3.048  0.0672  0.2898  0.3622
 6489TIP3    H119410   2.326   2.374   3.085  0.8880 -0.2164 -1.1912
 6489TIP3    H219411   2.195   2.304   3.116  2.0325 -1.7913  0.2116
 6490TIP3   OH219412   0.390   7.576   3.935 -0.6756 -0.2027 -0.0122
 6490TIP3    H119413   0.418   7.582   3.843 -0.5351 -0.1030  0.0374
 6490TIP3    H219414   0.374   7.667   3.961 -1.4357 -0.2840 -0.1617
 6491TIP3   OH219415   4.778   0.885   5.510  0.2030  0.0846  0.1212
 6491TIP3    H119416   4.721   0.814   5.541  0.5436 -0.8456 -1.3124
 6491TIP3    H219417   4.821   0.918   5.588 -0.3642 -0.9529  0.8771
 6492TIP3   OH219418   2.541   4.554   5.029  0.0167  0.3070 -0.6202
 6492TIP3    H119419   2.629   4.532   5.057 -0.4672 -0.0879  0.5879
 6492TIP3    H219420   2.514   4.626   5.087 -1.1231 -0.7666  0.1966
 6493TIP3   OH219421   2.028   4.537   3.670 -0.2532  0.7028 -0.1961
 6493TIP3    H119422   1.958   4.591   3.707 -0.0643  0.6203  0.2820
 6493TIP3    H219423   2.102   4.597   3.661  0.0704  0.4336  0.6809
 6494TIP3   OH219424   2.011   3.076   5.542  0.0109  0.6719 -0.6607
 6494TIP3    H119425   2.029   3.148   5.482 -0.8477 -1.0382 -3.0512
 6494TIP3    H219426   2.097   3.038   5.561  0.1467  0.0600 -2.3722
 6495TIP3   OH219427   1.064   0.883   4.944  0.5335  0.0455  0.4119
 6495TIP3    H119428   1.102   0.873   5.031  0.7918 -2.5953  0.0222
 6495TIP3    H219429   0.971   0.899   4.960  0.9131  1.6156  1.2019
 6496TIP3   OH219430   5.888   1.270   6.643  0.1686  0.0892  0.4032
 6496TIP3    H119431   5.969   1.267   6.593  0.1099 -0.6502  0.3549
 6496TIP3    H219432   5.819   1.275   6.577  0.0634 -1.3768  0.3838
 6497TIP3   OH219433   3.374   2.314   4.907  0.0854  0.4774  0.4276
 6497TIP3    H119434   3.465   2.301   4.932 -0.3196 -0.1092  1.6169
 6497TIP3    H219435   3.334   2.359   4.981 -0.6472  0.5745 -0.0123
 6498TIP3   OH219436   3.556   2.306   4.656  0.2946  0.0285  0.7371
 6498TIP3    H119437   3.471   2.348   4.660  0.8223  1.2617 -0.5417
 6498TIP3    H219438   3.616   2.376   4.630  1.5451 -1.0121  0.7727
 6499TIP3   OH219439   4.345   1.264   4.100 -0.0841  0.1522  0.1283
 6499TIP3    H119440   4.376   1.208   4.029  0.8858  0.6032  0.1945
 6499TIP3    H219441   4.296   1.334   4.056 -0.4254 -0.1747 -0.0173
 6500TIP3   OH219442   3.493   4.082   3.330  0.5705 -0.8361 -0.2421
 6500TIP3    H119443   3.486   4.027   3.252 -0.0313 -0.6177 -0.3466
 6500TIP3    H219444   3.415   4.061   3.381  0.7448 -0.6603  0.0956
 6501TIP3   OH219445   2.741   2.255   6.252 -0.1852 -0.0679  0.3804
 6501TIP3    H119446   2.661   2.307   6.262 -0.9640 -0.8779 -1.3277
 6501TIP3    H219447   2.713   2.180   6.199  1.9633  0.2580 -1.2922
 6502TIP3   OH219448   3.539   2.686   5.830 -0.4319  0.2416  0.1015
 6502TIP3    H119449   3.516   2.747   5.760 -0.2025  0.8377  0.5411
 6502TIP3    H219450   3.458   2.637   5.846 -0.5903  0.3616 -0.3199
 6503TIP3   OH219451   1.659   0.954   4.741  0.1091  0.1001 -0.0329
 6503TIP3    H119452   1.570   0.926   4.758  0.5710 -0.9091  0.7640
 6503TIP3    H219453   1.714   0.896   4.794  1.1223  2.0826  1.1641
 6504TIP3   OH219454   1.709   4.225   6.251 -0.4330  0.7521  0.0276
 6504TIP3    H119455   1.725   4.226   6.157 -1.5085  1.7783 -0.1483
 6504TIP3    H219456   1.675   4.138   6.269  0.0268  0.4654 -0.4796
 6505TIP3   OH219457   4.466   4.408   4.006 -0.0897  0.0173  0.1319
 6505TIP3    H119458   4.509   4.330   4.040 -1.1673 -0.1233  1.2149
 6505TIP3    H219459   4.479   4.474   4.074 -1.1197  0.1283  0.2296
 6506TIP3   OH219460   7.946   7.770   5.604 -0.0947 -0.1920  0.1893
 6506TIP3    H119461   8.040   7.785   5.604  0.2825 -2.3948 -0.6719
 6506TIP3    H219462   7.935   7.687   5.558 -2.5551  0.6632 -0.8736
 6507TIP3   OH219463   8.134   7.962   6.396 -0.1765 -0.2591 -0.0133
 6507TIP3    H119464   8.132   7.930   6.306  2.7407 -0.1280 -0.1731
 6507TIP3    H219465   8.118   8.056   6.389  2.8962  0.2485 -0.7121
 6508TIP3   OH219466   3.168   2.769   4.956 -0.1783  0.1430 -0.1780
 6508TIP3    H119467   3.115   2.728   5.024 -0.8553 -0.3393 -0.9835
 6508TIP3    H219468   3.165   2.707   4.883  0.3869  0.7405 -0.7167
 6509TIP3   OH219469   6.067   6.140   0.553  0.2782  0.2255 -0.3333
 6509TIP3    H119470   6.098   6.148   0.643  1.3861  0.8883 -0.7715
 6509TIP3    H219471   6.099   6.218   0.509  1.0245 -0.8153 -1.6849
 6510TIP3   OH219472   1.979   1.783   5.123  0.7535 -0.4421  0.2411
 6510TIP3    H119473   1.891   1.763   5.089  0.5770 -0.0664  0.4676
 6510TIP3    H219474   2.021   1.698   5.133  0.7354 -0.5715 -0.7307
 6511TIP3   OH219475   6.645   2.610   4.557  0.3049 -0.6575  0.1282
 6511TIP3    H119476   6.727   2.644   4.522  0.5523 -0.3052  1.0408
 6511TIP3    H219477   6.670   2.527   4.598  0.1987 -0.5704  0.3675
 6512TIP3   OH219478   3.992   2.812   3.427 -0.1127 -0.1223  0.1122
 6512TIP3    H119479   4.014   2.904   3.416  0.0747 -0.3570 -1.5350
 6512TIP3    H219480   3.899   2.806   3.404  0.0178 -0.4379 -0.3401
 6513TIP3   OH219481   2.239   1.798   5.016 -0.0451  0.1242  0.5823
 6513TIP3    H119482   2.156   1.786   5.063  0.4351  0.5383  1.5642
 6513TIP3    H219483   2.233   1.740   4.941 -1.2755  0.2368  0.5849
 6514TIP3   OH219484   4.308   3.901   3.671  0.6003 -0.5467  0.4867
 6514TIP3    H119485   4.284   3.990   3.644  1.8305 -0.3465  0.0352
 6514TIP3    H219486   4.248   3.845   3.621 -0.9674  0.0517  1.6351
 6515TIP3   OH219487   3.533   6.839   0.674  0.0516 -0.2173  0.0055
 6515TIP3    H119488   3.623   6.822   0.703  0.0908 -0.9035 -0.5055
 6515TIP3    H219489   3.479   6.815   0.749  0.3318  0.8301  0.5535
 6516TIP3   OH219490   3.043   1.780   4.641 -0.0796  0.0654  0.1362
 6516TIP3    H119491   3.021   1.801   4.550 -0.6849 -2.2021 -0.2809
 6516TIP3    H219492   3.107   1.845   4.666  1.4528 -0.3365 -2.5213
 6517TIP3   OH219493   2.417   4.017   5.609 -0.0472  0.0105 -0.6173
 6517TIP3    H119494   2.425   4.052   5.520 -1.2320 -0.7640 -1.0561
 6517TIP3    H219495   2.362   3.939   5.598  0.8254 -0.7949  0.6223
 6518TIP3   OH219496   3.154   1.683   2.744  0.3066 -1.0177  0.4161
 6518TIP3    H119497   3.143   1.768   2.700 -0.8739 -1.9812 -1.1899
 6518TIP3    H219498   3.229   1.696   2.802  1.5408  0.4608 -1.4453
 6519TIP3   OH219499   4.762   4.142   5.210 -0.0763  0.5177  0.5184
 6519TIP3    H119500   4.695   4.084   5.245  0.3678 -0.5244 -0.3278
 6519TIP3    H219501   4.827   4.083   5.170  0.8440  1.5494  0.4690
 6520TIP3   OH219502   1.654   3.278   5.492 -0.3652 -0.4581 -0.9424
 6520TIP3    H119503   1.687   3.335   5.422 -0.2312 -0.9302 -1.2674
 6520TIP3    H219504   1.605   3.337   5.550  0.4384  0.1186 -0.8492
 6521TIP3   OH219505   8.196   3.935   4.119 -0.0130 -0.3388  0.1743
 6521TIP3    H119506   8.290   3.916   4.115 -0.0469 -0.5736  0.5005
 6521TIP3    H219507   8.191   4.024   4.153  0.0845 -0.3773  0.2880
 6522TIP3   OH219508   4.376   2.211   6.199 -0.2162  0.5588  0.0265
 6522TIP3    H119509   4.429   2.287   6.173  2.0283 -0.2570  2.0568
 6522TIP3    H219510   4.428   2.135   6.173 -0.5561 -0.2608  1.6799
 6523TIP3   OH219511   2.319   1.264   5.218 -0.1638  0.1421 -0.4914
 6523TIP3    H119512   2.346   1.182   5.177  0.0945  0.9643 -1.9813
 6523TIP3    H219513   2.348   1.256   5.309 -2.9010 -2.7080  0.2040
 6524TIP3   OH219514   3.116   3.590   4.735  0.3614  0.7932 -0.1556
 6524TIP3    H119515   3.056   3.575   4.662 -1.1566 -1.0004  1.4230
 6524TIP3    H219516   3.181   3.519   4.727 -1.0167 -0.7002  1.4101
 6525TIP3   OH219517   4.731   1.889   3.463  0.2891  0.0963 -0.7706
 6525TIP3    H119518   4.747   1.796   3.481  1.0233 -0.0771 -2.2179
 6525TIP3    H219519   4.812   1.932   3.489 -0.0842  0.3483 -0.0169
 6526TIP3   OH219520   6.817   0.853   1.162  0.3309  0.7353 -0.0066
 6526TIP3    H119521   6.875   0.786   1.198  0.9359  0.4543 -1.4816
 6526TIP3    H219522   6.830   0.848   1.067 -3.3371 -0.4864 -0.5155
 6527TIP3   OH219523   5.415   7.758   0.145 -0.1329 -0.2489  0.6538
 6527TIP3    H119524   5.328   7.733   0.177 -0.9762  0.6673 -0.8577
 6527TIP3    H219525   5.438   7.690   0.082 -0.0435 -0.1274  0.5550
 6528TIP3   OH219526   1.907   2.406   4.608  0.3816 -0.1413 -0.0864
 6528TIP3    H119527   1.950   2.375   4.689  1.9398  0.0195 -0.8301
 6528TIP3    H219528   1.895   2.500   4.622  0.2672 -0.1876  0.1296
 6529TIP3   OH219529   4.772   4.673   0.539 -0.2060  0.3180  0.5027
 6529TIP3    H119530   4.768   4.580   0.517 -1.9452  0.5035 -0.0396
 6529TIP3    H219531   4.844   4.680   0.602 -1.0506 -1.6323  1.7375
 6530TIP3   OH219532   1.022   0.099   1.150 -0.4768 -0.2814 -0.1899
 6530TIP3    H119533   1.046   0.089   1.058 -0.6290  0.3541 -0.3023
 6530TIP3    H219534   0.933   0.134   1.148 -0.4211 -0.1113  0.1975
 6531TIP3   OH219535   2.300   2.739   6.493  0.2655 -0.6415  0.1285
 6531TIP3    H119536   2.368   2.756   6.427 -1.1422  3.3006 -0.4468
 6531TIP3    H219537   2.272   2.649   6.476  1.5332 -0.4855 -3.2006
 6532TIP3   OH219538   2.819   1.661   5.141  0.3677  0.3325 -0.1962
 6532TIP3    H119539   2.734   1.618   5.148 -0.2962  1.8080  1.1912
 6532TIP3    H219540   2.864   1.614   5.072 -1.5985 -0.4494 -0.9780
 6533TIP3   OH219541   3.205   1.240   6.351  0.0869  0.0388  0.3138
 6533TIP3    H119542   3.272   1.186   6.309  1.6604  1.8241  0.4638
 6533TIP3    H219543   3.131   1.239   6.289  0.9769 -0.3924 -0.7565
 6534TIP3   OH219544   4.701   3.374   4.269 -0.3710  0.2976 -0.3674
 6534TIP3    H119545   4.797   3.382   4.267 -0.2184 -1.6489 -2.8887
 6534TIP3    H219546   4.677   3.344   4.181 -3.5789  3.2914 -0.6147
 6535TIP3   OH219547   2.605   1.628   4.946 -0.4146  0.0318 -0.6473
 6535TIP3    H119548   2.610   1.653   4.854  2.0084  2.1098 -0.0187
 6535TIP3    H219549   2.600   1.712   4.993  3.2352 -0.7640  1.3235
 6536TIP3   OH219550   4.069   6.810   1.989  0.2339 -0.2820 -0.3309
 6536TIP3    H119551   4.101   6.897   1.968  3.3748 -1.2554  0.2562
 6536TIP3    H219552   3.975   6.823   2.007  0.5545  2.8633 -0.6874
 6537TIP3   OH219553   8.080   7.965   6.124 -0.5630 -0.0586 -0.0350
 6537TIP3    H119554   8.101   7.975   6.031  0.2132 -1.4253 -0.0107
 6537TIP3    H219555   7.987   7.987   6.129 -0.8291 -0.8269 -1.2954
 6538TIP3   OH219556   4.425   6.197   0.023 -0.1479 -0.2099 -0.3632
 6538TIP3    H119557   4.390   6.215   0.110 -0.3412 -0.5845 -0.3594
 6538TIP3    H219558   4.387   6.264  -0.033  0.5285  0.4598 -0.0327
 6539TIP3   OH219559   3.875   4.843   3.997  0.2788  0.3482  0.6694
 6539TIP3    H119560   3.916   4.835   3.911  0.7782  1.2085  0.8265
 6539TIP3    H219561   3.821   4.922   3.991  0.1715  0.3102  1.0881
 6540TIP3   OH219562   1.270   0.909   4.202 -0.3127 -0.1986  0.3480
 6540TIP3    H119563   1.208   0.869   4.141  1.7125 -3.2469  0.2181
 6540TIP3    H219564   1.289   0.840   4.266  2.8099  0.7437  0.4868
 6541TIP3   OH219565   2.139   3.928   6.767 -0.1037 -0.2366  0.3747
 6541TIP3    H119566   2.197   3.987   6.719  0.2901  0.3527  1.5554
 6541TIP3    H219567   2.085   3.887   6.699 -1.2190  2.3610 -0.3828
 6542TIP3   OH219568   3.030   1.128   4.651  0.7301  0.3160  0.1482
 6542TIP3    H119569   3.052   1.210   4.607  0.2536 -0.0094 -0.7037
 6542TIP3    H219570   2.935   1.124   4.649  0.6859  0.5315  1.6503
 6543TIP3   OH219571   5.420   1.542   5.996 -0.1501  0.2419 -0.6281
 6543TIP3    H119572   5.505   1.522   6.035  1.0248  1.0742 -2.6476
 6543TIP3    H219573   5.392   1.460   5.955 -2.3383 -1.2015  3.5167
 6544TIP3   OH219574   3.569   3.648   4.430 -0.4813 -0.1184 -0.1468
 6544TIP3    H119575   3.529   3.688   4.507 -1.0330  0.7637 -0.8883
 6544TIP3    H219576   3.495   3.609   4.383 -0.1038 -0.9380 -0.0674
 6545TIP3   OH219577   5.010   2.573   5.691  0.3136 -0.3344  0.2584
 6545TIP3    H119578   5.073   2.637   5.659 -0.0393 -0.8386 -1.4809
 6545TIP3    H219579   5.062   2.494   5.708  0.3532 -0.3568  0.0345
 6546TIP3   OH219580   4.664   0.518   4.130 -0.0307 -0.2076 -0.1030
 6546TIP3    H119581   4.691   0.608   4.150  2.5956 -0.8912 -0.3783
 6546TIP3    H219582   4.572   0.526   4.105 -0.5844  2.0482  2.3734
 6547TIP3   OH219583   2.947   2.037   3.659  0.1246 -0.0694 -0.0810
 6547TIP3    H119584   2.899   2.109   3.700  2.9385  1.1770  1.1871
 6547TIP3    H219585   2.939   2.054   3.565  1.3297  2.3598  0.2019
 6548TIP3   OH219586   2.279   2.279   2.785 -0.9106  0.1046  0.5580
 6548TIP3    H119587   2.270   2.298   2.878 -0.5753  1.6201  0.3057
 6548TIP3    H219588   2.212   2.214   2.766 -1.4879  0.3628  1.7023
 6549TIP3   OH219589   3.023   3.110   5.164 -0.0031 -0.2779 -0.3399
 6549TIP3    H119590   3.098   3.088   5.219 -1.3903 -2.4174  0.7531
 6549TIP3    H219591   3.050   3.084   5.076  2.0496  2.7442 -0.7154
 6550TIP3   OH219592   2.084   2.606   3.189  0.2552 -0.0226 -0.4340
 6550TIP3    H119593   2.098   2.521   3.148 -1.6772 -0.0573 -1.0743
 6550TIP3    H219594   2.166   2.654   3.175  0.1755 -0.5960 -2.9328
 6551TIP3   OH219595   0.375   7.832   4.028 -0.7285 -0.3715 -0.9488
 6551TIP3    H119596   0.345   7.864   4.114  1.9689  1.1326 -0.5100
 6551TIP3    H219597   0.362   7.906   3.969  1.6203  0.1496 -0.8443
 6552TIP3   OH219598   4.311   0.084   6.101 -0.2606 -0.3188  1.1044
 6552TIP3    H119599   4.404   0.081   6.079 -0.4031  0.8878  0.3167
 6552TIP3    H219600   4.305   0.038   6.185  1.1527  0.1971  1.5087
 6553TIP3   OH219601   2.412   2.697   4.475  0.3665  0.5856 -0.1072
 6553TIP3    H119602   2.363   2.637   4.532  0.8078 -1.9214 -2.2476
 6553TIP3    H219603   2.447   2.763   4.535 -1.2383 -0.5504  2.1797
 6554TIP3   OH219604   4.986   3.923   6.107  0.2880 -0.4242 -0.3359
 6554TIP3    H119605   5.008   3.946   6.017 -0.1512  1.5496  0.0440
 6554TIP3    H219606   4.921   3.988   6.134 -0.5264 -1.7517  0.9969
 6555TIP3   OH219607   3.778   0.210   6.020 -0.3130 -0.1322 -0.0389
 6555TIP3    H119608   3.822   0.268   5.958 -1.2079  0.4586 -0.1299
 6555TIP3    H219609   3.820   0.227   6.104 -1.5826  1.7627  0.2365
 6556TIP3   OH219610   3.220   0.476   5.070  0.4079  0.2749  0.6022
 6556TIP3    H119611   3.273   0.428   5.132  2.5711  1.0435 -0.5780
 6556TIP3    H219612   3.252   0.448   4.984 -0.6298  1.2540 -0.1248
 6557TIP3   OH219613   1.780   1.234   2.107 -0.6872 -0.4162 -0.0858
 6557TIP3    H119614   1.745   1.153   2.072 -1.9373  0.8189 -1.7666
 6557TIP3    H219615   1.713   1.300   2.089  0.3828  1.0401  1.0710
 6558TIP3   OH219616   5.078   1.421   5.722 -0.0449  0.1620 -0.0246
 6558TIP3    H119617   5.133   1.395   5.797  0.2912  1.3346  0.1538
 6558TIP3    H219618   5.087   1.349   5.660 -2.5870 -2.1772  2.2017
 6559TIP3   OH219619   5.991   0.959   3.294  0.6134 -0.0152  0.2581
 6559TIP3    H119620   5.982   1.000   3.381  2.6589  0.0474  0.4801
 6559TIP3    H219621   5.970   0.867   3.309 -0.7960  0.3290  0.4432
 6560TIP3   OH219622   4.132   5.795   0.253 -0.2559  0.0035 -0.0384
 6560TIP3    H119623   4.144   5.757   0.166 -0.2224  0.5303 -0.2641
 6560TIP3    H219624   4.107   5.720   0.308  1.1413 -0.5805 -0.1851
 6561TIP3   OH219625   4.706   3.260   5.837  0.0694  0.6841  0.4448
 6561TIP3    H119626   4.799   3.236   5.844 -0.5208 -1.6807  0.3897
 6561TIP3    H219627   4.672   3.205   5.767 -1.5832  0.9391  1.0276
 6562TIP3   OH219628   2.882   1.519   4.922 -0.4903 -0.6759 -0.5112
 6562TIP3    H119629   2.977   1.504   4.914 -0.0666  0.5566  1.8091
 6562TIP3    H219630   2.846   1.483   4.841  1.8821 -1.8325 -1.1244
 6563TIP3   OH219631   0.317   7.589   5.543 -0.8545 -0.9674 -0.6450
 6563TIP3    H119632   0.293   7.531   5.616  3.1055 -1.4223  0.4011
 6563TIP3    H219633   0.318   7.677   5.582  1.1299 -1.1948 -0.1391
 6564TIP3   OH219634   2.347   2.482   3.718  0.6197 -0.1664  0.1527
 6564TIP3    H119635   2.337   2.454   3.627  2.2738  0.8682 -0.3683
 6564TIP3    H219636   2.380   2.571   3.712 -1.4915  0.7580  1.7898
 6565TIP3   OH219637   7.455   7.446   4.744 -0.0214  0.4420  0.2402
 6565TIP3    H119638   7.523   7.454   4.811  0.4557  1.1369 -0.3145
 6565TIP3    H219639   7.503   7.425   4.664 -0.5169  0.3548 -0.0350
 6566TIP3   OH219640   1.474   2.355   5.129 -0.0406  0.2556  0.7819
 6566TIP3    H119641   1.491   2.432   5.077 -1.0381 -0.1372 -0.1374
 6566TIP3    H219642   1.381   2.361   5.152 -0.3398 -1.0959 -0.0214
 6567TIP3   OH219643   5.289   6.168   0.129 -0.8549 -0.0090  0.2578
 6567TIP3    H119644   5.236   6.180   0.208 -1.7135 -0.1200 -0.2890
 6567TIP3    H219645   5.239   6.105   0.076 -1.8936  2.4417 -1.7780
 6568TIP3   OH219646   2.768   0.416   2.868  0.5475 -0.0410  0.1919
 6568TIP3    H119647   2.758   0.359   2.791  3.2797  1.8268 -1.6655
 6568TIP3    H219648   2.840   0.377   2.918  1.9360  1.2702 -0.7100
 6569TIP3   OH219649   2.659   2.061   6.078  0.2378  0.3575 -0.4922
 6569TIP3    H119650   2.575   2.033   6.114 -0.1292  2.0576  0.0292
 6569TIP3    H219651   2.636   2.111   6.000  0.8129  0.0376 -0.8669
 6570TIP3   OH219652   1.750   1.724   4.555  0.2860 -0.4706  0.3371
 6570TIP3    H119653   1.822   1.664   4.571  1.2878  0.4782 -0.5940
 6570TIP3    H219654   1.757   1.748   4.463 -2.3545 -1.8268 -0.2630
 6571TIP3   OH219655   3.584   1.218   4.158 -0.2277 -0.2760  0.1980
 6571TIP3    H119656   3.558   1.231   4.249  2.1365 -2.3539  1.2425
 6571TIP3    H219657   3.563   1.126   4.141  2.6775 -0.9324 -0.1366
 6572TIP3   OH219658   4.497   2.217   4.968 -0.2790 -0.2196  0.6016
 6572TIP3    H119659   4.429   2.216   4.901  0.1852 -0.4440  0.1259
 6572TIP3    H219660   4.545   2.135   4.953  0.5261  0.2760  0.4846
 6573TIP3   OH219661   3.251   1.155   5.164 -0.0970  0.5942  0.3627
 6573TIP3    H119662   3.181   1.170   5.101 -0.3789 -1.2900  0.2019
 6573TIP3    H219663   3.330   1.185   5.120 -0.5013  0.6885 -0.2999
 6574TIP3   OH219664   0.800   0.310   1.990  0.2430  0.0329 -0.0781
 6574TIP3    H119665   0.767   0.290   1.903 -1.7846 -0.0074  0.6614
 6574TIP3    H219666   0.872   0.249   2.004  0.0885 -0.4671 -1.4288
 6575TIP3   OH219667   3.451   3.615   4.042 -0.0151 -0.0177 -0.2799
 6575TIP3    H119668   3.544   3.619   4.022 -0.0622  0.2824 -0.4372
 6575TIP3    H219669   3.413   3.689   3.995 -0.2294  0.2802  0.3546
 6576TIP3   OH219670   2.899   2.723   5.403 -0.4340 -0.0197 -0.0849
 6576TIP3    H119671   2.907   2.815   5.428  2.3813 -0.2876  0.1335
 6576TIP3    H219672   2.940   2.675   5.475 -1.8566 -1.4627 -0.2109
 6577TIP3   OH219673   3.566   3.528   3.256  0.3472 -0.2595 -0.0872
 6577TIP3    H119674   3.607   3.608   3.289  0.6830 -0.6572  0.4666
 6577TIP3    H219675   3.502   3.559   3.192  0.1491  0.4864  0.4546
 6578TIP3   OH219676   0.410   3.516   3.265  0.5430 -0.1308  0.2157
 6578TIP3    H119677   0.366   3.589   3.222  0.1193  0.7914  2.1400
 6578TIP3    H219678   0.494   3.551   3.292  1.2288 -1.0061 -0.7611
 6579TIP3   OH219679   1.517   2.711   6.194  0.2562 -0.2864  0.1044
 6579TIP3    H119680   1.423   2.693   6.196  0.5590 -1.8718  0.9408
 6579TIP3    H219681   1.526   2.794   6.240 -0.7694 -0.0141 -0.1823
 6580TIP3   OH219682   3.941   4.065   4.699 -0.4836 -0.0235  0.1719
 6580TIP3    H119683   3.976   4.101   4.617  3.9000 -0.3391  1.7587
 6580TIP3    H219684   3.898   4.139   4.741  3.3649  2.0335  0.7079
 6581TIP3   OH219685   2.979   2.671   5.945  0.1244 -0.2094  0.4387
 6581TIP3    H119686   3.003   2.581   5.969 -0.5263 -0.6781 -0.6372
 6581TIP3    H219687   3.049   2.725   5.980 -0.0351 -1.0268  2.0839
 6582TIP3   OH219688   2.290   2.553   4.658 -0.6118  0.0977  0.2252
 6582TIP3    H119689   2.221   2.561   4.724 -0.4629 -0.1149  0.4073
 6582TIP3    H219690   2.367   2.525   4.708 -0.3748  0.4020  0.0375
 6583TIP3   OH219691   4.435   0.493   6.698  0.2348  0.2890  0.3620
 6583TIP3    H119692   4.416   0.531   6.612  0.0891 -1.0482 -0.2014
 6583TIP3    H219693   4.353   0.452   6.726  0.2972  0.6713  1.1185
 6584TIP3   OH219694   3.506   5.817   3.805  0.3524 -0.0108  0.1825
 6584TIP3    H119695   3.478   5.807   3.896  0.3235  0.8653  0.2686
 6584TIP3    H219696   3.467   5.899   3.777  2.3195  0.9213  0.1209
 6585TIP3   OH219697   1.823   2.071   5.013 -0.2197 -0.5322  0.1966
 6585TIP3    H119698   1.877   1.997   5.039  0.3906  0.3046  1.3276
 6585TIP3    H219699   1.861   2.146   5.058  0.4697  0.8619 -2.5914
 6586TIP3   OH219700   1.523   0.799   4.476 -0.0531  0.5708  0.2595
 6586TIP3    H119701   1.431   0.771   4.479  0.6080 -1.8451 -1.3060
 6586TIP3    H219702   1.529   0.866   4.544 -2.6168 -0.3507  1.4688
 6587TIP3   OH219703   2.131   2.467   4.402 -0.4867 -0.4311  0.5040
 6587TIP3    H119704   2.220   2.431   4.395 -0.2633  0.0209  1.0141
 6587TIP3    H219705   2.096   2.430   4.483 -1.8805 -3.0350 -1.2207
 6588TIP3   OH219706   8.013   7.731   5.879 -0.3605 -0.1921 -0.8137
 6588TIP3    H119707   7.969   7.780   5.810 -0.6133  2.9301  1.4534
 6588TIP3    H219708   7.996   7.781   5.959  2.1983 -2.2138  1.0983
 6589TIP3   OH219709  -0.028   4.502   5.815 -1.1116  0.1463 -0.3920
 6589TIP3    H119710   0.018   4.516   5.732 -1.2621  1.2395 -0.2974
 6589TIP3    H219711   0.020   4.556   5.878 -0.7286 -1.0256  0.3390
 6590TIP3   OH219712   8.283   7.769   4.737 -0.1056  0.5863 -0.1981
 6590TIP3    H119713   8.263   7.788   4.645 -0.8158 -0.3696 -0.2471
 6590TIP3    H219714   8.314   7.852   4.772  0.3487  0.9202 -1.3526
 6591TIP3   OH219715   1.708   0.972   4.303 -0.1731  0.9862  0.3320
 6591TIP3    H119716   1.645   0.991   4.233  0.4787 -0.4058 -0.6588
 6591TIP3    H219717   1.664   0.905   4.356  0.6009 -0.2575 -0.5735
 6592TIP3   OH219718   1.595   1.170   4.049 -0.2697  0.1237  0.2846
 6592TIP3    H119719   1.675   1.154   4.000 -0.0231  1.2272  0.3096
 6592TIP3    H219720   1.575   1.262   4.033 -2.7935 -0.6725 -1.5893
 6593TIP3   OH219721   4.057   3.534   3.779 -0.4599  0.4614  0.1793
 6593TIP3    H119722   4.086   3.584   3.703  2.4135  0.0915  0.9985
 6593TIP3    H219723   3.980   3.486   3.747  0.2685  0.8562 -2.2748
 6594TIP3   OH219724   6.118   5.651   0.205  0.3698 -0.9414 -0.0042
 6594TIP3    H119725   6.113   5.742   0.231  1.2899 -1.2511  1.3298
 6594TIP3    H219726   6.153   5.606   0.282 -2.7049 -2.8550  0.3381
 6595TIP3   OH219727   7.606   6.385   0.158 -0.4745 -0.0885  0.1075
 6595TIP3    H119728   7.681   6.408   0.212  1.4085  3.5983 -3.8067
 6595TIP3    H219729   7.551   6.463   0.159 -1.6772 -0.9002 -1.2037
 6596TIP3   OH219730   2.892   1.936   6.720  0.1727  0.0272  0.0808
 6596TIP3    H119731   2.953   2.008   6.741 -1.0176  0.8196  0.8709
 6596TIP3    H219732   2.940   1.857   6.746  0.5486  0.7006  1.5159
 6597TIP3   OH219733   3.147   0.914   4.583  0.6109 -0.2773  0.6177
 6597TIP3    H119734   3.189   0.969   4.517 -1.7287 -0.2666 -0.9226
 6597TIP3    H219735   3.098   0.975   4.638  1.2317 -0.4496  1.3689
 6598TIP3   OH219736   1.606   4.261   6.636  0.3583 -0.0194 -0.1283
 6598TIP3    H119737   1.638   4.184   6.683 -1.5023 -0.2426  0.8595
 6598TIP3    H219738   1.533   4.227   6.583 -0.1499  0.9681 -0.0647
 6599TIP3   OH219739   3.806   2.736   3.876  0.3274  0.1969 -0.8657
 6599TIP3    H119740   3.768   2.823   3.889  2.2986  0.7181  1.7023
 6599TIP3    H219741   3.891   2.753   3.836  1.7204 -0.3379  1.7422
 6600TIP3   OH219742   4.774   0.576   3.295  0.0085  0.0248 -0.2193
 6600TIP3    H119743   4.679   0.587   3.284 -0.1908 -2.3289 -0.9793
 6600TIP3    H219744   4.784   0.543   3.384 -0.0236 -1.1893 -0.6553
 6601TIP3   OH219745   3.373   2.121   3.713 -0.4171  0.3963 -0.4581
 6601TIP3    H119746   3.434   2.071   3.659  1.2557  0.0676  1.6564
 6601TIP3    H219747   3.390   2.212   3.691  0.2895  0.2659 -0.4773
 6602TIP3   OH219748   5.673   4.996   5.003 -0.7048 -0.6112  0.2149
 6602TIP3    H119749   5.629   5.078   4.982 -0.1222  0.0067  1.3147
 6602TIP3    H219750   5.757   5.001   4.957 -0.7841 -0.7072  0.0620
 6603TIP3   OH219751   4.356   2.076   4.500  0.6565  0.1056 -0.1010
 6603TIP3    H119752   4.441   2.120   4.508  0.6430  0.0033  0.6803
 6603TIP3    H219753   4.298   2.141   4.462  0.9954  0.2901 -0.3090
 6604TIP3   OH219754   5.026   3.392   3.568  0.2862  0.2899 -0.2225
 6604TIP3    H119755   4.935   3.393   3.538 -0.2401  0.4129  1.3251
 6604TIP3    H219756   5.041   3.303   3.598  0.8229  0.1574 -0.8663
 6605TIP3   OH219757   3.697   3.150   4.805 -0.5554  0.1410 -0.5848
 6605TIP3    H119758   3.611   3.189   4.796 -0.5619  0.2977  0.1476
 6605TIP3    H219759   3.753   3.202   4.747 -0.5119  1.3886  0.5501
 6606TIP3   OH219760   4.096   3.946   2.769  0.0482  0.3367 -0.4620
 6606TIP3    H119761   4.086   3.965   2.862 -1.6269  2.0405 -0.9765
 6606TIP3    H219762   4.169   4.002   2.741  0.8736 -0.5304 -0.1095
 6607TIP3   OH219763   3.711   2.933   4.502  0.1832  0.2257 -0.0572
 6607TIP3    H119764   3.757   3.005   4.546  1.5603 -0.7022  0.0495
 6607TIP3    H219765   3.727   2.857   4.557 -1.7774 -0.0466  0.1421
 6608TIP3   OH219766   5.093   2.990   4.959  0.0724 -0.3524 -0.7354
 6608TIP3    H119767   5.172   3.042   4.945 -0.5865  0.4325 -1.6146
 6608TIP3    H219768   5.034   3.016   4.888 -1.0696 -0.7373  0.0522
 6609TIP3   OH219769   4.850   1.458   4.252 -0.6182 -0.0476 -0.0793
 6609TIP3    H119770   4.885   1.485   4.337 -0.7623 -1.7578  0.5430
 6609TIP3    H219771   4.897   1.512   4.189  2.0856 -1.2203  0.8600
 6610TIP3   OH219772   4.341   2.555   3.684 -0.2414  0.0651 -0.2277
 6610TIP3    H119773   4.416   2.613   3.700 -1.0566  0.7881  1.0901
 6610TIP3    H219774   4.295   2.553   3.767 -0.8301 -1.6356 -0.5856
 6611TIP3   OH219775   5.436   4.192   4.336  0.4622 -0.0991 -0.1565
 6611TIP3    H119776   5.345   4.220   4.347  0.2067 -0.5644 -1.0877
 6611TIP3    H219777   5.486   4.273   4.337 -0.0127  0.1976 -0.1515
 6612TIP3   OH219778   3.333   1.839   4.508 -0.1656  0.3440  0.4122
 6612TIP3    H119779   3.287   1.923   4.519  1.0305  1.0868 -0.1311
 6612TIP3    H219780   3.317   1.815   4.417  1.3257  1.1109 -0.0697
 6613TIP3   OH219781   4.593   2.839   5.078 -1.1766  0.0399 -0.4519
 6613TIP3    H119782   4.553   2.767   5.127 -0.3050 -0.8015 -0.9570
 6613TIP3    H219783   4.687   2.826   5.089 -1.0169  1.2726 -0.3071
 6614TIP3   OH219784   4.309   2.894   4.753  0.3156  0.5347 -0.2287
 6614TIP3    H119785   4.286   2.900   4.661  1.3119 -1.0594 -0.5992
 6614TIP3    H219786   4.317   2.985   4.782 -1.7251  1.0620 -1.2564
 6615TIP3   OH219787   2.728   0.812   3.042  0.2227 -0.0415 -0.0848
 6615TIP3    H119788   2.759   0.902   3.053 -0.4178  0.1511  0.1827
 6615TIP3    H219789   2.656   0.819   2.979 -0.3099 -0.2661  0.4987
 6616TIP3   OH219790   6.076   1.333   3.663 -0.0182  0.2644  0.1122
 6616TIP3    H119791   5.984   1.319   3.682  0.0892 -1.5643 -0.5615
 6616TIP3    H219792   6.079   1.347   3.568  0.6869 -3.0899 -0.4567
 6617TIP3   OH219793   2.501   4.213   3.536  0.3498  0.1209 -0.2564
 6617TIP3    H119794   2.519   4.184   3.447  0.4541  0.3613 -0.3108
 6617TIP3    H219795   2.531   4.303   3.540  1.1750 -0.1703  0.2823
 6618TIP3   OH219796   5.582   1.919   4.922  0.2110 -0.5241 -0.6131
 6618TIP3    H119797   5.539   1.918   5.007  0.1481  1.7728 -0.5810
 6618TIP3    H219798   5.673   1.896   4.941 -0.1872 -1.7333 -0.1698
 6619TIP3   OH219799   5.046   3.715   3.817  0.3880 -0.4955  0.5568
 6619TIP3    H119800   4.965   3.677   3.853 -0.7767  1.6039  0.1986
 6619TIP3    H219801   5.057   3.671   3.733 -1.5043  0.6376 -0.3094
 6620TIP3   OH219802   5.277   2.976   5.198  0.5082  0.2553 -0.3196
 6620TIP3    H119803   5.250   3.021   5.278 -0.0317  0.1235 -0.4287
 6620TIP3    H219804   5.199   2.975   5.142  0.8975  0.3977 -0.8730
 6621TIP3   OH219805   5.331   3.342   4.333 -0.1781 -0.3042 -0.2809
 6621TIP3    H119806   5.296   3.259   4.303 -0.8411  1.2572 -4.1425
 6621TIP3    H219807   5.266   3.375   4.395 -0.9575 -1.6590 -0.3612
 6622TIP3   OH219808   5.722   0.963   4.795 -0.3353 -0.3612  0.4906
 6622TIP3    H119809   5.707   0.878   4.836 -0.4543 -0.0336  1.1320
 6622TIP3    H219810   5.817   0.968   4.785 -0.3757 -0.8723 -0.2080
 6623TIP3   OH219811   4.252   7.378   4.270 -0.4858  0.1867 -0.1094
 6623TIP3    H119812   4.253   7.315   4.343 -2.5622  0.9061  0.5505
 6623TIP3    H219813   4.164   7.373   4.235 -0.3779  2.0183 -0.6826
 6624TIP3   OH219814   3.271   0.439   3.700 -0.6578  0.3083  0.0424
 6624TIP3    H119815   3.364   0.459   3.690 -0.7588  0.2534 -1.0750
 6624TIP3    H219816   3.228   0.486   3.629 -1.1801 -1.8075 -1.0906
 6625TIP3   OH219817   5.331   3.326   5.414 -0.3833 -0.4479  0.6083
 6625TIP3    H119818   5.266   3.271   5.370 -0.3983  0.4218 -0.4787
 6625TIP3    H219819   5.415   3.296   5.381 -0.3038 -0.7785  1.1095
 6626TIP3   OH219820   4.722   1.716   5.685  0.0673  0.1316 -0.1962
 6626TIP3    H119821   4.712   1.802   5.727 -0.0994  0.7467 -1.4702
 6626TIP3    H219822   4.633   1.688   5.666 -0.0760 -1.6210  2.7016
 6627TIP3   OH219823   3.565   2.075   4.794 -0.1391 -0.2170 -0.0537
 6627TIP3    H119824   3.650   2.039   4.819 -0.1454 -1.1108 -1.3306
 6627TIP3    H219825   3.586   2.162   4.760  0.2698 -0.4568 -0.4199
 6628TIP3   OH219826   4.327   3.210   4.894 -0.0064 -0.1861 -0.4826
 6628TIP3    H119827   4.419   3.188   4.910  0.3639  1.8407  0.3026
 6628TIP3    H219828   4.316   3.297   4.931 -1.6895  0.5331 -2.5545
 6629TIP3   OH219829   6.098   1.902   4.347  0.0505 -0.5426 -0.0440
 6629TIP3    H119830   6.036   1.940   4.285 -1.8882 -1.4176  1.2988
 6629TIP3    H219831   6.061   1.816   4.367  0.3036 -0.0228  2.7855
 6630TIP3   OH219832   5.861   0.632   4.565 -0.3127  0.0325  0.1178
 6630TIP3    H119833   5.903   0.635   4.651  0.3152  0.2237 -0.1861
 6630TIP3    H219834   5.827   0.721   4.552  0.9102  0.4340 -0.4605
 6631TIP3   OH219835   4.113   3.142   4.414 -0.2321  0.4988 -0.2858
 6631TIP3    H119836   4.120   3.186   4.330  0.2730  2.4107  0.7172
 6631TIP3    H219837   4.028   3.170   4.449  0.8971  2.2480  1.1812
 6632TIP3   OH219838   3.811   1.800   4.076  0.9708 -0.2435  0.4421
 6632TIP3    H119839   3.800   1.893   4.056 -0.9429 -0.6005 -0.2991
 6632TIP3    H219840   3.901   1.793   4.106  1.9759  1.4167 -1.9850
 6633TIP3   OH219841   2.515   2.550   2.331  0.4464  0.7636 -0.4297
 6633TIP3    H119842   2.460   2.596   2.268  1.5402  0.1610 -1.8758
 6633TIP3    H219843   2.597   2.534   2.283  0.2406 -2.2845  0.1711
 6634TIP3   OH219844   5.837   3.170   5.839 -0.3972 -0.3251 -0.3435
 6634TIP3    H119845   5.912   3.230   5.831 -1.6501  1.4269  0.6345
 6634TIP3    H219846   5.779   3.195   5.767 -1.2306  0.0909  0.4677
 6635TIP3   OH219847   4.168   1.514   4.349  0.2231 -0.5022 -0.1150
 6635TIP3    H119848   4.143   1.591   4.298 -1.7862 -1.5667 -0.8116
 6635TIP3    H219849   4.234   1.545   4.410  1.9224  1.0404 -2.6695
 6636TIP3   OH219850   3.728   3.860   2.750 -0.6371 -0.0174 -0.1366
 6636TIP3    H119851   3.799   3.796   2.755 -2.3383 -1.9927 -0.8825
 6636TIP3    H219852   3.718   3.878   2.657 -1.0682  0.3356 -0.0247
 6637TIP3   OH219853   5.037   3.854   4.246 -0.4185  0.3544  0.4884
 6637TIP3    H119854   5.051   3.769   4.205  0.5338  0.5379  0.4006
 6637TIP3    H219855   5.025   3.834   4.339  2.5628  0.2980  0.9214
 6638TIP3   OH219856   4.858   5.222   2.634  0.3020  0.4138  0.3580
 6638TIP3    H119857   4.891   5.228   2.544  0.4166 -1.2554  0.2754
 6638TIP3    H219858   4.810   5.140   2.637 -0.5451  0.9421  1.5630
 6639TIP3   OH219859   5.722   2.532   6.571 -0.8967 -0.8654  0.0012
 6639TIP3    H119860   5.792   2.493   6.622 -1.2484 -2.0309 -0.3893
 6639TIP3    H219861   5.720   2.623   6.599  1.2890 -0.6250 -0.5670
 6640TIP3   OH219862   4.925   3.061   3.686  0.8437 -0.1695 -0.3165
 6640TIP3    H119863   4.886   2.976   3.664  0.7242  0.0847 -1.0912
 6640TIP3    H219864   4.854   3.109   3.729 -0.1689  0.8312 -3.0311
 6641TIP3   OH219865   3.847   2.895   6.207  1.0048 -0.1388 -0.4859
 6641TIP3    H119866   3.887   2.837   6.271 -1.2599 -0.9920  0.1982
 6641TIP3    H219867   3.867   2.983   6.239 -0.1000 -0.5546  1.4263
 6642TIP3   OH219868   5.397   2.665   2.633 -0.1681  0.3410  0.5524
 6642TIP3    H119869   5.344   2.688   2.557  1.4657  1.1114 -0.3843
 6642TIP3    H219870   5.409   2.570   2.626 -0.6527  0.3026  0.2579
 6643TIP3   OH219871   4.108   3.371   3.002  0.3409  0.0159  0.2675
 6643TIP3    H119872   4.158   3.445   3.035  1.4642  0.0724 -1.5008
 6643TIP3    H219873   4.173   3.312   2.965 -0.7072 -0.9579 -0.0678
 6644TIP3   OH219874   4.234   0.893   5.266  0.4692 -0.1141  0.4994
 6644TIP3    H119875   4.232   0.900   5.170  0.1320  0.1780  0.5267
 6644TIP3    H219876   4.323   0.864   5.286  1.5649  2.8998  0.3007
 6645TIP3   OH219877   3.915   3.832   5.380 -0.3989  0.6328 -0.2363
 6645TIP3    H119878   3.834   3.786   5.405 -0.4391  0.0436 -1.4353
 6645TIP3    H219879   3.935   3.800   5.292  0.6506  1.4563 -0.3072
 6646TIP3   OH219880   4.778   2.403   6.567 -0.2827  0.0364 -0.4086
 6646TIP3    H119881   4.708   2.469   6.559 -0.5880  0.0001  1.7602
 6646TIP3    H219882   4.803   2.385   6.476  0.3382  3.6912 -1.0456
 6647TIP3   OH219883   6.434   2.487   3.905 -0.7339 -0.3459  0.2811
 6647TIP3    H119884   6.358   2.514   3.852  0.6530  0.4289 -1.3361
 6647TIP3    H219885   6.440   2.393   3.892 -0.1746 -0.1088 -1.2631
 6648TIP3   OH219886   3.088   2.472   4.341  0.0745 -0.1498 -0.0982
 6648TIP3    H119887   3.128   2.451   4.256  0.4856  0.0512  0.0436
 6648TIP3    H219888   3.048   2.558   4.326 -0.2830 -0.3424 -0.2354
 6649TIP3   OH219889   4.355   3.376   5.761  0.2655  0.2467  0.2751
 6649TIP3    H119890   4.271   3.338   5.788 -0.3850  1.9895  0.8350
 6649TIP3    H219891   4.378   3.330   5.680 -0.8138 -0.8344  0.5730
 6650TIP3   OH219892   3.451   2.892   4.865  0.4830  0.1807  0.3158
 6650TIP3    H119893   3.478   2.843   4.787 -1.2233  0.6109 -0.5490
 6650TIP3    H219894   3.382   2.839   4.904  0.8748  0.2969  1.1807
 6651TIP3   OH219895   5.108   3.332   4.501 -0.3495 -0.4953 -0.1603
 6651TIP3    H119896   5.051   3.259   4.476 -0.9140  0.2870 -1.1982
 6651TIP3    H219897   5.053   3.410   4.494  0.1527  0.0034  1.2728
 6652TIP3   OH219898   3.571   2.012   3.555  0.0361 -0.0823 -0.5626
 6652TIP3    H119899   3.645   2.031   3.612  0.7458 -0.8897 -1.2068
 6652TIP3    H219900   3.602   2.032   3.467 -1.0272  1.0733 -0.6921
 6653TIP3   OH219901   4.661   1.565   3.995  0.1438 -0.0329  0.2106
 6653TIP3    H119902   4.579   1.607   3.967  0.3773 -1.1074 -2.2542
 6653TIP3    H219903   4.660   1.572   4.090 -1.6691  2.0870  0.0839
 6654TIP3   OH219904   5.205   3.971   5.455 -0.1074 -0.2823  0.2001
 6654TIP3    H119905   5.168   3.911   5.520 -0.2766  0.5315  0.8665
 6654TIP3    H219906   5.159   4.053   5.470  1.4004  0.5189  0.4997
 6655TIP3   OH219907   2.861   0.733   4.813 -0.1437 -0.2196  0.5164
 6655TIP3    H119908   2.919   0.709   4.885 -0.8686 -1.8153  0.6045
 6655TIP3    H219909   2.782   0.679   4.827 -0.0565 -1.0113 -1.7737
 6656TIP3   OH219910   4.957   2.286   5.029  0.3359  0.1589 -0.2142
 6656TIP3    H119911   4.973   2.338   5.108  0.9972 -1.7261  0.9197
 6656TIP3    H219912   4.911   2.208   5.060 -0.2227 -0.1782 -1.8301
 6657TIP3   OH219913   2.807   1.989   2.402  0.5426  0.2574 -0.1789
 6657TIP3    H119914   2.760   1.941   2.335 -0.3459 -0.6168  1.0543
 6657TIP3    H219915   2.800   2.081   2.376  1.0781 -0.1511 -1.8086
 6658TIP3   OH219916   6.983   0.847   4.012  0.1000 -0.4404 -0.1207
 6658TIP3    H119917   7.008   0.926   4.059  1.5800 -0.2855 -1.1393
 6658TIP3    H219918   6.981   0.872   3.920  1.1991 -1.7222 -0.5176
 6659TIP3   OH219919   3.391   2.226   4.247  0.0775  0.8279 -0.0221
 6659TIP3    H119920   3.363   2.208   4.157 -0.4323  0.9279  0.1147
 6659TIP3    H219921   3.459   2.293   4.238  0.5169  0.3416 -0.3832
 6660TIP3   OH219922   3.669   1.068   2.980  0.1956 -0.5949 -0.8262
 6660TIP3    H119923   3.707   1.075   3.068 -0.6892  0.3872 -0.5191
 6660TIP3    H219924   3.721   1.000   2.937  0.1956 -1.5687  0.6855
 6661TIP3   OH219925   2.690   0.660   2.745  0.8718  0.2249 -0.3405
 6661TIP3    H119926   2.741   0.586   2.780  0.4812 -0.5613 -1.4219
 6661TIP3    H219927   2.601   0.626   2.736  0.8686  0.5633 -1.6571
 6662TIP3   OH219928   4.589   2.450   5.125  0.2386 -0.2288  0.1927
 6662TIP3    H119929   4.500   2.444   5.159 -0.1757  0.2957 -0.8005
 6662TIP3    H219930   4.597   2.375   5.066  1.4778 -2.0619  2.5890
 6663TIP3   OH219931   7.568   2.663   5.854  0.2339 -0.1116 -0.2364
 6663TIP3    H119932   7.657   2.636   5.830  1.0618  1.0447  1.4165
 6663TIP3    H219933   7.517   2.582   5.851  1.7253 -1.1123  0.4443
 6664TIP3   OH219934   6.414   1.620   5.342 -0.3061 -0.1127  0.0452
 6664TIP3    H119935   6.381   1.706   5.368 -1.8399 -1.0303  1.2778
 6664TIP3    H219936   6.336   1.564   5.341  0.8510 -1.7768  0.5060
 6665TIP3   OH219937   2.232   0.933   4.428  0.2593  0.3086  0.3095
 6665TIP3    H119938   2.221   1.020   4.390  1.3526  0.4622  0.3283
 6665TIP3    H219939   2.273   0.881   4.359 -2.6714 -0.9025 -0.5783
 6666TIP3   OH219940   3.068   1.383   4.519 -0.3094  0.0334  0.0612
 6666TIP3    H119941   3.149   1.432   4.527 -0.1088 -0.0743 -1.3195
 6666TIP3    H219942   3.088   1.311   4.460 -1.2503 -0.3419  0.1771
 6667TIP3   OH219943   3.877   2.234   3.584  0.2868 -0.8441 -0.3377
 6667TIP3    H119944   3.893   2.180   3.506 -2.2503 -1.5250 -0.4364
 6667TIP3    H219945   3.902   2.178   3.658  0.0968 -1.2181 -0.5550
 6668TIP3   OH219946   5.228   2.191   6.355 -0.0660 -0.0715  0.8341
 6668TIP3    H119947   5.284   2.198   6.278  0.2243 -0.4636  1.0037
 6668TIP3    H219948   5.230   2.278   6.394 -1.4405  0.5401 -0.4315
 6669TIP3   OH219949   4.590   1.974   3.679  0.4391 -0.4361 -0.3263
 6669TIP3    H119950   4.663   2.001   3.735  0.1600  0.7078 -0.4971
 6669TIP3    H219951   4.629   1.961   3.592  0.1469  1.9738 -0.8529
 6670TIP3   OH219952   2.604   0.546   4.810  0.1991 -0.1340  0.3620
 6670TIP3    H119953   2.526   0.588   4.848  1.1745  1.2293  0.8856
 6670TIP3    H219954   2.568   0.481   4.749 -1.3623 -0.7760  1.9209
 6671TIP3   OH219955   3.261   0.858   4.186  0.0980  0.1053  0.0918
 6671TIP3    H119956   3.255   0.941   4.138  2.3178 -0.7020 -1.6327
 6671TIP3    H219957   3.283   0.884   4.275 -2.0324  1.5032  0.2618
 6672TIP3   OH219958   5.271   0.728   3.981 -0.1913 -0.0818 -0.2115
 6672TIP3    H119959   5.183   0.694   3.998  0.4403 -0.6550  2.0255
 6672TIP3    H219960   5.322   0.651   3.956 -0.1104  0.1137 -0.6554
 6673TIP3   OH219961   5.011   0.644   4.026 -0.1986  0.3210 -0.0700
 6673TIP3    H119962   4.995   0.565   4.079  0.2075 -0.8869 -1.7337
 6673TIP3    H219963   4.927   0.690   4.028 -0.3690 -0.0045  1.1297
 6674TIP3   OH219964   4.604   2.911   2.528 -0.5432 -0.2185  0.2081
 6674TIP3    H119965   4.642   2.825   2.545 -0.4381  0.2412  2.4476
 6674TIP3    H219966   4.597   2.952   2.614  0.7817  2.6118 -0.9753
 6675TIP3   OH219967   3.214   2.339   3.161 -0.4028  0.3690 -0.5672
 6675TIP3    H119968   3.304   2.359   3.138 -0.2804  0.2402 -0.2060
 6675TIP3    H219969   3.220   2.263   3.219 -0.7091  0.6441 -0.1729
 6676TIP3   OH219970   3.927   3.174   3.915  0.0554  0.3021  0.5410
 6676TIP3    H119971   4.022   3.169   3.909  0.0288  0.1089  0.2731
 6676TIP3    H219972   3.897   3.166   3.824 -0.2371 -0.1531  0.6748
 6677TIP3   OH219973   4.164   1.123   5.530  0.0796 -0.5404 -0.0660
 6677TIP3    H119974   4.257   1.115   5.510  0.3392  1.0646  0.4044
 6677TIP3    H219975   4.144   1.215   5.513 -1.4400 -0.8896 -0.2156
 6678TIP3   OH219976   4.608   3.479   1.546 -0.2837 -0.1273 -0.2749
 6678TIP3    H119977   4.514   3.498   1.536 -0.6429 -1.5976  0.2663
 6678TIP3    H219978   4.647   3.565   1.565 -1.3287  0.6982 -1.7207
 6679TIP3   OH219979   7.047   1.994   5.443  0.0410 -0.1575 -0.0620
 6679TIP3    H119980   6.964   1.949   5.429  1.1274 -1.7305 -1.7126
 6679TIP3    H219981   7.073   2.024   5.356  0.2014  2.1473  0.7616
 6680TIP3   OH219982   4.588   2.120   5.258 -0.4395  0.1403  0.0819
 6680TIP3    H119983   4.562   2.167   5.337  1.0829  0.4365  0.4110
 6680TIP3    H219984   4.531   2.155   5.190 -2.8332 -1.1693  1.2855
 6681TIP3   OH219985   5.505   0.944   4.331 -0.1070 -0.2137  0.2366
 6681TIP3    H119986   5.453   0.941   4.251 -0.1644  0.5844  0.2461
 6681TIP3    H219987   5.595   0.954   4.300 -0.2801  1.6447  0.3120
 6682TIP3   OH219988   5.751   0.876   4.530 -0.3677  0.1227 -0.2574
 6682TIP3    H119989   5.742   0.950   4.470  0.4518 -0.6313 -1.3135
 6682TIP3    H219990   5.722   0.911   4.614  0.5549  1.8319 -0.6157
 6683TIP3   OH219991   5.880   1.917   5.613 -0.4953 -0.6892  0.9644
 6683TIP3    H119992   5.794   1.896   5.578 -0.6177  1.3776 -0.0487
 6683TIP3    H219993   5.879   2.012   5.625  1.4726 -0.6893  1.3764
 6684TIP3   OH219994   3.577   4.043   2.892 -0.2128 -0.2582 -0.5953
 6684TIP3    H119995   3.605   4.001   2.810  0.0313  0.3570 -0.8244
 6684TIP3    H219996   3.647   4.104   2.913 -1.8669  2.0912 -1.7419
 6685TIP3   OH219997   4.526   0.668   3.285 -0.3036  0.1715  0.0197
 6685TIP3    H119998   4.573   0.748   3.261 -2.2224  0.4280 -3.1345
 6685TIP3    H219999   4.462   0.697   3.350 -0.5495  1.1211 -0.6182
 6686TIP3   OH220000   3.860   3.359   6.140  0.1897  0.0015 -0.5124
 6686TIP3    H120001   3.868   3.378   6.233 -0.7593 -2.4098  0.1168
 6686TIP3    H220002   3.945   3.322   6.116  0.3038  0.2622 -0.5113
 6687TIP3   OH220003   2.622   3.749   5.940  0.3482 -0.4420 -0.3637
 6687TIP3    H120004   2.600   3.827   5.889 -0.4871  0.2237  0.9907
 6687TIP3    H220005   2.714   3.762   5.963  0.2238  0.1519 -0.1666
 6688TIP3   OH220006   4.883   3.566   5.767  0.5610  0.1426 -0.5009
 6688TIP3    H120007   4.875   3.661   5.755 -0.7626  0.3324  1.6503
 6688TIP3    H220008   4.802   3.530   5.730 -0.0263  0.0904  0.7817
 6689TIP3   OH220009   6.559   2.371   3.504  0.5692 -0.5673 -0.6355
 6689TIP3    H120010   6.578   2.460   3.534  0.4740 -0.8154  0.1739
 6689TIP3    H220011   6.471   2.353   3.538  0.5549 -0.9404 -0.8705
 6690TIP3   OH220012   4.813   2.814   3.491 -0.6758 -0.3748 -0.2750
 6690TIP3    H120013   4.758   2.746   3.453 -1.3755 -1.6714  2.8788
 6690TIP3    H220014   4.900   2.799   3.454 -1.1748 -2.0096 -0.8046
 6691TIP3   OH220015   4.372   1.277   3.646 -0.0906 -0.3449  0.2792
 6691TIP3    H120016   4.459   1.240   3.630 -0.5582 -1.7690  0.9155
 6691TIP3    H220017   4.316   1.201   3.662 -1.0339  0.6507  1.9235
 6692TIP3   OH220018   5.109   0.198   3.926 -0.4974 -0.4166  0.2353
 6692TIP3    H120019   5.152   0.128   3.877  0.9619  0.3353  0.4192
 6692TIP3    H220020   5.017   0.173   3.927 -0.3052 -1.2928 -1.4632
 6693TIP3   OH220021   3.086   3.156   4.648 -0.0853 -0.2184  0.6887
 6693TIP3    H120022   3.031   3.132   4.574 -0.3275  1.1135  0.4124
 6693TIP3    H220023   3.165   3.194   4.608 -0.4828  1.0710  1.0972
 6694TIP3   OH220024   4.188   2.733   2.110  0.1736 -0.1492 -0.0365
 6694TIP3    H120025   4.211   2.826   2.109 -0.3997 -0.0080 -0.2463
 6694TIP3    H220026   4.263   2.689   2.071  0.1733  0.2876 -0.5285
 6695TIP3   OH220027   4.301   3.973   4.823  0.0830 -0.0227  0.0037
 6695TIP3    H120028   4.312   4.065   4.797 -0.9931 -0.2426 -1.2913
 6695TIP3    H220029   4.247   3.977   4.903 -0.2111  0.4626 -0.2147
 6696TIP3   OH220030   5.422   3.869   6.246  0.2136 -0.3681 -0.0211
 6696TIP3    H120031   5.494   3.893   6.305  1.2310 -1.1151 -0.9550
 6696TIP3    H220032   5.395   3.953   6.207  1.6895 -0.2851 -0.9146
 6697TIP3   OH220033   2.930   2.350   5.076  0.0726  0.1965 -0.1753
 6697TIP3    H120034   2.977   2.321   4.998  0.5966  1.3697 -0.3112
 6697TIP3    H220035   2.924   2.445   5.067  0.7609  0.4405  1.5241
 6698TIP3   OH220036   4.549   4.313   5.157  0.8710  0.0017  0.2945
 6698TIP3    H120037   4.631   4.264   5.159  1.9972  1.7919 -0.3852
 6698TIP3    H220038   4.536   4.333   5.065  1.1637  2.1068  0.6785
 6699TIP3   OH220039   3.622   4.069   1.599  0.3891 -0.1906  0.2077
 6699TIP3    H120040   3.653   4.159   1.598 -0.7381  0.2208 -1.3287
 6699TIP3    H220041   3.701   4.016   1.609  0.9571  0.9838  2.1465
 6700TIP3   OH220042   4.541   2.757   4.775  0.3400  0.0737 -0.1615
 6700TIP3    H120043   4.529   2.664   4.793  1.3383  0.5548  3.4730
 6700TIP3    H220044   4.456   2.797   4.796 -0.3205 -0.0344 -2.4277
 6701TIP3   OH220045   5.015   1.327   4.995  0.5691 -0.4618 -0.0777
 6701TIP3    H120046   5.030   1.233   4.984 -1.0184 -1.0314  2.2586
 6701TIP3    H220047   5.045   1.346   5.084  1.5558  1.4230 -0.7786
 6702TIP3   OH220048   3.168   2.209   4.757  0.1218  0.3411  0.2089
 6702TIP3    H120049   3.241   2.261   4.791 -0.2563 -0.6655  2.7233
 6702TIP3    H220050   3.188   2.119   4.785  0.8235 -0.9608 -4.1663
 6703TIP3   OH220051   5.809   0.184   2.984 -0.3262 -0.2299  0.3819
 6703TIP3    H120052   5.883   0.246   2.977  0.2537 -0.9276  0.2866
 6703TIP3    H220053   5.732   0.237   2.966  0.0849  0.6784  1.2176
 6704TIP3   OH220054   4.845   4.187   6.076 -0.1384  0.2909 -0.0050
 6704TIP3    H120055   4.772   4.170   6.136  0.6476  0.3851  1.0105
 6704TIP3    H220056   4.842   4.281   6.061 -0.2000  0.3021  0.0767
 6705TIP3   OH220057   3.185   2.075   3.955 -0.0730  0.0456 -0.0568
 6705TIP3    H120058   3.128   2.152   3.963 -2.6080 -1.7713  0.1276
 6705TIP3    H220059   3.236   2.091   3.875 -0.8281  1.7277 -0.2357
 6706TIP3   OH220060   4.897   3.108   4.816 -0.2966 -0.3015  0.3179
 6706TIP3    H120061   4.887   3.158   4.735 -0.9809  0.0211  0.5995
 6706TIP3    H220062   4.837   3.034   4.806 -0.7805  0.0325  0.7603
 6707TIP3   OH220063   5.449   2.711   4.310  0.4602  0.2478  0.4023
 6707TIP3    H120064   5.423   2.648   4.377  0.1345 -1.0985 -0.9906
 6707TIP3    H220065   5.369   2.727   4.260  0.3542  2.3339  1.1826
 6708TIP3   OH220066   3.703   3.267   6.622 -0.1798 -0.0727 -0.6984
 6708TIP3    H120067   3.629   3.218   6.657 -0.8260  0.3340 -1.4604
 6708TIP3    H220068   3.771   3.259   6.688 -1.8748  1.9662  1.4244
 6709TIP3   OH220069   5.450   1.490   4.317  0.7847 -0.3006  0.4132
 6709TIP3    H120070   5.475   1.458   4.230  0.5795  0.5621  0.0364
 6709TIP3    H220071   5.501   1.435   4.377  0.1214 -1.6300 -0.2014
 6710TIP3   OH220072   2.686   4.704   5.388 -0.1080  0.2773 -0.0483
 6710TIP3    H120073   2.750   4.776   5.390  1.1919 -0.8640  0.2605
 6710TIP3    H220074   2.641   4.710   5.472  2.1151 -1.1077  1.2988
 6711TIP3   OH220075   2.325   1.834   3.520 -0.3367 -0.1076  0.4533
 6711TIP3    H120076   2.322   1.919   3.564 -3.1795  0.5367 -0.8656
 6711TIP3    H220077   2.412   1.799   3.540 -0.4564  1.4720  4.0770
 6712TIP3   OH220078   3.416   2.660   5.466  0.4200  0.2237 -0.5347
 6712TIP3    H120079   3.434   2.590   5.403 -3.4092 -1.7210  0.4016
 6712TIP3    H220080   3.330   2.639   5.501  0.8414  3.3508  2.6117
 6713TIP3   OH220081   4.967   1.499   3.345 -0.0838  0.0821 -0.4963
 6713TIP3    H120082   4.883   1.545   3.340 -0.6172 -0.8203  0.0917
 6713TIP3    H220083   5.033   1.569   3.339 -0.8433  0.6708 -2.3813
 6714TIP3   OH220084   3.572   3.618   2.519 -0.4666 -0.1629  0.1902
 6714TIP3    H120085   3.578   3.558   2.594  0.2613 -0.8853 -0.4390
 6714TIP3    H220086   3.564   3.705   2.559  2.6101 -0.2569  1.1499
 6715TIP3   OH220087   2.190   3.257   2.993 -0.5553  0.0720  0.3191
 6715TIP3    H120088   2.147   3.189   3.045 -3.5311  0.2900 -1.7648
 6715TIP3    H220089   2.244   3.208   2.931  0.8990 -0.2418  1.7959
 6716TIP3   OH220090   2.119   7.598   6.849 -0.0322  0.5369  0.3275
 6716TIP3    H120091   2.083   7.512   6.829  3.1320 -0.9335  0.6715
 6716TIP3    H220092   2.140   7.636   6.763  1.3552 -0.2996  0.2885
 6717TIP3   OH220093   6.565   0.649   5.511 -0.0081  0.0375  0.0235
 6717TIP3    H120094   6.594   0.562   5.538 -0.1846 -0.3991 -1.1507
 6717TIP3    H220095   6.626   0.709   5.554  1.3728 -0.7720 -0.7416
 6718TIP3   OH220096   3.284   2.866   4.115  0.0611  0.0215  0.0252
 6718TIP3    H120097   3.263   2.872   4.209  0.9001 -1.7571  0.3425
 6718TIP3    H220098   3.204   2.835   4.074  0.0880 -0.4528  0.3324
 6719TIP3   OH220099   2.607   0.444   1.549 -0.6307  0.2437  1.0059
 6719TIP3    H120100   2.537   0.509   1.556  0.1107  0.8492  3.1255
 6719TIP3    H220101   2.682   0.493   1.514 -0.4980  0.1779  1.1998
 6720TIP3   OH220102   6.200   4.177   4.217  0.5015 -0.6478 -0.0935
 6720TIP3    H120103   6.278   4.134   4.181  0.8892 -0.2095  0.2167
 6720TIP3    H220104   6.162   4.224   4.143  0.6172 -0.7435 -0.2124
 6721TIP3   OH220105   3.267   1.181   5.495  0.4377 -0.1272 -0.1167
 6721TIP3    H120106   3.247   1.221   5.411  2.0778  0.1236 -0.4157
 6721TIP3    H220107   3.182   1.158   5.533 -0.4453  2.2220 -0.6264
 6722TIP3   OH220108   5.571   1.558   6.793 -0.5652  0.4745  0.1245
 6722TIP3    H120109   5.516   1.623   6.748  1.0905  2.5780  1.0299
 6722TIP3    H220110   5.660   1.580   6.765  0.0113 -1.5187  0.3674
 6723TIP3   OH220111   6.726   1.242   5.302 -0.5488 -0.1750 -0.6103
 6723TIP3    H120112   6.806   1.233   5.353 -0.9216  1.5085  0.2912
 6723TIP3    H220113   6.657   1.257   5.366 -0.8576  3.0051 -1.6205
 6724TIP3   OH220114   2.584   5.516   2.918  0.3813 -0.3171  0.1805
 6724TIP3    H120115   2.523   5.445   2.899  2.2859 -1.7069 -0.9052
 6724TIP3    H220116   2.603   5.555   2.833 -1.3085  2.1141  0.8465
 6725TIP3   OH220117   7.121   3.413   4.183 -0.4778 -0.1442  0.1914
 6725TIP3    H120118   7.035   3.447   4.209 -0.2659  0.2726  0.3414
 6725TIP3    H220119   7.160   3.382   4.265 -0.9105 -1.2972 -0.0238
 6726TIP3   OH220120   3.953   2.843   1.843  0.1356  0.5102 -0.1525
 6726TIP3    H120121   3.924   2.789   1.770  0.1563 -1.0120  0.9601
 6726TIP3    H220122   4.047   2.829   1.849 -0.1822 -1.0754  1.5242
 6727TIP3   OH220123   3.854   2.481   5.200 -0.3191 -0.1411 -0.1388
 6727TIP3    H120124   3.868   2.433   5.118 -1.7059  0.2697 -0.6410
 6727TIP3    H220125   3.879   2.571   5.179 -1.7539  0.2003 -0.4734
 6728TIP3   OH220126   3.775   4.845   4.587  0.1983  0.1562  0.3190
 6728TIP3    H120127   3.774   4.780   4.517 -0.2959  1.0669 -0.5158
 6728TIP3    H220128   3.735   4.799   4.662 -0.2153 -0.4839 -0.2870
 6729TIP3   OH220129   4.335   2.337   6.727 -0.5221 -0.2156 -0.5499
 6729TIP3    H120130   4.369   2.324   6.639  0.5613  0.0906 -0.1862
 6729TIP3    H220131   4.288   2.421   6.722  1.0274  0.6911 -0.4264
 6730TIP3   OH220132   4.952   1.714   4.670 -0.3995 -0.1697  0.0094
 6730TIP3    H120133   4.865   1.711   4.629 -0.5144 -1.1599  0.3224
 6730TIP3    H220134   4.966   1.807   4.689 -1.2845  0.0260 -0.2824
 6731TIP3   OH220135   5.417   5.502   3.958 -0.0605  0.4093 -0.1402
 6731TIP3    H120136   5.452   5.415   3.976  2.6389  1.1639 -1.5581
 6731TIP3    H220137   5.376   5.494   3.871  1.9543  1.0275 -1.1665
 6732TIP3   OH220138   3.570   1.530   4.898  0.5966  0.1634  0.4123
 6732TIP3    H120139   3.596   1.621   4.891  1.5106 -0.0938  0.3063
 6732TIP3    H220140   3.601   1.489   4.817 -0.6594 -0.0462  0.0220
 6733TIP3   OH220141   4.394   2.251   3.428  0.5259 -0.1887 -0.5679
 6733TIP3    H120142   4.367   2.160   3.442  1.0307 -0.3176 -0.4296
 6733TIP3    H220143   4.329   2.302   3.477  2.0967 -0.6217  2.1092
 6734TIP3   OH220144   3.112   2.326   3.481  0.3249  0.3431  0.3628
 6734TIP3    H120145   3.182   2.263   3.463 -0.4446 -0.0903 -1.2248
 6734TIP3    H220146   3.036   2.291   3.433 -0.2699  2.1444 -0.0330
 6735TIP3   OH220147   1.681   1.491   3.200  0.0752 -0.4019 -0.4051
 6735TIP3    H120148   1.598   1.519   3.163  0.1394  0.7588  0.2767
 6735TIP3    H220149   1.658   1.421   3.260 -0.3704 -0.3344 -0.4939
 6736TIP3   OH220150   5.183   2.830   5.622  0.2583 -0.0093  0.4942
 6736TIP3    H120151   5.204   2.784   5.541 -3.5642 -2.7276  0.9101
 6736TIP3    H220152   5.255   2.809   5.682  1.2805 -0.9795 -1.0570
 6737TIP3   OH220153   2.671   2.705   3.459 -0.5528 -0.5610  0.0573
 6737TIP3    H120154   2.714   2.639   3.404  1.1669  0.3927  0.2136
 6737TIP3    H220155   2.641   2.772   3.397 -0.1697 -0.3431  0.1010
 6738TIP3   OH220156   4.277   3.072   6.068 -0.6465  0.5829 -0.1817
 6738TIP3    H120157   4.369   3.050   6.078  0.1947  3.4791 -0.9893
 6738TIP3    H220158   4.257   3.049   5.977 -1.1367 -1.3900  0.4103
 6739TIP3   OH220159   4.135   2.153   5.059 -0.0363 -0.3571 -0.1966
 6739TIP3    H120160   4.180   2.095   4.998 -2.1776  1.2792 -3.4547
 6739TIP3    H220161   4.187   2.233   5.060  0.2932 -0.5696  0.6113
 6740TIP3   OH220162   3.372   3.516   3.486  0.2364 -0.0958 -0.6241
 6740TIP3    H120163   3.440   3.510   3.419  0.6610 -2.0315 -0.0287
 6740TIP3    H220164   3.294   3.543   3.438  1.2725  1.6807 -1.3864
 6741TIP3   OH220165   4.110   1.794   3.818 -0.3566 -0.4648  0.0635
 6741TIP3    H120166   4.065   1.719   3.778 -2.1687  1.0859 -0.9312
 6741TIP3    H220167   4.165   1.829   3.747 -1.0252  0.3027 -0.0858
 6742TIP3   OH220168   5.101   2.679   5.315  0.4526  0.5419 -0.0347
 6742TIP3    H120169   5.147   2.696   5.233 -1.6034  0.1704 -1.3244
 6742TIP3    H220170   5.107   2.585   5.327 -0.3231  0.4353 -0.4420
 6743TIP3   OH220171   7.154   1.863   5.965 -0.3628  0.1225 -0.1777
 6743TIP3    H120172   7.108   1.780   5.957 -1.4754  0.6895  0.1568
 6743TIP3    H220173   7.186   1.882   5.876  0.1996 -0.8157 -0.1841
 6744TIP3   OH220174   7.295   4.928   5.044 -0.2649 -0.0870  0.4696
 6744TIP3    H120175   7.306   4.964   4.956 -1.3021  0.0700  0.4045
 6744TIP3    H220176   7.203   4.901   5.048 -0.2936  0.1684  1.6057
 6745TIP3   OH220177   3.134   0.737   0.427  0.0425  0.6785  0.4377
 6745TIP3    H120178   3.166   0.825   0.451  1.4136  0.6718 -1.2289
 6745TIP3    H220179   3.144   0.686   0.506  0.2623  1.7713  1.1317
 6746TIP3   OH220180   6.319   1.174   4.008 -0.6089 -0.1752 -0.0613
 6746TIP3    H120181   6.241   1.126   3.979 -0.4659  0.5259 -1.6916
 6746TIP3    H220182   6.311   1.259   3.964  0.9684 -0.0216 -0.0552
 6747TIP3   OH220183   6.860   3.480   4.233 -0.1482 -0.4764 -0.0959
 6747TIP3    H120184   6.782   3.516   4.275 -0.1455 -0.9149  0.2900
 6747TIP3    H220185   6.825   3.417   4.169 -0.1848  0.7928 -1.3383
 6748TIP3   OH220186   6.429   1.750   4.885  0.2034 -0.2850  0.3970
 6748TIP3    H120187   6.476   1.789   4.959  0.0425  1.5366 -0.4556
 6748TIP3    H220188   6.476   1.781   4.808 -0.1339 -1.5244 -0.3261
 6749TIP3   OH220189   4.673   0.561   5.556 -0.0981 -0.6194  0.4098
 6749TIP3    H120190   4.634   0.481   5.591  0.3362 -0.7784  0.5342
 6749TIP3    H220191   4.764   0.558   5.585  0.3211 -0.8470 -0.8751
 6750TIP3   OH220192   7.048   5.406   1.508  0.2811  0.8731 -0.6114
 6750TIP3    H120193   6.996   5.345   1.562  0.3010  1.2729 -0.1373
 6750TIP3    H220194   7.087   5.466   1.572  2.4559 -0.2572 -0.8188
 6751TIP3   OH220195   4.222   2.616   5.502 -0.0172  0.1240  0.0737
 6751TIP3    H120196   4.132   2.632   5.473  0.4470  1.5701 -0.6107
 6751TIP3    H220197   4.213   2.579   5.590 -1.2942  0.0703 -0.0753
 6752TIP3   OH220198   3.526   2.743   4.071  0.5888 -0.3472  0.6026
 6752TIP3    H120199   3.564   2.830   4.061  0.2368 -0.0031  2.1566
 6752TIP3    H220200   3.432   2.759   4.080  0.4124 -0.9616 -0.0992
 6753TIP3   OH220201   4.995   4.383   2.485  0.1652  0.5232  0.5917
 6753TIP3    H120202   5.064   4.440   2.451 -0.9478  1.4183 -0.2004
 6753TIP3    H220203   4.975   4.418   2.572 -1.6338  2.3713 -0.5282
 6754TIP3   OH220204   5.278   3.496   3.639  0.3139  0.5602 -0.6346
 6754TIP3    H120205   5.185   3.488   3.657  0.3280  0.6438 -0.5160
 6754TIP3    H220206   5.313   3.408   3.650  0.4715  0.7654  0.6533
 6755TIP3   OH220207   5.495   2.376   5.663 -0.2021 -0.4525 -0.3715
 6755TIP3    H120208   5.575   2.369   5.716 -0.2217 -0.0360 -0.2809
 6755TIP3    H220209   5.427   2.337   5.716 -0.5639  1.5065  0.6641
 6756TIP3   OH220210   5.477   3.304   3.628 -0.3356 -0.3095  0.2014
 6756TIP3    H120211   5.508   3.263   3.709 -1.1571 -0.3233  0.5239
 6756TIP3    H220212   5.546   3.365   3.603  0.4540 -1.1687  0.2656
 6757TIP3   OH220213   5.299   4.070   3.213  0.5336 -0.6734  0.3348
 6757TIP3    H120214   5.351   4.045   3.290  1.6615 -0.0876 -0.2227
 6757TIP3    H220215   5.245   3.993   3.195  1.0718 -1.2302  1.0321
 6758TIP3   OH220216   6.570   5.087   6.116  0.1080  0.3776 -0.2096
 6758TIP3    H120217   6.599   5.045   6.035 -1.0594 -1.0680  0.0896
 6758TIP3    H220218   6.640   5.147   6.139  1.6861 -1.1688 -0.8567
 6759TIP3   OH220219   3.098   1.186   4.929  0.3389 -0.6784 -0.1683
 6759TIP3    H120220   3.033   1.168   4.861 -1.8409  1.9517  1.1040
 6759TIP3    H220221   3.109   1.281   4.927  1.9889 -0.7971  1.6174
 6760TIP3   OH220222   7.904   1.145   4.242 -0.2081 -0.7273  0.6912
 6760TIP3    H120223   7.948   1.208   4.299 -1.3971  0.3047  0.4864
 6760TIP3    H220224   7.886   1.194   4.161 -0.9746 -1.3853  0.4579
 6761TIP3   OH220225   4.093   2.372   2.866  0.4933  0.2229  0.5265
 6761TIP3    H120226   4.126   2.334   2.785 -1.2995  1.6696 -0.9167
 6761TIP3    H220227   4.151   2.447   2.882 -0.5769  1.3306 -0.7035
 6762TIP3   OH220228   4.605   1.823   5.322  0.2893  0.2949 -0.3145
 6762TIP3    H120229   4.610   1.917   5.304 -0.6221  0.3642 -0.2668
 6762TIP3    H220230   4.688   1.788   5.292  0.6284  1.1197 -0.3490
 6763TIP3   OH220231   5.215   2.287   6.833 -0.2002  0.6412  0.4039
 6763TIP3    H120232   5.298   2.248   6.806 -0.1617  1.3287 -0.4724
 6763TIP3    H220233   5.230   2.381   6.829  0.2758  0.7929  4.2320
 6764TIP3   OH220234   4.778   2.870   4.756 -0.1485 -0.0586  0.3350
 6764TIP3    H120235   4.778   2.894   4.663 -2.3675  0.5787  0.4618
 6764TIP3    H220236   4.689   2.836   4.772  0.5119 -1.0638  1.9970
 6765TIP3   OH220237   8.301   1.090   4.758 -0.6056  0.3689  0.8036
 6765TIP3    H120238   8.281   1.134   4.840 -2.2854 -0.3155  0.7799
 6765TIP3    H220239   8.246   1.134   4.693  0.9862  1.1608 -0.0479
 6766TIP3   OH220240   2.055   5.870   2.165 -0.0952 -0.4698 -0.2369
 6766TIP3    H120241   2.058   5.780   2.131  1.5256 -0.1408 -1.0274
 6766TIP3    H220242   2.105   5.921   2.102 -0.2215  0.8377  0.6983
 6767TIP3   OH220243   5.738   0.489   5.346 -0.4787  0.3413  0.6023
 6767TIP3    H120244   5.783   0.510   5.427  2.5611 -0.9408 -0.6902
 6767TIP3    H220245   5.808   0.468   5.284 -2.8416 -1.8721 -1.4394
 6768TIP3   OH220246   5.082   1.834   2.197  0.2555 -0.1228  0.3222
 6768TIP3    H120247   5.073   1.795   2.110  0.2867  0.6706 -0.0504
 6768TIP3    H220248   4.993   1.835   2.231  0.5892 -2.7941  1.3746
 6769TIP3   OH220249   5.220   2.070   4.286  0.3669  0.4935  0.0086
 6769TIP3    H120250   5.267   2.153   4.274  0.2695  0.6966  0.9896
 6769TIP3    H220251   5.178   2.079   4.371 -1.5497  0.3580 -0.9104
 6770TIP3   OH220252   4.155   1.058   6.764  0.0438 -0.5648  0.5006
 6770TIP3    H120253   4.224   1.115   6.799 -1.1952  0.6899  0.9407
 6770TIP3    H220254   4.089   1.118   6.730  0.0937 -1.7723 -1.8018
 6771TIP3   OH220255   6.855   3.845   4.853  0.2591  0.6114 -0.1062
 6771TIP3    H120256   6.811   3.845   4.768 -0.7218 -0.5289  0.3769
 6771TIP3    H220257   6.787   3.872   4.915  0.0092 -1.7441  0.7357
 6772TIP3   OH220258   8.153   2.045   4.059 -0.1157  0.1036  0.2183
 6772TIP3    H120259   8.140   2.087   3.974  0.2520 -0.5160 -0.1425
 6772TIP3    H220260   8.231   2.088   4.095 -0.8780  1.1084  0.7118
 6773TIP3   OH220261   2.583   1.842   2.551  0.3215 -0.0808 -0.3384
 6773TIP3    H120262   2.527   1.905   2.597  0.6954 -1.2817  1.8371
 6773TIP3    H220263   2.647   1.895   2.505  0.1907  1.1579  0.8954
 6774TIP3   OH220264   2.316   1.938   3.876 -0.3735 -0.4959 -0.4222
 6774TIP3    H120265   2.409   1.932   3.853 -0.0950 -1.6186  0.9490
 6774TIP3    H220266   2.273   1.962   3.794  1.2028  0.7510 -0.9156
 6775TIP3   OH220267   5.856   2.811   5.527 -0.5079 -0.4102  0.0218
 6775TIP3    H120268   5.898   2.740   5.576 -2.2531 -0.8347  0.9724
 6775TIP3    H220269   5.814   2.767   5.453 -0.6513 -0.2319 -0.0039
 6776TIP3   OH220270   5.330   1.172   3.184  0.0175  0.4474  0.3173
 6776TIP3    H120271   5.369   1.257   3.162  1.3054  1.3094  5.2325
 6776TIP3    H220272   5.370   1.111   3.123  1.1826  2.9791 -1.5391
 6777TIP3   OH220273   7.663   7.880   4.023 -0.0344  0.3098  0.2797
 6777TIP3    H120274   7.624   7.872   3.936  1.2461 -1.2938 -0.1770
 6777TIP3    H220275   7.613   7.818   4.077 -0.0799  0.4613  0.4107
 6778TIP3   OH220276   2.704   1.707   4.045 -0.3696  0.3627 -0.1733
 6778TIP3    H120277   2.727   1.614   4.041 -0.0390  0.3731  1.1840
 6778TIP3    H220278   2.762   1.743   4.112 -0.6424  1.5085 -0.5434
 6779TIP3   OH220279   6.426   4.038   4.623  0.3115 -0.2694 -0.0408
 6779TIP3    H120280   6.516   4.040   4.591  0.4580 -4.6675 -0.2518
 6779TIP3    H220281   6.434   4.014   4.715 -0.6459 -1.6794 -0.3077
 6780TIP3   OH220282   2.931   1.839   3.865  0.0224  0.4146  0.6238
 6780TIP3    H120283   2.838   1.827   3.844  0.4286 -0.4098 -0.7372
 6780TIP3    H220284   2.963   1.899   3.798 -0.3114  3.5714  3.1345
 6781TIP3   OH220285   4.456   4.804   5.577  0.3221  0.5627 -0.1920
 6781TIP3    H120286   4.437   4.897   5.564 -1.9576  0.0666 -0.5914
 6781TIP3    H220287   4.529   4.786   5.518 -0.9707  1.4972 -2.1163
 6782TIP3   OH220288   4.715   4.850   3.495 -0.3115  0.6521  0.4516
 6782TIP3    H120289   4.807   4.872   3.480 -0.1882 -0.2493 -0.1274
 6782TIP3    H220290   4.667   4.915   3.443  0.0356  0.2357 -0.4078
 6783TIP3   OH220291   7.301   0.896   4.921  0.1383  0.3466  0.5860
 6783TIP3    H120292   7.275   0.899   5.013 -2.3537  0.9067 -0.1051
 6783TIP3    H220293   7.230   0.850   4.878  1.2603  0.1585 -1.0931
 6784TIP3   OH220294   3.322   2.412   5.169  0.1352  0.1154 -0.2698
 6784TIP3    H120295   3.409   2.446   5.189 -0.2136 -0.1514  1.8390
 6784TIP3    H220296   3.323   2.323   5.203 -1.0143  0.1657 -0.0825
 6785TIP3   OH220297   5.208   2.718   4.185  0.3066 -0.7031  0.0912
 6785TIP3    H120298   5.168   2.789   4.135  0.1546 -1.1030 -0.3594
 6785TIP3    H220299   5.136   2.656   4.201  0.5910 -1.0910 -0.1264
 6786TIP3   OH220300   4.304   3.497   4.956 -0.2355 -0.1668 -0.0253
 6786TIP3    H120301   4.213   3.521   4.936 -0.1851  0.0248 -0.0263
 6786TIP3    H220302   4.356   3.563   4.911 -0.1197  0.1589  0.5843
 6787TIP3   OH220303   5.533   3.723   4.014  0.2334  0.3411  0.0311
 6787TIP3    H120304   5.481   3.723   3.934  0.8935 -1.3993 -0.4060
 6787TIP3    H220305   5.471   3.700   4.083  0.3065 -1.2976 -0.4276
 6788TIP3   OH220306   5.753   1.079   5.070  0.2348 -0.2556 -0.4629
 6788TIP3    H120307   5.801   1.068   5.152 -0.3177 -2.3292 -0.4020
 6788TIP3    H220308   5.690   1.008   5.068 -3.2429  2.6890 -0.3382
 6789TIP3   OH220309   3.362   4.182   6.348  0.1141 -0.3329 -0.1084
 6789TIP3    H120310   3.380   4.128   6.271  1.6411  0.8201 -0.6049
 6789TIP3    H220311   3.403   4.266   6.327 -0.6033  0.4045  1.4233
 6790TIP3   OH220312   2.542   7.795   5.621 -0.0317 -0.1500 -0.1702
 6790TIP3    H120313   2.497   7.832   5.697  0.8131 -0.4505  0.4874
 6790TIP3    H220314   2.512   7.847   5.547 -2.0380 -0.8123  0.1475
 6791TIP3   OH220315   4.020   1.316   3.781  0.2267 -0.6501  0.1537
 6791TIP3    H120316   3.973   1.252   3.835  0.8281 -0.8159  0.4873
 6791TIP3    H220317   3.977   1.311   3.696 -0.7239 -0.3886  0.6131
 6792TIP3   OH220318   5.494   1.354   4.085 -0.1977  0.2486  0.1933
 6792TIP3    H120319   5.548   1.281   4.114 -0.0485  0.7900  1.3243
 6792TIP3    H220320   5.548   1.400   4.020  0.6791  0.7262  1.2432
 6793TIP3   OH220321   4.394   1.651   4.005 -0.2336 -0.2169  0.5345
 6793TIP3    H120322   4.346   1.644   4.087  0.3860 -0.1514  0.9063
 6793TIP3    H220323   4.334   1.619   3.938 -0.7818 -0.1546  1.0002
 6794TIP3   OH220324   1.853   7.171   3.615  0.0234  0.2113  0.0356
 6794TIP3    H120325   1.829   7.238   3.551 -1.3737  1.2078  1.5784
 6794TIP3    H220326   1.946   7.186   3.631  0.2801  0.2573 -1.3672
 6795TIP3   OH220327   3.316   0.915   2.406  0.9439  0.1889  0.5029
 6795TIP3    H120328   3.261   0.842   2.433 -0.4338  1.6603  1.7555
 6795TIP3    H220329   3.274   0.948   2.326 -0.0214  1.3267  1.4717
 6796TIP3   OH220330   1.742   0.175   4.357 -0.3215 -0.1464  0.2332
 6796TIP3    H120331   1.825   0.157   4.313  0.7114 -0.2320  2.1724
 6796TIP3    H220332   1.716   0.262   4.325  0.8014  0.1256  0.0672
 6797TIP3   OH220333   4.301   2.755   3.873  0.3860  0.4241  0.6252
 6797TIP3    H120334   4.359   2.831   3.870  0.4862  0.3921  1.6251
 6797TIP3    H220335   4.213   2.791   3.862  0.3963  0.7427  1.5314
 6798TIP3   OH220336   5.793   2.234   4.018 -0.4573  0.0241  0.4862
 6798TIP3    H120337   5.741   2.160   4.049  0.7922 -1.7725 -1.5374
 6798TIP3    H220338   5.780   2.234   3.923  0.9505  1.3002  0.2753
 6799TIP3   OH220339   3.758   1.572   3.929  0.1141  0.7120  0.2903
 6799TIP3    H120340   3.800   1.647   3.971 -0.5064  0.6104  1.0763
 6799TIP3    H220341   3.666   1.579   3.952 -0.5329  1.5227 -2.3115
 6800TIP3   OH220342   4.032   0.295   5.383 -0.0207  0.1429 -0.3727
 6800TIP3    H120343   3.939   0.285   5.365 -0.0129  0.5265 -0.6398
 6800TIP3    H220344   4.070   0.323   5.300  0.1556  1.0397 -0.0049
 6801TIP3   OH220345   3.730   1.819   3.252 -0.0121 -0.8249 -0.3722
 6801TIP3    H120346   3.713   1.852   3.164 -0.0781  1.1933  0.3818
 6801TIP3    H220347   3.814   1.858   3.276 -1.4554  1.1543  1.6332
 6802TIP3   OH220348   2.105   1.414   3.049  0.2235  0.1358 -0.0503
 6802TIP3    H120349   2.053   1.480   3.003  0.8225  2.1205  1.9999
 6802TIP3    H220350   2.050   1.388   3.123  0.0867 -1.5505 -0.7181
 6803TIP3   OH220351   3.886   4.529   1.414  0.1898 -0.3502  0.2168
 6803TIP3    H120352   3.958   4.486   1.368 -0.1057  0.0376 -0.6186
 6803TIP3    H220353   3.907   4.623   1.410 -0.0471 -0.2820  0.5126
 6804TIP3   OH220354   4.802   2.947   4.499 -0.1509 -0.0572 -0.4177
 6804TIP3    H120355   4.803   3.043   4.498 -0.7949 -0.0492 -2.6841
 6804TIP3    H220356   4.893   2.922   4.482 -0.2107  0.1805 -1.1330
 6805TIP3   OH220357   4.166   3.632   5.188 -0.0781 -0.0945  0.1714
 6805TIP3    H120358   4.095   3.572   5.210  0.5549 -0.7809  0.3955
 6805TIP3    H220359   4.223   3.581   5.131 -0.1293  0.6822 -0.5771
 6806TIP3   OH220360   3.015   3.854   3.258 -0.2739 -0.2471  0.4812
 6806TIP3    H120361   3.032   3.931   3.312 -1.2339 -1.2210  2.2122
 6806TIP3    H220362   2.934   3.817   3.294 -0.9247 -0.9305 -1.6103
 6807TIP3   OH220363   7.441   5.857   0.361 -0.0155 -0.1094  0.5943
 6807TIP3    H120364   7.432   5.857   0.265 -0.4650 -1.3850  0.6305
 6807TIP3    H220365   7.504   5.927   0.378 -0.6271  0.7593 -0.5629
 6808TIP3   OH220366   5.591   1.854   3.243 -0.0699 -0.0173  0.6249
 6808TIP3    H120367   5.600   1.932   3.298  1.8619 -0.2740  0.6940
 6808TIP3    H220368   5.555   1.787   3.301 -0.7619  0.5104  0.8185
 6809TIP3   OH220369   6.277   5.214   4.859 -0.5601  0.3771  0.0951
 6809TIP3    H120370   6.309   5.217   4.950 -0.4069 -0.0206  0.0568
 6809TIP3    H220371   6.327   5.142   4.819 -2.2811 -0.9833  0.3254
 6810TIP3   OH220372   5.295   5.322   5.575  0.2087  0.3595 -0.1862
 6810TIP3    H120373   5.337   5.236   5.580 -0.5278  0.0172  0.1432
 6810TIP3    H220374   5.306   5.348   5.484  1.1818  0.2995 -0.0984
 6811TIP3   OH220375   5.526   1.395   5.697  0.4889  0.1387 -0.0037
 6811TIP3    H120376   5.530   1.305   5.730  0.9087 -0.0659 -0.6050
 6811TIP3    H220377   5.477   1.388   5.615  0.7908  0.4116 -0.2080
 6812TIP3   OH220378   7.729   1.429   4.249  0.6957  0.0649 -1.2780
 6812TIP3    H120379   7.814   1.466   4.270 -0.3057  1.2663  0.8468
 6812TIP3    H220380   7.666   1.497   4.273 -0.9828 -1.5580 -0.9043
 6813TIP3   OH220381   4.819   3.256   4.593  0.4462 -0.3044  0.6251
 6813TIP3    H120382   4.726   3.270   4.611 -0.0266 -1.2898 -0.9403
 6813TIP3    H220383   4.854   3.344   4.579 -0.7138 -0.0717 -0.9200
 6814TIP3   OH220384   3.644   0.921   2.663  0.3279  0.4082  0.0724
 6814TIP3    H120385   3.626   0.965   2.579 -1.2679  0.4597  0.4310
 6814TIP3    H220386   3.740   0.917   2.668  0.4556  1.9646 -0.9419
 6815TIP3   OH220387   5.062   1.885   2.968 -0.2240 -0.1621  0.4677
 6815TIP3    H120388   5.157   1.882   2.983 -0.1380 -0.2402 -0.0976
 6815TIP3    H220389   5.050   1.848   2.881 -0.7062  0.5994  0.2143
 6816TIP3   OH220390   7.442   3.035   2.683  0.5577 -0.4503 -0.4251
 6816TIP3    H120391   7.445   3.009   2.775 -0.0137  0.6985 -0.0757
 6816TIP3    H220392   7.426   2.953   2.635 -0.4795 -0.8558  0.5971
 6817TIP3   OH220393   8.492   3.253   4.244  0.2487  0.4459 -0.1087
 6817TIP3    H120394   8.503   3.175   4.299 -1.0136  0.9921  0.9593
 6817TIP3    H220395   8.483   3.219   4.155 -1.5793 -0.7457  0.4922
 6818TIP3   OH220396   1.794   2.791   1.829  0.9641 -0.0572  0.2598
 6818TIP3    H120397   1.702   2.803   1.855  1.2530 -0.6477  1.5581
 6818TIP3    H220398   1.799   2.699   1.803  1.1355  0.0407 -0.0549
 6819TIP3   OH220399   4.565   2.330   5.459  0.1089  0.3237  0.6321
 6819TIP3    H120400   4.595   2.277   5.533  0.5518 -1.2526 -0.6303
 6819TIP3    H220401   4.643   2.380   5.432 -0.2961  1.5989  1.7946
 6820TIP3   OH220402   7.637   0.250   4.971  0.5285 -0.3630 -0.3966
 6820TIP3    H120403   7.641   0.263   4.876  0.0144  1.2482 -0.2074
 6820TIP3    H220404   7.727   0.261   5.001  0.7250 -1.0740 -0.7117
 6821TIP3   OH220405   5.895   0.880   5.625 -0.0671  0.4632 -0.2814
 6821TIP3    H120406   5.859   0.847   5.707  1.9580  0.5467  0.6823
 6821TIP3    H220407   5.837   0.952   5.600 -1.5220 -0.4951  0.3120
 6822TIP3   OH220408   6.543   3.125   4.581  0.8024 -0.2071  0.6198
 6822TIP3    H120409   6.519   3.071   4.506  1.3615  0.7805 -0.2902
 6822TIP3    H220410   6.466   3.180   4.597  0.7244 -0.3383  0.6901
 6823TIP3   OH220411   5.825   3.939   4.658  0.6985 -0.5063 -0.2823
 6823TIP3    H120412   5.917   3.952   4.681  1.0109 -0.0014 -1.7971
 6823TIP3    H220413   5.816   3.977   4.571 -1.3486  1.0343  0.5484
 6824TIP3   OH220414   7.101   0.466   4.971  0.4194 -0.3954 -0.0639
 6824TIP3    H120415   7.120   0.482   5.063 -0.6898 -0.5461  0.2102
 6824TIP3    H220416   7.017   0.419   4.972 -1.0834  2.1629 -1.2810
 6825TIP3   OH220417   5.327   1.015   5.783  0.0833  0.7190  0.3626
 6825TIP3    H120418   5.291   1.010   5.694 -0.7210  3.4771  0.4785
 6825TIP3    H220419   5.254   1.046   5.836  0.8934  0.2113  1.8100
 6826TIP3   OH220420   4.135   4.127   2.556 -0.2669 -0.1814  0.1531
 6826TIP3    H120421   4.190   4.197   2.522 -0.8839  0.1783 -0.1123
 6826TIP3    H220422   4.091   4.092   2.478 -0.2875 -0.5843  0.3409
 6827TIP3   OH220423   5.214   3.903   5.017  0.4268  0.0777 -0.0218
 6827TIP3    H120424   5.269   3.900   4.939  2.8629 -0.5972  1.6399
 6827TIP3    H220425   5.274   3.931   5.087 -1.2494 -1.1023  1.9394
 6828TIP3   OH220426   6.671   2.939   4.285  0.1872  0.1587 -0.0884
 6828TIP3    H120427   6.680   2.878   4.212 -1.5144  1.5806 -1.5184
 6828TIP3    H220428   6.761   2.969   4.302  0.7800 -1.2704 -0.6057
 6829TIP3   OH220429   4.539   2.291   4.347 -0.2314  0.1651  0.8552
 6829TIP3    H120430   4.555   2.225   4.280 -2.0766 -0.1614  0.7194
 6829TIP3    H220431   4.626   2.309   4.384  0.3713 -1.9044  0.4979
 6830TIP3   OH220432   6.694   5.143   5.134 -0.6250 -0.2407  0.1833
 6830TIP3    H120433   6.697   5.054   5.100  2.6865  0.0178 -0.3417
 6830TIP3    H220434   6.740   5.139   5.217 -0.1218  1.0294 -0.0137
 6831TIP3   OH220435   4.829   4.477   3.577 -0.1695  0.2546  0.2939
 6831TIP3    H120436   4.825   4.536   3.652  0.0752 -0.5296  0.9305
 6831TIP3    H220437   4.744   4.485   3.535  0.7290  2.9721 -1.0979
 6832TIP3   OH220438   7.446   2.507   3.630  0.1022  0.1361  0.2166
 6832TIP3    H120439   7.488   2.521   3.545 -1.2381 -1.2064 -0.7072
 6832TIP3    H220440   7.420   2.595   3.659 -0.1936  0.5312 -1.1888
 6833TIP3   OH220441   5.990   2.396   4.794  0.2199  0.2394 -0.1698
 6833TIP3    H120442   6.011   2.475   4.745  0.4294  1.3666  1.6991
 6833TIP3    H220443   5.955   2.336   4.728  0.2290  1.8108 -1.6447
 6834TIP3   OH220444   5.877   1.575   3.823 -0.5640 -0.7956 -0.1040
 6834TIP3    H120445   5.957   1.577   3.875 -1.1839 -1.4849  0.8764
 6834TIP3    H220446   5.886   1.497   3.768  0.2103  0.0779 -1.2463
 6835TIP3   OH220447   7.289   1.481   5.042 -0.2626 -0.1740  0.2471
 6835TIP3    H120448   7.350   1.554   5.050 -0.0307 -0.3772  0.3294
 6835TIP3    H220449   7.343   1.407   5.019 -0.4817 -0.3504  0.2971
 6836TIP3   OH220450   7.290   5.086   4.425 -1.0236 -0.1463 -0.0595
 6836TIP3    H120451   7.323   5.163   4.379  1.7012  0.5444  2.8423
 6836TIP3    H220452   7.369   5.037   4.449 -2.5454 -2.2169  0.8994
 6837TIP3   OH220453   6.373   1.263   4.945 -0.5069  0.5030 -0.3483
 6837TIP3    H120454   6.401   1.304   4.863  0.2573 -1.7859 -1.2694
 6837TIP3    H220455   6.299   1.207   4.920  1.4239 -2.3061 -0.0282
 6838TIP3   OH220456   4.357   2.587   2.776  0.0273  0.2003  0.0592
 6838TIP3    H120457   4.367   2.493   2.763  2.2039  0.4203  0.0925
 6838TIP3    H220458   4.310   2.594   2.859 -1.4301 -0.8656 -0.6460
 6839TIP3   OH220459   0.099   2.331   3.492  0.0451  0.0746 -0.5133
 6839TIP3    H120460   0.171   2.272   3.515  1.6803  2.3585  0.3576
 6839TIP3    H220461   0.121   2.414   3.533 -2.7329  1.0542 -0.8620
 6840TIP3   OH220462   5.726   2.301   3.743  0.2286 -0.2559 -0.2000
 6840TIP3    H120463   5.677   2.352   3.678  1.6744  0.7827 -0.4735
 6840TIP3    H220464   5.767   2.231   3.693 -1.4373 -1.4929  0.1184
 6841TIP3   OH220465   6.628   2.385   5.822 -0.2771  0.1405  0.2683
 6841TIP3    H120466   6.698   2.450   5.822  0.3032 -0.4731 -0.0449
 6841TIP3    H220467   6.560   2.421   5.765 -1.0059  1.5711  1.9893
 6842TIP3   OH220468   4.596   3.062   4.384 -0.4063  0.0896 -0.4648
 6842TIP3    H120469   4.650   3.002   4.435 -2.5561 -0.9445  0.6350
 6842TIP3    H220470   4.645   3.073   4.302  2.3099  0.5612  1.1648
 6843TIP3   OH220471   5.977   3.256   4.464  0.0223 -0.6447 -0.4492
 6843TIP3    H120472   5.906   3.193   4.475  0.9799 -1.7566 -0.5157
 6843TIP3    H220473   6.057   3.203   4.468  0.8041  0.4266 -1.4929
 6844TIP3   OH220474   4.945   3.922   5.175 -0.2521  0.3624  0.1489
 6844TIP3    H120475   4.894   3.849   5.210 -2.1647  0.7151 -1.8131
 6844TIP3    H220476   5.028   3.883   5.147 -1.6339 -1.2868 -1.7923
 6845TIP3   OH220477   4.530   4.799   3.199 -0.1576  0.3699  0.1885
 6845TIP3    H120478   4.573   4.831   3.278 -1.4622  0.0763  1.0378
 6845TIP3    H220479   4.510   4.878   3.149  0.5437  0.5687  0.2194
 6846TIP3   OH220480   7.288   1.224   5.332 -0.3758 -0.3311  0.0913
 6846TIP3    H120481   7.336   1.198   5.254 -0.6327  1.3289 -0.6505
 6846TIP3    H220482   7.230   1.150   5.350  0.7524 -1.3422 -0.4139
 6847TIP3   OH220483   5.583   3.435   4.306 -0.2286  0.2438  0.5252
 6847TIP3    H120484   5.625   3.424   4.392 -2.0672  0.9445  1.5319
 6847TIP3    H220485   5.493   3.405   4.319 -0.6018  0.6376 -1.0898
 6848TIP3   OH220486   4.579   2.285   4.670 -0.4590  0.1231  0.0955
 6848TIP3    H120487   4.613   2.323   4.750 -0.5228 -0.0607  0.2100
 6848TIP3    H220488   4.491   2.256   4.693 -0.7855  0.8061 -0.2590
 6849TIP3   OH220489   4.799   3.388   5.441  0.3633 -0.4591  0.4848
 6849TIP3    H120490   4.736   3.414   5.508  0.1159 -0.0748  0.1130
 6849TIP3    H220491   4.848   3.468   5.422 -2.1599  0.4579 -2.5494
 6850TIP3   OH220492   4.747   1.196   5.501 -0.0145 -0.5164 -0.2692
 6850TIP3    H120493   4.793   1.256   5.443 -0.9848 -0.0375 -0.5594
 6850TIP3    H220494   4.679   1.250   5.542  0.2195 -1.0165  0.7743
 6851TIP3   OH220495   4.537   4.154   3.150  0.4581 -0.0983 -0.3115
 6851TIP3    H120496   4.598   4.228   3.141 -0.8797  1.2688  1.5501
 6851TIP3    H220497   4.450   4.193   3.151 -0.4236 -1.9183 -1.4573
 6852TIP3   OH220498   7.796   2.606   4.728  0.2931 -0.2576  0.0073
 6852TIP3    H120499   7.702   2.621   4.737 -0.0063 -1.8390 -0.3780
 6852TIP3    H220500   7.832   2.622   4.815 -0.2058  1.1295 -0.0250
 6853TIP3   OH220501   4.622   2.827   2.238 -0.2239 -0.6334  0.5725
 6853TIP3    H120502   4.681   2.760   2.203  1.8680  1.6129 -0.3873
 6853TIP3    H220503   4.638   2.825   2.333  0.9640 -0.4825  0.3859
 6854TIP3   OH220504   6.449   2.864   3.659 -0.7071  0.4067 -0.0221
 6854TIP3    H120505   6.403   2.910   3.589 -1.9401  0.3011  0.7098
 6854TIP3    H220506   6.403   2.781   3.668 -0.7645  0.5555  1.1362
 6855TIP3   OH220507   7.119   0.342   4.724  0.4070  0.5096 -0.2325
 6855TIP3    H120508   7.080   0.428   4.734 -4.3092 -1.5821  0.5405
 6855TIP3    H220509   7.130   0.309   4.813 -1.2332 -1.0905 -0.5937
 6856TIP3   OH220510   2.381   3.675   2.882 -0.0197  0.1323 -0.0447
 6856TIP3    H120511   2.388   3.703   2.790  1.2852  2.2167  0.6607
 6856TIP3    H220512   2.471   3.655   2.907 -0.3729 -0.3730  0.8255
 6857TIP3   OH220513   7.808   1.181   2.998 -0.5006  0.4552  0.1775
 6857TIP3    H120514   7.793   1.136   3.082  2.9123  1.1129  1.2077
 6857TIP3    H220515   7.809   1.274   3.021 -0.6066  0.6969 -0.7869
 6858TIP3   OH220516   0.436   1.973   6.007  0.6607  0.0277  0.1102
 6858TIP3    H120517   0.481   1.950   5.926 -0.8884  1.9926 -1.3292
 6858TIP3    H220518   0.486   2.046   6.042  2.1041 -1.6350  1.6654
 6859TIP3   OH220519   4.328   4.239   3.837 -0.2225  0.3582 -0.2743
 6859TIP3    H120520   4.308   4.269   3.748 -0.4973  1.7231  0.2300
 6859TIP3    H220521   4.356   4.318   3.883  1.0510 -0.5573  0.5413
 6860TIP3   OH220522   6.762   3.844   4.342 -0.0087 -0.0300  0.0963
 6860TIP3    H120523   6.772   3.856   4.248 -0.6988  0.2076  0.0487
 6860TIP3    H220524   6.699   3.772   4.351 -0.7488  0.6423  0.3701
 6861TIP3   OH220525   6.040   3.450   4.639 -0.3056  0.0746 -0.1700
 6861TIP3    H120526   6.013   3.390   4.569  0.2511 -0.2480 -0.1111
 6861TIP3    H220527   6.062   3.392   4.713 -2.5026  0.4804  0.8455
 6862TIP3   OH220528   6.821   2.271   4.557 -0.4882  0.1686  0.1735
 6862TIP3    H120529   6.751   2.223   4.512  2.1369 -1.6049 -2.2564
 6862TIP3    H220530   6.784   2.294   4.642 -3.5457 -1.8722 -0.5148
 6863TIP3   OH220531   7.385   2.545   5.013  0.7983  0.0269 -0.2711
 6863TIP3    H120532   7.361   2.469   5.066 -0.7972 -0.0397 -1.0584
 6863TIP3    H220533   7.358   2.620   5.066  0.9115  0.0151 -0.1945
 6864TIP3   OH220534   5.903   2.638   4.374 -0.2749 -0.0983  0.2530
 6864TIP3    H120535   5.836   2.686   4.325  0.3254 -0.0310 -0.5191
 6864TIP3    H220536   5.897   2.548   4.341  1.4104  0.3419 -1.3673
 6865TIP3   OH220537   8.362   0.620   5.086 -0.2450 -0.4894 -0.0881
 6865TIP3    H120538   8.448   0.582   5.104 -0.2076 -0.3779 -0.0354
 6865TIP3    H220539   8.380   0.704   5.046 -0.3305 -0.3020  0.2647
 6866TIP3   OH220540   7.597   0.959   6.089  0.1036 -0.5388  0.1929
 6866TIP3    H120541   7.644   1.040   6.110 -0.1598 -0.3445  0.0410
 6866TIP3    H220542   7.564   0.973   6.000  0.6702 -1.1034 -0.1066
 6867TIP3   OH220543   4.676   1.510   3.270  0.2004  0.4514  0.1381
 6867TIP3    H120544   4.635   1.427   3.296 -1.1279  0.9985 -0.1342
 6867TIP3    H220545   4.679   1.562   3.350  0.9648  0.1611  0.2936
 6868TIP3   OH220546   6.862   2.495   3.941  0.1939 -0.1981  0.1963
 6868TIP3    H120547   6.832   2.466   4.027  1.3934 -1.1889  0.3024
 6868TIP3    H220548   6.874   2.413   3.892  1.5161  0.2489 -0.2284
 6869TIP3   OH220549   6.047   2.872   4.352 -0.0097 -0.3361  0.2916
 6869TIP3    H120550   6.053   2.861   4.257  1.1441 -0.0586  0.3288
 6869TIP3    H220551   6.008   2.790   4.383 -0.1210 -0.5468 -0.3948
 6870TIP3   OH220552   7.833   4.208   4.826 -0.3563 -0.0899  0.2060
 6870TIP3    H120553   7.768   4.157   4.875  0.2047  0.0683  1.1253
 6870TIP3    H220554   7.898   4.143   4.798 -0.5895 -0.1553 -0.1817
 6871TIP3   OH220555   4.945   3.168   4.337 -0.6861 -0.4199 -0.2467
 6871TIP3    H120556   4.981   3.239   4.285 -2.1038  0.1982 -0.3814
 6871TIP3    H220557   4.867   3.140   4.290 -0.4756 -1.6731  0.1221
 6872TIP3   OH220558   5.870   2.824   3.540 -1.0095 -0.2807 -0.4386
 6872TIP3    H120559   5.795   2.788   3.494 -1.4192  1.2333 -0.9634
 6872TIP3    H220560   5.836   2.898   3.589  0.3283  1.1533 -1.6045
 6873TIP3   OH220561   8.077   0.708   5.148  0.0073 -0.1240  0.3190
 6873TIP3    H120562   8.076   0.695   5.053 -1.0246 -0.8838  0.4215
 6873TIP3    H220563   8.122   0.631   5.182 -0.2573 -0.2021  0.4922
 6874TIP3   OH220564   7.906   1.423   3.081 -0.0963 -0.1807 -0.1247
 6874TIP3    H120565   7.980   1.456   3.029 -0.6138  1.5221  0.1700
 6874TIP3    H220566   7.944   1.406   3.167  0.2954 -0.8794 -0.4322
 6875TIP3   OH220567   6.615   2.750   5.759  0.2806 -0.0063  0.7354
 6875TIP3    H120568   6.520   2.757   5.748  0.4000 -0.8588 -0.8997
 6875TIP3    H220569   6.651   2.772   5.673  1.6544  1.8512  1.7387
 6876TIP3   OH220570   7.262   2.210   3.730  0.4524  0.6084 -0.0066
 6876TIP3    H120571   7.285   2.301   3.746 -1.3056  0.8343  1.4298
 6876TIP3    H220572   7.242   2.205   3.637 -3.4947  2.6846  0.6223
 6877TIP3   OH220573   5.420   1.461   3.730 -0.1131 -0.3720 -0.4824
 6877TIP3    H120574   5.378   1.376   3.748 -0.3281 -0.3209 -0.7383
 6877TIP3    H220575   5.478   1.475   3.805 -0.8134 -0.2797  0.0460
 6878TIP3   OH220576   5.175   1.882   3.680 -0.3263  0.1443  0.3703
 6878TIP3    H120577   5.157   1.812   3.618  1.3573 -0.0600  0.1022
 6878TIP3    H220578   5.264   1.909   3.661 -0.8674  2.2074  0.6228
 6879TIP3   OH220579   7.920   2.477   3.673  0.2419  0.1037 -0.1775
 6879TIP3    H120580   7.961   2.501   3.757  0.5946  0.7879 -0.5404
 6879TIP3    H220581   7.847   2.421   3.697  1.5153 -1.3108  0.4885
 6880TIP3   OH220582   4.138   1.726   4.101 -0.1576 -0.0724 -0.1160
 6880TIP3    H120583   4.113   1.807   4.145 -0.4502 -0.1023 -0.2269
 6880TIP3    H220584   4.148   1.751   4.009  2.0172  0.3479  0.1874
 6881TIP3   OH220585   5.816   1.441   4.694 -0.1634 -0.7137 -0.0290
 6881TIP3    H120586   5.889   1.501   4.708  0.4934 -1.4231 -0.3586
 6881TIP3    H220587   5.741   1.497   4.676  0.0662  0.0603  1.3814
 6882TIP3   OH220588   4.595   2.492   4.076 -0.1594  0.2666 -0.3623
 6882TIP3    H120589   4.651   2.519   4.149 -0.0198 -0.9172 -0.0304
 6882TIP3    H220590   4.513   2.538   4.090 -0.2293 -0.1727  0.6928
 6883TIP3   OH220591   3.643   2.971   5.042 -0.7203 -0.1683  0.6969
 6883TIP3    H120592   3.713   2.988   4.979  0.0621  0.9875  1.8582
 6883TIP3    H220593   3.570   2.941   4.988  0.5551 -1.0947 -0.5630
 6884TIP3   OH220594   5.354   2.297   4.212 -0.2424 -0.3712  0.4567
 6884TIP3    H120595   5.293   2.347   4.157  0.8760  0.6528  0.1444
 6884TIP3    H220596   5.433   2.288   4.159 -0.0034 -1.4320  0.9826
 6885TIP3   OH220597   6.345   5.665   5.292  0.5836 -0.0088  0.3696
 6885TIP3    H120598   6.250   5.674   5.296  0.7105  1.4821  0.3016
 6885TIP3    H220599   6.366   5.670   5.199  0.8597  1.2287  0.4893
 6886TIP3   OH220600   4.825   2.298   6.334 -0.6686 -0.4250 -0.5622
 6886TIP3    H120601   4.777   2.291   6.252  0.1213 -0.5391 -1.0250
 6886TIP3    H220602   4.864   2.211   6.346 -0.7864 -0.4091 -0.0625
 6887TIP3   OH220603   7.498   2.991   5.321  0.1432 -0.8139 -0.6608
 6887TIP3    H120604   7.540   2.930   5.382  1.5795  0.5461 -0.2692
 6887TIP3    H220605   7.516   3.078   5.357 -1.5432 -0.1163 -1.4286
 6888TIP3   OH220606   6.707   0.254   4.285 -0.1003 -0.8600 -0.1284
 6888TIP3    H120607   6.633   0.310   4.310 -0.2524 -0.7436 -0.8444
 6888TIP3    H220608   6.784   0.300   4.319 -0.5121 -2.0659  2.5625
 6889TIP3   OH220609   2.849   7.889   6.456  0.1568 -0.1430  0.2785
 6889TIP3    H120610   2.942   7.870   6.450  0.0773 -0.3676 -0.3311
 6889TIP3    H220611   2.829   7.937   6.375 -0.2103  0.0852  0.5029
 6890TIP3   OH220612   5.797   2.505   3.931 -0.0340  0.9112 -0.3775
 6890TIP3    H120613   5.781   2.435   3.868 -2.1092 -0.2051  1.3443
 6890TIP3    H220614   5.889   2.530   3.916  0.5821 -1.7920 -1.3638
 6891TIP3   OH220615   7.104   4.638   4.367  0.4027 -0.1384 -0.0991
 6891TIP3    H120616   7.184   4.685   4.391  0.3452 -0.1127  0.0417
 6891TIP3    H220617   7.095   4.655   4.273  0.1128  0.5475  0.0505
 6892TIP3   OH220618   8.123   2.794   3.192 -0.3391  0.1230 -0.2403
 6892TIP3    H120619   8.047   2.851   3.178  1.4654  1.8874 -3.7931
 6892TIP3    H220620   8.098   2.710   3.154 -1.1159  0.1714  0.1639
 6893TIP3   OH220621   6.655   0.940   5.924 -0.0851 -0.2816  0.2655
 6893TIP3    H120622   6.686   0.877   5.989 -0.7462  0.6078  1.4455
 6893TIP3    H220623   6.709   1.018   5.939 -0.1662 -0.1111 -0.3189
 6894TIP3   OH220624   5.472   1.657   1.654  0.4105  0.0643 -0.0474
 6894TIP3    H120625   5.551   1.664   1.708 -0.5586  3.0843  1.1346
 6894TIP3    H220626   5.470   1.740   1.606 -1.6656 -0.2607 -0.5515
 6895TIP3   OH220627   6.202   2.593   3.460 -0.2144 -0.1589  0.2632
 6895TIP3    H120628   6.272   2.608   3.396 -0.3432 -0.2133  0.1103
 6895TIP3    H220629   6.148   2.525   3.420 -0.3832 -0.0800  0.3607
 6896TIP3   OH220630   5.163   2.232   2.549  0.5114 -0.0022  0.1071
 6896TIP3    H120631   5.132   2.235   2.640 -0.9830 -0.4365 -0.3852
 6896TIP3    H220632   5.148   2.320   2.516  0.3827 -0.0422  0.0594
 6897TIP3   OH220633   4.965   3.622   5.402 -0.0772  0.2347 -0.1681
 6897TIP3    H120634   5.005   3.612   5.316  0.5828 -1.2893  0.2979
 6897TIP3    H220635   5.035   3.600   5.464 -0.7149  0.7313  0.7491
 6898TIP3   OH220636   6.373   2.804   5.056  0.6729  0.4025  0.4827
 6898TIP3    H120637   6.438   2.872   5.073  0.5384  0.8616 -0.7176
 6898TIP3    H220638   6.414   2.747   4.991  0.4933 -0.2221  0.9150
 6899TIP3   OH220639   4.992   3.385   4.135  0.7333 -0.3849  0.7514
 6899TIP3    H120640   5.035   3.387   4.050  1.6682 -1.8805  1.1817
 6899TIP3    H220641   4.958   3.474   4.146  2.6955  0.4997 -0.0946
 6900TIP3   OH220642   7.912   1.676   2.304 -0.3443 -0.1792 -0.1621
 6900TIP3    H120643   7.969   1.705   2.232 -0.0889 -0.9321 -0.2631
 6900TIP3    H220644   7.827   1.659   2.262 -1.3346  3.1047  0.3348
 6901TIP3   OH220645   6.611   1.660   4.174  0.2901  0.0025 -0.1785
 6901TIP3    H120646   6.683   1.602   4.198 -0.4165 -1.1918 -0.8794
 6901TIP3    H220647   6.626   1.740   4.225  0.2768 -1.4605  2.2074
 6902TIP3   OH220648   8.000   1.840   2.082  0.3301  0.0539 -0.0345
 6902TIP3    H120649   7.915   1.880   2.063  0.7467  0.0375 -2.0582
 6902TIP3    H220650   8.054   1.913   2.113 -0.2401  0.1766  0.6884
 6903TIP3   OH220651   6.356   1.146   3.714  0.2061 -0.1272 -0.3012
 6903TIP3    H120652   6.435   1.097   3.736  0.3038  0.5939  0.9878
 6903TIP3    H220653   6.296   1.129   3.787 -0.3410  0.4005 -0.6247
 6904TIP3   OH220654   7.155   2.510   3.912 -0.2524 -0.1969  0.3476
 6904TIP3    H120655   7.069   2.550   3.926  0.1911  1.0356 -0.3165
 6904TIP3    H220656   7.215   2.585   3.904  0.7444 -1.0235 -0.0213
 6905TIP3   OH220657   7.291   3.391   3.766  0.5168  0.1132 -0.6368
 6905TIP3    H120658   7.206   3.428   3.787  0.3209 -0.4610 -0.4127
 6905TIP3    H220659   7.272   3.319   3.705  0.8160 -0.1883 -0.3790
 6906TIP3   OH220660   4.550   3.293   2.684  0.7110 -0.4056 -0.4117
 6906TIP3    H120661   4.533   3.336   2.769 -0.6344 -0.5601 -0.5821
 6906TIP3    H220662   4.559   3.201   2.706 -2.2244 -0.8226 -0.6928
 6907TIP3   OH220663   6.208   2.807   3.952 -0.7342  0.4916 -0.7038
 6907TIP3    H120664   6.152   2.749   4.003  2.2365 -0.4391  1.6712
 6907TIP3    H220665   6.222   2.760   3.870  0.2374 -1.4478  0.5132
 6908TIP3   OH220666   5.654   2.314   4.449  0.0013  0.5100  0.3203
 6908TIP3    H120667   5.581   2.370   4.476  0.8581  0.2803  3.3770
 6908TIP3    H220668   5.719   2.375   4.413  0.3830  1.3768  2.3905
 6909TIP3   OH220669   3.556   2.061   5.168 -0.3941 -0.5334 -1.1393
 6909TIP3    H120670   3.476   2.103   5.201  0.8697  0.5170  0.6454
 6909TIP3    H220671   3.607   2.133   5.132  0.2808 -1.0304 -1.1725
 6910TIP3   OH220672   6.878   3.728   3.656  1.0799  0.2483  0.1881
 6910TIP3    H120673   6.832   3.722   3.740  1.1531  0.8651  0.2707
 6910TIP3    H220674   6.820   3.683   3.595  0.8138  0.1905  0.4780
 6911TIP3   OH220675   5.763   4.326   5.607 -0.1239  0.2444  0.0713
 6911TIP3    H120676   5.744   4.419   5.605 -0.6913  0.1187 -0.6012
 6911TIP3    H220677   5.858   4.321   5.617 -0.2479  0.8759  1.6586
 6912TIP3   OH220678   5.980   3.363   3.900 -0.1153 -0.0333  0.3808
 6912TIP3    H120679   5.975   3.354   3.805 -0.8616  0.2550  0.3894
 6912TIP3    H220680   6.063   3.321   3.924 -0.0847 -0.4031 -0.3585
 6913TIP3   OH220681   4.704   2.583   5.766 -0.3196 -0.0605 -0.1617
 6913TIP3    H120682   4.731   2.535   5.688 -2.3833 -1.2550 -0.1662
 6913TIP3    H220683   4.692   2.516   5.833 -1.3321  0.6428  0.3864
 6914TIP3   OH220684   0.918   1.049   5.207 -0.6170 -0.9887 -0.0531
 6914TIP3    H120685   0.980   0.982   5.238  1.4299  0.9036  0.0963
 6914TIP3    H220686   0.932   1.123   5.265  0.0933  1.0234 -2.7031
 6915TIP3   OH220687   4.718   4.978   2.647 -0.1973 -0.2010  0.8315
 6915TIP3    H120688   4.640   4.972   2.702 -1.9082  1.2696 -1.3212
 6915TIP3    H220689   4.685   4.965   2.558  1.8584  1.5034 -0.2182
 6916TIP3   OH220690   5.009   1.844   3.881 -0.4165  0.4661 -0.1433
 6916TIP3    H120691   5.027   1.915   3.943  0.0507  1.0285 -0.9088
 6916TIP3    H220692   5.071   1.859   3.809  1.2736 -2.0380  0.7350
 6917TIP3   OH220693   7.159   3.978   4.151 -0.0851  0.1920  0.8410
 6917TIP3    H120694   7.159   4.039   4.224  0.8020 -1.1878  2.0097
 6917TIP3    H220695   7.208   3.902   4.182  0.6046 -0.2841 -1.2920
 6918TIP3   OH220696   4.380   2.647   4.127 -0.2970  0.1155 -0.2230
 6918TIP3    H120697   4.352   2.676   4.040  2.2698  0.3115 -1.0225
 6918TIP3    H220698   4.378   2.726   4.181  2.1032  0.8677 -1.1876
 6919TIP3   OH220699   6.843   1.780   5.006  0.2115  0.0887 -0.2361
 6919TIP3    H120700   6.828   1.758   5.098  0.9664  0.7690  0.0481
 6919TIP3    H220701   6.930   1.745   4.986 -0.3199 -0.8750 -0.9578
 6920TIP3   OH220702   7.144   2.674   5.153  0.2105  0.5374 -0.0073
 6920TIP3    H120703   7.098   2.733   5.093  0.8283  0.2715 -0.7640
 6920TIP3    H220704   7.224   2.721   5.175  0.2073  0.4315  0.2274
 6921TIP3   OH220705   5.854   3.835   3.808  0.2527 -0.5056  0.4406
 6921TIP3    H120706   5.799   3.911   3.791  0.5483 -0.5258 -0.6514
 6921TIP3    H220707   5.892   3.851   3.894 -0.3687  0.1682  0.5918
 6922TIP3   OH220708   5.856   0.028   5.694  0.4446  0.6020  1.2617
 6922TIP3    H120709   5.807  -0.016   5.763  0.7418 -1.0920  0.4258
 6922TIP3    H220710   5.816  -0.004   5.612  2.7731 -0.6612  0.5778
 6923TIP3   OH220711   4.926   0.484   5.441  0.5891 -0.4961 -0.1909
 6923TIP3    H120712   4.983   0.547   5.398  1.4950 -1.1294  0.0601
 6923TIP3    H220713   4.943   0.496   5.535  0.2849 -0.6574 -0.1147
 6924TIP3   OH220714   4.802   3.405   2.684 -0.0181  0.4067 -0.0069
 6924TIP3    H120715   4.811   3.475   2.618 -1.5578  1.8424  1.2632
 6924TIP3    H220716   4.712   3.375   2.673  0.1918 -0.3754  0.4552
 6925TIP3   OH220717   5.998   6.039   4.419 -0.4776  0.4578 -0.1509
 6925TIP3    H120718   6.055   6.074   4.351  0.1845 -1.2531 -0.4987
 6925TIP3    H220719   5.910   6.045   4.382  0.0824 -2.4929 -2.0979
 6926TIP3   OH220720   7.966   2.696   3.524 -0.6406  0.0506 -0.1773
 6926TIP3    H120721   7.950   2.613   3.568 -3.0626  1.8852  2.5820
 6926TIP3    H220722   8.054   2.687   3.486  0.2259 -2.7522  2.3617
 6927TIP3   OH220723   4.580   3.737   4.171 -0.2489  0.2031  0.2237
 6927TIP3    H120724   4.549   3.826   4.188 -0.0212  0.1222  1.0916
 6927TIP3    H220725   4.504   3.692   4.134 -0.2586  0.8545 -0.5731
 6928TIP3   OH220726   7.006   3.444   3.907  0.3049 -0.6448  0.0817
 6928TIP3    H120727   7.014   3.519   3.966 -3.4002 -1.9510  2.3945
 6928TIP3    H220728   7.054   3.373   3.951  1.3356 -0.4348 -0.6876
 6929TIP3   OH220729   4.318   4.311   2.477 -0.4707  0.4883 -0.6667
 6929TIP3    H120730   4.319   4.396   2.520  1.1499 -0.4611  1.2061
 6929TIP3    H220731   4.410   4.288   2.466 -0.8911 -1.1023 -0.9826
 6930TIP3   OH220732   4.947   2.147   3.023  0.3847 -0.2108 -0.8181
 6930TIP3    H120733   4.855   2.122   3.014 -0.0986  1.2977 -0.1706
 6930TIP3    H220734   4.994   2.063   3.030 -0.8510 -1.0046 -1.8112
 6931TIP3   OH220735   0.985   5.632   3.623 -0.1059  0.2384 -0.2425
 6931TIP3    H120736   0.929   5.576   3.677 -1.3373  0.1544 -1.5666
 6931TIP3    H220737   0.951   5.720   3.636  0.6201  0.4431  0.3458
 6932TIP3   OH220738   0.758   7.098   4.951 -0.4333  0.3750 -0.5131
 6932TIP3    H120739   0.736   7.186   4.980 -0.8682 -0.1336  0.7413
 6932TIP3    H220740   0.854   7.099   4.943 -0.5463  1.3607 -1.8681
 6933TIP3   OH220741   6.190   2.484   4.998 -0.0288  0.2921 -0.1936
 6933TIP3    H120742   6.233   2.399   5.003  0.3364  0.3931 -1.4412
 6933TIP3    H220743   6.119   2.471   4.935 -0.0723  0.8573 -0.2622
 6934TIP3   OH220744   7.540   4.627   4.523 -0.2015  0.4423 -0.7474
 6934TIP3    H120745   7.530   4.532   4.522  0.9888  0.2840  0.6842
 6934TIP3    H220746   7.540   4.651   4.616  1.2921  1.6176 -1.0190
 6935TIP3   OH220747   8.044   5.174   6.134 -0.1873  0.3047  0.3891
 6935TIP3    H120748   8.120   5.114   6.134 -1.1810 -0.9804  0.9059
 6935TIP3    H220749   8.006   5.163   6.221 -1.3931  0.3860 -0.1257
 6936TIP3   OH220750   6.132   3.621   3.890  0.4891 -0.0976  0.1410
 6936TIP3    H120751   6.102   3.634   3.980  1.2262 -0.9768  0.5202
 6936TIP3    H220752   6.054   3.596   3.841 -0.0122  0.8959  0.4272
 6937TIP3   OH220753   0.431   6.801   3.328 -0.4377 -0.1886 -0.2039
 6937TIP3    H120754   0.400   6.749   3.401  0.5945  0.0033  0.3863
 6937TIP3    H220755   0.526   6.791   3.330 -0.3988 -0.2001 -1.5276
 6938TIP3   OH220756   0.059   3.727   4.441  0.4800 -0.4199 -0.2660
 6938TIP3    H120757  -0.010   3.793   4.430 -1.0552 -1.9707 -0.1998
 6938TIP3    H220758   0.050   3.671   4.365  2.3204 -0.1046 -0.7403
 6939TIP3   OH220759   5.166   1.327   6.216  0.2729 -0.3979  1.2507
 6939TIP3    H120760   5.238   1.385   6.191 -0.9821  1.1708  1.1568
 6939TIP3    H220761   5.208   1.247   6.247  2.0017 -0.1062 -0.2809
 6940TIP3   OH220762   6.599   4.017   0.211 -0.2560  0.1780 -0.1870
 6940TIP3    H120763   6.543   3.991   0.285 -1.1929 -1.3489 -1.3925
 6940TIP3    H220764   6.610   4.112   0.221  1.8932 -0.3876  3.4295
 6941TIP3   OH220765   4.883   0.605   4.675 -0.2260 -0.0591  0.4069
 6941TIP3    H120766   4.873   0.621   4.581 -0.5156 -0.2039  0.4140
 6941TIP3    H220767   4.829   0.672   4.717  1.2341  1.0866  0.5141
 6942TIP3   OH220768   6.366   4.841   6.092 -0.2266  0.4771 -0.0458
 6942TIP3    H120769   6.396   4.931   6.105  0.3380  0.4705 -1.2226
 6942TIP3    H220770   6.273   4.843   6.115 -0.0730  1.2227  0.5285
 6943TIP3   OH220771   5.776   3.327   4.787 -0.2959 -0.1384 -0.0342
 6943TIP3    H120772   5.760   3.332   4.881 -2.1715  0.0344 -0.3358
 6943TIP3    H220773   5.846   3.262   4.778  1.7956  1.7982  1.6386
 6944TIP3   OH220774   5.381   0.487   4.267 -0.2784  0.0668  0.0737
 6944TIP3    H120775   5.332   0.545   4.326  1.2991  1.5357 -0.0158
 6944TIP3    H220776   5.404   0.411   4.321 -0.6281  0.4478  0.7670
 6945TIP3   OH220777   4.942   3.806   2.974  0.0040 -0.1199 -0.3917
 6945TIP3    H120778   4.920   3.717   3.001  0.9692 -0.0798  0.5681
 6945TIP3    H220779   4.984   3.795   2.889  0.8194 -0.6726  0.0675
 6946TIP3   OH220780   5.707   1.955   5.394  0.2280  0.0359 -0.2570
 6946TIP3    H120781   5.618   1.980   5.417  0.3336 -0.7658  1.0433
 6946TIP3    H220782   5.707   1.860   5.395  1.4635  0.0211  1.2852
 6947TIP3   OH220783   6.283   2.290   1.363  0.4319 -0.2801  0.3795
 6947TIP3    H120784   6.267   2.208   1.408 -1.1882 -0.1485  0.0931
 6947TIP3    H220785   6.297   2.265   1.272 -0.2693 -0.2368  0.2542
 6948TIP3   OH220786   5.346   3.602   6.749 -0.5120  0.0981  0.2572
 6948TIP3    H120787   5.336   3.574   6.840 -1.9674  0.4948  0.2292
 6948TIP3    H220788   5.362   3.521   6.701 -2.3509 -0.4399  0.5084
 6949TIP3   OH220789   7.034   3.662   4.077 -0.2726  0.2105 -0.4581
 6949TIP3    H120790   7.051   3.753   4.099  1.2933  0.1842 -1.4519
 6949TIP3    H220791   6.977   3.630   4.147  0.5091  1.5019  0.7974
 6950TIP3   OH220792   7.498   5.057   3.178  0.3571 -0.5440 -0.3607
 6950TIP3    H120793   7.455   5.026   3.098  1.0454 -0.0954 -0.9134
 6950TIP3    H220794   7.436   5.038   3.248 -0.7688  0.1341 -1.1525
 6951TIP3   OH220795   5.420   1.175   3.576  0.4840  0.0613 -0.4873
 6951TIP3    H120796   5.342   1.153   3.524  0.3422  0.8076 -0.5944
 6951TIP3    H220797   5.440   1.094   3.623 -1.7119  0.4748  1.2829
 6952TIP3   OH220798   5.945   2.036   4.157 -0.2889  0.2663  0.3087
 6952TIP3    H120799   5.925   2.126   4.133  1.9730  0.4669 -1.0327
 6952TIP3    H220800   5.986   1.999   4.079 -3.7026 -2.8346 -0.1623
 6953TIP3   OH220801   6.779   2.374   4.821  0.0191  0.5326 -0.2864
 6953TIP3    H120802   6.823   2.339   4.899 -2.2730 -2.1160 -0.0809
 6953TIP3    H220803   6.741   2.457   4.851  2.4976  1.5052  0.2671
 6954TIP3   OH220804   0.110   4.631   4.483 -0.6857  0.6460 -0.0008
 6954TIP3    H120805   0.056   4.710   4.489  0.5866  1.4844  0.4057
 6954TIP3    H220806   0.065   4.567   4.539 -0.3754  1.8556  1.6383
 6955TIP3   OH220807   7.014   2.912   5.614 -0.0637 -0.1983  0.0260
 6955TIP3    H120808   7.076   2.983   5.595  0.9551 -0.7115  1.3734
 6955TIP3    H220809   7.042   2.877   5.698 -1.2289 -1.5011 -0.1043
 6956TIP3   OH220810   8.060   2.886   5.612 -0.7956 -0.2218 -0.2434
 6956TIP3    H120811   8.001   2.891   5.537  0.6727 -0.4473 -1.4356
 6956TIP3    H220812   8.061   2.793   5.634 -2.3336  0.0274  0.9852
 6957TIP3   OH220813   6.006   3.864   5.361 -0.1836 -0.5149 -0.1274
 6957TIP3    H120814   6.075   3.884   5.298  0.5962  0.1666  0.9247
 6957TIP3    H220815   6.010   3.769   5.370  1.6754 -0.3570  1.0740
 6958TIP3   OH220816   6.634   4.821   4.555 -0.4278  0.2778  0.2297
 6958TIP3    H120817   6.678   4.904   4.538 -1.5800  0.7430 -0.6027
 6958TIP3    H220818   6.692   4.755   4.518 -0.0248  0.8031 -0.0904
 6959TIP3   OH220819   5.614   1.536   3.929 -0.6194  0.5394  0.2899
 6959TIP3    H120820   5.688   1.559   3.873  0.8260  0.7823  2.2543
 6959TIP3    H220821   5.610   1.607   3.993 -2.0456  0.1020  0.7086
 6960TIP3   OH220822   5.494   2.221   3.908  0.3891 -0.1238  0.3395
 6960TIP3    H120823   5.404   2.234   3.879  0.0750 -1.5757  0.6635
 6960TIP3    H220824   5.546   2.275   3.848 -0.5399 -0.6986 -1.0032
 6961TIP3   OH220825   5.419   2.759   4.674  0.3568  0.2199  0.1734
 6961TIP3    H120826   5.349   2.751   4.609 -0.3241  1.3149  0.7540
 6961TIP3    H220827   5.444   2.669   4.694 -0.5270 -0.1638 -0.4237
 6962TIP3   OH220828   6.228   0.573   5.238 -0.2792 -0.5293 -0.1085
 6962TIP3    H120829   6.300   0.512   5.222  0.5406  0.4574 -0.2746
 6962TIP3    H220830   6.254   0.622   5.316  0.2143  1.2396 -1.3423
 6963TIP3   OH220831   5.109   3.794   4.674  0.0948  0.1351 -0.2841
 6963TIP3    H120832   5.067   3.792   4.760  1.3870 -1.0504  0.3407
 6963TIP3    H220833   5.044   3.834   4.617 -0.2296  2.3235  1.5366
 6964TIP3   OH220834   4.804   4.224   3.459  0.4502  0.3460  0.3769
 6964TIP3    H120835   4.784   4.264   3.375  0.1373  0.9191  0.7192
 6964TIP3    H220836   4.828   4.298   3.516  0.2524  0.0091  0.9037
 6965TIP3   OH220837   5.347   3.684   1.964  0.4678 -0.5031 -0.3578
 6965TIP3    H120838   5.440   3.706   1.961  1.0057 -2.4097  1.0653
 6965TIP3    H220839   5.345   3.590   1.983 -1.7583 -0.4007  0.0918
 6966TIP3   OH220840   5.357   2.509   3.174  0.7725  0.2373  0.1145
 6966TIP3    H120841   5.303   2.490   3.251 -1.0375 -0.2196 -1.2341
 6966TIP3    H220842   5.445   2.522   3.209  0.2760 -1.4696  2.1036
 6967TIP3   OH220843   5.070   5.081   5.540 -0.3468  0.3722 -0.2829
 6967TIP3    H120844   5.052   5.174   5.523 -0.7870  0.2939 -0.2607
 6967TIP3    H220845   5.050   5.037   5.457 -1.2975  0.1463  0.0557
 6968TIP3   OH220846   0.127   2.102   3.951 -0.0084 -0.3518 -0.5739
 6968TIP3    H120847   0.164   2.021   3.986 -1.4943 -0.6017  0.4689
 6968TIP3    H220848   0.036   2.101   3.980 -0.0899  1.6070 -0.6924
 6969TIP3   OH220849   0.827   0.813   5.624  0.3779 -0.1851 -0.2116
 6969TIP3    H120850   0.794   0.885   5.570 -0.0837  1.0651  1.6902
 6969TIP3    H220851   0.860   0.855   5.703  0.6700 -2.0254  0.6792
 6970TIP3   OH220852   0.463   2.201   2.422 -0.2447  0.1848  0.1750
 6970TIP3    H120853   0.446   2.112   2.392 -1.0722  0.4747 -0.2459
 6970TIP3    H220854   0.553   2.219   2.398  0.0299 -0.6587  0.5599
 6971TIP3   OH220855   5.446   4.075   2.682 -0.1700 -0.5170 -0.0679
 6971TIP3    H120856   5.399   4.017   2.742  0.2874 -0.0014  0.7820
 6971TIP3    H220857   5.518   4.111   2.733  0.4171 -0.3199 -1.0113
 6972TIP3   OH220858   8.208   3.377   5.788 -0.3681  0.0668  0.6985
 6972TIP3    H120859   8.148   3.421   5.848 -1.9994 -1.2317  0.0532
 6972TIP3    H220860   8.239   3.447   5.730 -0.6886  0.8764  1.4953
 6973TIP3   OH220861   7.165   4.125   4.440  0.0314  0.0139  0.2277
 6973TIP3    H120862   7.085   4.073   4.449 -0.0687  0.1055 -0.1361
 6973TIP3    H220863   7.235   4.067   4.468  0.3076 -1.4047 -3.1648
 6974TIP3   OH220864   4.021   2.951   4.085 -0.0650 -0.2831  0.1868
 6974TIP3    H120865   3.962   2.933   4.158 -0.0009 -1.0933  0.0491
 6974TIP3    H220866   3.976   3.016   4.033 -1.0196 -1.1838 -0.1222
 6975TIP3   OH220867   6.911   1.804   3.170  0.2532  0.3676 -0.5037
 6975TIP3    H120868   6.859   1.878   3.138  0.6017 -0.1686 -2.3627
 6975TIP3    H220869   6.990   1.804   3.115  0.6343 -0.8908  0.0137
 6976TIP3   OH220870   7.102   0.577   5.613 -0.0857  0.6959  0.1802
 6976TIP3    H120871   7.097   0.482   5.604  1.9364  0.2846  2.6922
 6976TIP3    H220872   7.188   0.600   5.578  0.4212  1.2635  1.7496
 6977TIP3   OH220873   7.138   4.167   2.400 -0.1279 -0.0952 -0.7800
 6977TIP3    H120874   7.079   4.195   2.471 -1.2198 -1.2683 -1.1982
 6977TIP3    H220875   7.141   4.072   2.408  3.9417  0.0983  0.9516
 6978TIP3   OH220876   0.361   5.156   4.720  0.1595 -0.1074 -0.1092
 6978TIP3    H120877   0.426   5.164   4.649 -0.4079 -2.0318 -0.8836
 6978TIP3    H220878   0.414   5.154   4.800  0.9796 -0.4175 -0.6480
 6979TIP3   OH220879   8.130   0.099   2.470 -0.1892  0.1419  0.1763
 6979TIP3    H120880   8.222   0.102   2.496 -0.0864 -1.3594  0.0143
 6979TIP3    H220881   8.126   0.156   2.393  0.7259 -0.2297 -0.1568
 6980TIP3   OH220882   6.853   1.953   4.327 -0.3389  0.7433  0.1976
 6980TIP3    H120883   6.762   1.926   4.313  0.1970 -0.2121 -1.5739
 6980TIP3    H220884   6.853   2.047   4.311 -0.7178  0.4763 -1.4684
 6981TIP3   OH220885   6.904   1.341   5.609  0.0129  0.0834 -0.2075
 6981TIP3    H120886   6.889   1.247   5.621  1.0723 -0.2731 -1.5028
 6981TIP3    H220887   6.996   1.353   5.630 -0.3831  1.0393  1.0192
 6982TIP3   OH220888   5.340   2.349   4.948  0.1696  0.0213  0.3376
 6982TIP3    H120889   5.324   2.444   4.944  0.0847  0.0141  0.4968
 6982TIP3    H220890   5.424   2.341   4.994 -0.3157 -0.0205  1.2382
 6983TIP3   OH220891   7.358   0.596   4.532  0.2861 -1.1462 -0.6229
 6983TIP3    H120892   7.342   0.501   4.536 -0.7781 -0.8908  2.2555
 6983TIP3    H220893   7.270   0.635   4.536  0.7364 -0.0131 -1.5245
 6984TIP3   OH220894   5.049   2.619   4.818  0.9110 -0.1709 -0.1605
 6984TIP3    H120895   4.996   2.679   4.870  1.3636  0.4329 -0.3911
 6984TIP3    H220896   5.062   2.543   4.874  0.5660  0.0618  0.2366
 6985TIP3   OH220897   0.752   0.967   2.550 -0.2021  0.1973 -0.4360
 6985TIP3    H120898   0.666   0.929   2.570 -0.0835  0.3890  0.4381
 6985TIP3    H220899   0.814   0.895   2.564 -0.2273  0.0249 -1.1829
 6986TIP3   OH220900   6.388   4.306   5.105  0.2219 -0.2395  0.4818
 6986TIP3    H120901   6.440   4.383   5.082 -0.0141 -0.0320  0.6366
 6986TIP3    H220902   6.318   4.303   5.040  0.3773 -0.4674  0.3263
 6987TIP3   OH220903   6.630   1.700   4.504 -0.1483 -0.5141  0.1446
 6987TIP3    H120904   6.588   1.617   4.482  1.2256 -1.4497  0.9639
 6987TIP3    H220905   6.705   1.675   4.558  1.4112  1.1164 -1.2255
 6988TIP3   OH220906   5.031   3.446   2.426  0.0278  0.6710  0.5108
 6988TIP3    H120907   5.028   3.520   2.487 -1.1403  0.0150  1.2785
 6988TIP3    H220908   5.057   3.372   2.480  1.4633  0.5646 -0.3125
 6989TIP3   OH220909   6.123   2.866   4.937  0.1885  0.0706  0.0666
 6989TIP3    H120910   6.209   2.831   4.960  0.2950 -0.9700 -1.8825
 6989TIP3    H220911   6.066   2.839   5.010  1.3626  0.2807  1.0829
 6990TIP3   OH220912   8.385   1.149   3.727 -0.0819  0.2486  0.8271
 6990TIP3    H120913   8.295   1.181   3.734 -0.7483 -1.9871  3.1424
 6990TIP3    H220914   8.425   1.169   3.812  0.4040 -2.1962  1.2196
 6991TIP3   OH220915   5.405   1.136   4.521 -0.1539 -0.4311  0.1141
 6991TIP3    H120916   5.424   1.056   4.471 -0.2968  0.4950 -1.4473
 6991TIP3    H220917   5.444   1.120   4.607  2.0948 -1.1560 -0.9914
 6992TIP3   OH220918   7.872   3.010   3.785  0.3517  0.3172  0.5097
 6992TIP3    H120919   7.800   3.057   3.829  0.8317  0.8842  0.6950
 6992TIP3    H220920   7.834   2.926   3.761 -0.4106  0.6554  0.5133
 6993TIP3   OH220921   3.647   1.452   4.633  0.5415  0.0076 -0.3564
 6993TIP3    H120922   3.719   1.391   4.655  0.1793 -0.5211 -0.6164
 6993TIP3    H220923   3.690   1.522   4.584  0.5315 -1.5640 -2.7208
 6994TIP3   OH220924   4.800   4.027   4.863 -0.3168 -0.9072  0.2846
 6994TIP3    H120925   4.836   3.938   4.866  0.0559 -0.7032  3.1691
 6994TIP3    H220926   4.715   4.019   4.908  0.4542  0.5070  2.0057
 6995TIP3   OH220927   5.590   5.246   4.946  0.1514  0.1954  0.5185
 6995TIP3    H120928   5.535   5.304   5.000  0.8965  1.2796  0.1217
 6995TIP3    H220929   5.607   5.296   4.867  0.1635 -0.8834 -0.1643
 6996TIP3   OH220930   4.495   2.734   4.446  0.2375  0.4891  0.3281
 6996TIP3    H120931   4.526   2.745   4.536 -1.1401 -2.7338  1.2793
 6996TIP3    H220932   4.417   2.790   4.441 -1.4060 -1.5273  2.1418
 6997TIP3   OH220933   5.543   2.497   4.050  0.2844 -0.3038  0.2876
 6997TIP3    H120934   5.630   2.467   4.024  0.2582 -0.2875  0.1779
 6997TIP3    H220935   5.554   2.528   4.140  0.8047  1.4067 -0.3440
 6998TIP3   OH220936   4.413   7.915   4.214  0.3064 -0.6959 -0.1008
 6998TIP3    H120937   4.387   7.889   4.125 -0.1584 -0.2859 -0.0876
 6998TIP3    H220938   4.417   7.833   4.263  2.9877 -1.2330 -1.1105
 6999TIP3   OH220939   5.315   2.801   2.406 -0.1618 -0.6128 -0.4845
 6999TIP3    H120940   5.261   2.878   2.390 -0.3039 -0.5787  0.1458
 6999TIP3    H220941   5.384   2.806   2.340 -1.0236 -0.7427 -1.3953
 7000TIP3   OH220942   6.229   2.752   5.699  0.2124 -0.5075  0.0313
 7000TIP3    H120943   6.291   2.744   5.626 -0.3854  1.6792 -0.7323
 7000TIP3    H220944   6.195   2.841   5.693 -1.0856 -0.8317  2.0092
 7001TIP3   OH220945   7.595   4.158   4.207  0.3676  0.3853  0.5102
 7001TIP3    H120946   7.605   4.085   4.268  1.2690  1.1526  1.3124
 7001TIP3    H220947   7.661   4.222   4.236  1.8813  0.1365 -2.2023
 7002TIP3   OH220948   4.291   2.412   4.236  0.4367 -0.2700  0.6150
 7002TIP3    H120949   4.316   2.494   4.193 -0.6513 -0.4581 -0.4050
 7002TIP3    H220950   4.374   2.365   4.249  0.6767 -0.7655 -2.4493
 7003TIP3   OH220951   7.518   3.071   4.227 -0.6564  0.2793 -0.3823
 7003TIP3    H120952   7.443   3.010   4.229  1.4094 -2.3294  0.7393
 7003TIP3    H220953   7.494   3.136   4.161 -4.2725  0.0092  0.5549
 7004TIP3   OH220954   6.024   3.538   2.931 -0.5710 -0.6383  0.1056
 7004TIP3    H120955   6.111   3.546   2.969  0.4465 -0.6545 -2.1284
 7004TIP3    H220956   5.965   3.533   3.006  1.2444  0.4574  1.6470
 7005TIP3   OH220957   8.196   2.377   3.975 -0.4954 -0.4258  0.0226
 7005TIP3    H120958   8.181   2.456   3.922 -1.9017 -0.9840 -0.4261
 7005TIP3    H220959   8.135   2.386   4.048 -2.0456 -2.0136 -1.0457
 7006TIP3   OH220960   0.123   4.080   4.656 -0.4349 -0.2371  0.1371
 7006TIP3    H120961   0.192   4.107   4.597 -0.1393  0.3660  0.7568
 7006TIP3    H220962   0.115   3.985   4.642 -0.1590 -0.1488 -0.6328
 7007TIP3   OH220963   5.775   3.261   4.034  0.4626 -0.5514 -0.0710
 7007TIP3    H120964   5.753   3.344   4.077 -1.6904 -1.3546  0.4675
 7007TIP3    H220965   5.858   3.277   3.990  0.7403  1.4857  1.1500
 7008TIP3   OH220966   6.967   0.547   3.377  0.1717  0.4854  0.1778
 7008TIP3    H120967   6.901   0.614   3.395  0.1558  0.2539  1.0289
 7008TIP3    H220968   7.050   0.594   3.382  0.1311  0.5590  0.1686
 7009TIP3   OH220969   0.892   0.378   5.996 -0.1791 -0.0059  0.8198
 7009TIP3    H120970   0.848   0.375   6.081  1.1333  0.4231  1.5185
 7009TIP3    H220971   0.870   0.465   5.961  0.3423  0.3159  1.2902
 7010TIP3   OH220972   0.070   3.493   0.177  0.5309  0.4275  0.1777
 7010TIP3    H120973   0.072   3.584   0.149  0.5306  0.7730  1.3061
 7010TIP3    H220974   0.075   3.496   0.272  1.8103 -0.7949  0.1775
 7011TIP3   OH220975   1.942   7.759   2.654  0.0929 -0.0613  0.4198
 7011TIP3    H120976   1.989   7.790   2.577  1.5679 -0.1044  1.2815
 7011TIP3    H220977   1.888   7.834   2.681  0.0828  0.1751 -0.2637
 7012TIP3   OH220978   7.111   3.657   3.535  0.0078 -0.6702 -0.7703
 7012TIP3    H120979   7.033   3.660   3.591  0.7076 -1.8179  0.2654
 7012TIP3    H220980   7.170   3.722   3.573 -1.0168  1.3357 -2.4709
 7013TIP3   OH220981   7.440   0.196   6.215  0.1391 -0.0491  0.0778
 7013TIP3    H120982   7.419   0.115   6.169  1.5200 -0.4114  0.0543
 7013TIP3    H220983   7.407   0.265   6.158 -2.0314 -0.5993  0.6136
 7014TIP3   OH220984   5.416   0.975   2.545 -0.2389 -0.4400  0.9934
 7014TIP3    H120985   5.497   0.936   2.511 -1.2520 -0.8118 -1.1005
 7014TIP3    H220986   5.372   0.903   2.591  1.1525  0.0680  3.1643
 7015TIP3   OH220987   3.934   3.392   4.375  0.4175 -0.0504  0.4772
 7015TIP3    H120988   4.025   3.415   4.354  0.2013  0.3880  0.0230
 7015TIP3    H220989   3.897   3.363   4.292 -1.1519  3.9663 -0.3460
 7016TIP3   OH220990   5.705   0.438   5.858 -0.0275 -0.1040 -0.2027
 7016TIP3    H120991   5.697   0.347   5.832  2.4060  0.1348 -1.9965
 7016TIP3    H220992   5.777   0.439   5.921 -0.4735  0.4879  0.3082
 7017TIP3   OH220993   4.992   2.155   3.319  0.1987 -0.1828 -0.1645
 7017TIP3    H120994   4.952   2.219   3.261  0.5365  0.0293 -0.1638
 7017TIP3    H220995   5.080   2.189   3.335  0.0958 -0.2240  0.4932
 7018TIP3   OH220996   4.560   4.159   2.425 -0.0165  0.5616 -0.0457
 7018TIP3    H120997   4.621   4.128   2.492 -1.9209 -0.8052  1.0779
 7018TIP3    H220998   4.596   4.126   2.342  1.5033  0.9486  0.4461
 7019TIP3   OH220999   6.852   3.068   4.953 -0.0837 -0.6870 -0.2943
 7019TIP3    H121000   6.877   3.158   4.973  1.7901 -1.6162  1.7463
 7019TIP3    H221001   6.824   3.071   4.862 -0.4681  2.0321 -0.1373
 7020TIP3   OH221002   5.302   2.438   6.465  0.4711 -0.7094 -0.0327
 7020TIP3    H121003   5.250   2.469   6.391 -2.0279 -1.0213  1.5220
 7020TIP3    H221004   5.323   2.517   6.515 -0.4878 -0.8053  0.5433
 7021TIP3   OH221005   5.539   2.262   5.096 -0.2477  0.1793 -0.4116
 7021TIP3    H121006   5.558   2.267   5.189 -0.3220  2.6032 -0.4956
 7021TIP3    H221007   5.623   2.240   5.055  0.0720  0.4034  0.1197
 7022TIP3   OH221008   5.056   4.638   2.138  0.2882  0.2817 -0.3542
 7022TIP3    H121009   5.028   4.704   2.201  0.1717  0.1218 -0.2382
 7022TIP3    H221010   5.006   4.559   2.161  0.9602 -0.0570 -0.0313
 7023TIP3   OH221011   5.023   7.979   4.519  0.3044  0.1600 -0.3246
 7023TIP3    H121012   4.980   7.902   4.483 -1.6993  1.4428 -0.7694
 7023TIP3    H221013   5.113   7.973   4.487  0.5668 -2.6928  0.8040
 7024TIP3   OH221014   6.552   3.661   4.635  0.2537  0.0185 -0.1877
 7024TIP3    H121015   6.585   3.575   4.661  1.8898  0.3420 -1.0993
 7024TIP3    H221016   6.460   3.660   4.661  0.6999 -1.3178  1.4910
 7025TIP3   OH221017   0.502   1.483   4.047  0.0397 -0.1459  0.4299
 7025TIP3    H121018   0.507   1.538   3.968  2.5039 -0.0063  0.6513
 7025TIP3    H221019   0.567   1.415   4.032 -0.0992 -0.6240  1.9766
 7026TIP3   OH221020   0.265   3.245   4.076  0.0703 -0.3910  0.2484
 7026TIP3    H121021   0.299   3.157   4.060  1.2883 -0.4296  2.7492
 7026TIP3    H221022   0.170   3.234   4.082  0.0261 -1.1476 -1.6460
 7027TIP3   OH221023   7.702   2.902   4.333  0.3603 -0.3291 -0.7038
 7027TIP3    H121024   7.748   2.967   4.387  1.3993 -1.0896 -0.6391
 7027TIP3    H221025   7.636   2.952   4.286  0.9401  0.7232 -0.4278
 7028TIP3   OH221026   7.576   3.219   3.789  0.4275 -0.7403  0.0560
 7028TIP3    H121027   7.508   3.239   3.853  0.9883  0.4246  0.3067
 7028TIP3    H221028   7.538   3.245   3.705  0.3785 -0.5354  0.1403
 7029TIP3   OH221029   1.400   1.763   4.728 -0.2103  1.0185 -0.5518
 7029TIP3    H121030   1.420   1.780   4.820 -0.8141  0.7159 -0.3612
 7029TIP3    H221031   1.347   1.838   4.701  1.3100  1.9208 -1.1122
 7030TIP3   OH221032   6.821   2.731   4.172 -0.3472  0.0696 -0.3144
 7030TIP3    H121033   6.772   2.654   4.202 -0.7946  0.5985  0.3303
 7030TIP3    H221034   6.909   2.697   4.153 -0.3300 -0.4745  0.6754
 7031TIP3   OH221035   0.017   2.334   3.210  0.7554 -0.2854 -0.2454
 7031TIP3    H121036  -0.053   2.270   3.223  2.3078 -1.9539  0.0018
 7031TIP3    H221037   0.069   2.330   3.290  1.2174  0.8742 -0.4687
 7032TIP3   OH221038   7.736   1.937   2.037  0.3681 -0.1171  0.2380
 7032TIP3    H121039   7.731   2.020   2.084  1.5973 -1.4861  2.8724
 7032TIP3    H221040   7.660   1.887   2.066  2.0642 -1.6444  2.1860
 7033TIP3   OH221041   0.033   2.467   2.745  0.4715  0.0757  0.0552
 7033TIP3    H121042   0.084   2.525   2.801  0.6107 -1.7685  1.8767
 7033TIP3    H221043  -0.054   2.464   2.785  0.2285 -0.3048 -0.4906
 7034TIP3   OH221044  -0.015   1.326   3.934  0.1004  0.1052  0.0071
 7034TIP3    H121045   0.073   1.340   3.970  0.1708 -0.2760 -0.0200
 7034TIP3    H221046  -0.022   1.392   3.865 -0.1433  1.0426  0.8996
 7035TIP3   OH221047   6.378   3.018   3.882  0.0037  0.4910 -0.2770
 7035TIP3    H121048   6.338   2.943   3.926 -0.6787  1.1236  0.2040
 7035TIP3    H221049   6.401   2.986   3.795  1.3912 -0.7821  0.5343
 7036TIP3   OH221050   6.407   2.915   4.324  0.2334  0.1152 -0.1689
 7036TIP3    H121051   6.502   2.927   4.314  0.6996 -2.7335  0.5575
 7036TIP3    H221052   6.376   2.893   4.236 -0.2687  3.7567 -1.0129
 7037TIP3   OH221053   7.646   3.531   3.061 -0.7398  0.2704  0.3494
 7037TIP3    H121054   7.650   3.510   2.967  2.3903  0.7376  0.3220
 7037TIP3    H221055   7.575   3.594   3.068 -0.0761  1.3672 -1.9974
 7038TIP3   OH221056   7.040   0.797   2.452  0.0993  0.6438  0.2886
 7038TIP3    H121057   7.014   0.734   2.519  1.6148  0.6575  0.9211
 7038TIP3    H221058   7.027   0.751   2.369  1.9906 -0.8282  0.7776
 7039TIP3   OH221059   0.601   2.843   4.602  0.6486  0.0784  0.4939
 7039TIP3    H121060   0.684   2.812   4.639 -0.0381 -3.9328 -1.1238
 7039TIP3    H221061   0.612   2.833   4.507 -1.0795  1.1708  0.1610
 7040TIP3   OH221062   0.461   3.457   4.745  0.0442 -0.1227  0.2804
 7040TIP3    H121063   0.458   3.515   4.669  1.6220  1.6452  1.5283
 7040TIP3    H221064   0.539   3.404   4.733  0.0159 -0.1955  0.4133
 7041TIP3   OH221065   1.227   1.376   4.709 -0.5826 -0.2391 -0.0858
 7041TIP3    H121066   1.233   1.288   4.747  2.8699 -0.4858 -1.0542
 7041TIP3    H221067   1.222   1.360   4.614  1.0896  0.6079 -0.3274
 7042TIP3   OH221068   5.040   3.508   4.937 -0.5880 -0.3851  0.3542
 7042TIP3    H121069   5.080   3.478   4.855  1.4096  1.5907  0.5643
 7042TIP3    H221070   4.992   3.431   4.970  1.8964 -2.4434 -0.6372
 7043TIP3   OH221071   0.543   1.453   2.966  0.0197 -0.0421 -0.4237
 7043TIP3    H121072   0.509   1.381   2.912  0.5185 -1.6658  1.3755
 7043TIP3    H221073   0.465   1.487   3.011 -0.4035  1.3423 -2.1651
 7044TIP3   OH221074   7.654   3.207   2.641  0.0390  0.0242 -0.4296
 7044TIP3    H121075   7.587   3.142   2.622  0.0898  0.3918 -1.9078
 7044TIP3    H221076   7.651   3.268   2.567  1.2842  0.6291  0.0006
 7045TIP3   OH221077   8.399   2.606   3.178 -0.1642 -0.4652 -0.0316
 7045TIP3    H121078   8.355   2.634   3.258  1.5450  0.2075  0.6974
 7045TIP3    H221079   8.435   2.520   3.200  0.6063 -0.1248  0.0370
 7046TIP3   OH221080   0.161   1.331   3.647  0.6799  0.1030  0.5962
 7046TIP3    H121081   0.076   1.316   3.606  1.5539  1.5495 -1.8406
 7046TIP3    H221082   0.154   1.418   3.687  0.3276 -0.6891  2.3477
 7047TIP3   OH221083   5.694   3.231   3.346 -0.4011  0.2155  0.2000
 7047TIP3    H121084   5.629   3.169   3.380 -0.8255  0.3468 -0.3620
 7047TIP3    H221085   5.644   3.287   3.286  0.1607  0.5403  0.0366
 7048TIP3   OH221086   0.508   3.756   2.233 -0.2798 -0.6107 -0.5608
 7048TIP3    H121087   0.540   3.716   2.314  0.3592  0.7538 -0.1203
 7048TIP3    H221088   0.586   3.771   2.180 -0.5143 -0.0011 -0.7418
 7049TIP3   OH221089   7.528   2.946   4.670  0.3029  0.4967 -0.2260
 7049TIP3    H121090   7.454   2.887   4.654  0.1769 -0.0478  2.1649
 7049TIP3    H221091   7.603   2.903   4.629  0.3449 -1.7216  2.0842
 7050TIP3   OH221092   3.203   4.486   6.652 -0.2308  0.4025 -0.1437
 7050TIP3    H121093   3.232   4.397   6.632 -1.7762  0.2156 -1.6740
 7050TIP3    H221094   3.134   4.475   6.717 -2.1429  0.2609 -2.1358
 7051TIP3   OH221095   6.599   2.766   4.805 -0.5442  0.3603 -0.2523
 7051TIP3    H121096   6.630   2.746   4.717 -0.1920  0.8335 -0.2353
 7051TIP3    H221097   6.514   2.722   4.811 -0.6239  0.4337 -0.8694
 7052TIP3   OH221098   0.263   4.365   2.934 -0.0586  0.4587 -0.1981
 7052TIP3    H121099   0.214   4.335   3.010 -0.1716  0.1893 -0.3736
 7052TIP3    H221100   0.204   4.425   2.889  1.0711  2.9330  1.4846
 7053TIP3   OH221101   8.222   1.800   3.964  0.2275  0.1770 -0.2927
 7053TIP3    H121102   8.175   1.859   4.023 -0.6320  0.3189 -1.1188
 7053TIP3    H221103   8.286   1.756   4.020  0.6637  1.6531  0.4031
 7054TIP3   OH221104   1.265   3.927   3.150  0.2336  0.1762 -0.2780
 7054TIP3    H121105   1.361   3.928   3.153  0.2476 -0.8167 -0.3722
 7054TIP3    H221106   1.239   3.929   3.242  0.3399  0.4281 -0.2509
 7055TIP3   OH221107   0.384   1.593   5.452  0.0937  0.1438 -0.4184
 7055TIP3    H121108   0.450   1.539   5.408 -0.8255  0.5780 -2.3833
 7055TIP3    H221109   0.435   1.664   5.492  1.2089 -1.6539  1.4309
 7056TIP3   OH221110   7.551   2.819   3.302  0.7801 -0.2662 -0.0695
 7056TIP3    H121111   7.646   2.826   3.299  0.5691  3.7978 -0.1914
 7056TIP3    H221112   7.519   2.879   3.235 -1.9045  1.0427  2.2476
 7057TIP3   OH221113   8.343   4.747   4.698 -0.8161 -0.1714 -0.0627
 7057TIP3    H121114   8.358   4.667   4.749 -0.9003 -1.1964 -1.6067
 7057TIP3    H221115   8.293   4.717   4.622 -2.7728  1.7054  0.4412
 7058TIP3   OH221116   5.241   2.239   3.865  0.2099 -0.2949 -0.4032
 7058TIP3    H121117   5.185   2.317   3.863 -0.4740 -0.8018 -0.8648
 7058TIP3    H221118   5.189   2.173   3.910  0.3464 -0.8429 -1.0498
 7059TIP3   OH221119   5.564   4.657   2.946  0.2561  0.1068 -0.0318
 7059TIP3    H121120   5.565   4.702   2.861 -1.2095 -0.1168 -0.1692
 7059TIP3    H221121   5.596   4.723   3.008 -0.5316  0.8911 -0.4511
 7060TIP3   OH221122   7.039   1.635   2.736  0.3964 -0.1278 -0.1673
 7060TIP3    H121123   7.066   1.681   2.816  1.0356 -2.3832  0.9422
 7060TIP3    H221124   7.110   1.573   2.719 -0.2650 -0.4380 -1.8893
 7061TIP3   OH221125   0.911   3.927   1.841  0.0617  0.8912 -0.3416
 7061TIP3    H121126   0.826   3.918   1.884  0.1825  0.2099 -0.2475
 7061TIP3    H221127   0.937   3.838   1.820  0.4816  1.1459 -0.9050
 7062TIP3   OH221128   6.588   4.200   4.376  0.2905  0.3104  0.2259
 7062TIP3    H121129   6.667   4.193   4.430  0.1682 -0.6892  0.2792
 7062TIP3    H221130   6.606   4.273   4.317  2.7311 -2.0719 -2.1497
 7063TIP3   OH221131   6.835   1.575   4.298 -0.3174  0.1979 -0.1520
 7063TIP3    H121132   6.900   1.505   4.294 -1.1540 -0.7105  1.5572
 7063TIP3    H221133   6.876   1.649   4.253  1.0659 -1.0102 -0.9032
 7064TIP3   OH221134   0.997   2.268   6.567 -0.1637 -0.2770 -0.2428
 7064TIP3    H121135   0.942   2.230   6.499 -0.1697  0.4508 -0.6437
 7064TIP3    H221136   0.976   2.217   6.646 -0.8336 -0.5101 -0.5705
 7065TIP3   OH221137   7.561   1.130   3.742 -0.0138 -0.4820  0.0157
 7065TIP3    H121138   7.562   1.093   3.830  1.3676 -0.4528  0.0236
 7065TIP3    H221139   7.590   1.220   3.753  1.8911 -0.9807 -0.6634
 7066TIP3   OH221140   7.878   2.939   2.363 -0.6758 -0.1387 -0.1018
 7066TIP3    H121141   7.934   2.890   2.424 -0.0762 -1.1864 -1.4542
 7066TIP3    H221142   7.922   3.023   2.354  0.4727 -0.7892 -0.7989
 7067TIP3   OH221143   6.632   2.537   2.185 -0.0529 -0.1580 -0.1430
 7067TIP3    H121144   6.612   2.444   2.189  0.6571 -0.3409 -0.7051
 7067TIP3    H221145   6.652   2.553   2.092  0.6155  0.3843  0.0915
 7068TIP3   OH221146   1.841   2.421   4.942 -0.0088  0.0843  0.3795
 7068TIP3    H121147   1.849   2.350   5.006 -1.3837 -0.7042 -0.2883
 7068TIP3    H221148   1.855   2.501   4.991 -1.7288 -0.4693  1.8109
 7069TIP3   OH221149   0.774   1.986   4.692  0.2057  0.1760 -0.2791
 7069TIP3    H121150   0.739   1.897   4.697  1.0530 -0.1128  0.7622
 7069TIP3    H221151   0.711   2.034   4.638 -0.3876 -0.9916 -0.6346
 7070TIP3   OH221152   8.519   1.806   2.972 -0.3763 -0.1754  0.4475
 7070TIP3    H121153   8.450   1.747   3.004 -0.6642 -0.2456 -0.3075
 7070TIP3    H221154   8.523   1.790   2.878  0.5659 -0.0557  0.4555
 7071TIP3   OH221155   7.459   1.331   2.949  0.0300 -0.3506  0.0366
 7071TIP3    H121156   7.524   1.394   2.980  0.0608 -0.5056  0.2849
 7071TIP3    H221157   7.418   1.298   3.028  0.3840 -1.0425 -0.0652
 7072TIP3   OH221158   0.603   0.061   5.655  0.5239  0.4441  1.1250
 7072TIP3    H121159   0.648   0.145   5.645  3.6434 -0.9441  2.7328
 7072TIP3    H221160   0.621   0.014   5.574  3.3367 -0.6707  2.3410
 7073TIP3   OH221161   5.851   3.024   4.819  0.0390  0.0031  0.0019
 7073TIP3    H121162   5.775   3.034   4.877  0.4073  1.7234  0.2219
 7073TIP3    H221163   5.920   2.990   4.876 -0.0195  0.2857  0.2442
 7074TIP3   OH221164   6.780   3.153   4.724  0.4524 -0.3808  0.1115
 7074TIP3    H121165   6.692   3.133   4.692  0.2913 -0.8174  0.8107
 7074TIP3    H221166   6.833   3.165   4.644 -0.1783 -0.3845 -0.3081
 7075TIP3   OH221167   7.258   2.157   4.421  0.0567 -0.5800  0.0672
 7075TIP3    H121168   7.224   2.108   4.347 -0.0323 -0.2402 -0.1158
 7075TIP3    H221169   7.196   2.138   4.492 -0.9350  0.6169 -0.4582
 7076TIP3   OH221170   8.227   4.631   5.841  0.2963 -0.2849  0.8009
 7076TIP3    H121171   8.171   4.554   5.825 -1.3331  1.2785 -1.2290
 7076TIP3    H221172   8.315   4.594   5.850 -0.3510 -2.3568 -0.7797
 7077TIP3   OH221173   8.165   4.202   2.060  0.5449  0.2855 -0.3117
 7077TIP3    H121174   8.198   4.165   2.142 -1.4906  1.5200  1.1050
 7077TIP3    H221175   8.244   4.224   2.010  1.8568  1.2918  2.1234
 7078TIP3   OH221176   6.751   2.826   5.561  0.0239 -0.0376 -0.0509
 7078TIP3    H121177   6.764   2.805   5.469 -0.9534 -1.6460  0.1703
 7078TIP3    H221178   6.818   2.892   5.580  0.9843 -0.5407 -1.6088
 7079TIP3   OH221179   6.528   3.015   2.879 -0.4551 -0.5004 -0.4074
 7079TIP3    H121180   6.484   3.092   2.842 -0.8052 -1.6709 -2.5051
 7079TIP3    H221181   6.472   2.987   2.952 -1.5265 -0.1105 -1.0691
 7080TIP3   OH221182   8.227   3.927   2.573  0.3635  0.3328  0.5108
 7080TIP3    H121183   8.195   3.843   2.541 -0.4332  0.8680 -0.1197
 7080TIP3    H221184   8.261   3.908   2.661 -1.8327 -0.2359  1.2768
 7081TIP3   OH221185   7.582   3.824   3.845 -0.3565 -0.3282 -0.2587
 7081TIP3    H121186   7.521   3.882   3.890 -0.7576  0.5122 -1.8707
 7081TIP3    H221187   7.546   3.736   3.859 -0.6174 -0.0483  0.8322
 7082TIP3   OH221188   5.839   2.404   4.251 -0.1734 -0.0312 -0.0161
 7082TIP3    H121189   5.812   2.386   4.161  1.3331  0.5406 -0.5998
 7082TIP3    H221190   5.920   2.354   4.262  1.4003  2.4051 -0.0630
 7083TIP3   OH221191   7.394   3.678   2.829 -0.3407 -0.5230 -0.4541
 7083TIP3    H121192   7.335   3.621   2.781 -1.2530  0.8182 -0.9665
 7083TIP3    H221193   7.444   3.724   2.762 -0.0849 -0.2366 -0.0751
 7084TIP3   OH221194   7.693   2.870   2.162  0.4778 -0.1411 -0.6439
 7084TIP3    H121195   7.733   2.861   2.075  0.8766 -0.3950 -0.4352
 7084TIP3    H221196   7.767   2.883   2.221  0.3449 -1.8921 -0.0781
 7085TIP3   OH221197   7.581   1.488   1.063  0.0004  0.5344  0.0278
 7085TIP3    H121198   7.672   1.518   1.053  0.5141 -0.6376  0.9770
 7085TIP3    H221199   7.528   1.567   1.056  1.1546  1.3274  0.1571
 7086TIP3   OH221200   4.981   0.981   3.267 -0.2156  0.0716  0.3093
 7086TIP3    H121201   5.066   0.997   3.308  0.1474  0.3693 -0.5288
 7086TIP3    H221202   4.947   0.904   3.311 -1.0440  1.8830  2.9920
 7087TIP3   OH221203   6.687   0.460   0.725 -0.5856  0.0037  0.1527
 7087TIP3    H121204   6.627   0.463   0.650 -0.2742  2.0669 -0.0294
 7087TIP3    H221205   6.664   0.536   0.777  2.3636  1.2525 -0.2919
 7088TIP3   OH221206   7.296   3.396   3.190 -0.5569  0.1303  0.1057
 7088TIP3    H121207   7.222   3.387   3.250 -1.1695 -0.6434 -0.7477
 7088TIP3    H221208   7.284   3.483   3.152  0.5592  1.1488  2.0382
 7089TIP3   OH221209   6.206   2.756   2.526 -0.1096  0.6487  0.0060
 7089TIP3    H121210   6.188   2.808   2.447 -0.4747  0.9249  0.2719
 7089TIP3    H221211   6.297   2.727   2.515  0.0632  1.2578 -0.1874
 7090TIP3   OH221212   7.823   1.426   4.675  0.0929  0.1323  0.5279
 7090TIP3    H121213   7.834   1.458   4.586 -1.5858  0.6878  0.4918
 7090TIP3    H221214   7.837   1.502   4.730  2.7209 -0.5443  0.8744
 7091TIP3   OH221215   8.308   2.841   5.821 -0.3621  0.0510  0.2929
 7091TIP3    H121216   8.277   2.816   5.734 -0.9696 -1.4480  0.9432
 7091TIP3    H221217   8.256   2.919   5.843 -0.6668  0.0486 -0.3951
 7092TIP3   OH221218   0.520   2.111   2.843  0.4652 -0.9468  0.7978
 7092TIP3    H121219   0.446   2.158   2.805 -0.0822 -2.7181 -0.3893
 7092TIP3    H221220   0.594   2.172   2.835  0.1669 -0.9027 -2.3344
 7093TIP3   OH221221   7.216   2.966   4.114  0.3499 -0.6731  0.3010
 7093TIP3    H121222   7.130   2.943   4.078 -0.0496 -0.1176  0.8923
 7093TIP3    H221223   7.220   2.920   4.198  0.5051 -0.4478  0.4159
 7094TIP3   OH221224   7.704   1.623   1.620  0.5016 -0.4893 -0.1211
 7094TIP3    H121225   7.678   1.540   1.658 -3.0116  0.7685  0.3721
 7094TIP3    H221226   7.733   1.676   1.695 -2.1436  0.4349  0.3075
 7095TIP3   OH221227   2.647   0.200   3.372  0.0421 -0.4979 -0.0179
 7095TIP3    H121228   2.599   0.193   3.454  1.1200  1.4242  0.8007
 7095TIP3    H221229   2.579   0.204   3.304 -0.8641 -1.4643  0.8188
 7096TIP3   OH221230   0.256   2.272   4.149 -0.6921  0.6359 -0.4089
 7096TIP3    H121231   0.297   2.353   4.118 -0.9958  0.9881  0.0952
 7096TIP3    H221232   0.219   2.232   4.071 -2.1638  1.9279 -0.3996
 7097TIP3   OH221233   8.214   2.732   2.151 -0.0308  0.2459  0.1995
 7097TIP3    H121234   8.222   2.676   2.074  2.1925 -0.5328  0.9618
 7097TIP3    H221235   8.280   2.800   2.138  0.6027 -0.0870  1.5360
 7098TIP3   OH221236   8.330   2.316   2.258 -0.1369  0.0946  0.4061
 7098TIP3    H121237   8.400   2.331   2.321  0.4536  0.2359 -0.2823
 7098TIP3    H221238   8.353   2.371   2.183 -0.3499 -0.7746 -0.3037
 7099TIP3   OH221239   0.974   3.636   2.095  0.0625 -0.2960 -0.5819
 7099TIP3    H121240   0.916   3.561   2.102  0.6291 -0.7015 -0.2196
 7099TIP3    H221241   1.049   3.614   2.150  0.1281  0.6339 -0.2885
 7100TIP3   OH221242   7.349   0.990   3.058  0.2730  0.0023  0.0048
 7100TIP3    H121243   7.376   0.998   3.149 -3.3343 -0.6947  1.2387
 7100TIP3    H221244   7.309   1.074   3.037 -1.7194 -0.8812  0.1291
 7101TIP3   OH221245   8.362   3.011   3.662  0.0343  0.2037 -0.0004
 7101TIP3    H121246   8.405   2.928   3.682  0.7855  0.6797  0.3833
 7101TIP3    H221247   8.301   2.990   3.591  1.4923 -0.3178 -1.1300
 7102TIP3   OH221248   1.801   2.351   1.191  0.1023  0.0304 -0.6938
 7102TIP3    H121249   1.835   2.308   1.113  0.4512  2.0505 -1.7026
 7102TIP3    H221250   1.753   2.427   1.157 -0.2284  0.6222  1.0271
 7103TIP3   OH221251   0.461   0.958   3.152  0.3977 -1.1180 -0.2506
 7103TIP3    H121252   0.421   0.927   3.233 -0.1145 -0.7934 -0.3762
 7103TIP3    H221253   0.392   1.010   3.110  1.1811  0.0685 -0.1026
 7104TIP3   OH221254   8.212   2.654   4.978 -0.4425 -0.5535 -0.3374
 7104TIP3    H121255   8.296   2.679   4.940 -1.2909  1.0583 -1.1834
 7104TIP3    H221256   8.226   2.658   5.073 -0.0191  1.2905 -0.4718
 7105TIP3   OH221257   2.192   0.304   3.302  0.0719  0.3730  0.1908
 7105TIP3    H121258   2.265   0.256   3.264 -0.1629  0.4373 -0.3409
 7105TIP3    H221259   2.193   0.280   3.395  0.2310 -0.3019  0.0134
 7106TIP3   OH221260   7.036   3.679   2.901 -0.0819  0.1787 -0.7239
 7106TIP3    H121261   7.119   3.724   2.885 -1.0487  1.7715 -1.4011
 7106TIP3    H221262   7.012   3.644   2.815  0.1361 -0.7551 -0.4158
 7107TIP3   OH221263   4.810   7.600   4.900  0.7148 -0.2362  0.0756
 7107TIP3    H121264   4.735   7.557   4.859  1.0558  0.2746 -1.0967
 7107TIP3    H221265   4.858   7.529   4.942 -0.7103 -0.5025  1.3125
 7108TIP3   OH221266   8.376   4.551   3.748 -0.3174 -0.3272  0.0261
 7108TIP3    H121267   8.394   4.468   3.792  0.0135  0.6357  1.7933
 7108TIP3    H221268   8.311   4.594   3.804 -0.5679  0.5540 -0.9155
 7109TIP3   OH221269   4.995   7.976   4.950 -0.5279 -0.1304 -0.2317
 7109TIP3    H121270   5.040   8.034   5.012  0.1638 -2.1182  1.1653
 7109TIP3    H221271   5.056   7.967   4.877  0.9609 -2.0162  1.2069
 7110TIP3   OH221272   6.739   1.907   2.613 -0.6827 -0.0528  0.5916
 7110TIP3    H121273   6.770   1.862   2.535 -1.2193 -1.0490  0.9343
 7110TIP3    H221274   6.681   1.976   2.580 -1.4897 -0.9366  0.1229
 7111TIP3   OH221275   6.020   2.318   3.702  0.3402 -0.4562 -0.3351
 7111TIP3    H121276   6.001   2.296   3.610  0.4210 -1.9967  0.0011
 7111TIP3    H221277   5.957   2.266   3.752  0.0371  0.6800  0.4721
 7112TIP3   OH221278   7.812   2.069   3.032  0.4805 -0.3152 -0.2604
 7112TIP3    H121279   7.845   2.159   3.023  1.6325 -0.6254  0.7530
 7112TIP3    H221280   7.796   2.059   3.126  0.5420 -1.2425 -0.3527
 7113TIP3   OH221281   8.099   2.442   5.360  0.5736  0.2771  0.0600
 7113TIP3    H121282   8.123   2.359   5.400  0.1408 -0.4853 -1.2324
 7113TIP3    H221283   8.034   2.419   5.294 -0.8961  1.8674  0.9283
 7114TIP3   OH221284   5.086   7.931   3.491 -0.4922  0.3283 -0.4809
 7114TIP3    H121285   5.055   8.020   3.505  0.3706  0.3295  1.7222
 7114TIP3    H221286   5.044   7.880   3.560 -0.1544 -0.7614 -1.0734
 7115TIP3   OH221287   6.412   3.977   3.273 -0.0636  0.3807  0.3199
 7115TIP3    H121288   6.436   3.894   3.313  0.0444 -0.9741 -2.5033
 7115TIP3    H221289   6.482   4.037   3.299 -0.1447 -0.3551  2.3845
 7116TIP3   OH221290   5.972   1.925   3.267  0.1485 -0.2879 -0.2783
 7116TIP3    H121291   5.982   1.830   3.264  0.2564 -0.3321  1.1314
 7116TIP3    H221292   6.023   1.952   3.343  0.1116  0.9033 -0.6628
 7117TIP3   OH221293   6.781   3.432   3.280  0.9449 -0.2141 -0.2184
 7117TIP3    H121294   6.841   3.497   3.244  0.9769  0.4011  0.9417
 7117TIP3    H221295   6.804   3.351   3.233  1.5143  0.3918 -1.0149
 7118TIP3   OH221296   7.507   4.349   3.477  0.3323 -0.1696  0.2825
 7118TIP3    H121297   7.429   4.405   3.474  0.1707 -0.4055 -0.0535
 7118TIP3    H221298   7.549   4.363   3.392  0.7033  0.0249  0.4993
 7119TIP3   OH221299   0.036   3.746   3.727 -0.0070  0.0149 -0.0388
 7119TIP3    H121300   0.081   3.692   3.661 -1.7076 -1.7448  0.2012
 7119TIP3    H221301  -0.040   3.781   3.681 -0.8256 -0.6675  0.7703
 7120TIP3   OH221302   8.253   2.420   4.317 -0.4646  0.1839  0.3731
 7120TIP3    H121303   8.163   2.445   4.297 -0.2188  0.2054 -0.7364
 7120TIP3    H221304   8.262   2.332   4.281  0.5775  0.9869 -1.3836
 7121TIP3   OH221305   0.191   4.478   4.942  0.1150 -0.0856  0.2224
 7121TIP3    H121306   0.249   4.516   4.876 -0.8973 -1.1749 -1.3099
 7121TIP3    H221307   0.251   4.434   5.003  1.1343  1.9575  0.7468
 7122TIP3   OH221308   7.538   3.345   3.536 -0.0677 -0.4407 -0.3557
 7122TIP3    H121309   7.547   3.323   3.443  1.0068  0.6729 -0.5421
 7122TIP3    H221310   7.466   3.409   3.538  0.3289  0.0219 -0.5257
 7123TIP3   OH221311   8.301   4.051   4.678  0.2523  0.3815 -0.3905
 7123TIP3    H121312   8.364   3.999   4.629  0.8772  0.3858  0.3996
 7123TIP3    H221313   8.259   4.106   4.611  1.6811  0.9877 -0.8055
 7124TIP3   OH221314   7.211   3.697   5.150 -0.1533  0.2285 -0.5740
 7124TIP3    H121315   7.230   3.665   5.061  1.3527  2.3658 -1.0474
 7124TIP3    H221316   7.126   3.657   5.171 -0.5214 -0.3629 -2.9548
 7125TIP3   OH221317   1.254   1.725   3.924 -0.5692  0.1056  0.5594
 7125TIP3    H121318   1.176   1.751   3.972  0.2000  1.4902  1.0773
 7125TIP3    H221319   1.327   1.760   3.975  0.2590  1.5640 -1.5746
 7126TIP3   OH221320   6.121   4.015   3.623 -0.3029 -0.1089 -0.3677
 7126TIP3    H121321   6.141   3.927   3.592  1.5234  0.5216 -1.0043
 7126TIP3    H221322   6.030   4.030   3.597 -0.7678 -1.9777  0.1598
 7127TIP3   OH221323   5.773   7.104   2.942  0.0961 -0.0996  0.2009
 7127TIP3    H121324   5.743   7.021   2.904  0.4606 -0.1707  0.0565
 7127TIP3    H221325   5.771   7.166   2.869  0.8800 -0.2576  0.0353
 7128TIP3   OH221326   1.706   2.957   1.051 -0.0688 -0.3876  0.0754
 7128TIP3    H121327   1.765   2.909   0.992 -0.3552  1.1150 -1.4848
 7128TIP3    H221328   1.704   3.045   1.015 -1.5512  0.1364  1.4134
 7129TIP3   OH221329   7.402   4.665   5.597  0.0171 -0.3823  0.2258
 7129TIP3    H121330   7.426   4.625   5.681 -0.0668 -1.1273 -0.1014
 7129TIP3    H221331   7.462   4.739   5.588 -0.0233 -0.2553  0.9801
 7130TIP3   OH221332   8.281   0.749   2.780 -0.6739  0.3641  0.2390
 7130TIP3    H121333   8.220   0.820   2.760 -0.2452  1.0427  1.3015
 7130TIP3    H221334   8.366   0.781   2.751 -0.2891  0.7663  1.7669
 7131TIP3   OH221335   8.082   3.588   3.689  0.4041 -0.1869  0.3481
 7131TIP3    H121336   8.004   3.580   3.633 -0.1171 -1.2242  1.2150
 7131TIP3    H221337   8.053   3.557   3.775  1.2837  1.1303  1.1275
 7132TIP3   OH221338   1.046   2.485   3.273 -0.1632  0.3547 -0.0338
 7132TIP3    H121339   1.114   2.444   3.325 -2.1657 -0.1520  2.3103
 7132TIP3    H221340   1.048   2.439   3.190  1.1415 -0.8864  0.6626
 7133TIP3   OH221341   1.390   2.383   4.205 -0.1500 -0.8009 -0.0972
 7133TIP3    H121342   1.406   2.468   4.164 -0.4084 -0.5439  0.3310
 7133TIP3    H221343   1.306   2.394   4.249 -2.0308 -2.3963 -3.1076
 7134TIP3   OH221344   7.045   3.917   3.413  0.0459  0.1412 -0.2066
 7134TIP3    H121345   7.084   3.845   3.462 -0.1880  0.0140 -0.2067
 7134TIP3    H221346   7.032   3.986   3.478  2.4832  1.0741 -0.6688
 7135TIP3   OH221347   0.235   4.126   5.350  0.2194  0.2431  0.0954
 7135TIP3    H121348   0.320   4.096   5.381 -0.1243 -0.8720 -0.0431
 7135TIP3    H221349   0.193   4.049   5.313 -0.3561  1.0389 -0.9633
 7136TIP3   OH221350   1.083   5.904   6.276 -0.1719 -0.3960  0.1145
 7136TIP3    H121351   0.991   5.882   6.291 -0.4007  0.7755  0.4705
 7136TIP3    H221352   1.128   5.871   6.354 -0.0523 -2.3396 -0.7481
 7137TIP3   OH221353   1.650   3.926   5.503 -0.5215  0.5496  0.1139
 7137TIP3    H121354   1.581   3.961   5.446  0.4812 -0.5771 -1.8515
 7137TIP3    H221355   1.715   3.996   5.509 -0.8413  0.8356  0.2277
 7138TIP3   OH221356   1.530   4.824   5.865 -0.6356 -0.1074 -0.5933
 7138TIP3    H121357   1.577   4.769   5.802 -1.5222 -1.0173 -0.4802
 7138TIP3    H221358   1.514   4.906   5.819  1.1842  0.2879 -0.5888
 7139TIP3   OH221359   8.280   2.268   5.017 -0.0657  0.0523  0.2506
 7139TIP3    H121360   8.374   2.286   5.006  0.2958 -0.8398  1.8528
 7139TIP3    H221361   8.276   2.200   5.083 -1.9427  1.3352  1.4901
 7140TIP3   OH221362   4.776   1.337   0.306  0.4836  0.1211 -0.4002
 7140TIP3    H121363   4.825   1.273   0.358  0.0167 -0.8008 -1.0847
 7140TIP3    H221364   4.830   1.417   0.310  1.1287 -0.3421  0.3559
 7141TIP3   OH221365   7.895   2.296   5.177 -0.5167  1.3626 -0.7849
 7141TIP3    H121366   7.960   2.243   5.130 -0.5307  0.5631  0.0802
 7141TIP3    H221367   7.862   2.357   5.111 -1.4925 -0.6149 -2.2003
 7142TIP3   OH221368   2.573   3.542   6.113 -0.0516 -0.4471  0.3474
 7142TIP3    H121369   2.655   3.495   6.129 -0.4666 -1.0985  0.5815
 7142TIP3    H221370   2.597   3.614   6.056  0.2563 -2.0795 -1.6480
 7143TIP3   OH221371   1.737   1.720   5.642  0.1572  0.1501 -0.6028
 7143TIP3    H121372   1.752   1.626   5.632 -3.2226 -0.5905  0.5678
 7143TIP3    H221373   1.806   1.750   5.702  0.7334 -1.7364 -0.2956
 7144TIP3   OH221374   8.503   1.972   4.767  0.1532 -0.1687  0.7386
 7144TIP3    H121375   8.428   1.943   4.820 -0.7512 -0.1933 -0.5475
 7144TIP3    H221376   8.549   1.891   4.745 -1.6210 -0.5507 -1.7205
 7145TIP3   OH221377   7.167   3.729   4.623 -0.3212  0.4056 -0.1918
 7145TIP3    H121378   7.248   3.677   4.620  0.3042  1.3437  0.0530
 7145TIP3    H221379   7.169   3.771   4.709 -1.2408  0.1667 -0.0571
 7146TIP3   OH221380   8.477   1.949   6.587 -0.5205  0.0817 -0.1848
 7146TIP3    H121381   8.392   1.915   6.561 -0.3357  0.0935 -0.8078
 7146TIP3    H221382   8.525   1.872   6.619 -1.2776  0.3123  1.5661
 7147TIP3   OH221383   0.664   5.411   5.186  0.5274  0.6270 -0.2080
 7147TIP3    H121384   0.611   5.490   5.174 -1.0520  0.1173  2.8577
 7147TIP3    H221385   0.735   5.438   5.244  1.7133  0.4989 -1.5947
 7148TIP3   OH221386   7.745   5.101   3.340  0.1958 -0.1614 -0.1495
 7148TIP3    H121387   7.754   5.181   3.288  0.3044 -0.0122  0.1005
 7148TIP3    H221388   7.656   5.070   3.319  0.2557 -0.1288 -0.4610
 7149TIP3   OH221389   0.600   3.705   4.223 -0.0074  0.4019 -0.3107
 7149TIP3    H121390   0.672   3.741   4.171 -0.6609  1.7085 -0.3237
 7149TIP3    H221391   0.642   3.676   4.305  0.9056 -1.0170 -1.2625
 7150TIP3   OH221392   4.496   7.705  -0.026  0.6727  0.6249 -0.2924
 7150TIP3    H121393   4.455   7.760   0.041 -1.2167 -1.1865  0.1072
 7150TIP3    H221394   4.587   7.696   0.003  0.2621  1.1356  1.2188
 7151TIP3   OH221395   0.777   3.532   3.766  0.2019 -0.1666  0.0912
 7151TIP3    H121396   0.754   3.527   3.859  1.3287  1.5956  0.4922
 7151TIP3    H221397   0.697   3.559   3.723 -0.0552  0.0442  0.6943
 7152TIP3   OH221398   8.385   1.429   6.135  0.3192 -0.2003 -0.0197
 7152TIP3    H121399   8.378   1.522   6.156 -0.9759 -0.1976 -0.4500
 7152TIP3    H221400   8.295   1.398   6.131  0.7469 -1.6306  0.7792
 7153TIP3   OH221401   0.844   5.131   6.381  0.2975  0.2309 -0.6623
 7153TIP3    H121402   0.854   5.199   6.448 -1.1568 -0.5372  0.3494
 7153TIP3    H221403   0.933   5.096   6.370  0.7993  1.3191 -0.1645
 7154TIP3   OH221404   0.579   5.457   2.637  0.7494 -0.4172 -0.0458
 7154TIP3    H121405   0.603   5.519   2.568  1.0661 -0.1783  0.2783
 7154TIP3    H221406   0.491   5.484   2.664  1.0647  0.1648  0.4015
 7155TIP3   OH221407   1.594   0.134   4.606 -0.3698  0.7003  0.8346
 7155TIP3    H121408   1.597   0.228   4.625 -2.0789  0.8210  0.5970
 7155TIP3    H221409   1.650   0.123   4.530  2.6200  0.9758  2.9300
 7156TIP3   OH221410   8.117   2.895   3.917 -0.6959 -0.1508  0.3036
 7156TIP3    H121411   8.032   2.923   3.881 -0.8131  0.3117  0.9358
 7156TIP3    H221412   8.181   2.948   3.870 -0.7262 -0.7418 -0.4180
 7157TIP3   OH221413   0.834   1.585   3.165 -0.4176  0.2295 -0.6459
 7157TIP3    H121414   0.762   1.533   3.201 -0.9426  0.7394 -0.9379
 7157TIP3    H221415   0.894   1.597   3.238 -0.1113 -1.0845 -0.6739
 7158TIP3   OH221416   2.652   5.222   5.899 -0.0068  0.3390  0.1784
 7158TIP3    H121417   2.663   5.248   5.807 -3.5286 -1.7644 -0.9498
 7158TIP3    H221418   2.640   5.305   5.945 -0.2180  1.3253 -1.5853
 7159TIP3   OH221419   4.372   4.419   6.326 -0.2642 -0.3402 -0.2491
 7159TIP3    H121420   4.418   4.499   6.347 -0.1899 -0.3723 -0.2910
 7159TIP3    H221421   4.375   4.367   6.407 -1.7894  0.4123  0.3181
 7160TIP3   OH221422   7.996   2.400   5.793 -0.4857  0.2382  0.1331
 7160TIP3    H121423   8.019   2.317   5.752 -3.9868 -0.8139  0.1941
 7160TIP3    H221424   8.055   2.407   5.868  0.8526 -1.4379 -0.7444
 7161TIP3   OH221425   0.122   4.117   3.542 -0.0777  0.6751 -0.0143
 7161TIP3    H121426   0.061   4.118   3.616  0.7555 -0.8564  0.7155
 7161TIP3    H221427   0.081   4.058   3.479  0.4750 -0.0821  0.3315
 7162TIP3   OH221428   1.146   5.218   6.936 -0.4846  0.0236  0.0922
 7162TIP3    H121429   1.104   5.175   6.861 -0.3349  0.3130 -0.1594
 7162TIP3    H221430   1.217   5.159   6.961 -0.5470 -0.0831  0.0151
 7163TIP3   OH221431   1.278   3.338   4.733 -0.3611  0.2612 -0.6908
 7163TIP3    H121432   1.249   3.363   4.645  1.2731  1.2230 -0.9760
 7163TIP3    H221433   1.226   3.261   4.754 -1.1833  0.3607 -2.2735
 7164TIP3   OH221434   2.811   3.440   4.194  0.2751 -0.0910 -0.4317
 7164TIP3    H121435   2.719   3.449   4.166 -0.0419 -2.0645 -0.1287
 7164TIP3    H221436   2.841   3.361   4.148  2.1594  1.1366 -1.3488
 7165TIP3   OH221437   0.438   4.926   6.169  0.2972  0.0437  0.4419
 7165TIP3    H121438   0.498   4.924   6.243  1.3455 -2.0781 -0.4150
 7165TIP3    H221439   0.492   4.902   6.094 -0.9952  1.0542 -0.8239
 7166TIP3   OH221440   8.368   3.691   5.945  0.5252  0.4572  0.3743
 7166TIP3    H121441   8.455   3.690   5.905  0.0757  1.4253 -0.6717
 7166TIP3    H221442   8.307   3.678   5.872 -0.2266  0.0117  1.0631
 7167TIP3   OH221443   2.383   4.445   4.761 -0.0703  0.1472 -0.1327
 7167TIP3    H121444   2.358   4.517   4.703  1.7221  0.1997 -0.8712
 7167TIP3    H221445   2.397   4.371   4.702  0.4726 -0.1504  0.3637
 7168TIP3   OH221446   1.532   3.453   4.751  0.0343  0.2605  0.2284
 7168TIP3    H121447   1.442   3.423   4.742  0.8110 -2.1936  0.2917
 7168TIP3    H221448   1.575   3.386   4.803  1.6338  1.9841  1.1898
 7169TIP3   OH221449   2.438   5.085   0.677  0.0627  0.2680  0.0198
 7169TIP3    H121450   2.372   5.058   0.614 -0.2884 -0.2249  0.5963
 7169TIP3    H221451   2.513   5.112   0.624 -0.1684 -0.3094 -0.5940
 7170TIP3   OH221452   0.795   3.837   6.010 -0.1724 -0.3143 -0.1805
 7170TIP3    H121453   0.738   3.809   6.082  1.6947 -2.8360  0.3953
 7170TIP3    H221454   0.751   3.806   5.931 -1.0012  0.2806  0.0391
 7171TIP3   OH221455   0.779   5.650   3.112 -0.4013  0.1593  0.3063
 7171TIP3    H121456   0.723   5.605   3.175 -1.9969  1.8480  0.1456
 7171TIP3    H221457   0.734   5.641   3.029 -0.0133  0.8162  0.0190
 7172TIP3   OH221458   7.410   4.581   5.885  0.1898  0.2315 -0.2886
 7172TIP3    H121459   7.421   4.557   5.977  1.1575  1.4542 -0.0806
 7172TIP3    H221460   7.434   4.501   5.837 -0.3511 -0.4228  0.5073
 7173TIP3   OH221461   2.680   1.774   4.715 -0.5723  0.2153  0.8034
 7173TIP3    H121462   2.760   1.752   4.668 -0.4567  0.1756  1.0201
 7173TIP3    H221463   2.694   1.863   4.747 -0.6763  0.2657  0.7087
 7174TIP3   OH221464   7.431   2.096   4.802 -0.2868  0.3950  0.7475
 7174TIP3    H121465   7.433   2.189   4.825 -0.6325  0.8489 -0.9238
 7174TIP3    H221466   7.338   2.076   4.794 -0.1777  0.5515 -1.2379
 7175TIP3   OH221467   7.407   3.508   4.612  0.4358  0.3477 -0.1039
 7175TIP3    H121468   7.451   3.583   4.654  1.4337  0.3895 -1.2310
 7175TIP3    H221469   7.472   3.439   4.612  0.0399 -0.0225 -0.5462
 7176TIP3   OH221470   1.163   4.963   5.966 -0.3089  0.2415  0.5924
 7176TIP3    H121471   1.077   4.944   6.005 -1.4221  0.4605 -1.6720
 7176TIP3    H221472   1.167   5.058   5.962 -1.0603  0.2035 -1.5993
 7177TIP3   OH221473   4.726   7.684   0.611 -0.3308 -0.3692 -0.2178
 7177TIP3    H121474   4.690   7.695   0.523 -0.3004  0.3780 -0.1399
 7177TIP3    H221475   4.682   7.750   0.663 -0.1968 -0.6777  0.2860
 7178TIP3   OH221476   0.157   4.390   6.137  0.4337 -0.6231  0.3959
 7178TIP3    H121477   0.152   4.479   6.102 -1.0943 -0.4034  1.1254
 7178TIP3    H221478   0.175   4.402   6.230  0.5313 -1.0910  0.4398
 7179TIP3   OH221479   2.989   5.535   5.113  0.1890 -0.5522 -0.6476
 7179TIP3    H121480   2.970   5.457   5.062 -1.4713 -0.3731 -0.3353
 7179TIP3    H221481   3.081   5.554   5.096  0.4848 -2.3298 -1.0513
 7180TIP3   OH221482   1.237   3.733   2.733  0.5067  0.3657  0.4316
 7180TIP3    H121483   1.217   3.827   2.726 -1.9074 -0.1268  0.2958
 7180TIP3    H221484   1.232   3.714   2.826  2.4486  0.6569  0.6083
 7181TIP3   OH221485   0.875   1.969   5.729  0.1520 -0.1971  0.5713
 7181TIP3    H121486   0.905   2.039   5.786  0.2915  1.5253 -1.5826
 7181TIP3    H221487   0.956   1.926   5.699  0.1262 -0.3014  0.6480
 7182TIP3   OH221488   3.138   6.886   0.715 -0.0643  0.4171  0.3480
 7182TIP3    H121489   3.095   6.801   0.710 -0.1809  0.4570  0.6744
 7182TIP3    H221490   3.137   6.909   0.808  1.9339 -0.2460  0.5655
 7183TIP3   OH221491   3.201   1.895   6.778  0.5372  0.1140 -0.5256
 7183TIP3    H121492   3.167   1.982   6.798  0.5643  0.5917 -2.4662
 7183TIP3    H221493   3.213   1.896   6.683  0.1661 -2.1430 -0.6094
 7184TIP3   OH221494   7.970   0.594   0.010  0.6927 -0.0405  0.0002
 7184TIP3    H121495   8.045   0.573   0.065  1.0392  1.2687  0.0583
 7184TIP3    H221496   7.990   0.556  -0.075  0.9745 -0.5240  0.2805
 7185TIP3   OH221497   2.314   3.500   4.992  0.3013  0.3300 -0.5846
 7185TIP3    H121498   2.244   3.564   4.979  0.5931  0.5147 -1.2506
 7185TIP3    H221499   2.309   3.442   4.916 -0.5488 -1.0085  0.4499
 7186TIP3   OH221500   8.134   8.022   3.891  0.4669  0.5009  0.2496
 7186TIP3    H121501   8.096   7.970   3.963 -1.2916  0.4636 -0.6736
 7186TIP3    H221502   8.224   8.040   3.919  0.7311 -1.9961  1.1454
 7187TIP3   OH221503   0.445   4.292   4.896 -0.1455 -0.3978 -0.2785
 7187TIP3    H121504   0.485   4.376   4.921 -1.8551  0.2290  0.4774
 7187TIP3    H221505   0.422   4.251   4.979 -2.7905  0.1483 -0.7043
 7188TIP3   OH221506   1.982   1.591   4.585 -0.5712 -0.6684  0.1695
 7188TIP3    H121507   2.066   1.565   4.546 -0.3920 -1.8495  1.2937
 7188TIP3    H221508   1.964   1.522   4.650 -2.1510 -0.1407  0.3016
 7189TIP3   OH221509   2.261   2.372   6.742  0.7561  0.4425 -0.3081
 7189TIP3    H121510   2.184   2.324   6.775  0.0410  1.8553  0.1255
 7189TIP3    H221511   2.317   2.382   6.818  0.8266  0.4296 -0.3592
 7190TIP3   OH221512   3.496   0.291   6.039  0.0111 -0.2463  0.1253
 7190TIP3    H121513   3.584   0.253   6.038 -0.7260 -2.0442  0.8341
 7190TIP3    H221514   3.476   0.307   5.947  2.0537  2.5921  0.1122
 7191TIP3   OH221515   8.121   3.801   4.929 -0.0164  0.2822 -0.9102
 7191TIP3    H121516   8.190   3.735   4.924 -1.1384 -1.0244  0.3907
 7191TIP3    H221517   8.069   3.788   4.849  0.8655  0.8834 -1.5992
 7192TIP3   OH221518   1.859   2.681   5.058  0.0855  0.2821 -0.0418
 7192TIP3    H121519   1.922   2.746   5.088  0.0103  0.7860 -0.9399
 7192TIP3    H221520   1.794   2.731   5.009  0.3602 -0.5268 -1.2573
 7193TIP3   OH221521   1.771   2.367   6.702 -0.0669 -0.1133 -0.2396
 7193TIP3    H121522   1.823   2.295   6.740 -0.7138 -0.2881  0.3184
 7193TIP3    H221523   1.833   2.414   6.646  1.4601  1.3902  2.6381
 7194TIP3   OH221524   0.251   0.679   6.462  0.2051  0.1201 -0.4385
 7194TIP3    H121525   0.187   0.748   6.479 -2.1037 -1.9859 -0.2674
 7194TIP3    H221526   0.279   0.693   6.372  0.0039  1.4541 -0.2981
 7195TIP3   OH221527   8.199   2.091   3.542 -0.2902  0.0576 -0.8293
 7195TIP3    H121528   8.229   2.098   3.632  0.8323 -1.9374 -1.0176
 7195TIP3    H221529   8.158   2.004   3.536 -2.3958  1.0480 -1.6771
 7196TIP3   OH221530   0.625   2.173   6.132 -0.6286  0.2220  0.2459
 7196TIP3    H121531   0.660   2.084   6.130 -0.3158  0.3041  1.5463
 7196TIP3    H221532   0.702   2.230   6.124 -0.7097  0.3870  0.6338
 7197TIP3   OH221533   7.356   4.147   6.866 -0.0473 -0.1716 -0.4475
 7197TIP3    H121534   7.288   4.210   6.892  0.8573  0.9004 -0.6731
 7197TIP3    H221535   7.410   4.136   6.944 -0.4564 -1.0176 -0.2730
 7198TIP3   OH221536   0.796   2.955   4.907 -0.1780  0.1976  0.6874
 7198TIP3    H121537   0.873   2.998   4.942  0.4111 -1.2533  1.2024
 7198TIP3    H221538   0.725   3.018   4.921  0.7703  1.2399  0.8631
 7199TIP3   OH221539  -0.007   4.990   6.273 -0.5220  0.1345  0.1417
 7199TIP3    H121540   0.056   5.062   6.273 -0.8227  0.4116 -1.3581
 7199TIP3    H221541   0.047   4.911   6.279 -0.1575  0.4605  1.1254
 7200TIP3   OH221542   0.149   1.978   6.837 -0.0279 -0.0838 -0.4463
 7200TIP3    H121543   0.198   2.024   6.770 -1.4463  0.5794 -1.0492
 7200TIP3    H221544   0.129   1.893   6.798 -0.9717  0.3530 -0.9339
 7201TIP3   OH221545   2.356   5.255   6.232  0.3603  0.5982 -0.3592
 7201TIP3    H121546   2.362   5.168   6.272 -1.6469  0.3530 -0.5272
 7201TIP3    H221547   2.332   5.238   6.141 -0.9472  1.3216 -0.1750
 7202TIP3   OH221548   6.218   0.340   0.458 -0.2352 -0.1834 -0.4396
 7202TIP3    H121549   6.296   0.339   0.514 -0.7431  1.3679  0.3220
 7202TIP3    H221550   6.150   0.298   0.511 -0.7588  1.4282  0.1961
 7203TIP3   OH221551   7.396   2.330   3.999 -0.6507 -0.1326 -0.3528
 7203TIP3    H121552   7.446   2.395   3.949  0.4503 -0.8702 -0.2222
 7203TIP3    H221553   7.404   2.359   4.090 -1.6950  0.5602 -0.4624
 7204TIP3   OH221554   1.196   2.386   6.842  0.3597  0.2639  0.2918
 7204TIP3    H121555   1.278   2.428   6.868  1.4069 -0.6866 -1.4107
 7204TIP3    H221556   1.132   2.458   6.841  1.5275  1.3151  0.0848
 7205TIP3   OH221557   7.450   1.845   5.831  0.0440  0.2966 -0.6879
 7205TIP3    H121558   7.374   1.796   5.799  0.5205 -0.9727  0.0908
 7205TIP3    H221559   7.444   1.930   5.787 -2.4104  0.6053  0.1836
 7206TIP3   OH221560   1.227   5.781   5.592  0.0107  0.0256  0.2736
 7206TIP3    H121561   1.152   5.737   5.633 -0.3882 -0.6844 -1.2004
 7206TIP3    H221562   1.297   5.715   5.594 -0.9081 -1.1219 -2.9354
 7207TIP3   OH221563   0.942   1.663   5.708  0.1747  0.1882 -0.3331
 7207TIP3    H121564   1.037   1.667   5.699  0.3518 -2.2180 -0.0145
 7207TIP3    H221565   0.914   1.607   5.635 -0.6937 -1.2469  1.0582
 7208TIP3   OH221566   0.170   0.962   5.935  0.3295  0.9887 -0.3820
 7208TIP3    H121567   0.106   1.017   5.890  1.0771  1.5287 -0.8042
 7208TIP3    H221568   0.136   0.873   5.927 -0.3858  1.2765 -0.5604
 7209TIP3   OH221569   2.164   3.823   4.365  0.1678  0.6987  0.1332
 7209TIP3    H121570   2.247   3.775   4.362  0.2229  0.8408 -0.6946
 7209TIP3    H221571   2.113   3.786   4.293  0.0423  1.5854 -0.2332
 7210TIP3   OH221572   7.712   3.433   4.439 -0.5326  0.5721  0.3852
 7210TIP3    H121573   7.767   3.398   4.509  0.3648 -0.2847 -0.7343
 7210TIP3    H221574   7.653   3.361   4.417  0.3012  0.2660 -0.8723
 7211TIP3   OH221575   0.213   3.468   4.497 -0.1604  0.3375 -0.4061
 7211TIP3    H121576   0.168   3.481   4.413 -0.3816 -0.2803 -0.3834
 7211TIP3    H221577   0.144   3.440   4.557  0.2527 -0.6553 -0.3782
 7212TIP3   OH221578   0.342   4.608   4.073 -0.1726  0.2601  0.7610
 7212TIP3    H121579   0.336   4.514   4.090  0.2992 -0.0117 -0.4588
 7212TIP3    H221580   0.355   4.648   4.159  0.3504 -0.8563  1.2109
 7213TIP3   OH221581   0.811   3.167   3.889  0.8898  0.2468 -0.5162
 7213TIP3    H121582   0.887   3.202   3.841  0.0117  0.4404 -1.7953
 7213TIP3    H221583   0.776   3.242   3.937 -1.0550  1.2458 -3.3369
 7214TIP3   OH221584   1.121   4.611   4.204 -0.7357 -0.1147  0.0343
 7214TIP3    H121585   1.042   4.607   4.150 -2.0066  0.0641  1.8389
 7214TIP3    H221586   1.181   4.668   4.155 -1.8509  0.0473 -1.1683
 7215TIP3   OH221587   2.684   2.410   4.219 -0.5672 -0.1769 -0.2560
 7215TIP3    H121588   2.760   2.353   4.228 -0.3397  0.0370 -0.8476
 7215TIP3    H221589   2.669   2.444   4.308 -0.1332 -0.4205 -0.0904
 7216TIP3   OH221590   6.600   0.505   0.257 -0.3266  0.4459 -0.3660
 7216TIP3    H121591   6.634   0.594   0.258  1.5368 -0.2224 -0.8813
 7216TIP3    H221592   6.608   0.478   0.165  0.1294 -0.6016 -0.0253
 7217TIP3   OH221593   2.901   4.818   3.873 -0.0264  0.4060 -0.0168
 7217TIP3    H121594   2.841   4.891   3.889  0.9510  1.0591  0.7313
 7217TIP3    H221595   2.898   4.766   3.953 -1.2850 -0.8067 -0.8284
 7218TIP3   OH221596   8.236   5.360   4.592 -0.2681  0.5835 -0.7408
 7218TIP3    H121597   8.205   5.423   4.657 -2.5834  1.0138 -2.1903
 7218TIP3    H221598   8.324   5.391   4.569  0.9520 -0.0210  2.6779
 7219TIP3   OH221599   0.563   4.110   4.714 -0.8145  0.1600 -0.1247
 7219TIP3    H121600   0.519   4.173   4.771 -0.7036  1.0977 -1.0649
 7219TIP3    H221601   0.513   4.029   4.726 -0.6487  0.2667  1.4755
 7220TIP3   OH221602   0.551   5.178   4.521 -0.5045  0.7749  0.4799
 7220TIP3    H121603   0.513   5.233   4.451 -1.7966  1.8580  1.9906
 7220TIP3    H221604   0.628   5.226   4.550  1.4618 -0.8867 -1.8418
 7221TIP3   OH221605   7.662   2.904   6.677 -0.6140  0.3017 -0.3555
 7221TIP3    H121606   7.588   2.862   6.721  0.3267  0.9327  1.9333
 7221TIP3    H221607   7.701   2.835   6.623 -0.7548 -1.0066  1.1721
 7222TIP3   OH221608   6.896   5.357   5.486 -0.5218 -0.2341  0.0487
 7222TIP3    H121609   6.890   5.284   5.424  1.5357  0.1553 -0.6648
 7222TIP3    H221610   6.812   5.402   5.479 -1.0700 -1.3800 -0.9647
 7223TIP3   OH221611   4.169   6.965   0.004  0.3378  0.4689 -0.4405
 7223TIP3    H121612   4.241   6.926   0.054 -0.1974  1.5844  1.2204
 7223TIP3    H221613   4.090   6.933   0.048 -0.1433  0.9033 -0.9903
 7224TIP3   OH221614   0.055   2.728   5.875 -0.2231  0.0868 -0.3884
 7224TIP3    H121615  -0.031   2.769   5.869 -0.0164  1.0261  2.2788
 7224TIP3    H221616   0.116   2.797   5.848 -0.1932 -0.0520 -0.6778
 7225TIP3   OH221617   2.343   5.018   5.402  0.0331 -0.5762 -0.1024
 7225TIP3    H121618   2.267   5.041   5.348  0.0198  2.5209  1.1425
 7225TIP3    H221619   2.410   5.082   5.378  1.1208 -1.1780  1.2424
 7226TIP3   OH221620   7.240   3.049   3.374 -0.2060  0.1224 -0.3452
 7226TIP3    H121621   7.262   3.119   3.436  0.6443  0.2556 -0.7937
 7226TIP3    H221622   7.304   3.059   3.303 -1.2268  0.0234 -1.2885
 7227TIP3   OH221623   6.988   0.511   0.754  0.4371  0.0815 -0.0550
 7227TIP3    H121624   6.968   0.451   0.682  2.3659 -1.1847  0.4261
 7227TIP3    H221625   6.907   0.515   0.805 -0.8861  0.8246 -2.1490
 7228TIP3   OH221626   0.920   5.075   4.082  0.1577  0.1098 -0.9104
 7228TIP3    H121627   1.001   5.033   4.112  1.4258  1.9596 -1.6373
 7228TIP3    H221628   0.859   5.065   4.154  1.2933 -0.6041 -0.0272
 7229TIP3   OH221629   7.267   4.161   5.535 -0.6488 -0.0457  0.3783
 7229TIP3    H121630   7.330   4.207   5.591  1.5235 -1.1257 -1.1253
 7229TIP3    H221631   7.300   4.071   5.530 -2.0722 -0.5195 -0.7880
 7230TIP3   OH221632   7.366   5.468   2.398 -0.1185  0.1432 -0.2234
 7230TIP3    H121633   7.414   5.540   2.357 -0.0649 -0.0741 -0.5432
 7230TIP3    H221634   7.278   5.503   2.413 -0.0873  0.2807 -0.3656
 7231TIP3   OH221635   7.733   4.813   5.820 -0.0628 -0.4149  0.2708
 7231TIP3    H121636   7.807   4.770   5.777  1.1572  0.8613  1.0629
 7231TIP3    H221637   7.760   4.904   5.830 -1.3576 -0.1343  1.4311
 7232TIP3   OH221638   0.748   2.525   5.265 -0.0351  0.3319  0.5788
 7232TIP3    H121639   0.692   2.540   5.189  0.8259  0.1501 -0.1009
 7232TIP3    H221640   0.689   2.531   5.340 -1.1870 -1.0242 -0.1908
 7233TIP3   OH221641   1.447   2.730   4.470  0.2055 -0.1267 -0.0118
 7233TIP3    H121642   1.448   2.789   4.546 -2.5077 -0.7085  0.5114
 7233TIP3    H221643   1.363   2.746   4.428  0.1072 -2.4733 -0.7811
 7234TIP3   OH221644   7.619   3.634   4.283  0.6680 -0.1229  0.2352
 7234TIP3    H121645   7.627   3.566   4.350  1.4452  0.7989  1.0931
 7234TIP3    H221646   7.676   3.704   4.313 -0.4788  1.1069 -0.4064
 7235TIP3   OH221647   1.810   7.070   3.325  0.1168  0.2022  0.2661
 7235TIP3    H121648   1.817   7.121   3.405  2.5380 -0.3849  0.4860
 7235TIP3    H221649   1.855   6.988   3.345  1.4391  0.3447 -1.9244
 7236TIP3   OH221650   8.144   2.677   6.101  0.4497  0.0644 -0.6788
 7236TIP3    H121651   8.152   2.644   6.012  1.1069 -0.0809 -0.5632
 7236TIP3    H221652   8.180   2.765   6.098 -0.6995  0.5350 -0.8395
 7237TIP3   OH221653   2.134   2.041   4.732  0.2014 -0.3673  0.3480
 7237TIP3    H121654   2.092   2.124   4.755 -0.5184 -0.7487  0.4324
 7237TIP3    H221655   2.121   2.033   4.638  1.7083  0.4018  0.0686
 7238TIP3   OH221656   8.142   5.703   3.046  0.1829 -0.5287  0.2391
 7238TIP3    H121657   8.104   5.685   2.960 -0.4803  0.1615  0.3842
 7238TIP3    H221658   8.153   5.798   3.048 -0.6746 -0.4422  1.2716
 7239TIP3   OH221659   0.142   3.716   4.718  0.2727  0.1029  0.2021
 7239TIP3    H121660   0.173   3.691   4.631 -1.0837  1.5013 -0.7241
 7239TIP3    H221661   0.047   3.717   4.710  0.1962  3.9907  0.5642
 7240TIP3   OH221662   1.731   2.573   3.162 -0.2706  0.4529  0.5184
 7240TIP3    H121663   1.738   2.587   3.256  0.1809 -0.5001  0.6250
 7240TIP3    H221664   1.801   2.512   3.140 -1.2247 -0.4209 -0.2017
 7241TIP3   OH221665   2.042   4.295   5.576  0.3917 -0.2442  0.7745
 7241TIP3    H121666   1.952   4.264   5.586 -0.0238  0.0031 -1.9368
 7241TIP3    H221667   2.096   4.219   5.595 -0.4580 -1.1044 -0.2373
 7242TIP3   OH221668   0.350   3.752   4.059  0.6468  0.2374  0.2209
 7242TIP3    H121669   0.429   3.749   4.112 -0.0534 -1.9883  1.1863
 7242TIP3    H221670   0.362   3.684   3.993  1.3130  2.6687 -2.3097
 7243TIP3   OH221671   8.205   5.853   3.356 -0.5166  0.5712 -0.0514
 7243TIP3    H121672   8.143   5.921   3.384 -0.2791  0.2786  1.2115
 7243TIP3    H221673   8.223   5.874   3.264 -1.9567  1.0643 -0.2395
 7244TIP3   OH221674   1.562   4.394   5.649 -0.2591  0.0983  0.0666
 7244TIP3    H121675   1.539   4.338   5.724  1.1022  1.2978  1.4161
 7244TIP3    H221676   1.483   4.397   5.596 -1.2992 -0.6450  1.5451
 7245TIP3   OH221677   6.788   7.750   3.732 -0.3023 -0.3758  0.0073
 7245TIP3    H121678   6.803   7.656   3.734  2.2706  0.0251  0.1127
 7245TIP3    H221679   6.694   7.759   3.750 -0.8911 -2.9805 -1.4974
 7246TIP3   OH221680   7.339   0.171   0.997  0.7146  0.0207 -0.3293
 7246TIP3    H121681   7.371   0.103   1.057 -0.2074  0.8826  1.1503
 7246TIP3    H221682   7.410   0.181   0.934  2.5990  0.5388  1.8066
 7247TIP3   OH221683   0.637   4.694   3.769  0.6011  1.0146 -0.1572
 7247TIP3    H121684   0.544   4.711   3.753  0.9132  2.3228 -0.6584
 7247TIP3    H221685   0.639   4.608   3.812 -0.8387  1.0276 -0.0429
 7248TIP3   OH221686   5.646   7.537   2.100  0.5942 -0.5991  0.3572
 7248TIP3    H121687   5.646   7.587   2.019 -0.6945 -1.6561 -0.3166
 7248TIP3    H221688   5.731   7.492   2.101  0.7168 -0.3797 -0.2776
 7249TIP3   OH221689   2.057   3.269   5.336 -0.1240  0.0210 -0.1666
 7249TIP3    H121690   2.076   3.245   5.246  0.5634  1.0155 -0.2910
 7249TIP3    H221691   2.137   3.312   5.367 -0.7537  0.6891  0.5613
 7250TIP3   OH221692   0.246   2.678   6.293 -0.5031 -0.1990 -0.2302
 7250TIP3    H121693   0.164   2.696   6.247 -0.5472 -0.2765 -0.1808
 7250TIP3    H221694   0.304   2.642   6.225  0.2155  1.9036 -0.7627
 7251TIP3   OH221695   0.886   4.194   6.120  0.3875 -0.4372  0.1205
 7251TIP3    H121696   0.927   4.108   6.119  2.7149  0.6619 -1.9601
 7251TIP3    H221697   0.792   4.175   6.112  0.5827 -2.8533  2.5580
 7252TIP3   OH221698   7.194   4.339   3.971 -0.2315 -0.2904  0.0375
 7252TIP3    H121699   7.229   4.411   3.920  0.1722 -1.1806 -0.9513
 7252TIP3    H221700   7.237   4.347   4.056  0.7767 -0.1387 -0.4885
 7253TIP3   OH221701   1.002   2.915   6.836 -0.1591  0.1515  0.7789
 7253TIP3    H121702   1.025   3.002   6.866  2.1336 -0.6488  1.4383
 7253TIP3    H221703   0.923   2.892   6.884  0.4752  0.9975  2.2440
 7254TIP3   OH221704   1.811   1.657   6.875 -0.2518  0.2258  0.0009
 7254TIP3    H121705   1.813   1.664   6.970  1.1278  0.0546 -0.0109
 7254TIP3    H221706   1.891   1.608   6.852 -0.9336 -0.3751 -1.1824
 7255TIP3   OH221707   1.143   4.975   3.710  0.2228  0.1912  0.2348
 7255TIP3    H121708   1.095   4.984   3.628 -0.8660 -0.5437  0.7680
 7255TIP3    H221709   1.207   5.045   3.709  1.8288 -1.2474 -2.3112
 7256TIP3   OH221710   7.832   2.285   4.809  0.1937 -0.1476  0.1157
 7256TIP3    H121711   7.823   2.354   4.744 -0.7534 -0.3282  0.0489
 7256TIP3    H221712   7.910   2.308   4.859  3.1514 -1.9348 -3.4245
 7257TIP3   OH221713   1.574   3.014   3.836 -0.5123 -0.3077 -0.3726
 7257TIP3    H121714   1.542   2.941   3.783 -0.2172 -0.4918 -0.2954
 7257TIP3    H221715   1.626   2.972   3.905 -2.6808 -0.2676  1.3658
 7258TIP3   OH221716   1.933   4.115   6.597  0.5476  0.0424 -0.1743
 7258TIP3    H121717   1.874   4.114   6.672  1.7246  2.7881  0.8585
 7258TIP3    H221718   1.899   4.048   6.539 -2.3802  0.1585  1.3129
 7259TIP3   OH221719   0.328   2.293   4.864 -0.0775  0.1008 -0.3349
 7259TIP3    H121720   0.332   2.387   4.845 -0.6702  0.1921 -0.0318
 7259TIP3    H221721   0.250   2.262   4.819 -1.5570  0.3448  1.9851
 7260TIP3   OH221722   0.490   3.960   3.094  0.2785  0.4744 -0.7750
 7260TIP3    H121723   0.495   4.043   3.047  4.8408  0.2676 -0.8656
 7260TIP3    H221724   0.500   3.893   3.027  0.7999  0.0091 -0.2474
 7261TIP3   OH221725   0.911   4.498   6.914 -0.0265  0.1006 -0.3015
 7261TIP3    H121726   0.816   4.495   6.924  0.0479  0.5660  0.6030
 7261TIP3    H221727   0.931   4.427   6.853 -0.8580 -0.5703  0.1950
 7262TIP3   OH221728   2.330   4.097   5.341 -0.2863  0.3575 -0.8214
 7262TIP3    H121729   2.291   4.014   5.314  0.6425 -0.4707  0.3176
 7262TIP3    H221730   2.264   4.163   5.320 -1.0798 -0.6754 -1.6289
 7263TIP3   OH221731   7.455   0.491   1.785 -0.1279  0.5991  0.1185
 7263TIP3    H121732   7.411   0.576   1.782  1.0613  1.2206  0.1035
 7263TIP3    H221733   7.546   0.510   1.762 -0.2688 -0.9794 -1.8975
 7264TIP3   OH221734   0.208   3.162   6.135  0.0253  0.6240 -0.4001
 7264TIP3    H121735   0.128   3.143   6.086  0.8983 -0.1138 -1.5697
 7264TIP3    H221736   0.179   3.169   6.226 -1.3116  0.0439 -0.7663
 7265TIP3   OH221737   0.146   3.741   5.887  0.1959  0.1094  0.1911
 7265TIP3    H121738   0.234   3.714   5.914  0.3654 -0.9853 -1.3400
 7265TIP3    H221739   0.160   3.823   5.839  0.3686 -0.0318  0.0001
 7266TIP3   OH221740   4.568   7.113   0.146 -0.1989 -0.2564 -0.2029
 7266TIP3    H121741   4.610   7.087   0.228 -0.9075 -0.9607 -0.0614
 7266TIP3    H221742   4.640   7.119   0.083  0.4098  0.7652  0.5858
 7267TIP3   OH221743   0.424   3.658   4.503  0.3059  0.1965 -0.4364
 7267TIP3    H121744   0.360   3.591   4.527 -2.4600  2.8697 -0.1057
 7267TIP3    H221745   0.410   3.673   4.410  0.3484  0.9037 -0.3326
 7268TIP3   OH221746   7.818   0.729   0.548  0.0895 -0.3910 -0.6367
 7268TIP3    H121747   7.808   0.725   0.643 -0.4687 -0.3100 -0.6921
 7268TIP3    H221748   7.754   0.667   0.514  1.2891 -1.5129 -0.9099
 7269TIP3   OH221749   2.142   3.980   5.024  0.8712  0.2347 -0.0584
 7269TIP3    H121750   2.170   4.004   5.112  1.2449  2.2043 -0.6869
 7269TIP3    H221751   2.058   3.935   5.037  1.5694 -0.6833  1.3864
 7270TIP3   OH221752   7.985   5.155   6.385  0.5173  0.4090  0.3760
 7270TIP3    H121753   7.942   5.100   6.451 -2.9595  1.4242 -0.9237
 7270TIP3    H221754   8.059   5.194   6.431  1.8358 -3.6279  1.9246
 7271TIP3   OH221755   2.049   1.085   3.431  0.0868 -0.1015  0.0056
 7271TIP3    H121756   2.067   1.033   3.509 -2.4944 -0.3360  0.4835
 7271TIP3    H221757   2.076   1.029   3.358 -0.4495 -1.1885  0.6170
 7272TIP3   OH221758   4.773   7.668   0.047  0.4478 -0.0391  0.7998
 7272TIP3    H121759   4.852   7.721   0.045  0.5273 -0.1970 -0.2865
 7272TIP3    H221760   4.801   7.581   0.021 -0.4051  0.3495 -1.5387
 7273TIP3   OH221761   0.825   2.681   4.751 -0.0307  0.2527  0.2680
 7273TIP3    H121762   0.755   2.617   4.739 -0.6105  0.8958  0.1936
 7273TIP3    H221763   0.810   2.718   4.838  0.2696  0.3269  0.2899
 7274TIP3   OH221764   0.455   3.840   5.546  0.3892 -0.5052 -0.5773
 7274TIP3    H121765   0.518   3.808   5.611  0.7267 -0.7348 -1.0105
 7274TIP3    H221766   0.372   3.801   5.571  0.5043 -0.5332 -0.2393
 7275TIP3   OH221767   1.447   3.464   5.572  0.3678 -0.2432 -0.2304
 7275TIP3    H121768   1.476   3.555   5.572 -0.2958 -0.0231 -1.6072
 7275TIP3    H221769   1.424   3.446   5.664  0.4401  0.9993  0.0314
 7276TIP3   OH221770   2.248   4.458   5.060 -0.1387  0.0192 -0.2883
 7276TIP3    H121771   2.197   4.421   5.132 -1.1323 -1.2479 -1.6139
 7276TIP3    H221772   2.236   4.553   5.068  0.2372 -0.0591  1.5355
 7277TIP3   OH221773   2.845   5.756   4.593 -0.3147 -0.1825 -0.0567
 7277TIP3    H121774   2.760   5.734   4.630 -0.6389  1.2618  0.1153
 7277TIP3    H221775   2.833   5.748   4.498 -0.4058 -0.7769  0.0062
 7278TIP3   OH221776   8.125   3.445   3.388 -0.1424 -0.3544 -0.8641
 7278TIP3    H121777   8.121   3.410   3.299  0.5495  0.1473 -1.0951
 7278TIP3    H221778   8.042   3.418   3.428 -0.7756  0.0493 -1.8892
 7279TIP3   OH221779   0.566   4.571   4.940 -0.0049 -0.2766 -0.0844
 7279TIP3    H121780   0.560   4.630   4.865 -2.0637  0.2499  0.4741
 7279TIP3    H221781   0.657   4.542   4.940  0.5051  1.2454 -1.6234
 7280TIP3   OH221782   1.424   5.323   5.558  0.2982 -0.0681 -0.7506
 7280TIP3    H121783   1.357   5.277   5.507  0.9684 -1.0543 -0.7407
 7280TIP3    H221784   1.499   5.264   5.559 -0.2938 -0.8783  2.8542
 7281TIP3   OH221785   1.204   3.839   5.037  0.7367 -0.5798  0.3989
 7281TIP3    H121786   1.128   3.868   5.086  0.6043  1.2683 -0.8446
 7281TIP3    H221787   1.169   3.781   4.970  0.7182 -1.6812  1.3475
 7282TIP3   OH221788   1.767   3.019   5.439 -0.2553 -0.5916 -0.5468
 7282TIP3    H121789   1.697   3.078   5.466 -0.0163  0.5470 -2.3807
 7282TIP3    H221790   1.844   3.048   5.489 -0.3181  0.1688 -0.8931
 7283TIP3   OH221791   1.268   5.911   4.286 -0.1472  0.5916 -0.2055
 7283TIP3    H121792   1.183   5.922   4.329  0.5931 -0.2119  1.5144
 7283TIP3    H221793   1.293   5.821   4.306  1.6462  1.1827  0.3030
 7284TIP3   OH221794   0.005   4.372   6.682  0.5693  0.0237 -0.1228
 7284TIP3    H121795  -0.045   4.344   6.759  0.2741  1.2583  0.1478
 7284TIP3    H221796   0.082   4.316   6.682  0.9198  0.4724  1.4863
 7285TIP3   OH221797   3.869   3.409   6.406  0.0813 -0.5828  0.0013
 7285TIP3    H121798   3.822   3.360   6.474  0.6343 -0.8216  0.2082
 7285TIP3    H221799   3.960   3.408   6.434 -0.1626  2.2189  1.0003
 7286TIP3   OH221800   1.279   2.135   4.840 -0.0726 -0.3101 -0.6449
 7286TIP3    H121801   1.282   2.226   4.811  3.6176 -0.6996 -1.6305
 7286TIP3    H221802   1.268   2.084   4.759  1.1351 -0.9171 -0.4285
 7287TIP3   OH221803   0.583   1.201   4.162 -0.1792  0.2574  0.0626
 7287TIP3    H121804   0.607   1.243   4.079 -0.3097  1.1487  0.4674
 7287TIP3    H221805   0.652   1.227   4.223  0.4285 -1.1740  0.0043
 7288TIP3   OH221806   1.658   3.507   6.686 -0.2503  0.2375 -0.2457
 7288TIP3    H121807   1.670   3.549   6.771  1.6354  1.0828 -0.9048
 7288TIP3    H221808   1.706   3.425   6.692  0.9045  0.8522 -0.8786
 7289TIP3   OH221809   7.382   0.793   1.161  0.0883 -0.4556 -0.2329
 7289TIP3    H121810   7.336   0.859   1.211 -1.9021 -0.4408 -2.0079
 7289TIP3    H221811   7.457   0.769   1.215 -0.3761  1.6487  1.3975
 7290TIP3   OH221812   5.887   0.147   2.399  0.0079  0.1424 -0.0629
 7290TIP3    H121813   5.855   0.127   2.311  0.3780 -0.0260 -0.1610
 7290TIP3    H221814   5.909   0.241   2.395 -0.9594  0.3798  0.1588
 7291TIP3   OH221815   2.535   4.676   6.014  0.3094 -0.3722  0.2342
 7291TIP3    H121816   2.447   4.676   5.977  0.2820  0.7471  0.2751
 7291TIP3    H221817   2.536   4.601   6.074 -0.2453 -1.0629 -0.6016
 7292TIP3   OH221818   0.287   4.336   4.642  0.1259 -0.0870  0.1189
 7292TIP3    H121819   0.338   4.326   4.723 -0.3020 -0.2931  0.3658
 7292TIP3    H221820   0.326   4.274   4.581  1.0930  0.7798 -0.1526
 7293TIP3   OH221821   5.369   1.783   3.951  0.4377 -0.0649 -0.1477
 7293TIP3    H121822   5.388   1.876   3.938 -0.1386  0.2265  0.9859
 7293TIP3    H221823   5.398   1.765   4.041 -2.5879 -0.1177  0.8701
 7294TIP3   OH221824   8.082   0.647   0.524 -0.1997 -0.2837  0.2238
 7294TIP3    H121825   7.988   0.668   0.529 -0.2093 -0.6315  1.7268
 7294TIP3    H221826   8.084   0.553   0.504 -0.1583 -0.0888 -0.7273
 7295TIP3   OH221827   0.800   5.011   5.437  0.6570 -0.3032  0.6676
 7295TIP3    H121828   0.862   5.073   5.474  1.7457 -0.3334 -1.0313
 7295TIP3    H221829   0.826   4.926   5.472  1.5374 -0.3047  0.0253
 7296TIP3   OH221830   7.458   1.736   5.546  0.5327 -0.0654  0.0397
 7296TIP3    H121831   7.398   1.664   5.564 -0.4291  0.2736 -1.7539
 7296TIP3    H221832   7.545   1.702   5.569  0.1116 -1.8516 -1.0082
 7297TIP3   OH221833   8.447   2.503   4.537 -0.6794  0.3854 -1.0347
 7297TIP3    H121834   8.389   2.492   4.462  0.6032 -0.9336 -1.8581
 7297TIP3    H221835   8.431   2.425   4.591  1.8691 -1.1029 -2.3549
 7298TIP3   OH221836   7.895   7.874   5.183  0.7354  0.3181 -0.5089
 7298TIP3    H121837   7.962   7.858   5.250 -0.1773 -0.7952  0.1684
 7298TIP3    H221838   7.863   7.962   5.201 -0.3852 -0.4230  1.3591
 7299TIP3   OH221839   0.821   4.752   5.808  0.4217  0.1380 -0.3689
 7299TIP3    H121840   0.848   4.762   5.717 -0.7020 -0.1779 -0.7432
 7299TIP3    H221841   0.789   4.662   5.814  2.0582 -0.3900  0.7608
 7300TIP3   OH221842   6.480   1.602   0.339 -0.2060 -0.8311 -0.2475
 7300TIP3    H121843   6.408   1.663   0.356 -0.9567 -1.8708  0.4132
 7300TIP3    H221844   6.554   1.657   0.316 -1.0470  0.2926 -0.3084
 7301TIP3   OH221845   0.726   3.562   5.116 -0.7200  0.4816  0.1248
 7301TIP3    H121846   0.775   3.552   5.197  0.9007  1.7955 -0.6705
 7301TIP3    H221847   0.767   3.499   5.056 -1.1894  0.2964 -0.0002
 7302TIP3   OH221848   3.915   6.443   1.508 -0.3427 -0.1307  0.5295
 7302TIP3    H121849   3.865   6.458   1.428  1.0127 -0.8991 -0.4781
 7302TIP3    H221850   3.930   6.349   1.510  1.1745  0.1078  0.7477
 7303TIP3   OH221851   6.124   1.276  -0.001 -0.3329 -0.3023 -0.5635
 7303TIP3    H121852   6.098   1.262   0.090 -1.0762  0.0565 -0.7246
 7303TIP3    H221853   6.084   1.359  -0.026  1.1514  0.3886 -0.7394
 7304TIP3   OH221854   5.445   0.884   0.409 -0.8909  0.3791 -0.4815
 7304TIP3    H121855   5.465   0.844   0.494 -1.0565 -0.0437 -0.6377
 7304TIP3    H221856   5.370   0.941   0.427 -0.0050  1.4233 -0.0451
 7305TIP3   OH221857   1.617   2.953   5.771  0.8758  0.6755 -0.3907
 7305TIP3    H121858   1.626   2.880   5.832  1.2924  0.8893 -0.1966
 7305TIP3    H221859   1.525   2.950   5.744  0.3486  1.4383  1.3176
 7306TIP3   OH221860   0.290   1.624   0.667  0.1435 -0.0019  0.1368
 7306TIP3    H121861   0.291   1.682   0.743  1.1859 -1.6357  1.3995
 7306TIP3    H221862   0.356   1.660   0.608  0.0764  0.6761  0.4759
 7307TIP3   OH221863   7.526   3.272   5.549 -0.0097 -0.3994  0.4500
 7307TIP3    H121864   7.451   3.297   5.495 -0.8524 -2.0013  0.8344
 7307TIP3    H221865   7.488   3.229   5.625  1.3080 -1.6094  0.4610
 7308TIP3   OH221866   7.661   5.582   4.485  0.3170  0.2871 -0.5266
 7308TIP3    H121867   7.603   5.507   4.499 -0.1245  0.9210  1.2156
 7308TIP3    H221868   7.747   5.544   4.472  0.0235 -0.5417 -0.0773
 7309TIP3   OH221869   1.104   1.208   5.422 -0.3739  0.2368  0.2902
 7309TIP3    H121870   1.173   1.242   5.365 -0.6549  0.7315  0.2424
 7309TIP3    H221871   1.149   1.147   5.480 -0.2510 -1.0900 -1.1439
 7310TIP3   OH221872   0.127   1.796   5.093 -0.3749 -0.3453  0.0340
 7310TIP3    H121873   0.164   1.829   5.175 -0.0311  0.0868 -0.2902
 7310TIP3    H221874   0.179   1.838   5.025  0.1377 -1.6430 -0.3917
 7311TIP3   OH221875   3.755   2.506   6.280 -0.2189 -0.1544 -0.4081
 7311TIP3    H121876   3.846   2.536   6.288 -0.3859  0.1856  0.2512
 7311TIP3    H221877   3.716   2.564   6.214  0.5825 -1.5906 -2.1979
 7312TIP3   OH221878   1.875   1.059   5.313 -0.3340  0.1735 -0.1466
 7312TIP3    H121879   1.940   1.098   5.255  1.3174 -0.0556  1.4939
 7312TIP3    H221880   1.800   1.039   5.256 -0.5915  4.1288 -1.3664
 7313TIP3   OH221881   0.592   1.880   6.718 -0.2946 -0.1087 -0.0229
 7313TIP3    H121882   0.649   1.803   6.712 -1.2756 -0.7461 -1.2991
 7313TIP3    H221883   0.573   1.888   6.811  0.6986 -0.7544  0.2510
 7314TIP3   OH221884   1.968   2.700   4.647  0.4063 -0.3105 -0.3498
 7314TIP3    H121885   1.915   2.770   4.611 -0.1438 -0.5814 -0.0709
 7314TIP3    H221886   2.048   2.701   4.595  0.0402 -0.0381 -0.9083
 7315TIP3   OH221887   1.764   1.154   4.583 -0.0014 -0.1319  0.4547
 7315TIP3    H121888   1.744   1.080   4.640 -0.8572 -0.4473 -0.2352
 7315TIP3    H221889   1.727   1.129   4.498  0.3199  0.7838  0.0428
 7316TIP3   OH221890   2.280   3.150   5.181 -0.4749  0.9621 -0.3383
 7316TIP3    H121891   2.285   3.072   5.237  0.5821  1.1356 -0.1784
 7316TIP3    H221892   2.239   3.118   5.100  1.7904 -0.2519 -1.0703
 7317TIP3   OH221893   0.507   2.108   4.655 -0.5026 -0.1261 -0.1416
 7317TIP3    H121894   0.417   2.079   4.661 -0.6785  0.9267  2.7793
 7317TIP3    H221895   0.502   2.189   4.603 -1.3877  0.5711  1.0187
 7318TIP3   OH221896   0.010   3.099   3.996  0.3798  0.1373 -0.2389
 7318TIP3    H121897   0.002   3.004   3.993  0.0976  0.1945 -1.3996
 7318TIP3    H221898   0.040   3.124   3.908 -0.6223  1.2109 -0.2877
 7319TIP3   OH221899   7.617   4.276   3.123  0.1696  0.8105 -0.3668
 7319TIP3    H121900   7.544   4.326   3.087 -0.0378 -0.7214 -2.1350
 7319TIP3    H221901   7.614   4.192   3.078  1.0968 -0.4752  1.8604
 7320TIP3   OH221902   6.393   0.786   0.805 -1.3810 -0.0603 -0.0193
 7320TIP3    H121903   6.359   0.873   0.780 -0.1380  0.1328 -1.0845
 7320TIP3    H221904   6.377   0.731   0.728 -0.8746 -0.4164  0.1302
 7321TIP3   OH221905   0.809   3.083   4.184 -0.3969 -0.1518 -0.3027
 7321TIP3    H121906   0.777   3.111   4.098 -0.7383 -2.4111 -0.9414
 7321TIP3    H221907   0.904   3.092   4.179 -0.4063 -0.4396 -0.9765
 7322TIP3   OH221908   5.223   0.083   0.427  0.6018  0.2566  0.2945
 7322TIP3    H121909   5.139   0.124   0.448  0.7254  0.1055  1.0921
 7322TIP3    H221910   5.210   0.045   0.340 -1.1722 -2.4491  1.6577
 7323TIP3   OH221911   1.458   3.172   5.145 -0.4471  0.3138  0.0470
 7323TIP3    H121912   1.523   3.118   5.189 -0.0233 -0.7479 -1.8299
 7323TIP3    H221913   1.374   3.130   5.165 -0.2429 -0.2517 -0.2645
 7324TIP3   OH221914   3.503   3.768   4.660  0.4284  0.0159  0.3997
 7324TIP3    H121915   3.494   3.712   4.737 -1.4867 -0.2505  0.0075
 7324TIP3    H221916   3.584   3.816   4.675  0.5103 -0.6374  2.1895
 7325TIP3   OH221917   5.944   7.628   1.492  0.6528 -0.2017  0.1283
 7325TIP3    H121918   5.853   7.638   1.521  0.5233  1.9281 -0.8625
 7325TIP3    H221919   5.936   7.583   1.408  0.7139 -2.2536  1.1925
 7326TIP3   OH221920   1.529   6.297   4.463  0.1667  0.5453  0.4893
 7326TIP3    H121921   1.587   6.280   4.537 -1.9633  1.2358  2.3760
 7326TIP3    H221922   1.532   6.392   4.452 -0.1164  0.5241  0.2184
 7327TIP3   OH221923   6.164   0.611   0.366 -0.0735 -0.3683 -0.0338
 7327TIP3    H121924   6.173   0.516   0.360 -0.3636 -0.5395  1.9073
 7327TIP3    H221925   6.086   0.624   0.419  0.7895  0.9510  0.9245
 7328TIP3   OH221926   0.750   5.470   5.917 -0.0243 -0.3113  0.0320
 7328TIP3    H121927   0.668   5.519   5.905 -0.5670 -0.9108  1.1824
 7328TIP3    H221928   0.775   5.486   6.008  2.2566  1.5117 -0.8773
 7329TIP3   OH221929   3.334   4.882   4.487  0.2485  0.7944  0.0764
 7329TIP3    H121930   3.396   4.933   4.434 -1.0212  1.5921 -0.6565
 7329TIP3    H221931   3.371   4.794   4.488  0.6248  0.9111 -1.6367
 7330TIP3   OH221932   2.735   2.838   5.939  0.1547 -0.2819 -0.7352
 7330TIP3    H121933   2.740   2.863   6.031 -0.8080  0.7813 -0.9681
 7330TIP3    H221934   2.799   2.766   5.931  1.7542  0.9736  0.2946
 7331TIP3   OH221935   1.990   3.684   5.378  0.2621 -0.3897  0.1331
 7331TIP3    H121936   1.905   3.696   5.334 -0.4388 -0.8095  1.3295
 7331TIP3    H221937   1.991   3.592   5.402  0.9095 -0.3007  0.4387
 7332TIP3   OH221938   1.480   3.262   3.756  0.1889 -0.2876  0.4381
 7332TIP3    H121939   1.537   3.337   3.774  0.1458 -0.4264  1.1666
 7332TIP3    H221940   1.525   3.187   3.795  0.1259 -0.6076 -0.0966
 7333TIP3   OH221941   8.200   4.651   3.095 -0.4353 -0.1866  0.5261
 7333TIP3    H121942   8.151   4.600   3.030 -2.3208  0.0421  1.7572
 7333TIP3    H221943   8.204   4.739   3.059  2.4200 -0.9910 -1.3833
 7334TIP3   OH221944   4.504   3.732   4.841  0.4887 -0.0290 -0.1966
 7334TIP3    H121945   4.563   3.711   4.913  0.8423  0.6844 -0.2743
 7334TIP3    H221946   4.459   3.812   4.869 -0.4868 -0.5988 -0.1084
 7335TIP3   OH221947   2.421   4.638   4.578 -0.3704 -0.1190 -0.1857
 7335TIP3    H121948   2.381   4.712   4.532 -1.7079 -0.1912  0.8402
 7335TIP3    H221949   2.488   4.677   4.634 -0.0484  0.1511 -0.7462
 7336TIP3   OH221950   0.707   5.027   4.260  0.9360  0.0189  0.1984
 7336TIP3    H121951   0.732   5.071   4.342 -0.8034  2.0364 -0.3092
 7336TIP3    H221952   0.612   5.036   4.257  0.8556 -1.2464 -1.3912
 7337TIP3   OH221953   0.941   5.555   6.456  0.0432 -0.1472 -0.5354
 7337TIP3    H121954   0.930   5.650   6.459 -0.2166 -0.1636 -0.9357
 7337TIP3    H221955   0.868   5.524   6.402  0.1357 -0.5723 -0.4163
 7338TIP3   OH221956   4.035   4.141   3.737  0.1295 -0.8538  0.1327
 7338TIP3    H121957   4.041   4.114   3.829  0.8945 -0.0168  0.3304
 7338TIP3    H221958   3.966   4.207   3.735  1.8607  1.0290  0.5732
 7339TIP3   OH221959   3.385   3.684   5.476  0.2108  0.2547 -0.3073
 7339TIP3    H121960   3.334   3.625   5.532 -0.8212  1.1391 -0.2704
 7339TIP3    H221961   3.449   3.724   5.535 -0.2355  0.4579  0.0476
 7340TIP3   OH221962   3.851   5.923   3.919  0.0772  0.6562 -0.0309
 7340TIP3    H121963   3.767   5.880   3.931  0.2321 -0.3477 -2.3665
 7340TIP3    H221964   3.861   5.979   3.997 -1.6064 -1.0421  1.4366
 7341TIP3   OH221965   2.123   5.131   5.760 -0.3284  0.5273  0.1093
 7341TIP3    H121966   2.061   5.167   5.697  0.2186  1.1758 -0.0634
 7341TIP3    H221967   2.104   5.037   5.761  0.5144  0.2991 -2.0133
 7342TIP3   OH221968   3.738   5.133   4.983 -0.2514  0.3632 -0.3577
 7342TIP3    H121969   3.733   5.166   5.073  0.8712  0.4062 -0.3029
 7342TIP3    H221970   3.814   5.075   4.983 -1.1295 -0.8069 -0.9146
 7343TIP3   OH221971   2.632   3.948   5.189  0.4797  0.5905 -0.2885
 7343TIP3    H121972   2.563   3.884   5.174  0.6702  0.4354 -0.5042
 7343TIP3    H221973   2.699   3.900   5.238 -0.3664  1.2252  1.5526
 7344TIP3   OH221974   3.823   4.775   4.879  0.2264  0.2771 -0.0941
 7344TIP3    H121975   3.908   4.796   4.839 -0.6090  1.3045 -1.3904
 7344TIP3    H221976   3.820   4.680   4.878  1.9646  0.1677  1.2891
 7345TIP3   OH221977   3.410   4.349   3.012  0.1289 -0.6934  0.1495
 7345TIP3    H121978   3.358   4.313   3.083 -0.0579 -2.4516 -0.8491
 7345TIP3    H221979   3.415   4.278   2.947  1.6934  0.2920 -0.8471
 7346TIP3   OH221980   1.448   2.861   4.698 -0.3566 -0.3024  0.7378
 7346TIP3    H121981   1.539   2.886   4.708 -0.1503 -0.3335 -0.9255
 7346TIP3    H221982   1.403   2.904   4.771  0.9533 -0.1997  1.4965
 7347TIP3   OH221983   2.713   3.817   4.117 -0.0791 -0.2620 -0.3575
 7347TIP3    H121984   2.630   3.846   4.156  1.4209 -1.4695  4.0239
 7347TIP3    H221985   2.773   3.890   4.132  0.4460 -0.6102 -0.7616
 7348TIP3   OH221986   1.472   3.496   4.433 -0.1638 -0.0254  0.1100
 7348TIP3    H121987   1.380   3.495   4.458 -0.3385  1.7469 -0.4524
 7348TIP3    H221988   1.508   3.576   4.473  1.6025 -1.6434  1.9348
 7349TIP3   OH221989   3.629   5.598   4.966  0.0534 -0.5955  0.0899
 7349TIP3    H121990   3.563   5.666   4.978 -0.2391 -1.0726  1.3169
 7349TIP3    H221991   3.594   5.522   5.013  0.2321 -1.6946 -1.4933
 7350TIP3   OH221992   1.191   6.639   5.742  0.0865  0.4468  0.1672
 7350TIP3    H121993   1.111   6.662   5.694  0.3326  1.3093  0.1695
 7350TIP3    H221994   1.165   6.645   5.834 -0.0315  0.0508  0.1615
 7351TIP3   OH221995   1.961   2.259   4.249 -0.1307  0.1811 -0.0456
 7351TIP3    H121996   1.870   2.287   4.239 -0.0645 -0.2671 -2.1934
 7351TIP3    H221997   2.012   2.328   4.206  0.4108 -0.3976 -0.3488
 7352TIP3   OH221998   1.835   5.224   4.486  0.2675 -0.1270 -0.3056
 7352TIP3    H121999   1.760   5.165   4.492 -0.5039  0.6748 -1.9507
 7352TIP3    H222000   1.798   5.309   4.460  1.5334  0.7280  0.5980
 7353TIP3   OH222001   4.990   5.864   4.507 -0.5146  0.1655  0.4801
 7353TIP3    H122002   4.928   5.792   4.510 -0.4610  0.1360  1.1973
 7353TIP3    H222003   4.937   5.942   4.525 -0.2646  0.0773  1.6449
 7354TIP3   OH222004   4.386   7.115   5.710 -0.2245  0.3664 -0.2524
 7354TIP3    H122005   4.421   7.135   5.623  0.3722  0.9677  0.1227
 7354TIP3    H222006   4.417   7.027   5.729 -1.3052 -0.2218 -1.1218
 7355TIP3   OH222007   1.876   4.684   3.844  0.1300 -0.4622 -0.6249
 7355TIP3    H122008   1.793   4.674   3.890  0.3208 -1.5686 -0.5177
 7355TIP3    H222009   1.867   4.766   3.795  0.0192  0.8948  1.6033
 7356TIP3   OH222010   3.717   3.905   3.975 -0.3760  0.2723  0.1774
 7356TIP3    H122011   3.725   3.838   4.043 -2.3283  1.0079  1.1829
 7356TIP3    H222012   3.780   3.973   4.000 -0.3697  0.0761  0.6946
 7357TIP3   OH222013   2.708   4.431   4.613  0.2797  0.0290  0.4450
 7357TIP3    H122014   2.617   4.404   4.628 -0.6764  2.9179  0.2606
 7357TIP3    H222015   2.713   4.519   4.651  2.0481  1.3014 -2.5417
 7358TIP3   OH222016   3.820   6.772   5.145  0.5138  0.1300  0.4307
 7358TIP3    H122017   3.825   6.687   5.099  0.3234  0.8466 -0.9539
 7358TIP3    H222018   3.785   6.832   5.079 -2.5704  0.5737  2.4200
 7359TIP3   OH222019   4.000   5.136   4.381 -0.2333 -0.6370 -0.3996
 7359TIP3    H122020   4.012   5.041   4.382 -1.1828 -0.7763 -1.7492
 7359TIP3    H222021   3.907   5.149   4.361 -0.1966  0.5688  0.1676
 7360TIP3   OH222022   2.543   4.986   2.324 -0.2195 -0.5836  0.5887
 7360TIP3    H122023   2.553   4.964   2.231 -1.6065  2.1810 -0.2774
 7360TIP3    H222024   2.605   4.928   2.369  2.0498 -0.5067 -2.2503
 7361TIP3   OH222025   1.960   5.314   3.217 -0.1699  0.4362 -0.4546
 7361TIP3    H122026   1.963   5.353   3.130  0.0239 -1.4338 -1.2886
 7361TIP3    H222027   2.041   5.265   3.224 -0.0882  0.7406  0.8755
 7362TIP3   OH222028   2.412   4.981   6.815  0.1795 -0.0904  0.1865
 7362TIP3    H122029   2.424   4.949   6.905  0.5860 -1.6501 -0.4092
 7362TIP3    H222030   2.379   4.905   6.767  0.7838  0.5001 -1.1791
 7363TIP3   OH222031   3.892   3.233   5.618  0.5258 -0.5560  0.0653
 7363TIP3    H122032   3.840   3.205   5.542  1.6611 -0.8544 -0.6185
 7363TIP3    H222033   3.831   3.231   5.691 -0.4043 -0.9859 -0.7091
 7364TIP3   OH222034   0.315   8.018   0.125 -0.6382  0.5258  0.3039
 7364TIP3    H122035   0.367   7.990   0.201 -0.4153 -0.6632 -0.2695
 7364TIP3    H222036   0.345   7.961   0.054 -0.8124  1.6625 -0.6854
 7365TIP3   OH222037   1.756   4.891   4.328 -0.0578  0.3249  0.1044
 7365TIP3    H122038   1.719   4.814   4.371  0.8195  0.9461  2.0504
 7365TIP3    H222039   1.833   4.858   4.282 -0.7697 -0.2832 -0.6512
 7366TIP3   OH222040   0.226   5.039   3.768 -0.3605 -0.0132  0.0794
 7366TIP3    H122041   0.297   5.054   3.830  0.9619 -3.1489 -0.5960
 7366TIP3    H222042   0.169   4.976   3.811 -1.9586  1.3259 -0.0129
 7367TIP3   OH222043   2.553   4.316   4.293  0.0469 -0.4029 -0.1364
 7367TIP3    H122044   2.646   4.337   4.291  0.1532 -0.5382  1.9270
 7367TIP3    H222045   2.534   4.277   4.208  1.5281  1.0554 -1.1486
 7368TIP3   OH222046   3.163   5.445   5.783  0.1770  0.0469 -0.4577
 7368TIP3    H122047   3.148   5.359   5.822 -2.1869  1.3294  1.5563
 7368TIP3    H222048   3.099   5.503   5.825  2.6165  3.1020 -0.7657
 7369TIP3   OH222049   2.817   3.058   5.347 -0.1323 -0.5416  0.2407
 7369TIP3    H122050   2.860   3.028   5.427 -0.2642  0.6117  0.7678
 7369TIP3    H222051   2.889   3.083   5.289 -0.0503  0.3350  0.7018
 7370TIP3   OH222052   0.603   4.385   6.368  0.2837  0.1851  0.2934
 7370TIP3    H122053   0.694   4.394   6.340 -0.1492  0.5377 -0.9942
 7370TIP3    H222054   0.573   4.475   6.381 -0.1409  0.0928 -0.0800
 7371TIP3   OH222055   2.572   2.143   3.940 -0.4185 -0.2854 -0.1415
 7371TIP3    H122056   2.480   2.124   3.959 -0.0604 -1.4932  0.4605
 7371TIP3    H222057   2.579   2.238   3.945 -1.5762 -0.2075  0.0858
 7372TIP3   OH222058   2.391   1.916   4.816 -0.1367  0.8551 -0.0904
 7372TIP3    H122059   2.357   1.858   4.884  0.1199 -0.0951 -0.7563
 7372TIP3    H222060   2.322   1.981   4.802 -0.1889  1.0570  1.0691
 7373TIP3   OH222061   2.098   3.657   4.913  0.5939 -0.7158 -0.4243
 7373TIP3    H122062   2.066   3.633   4.826 -1.1091 -0.4672  0.1151
 7373TIP3    H222063   2.036   3.722   4.945  0.8699 -1.2240  1.2170
 7374TIP3   OH222064   4.261   4.970   2.344  0.4819 -0.1500 -0.2755
 7374TIP3    H122065   4.285   4.993   2.254  0.6245  2.0627  0.3028
 7374TIP3    H222066   4.174   4.932   2.337 -0.4930  2.1703 -1.0941
 7375TIP3   OH222067   1.545   2.181   4.928  0.0454 -0.5480 -0.1310
 7375TIP3    H122068   1.548   2.247   4.997 -1.3939 -0.3025 -0.2831
 7375TIP3    H222069   1.452   2.172   4.907  0.4122 -0.9915 -1.6723
 7376TIP3   OH222070   0.313   4.357   5.720  0.4553 -0.0815 -0.2738
 7376TIP3    H122071   0.270   4.432   5.681  1.9581  1.0409  0.1708
 7376TIP3    H222072   0.273   4.281   5.677  0.9991  1.0559 -2.9024
 7377TIP3   OH222073   1.987   3.583   4.691 -0.4618  0.2108  0.7171
 7377TIP3    H122074   1.986   3.594   4.596  0.2736 -1.7281  0.4677
 7377TIP3    H222075   1.911   3.529   4.710 -0.0830 -0.1821  1.1176
 7378TIP3   OH222076   2.628   3.611   4.355  0.2752  0.2788 -0.2879
 7378TIP3    H122077   2.716   3.630   4.321 -0.0040 -0.8503 -1.7058
 7378TIP3    H222078   2.643   3.549   4.427  0.6476  0.1930 -0.4374
 7379TIP3   OH222079   1.924   1.394   4.297 -0.5657  0.4402 -0.1937
 7379TIP3    H122080   1.877   1.412   4.379 -2.4137 -2.1397 -0.6070
 7379TIP3    H222081   1.889   1.458   4.235  0.1095  1.7528  0.7485
 7380TIP3   OH222082   0.593   3.140   4.983 -0.2400 -0.4231  0.3212
 7380TIP3    H122083   0.547   3.114   4.904  0.9928  0.9120 -0.8597
 7380TIP3    H222084   0.524   3.154   5.048 -1.2466 -1.5885 -0.4875
 7381TIP3   OH222085   8.460   3.387   4.591 -0.3734  0.2269  0.3022
 7381TIP3    H122086   8.404   3.430   4.526  0.5201 -1.7484 -1.8430
 7381TIP3    H222087   8.401   3.364   4.662 -1.7093  0.9608 -0.5498
 7382TIP3   OH222088   0.380   3.531   3.921  0.3942  0.2658  0.5038
 7382TIP3    H122089   0.434   3.452   3.930 -0.3839 -0.1764  1.4026
 7382TIP3    H222090   0.293   3.498   3.900 -0.9707  0.5695  5.1086
 7383TIP3   OH222091   2.069   2.080   4.448 -0.0442 -0.4872  0.0203
 7383TIP3    H122092   2.148   2.070   4.395 -0.1863 -1.8231  0.0279
 7383TIP3    H222093   2.006   2.121   4.389  0.3924 -0.2185 -0.2586
 7384TIP3   OH222094   2.118   4.312   5.295 -0.5204 -0.4488  0.0382
 7384TIP3    H122095   2.110   4.344   5.385 -0.2083 -0.3656  0.0385
 7384TIP3    H222096   2.029   4.313   5.261 -0.6765 -0.7043  0.4241
 7385TIP3   OH222097   0.609   3.365   5.827 -0.0428 -0.0764 -0.5122
 7385TIP3    H122098   0.672   3.434   5.850 -0.6850  0.7269 -1.1270
 7385TIP3    H222099   0.530   3.412   5.801 -1.1829 -1.1022  1.0251
 7386TIP3   OH222100   3.110   5.694   2.944  0.0243  0.1552 -0.0463
 7386TIP3    H122101   3.171   5.745   2.891  0.0605  0.1574 -0.0039
 7386TIP3    H222102   3.167   5.634   2.993 -0.1566 -1.1764 -1.4513
 7387TIP3   OH222103   3.139   3.164   3.920  0.2388  0.1003 -0.4682
 7387TIP3    H122104   3.218   3.204   3.883  1.3916 -1.5233  0.2024
 7387TIP3    H222105   3.169   3.082   3.959 -2.0712 -1.4461 -1.8118
 7388TIP3   OH222106   3.189   4.456   5.427  0.5824 -0.0354  0.1237
 7388TIP3    H122107   3.219   4.507   5.351  0.2285 -1.5584 -1.0542
 7388TIP3    H222108   3.231   4.498   5.502  1.3863  1.1488 -0.9768
 7389TIP3   OH222109   4.206   5.972   4.656  0.2675 -0.0165  0.3155
 7389TIP3    H122110   4.182   6.037   4.589  1.2903 -0.2713 -0.3089
 7389TIP3    H222111   4.202   6.021   4.738  1.7212  1.0581 -0.2184
 7390TIP3   OH222112   0.703   2.334   5.626  0.0343  0.3101 -0.4576
 7390TIP3    H122113   0.640   2.401   5.651  0.5103  0.8702 -0.7632
 7390TIP3    H222114   0.788   2.377   5.631  0.4069 -0.4614  0.0244
 7391TIP3   OH222115   8.145   2.166   4.382  0.1735 -0.0662 -0.0111
 7391TIP3    H122116   8.055   2.182   4.355  0.3839 -0.9061 -1.2546
 7391TIP3    H222117   8.149   2.071   4.395  1.0553 -0.1183 -0.6266
 7392TIP3   OH222118   1.966   4.198   4.417  0.2321 -0.2030  0.1324
 7392TIP3    H122119   2.045   4.193   4.470 -0.1190  0.0358  0.6793
 7392TIP3    H222120   1.934   4.287   4.428 -0.0772 -0.2758 -0.1409
 7393TIP3   OH222121   4.191   4.401   4.644  0.4333  0.1697  0.2821
 7393TIP3    H122122   4.112   4.375   4.691  1.2296 -1.0493  0.9705
 7393TIP3    H222123   4.205   4.331   4.580  1.8582 -0.4642  1.2598
 7394TIP3   OH222124   5.574   2.957   4.406  0.1072 -0.3156 -0.3837
 7394TIP3    H122125   5.513   2.883   4.413  1.6885 -1.6945 -0.7988
 7394TIP3    H222126   5.569   2.983   4.314  0.5735 -0.8172 -0.5542
 7395TIP3   OH222127   5.342   5.149   3.188 -0.3223  0.0097  0.0998
 7395TIP3    H122128   5.351   5.235   3.230 -0.1816  0.6888 -1.2666
 7395TIP3    H222129   5.412   5.148   3.123 -1.0599 -0.6582 -0.6905
 7396TIP3   OH222130   2.180   3.161   3.933 -0.8288 -0.2909 -0.1420
 7396TIP3    H122131   2.256   3.219   3.939  0.5684 -1.8247 -2.3039
 7396TIP3    H222132   2.115   3.212   3.884 -1.1914  0.9754  1.5965
 7397TIP3   OH222133   1.381   4.223   4.554 -0.3729  0.5547  0.0044
 7397TIP3    H122134   1.468   4.230   4.513 -0.0456 -0.4210  0.5118
 7397TIP3    H222135   1.322   4.199   4.483  0.1376 -0.8023  0.0179
 7398TIP3   OH222136   2.120   3.941   6.322 -0.1585  0.4147  0.4235
 7398TIP3    H122137   2.070   4.022   6.317  0.5196  0.8608  0.7815
 7398TIP3    H222138   2.184   3.948   6.251 -1.2860 -0.6404 -0.7341
 7399TIP3   OH222139   2.877   3.797   4.458  0.0213  0.3109  0.7922
 7399TIP3    H122140   2.935   3.849   4.514 -0.1615  0.3728  0.9230
 7399TIP3    H222141   2.907   3.707   4.469  1.6156  0.5921 -0.9472
 7400TIP3   OH222142   3.626   3.797   6.491  0.2623 -0.2577 -0.2422
 7400TIP3    H122143   3.673   3.780   6.410  0.9973 -0.2974  0.1836
 7400TIP3    H222144   3.648   3.723   6.548 -2.0381 -1.4168 -0.7703
 7401TIP3   OH222145   1.783   6.654   4.747 -0.5999 -0.2264  0.2091
 7401TIP3    H122146   1.722   6.711   4.793 -0.3968  0.6648 -0.6148
 7401TIP3    H222147   1.861   6.707   4.734 -0.9923 -0.1506 -1.9855
 7402TIP3   OH222148   3.744   4.634   3.527  0.2515 -0.3228 -0.0987
 7402TIP3    H122149   3.811   4.577   3.490  0.6033 -0.1760  0.3072
 7402TIP3    H222150   3.739   4.709   3.467 -0.8147 -1.1664 -1.1054
 7403TIP3   OH222151   3.149   6.038   4.256 -0.2970  0.2891 -0.3691
 7403TIP3    H122152   3.109   6.125   4.266 -0.2359  0.3173 -0.3690
 7403TIP3    H222153   3.201   6.027   4.336  0.0411  0.4319 -0.5695
 7404TIP3   OH222154   1.057   2.333   4.684 -0.0548 -0.4296  0.1629
 7404TIP3    H122155   1.025   2.289   4.762  0.9343 -0.3869  0.5952
 7404TIP3    H222156   1.145   2.363   4.707 -1.0906  2.7042  0.2434
 7405TIP3   OH222157   0.775   3.343   4.942 -0.5589  0.2473  0.2804
 7405TIP3    H122158   0.709   3.278   4.967  0.0213 -1.2836 -2.0518
 7405TIP3    H222159   0.761   3.357   4.849  1.4581  1.0039  0.0790
 7406TIP3   OH222160   1.569   4.855   4.828 -0.5455  0.3844  0.0345
 7406TIP3    H122161   1.507   4.822   4.893 -0.0862 -0.6030 -0.0191
 7406TIP3    H222162   1.625   4.916   4.877  2.0605 -2.9661  1.4520
 7407TIP3   OH222163   2.143   4.492   4.535  0.1444  0.0995  0.1490
 7407TIP3    H122164   2.092   4.529   4.462  0.3351 -0.5175 -0.3060
 7407TIP3    H222165   2.228   4.472   4.497  0.3961  0.1946  0.6604
 7408TIP3   OH222166   2.051   4.886   4.045  0.4029 -0.3955 -0.1460
 7408TIP3    H122167   2.060   4.791   4.044  4.3025 -0.2023 -5.9978
 7408TIP3    H222168   2.137   4.918   4.074  0.3054  1.3303 -1.6862
 7409TIP3   OH222169   3.469   4.724   4.091 -0.4218 -0.1349 -0.2351
 7409TIP3    H122170   3.519   4.687   4.019  2.6280  3.1908  0.0323
 7409TIP3    H222171   3.471   4.658   4.160 -0.1483 -1.7924 -1.8140
 7410TIP3   OH222172   3.412   5.362   3.722 -0.1593  0.2004 -0.1216
 7410TIP3    H122173   3.435   5.453   3.702  0.1056  0.1775  0.0842
 7410TIP3    H222174   3.316   5.361   3.721 -0.2011  0.8452  1.5425
 7411TIP3   OH222175   2.548   4.433   5.483 -0.0387 -0.4404 -0.5114
 7411TIP3    H122176   2.634   4.437   5.526  0.2834  0.9565 -1.2616
 7411TIP3    H222177   2.487   4.409   5.553  0.9170 -1.1610  0.0859
 7412TIP3   OH222178   3.586   5.334   4.462  0.1270  0.0392  0.1399
 7412TIP3    H122179   3.661   5.392   4.446  0.8006 -0.9527 -0.3061
 7412TIP3    H222180   3.516   5.372   4.409 -0.1337  1.8242  1.6769
 7413TIP3   OH222181   8.315   3.218   5.575  0.1134  0.1518 -0.0232
 7413TIP3    H122182   8.372   3.291   5.600 -0.4727  0.5769  0.1121
 7413TIP3    H222183   8.244   3.221   5.640  1.0739 -1.7431  1.1659
 7414TIP3   OH222184   0.283   4.920   6.585  0.9292 -0.2257  0.0736
 7414TIP3    H122185   0.243   4.991   6.634 -1.6798 -2.3204  1.1387
 7414TIP3    H222186   0.330   4.869   6.652  4.2288  1.3618 -0.9368
 7415TIP3   OH222187   1.091   6.047   5.699  0.4053 -0.2479 -0.2246
 7415TIP3    H122188   1.007   6.082   5.669 -0.3032 -2.2351 -0.6542
 7415TIP3    H222189   1.112   6.100   5.776 -0.7636  0.9107 -0.6706
 7416TIP3   OH222190   2.953   3.559   3.069 -0.5540  0.2509 -0.5662
 7416TIP3    H122191   2.885   3.623   3.045 -1.3677  0.5091  2.2359
 7416TIP3    H222192   3.035   3.599   3.040 -1.3006  1.3264 -1.2567
 7417TIP3   OH222193   0.613   3.009   5.556 -0.0852  0.1770 -0.1858
 7417TIP3    H122194   0.583   3.057   5.633 -2.2360 -1.6955  0.1936
 7417TIP3    H222195   0.533   2.983   5.512  1.0748 -1.7100 -1.2319
 7418TIP3   OH222196   2.810   2.897   4.700  0.2158  0.5259 -0.2303
 7418TIP3    H122197   2.717   2.875   4.705  0.3707  0.1119  0.9351
 7418TIP3    H222198   2.844   2.877   4.787  1.7830 -1.0272 -1.1809
 7419TIP3   OH222199   2.569   4.619   4.350  0.0372  0.6404 -0.0176
 7419TIP3    H122200   2.651   4.572   4.332 -0.4501  0.1119 -0.9050
 7419TIP3    H222201   2.536   4.579   4.431 -0.8766 -1.2913 -1.2881
 7420TIP3   OH222202   2.914   3.055   4.476 -0.4086  0.7507  0.3407
 7420TIP3    H122203   2.883   3.014   4.557 -0.2901  1.5711  0.8067
 7420TIP3    H222204   2.837   3.100   4.441 -0.7414 -0.5187 -0.5877
 7421TIP3   OH222205   1.275   2.828   4.307  0.1238 -0.4400  0.0110
 7421TIP3    H122206   1.317   2.793   4.228 -2.5774 -0.9013 -1.2838
 7421TIP3    H222207   1.231   2.908   4.278  0.3019  0.1687  1.3759
 7422TIP3   OH222208   3.493   4.975   4.207 -0.2904  0.8983 -0.3487
 7422TIP3    H122209   3.468   4.906   4.145  0.6711  0.2542 -0.0396
 7422TIP3    H222210   3.565   4.936   4.257 -0.8584  1.5206  0.9653
 7423TIP3   OH222211   2.668   3.164   6.380 -0.2254  0.3211  0.7375
 7423TIP3    H122212   2.704   3.144   6.467  1.8641  2.5187  0.4325
 7423TIP3    H222213   2.743   3.196   6.330 -1.0953 -2.1588 -2.3515
 7424TIP3   OH222214   2.460   6.421   4.829 -0.0369 -0.1499  0.2676
 7424TIP3    H122215   2.388   6.477   4.798  0.4761 -0.1459 -0.9371
 7424TIP3    H222216   2.421   6.368   4.898 -0.5273  1.7277  1.4726
 7425TIP3   OH222217   0.137   3.981   2.850 -0.1898  0.6063  0.2277
 7425TIP3    H122218   0.194   4.029   2.791 -0.7094  0.6738 -0.2221
 7425TIP3    H222219   0.140   4.032   2.932  1.5390 -0.1945  0.6885
 7426TIP3   OH222220   2.224   3.484   4.377 -0.7682 -0.1425  0.0638
 7426TIP3    H122221   2.250   3.513   4.289  0.8937  0.9087  0.8947
 7426TIP3    H222222   2.145   3.534   4.396 -1.4878 -0.8236 -1.0723
 7427TIP3   OH222223   1.779   4.247   5.548  0.0288  0.5219  0.1575
 7427TIP3    H122224   1.713   4.307   5.582  0.0341  0.6267 -0.0158
 7427TIP3    H222225   1.751   4.228   5.458  1.4007  2.3050 -0.6844
 7428TIP3   OH222226   2.155   2.043   5.192 -0.0286  0.1586 -0.0230
 7428TIP3    H122227   2.141   1.967   5.135  1.2619 -0.3089  0.2732
 7428TIP3    H222228   2.205   2.104   5.138  1.1429 -0.2611  0.5784
 7429TIP3   OH222229   0.720   5.021   6.102  0.5181 -0.1064 -0.2713
 7429TIP3    H122230   0.810   5.056   6.106  0.0620  1.0778 -0.0391
 7429TIP3    H222231   0.677   5.058   6.179  0.4098 -2.3664  0.7726
 7430TIP3   OH222232   0.380   4.626   5.124 -0.1252 -0.2842 -0.9809
 7430TIP3    H122233   0.353   4.701   5.070  0.3546  0.3224 -0.3944
 7430TIP3    H222234   0.451   4.586   5.074 -0.2634 -0.2433 -1.2132
 7431TIP3   OH222235   8.118   6.273   3.902  0.3463  0.4275 -0.4276
 7431TIP3    H122236   8.185   6.217   3.863  0.5512 -0.0963  0.6709
 7431TIP3    H222237   8.058   6.292   3.830  0.8539 -0.3254 -1.0588
 7432TIP3   OH222238   3.600   6.266   3.613 -0.2927  0.4494 -0.7570
 7432TIP3    H122239   3.669   6.226   3.559  0.1973  0.8721 -0.4527
 7432TIP3    H222240   3.647   6.326   3.671 -0.7073 -0.6233  0.7431
 7433TIP3   OH222241   4.454   4.479   4.698 -0.6039  0.3774  0.4371
 7433TIP3    H122242   4.362   4.463   4.676  0.1602 -0.2128 -2.5661
 7433TIP3    H222243   4.495   4.393   4.690  0.7263  1.1430 -0.9741
 7434TIP3   OH222244   0.287   4.619   1.000  0.3090 -0.0141  0.2098
 7434TIP3    H122245   0.305   4.707   1.031 -0.3029 -0.3405  1.4852
 7434TIP3    H222246   0.246   4.574   1.074 -2.8091 -0.2711 -1.6022
 7435TIP3   OH222247   2.329   5.223   3.426 -0.2088 -0.2299 -0.3860
 7435TIP3    H122248   2.270   5.157   3.387 -2.2097  0.8310  0.7984
 7435TIP3    H222249   2.366   5.269   3.350 -0.7255 -1.0492 -1.1497
 7436TIP3   OH222250   2.302   3.339   4.755 -0.0539 -0.1859  0.4451
 7436TIP3    H122251   2.229   3.336   4.693  0.3632  1.8016 -0.1800
 7436TIP3    H222252   2.375   3.298   4.708 -0.0638  0.2100  0.0833
 7437TIP3   OH222253   1.729   5.971   3.776  0.1058 -0.7674  0.0164
 7437TIP3    H122254   1.789   5.907   3.814 -0.4452 -1.2196  0.1258
 7437TIP3    H222255   1.672   5.920   3.718 -2.8336 -1.0587  2.9781
 7438TIP3   OH222256   5.104   7.314   0.074 -0.0134  0.0130  0.1215
 7438TIP3    H122257   5.128   7.228   0.107 -1.4609 -0.3499  0.2408
 7438TIP3    H222258   5.173   7.372   0.106  0.2749 -0.8732  1.1261
 7439TIP3   OH222259   4.475   5.741   5.005 -0.1961 -0.2077  0.0602
 7439TIP3    H122260   4.387   5.717   4.974 -0.6321  0.4251  0.7996
 7439TIP3    H222261   4.489   5.829   4.971 -0.6061  0.4219  1.4890
 7440TIP3   OH222262   1.729   2.208   5.358  0.0649  0.3947 -0.4529
 7440TIP3    H122263   1.697   2.284   5.407  3.3011 -0.2788  2.8982
 7440TIP3    H222264   1.685   2.133   5.397  0.7791  0.0821 -0.2323
 7441TIP3   OH222265   1.546   3.560   5.174 -0.6954  0.2971  0.0857
 7441TIP3    H122266   1.608   3.540   5.104 -1.2381  0.4226 -0.4361
 7441TIP3    H222267   1.508   3.475   5.198  1.4969 -0.1432  2.1489
 7442TIP3   OH222268   1.508   3.468   0.720 -0.2594 -0.3209  0.4473
 7442TIP3    H122269   1.502   3.564   0.722 -0.3886 -0.2892 -1.0506
 7442TIP3    H222270   1.594   3.450   0.682 -1.0071 -0.7917 -1.0466
 7443TIP3   OH222271   0.729   5.503   3.378  0.0885 -0.1510  0.0199
 7443TIP3    H122272   0.817   5.542   3.374  0.1864 -0.5546 -3.3559
 7443TIP3    H222273   0.670   5.578   3.369  0.0372  0.0750  1.9094
 7444TIP3   OH222274   0.793   2.633   3.825  0.0457  0.1641  0.4650
 7444TIP3    H122275   0.738   2.677   3.760 -1.0080 -0.0176  1.2292
 7444TIP3    H222276   0.813   2.702   3.889  1.2527  0.3964 -0.1457
 7445TIP3   OH222277   2.665   4.209   5.227  0.6772 -0.0620 -0.6249
 7445TIP3    H122278   2.596   4.200   5.293  0.2590  0.5391 -0.9784
 7445TIP3    H222279   2.707   4.123   5.225 -1.2042 -1.0055 -1.6667
 7446TIP3   OH222280   2.481   4.266   4.570 -0.0935  0.3745 -0.0968
 7446TIP3    H122281   2.522   4.287   4.486  1.0532 -0.8773  0.1275
 7446TIP3    H222282   2.522   4.184   4.597 -0.0102  1.0552  1.9658
 7447TIP3   OH222283   0.543   0.212   0.008 -0.0060  0.4811  0.1201
 7447TIP3    H122284   0.529   0.189   0.100  1.3668  0.7535  0.4054
 7447TIP3    H222285   0.606   0.147  -0.023 -1.9109 -0.8213 -1.1782
 7448TIP3   OH222286   2.300   3.367   5.459  0.2677 -0.1323 -0.1203
 7448TIP3    H122287   2.264   3.435   5.517 -0.2534  1.1279 -1.8819
 7448TIP3    H222288   2.379   3.337   5.503 -0.5756  0.1856  1.6702
 7449TIP3   OH222289   2.487   4.998   3.777 -0.3083 -0.2687  0.0039
 7449TIP3    H122290   2.535   5.022   3.698  0.9078 -2.6193  0.0038
 7449TIP3    H222291   2.468   4.905   3.766  0.1941 -0.7027  2.6334
 7450TIP3   OH222292   2.274   2.231   5.015  0.8538  0.4425 -0.5578
 7450TIP3    H122293   2.349   2.177   4.990  1.1620  1.2397 -1.3598
 7450TIP3    H222294   2.312   2.317   5.036  0.0773  1.1225 -1.8684
 7451TIP3   OH222295   0.850   3.879   4.553  0.3558 -0.2703 -0.5171
 7451TIP3    H122296   0.930   3.928   4.535 -0.5545  1.5640  0.2945
 7451TIP3    H222297   0.839   3.886   4.648 -0.4752 -0.9765 -0.5564
 7452TIP3   OH222298   0.212   2.403   4.412 -0.9270 -0.2109  0.6617
 7452TIP3    H122299   0.206   2.345   4.336  1.2160  2.8014 -1.9874
 7452TIP3    H222300   0.121   2.428   4.430 -1.4789 -0.9325 -0.9982
 7453TIP3   OH222301   4.570   4.025   4.989 -0.2013  0.2071 -0.7509
 7453TIP3    H122302   4.480   4.057   4.986  0.0449  1.0269  0.3462
 7453TIP3    H222303   4.575   3.976   5.072  0.3215  0.0278 -0.8879
 7454TIP3   OH222304   2.613   3.908   4.370 -0.0270 -0.9043  0.7969
 7454TIP3    H122305   2.697   3.862   4.368  1.4329  1.6237 -1.8878
 7454TIP3    H222306   2.619   3.966   4.446 -0.3730 -2.4825  2.0405
 7455TIP3   OH222307   3.342   1.574   5.048  0.3344 -0.7506 -0.2223
 7455TIP3    H122308   3.426   1.556   5.005 -0.4866 -0.8474 -1.8146
 7455TIP3    H222309   3.345   1.667   5.068  0.6239 -0.6502 -0.7282
 7456TIP3   OH222310   3.342   3.162   4.870 -0.6846 -0.1251 -0.7085
 7456TIP3    H122311   3.300   3.169   4.956  2.2149  2.3082  0.6115
 7456TIP3    H222312   3.382   3.075   4.870 -2.4444 -0.9626 -0.4739
 7457TIP3   OH222313   2.890   3.869   5.947 -0.2168 -0.1465 -0.1547
 7457TIP3    H122314   2.935   3.894   5.866 -0.7353  1.5323  0.0624
 7457TIP3    H222315   2.896   3.946   6.003  0.7632 -1.5405  1.7068
 7458TIP3   OH222316   1.258   2.686   4.791 -0.3420  0.0011 -0.1456
 7458TIP3    H122317   1.172   2.715   4.758  0.6879  1.7872 -1.3538
 7458TIP3    H222318   1.321   2.739   4.742  1.4718 -1.5084  0.5246
 7459TIP3   OH222319   2.823   2.069   5.633 -0.2938 -0.4582  0.2538
 7459TIP3    H122320   2.795   1.977   5.631 -0.3420 -0.4401  0.1207
 7459TIP3    H222321   2.756   2.116   5.584  0.6419 -0.5966 -1.1991
 7460TIP3   OH222322   8.144   5.389   1.295 -0.7047  0.0926  0.4378
 7460TIP3    H122323   8.193   5.371   1.215 -1.7923  1.1697 -0.4994
 7460TIP3    H222324   8.204   5.367   1.366  1.0101  1.0675 -0.6803
 7461TIP3   OH222325   2.003   2.728   4.147  0.4200 -0.4447 -0.1206
 7461TIP3    H122326   2.028   2.675   4.072 -1.0902  0.2855 -1.1693
 7461TIP3    H222327   2.003   2.818   4.114 -0.3802 -0.1256  0.7130
 7462TIP3   OH222328   1.799   3.374   5.267 -0.3785  0.4099 -0.0740
 7462TIP3    H122329   1.874   3.332   5.310 -1.4188 -1.0902  0.3336
 7462TIP3    H222330   1.837   3.445   5.217  1.4380 -0.8202 -0.5080
 7463TIP3   OH222331   7.178   5.050   2.655 -0.5027 -0.4679 -0.5555
 7463TIP3    H122332   7.252   4.995   2.681 -0.8505 -0.9288 -0.5394
 7463TIP3    H222333   7.185   5.127   2.711 -0.2964 -0.7114 -0.2437
 7464TIP3   OH222334   4.507   2.650   3.324 -0.0333  0.0907 -0.4587
 7464TIP3    H122335   4.485   2.565   3.286  3.4204 -0.8838 -0.4176
 7464TIP3    H222336   4.431   2.671   3.379 -1.0017 -2.9428 -0.5083
 7465TIP3   OH222337   2.584   2.559   5.625  0.7301 -0.2836 -0.0830
 7465TIP3    H122338   2.627   2.509   5.694  2.6488  0.1982 -0.9090
 7465TIP3    H222339   2.589   2.650   5.654 -0.6750 -0.3040  0.2951
 7466TIP3   OH222340   3.230   4.836   4.750 -0.0499  0.0086  0.1404
 7466TIP3    H122341   3.287   4.844   4.674  0.3426  1.6600  0.5829
 7466TIP3    H222342   3.147   4.806   4.715  0.1310  0.7532 -0.9493
 7467TIP3   OH222343   4.751   6.121   3.102 -0.0233 -0.1299  0.1270
 7467TIP3    H122344   4.663   6.137   3.069 -0.7094  2.1951  2.9193
 7467TIP3    H222345   4.751   6.028   3.126 -0.6466 -0.9451 -2.8631
 7468TIP3   OH222346   2.745   4.134   2.732  0.5611 -0.4284  0.0242
 7468TIP3    H122347   2.655   4.103   2.737  0.5916 -0.3290  1.7119
 7468TIP3    H222348   2.798   4.055   2.733  0.4905 -0.4833 -0.8446
 7469TIP3   OH222349   0.940   2.970   6.282  0.3024 -0.1711 -0.3267
 7469TIP3    H122350   0.988   2.976   6.199  0.8870 -0.8505 -0.0377
 7469TIP3    H222351   0.994   2.915   6.338 -0.1100  0.2540  0.5015
 7470TIP3   OH222352   3.244   4.408   6.185  0.5240  0.9317 -0.4809
 7470TIP3    H122353   3.212   4.494   6.211  2.5085  1.0456  1.7840
 7470TIP3    H222354   3.336   4.406   6.214  0.5590 -1.8791 -0.5877
 7471TIP3   OH222355   2.174   4.579   5.666  0.0801 -0.0342  0.2398
 7471TIP3    H122356   2.086   4.579   5.628  0.9303  1.5596 -1.8264
 7471TIP3    H222357   2.223   4.517   5.611  0.3181 -0.8002  1.2916
 7472TIP3   OH222358   1.684   3.228   3.172 -0.0265  0.3973 -0.2650
 7472TIP3    H122359   1.650   3.263   3.090 -0.7142  1.5480  0.5036
 7472TIP3    H222360   1.745   3.295   3.203 -1.5215  1.0333  1.3253
 7473TIP3   OH222361   2.710   3.157   4.341 -0.0520 -0.0943  0.0621
 7473TIP3    H122362   2.623   3.121   4.325 -0.1138  0.2910 -0.4581
 7473TIP3    H222363   2.747   3.172   4.254 -0.1273  1.3293  0.2648
 7474TIP3   OH222364   4.021   1.617   6.209  0.8666 -0.0856 -0.6696
 7474TIP3    H122365   3.945   1.562   6.229  2.6221 -2.7725 -1.1700
 7474TIP3    H222366   4.031   1.609   6.114  1.5022  0.6259 -0.6669
 7475TIP3   OH222367   2.772   5.149   3.700 -0.3579 -0.3201 -0.2691
 7475TIP3    H122368   2.767   5.225   3.759 -1.0427 -0.3208 -0.3251
 7475TIP3    H222369   2.705   5.165   3.634  1.0991  0.1817 -1.6512
 7476TIP3   OH222370   2.017   4.942   6.821 -0.3537 -0.3440 -0.2501
 7476TIP3    H122371   1.958   4.868   6.838 -2.7345  1.8496  1.3941
 7476TIP3    H222372   1.971   4.995   6.757  1.2151 -0.1058 -1.2024
 7477TIP3   OH222373   4.602   3.811   3.814  0.0763  0.2382 -0.2301
 7477TIP3    H122374   4.545   3.848   3.747 -0.2215  0.8694  0.3603
 7477TIP3    H222375   4.580   3.860   3.893  0.0015 -0.9013  0.4687
 7478TIP3   OH222376   3.123   4.365   2.978  0.0704  0.1317  0.3037
 7478TIP3    H122377   3.157   4.307   2.910 -1.9863 -1.8674  0.9201
 7478TIP3    H222378   3.147   4.322   3.060  0.6963  1.4527  0.8224
 7479TIP3   OH222379   2.288   2.015   4.306  0.0672  0.0016 -0.3473
 7479TIP3    H122380   2.310   1.961   4.230 -1.9283 -1.6927  0.2369
 7479TIP3    H222381   2.314   1.962   4.381 -4.3824 -1.4460  0.3264
 7480TIP3   OH222382   0.376   2.560   4.838 -0.0616 -0.0134  0.1765
 7480TIP3    H122383   0.450   2.617   4.859  0.7643 -1.7162  1.9768
 7480TIP3    H222384   0.299   2.614   4.855  0.7191  1.5283 -1.0107
 7481TIP3   OH222385   4.831   0.950   4.238 -0.2984  0.0355 -0.4653
 7481TIP3    H122386   4.853   1.039   4.264 -0.5333  0.3091 -1.2007
 7481TIP3    H222387   4.739   0.940   4.264 -0.0604 -0.2523  0.2965
 7482TIP3   OH222388   2.581   4.475   3.495 -0.0703  0.2378 -0.0007
 7482TIP3    H122389   2.563   4.565   3.468 -1.5072  0.1553  0.6193
 7482TIP3    H222390   2.596   4.481   3.589 -0.4873 -0.2066  0.0983
 7483TIP3   OH222391   1.096   3.781   4.279 -0.3336  0.1745 -0.3166
 7483TIP3    H122392   1.068   3.827   4.199  0.1123  1.0338  0.0222
 7483TIP3    H222393   1.138   3.848   4.332 -1.7694 -0.1047  1.2134
 7484TIP3   OH222394   1.520   5.802   4.170  0.4581 -0.0720 -0.3046
 7484TIP3    H122395   1.584   5.761   4.112 -0.3190  0.1930 -1.3650
 7484TIP3    H222396   1.438   5.755   4.153  0.0560  0.4882  0.0505
 7485TIP3   OH222397   2.930   4.872   5.371  0.6143 -0.4081  0.1783
 7485TIP3    H122398   3.010   4.822   5.354  0.2154 -0.6082 -1.1009
 7485TIP3    H222399   2.929   4.940   5.305 -0.0887 -0.1710  0.4280
 7486TIP3   OH222400   7.402   3.232   4.029 -0.4807 -0.0447 -0.0231
 7486TIP3    H122401   7.407   3.325   4.049 -0.9806 -0.2386  1.0412
 7486TIP3    H222402   7.310   3.215   4.010 -0.0234  0.1279 -2.5594
 7487TIP3   OH222403   1.200   5.244   5.424 -0.3524  0.0488 -0.1236
 7487TIP3    H122404   1.154   5.316   5.382 -1.2689 -0.7527 -0.4917
 7487TIP3    H222405   1.142   5.216   5.494 -0.5925 -1.2248 -0.8387
 7488TIP3   OH222406   2.546   6.017   5.319 -0.1849 -0.1954 -0.1721
 7488TIP3    H122407   2.625   5.971   5.291 -1.2536 -0.6251 -2.6198
 7488TIP3    H222408   2.540   5.999   5.412  2.6866 -0.0215  0.0991
 7489TIP3   OH222409   2.022   2.454   3.997  0.1328 -0.4414  0.9150
 7489TIP3    H122410   2.027   2.524   3.932 -2.6912 -0.0721  1.0310
 7489TIP3    H222411   2.113   2.438   4.022  0.9639  2.0371 -0.3273
 7490TIP3   OH222412   2.838   3.189   4.091  0.1945 -0.2035  0.1526
 7490TIP3    H122413   2.777   3.202   4.018  1.0629 -0.4422 -0.6309
 7490TIP3    H222414   2.915   3.149   4.051 -0.3468 -2.8628  1.6460
 7491TIP3   OH222415   1.183   5.376   5.029  0.7042  0.0918 -0.8103
 7491TIP3    H122416   1.210   5.467   5.014  0.2081  0.1764 -1.2211
 7491TIP3    H222417   1.264   5.328   5.039  0.9803  0.5174 -0.9791
 7492TIP3   OH222418   2.879   6.646   5.226  0.2045  0.6095  0.1799
 7492TIP3    H122419   2.888   6.709   5.298  0.7967 -0.5418  1.1316
 7492TIP3    H222420   2.799   6.672   5.182  0.5122  2.1316  0.4618
 7493TIP3   OH222421   3.422   4.632   4.449  0.4782  0.6193  0.1640
 7493TIP3    H122422   3.428   4.595   4.361  0.4341  2.0670 -0.4641
 7493TIP3    H222423   3.370   4.569   4.498  0.0878  0.0372 -0.9767
 7494TIP3   OH222424   2.716   6.331   6.497  0.1925 -0.8419  0.0395
 7494TIP3    H122425   2.807   6.358   6.485  0.0088 -0.8709 -1.5548
 7494TIP3    H222426   2.666   6.394   6.445 -0.5152 -2.1660 -0.9116
 7495TIP3   OH222427   2.889   4.706   4.918 -1.0946 -0.1597 -0.0503
 7495TIP3    H122428   2.961   4.658   4.876 -2.7870 -1.0264 -2.0648
 7495TIP3    H222429   2.853   4.644   4.981 -1.2381 -0.4015 -0.3652
 7496TIP3   OH222430   1.420   3.750   4.777  0.3695  0.0181 -0.2829
 7496TIP3    H122431   1.352   3.817   4.789 -1.1032 -0.9131 -2.9872
 7496TIP3    H222432   1.392   3.678   4.834 -0.4353  0.0029 -0.6875
 7497TIP3   OH222433   2.493   3.725   5.122 -0.6230  0.0826  0.6404
 7497TIP3    H122434   2.462   3.665   5.053 -1.5426  0.8413  0.3814
 7497TIP3    H222435   2.560   3.675   5.168  0.0714 -0.4007 -0.8672
 7498TIP3   OH222436   8.116   4.435   4.238  0.3439  0.1485 -0.1572
 7498TIP3    H122437   8.183   4.426   4.305 -0.5046  0.0185  0.6798
 7498TIP3    H222438   8.160   4.412   4.156  1.4322  0.4978  0.3277
 7499TIP3   OH222439   2.663   5.175   4.201  0.1183  0.3025  0.2417
 7499TIP3    H122440   2.693   5.211   4.284  2.4738 -4.4405  1.6251
 7499TIP3    H222441   2.598   5.109   4.225  1.2459 -1.5369 -1.5500
 7500TIP3   OH222442   3.010   2.977   4.225  0.2283 -0.3446  0.2869
 7500TIP3    H122443   2.943   2.925   4.180  0.6634 -1.7186  1.2164
 7500TIP3    H222444   2.966   3.010   4.303  0.5128 -0.8848  0.6730
 7501TIP3   OH222445   4.697   3.734   4.451  0.5118 -0.2210 -0.2860
 7501TIP3    H122446   4.687   3.734   4.356  0.6129  0.5689 -0.3018
 7501TIP3    H222447   4.634   3.669   4.482 -0.2768  0.2778 -0.8193
 7502TIP3   OH222448   2.610   2.694   3.830  0.0629 -0.8034 -0.4407
 7502TIP3    H122449   2.520   2.703   3.861 -0.1889  0.5434 -1.5139
 7502TIP3    H222450   2.620   2.762   3.764  1.5299 -1.6657 -1.1443
 7503TIP3   OH222451   2.507   2.810   4.716  0.0623 -0.0270 -0.4778
 7503TIP3    H122452   2.461   2.735   4.752 -0.9813  1.0706  0.5213
 7503TIP3    H222453   2.507   2.874   4.787  3.7848 -0.2415 -0.1647
 7504TIP3   OH222454   0.633   5.457   6.363 -0.2218 -0.3302  0.3508
 7504TIP3    H122455   0.664   5.377   6.403  0.0926 -0.7835 -0.7878
 7504TIP3    H222456   0.539   5.442   6.348  0.1086 -1.0317 -1.1216
 7505TIP3   OH222457   2.401   3.312   4.253 -0.2111  0.5508 -0.0933
 7505TIP3    H122458   2.438   3.232   4.289  0.7883  0.3626 -1.4949
 7505TIP3    H222459   2.324   3.329   4.307  0.8617 -0.0726  1.6796
 7506TIP3   OH222460   5.802   2.272   4.985  0.1090 -0.1232  0.0896
 7506TIP3    H122461   5.852   2.192   4.972  0.5407 -0.2366  2.2328
 7506TIP3    H222462   5.854   2.341   4.944 -0.0045 -0.8548 -1.2950
 7507TIP3   OH222463   1.215   4.115   4.359 -0.3256 -0.4235 -0.0871
 7507TIP3    H122464   1.132   4.092   4.402  0.3050 -1.2609  0.7006
 7507TIP3    H222465   1.189   4.163   4.281 -1.5563 -0.4966  0.2695
 7508TIP3   OH222466   0.943   2.941   3.505 -0.1138 -0.6001 -0.4593
 7508TIP3    H122467   0.873   2.886   3.540 -0.7633 -1.2433 -2.6914
 7508TIP3    H222468   0.964   2.903   3.420  1.4723  0.8611 -0.7619
 7509TIP3   OH222469   5.375   4.413   0.387  0.1736 -0.1061  0.0898
 7509TIP3    H122470   5.350   4.443   0.300  1.3226 -0.0105 -0.2194
 7509TIP3    H222471   5.442   4.346   0.370  0.6209  0.1355  0.9033
 7510TIP3   OH222472   3.231   3.822   4.816  0.3675 -0.3311  0.1541
 7510TIP3    H122473   3.289   3.837   4.741 -0.0639 -1.1167 -0.3438
 7510TIP3    H222474   3.184   3.742   4.794  0.3106 -0.6294  1.3137
 7511TIP3   OH222475   4.817   6.706   4.609 -0.3104  0.2157  0.5314
 7511TIP3    H122476   4.800   6.621   4.567  2.4744 -0.5846  0.9784
 7511TIP3    H222477   4.828   6.767   4.536  1.5356 -0.5811  0.1316
 7512TIP3   OH222478   2.408   2.539   5.954 -0.2209 -0.1884  0.1781
 7512TIP3    H122479   2.371   2.498   5.876  0.6004 -0.1626 -0.2199
 7512TIP3    H222480   2.343   2.520   6.023 -1.3158  0.4442 -0.6658
 7513TIP3   OH222481   4.769   1.401   5.777  0.1034 -0.3159  0.1882
 7513TIP3    H122482   4.854   1.392   5.820  0.6457 -2.0232 -1.1850
 7513TIP3    H222483   4.773   1.487   5.735  0.4720  0.3527  1.5866
 7514TIP3   OH222484   1.990   3.242   4.302 -0.1030  0.1838 -0.0294
 7514TIP3    H122485   1.903   3.216   4.332  0.1759 -0.3398  0.3424
 7514TIP3    H222486   1.982   3.335   4.283 -1.1574 -0.2043 -1.5346
 7515TIP3   OH222487   3.022   3.593   4.996  0.2305  0.3730 -1.0222
 7515TIP3    H122488   3.030   3.569   4.904  0.4218  1.9306 -1.4320
 7515TIP3    H222489   3.112   3.611   5.024  0.1833 -0.1958 -0.5071
 7516TIP3   OH222490   3.468   5.164   5.536  0.5651 -0.1068 -0.2773
 7516TIP3    H122491   3.472   5.070   5.516 -2.3377 -0.4808  0.6225
 7516TIP3    H222492   3.403   5.171   5.606  0.8970  2.5643 -0.1762
 7517TIP3   OH222493   5.056   6.342   5.156  0.0807 -0.0460 -0.1557
 7517TIP3    H122494   5.046   6.274   5.090 -0.0466 -0.1906  0.0139
 7517TIP3    H222495   4.969   6.351   5.195  0.6006 -1.3201  1.3355
 7518TIP3   OH222496   3.862   3.006   5.256 -0.2081  0.4715  0.0273
 7518TIP3    H122497   3.799   2.984   5.188  0.6789 -1.4081 -0.2216
 7518TIP3    H222498   3.816   3.067   5.314 -2.3671 -1.1668  0.0656
 7519TIP3   OH222499   5.287   4.819   3.167  0.2451  0.6535 -0.1633
 7519TIP3    H122500   5.270   4.866   3.085  0.4878  1.6529  0.3443
 7519TIP3    H222501   5.282   4.727   3.144 -0.0245  0.9325 -1.2349
 7520TIP3   OH222502   5.430   1.401   5.433  0.3018 -0.3176 -0.6812
 7520TIP3    H122503   5.462   1.485   5.400  0.3170 -0.3561 -0.7650
 7520TIP3    H222504   5.471   1.336   5.375  1.6116 -0.4841  0.4142
 7521TIP3   OH222505   5.461   4.005   5.557 -0.4272 -0.0877 -0.2608
 7521TIP3    H122506   5.495   3.948   5.627  0.5278  0.5540 -0.1942
 7521TIP3    H222507   5.368   3.985   5.554 -0.5634  0.1737  1.4911
 7522TIP3   OH222508   3.529   2.941   5.309 -1.1324 -0.9227  0.4460
 7522TIP3    H122509   3.563   2.920   5.222 -2.6101  1.0249 -0.6474
 7522TIP3    H222510   3.501   2.857   5.345 -1.8979 -1.5740 -1.5837
 7523TIP3   OH222511   2.756   4.820   3.570 -0.2984 -0.1091  0.6461
 7523TIP3    H122512   2.851   4.809   3.560 -0.4853 -1.0323 -0.1579
 7523TIP3    H222513   2.747   4.875   3.648  0.9259  0.7359  0.2196
 7524TIP3   OH222514   3.852   4.071   4.140 -0.5397  0.2975  0.3006
 7524TIP3    H122515   3.818   4.048   4.226 -1.0791 -0.1825 -0.0398
 7524TIP3    H222516   3.813   4.157   4.121 -0.8819  0.1337  0.2764
 7525TIP3   OH222517   5.115   3.361   3.865  0.6595  0.6771 -0.1372
 7525TIP3    H122518   5.031   3.373   3.819  0.7348  0.2337 -0.3850
 7525TIP3    H222519   5.158   3.290   3.818 -0.6814 -2.0336  2.6024
 7526TIP3   OH222520   4.066   4.029   3.979  0.4404  0.3631  0.6795
 7526TIP3    H122521   4.100   3.943   4.002  0.8030  0.8525  2.0097
 7526TIP3    H222522   3.994   4.045   4.041  0.3345  0.9878  0.4063
 7527TIP3   OH222523   2.940   4.493   3.643  0.4194  0.0296 -0.6737
 7527TIP3    H122524   2.966   4.585   3.652  1.0878 -0.2151  0.0001
 7527TIP3    H222525   2.998   4.446   3.703 -1.2812 -0.5884  0.5264
 7528TIP3   OH222526   4.117   2.664   4.359  0.3076 -0.1193 -0.1459
 7528TIP3    H122527   4.182   2.601   4.327 -0.3420 -1.3340  0.8630
 7528TIP3    H222528   4.050   2.665   4.291 -0.7887 -2.2603  0.8611
 7529TIP3   OH222529   5.107   2.676   4.517 -0.2442  0.1678 -0.5582
 7529TIP3    H122530   5.091   2.766   4.486 -2.4429 -0.0955 -0.2549
 7529TIP3    H222531   5.096   2.681   4.611 -0.6605 -0.4888 -0.5747
 7530TIP3   OH222532   4.531   6.614   4.509  0.1500  0.1461  0.3196
 7530TIP3    H122533   4.535   6.629   4.415  1.0225 -0.9726  0.1783
 7530TIP3    H222534   4.614   6.573   4.531 -0.8196 -1.3764  1.2605
 7531TIP3   OH222535   3.314   5.002   3.692  0.5847  0.3981 -0.2006
 7531TIP3    H122536   3.237   5.039   3.648  0.8009 -0.5817 -1.4367
 7531TIP3    H222537   3.315   4.910   3.666  0.8086 -0.1839  1.7721
 7532TIP3   OH222538   4.273   5.158   3.847  0.1427  0.1479  0.6323
 7532TIP3    H122539   4.182   5.161   3.817  0.0454 -0.3091  0.8814
 7532TIP3    H222540   4.314   5.093   3.790  0.4541  0.7551  0.1489
 7533TIP3   OH222541   5.566   4.244   3.420 -0.0991 -0.2853 -0.0752
 7533TIP3    H122542   5.615   4.233   3.339 -0.8638 -0.0394 -0.5837
 7533TIP3    H222543   5.503   4.172   3.420 -1.8534  1.2046 -1.0120
 7534TIP3   OH222544   4.133   5.476   3.123 -0.1393  0.0880 -0.3023
 7534TIP3    H122545   4.196   5.408   3.143  1.6861  1.0649 -2.5066
 7534TIP3    H222546   4.061   5.430   3.080  0.1999 -0.6997 -0.0419
 7535TIP3   OH222547   4.805   4.486   5.271  0.1429  0.2238 -0.1195
 7535TIP3    H122548   4.752   4.519   5.198 -0.3016  1.1409  0.6055
 7535TIP3    H222549   4.797   4.391   5.266 -1.8557  0.3642  0.1895
 7536TIP3   OH222550   2.675   6.505   1.707  0.0107 -0.3025 -0.8933
 7536TIP3    H122551   2.618   6.428   1.704  0.5664 -0.8021  0.7349
 7536TIP3    H222552   2.617   6.576   1.735 -0.3722 -0.2470 -1.8090
 7537TIP3   OH222553   5.675   4.551   5.705 -0.4043  0.2225  0.1368
 7537TIP3    H122554   5.599   4.493   5.710  0.4327 -0.8019  1.0625
 7537TIP3    H222555   5.641   4.630   5.663 -1.6870 -0.7107 -0.6366
 7538TIP3   OH222556   6.765   4.203   2.355  0.2155 -0.5229 -0.7517
 7538TIP3    H122557   6.674   4.218   2.383 -0.0991  0.0110 -2.0038
 7538TIP3    H222558   6.817   4.266   2.405 -0.2443 -0.0895 -0.8140
 7539TIP3   OH222559   3.289   3.917   5.322 -0.3566 -0.5462 -0.0558
 7539TIP3    H122560   3.354   3.850   5.340  0.2341 -0.4152 -1.5894
 7539TIP3    H222561   3.245   3.932   5.405  1.2074 -1.0322  0.8653
 7540TIP3   OH222562   3.262   5.555   3.189  0.2211  0.1849 -0.2169
 7540TIP3    H122563   3.167   5.554   3.178  0.3187 -0.1032 -1.0508
 7540TIP3    H222564   3.281   5.477   3.242 -0.0649  0.5727  0.4609
 7541TIP3   OH222565   2.709   0.803   3.876 -0.2317  0.3533  0.0834
 7541TIP3    H122566   2.664   0.870   3.825 -1.5024  0.4514  1.2875
 7541TIP3    H222567   2.792   0.788   3.830 -0.4537  1.8997 -0.8316
 7542TIP3   OH222568   4.615   3.290   3.014  0.4303 -0.4807  0.6183
 7542TIP3    H122569   4.703   3.317   2.987 -0.2027  0.7927 -0.2329
 7542TIP3    H222570   4.609   3.318   3.105  0.5292  0.3908  0.3605
 7543TIP3   OH222571   3.623   1.850   4.405 -0.0507 -0.5785  0.1790
 7543TIP3    H122572   3.531   1.839   4.430  0.2160  0.5332  1.6996
 7543TIP3    H222573   3.631   1.942   4.381  0.3864 -0.9599 -1.2087
 7544TIP3   OH222574   4.638   4.548   2.064 -0.6544  0.1807  0.2137
 7544TIP3    H122575   4.670   4.638   2.072  1.4777 -0.3744 -1.5367
 7544TIP3    H222576   4.687   4.511   1.991 -3.5067 -1.5866 -0.8955
 7545TIP3   OH222577   1.929   3.520   5.074  0.1402  0.2282 -0.0874
 7545TIP3    H122578   1.886   3.522   4.989  0.0427  0.3810 -0.0342
 7545TIP3    H222579   2.004   3.579   5.065  0.6128 -0.4001 -0.3261
 7546TIP3   OH222580   3.073   4.212   5.329  0.3689 -0.0364 -0.0876
 7546TIP3    H122581   3.014   4.209   5.404 -0.7694 -1.7465 -1.0203
 7546TIP3    H222582   3.137   4.279   5.352 -1.2982  1.0912  1.4181
 7547TIP3   OH222583   4.660   4.039   6.257  0.0442  0.0191  0.7348
 7547TIP3    H122584   4.715   3.983   6.311 -0.4641 -0.4329  0.7818
 7547TIP3    H222585   4.607   3.978   6.206 -0.4592  0.4590  0.7375
 7548TIP3   OH222586   5.569   7.621   5.440 -0.7912 -0.1938 -0.2955
 7548TIP3    H122587   5.560   7.644   5.532 -0.8112  0.6787 -0.5149
 7548TIP3    H222588   5.588   7.527   5.440 -0.7726 -0.1880  0.5929
 7549TIP3   OH222589   3.396   7.028   4.467  0.1216 -0.7740  0.0462
 7549TIP3    H122590   3.311   7.069   4.481  1.0365  0.9659  0.5668
 7549TIP3    H222591   3.460   7.096   4.486  1.6598 -2.1741  0.0564
 7550TIP3   OH222592   2.822   5.756   5.036 -0.1683 -0.2412 -0.9284
 7550TIP3    H122593   2.882   5.683   5.051 -1.8442 -1.1874  1.6661
 7550TIP3    H222594   2.750   5.717   4.986  0.2495  0.3067 -1.9551
 7551TIP3   OH222595   4.375   5.574   4.203  0.0678  0.1860  0.6964
 7551TIP3    H122596   4.422   5.536   4.278  0.1500 -0.4006  0.3486
 7551TIP3    H222597   4.292   5.603   4.240  0.4489  0.6701  1.1912
 7552TIP3   OH222598   5.066   3.722   3.540 -0.4603  0.4825  1.0186
 7552TIP3    H122599   5.074   3.641   3.490  0.5419  0.8241  0.6175
 7552TIP3    H222600   5.048   3.789   3.474  0.7729  0.9224  1.1125
 7553TIP3   OH222601   6.079   5.294   3.800  0.3323 -0.1416  0.2456
 7553TIP3    H122602   5.995   5.310   3.757  1.0140  0.9834 -0.6914
 7553TIP3    H222603   6.058   5.235   3.872 -1.0629 -0.9018 -0.7550
 7554TIP3   OH222604   5.500   3.737   6.006 -0.5132  0.0245  0.5928
 7554TIP3    H122605   5.543   3.656   6.035 -1.7005 -1.1394 -0.8157
 7554TIP3    H222606   5.497   3.791   6.084  1.3045 -0.8411  1.3079
 7555TIP3   OH222607   4.337   2.929   2.482 -0.6308  0.0217  0.5837
 7555TIP3    H122608   4.280   2.858   2.451 -0.9140  0.0724  0.9776
 7555TIP3    H222609   4.425   2.892   2.482 -0.1875  0.9001 -3.0335
 7556TIP3   OH222610   3.850   2.418   3.932 -0.3879 -0.5515  0.1919
 7556TIP3    H122611   3.940   2.440   3.907 -0.4035  0.1548  0.7670
 7556TIP3    H222612   3.795   2.478   3.881 -0.6176 -2.0046 -1.3307
 7557TIP3   OH222613   3.830   1.598   1.824  0.1662  0.1770 -0.2748
 7557TIP3    H122614   3.872   1.591   1.739  0.1092  2.1504 -0.5005
 7557TIP3    H222615   3.796   1.688   1.826 -0.6057 -0.1377  1.4625
 7558TIP3   OH222616   2.872   3.582   2.513 -0.3419  0.7966  0.2607
 7558TIP3    H122617   2.807   3.521   2.548 -1.0253  0.5813 -1.3813
 7558TIP3    H222618   2.900   3.544   2.430  1.8486  0.9180  0.8899
 7559TIP3   OH222619   4.089   3.255   4.752  0.6685  0.2924  0.7515
 7559TIP3    H122620   4.083   3.350   4.761  2.0489  0.4152  0.3988
 7559TIP3    H222621   4.158   3.228   4.812 -0.8020 -0.6874  2.0397
 7560TIP3   OH222622   5.188   2.953   3.142  0.2254  0.2032  0.2526
 7560TIP3    H122623   5.239   2.974   3.064  1.0319  1.6366  1.1390
 7560TIP3    H222624   5.100   2.935   3.109  1.5075 -3.5946 -1.4510
 7561TIP3   OH222625   6.834   4.130   3.757 -0.0584  0.4898  0.5397
 7561TIP3    H122626   6.913   4.089   3.792 -1.4837 -2.9317 -0.0206
 7561TIP3    H222627   6.767   4.114   3.823 -1.0119  0.6123 -0.3846
 7562TIP3   OH222628   4.506   3.001   5.738  0.4068  0.2249  0.2340
 7562TIP3    H122629   4.439   2.969   5.677  1.5881 -0.1496 -0.8747
 7562TIP3    H222630   4.576   2.936   5.733  1.1606  0.9829  0.8790
 7563TIP3   OH222631   4.916   3.908   4.538  0.1229  0.2347  0.5788
 7563TIP3    H122632   4.869   3.986   4.566 -0.7771  0.5623 -1.6879
 7563TIP3    H222633   4.847   3.847   4.511  0.8875 -0.2443 -0.3569
 7564TIP3   OH222634   4.051   4.519   2.137  0.4480  0.2448  0.5626
 7564TIP3    H122635   4.004   4.506   2.219  1.5850  1.9898  1.5407
 7564TIP3    H222636   4.132   4.470   2.147 -0.1472 -0.8975 -0.1946
 7565TIP3   OH222637   1.793   2.172   4.689  0.0099  0.5964  0.2226
 7565TIP3    H122638   1.835   2.105   4.636  0.7393 -0.2456  1.8497
 7565TIP3    H222639   1.830   2.255   4.657  0.6901  0.0850 -0.3245
 7566TIP3   OH222640   5.354   3.990   2.915 -0.2057  0.4104 -0.1777
 7566TIP3    H122641   5.289   3.964   2.981 -2.4731  0.2181 -2.4405
 7566TIP3    H222642   5.366   4.084   2.931 -0.2781  0.2554  0.8820
 7567TIP3   OH222643   5.643   5.028   3.426  0.2889 -0.2638  0.3972
 7567TIP3    H122644   5.702   4.958   3.455  0.2658 -0.3837  0.1485
 7567TIP3    H222645   5.606   5.062   3.508 -0.2699 -1.0350  0.4699
 7568TIP3   OH222646   3.096   2.812   3.657  0.5551 -0.5785  0.0778
 7568TIP3    H122647   3.034   2.764   3.602 -0.3954 -0.5895  1.1621
 7568TIP3    H222648   3.158   2.850   3.594 -1.8290  1.3134 -1.2143
 7569TIP3   OH222649   5.087   5.347   3.989  0.3562  0.1070  0.4115
 7569TIP3    H122650   5.170   5.303   3.969  0.6213  0.8913 -0.2659
 7569TIP3    H222651   5.088   5.425   3.933 -2.2133 -1.3889 -1.7906
 7570TIP3   OH222652   3.790   4.205   2.890 -0.0850  0.0188  0.0933
 7570TIP3    H122653   3.848   4.206   2.814  1.8909 -1.5636  1.5523
 7570TIP3    H222654   3.815   4.282   2.941 -2.0400  1.6139 -1.2511
 7571TIP3   OH222655   4.920   6.100   3.468 -0.6419 -0.0636  0.8618
 7571TIP3    H122656   4.964   6.141   3.393 -2.2918 -2.3700 -1.4719
 7571TIP3    H222657   4.838   6.148   3.476 -0.6561 -0.0980  0.9181
 7572TIP3   OH222658   3.204   4.317   3.268  0.0215 -0.8040 -0.5444
 7572TIP3    H122659   3.160   4.265   3.336 -1.6021 -0.3340 -1.2210
 7572TIP3    H222660   3.272   4.366   3.316 -1.3809 -0.1501  0.8098
 7573TIP3   OH222661   5.657   4.842   3.177  0.3800  0.3430 -0.2388
 7573TIP3    H122662   5.661   4.928   3.217 -3.3798  0.3166  0.2965
 7573TIP3    H222663   5.611   4.787   3.241  2.5740 -2.0543 -0.6346
 7574TIP3   OH222664   4.013   3.973   5.605 -0.0696 -0.1721  0.0747
 7574TIP3    H122665   4.082   4.010   5.549 -0.8010  1.3848  0.1685
 7574TIP3    H222666   3.952   3.932   5.544 -0.7763  1.3775 -0.2990
 7575TIP3   OH222667   4.130   3.607   5.593 -0.4546  0.4682 -0.2025
 7575TIP3    H122668   4.068   3.568   5.655 -0.8763  0.4584 -0.6226
 7575TIP3    H222669   4.138   3.541   5.524  0.0318  0.4679 -0.1510
 7576TIP3   OH222670   2.883   4.064   0.838  0.3360 -0.2930 -0.5450
 7576TIP3    H122671   2.921   4.152   0.847  0.9655 -0.3101 -2.5951
 7576TIP3    H222672   2.862   4.037   0.927 -1.3848  2.5883 -0.0098
 7577TIP3   OH222673   5.348   4.121   5.239  0.0133  0.4417 -0.2700
 7577TIP3    H122674   5.319   4.212   5.245 -0.7661  0.1576  0.2730
 7577TIP3    H222675   5.318   4.080   5.320  1.4641  0.0089  0.0768
 7578TIP3   OH222676   3.616   3.045   1.434 -0.7418  0.1372 -0.3261
 7578TIP3    H122677   3.680   3.051   1.505 -1.5826 -2.6389  0.7614
 7578TIP3    H222678   3.633   2.959   1.395 -2.9919 -0.1137 -0.8026
 7579TIP3   OH222679   4.923   4.444   2.765 -0.5015  0.6235 -0.2765
 7579TIP3    H122680   5.002   4.439   2.818  1.1526 -0.4200 -2.7963
 7579TIP3    H222681   4.870   4.369   2.793  0.6049 -0.2395 -0.5034
 7580TIP3   OH222682   2.495   2.332   5.267  0.5133 -0.5193  0.1717
 7580TIP3    H122683   2.443   2.396   5.219  0.8562 -0.9551 -0.7987
 7580TIP3    H222684   2.438   2.302   5.338  0.2347  0.6101  0.4319
 7581TIP3   OH222685   5.323   3.764   5.278 -0.3750  0.9076 -0.3531
 7581TIP3    H122686   5.288   3.841   5.323 -1.1320 -1.2011  2.8306
 7581TIP3    H222687   5.406   3.746   5.322 -2.1759 -2.5045  1.8437
 7582TIP3   OH222688   5.337   4.668   5.275 -0.0122 -0.1443 -0.1098
 7582TIP3    H122689   5.247   4.672   5.243 -1.2972  2.3342  3.4976
 7582TIP3    H222690   5.345   4.580   5.313 -1.6141  0.3156  1.3603
 7583TIP3   OH222691   5.736   3.268   2.249 -0.7451 -0.3697  0.1557
 7583TIP3    H122692   5.750   3.353   2.291 -0.5662 -1.1657  1.7355
 7583TIP3    H222693   5.725   3.207   2.321 -0.1451 -1.8221 -0.9487
 7584TIP3   OH222694   6.510   5.145   3.069 -0.2882  0.2166  0.0544
 7584TIP3    H122695   6.545   5.232   3.052 -1.5659  0.8206  0.4632
 7584TIP3    H222696   6.587   5.089   3.075  0.5129  1.1848 -0.9329
 7585TIP3   OH222697   5.326   5.047   4.193  0.2946  0.0726 -0.1492
 7585TIP3    H122698   5.280   5.129   4.177  0.4140 -0.0159 -0.9442
 7585TIP3    H222699   5.406   5.073   4.240 -0.2010  0.3005  0.5629
 7586TIP3   OH222700   5.137   5.616   3.897 -0.4289 -0.0185  0.2458
 7586TIP3    H122701   5.060   5.622   3.841 -0.1338  0.0345 -0.1539
 7586TIP3    H222702   5.195   5.555   3.852  0.2183  0.7606  0.0176
 7587TIP3   OH222703   2.891   5.580   3.678 -0.5608 -0.2101  0.3767
 7587TIP3    H122704   2.968   5.562   3.624  0.3194  0.5949  1.3463
 7587TIP3    H222705   2.834   5.632   3.622 -0.0455 -0.1351 -0.0828
 7588TIP3   OH222706   1.439   6.146   4.238  0.5064  0.2547 -0.3566
 7588TIP3    H122707   1.368   6.095   4.278 -1.4562  2.4857 -0.8768
 7588TIP3    H222708   1.475   6.198   4.311  1.4863 -0.7325 -0.1319
 7589TIP3   OH222709   3.561   6.579   4.492  0.2184  0.1771  0.0103
 7589TIP3    H122710   3.506   6.568   4.569 -0.4663 -0.0778 -0.5099
 7589TIP3    H222711   3.583   6.490   4.465 -1.9076  0.1268 -1.7588
 7590TIP3   OH222712   5.252   4.912   2.917 -0.2348  0.2595 -0.4004
 7590TIP3    H122713   5.226   5.004   2.917  0.1839  0.3759 -1.0217
 7590TIP3    H222714   5.342   4.912   2.885  0.6870 -0.1065  2.0936
 7591TIP3   OH222715   4.618   5.164   3.911 -0.2732  0.3019  0.3507
 7591TIP3    H122716   4.610   5.103   3.838 -0.7237 -0.1674  0.7817
 7591TIP3    H222717   4.572   5.243   3.881  0.3689  0.4606 -0.2333
 7592TIP3   OH222718   5.861   2.905   3.882  0.2998 -0.2898  0.1027
 7592TIP3    H122719   5.944   2.946   3.907  0.3679 -0.0543 -0.5089
 7592TIP3    H222720   5.819   2.969   3.825 -0.1084 -0.5969  0.0545
 7593TIP3   OH222721   3.061   4.777   5.972  0.5021 -0.0105 -0.0768
 7593TIP3    H122722   2.979   4.761   6.018  0.4374 -1.2271 -0.6208
 7593TIP3    H222723   3.128   4.735   6.026  0.9336  1.9800  0.9862
 7594TIP3   OH222724   4.530   4.723   3.874 -0.1543  0.6965 -0.2989
 7594TIP3    H122725   4.483   4.798   3.835  1.2245  0.2041 -3.0258
 7594TIP3    H222726   4.471   4.649   3.860 -0.7875  0.9615  0.9030
 7595TIP3   OH222727   2.121   2.893   2.252 -0.8894 -0.4191 -0.2322
 7595TIP3    H122728   2.074   2.957   2.198  1.4967  0.3399 -1.4952
 7595TIP3    H222729   2.164   2.946   2.319  2.0651 -0.4923 -1.9864
 7596TIP3   OH222730   6.292   3.574   2.776 -0.0281  0.1602  0.0605
 7596TIP3    H122731   6.296   3.564   2.871 -1.0651 -1.0530 -0.0170
 7596TIP3    H222732   6.199   3.584   2.757 -0.1159 -2.4573 -1.1030
 7597TIP3   OH222733   2.432   1.661   5.338 -0.0001 -0.1786  0.2488
 7597TIP3    H122734   2.444   1.731   5.274 -4.1978  0.5868  0.2124
 7597TIP3    H222735   2.467   1.583   5.296 -1.7377  0.5158 -2.5703
 7598TIP3   OH222736   5.053   4.533   3.379 -0.4458  0.3454 -0.0271
 7598TIP3    H122737   5.139   4.509   3.414 -1.1748 -1.1969  0.7417
 7598TIP3    H222738   4.991   4.509   3.448 -1.3862  2.6754 -0.0387
 7599TIP3   OH222739   3.435   6.841   3.520 -0.1759  0.2465 -0.1103
 7599TIP3    H122740   3.429   6.929   3.483 -3.4033 -0.8661 -2.4314
 7599TIP3    H222741   3.423   6.853   3.614 -0.4725  2.2925 -0.3951
 7600TIP3   OH222742   4.230   4.697   5.141 -0.2041 -0.0986  0.3624
 7600TIP3    H122743   4.302   4.752   5.110  0.3187 -1.2515 -0.4965
 7600TIP3    H222744   4.242   4.613   5.096 -1.7150 -0.5124  0.6902
 7601TIP3   OH222745   4.723   2.553   3.662 -0.1946  0.3650  0.5137
 7601TIP3    H122746   4.698   2.494   3.733  1.4818 -0.8875  0.1104
 7601TIP3    H222747   4.717   2.640   3.699 -2.6070 -0.0503  1.1672
 7602TIP3   OH222748   2.721   5.605   2.696 -0.4397  0.3318 -0.7282
 7602TIP3    H122749   2.750   5.695   2.708 -1.5190  0.6752 -0.7000
 7602TIP3    H222750   2.802   5.554   2.699 -0.1090  0.9012  3.0648
 7603TIP3   OH222751   5.106   4.665   5.038  0.0492 -0.0617 -0.0948
 7603TIP3    H122752   5.011   4.652   5.043 -0.1155  0.5073 -1.4287
 7603TIP3    H222753   5.137   4.591   4.984  0.3739 -0.3016  0.4204
 7604TIP3   OH222754   3.447   2.703   4.677 -0.4430  0.1936 -0.0844
 7604TIP3    H122755   3.383   2.636   4.701 -0.7158  0.3612 -0.3441
 7604TIP3    H222756   3.436   2.714   4.583 -0.8076  1.0247  0.0487
 7605TIP3   OH222757   3.355   6.312   4.587  0.3714  0.0116  0.3436
 7605TIP3    H122758   3.447   6.314   4.561  0.1608 -0.2971 -0.4532
 7605TIP3    H222759   3.318   6.392   4.548 -0.2596 -1.1666 -1.5202
 7606TIP3   OH222760   4.194   4.588   2.873  0.2243 -0.0868  0.0495
 7606TIP3    H122761   4.209   4.499   2.842  0.8798 -0.0060  0.1347
 7606TIP3    H222762   4.269   4.607   2.929 -0.5196  0.0721  1.0176
 7607TIP3   OH222763   6.006   3.410   4.229  0.0429  0.3537 -0.3927
 7607TIP3    H122764   5.992   3.350   4.302 -0.8997  2.7143  1.4314
 7607TIP3    H222765   5.920   3.418   4.188  0.3810 -0.2784 -1.2494
 7608TIP3   OH222766   3.327   4.232   2.317 -0.6777  0.4237 -0.4629
 7608TIP3    H122767   3.241   4.266   2.294 -1.0417 -0.2011 -0.0504
 7608TIP3    H222768   3.309   4.146   2.355  0.0719  0.5734  0.2385
 7609TIP3   OH222769   3.662   1.956   3.014  0.3193  0.6489 -0.5814
 7609TIP3    H122770   3.581   1.963   2.963  0.4348 -0.3184 -0.9069
 7609TIP3    H222771   3.722   2.016   2.971  0.4266 -0.1930 -1.6225
 7610TIP3   OH222772   3.901   5.352   2.956 -0.0691 -0.0131  0.5148
 7610TIP3    H122773   3.828   5.330   3.013 -1.3554  0.2821 -0.9866
 7610TIP3    H222774   3.891   5.295   2.880  0.8167  0.5787 -0.0613
 7611TIP3   OH222775   4.172   3.142   3.798 -0.3254  0.2329  0.2652
 7611TIP3    H122776   4.262   3.116   3.816  0.1341 -0.2944 -2.5228
 7611TIP3    H222777   4.173   3.169   3.706 -2.9628  0.4026  0.2489
 7612TIP3   OH222778   3.277   5.152   4.186 -0.1144 -0.1417 -0.1695
 7612TIP3    H122779   3.248   5.114   4.103  1.4039 -1.1537 -0.2619
 7612TIP3    H222780   3.356   5.103   4.209  1.3845  2.3138  0.1927
 7613TIP3   OH222781   0.133   2.855   4.423  0.2655 -0.4256  0.1159
 7613TIP3    H122782   0.116   2.948   4.410 -1.0472 -0.6850 -0.0849
 7613TIP3    H222783   0.047   2.815   4.429  0.8039 -1.7119 -0.3879
 7614TIP3   OH222784   4.601   5.161   6.173 -0.8247  0.7079 -0.1653
 7614TIP3    H122785   4.584   5.246   6.215  0.3914  0.7278  0.3085
 7614TIP3    H222786   4.654   5.182   6.097  1.1892  0.1875  1.0764
 7615TIP3   OH222787   5.099   4.775   4.502  0.5349  0.0012  0.1696
 7615TIP3    H122788   5.034   4.827   4.549 -0.1143 -0.9814  0.3716
 7615TIP3    H222789   5.102   4.813   4.414 -1.4664 -0.9077 -0.3317
 7616TIP3   OH222790   6.246   5.653   3.116  0.1158 -0.5763 -0.0940
 7616TIP3    H122791   6.265   5.702   3.036 -1.6666 -0.7278 -0.6131
 7616TIP3    H222792   6.198   5.714   3.172  1.5132 -0.4050  0.9785
 7617TIP3   OH222793   4.061   3.253   1.745  0.8832  0.1139 -0.3262
 7617TIP3    H122794   4.145   3.227   1.706  1.0492 -1.7767  1.1754
 7617TIP3    H222795   4.055   3.199   1.824 -0.9866  1.4431  0.4508
 7618TIP3   OH222796   4.413   2.798   6.023  0.2643 -0.2844  0.4127
 7618TIP3    H122797   4.497   2.764   6.056  1.5070  0.7614 -1.5616
 7618TIP3    H222798   4.403   2.758   5.937 -1.1827 -0.2304  0.5406
 7619TIP3   OH222799   4.442   4.119   1.969 -0.3042 -0.1774 -0.1648
 7619TIP3    H122800   4.451   4.026   1.991  2.2048  0.4138  1.4576
 7619TIP3    H222801   4.501   4.164   2.029  0.4904  2.2618 -2.6817
 7620TIP3   OH222802   3.168   0.211   0.503 -0.0038 -0.2224 -0.5054
 7620TIP3    H122803   3.143   0.198   0.412  1.2850 -0.4018 -0.8356
 7620TIP3    H222804   3.221   0.134   0.525 -1.8521 -1.1419  0.9674
 7621TIP3   OH222805   4.814   3.107   2.414 -0.4797  0.6042 -0.6326
 7621TIP3    H122806   4.878   3.162   2.459 -0.5673  1.3410 -1.3853
 7621TIP3    H222807   4.774   3.054   2.483 -0.4242  1.5246  0.1067
 7622TIP3   OH222808   2.580   5.192   5.434 -0.3842  0.3749  0.0935
 7622TIP3    H122809   2.629   5.269   5.461  0.8774 -0.5005  0.3350
 7622TIP3    H222810   2.631   5.155   5.362  0.1009 -1.3301  1.2661
 7623TIP3   OH222811   3.439   2.475   2.416  0.2506  0.3795  0.3504
 7623TIP3    H122812   3.481   2.389   2.415 -0.7400 -0.1089 -0.8253
 7623TIP3    H222813   3.473   2.518   2.495  1.2556 -0.8335  0.5885
 7624TIP3   OH222814   3.204   3.286   3.388 -0.7392  0.0951  0.3096
 7624TIP3    H122815   3.215   3.316   3.478  0.4168  1.1619 -0.1713
 7624TIP3    H222816   3.171   3.363   3.341  1.1183  0.3024 -0.7019
 7625TIP3   OH222817   4.938   2.876   5.390  0.3353 -0.9263 -0.2771
 7625TIP3    H122818   4.997   2.814   5.347 -1.1451 -2.4435 -0.1734
 7625TIP3    H222819   4.856   2.828   5.402 -0.8251  1.0028 -0.0728
 7626TIP3   OH222820   4.211   4.733   6.138  0.2194  0.1386 -0.0191
 7626TIP3    H122821   4.200   4.666   6.069 -0.2403  0.4279 -0.2294
 7626TIP3    H222822   4.305   4.749   6.140  0.0837  1.3461 -1.7512
 7627TIP3   OH222823   4.013   3.148   2.006 -0.0463 -0.1887 -0.3701
 7627TIP3    H122824   4.091   3.106   2.043 -0.3954  1.9529  3.0580
 7627TIP3    H222825   3.941   3.089   2.027 -0.1382  0.6809  1.9430
 7628TIP3   OH222826   5.554   3.306   6.623 -0.3233 -0.6538 -0.2989
 7628TIP3    H122827   5.503   3.348   6.554  1.8678 -0.1526 -1.6730
 7628TIP3    H222828   5.501   3.317   6.703 -1.3736  1.6797 -1.2742
 7629TIP3   OH222829   5.698   2.042   4.446 -0.4469  0.0306  0.3778
 7629TIP3    H122830   5.675   2.135   4.447 -0.0496  0.2185 -2.9947
 7629TIP3    H222831   5.649   2.005   4.373  1.6832 -1.7775 -0.2229
 7630TIP3   OH222832   3.892   4.094   5.289 -0.2184  0.2441 -0.0813
 7630TIP3    H122833   3.915   4.010   5.329  0.3197  0.5146  0.1745
 7630TIP3    H222834   3.797   4.099   5.299 -0.3191 -0.5893 -0.5996
 7631TIP3   OH222835   5.783   2.297   5.309 -0.2196  0.4582 -0.3778
 7631TIP3    H122836   5.704   2.265   5.351 -1.5933  1.8254 -1.8480
 7631TIP3    H222837   5.806   2.229   5.246 -0.1740  0.0262  0.1025
 7632TIP3   OH222838   4.879   4.247   4.705  0.0324  0.1800 -0.1104
 7632TIP3    H122839   4.967   4.277   4.687  0.2734  0.4763  1.4456
 7632TIP3    H222840   4.891   4.163   4.749 -0.4564  0.1806  0.0292
 7633TIP3   OH222841   3.910   3.062   4.959  0.0473  0.0199  0.1769
 7633TIP3    H122842   3.839   3.113   4.920  0.4883 -0.3612 -1.1707
 7633TIP3    H222843   3.950   3.017   4.884  0.9450 -0.6983  1.0849
 7634TIP3   OH222844   4.059   3.670   6.297  0.5554 -0.2173  0.0214
 7634TIP3    H122845   4.089   3.612   6.227  0.7382  1.0266 -0.9568
 7634TIP3    H222846   4.131   3.731   6.311 -0.4571  1.1439 -0.5133
 7635TIP3   OH222847   4.124   5.742   6.734  0.0342 -0.4684 -0.0167
 7635TIP3    H122848   4.128   5.838   6.741  1.9965 -0.5651  0.5853
 7635TIP3    H222849   4.030   5.722   6.736 -0.4595  1.5041 -1.2499
 7636TIP3   OH222850   3.848   2.352   2.523  0.3768  0.1181  0.4602
 7636TIP3    H122851   3.853   2.367   2.428  1.0863 -0.4692  0.3924
 7636TIP3    H222852   3.785   2.416   2.554 -1.4410 -1.0726 -0.7052
 7637TIP3   OH222853   3.971   2.191   4.731 -0.2902 -0.1636 -0.3680
 7637TIP3    H122854   4.016   2.109   4.750  1.4340  0.8856  0.1358
 7637TIP3    H222855   3.934   2.178   4.644  1.4856 -0.8326 -1.0385
 7638TIP3   OH222856   4.977   5.185   4.308 -0.2449  0.2150  0.2517
 7638TIP3    H122857   4.951   5.180   4.216 -0.3587 -2.1434  0.3728
 7638TIP3    H222858   5.065   5.223   4.307 -0.8898  1.7130 -0.6891
 7639TIP3   OH222859   4.212   3.823   5.785 -0.1015 -0.1486 -0.2090
 7639TIP3    H122860   4.181   3.752   5.728  0.5954  0.3267 -1.1865
 7639TIP3    H222861   4.175   3.903   5.745 -2.4837 -0.1034  1.9614
 7640TIP3   OH222862   7.234   3.342   5.083 -0.5996 -0.7800 -0.2136
 7640TIP3    H122863   7.239   3.263   5.030  0.2182 -0.9691  0.1363
 7640TIP3    H222864   7.269   3.412   5.027 -0.1729 -0.8928 -0.0875
 7641TIP3   OH222865   3.219   6.409   2.698 -0.2336 -0.4408  0.6050
 7641TIP3    H122866   3.198   6.500   2.682  1.0850 -0.2934 -0.3799
 7641TIP3    H222867   3.165   6.384   2.774 -0.8745  1.0289  0.6353
 7642TIP3   OH222868   3.059   4.181   6.338  0.4348  0.0653  0.6475
 7642TIP3    H122869   3.098   4.224   6.262  2.2230 -1.5578  0.6205
 7642TIP3    H222870   3.120   4.197   6.409 -0.8522  0.9010  1.5900
 7643TIP3   OH222871   3.255   3.008   6.789  0.0131 -0.1992  0.2816
 7643TIP3    H122872   3.299   3.082   6.831 -0.2154 -0.6806  1.3752
 7643TIP3    H222873   3.171   3.002   6.834 -0.4554 -0.3823 -0.6118
 7644TIP3   OH222874   4.306   4.996   4.566  0.3721  0.3720 -0.6122
 7644TIP3    H122875   4.296   5.063   4.634  1.5515  0.3179 -0.3688
 7644TIP3    H222876   4.333   4.917   4.614  0.0680  0.0258 -1.0144
 7645TIP3   OH222877   4.487   5.655   3.894 -0.1121 -0.1960 -0.0026
 7645TIP3    H122878   4.514   5.736   3.852 -2.0300 -0.2975 -1.4664
 7645TIP3    H222879   4.448   5.683   3.978 -1.1396  0.4450 -0.6814
 7646TIP3   OH222880   3.739   3.612   5.763  0.4515 -0.0277 -0.1859
 7646TIP3    H122881   3.679   3.547   5.726  0.9406 -0.9880  0.6628
 7646TIP3    H222882   3.711   3.695   5.725  1.1435 -1.0202 -2.9148
 7647TIP3   OH222883   4.167   4.062   3.031 -0.8231 -0.4908 -0.9170
 7647TIP3    H122884   4.219   4.017   3.098 -0.4933  0.1603 -0.7365
 7647TIP3    H222885   4.115   4.126   3.080 -1.8098 -1.1407 -1.0959
 7648TIP3   OH222886   6.558   5.299   4.621 -0.3035  0.4027  0.5231
 7648TIP3    H122887   6.584   5.391   4.627  0.5822  0.0255  2.9920
 7648TIP3    H222888   6.468   5.297   4.651 -0.1767  0.3934  0.8991
 7649TIP3   OH222889   4.665   4.075   3.657 -0.5905  0.9449  0.3256
 7649TIP3    H122890   4.685   4.085   3.750 -0.5713  0.8194  0.3354
 7649TIP3    H222891   4.714   4.144   3.613  1.3099 -0.4715  0.1556
 7650TIP3   OH222892   6.325   3.646   1.671  0.0077 -0.0424 -0.1096
 7650TIP3    H122893   6.250   3.705   1.682  1.2248  1.8383 -1.4894
 7650TIP3    H222894   6.355   3.630   1.761 -0.9864  0.6060  0.3529
 7651TIP3   OH222895   6.100   4.005   2.935  0.2653 -0.2054 -0.6980
 7651TIP3    H122896   6.022   4.036   2.980  1.1475 -1.2799  1.6537
 7651TIP3    H222897   6.126   4.077   2.878 -1.7849  0.5653 -0.6819
 7652TIP3   OH222898   5.642   1.977   6.106 -0.1117 -0.1915 -0.6839
 7652TIP3    H122899   5.701   2.035   6.155  3.5484 -1.4010 -3.4340
 7652TIP3    H222900   5.645   1.894   6.154  0.5032 -0.2717 -0.8580
 7653TIP3   OH222901   6.273   5.379   4.641 -0.1469 -0.2001 -0.7626
 7653TIP3    H122902   6.243   5.470   4.649  0.5291 -0.0076 -0.4126
 7653TIP3    H222903   6.272   5.346   4.731 -2.8345 -1.3266 -1.1660
 7654TIP3   OH222904   5.986   2.735   2.209  0.1136 -0.2250 -0.9010
 7654TIP3    H122905   6.081   2.734   2.226 -0.2397 -0.4309  1.1799
 7654TIP3    H222906   5.966   2.645   2.184 -0.0844 -1.1213  2.1978
 7655TIP3   OH222907   3.767   2.457   4.326  0.3404 -0.3402 -0.7833
 7655TIP3    H122908   3.724   2.490   4.405  1.5299  0.0763 -0.3115
 7655TIP3    H222909   3.796   2.536   4.280  2.9423 -0.6708  0.2039
 7656TIP3   OH222910   4.226   2.873   4.478  0.0323  0.0351  0.0273
 7656TIP3    H122911   4.190   2.800   4.427  2.0751 -1.6962  0.9664
 7656TIP3    H222912   4.190   2.951   4.436 -1.0684 -1.4456 -1.9190
 7657TIP3   OH222913   2.124   2.942   6.538  0.2156 -0.3763 -0.1137
 7657TIP3    H122914   2.145   3.019   6.485 -1.3291  0.6188  0.6842
 7657TIP3    H222915   2.205   2.891   6.539  0.9005  0.6408 -1.6493
 7658TIP3   OH222916   6.765   2.868   3.947  0.2817  0.2485  0.1136
 7658TIP3    H122917   6.702   2.803   3.916  0.5591  0.1094 -0.1601
 7658TIP3    H222918   6.794   2.834   4.032 -0.0014  0.3070  0.2346
 7659TIP3   OH222919   3.948   2.452   4.638  0.5958 -0.2719 -0.4827
 7659TIP3    H122920   3.949   2.361   4.667 -0.7292 -0.2334 -0.3115
 7659TIP3    H222921   4.035   2.485   4.661  1.5172 -1.8299 -1.6520
 7660TIP3   OH222922   5.423   2.554   3.605  0.3619  0.3474  0.3979
 7660TIP3    H122923   5.359   2.509   3.550  1.6727 -1.1288  0.0534
 7660TIP3    H222924   5.389   2.547   3.694 -0.9633  1.3359 -0.0292
 7661TIP3   OH222925   7.267   4.912   3.301  0.1536 -0.6969  0.0736
 7661TIP3    H122926   7.181   4.928   3.262  0.2067  0.7224  0.4973
 7661TIP3    H222927   7.289   4.823   3.274 -1.7473 -1.3464  0.5236
 7662TIP3   OH222928   2.637   3.809   3.195 -0.3949  0.2490 -0.8846
 7662TIP3    H122929   2.589   3.777   3.272  1.5300  0.6319  0.5137
 7662TIP3    H222930   2.655   3.901   3.214 -0.9495  0.6604 -2.3410
 7663TIP3   OH222931   5.085   3.701   1.948 -0.5419  0.4330 -0.1225
 7663TIP3    H122932   5.098   3.793   1.972  1.1621  0.1658  0.0534
 7663TIP3    H222933   5.166   3.658   1.976 -1.3344 -1.1240 -0.2036
 7664TIP3   OH222934   4.337   3.728   3.247  0.7189 -0.4768 -0.2392
 7664TIP3    H122935   4.424   3.715   3.285  0.0552 -1.3226  0.9873
 7664TIP3    H222936   4.276   3.703   3.315 -0.5404  1.5811 -0.5570
 7665TIP3   OH222937   4.979   2.813   6.590 -0.2310  0.1845 -0.0010
 7665TIP3    H122938   4.997   2.903   6.614 -3.5737  0.7470  0.6272
 7665TIP3    H222939   4.999   2.808   6.497  0.1995  1.4974  0.0190
 7666TIP3   OH222940   5.147   4.315   4.673 -0.9352 -0.5632 -0.7061
 7666TIP3    H122941   5.148   4.411   4.671 -0.0276 -0.5892 -2.0429
 7666TIP3    H222942   5.171   4.289   4.584 -1.6459 -2.0359 -0.4754
 7667TIP3   OH222943   4.583   6.889   5.279 -0.3542 -0.3092  0.1928
 7667TIP3    H122944   4.598   6.953   5.210  1.2450  0.5435  1.3026
 7667TIP3    H222945   4.565   6.807   5.233 -1.5389  0.7353 -1.2267
 7668TIP3   OH222946   4.264   5.082   5.101 -0.3173 -0.3981 -0.3983
 7668TIP3    H122947   4.349   5.039   5.107  0.7751  1.9437  1.2831
 7668TIP3    H222948   4.258   5.111   5.010  1.3449  0.7305 -0.1567
 7669TIP3   OH222949   6.538   3.872   3.658 -0.3177  0.3815  0.4269
 7669TIP3    H122950   6.576   3.852   3.743  1.1154 -0.7772 -0.4515
 7669TIP3    H222951   6.512   3.964   3.663  0.5802  0.5663  1.8043
 7670TIP3   OH222952   4.204   6.578   5.127  0.1355  0.2851 -0.6029
 7670TIP3    H122953   4.177   6.649   5.069 -1.4693  0.0969 -0.1109
 7670TIP3    H222954   4.150   6.590   5.206 -0.9502 -2.0891 -0.9334
 7671TIP3   OH222955   4.741   4.923   4.046 -0.2007  0.6566  0.6740
 7671TIP3    H122956   4.814   4.965   4.091  1.2426  0.5345 -1.4571
 7671TIP3    H222957   4.728   4.976   3.967 -0.5795 -0.9212 -0.3521
 7672TIP3   OH222958   4.946   5.324   5.476  0.2698 -0.5932  0.2402
 7672TIP3    H122959   4.935   5.350   5.385  1.1297 -0.9333  0.0295
 7672TIP3    H222960   5.003   5.391   5.514 -0.0252 -0.4936  0.5096
 7673TIP3   OH222961   4.189   4.782   4.077 -0.5895 -0.0896  0.0161
 7673TIP3    H122962   4.103   4.812   4.048 -1.3207 -0.7184  1.5236
 7673TIP3    H222963   4.215   4.845   4.145 -0.1268 -0.2539 -0.0060
 7674TIP3   OH222964   4.728   6.437   4.579  0.0274  0.1991  0.1841
 7674TIP3    H122965   4.695   6.377   4.512 -1.9608 -0.6949  1.8838
 7674TIP3    H222966   4.822   6.418   4.584 -0.5077 -2.6292  0.4838
 7675TIP3   OH222967   3.827   6.023   5.202 -0.3756  0.0666  0.0098
 7675TIP3    H122968   3.757   6.084   5.224 -0.7914 -0.7759  1.0675
 7675TIP3    H222969   3.782   5.944   5.171  0.0916 -0.4162  0.5315
 7676TIP3   OH222970   4.484   5.925   4.110  0.3065 -0.1402  0.4321
 7676TIP3    H122971   4.477   6.003   4.165 -0.2210 -1.6588  2.5818
 7676TIP3    H222972   4.575   5.926   4.079  0.1778  1.5545  0.0467
 7677TIP3   OH222973   5.532   4.934   3.652 -0.4666 -0.1498 -0.1305
 7677TIP3    H122974   5.496   4.848   3.670  0.9412 -0.6897  0.1977
 7677TIP3    H222975   5.625   4.927   3.676  0.0801  0.9135 -1.8235
 7678TIP3   OH222976   7.351   3.366   5.353 -0.2866 -0.2894  0.5842
 7678TIP3    H122977   7.305   3.383   5.270 -0.0790  0.6615  0.6557
 7678TIP3    H222978   7.311   3.427   5.415 -0.6554 -1.2241  1.2611
 7679TIP3   OH222979   5.271   3.107   4.593  0.0357  0.1654 -0.2393
 7679TIP3    H122980   5.193   3.160   4.608 -0.8514 -0.3295 -2.7276
 7679TIP3    H222981   5.338   3.170   4.568  0.5217  0.6201  2.1602
 7680TIP3   OH222982   2.789   4.449   5.134 -0.1919 -0.2882 -0.4429
 7680TIP3    H122983   2.876   4.420   5.108  0.8513  0.5111  1.9931
 7680TIP3    H222984   2.747   4.370   5.168 -0.9559 -0.9717 -2.8888
 7681TIP3   OH222985   4.544   3.244   4.069  0.0682 -0.1691 -0.0838
 7681TIP3    H122986   4.475   3.259   4.133  0.7236 -0.9172  0.8217
 7681TIP3    H222987   4.506   3.183   4.006  0.0262 -0.8541  0.6074
 7682TIP3   OH222988   3.480   4.467   3.956  0.6285 -0.0375 -0.0350
 7682TIP3    H122989   3.510   4.514   3.878 -0.8499  0.8747 -0.0802
 7682TIP3    H222990   3.437   4.389   3.923  0.5496  0.0390 -0.1142
 7683TIP3   OH222991   4.212   3.422   3.965 -0.2424  0.1448  0.4813
 7683TIP3    H122992   4.206   3.340   3.915  0.9250  0.3839 -0.0674
 7683TIP3    H222993   4.145   3.478   3.926  1.0939  0.5591 -1.2933
 7684TIP3   OH222994   3.833   5.501   4.433  0.0659 -0.2600  0.2505
 7684TIP3    H122995   3.774   5.508   4.509 -0.4534  0.6792 -0.2282
 7684TIP3    H222996   3.913   5.462   4.469 -1.4797 -3.3271  0.5532
 7685TIP3   OH222997   5.323   1.787   4.474  0.6565  0.0858  0.0999
 7685TIP3    H122998   5.330   1.693   4.491  0.2072 -0.4472 -2.4878
 7685TIP3    H222999   5.314   1.827   4.561  2.2938 -2.1155  1.3148
 7686TIP3   OH223000   3.420   1.117   3.090 -1.1307 -0.5627  0.0053
 7686TIP3    H123001   3.496   1.070   3.057 -0.6096 -1.1825  2.0459
 7686TIP3    H223002   3.385   1.062   3.160 -0.8385  1.7386  2.0651
 7687TIP3   OH223003   3.674   3.866   4.997  0.1426 -0.0841  0.0203
 7687TIP3    H123004   3.705   3.878   4.907  1.7581  0.8297  0.6716
 7687TIP3    H223005   3.583   3.895   4.995  0.0402 -0.4762 -1.4105
 7688TIP3   OH223006   4.331   6.532   2.373  0.6479  0.1258 -0.3715
 7688TIP3    H123007   4.304   6.594   2.441  0.7046  0.8275 -0.9869
 7688TIP3    H223008   4.295   6.569   2.292 -1.1368 -1.7319 -0.4644
 7689TIP3   OH223009   3.864   3.209   2.542 -0.0578  0.1533  0.3009
 7689TIP3    H123010   3.892   3.132   2.493  0.1937  0.5512 -0.1811
 7689TIP3    H223011   3.906   3.199   2.628 -1.0121 -0.8680  0.6648
 7690TIP3   OH223012   3.828   3.909   5.815 -0.0801  0.5997 -0.1449
 7690TIP3    H123013   3.770   3.863   5.754  1.6580 -1.8070 -0.0623
 7690TIP3    H223014   3.873   3.974   5.761  0.1640 -0.3173 -1.0593
 7691TIP3   OH223015   4.921   2.905   2.137  0.7413 -0.5808 -0.3734
 7691TIP3    H123016   4.916   2.840   2.067  1.4308 -0.3183 -0.6680
 7691TIP3    H223017   4.831   2.936   2.146  1.0981  1.5284 -3.2060
 7692TIP3   OH223018   4.148   2.407   3.500  0.0566 -0.1066  0.4189
 7692TIP3    H123019   4.204   2.447   3.567  0.3774 -1.2145  0.8182
 7692TIP3    H223020   4.071   2.378   3.548  0.0487 -0.4133  0.2227
 7693TIP3   OH223021   4.239   4.735   6.681 -0.8480  0.3445  0.3830
 7693TIP3    H123022   4.198   4.736   6.595 -0.8682 -0.5297  0.3778
 7693TIP3    H223023   4.332   4.719   6.664 -1.2500 -2.5945  0.6477
 7694TIP3   OH223024   6.038   6.228   4.906  0.3122  0.3149 -0.2515
 7694TIP3    H123025   6.037   6.148   4.854  0.2469  0.6262 -0.7290
 7694TIP3    H223026   5.954   6.228   4.952 -0.2817  0.8024 -1.3156
 7695TIP3   OH223027   4.378   5.124   4.150 -0.7922  0.0395  0.4769
 7695TIP3    H123028   4.420   5.038   4.145 -0.4384  0.2967 -1.7931
 7695TIP3    H223029   4.423   5.169   4.221  0.6410 -0.8012  0.1251
 7696TIP3   OH223030   5.087   6.540   3.380 -0.0667 -0.1040 -0.0609
 7696TIP3    H123031   5.072   6.446   3.385 -0.6160 -0.0483 -0.5769
 7696TIP3    H223032   5.034   6.569   3.305 -1.1074  0.8466  1.0182
 7697TIP3   OH223033   8.046   2.409   4.933 -0.0085  0.0275  0.7234
 7697TIP3    H123034   8.075   2.499   4.917  0.1909 -0.0165  0.8231
 7697TIP3    H223035   8.128   2.359   4.943 -0.1174 -0.1907  0.5207
 7698TIP3   OH223036   5.790   4.098   3.270  0.0848 -0.0955 -0.2993
 7698TIP3    H123037   5.793   4.081   3.364  0.5042  0.1186 -0.2736
 7698TIP3    H223038   5.839   4.026   3.231  0.1669 -0.0197 -0.3351
 7699TIP3   OH223039   6.095   3.615   4.380 -0.2702  0.1081  0.6070
 7699TIP3    H123040   6.092   3.597   4.474 -1.8444  0.2374  0.6036
 7699TIP3    H223041   6.044   3.544   4.341 -0.2816  0.4930 -0.0788
 7700TIP3   OH223042   7.144   5.244   2.428 -0.6039  0.2131  0.3578
 7700TIP3    H123043   7.201   5.195   2.487 -1.2830  0.7925  1.5032
 7700TIP3    H223044   7.151   5.335   2.457 -1.7563  0.3483  0.2262
 7701TIP3   OH223045   6.582   4.108   5.971  0.3244  0.5882  0.7977
 7701TIP3    H123046   6.672   4.126   5.998  0.4482  0.0348  0.7598
 7701TIP3    H223047   6.537   4.192   5.981  0.8344  0.8592  0.8525
 7702TIP3   OH223048   6.198   5.602   4.399  0.0668 -0.0718  0.0782
 7702TIP3    H123049   6.192   5.627   4.491  0.9307  0.5060 -0.0152
 7702TIP3    H223050   6.165   5.678   4.351  1.8987  0.5908 -0.1710
 7703TIP3   OH223051   7.199   4.556   4.853  0.1493  0.0503 -0.0723
 7703TIP3    H123052   7.141   4.628   4.828 -2.1697 -1.7472  0.0417
 7703TIP3    H223053   7.168   4.528   4.939  0.9652 -1.1660 -0.1600
 7704TIP3   OH223054   6.198   2.778   2.917 -0.3610 -0.1190  0.5817
 7704TIP3    H123055   6.236   2.774   3.004  0.1456  1.6504  0.4594
 7704TIP3    H223056   6.122   2.719   2.920  1.1498 -2.0551  1.4402
 7705TIP3   OH223057   7.559   4.880   5.602 -0.4936  0.1819 -0.2593
 7705TIP3    H123058   7.603   4.859   5.685  1.8505 -1.0591 -1.7616
 7705TIP3    H223059   7.605   4.958   5.571 -1.0668  0.3828 -0.5947
 7706TIP3   OH223060   5.268   5.583   6.146 -0.1167  0.1973 -0.0079
 7706TIP3    H123061   5.345   5.606   6.199 -0.0941 -0.9731  0.4721
 7706TIP3    H223062   5.195   5.586   6.208 -0.3661  0.6345 -0.3173
 7707TIP3   OH223063   3.615   4.716   2.665 -0.4947 -0.4102  0.4516
 7707TIP3    H123064   3.587   4.625   2.663  0.0995 -0.5773 -0.1467
 7707TIP3    H223065   3.654   4.732   2.579 -1.5508  0.7079  0.1555
 7708TIP3   OH223066   7.985   5.709   5.165 -0.4804  0.0467 -0.4827
 7708TIP3    H123067   7.900   5.752   5.151 -0.1771  0.6666 -0.4162
 7708TIP3    H223068   7.969   5.649   5.238 -1.0515 -0.3654 -0.9483
 7709TIP3   OH223069   7.708   4.168   5.271  0.4588 -0.2978  0.5405
 7709TIP3    H123070   7.621   4.174   5.232  0.9605 -2.9558 -1.1191
 7709TIP3    H223071   7.700   4.213   5.355 -1.7585  1.8798 -0.7792
 7710TIP3   OH223072   6.205   5.134   4.193  0.0058 -0.0997  0.2903
 7710TIP3    H123073   6.199   5.129   4.289 -0.2086 -1.3800  0.2173
 7710TIP3    H223074   6.246   5.219   4.176  0.2266  0.0518  1.5273
 7711TIP3   OH223075   5.839   6.703   2.648 -1.0059  0.0032  0.0245
 7711TIP3    H123076   5.886   6.724   2.567  1.2189 -0.9976  1.0178
 7711TIP3    H223077   5.750   6.731   2.631 -0.7508 -0.7913 -3.0448
 7712TIP3   OH223078   6.699   4.397   3.805  0.3642  0.0250 -0.1643
 7712TIP3    H123079   6.757   4.420   3.731  1.3842  0.3998  0.7415
 7712TIP3    H223080   6.715   4.304   3.819  0.5329  0.0604 -0.1118
 7713TIP3   OH223081   6.220   4.943   3.414 -0.6796 -0.0658 -0.1488
 7713TIP3    H123082   6.279   5.018   3.425 -0.5557  0.2075 -2.4132
 7713TIP3    H223083   6.256   4.876   3.472  1.2696  0.4578 -0.6899
 7714TIP3   OH223084   5.502   5.685   3.293 -0.2136  0.6723 -0.0956
 7714TIP3    H123085   5.573   5.732   3.337  1.2581 -0.2812 -1.4148
 7714TIP3    H223086   5.473   5.745   3.224 -2.3152  2.0393  1.8903
 7715TIP3   OH223087   4.394   3.380   2.144  0.2286  0.1468  0.3933
 7715TIP3    H123088   4.381   3.312   2.211 -0.2725 -0.5617 -0.4208
 7715TIP3    H223089   4.306   3.411   2.124  0.1734 -1.0804 -1.4120
 7716TIP3   OH223090   6.667   5.099   3.555  0.1702 -0.2718  0.1148
 7716TIP3    H123091   6.757   5.131   3.566 -0.0277 -0.4133  2.6278
 7716TIP3    H223092   6.650   5.049   3.635 -1.5896 -1.6431 -1.0789
 7717TIP3   OH223093   6.479   4.848   2.497  0.1434  0.0680  0.8148
 7717TIP3    H123094   6.468   4.811   2.410  0.1152 -2.2629  1.7755
 7717TIP3    H223095   6.574   4.853   2.509  0.1868  2.3316 -0.0993
 7718TIP3   OH223096   7.452   2.975   3.886 -0.1303  0.0198  0.1394
 7718TIP3    H123097   7.531   3.023   3.861 -0.1493  0.1941  0.4090
 7718TIP3    H223098   7.425   3.015   3.969 -1.1473  0.7207 -0.5274
 7719TIP3   OH223099   5.319   5.816   3.999 -0.5846  0.1610  0.2736
 7719TIP3    H123100   5.261   5.771   3.937 -1.0666 -1.2342  1.6987
 7719TIP3    H223101   5.272   5.813   4.082  0.6380  0.8318  1.0051
 7720TIP3   OH223102   6.252   5.298   3.300 -0.4345  0.5219 -0.2858
 7720TIP3    H123103   6.315   5.247   3.351 -0.6696 -1.5601 -1.9810
 7720TIP3    H223104   6.217   5.235   3.237 -2.9254  2.0847 -0.5158
 7721TIP3   OH223105   7.893   5.387   3.510 -0.6988  0.0884 -0.1704
 7721TIP3    H123106   7.896   5.348   3.423  1.3788  0.2895 -0.2328
 7721TIP3    H223107   7.848   5.323   3.564 -2.1260  0.0170 -1.4180
 7722TIP3   OH223108   7.954   5.820   4.402  0.0124  0.5139 -0.0123
 7722TIP3    H123109   7.976   5.732   4.372 -2.6622  0.0740 -0.8863
 7722TIP3    H223110   7.982   5.822   4.493 -0.3932 -1.4756  0.1904
 7723TIP3   OH223111   4.768   5.922   4.082 -0.1869  0.7531 -0.8291
 7723TIP3    H123112   4.760   5.833   4.116  3.0295  0.1134 -1.5135
 7723TIP3    H223113   4.862   5.934   4.070 -0.7374  3.4159 -2.9614
 7724TIP3   OH223114   7.549   3.413   3.279  0.4422  0.3661 -0.0197
 7724TIP3    H123115   7.594   3.476   3.223 -0.5554  0.6139 -0.5635
 7724TIP3    H223116   7.469   3.392   3.231 -0.1204  0.1034  1.0240
 7725TIP3   OH223117   5.326   4.105   1.643 -0.2661 -0.0619 -0.1715
 7725TIP3    H123118   5.318   4.161   1.721 -1.2662  0.2041 -0.4625
 7725TIP3    H223119   5.271   4.029   1.663  1.0830 -0.9538  0.2203
 7726TIP3   OH223120   3.956   3.948   6.360 -0.1129 -0.0633  0.5029
 7726TIP3    H123121   3.882   4.009   6.365  0.4099  0.4694  2.5270
 7726TIP3    H223122   3.990   3.958   6.271 -1.6878  0.6228 -0.0426
 7727TIP3   OH223123   5.392   5.158   3.721  0.0794 -0.2666 -0.2533
 7727TIP3    H123124   5.377   5.186   3.631  1.5030  0.6734 -0.1987
 7727TIP3    H223125   5.431   5.071   3.712  1.1903  0.2546 -0.5839
 7728TIP3   OH223126   5.050   7.223   1.077  0.0223 -0.6258  0.0357
 7728TIP3    H123127   5.085   7.250   0.993 -1.2717  2.1891  0.3670
 7728TIP3    H223128   5.127   7.195   1.127  0.9572 -0.9868 -1.5702
 7729TIP3   OH223129   7.776   5.991   1.629 -0.5334  0.0986  1.0054
 7729TIP3    H123130   7.822   5.915   1.665 -3.0960 -1.2726  1.5294
 7729TIP3    H223131   7.760   6.047   1.705 -0.3151  0.2368  0.9468
 7730TIP3   OH223132   5.433   6.107   1.907  0.1080 -0.0881 -0.2280
 7730TIP3    H123133   5.397   6.184   1.952 -0.8219  0.3420 -1.6846
 7730TIP3    H223134   5.490   6.144   1.840  0.0997 -0.6920 -0.5644
 7731TIP3   OH223135   5.208   4.260   1.920 -0.5964 -1.0438 -0.0831
 7731TIP3    H123136   5.249   4.306   1.994 -1.2059  0.1597 -0.4843
 7731TIP3    H223137   5.122   4.236   1.952 -1.4226  0.7728 -0.8647
 7732TIP3   OH223138   7.476   3.991   2.395 -0.0541  0.7704  0.3679
 7732TIP3    H123139   7.525   4.034   2.325  0.9010  1.3858  1.3920
 7732TIP3    H223140   7.393   3.965   2.355  0.9704  0.0461 -1.2988
 7733TIP3   OH223141   4.395   3.568   4.108 -0.5541  0.4245 -0.2250
 7733TIP3    H123142   4.337   3.516   4.051 -0.6479  0.2657  0.0140
 7733TIP3    H223143   4.407   3.513   4.185 -0.7958  0.8364  0.1030
 7734TIP3   OH223144   7.386   3.774   4.285 -0.2166 -0.3474  0.1263
 7734TIP3    H123145   7.463   3.720   4.270  1.3031  1.7782  0.1363
 7734TIP3    H223146   7.400   3.814   4.371 -1.1255  0.3298 -0.0275
 7735TIP3   OH223147   5.274   4.856   3.424  0.1118  0.0347  0.6244
 7735TIP3    H123148   5.361   4.884   3.454  0.1522  0.3718  0.2003
 7735TIP3    H223149   5.282   4.852   3.328 -0.7346  1.4160  0.4846
 7736TIP3   OH223150   6.827   2.014   4.651 -0.3493 -0.1461 -0.1773
 7736TIP3    H123151   6.841   2.108   4.639  0.6430 -0.1906  0.5558
 7736TIP3    H223152   6.884   1.972   4.586  0.3956 -0.2607  0.5349
 7737TIP3   OH223153   5.314   1.537   4.677 -0.2902  0.0399  0.0261
 7737TIP3    H123154   5.226   1.548   4.713 -0.6257  0.1675 -0.8031
 7737TIP3    H223155   5.301   1.484   4.598  0.1078  1.6592 -1.1561
 7738TIP3   OH223156   6.373   2.381   4.205 -0.1240  0.3039  0.3820
 7738TIP3    H123157   6.284   2.371   4.237 -1.0107 -0.6540 -2.2682
 7738TIP3    H223158   6.373   2.463   4.157  0.1077 -0.2265 -0.5482
 7739TIP3   OH223159   5.707   5.650   1.812 -0.0270 -0.0477  0.2295
 7739TIP3    H123160   5.797   5.675   1.834 -0.0484 -0.0684  0.3422
 7739TIP3    H223161   5.663   5.644   1.897  0.1337 -1.0836  0.2403
 7740TIP3   OH223162   8.136   4.228   4.565 -0.3187  0.0205 -0.1253
 7740TIP3    H123163   8.117   4.295   4.631  2.4960 -0.2195  0.9998
 7740TIP3    H223164   8.184   4.273   4.497 -1.3085 -0.1898 -0.9704
 7741TIP3   OH223165   6.012   5.127   3.999 -0.0069 -0.4660 -0.3936
 7741TIP3    H123166   6.089   5.127   4.057 -0.5410  0.5557  0.3253
 7741TIP3    H223167   5.979   5.038   4.004  0.3802 -0.5780  0.3086
 7742TIP3   OH223168   5.955   3.611   3.653  0.0172 -0.1068  0.2890
 7742TIP3    H123169   6.007   3.649   3.582 -0.9218  1.8993  0.6398
 7742TIP3    H223170   5.943   3.683   3.715  0.6015 -1.7475  2.3883
 7743TIP3   OH223171   5.815   4.518   4.592 -0.1184  0.3352 -0.0420
 7743TIP3    H123172   5.752   4.483   4.529 -0.4331  2.2765 -0.8613
 7743TIP3    H223173   5.901   4.494   4.556 -0.3158  0.8879 -0.8995
 7744TIP3   OH223174   6.701   3.979   4.569 -0.5679 -0.8362  0.1225
 7744TIP3    H123175   6.753   4.058   4.580 -2.0924  0.2962 -0.5547
 7744TIP3    H223176   6.723   3.947   4.481 -1.0233 -0.3228 -0.1872
 7745TIP3   OH223177   6.229   4.346   4.000 -0.3051 -0.6420 -0.0768
 7745TIP3    H123178   6.322   4.341   4.022 -0.4577 -2.6851  0.1721
 7745TIP3    H223179   6.228   4.379   3.910  0.6498 -0.4269 -0.0180
 7746TIP3   OH223180   5.367   3.107   2.968 -0.4033 -0.1423  0.4337
 7746TIP3    H123181   5.455   3.071   2.958 -0.4359  0.2393 -1.3660
 7746TIP3    H223182   5.380   3.201   2.977 -0.5829 -0.1636  0.9217
 7747TIP3   OH223183   0.345   6.486   2.061  0.0706 -0.6115 -0.5838
 7747TIP3    H123184   0.282   6.454   2.125  0.7911 -2.7728 -0.9170
 7747TIP3    H223185   0.326   6.436   1.982  0.3735  0.7496 -1.5402
 7748TIP3   OH223186   6.690   5.419   4.279  0.3097  0.2417 -0.1237
 7748TIP3    H123187   6.696   5.500   4.228 -0.5607  0.7634  0.5794
 7748TIP3    H223188   6.596   5.404   4.291  0.4792 -0.4246  0.4427
 7749TIP3   OH223189   6.384   4.530   3.109 -0.1672 -0.3133 -0.3778
 7749TIP3    H123190   6.366   4.458   3.048  1.3743 -1.3254  0.3227
 7749TIP3    H223191   6.334   4.604   3.075 -1.0594 -1.4759 -1.6278
 7750TIP3   OH223192   5.160   2.504   3.378 -0.0986  0.5944 -0.6110
 7750TIP3    H123193   5.113   2.475   3.299 -1.6567  1.0679  0.1305
 7750TIP3    H223194   5.097   2.493   3.449  1.6657 -0.8987  0.7752
 7751TIP3   OH223195   7.207   6.266   2.681  0.5013 -0.0453 -0.1180
 7751TIP3    H123196   7.186   6.336   2.619  0.0011 -0.5986 -0.5748
 7751TIP3    H223197   7.203   6.186   2.629 -0.2099 -0.5376  0.6943
 7752TIP3   OH223198   4.484   4.518   2.827 -0.2254  0.0902 -0.1405
 7752TIP3    H123199   4.460   4.514   2.735 -0.8063  0.8099 -0.0232
 7752TIP3    H223200   4.570   4.559   2.828  0.2181 -0.8232 -0.4298
 7753TIP3   OH223201   5.451   3.653   4.289  0.9228 -0.2793  0.2915
 7753TIP3    H123202   5.496   3.570   4.273 -1.2891 -1.2525 -1.0036
 7753TIP3    H223203   5.403   3.639   4.371  0.4976 -0.2827  0.0395
 7754TIP3   OH223204   5.795   6.197   5.057  0.1621  0.2019  0.6930
 7754TIP3    H123205   5.782   6.291   5.055  0.2929  0.2768  2.5567
 7754TIP3    H223206   5.716   6.160   5.019  0.3227  1.0639 -0.5083
 7755TIP3   OH223207   6.089   5.808   3.640  0.2104  0.6569 -0.4574
 7755TIP3    H123208   6.129   5.750   3.705 -1.2847 -0.0461 -0.1299
 7755TIP3    H223209   6.048   5.749   3.577 -1.7359  1.3112  0.1283
 7756TIP3   OH223210   7.378   3.486   1.240  0.2075  0.5627 -0.1472
 7756TIP3    H123211   7.333   3.570   1.230 -1.3201  0.0761  2.1023
 7756TIP3    H223212   7.360   3.460   1.330  2.7887 -0.9817 -0.0089
 7757TIP3   OH223213   5.727   1.867   4.651  0.5548  0.0899 -0.2628
 7757TIP3    H123214   5.696   1.908   4.732 -0.5374 -1.2515  0.0144
 7757TIP3    H223215   5.716   1.935   4.584  0.2213  0.7564  0.4580
 7758TIP3   OH223216   6.155   5.913   3.193 -0.2790  0.3315  0.0702
 7758TIP3    H123217   6.149   5.992   3.139 -0.1724  0.4149  0.1815
 7758TIP3    H223218   6.222   5.933   3.258 -0.1535  0.0969  0.0119
 7759TIP3   OH223219   5.149   3.270   2.087 -0.2463  0.2316  0.3089
 7759TIP3    H123220   5.108   3.265   2.173 -0.8722  0.6131  0.0338
 7759TIP3    H223221   5.147   3.180   2.054 -0.7756  0.2351  0.3318
 7760TIP3   OH223222   5.356   4.914   1.694 -0.2976 -0.3110  0.2233
 7760TIP3    H123223   5.419   4.861   1.742  1.2638 -0.6080 -2.0678
 7760TIP3    H223224   5.276   4.861   1.692 -0.7261  0.1327  3.2648
 7761TIP3   OH223225   7.733   6.809   2.654  0.1926  0.3627  0.2764
 7761TIP3    H123226   7.745   6.814   2.560 -0.9796  0.1487  0.1081
 7761TIP3    H223227   7.751   6.898   2.685 -1.2305  0.9007 -0.3781
 7762TIP3   OH223228   7.124   5.233   5.077 -0.2951 -0.2457  0.2923
 7762TIP3    H123229   7.184   5.227   5.003 -0.6067 -0.5389  0.0634
 7762TIP3    H223230   7.158   5.170   5.141 -0.5143 -0.6074  0.0527
 7763TIP3   OH223231   6.613   6.604   4.004  0.0563  0.0625 -0.0749
 7763TIP3    H123232   6.577   6.655   4.076  0.0553  1.1491 -0.8178
 7763TIP3    H223233   6.707   6.624   4.005 -0.1739  1.2869 -1.2941
 7764TIP3   OH223234   6.633   4.986   1.501  0.5214  0.3797  0.2461
 7764TIP3    H123235   6.560   4.933   1.533  1.9680 -0.6579  1.9396
 7764TIP3    H223236   6.596   5.038   1.430 -1.0108 -2.6747 -1.2439
 7765TIP3   OH223237   5.221   5.312   4.293  0.0316 -0.1513 -0.3414
 7765TIP3    H123238   5.310   5.301   4.328  0.4947 -1.3848 -1.8822
 7765TIP3    H223239   5.217   5.403   4.265  0.2716  0.3451  1.1920
 7766TIP3   OH223240   4.982   6.454   2.950  0.2272  0.5136 -0.4264
 7766TIP3    H123241   5.035   6.485   2.877  0.9738 -0.9220 -0.5079
 7766TIP3    H223242   4.973   6.360   2.935 -0.8090  0.4406  0.5709
 7767TIP3   OH223243   6.654   3.724   2.966  0.7160 -0.2968 -0.0087
 7767TIP3    H123244   6.608   3.641   2.970 -1.1673  0.7626  0.7518
 7767TIP3    H223245   6.744   3.703   2.994  0.2125 -2.0137  0.3734
 7768TIP3   OH223246   4.530   4.733   4.165 -0.0453 -0.4701 -0.5959
 7768TIP3    H123247   4.613   4.781   4.164 -1.4997  2.3571  2.4282
 7768TIP3    H223248   4.496   4.742   4.077  0.9506  1.9064 -0.7816
 7769TIP3   OH223249   6.526   6.264   3.723  0.0579  0.6762  0.3835
 7769TIP3    H123250   6.580   6.185   3.730 -0.1608  0.5273  0.3819
 7769TIP3    H223251   6.544   6.312   3.803  0.4278  0.7730  0.2418
 7770TIP3   OH223252   5.475   5.687   4.407  0.3710  0.3361 -0.3556
 7770TIP3    H123253   5.404   5.638   4.364  0.7039  0.4747 -1.0761
 7770TIP3    H223254   5.555   5.644   4.378  0.7250  1.8872 -1.7881
 7771TIP3   OH223255   8.329   6.023   1.824  0.1615 -0.0563  0.3742
 7771TIP3    H123256   8.337   5.993   1.915  0.8362  0.2756  0.4206
 7771TIP3    H223257   8.407   6.076   1.808 -0.0054 -0.0224 -0.3690
 7772TIP3   OH223258   6.262   5.178   4.447 -0.3373  0.2753  0.8967
 7772TIP3    H123259   6.223   5.252   4.493 -1.5021  0.1456  0.1439
 7772TIP3    H223260   6.308   5.129   4.516 -1.2621  0.5924  1.7517
 7773TIP3   OH223261   6.527   6.834   3.278  0.7118  0.2620  0.3326
 7773TIP3    H123262   6.467   6.827   3.353  1.6325 -2.4187  0.8480
 7773TIP3    H223263   6.573   6.751   3.276  2.0404  1.0173 -2.1204
 7774TIP3   OH223264   7.733   5.166   1.583 -0.4614 -0.1069  0.1855
 7774TIP3    H123265   7.665   5.222   1.621  0.2313  0.9268 -0.0785
 7774TIP3    H223266   7.774   5.220   1.515  0.6179 -0.7236  0.3287
 7775TIP3   OH223267   5.188   4.293   4.371  0.2365 -0.4219 -0.4209
 7775TIP3    H123268   5.113   4.298   4.311  0.1112 -2.2468 -0.4469
 7775TIP3    H223269   5.245   4.364   4.344  0.4057 -1.4895 -3.0479
 7776TIP3   OH223270   5.725   3.395   2.631 -0.1388  0.3582  0.0425
 7776TIP3    H123271   5.814   3.358   2.633 -0.0026  0.6192 -1.0663
 7776TIP3    H223272   5.721   3.442   2.548 -1.7337 -0.7177 -0.5138
 7777TIP3   OH223273   6.243   5.677   4.678 -0.3016 -0.3303 -0.1731
 7777TIP3    H123274   6.206   5.689   4.766 -0.7752  1.4378 -0.5992
 7777TIP3    H223275   6.329   5.719   4.683 -0.2677 -0.3598 -0.5126
 7778TIP3   OH223276   3.810   2.748   4.700 -0.0982 -0.2615  0.2719
 7778TIP3    H123277   3.850   2.676   4.750 -1.1894 -0.0139  1.5289
 7778TIP3    H223278   3.864   2.825   4.722 -1.2737  0.0979  2.0639
 7779TIP3   OH223279   4.639   3.658   2.493 -0.0989  0.0033  0.1466
 7779TIP3    H123280   4.600   3.573   2.476 -2.7681  1.6085 -2.2150
 7779TIP3    H223281   4.635   3.668   2.588 -1.4908 -1.7123  0.2813
 7780TIP3   OH223282   7.705   3.087   1.303 -0.4469 -0.5313  0.2217
 7780TIP3    H123283   7.621   3.041   1.293 -1.0774  0.5660  0.4685
 7780TIP3    H223284   7.753   3.034   1.367 -2.0060  0.2744  2.1161
 7781TIP3   OH223285   5.374   2.736   5.823 -0.1937  0.3056  0.0816
 7781TIP3    H123286   5.364   2.826   5.856  1.0678  0.2732  0.5833
 7781TIP3    H223287   5.468   2.725   5.813 -0.3725 -0.8179 -0.4225
 7782TIP3   OH223288   5.711   3.787   3.518  0.3282  0.4643 -0.6020
 7782TIP3    H123289   5.707   3.705   3.470 -2.3924 -0.0278  0.3936
 7782TIP3    H223290   5.726   3.762   3.609 -1.5079  0.9856 -0.1333
 7783TIP3   OH223291   6.055   2.419   3.285 -0.5009 -0.4495 -0.1656
 7783TIP3    H123292   6.000   2.459   3.217 -1.0956 -1.0551 -0.0495
 7783TIP3    H223293   6.021   2.330   3.293 -0.6190 -0.2942  1.1242
 7784TIP3   OH223294   5.643   4.111   5.192  0.0929  0.0816  0.1456
 7784TIP3    H123295   5.641   4.162   5.111 -2.6774  1.9930  1.3162
 7784TIP3    H223296   5.564   4.138   5.239  2.7426  0.7857  4.5362
 7785TIP3   OH223297   5.320   3.912   4.283 -0.1502  0.3940 -0.1256
 7785TIP3    H123298   5.225   3.905   4.270 -0.0519 -1.1642 -0.0109
 7785TIP3    H223299   5.350   3.822   4.294  1.1709  0.9684  1.1354
 7786TIP3   OH223300   5.661   5.318   3.003 -0.2594  0.0950 -0.0842
 7786TIP3    H123301   5.728   5.381   3.029 -0.4380  0.0130  0.5843
 7786TIP3    H223302   5.692   5.234   3.036  1.0860 -0.5772 -2.9192
 7787TIP3   OH223303   5.171   3.991   3.820  0.2197  0.0524  0.6245
 7787TIP3    H123304   5.218   3.965   3.740  0.5486 -1.6188  1.3398
 7787TIP3    H223305   5.099   3.928   3.826 -0.0854  0.4731  1.3819
 7788TIP3   OH223306   6.690   4.967   5.639 -0.5029  0.4881 -0.0876
 7788TIP3    H123307   6.692   4.874   5.660  0.8919  0.0992 -1.7995
 7788TIP3    H223308   6.611   4.979   5.588 -0.4467  0.1576 -0.2514
 7789TIP3   OH223309   4.834   4.169   2.540  0.8274 -0.1754  0.4759
 7789TIP3    H123310   4.810   4.179   2.633  0.7838  0.2832  0.4165
 7789TIP3    H223311   4.879   4.250   2.518 -2.0694  1.1468 -0.7947
 7790TIP3   OH223312   5.529   5.518   2.234  0.4115  0.1113 -0.4881
 7790TIP3    H123313   5.554   5.600   2.191  0.5224 -0.8527 -2.3204
 7790TIP3    H223314   5.480   5.470   2.167 -1.5305 -0.4085  1.2610
 7791TIP3   OH223315   5.049   5.832   2.512 -0.0603  0.2545  0.3585
 7791TIP3    H123316   4.983   5.852   2.579 -0.4491 -3.3321  1.1667
 7791TIP3    H223317   4.997   5.816   2.433  0.0898  0.5902  0.1933
 7792TIP3   OH223318   4.428   2.300   2.740  0.4655  0.7711  0.0610
 7792TIP3    H123319   4.475   2.331   2.663 -0.7481  0.4465 -0.8221
 7792TIP3    H223320   4.422   2.205   2.728  0.0110  0.7515  0.4107
 7793TIP3   OH223321   5.406   5.652   2.888  0.4169  0.2969 -0.5265
 7793TIP3    H123322   5.472   5.690   2.947  1.2481 -0.0719 -1.2007
 7793TIP3    H223323   5.323   5.662   2.935  0.9016  1.1071  0.1773
 7794TIP3   OH223324   5.259   5.409   5.306 -0.2439 -0.2757  0.6249
 7794TIP3    H123325   5.239   5.329   5.258 -1.7894 -0.3660  1.4162
 7794TIP3    H223326   5.222   5.479   5.252 -1.0857 -0.2945  1.1783
 7795TIP3   OH223327   3.495   3.436   6.530 -0.6358 -0.1212  0.0831
 7795TIP3    H123328   3.571   3.382   6.552 -1.0101 -0.5186  0.3947
 7795TIP3    H223329   3.453   3.390   6.458 -0.9379 -0.2276  0.3277
 7796TIP3   OH223330   5.914   5.991   3.283 -0.5730  0.3268 -0.2690
 7796TIP3    H123331   5.997   5.960   3.248 -1.2393 -0.0841 -1.5004
 7796TIP3    H223332   5.928   6.084   3.298  0.8252 -0.1591  1.6698
 7797TIP3   OH223333   5.458   6.651   2.325 -0.1139 -0.2961 -0.1728
 7797TIP3    H123334   5.380   6.640   2.380 -0.4951 -0.0701 -0.6728
 7797TIP3    H223335   5.494   6.562   2.319  1.0113 -0.0396  2.0202
 7798TIP3   OH223336   5.570   4.737   6.112  0.3607  0.2426  0.0836
 7798TIP3    H123337   5.508   4.805   6.137 -1.6521 -1.9356  1.1660
 7798TIP3    H223338   5.559   4.728   6.017  0.8517  1.5990 -0.1140
 7799TIP3   OH223339   4.735   4.360   3.213 -0.2260  0.3393 -0.0552
 7799TIP3    H123340   4.667   4.415   3.176 -0.8554 -0.7769 -0.5746
 7799TIP3    H223341   4.816   4.409   3.199 -1.1021  2.5796  2.2875
 7800TIP3   OH223342   7.399   6.164   4.741  0.3455 -0.4316  0.0021
 7800TIP3    H123343   7.476   6.116   4.711  0.1141 -1.6283  1.3092
 7800TIP3    H223344   7.326   6.120   4.697  0.1124 -1.4308  1.3800
 7801TIP3   OH223345   6.735   4.950   3.087 -0.2705 -0.2046  0.0567
 7801TIP3    H123346   6.796   4.926   3.157 -2.5886 -0.2803  2.0847
 7801TIP3    H223347   6.696   4.867   3.059 -1.5999  0.1511  0.8152
 7802TIP3   OH223348   6.900   5.535   1.992 -0.0813 -0.7758  0.2024
 7802TIP3    H123349   6.974   5.579   1.950 -0.5867 -0.9848 -0.9371
 7802TIP3    H223350   6.915   5.442   1.975  0.8874 -1.0602  2.4425
 7803TIP3   OH223351   4.513   5.374   5.789  0.5819  0.1509 -0.4917
 7803TIP3    H123352   4.490   5.288   5.824 -1.3933  0.9296  0.2059
 7803TIP3    H223353   4.435   5.402   5.741  0.5624  2.2537  0.6706
 7804TIP3   OH223354   5.460   1.917   3.663  0.3897 -0.4175 -0.1517
 7804TIP3    H123355   5.489   1.837   3.620 -0.8966 -1.5257  1.0012
 7804TIP3    H223356   5.522   1.930   3.735  0.8090 -0.1729 -0.5562
 7805TIP3   OH223357   6.190   4.129   4.508  0.5021  0.0037 -0.2853
 7805TIP3    H123358   6.276   4.103   4.540 -0.6263 -1.9992  1.2981
 7805TIP3    H223359   6.203   4.150   4.416  2.7298  0.0023  0.0056
 7806TIP3   OH223360   6.420   4.702   2.800  0.1887 -0.4274  0.0316
 7806TIP3    H123361   6.327   4.686   2.811 -0.3959  3.8459  2.4695
 7806TIP3    H223362   6.428   4.736   2.710 -1.0745  1.6774  0.6673
 7807TIP3   OH223363   6.169   6.688   3.359  0.4081  0.1159  0.1269
 7807TIP3    H123364   6.222   6.618   3.321 -3.4008 -2.8758  0.0561
 7807TIP3    H223365   6.228   6.733   3.420  3.8813 -1.0069 -2.2963
 7808TIP3   OH223366   4.128   4.763   2.061 -0.1246  0.0135  0.4866
 7808TIP3    H123367   4.077   4.803   2.132 -1.4050  1.0577 -0.9655
 7808TIP3    H223368   4.110   4.669   2.068  0.9358 -0.0539  2.4336
 7809TIP3   OH223369   4.931   4.754   5.473  0.2272 -0.1992 -0.3999
 7809TIP3    H123370   5.001   4.689   5.464 -1.1395 -1.5657 -1.3003
 7809TIP3    H223371   4.872   4.717   5.538  0.1463  0.7891  0.0924
 7810TIP3   OH223372   5.532   3.977   4.516  0.1969  0.0769 -0.0723
 7810TIP3    H123373   5.457   3.991   4.573 -1.0091 -1.9277 -1.1213
 7810TIP3    H223374   5.592   3.924   4.567 -1.1104 -2.1629 -0.7979
 7811TIP3   OH223375   5.406   3.343   2.360  0.6418  0.1129 -0.3918
 7811TIP3    H123376   5.465   3.374   2.292  1.6346 -0.9760 -0.0399
 7811TIP3    H223377   5.376   3.423   2.404  0.3997  0.7832 -1.7447
 7812TIP3   OH223378   7.660   3.924   4.430 -0.0492 -0.0456 -0.0849
 7812TIP3    H123379   7.740   3.962   4.466  0.1424 -2.0215  1.6442
 7812TIP3    H223380   7.592   3.945   4.495 -1.0997  2.0801 -1.7897
 7813TIP3   OH223381   8.293   4.492   5.361  0.3246  0.1596  0.8490
 7813TIP3    H123382   8.300   4.557   5.290 -0.9125 -0.6823 -0.0619
 7813TIP3    H223383   8.354   4.423   5.336 -0.3660 -0.2988  0.4290
 7814TIP3   OH223384   5.988   4.387   4.364  0.6513  0.3391  0.0557
 7814TIP3    H123385   5.977   4.407   4.271  0.2018 -0.9841 -0.1869
 7814TIP3    H223386   6.062   4.327   4.367  1.3935  1.2748  0.6752
 7815TIP3   OH223387   5.575   4.412   5.278  0.4590  0.2245 -0.2855
 7815TIP3    H123388   5.599   4.356   5.205  0.2461  1.3415 -1.2242
 7815TIP3    H223389   5.570   4.352   5.353 -1.4979 -1.3381 -1.5950
 7816TIP3   OH223390   1.169   3.717   2.996  0.0168 -0.2134 -0.5240
 7816TIP3    H123391   1.214   3.778   3.056 -1.3639 -0.1942  0.5173
 7816TIP3    H223392   1.081   3.752   2.988 -0.5465 -1.6186 -0.5883
 7817TIP3   OH223393   6.792   3.785   5.263  0.3843 -0.2195 -0.4008
 7817TIP3    H123394   6.712   3.732   5.272  0.0091  0.7376  2.8175
 7817TIP3    H223395   6.765   3.873   5.290  1.9327  0.7221 -1.8491
 7818TIP3   OH223396   5.247   4.931   3.945 -0.7367  0.0641 -0.3138
 7818TIP3    H123397   5.269   4.961   4.033  1.1499 -0.4416 -0.6017
 7818TIP3    H223398   5.231   5.011   3.896 -1.4786  0.3589  0.3850
 7819TIP3   OH223399   5.293   4.358   5.523 -0.3702  0.2285  0.4622
 7819TIP3    H123400   5.360   4.332   5.460  0.8187  4.2438 -0.0542
 7819TIP3    H223401   5.222   4.393   5.470 -1.6492 -1.2723  1.1512
 7820TIP3   OH223402   7.062   4.734   4.095  0.4330 -0.3062  0.0862
 7820TIP3    H123403   7.097   4.776   4.017 -0.7475  0.0075 -0.2791
 7820TIP3    H223404   6.983   4.690   4.066  0.1273 -0.4095  1.0479
 7821TIP3   OH223405   5.340   5.625   5.483 -0.6580 -0.2664 -0.6513
 7821TIP3    H123406   5.361   5.549   5.429 -0.5623 -0.5269 -0.2512
 7821TIP3    H223407   5.353   5.700   5.425 -0.3998 -0.5340 -0.9432
 7822TIP3   OH223408   5.900   6.939   3.198 -0.3391  0.0094  0.1985
 7822TIP3    H123409   5.941   7.005   3.142  1.4878 -1.0527  0.2761
 7822TIP3    H223410   5.826   6.907   3.146 -0.1144  0.7852 -0.6053
 7823TIP3   OH223411   3.835   5.492   1.775  0.3904  0.4003 -0.2062
 7823TIP3    H123412   3.788   5.411   1.799  2.9835 -2.0004 -2.8626
 7823TIP3    H223413   3.880   5.517   1.855 -1.7923  0.2310  1.1373
 7824TIP3   OH223414   3.853   5.128   2.426 -0.1635 -0.0208  0.4539
 7824TIP3    H123415   3.877   5.202   2.371 -0.6913 -0.0814  0.1404
 7824TIP3    H223416   3.824   5.168   2.508 -0.3454  0.1140  0.3242
 7825TIP3   OH223417   6.049   3.710   2.376  0.4957  0.4686  0.4173
 7825TIP3    H123418   6.065   3.625   2.335 -1.2588  0.2980  0.0492
 7825TIP3    H223419   6.091   3.773   2.317 -0.2997  0.0523 -0.6175
 7826TIP3   OH223420   5.384   7.565   3.474  0.3169  0.5695 -0.7773
 7826TIP3    H123421   5.361   7.654   3.448 -0.7008  0.0926 -1.5406
 7826TIP3    H223422   5.470   7.574   3.515 -0.4922  2.1434  0.6448
 7827TIP3   OH223423   7.211   3.926   2.895  0.3704  0.1901  0.0499
 7827TIP3    H123424   7.193   3.980   2.972  1.8461 -0.3198  0.7727
 7827TIP3    H223425   7.305   3.908   2.900  0.8793  1.7467 -2.9026
 7828TIP3   OH223426   7.606   6.933   3.082  0.2355 -0.1769  0.7460
 7828TIP3    H123427   7.680   6.982   3.047 -0.1256  0.6065  1.0765
 7828TIP3    H223428   7.535   6.996   3.088  0.5783 -0.0088  3.8469
 7829TIP3   OH223429   5.982   7.708   3.354  0.2723 -0.0491 -0.3185
 7829TIP3    H123430   5.919   7.638   3.342 -0.5373  0.1233  2.5102
 7829TIP3    H223431   5.984   7.723   3.449  2.3773  1.9455 -0.6174
 7830TIP3   OH223432   6.775   4.032   3.507 -0.6798  0.3006  0.4322
 7830TIP3    H123433   6.790   4.066   3.596  2.9112 -0.8607  0.3466
 7830TIP3    H223434   6.762   3.938   3.520 -0.6666  0.2105 -0.2143
 7831TIP3   OH223435   7.720   5.119   2.613 -0.1909  0.4279 -0.3178
 7831TIP3    H123436   7.804   5.121   2.658 -0.3851  0.7281  0.0351
 7831TIP3    H223437   7.737   5.070   2.532  0.3629  0.6437 -0.3344
 7832TIP3   OH223438   6.935   4.808   2.637  0.3286  0.0285 -0.4385
 7832TIP3    H123439   7.013   4.797   2.692  0.6482  2.3550 -0.3811
 7832TIP3    H223440   6.861   4.801   2.697  0.4114 -2.8240 -0.5836
 7833TIP3   OH223441   6.122   5.179   2.189  0.0030 -0.0630  0.1856
 7833TIP3    H123442   6.093   5.268   2.209  0.6824  0.3349 -0.5641
 7833TIP3    H223443   6.198   5.165   2.245  0.0261 -0.0873  0.1476
 7834TIP3   OH223444   6.283   3.266   3.269 -0.2314 -0.2360 -0.1325
 7834TIP3    H123445   6.285   3.359   3.245  1.0777  0.2699  1.8481
 7834TIP3    H223446   6.320   3.263   3.357  2.1010 -2.9254 -1.1076
 7835TIP3   OH223447   7.022   5.305   3.771 -0.2062  0.1556 -0.2081
 7835TIP3    H123448   7.098   5.307   3.829 -1.0651 -0.8499  0.9869
 7835TIP3    H223449   7.034   5.379   3.712  1.7615 -0.0655 -0.1180
 7836TIP3   OH223450   5.894   3.659   4.746 -0.9765 -0.5665 -0.2842
 7836TIP3    H123451   5.908   3.749   4.715 -0.3340 -0.9751 -1.1947
 7836TIP3    H223452   5.868   3.611   4.667 -0.8152 -1.2985  0.1091
 7837TIP3   OH223453   7.406   7.366   2.259 -0.4224 -0.5105 -0.5788
 7837TIP3    H123454   7.367   7.418   2.330 -0.6578 -1.8194  0.2667
 7837TIP3    H223455   7.500   7.365   2.280 -0.1405  1.1248 -1.6299
 7838TIP3   OH223456   7.839   3.923   0.558 -0.2126  0.5531 -0.0075
 7838TIP3    H123457   7.913   3.957   0.609 -0.6129  2.0917 -0.4171
 7838TIP3    H223458   7.809   3.846   0.607  0.6786  0.8432  1.0007
 7839TIP3   OH223459   3.944   7.262   4.433 -0.6610  1.2768  0.7289
 7839TIP3    H123460   3.940   7.356   4.446 -1.7739  1.0664  1.9958
 7839TIP3    H223461   3.866   7.241   4.381  0.1916  1.1971 -0.5463
 7840TIP3   OH223462   6.554   3.154   4.069  0.1496 -0.0376  0.5319
 7840TIP3    H123463   6.521   3.089   4.006  0.1118  1.1289 -0.6600
 7840TIP3    H223464   6.497   3.229   4.058 -1.2377 -0.5928  3.5327
 7841TIP3   OH223465   6.433   4.442   5.628  0.3199  0.0351 -0.3987
 7841TIP3    H123466   6.390   4.356   5.636 -0.7901  0.6481  0.2442
 7841TIP3    H223467   6.363   4.501   5.599  0.7377  1.0281  0.5998
 7842TIP3   OH223468   7.132   2.114   5.212 -0.3582 -0.4045  0.1571
 7842TIP3    H123469   7.225   2.095   5.209 -0.3541 -0.5372  0.9505
 7842TIP3    H223470   7.123   2.198   5.169  0.1038 -0.4779 -0.0872
 7843TIP3   OH223471   6.918   4.439   3.602  0.1248  0.0897 -0.7354
 7843TIP3    H123472   6.990   4.383   3.574 -0.3112 -0.5628 -0.5651
 7843TIP3    H223473   6.892   4.485   3.522 -0.1298 -0.6544 -1.0954
 7844TIP3   OH223474   5.769   0.686   2.012  0.0817  0.4140 -0.2756
 7844TIP3    H123475   5.769   0.748   1.939 -0.0086  0.8803  0.1165
 7844TIP3    H223476   5.728   0.607   1.978  0.3837  0.5028 -0.8406
 7845TIP3   OH223477   7.682   5.268   4.762  0.2274 -0.0092 -0.3673
 7845TIP3    H123478   7.718   5.266   4.673 -1.3023 -0.1329 -1.0044
 7845TIP3    H223479   7.668   5.175   4.783 -1.9629  0.1229 -1.0907
 7846TIP3   OH223480   7.159   2.427   3.060 -0.5622 -0.0977 -0.5100
 7846TIP3    H123481   7.167   2.452   3.152 -0.0953 -0.6211 -0.4111
 7846TIP3    H223482   7.145   2.510   3.014  1.1799  0.3888 -0.1995
 7847TIP3   OH223483   5.966   5.349   3.365  0.1690  0.0645 -0.3258
 7847TIP3    H123484   6.040   5.391   3.321  0.6214 -0.9000 -0.4965
 7847TIP3    H223485   5.980   5.255   3.353 -1.0195 -0.1411 -0.2594
 7848TIP3   OH223486   5.010   6.212   3.198  0.0355  0.0506 -0.7762
 7848TIP3    H123487   5.044   6.257   3.121 -0.3534  0.6604 -0.5885
 7848TIP3    H223488   4.919   6.193   3.176 -0.4223  1.2834  0.0002
 7849TIP3   OH223489   5.104   4.655   6.439 -0.6921 -0.2236 -0.0538
 7849TIP3    H123490   5.050   4.731   6.462 -0.2992 -0.7660  2.8003
 7849TIP3    H223491   5.067   4.624   6.356 -2.0160  1.9766 -0.3389
 7850TIP3   OH223492   6.495   5.292   3.831  0.0795  0.7587  0.5708
 7850TIP3    H123493   6.563   5.256   3.889  0.2746 -0.3426 -0.3295
 7850TIP3    H223494   6.464   5.217   3.782 -1.7118  1.2863  0.8754
 7851TIP3   OH223495   7.250   5.612   4.583  0.0386 -0.0709 -0.1570
 7851TIP3    H123496   7.191   5.545   4.547  0.9829 -0.5727 -0.8209
 7851TIP3    H223497   7.261   5.588   4.675 -0.8324  0.0578 -0.0196
 7852TIP3   OH223498   5.592   5.472   5.498 -0.1949 -0.7989  0.1858
 7852TIP3    H123499   5.533   5.522   5.555 -1.0993 -1.3161 -0.2893
 7852TIP3    H223500   5.660   5.440   5.557  0.2602  0.7672  0.5466
 7853TIP3   OH223501   8.181   0.146   3.080 -0.1081  0.3487  0.2298
 7853TIP3    H123502   8.101   0.094   3.095 -0.0539  0.9602  2.7714
 7853TIP3    H223503   8.198   0.188   3.164  2.0476  1.4410 -0.7377
 7854TIP3   OH223504   8.397   4.036   5.851 -0.3596 -0.2572 -0.4581
 7854TIP3    H123505   8.474   4.091   5.863  0.8855 -1.9733 -0.4510
 7854TIP3    H223506   8.368   4.055   5.762  0.4893 -0.1280 -0.7102
 7855TIP3   OH223507   7.211   5.743   4.128  0.2218  0.2197  0.0524
 7855TIP3    H123508   7.234   5.675   4.064  0.2581 -1.3875  1.7450
 7855TIP3    H223509   7.291   5.757   4.178 -0.7491 -1.1151  2.0527
 7856TIP3   OH223510   6.265   6.287   3.624 -0.0699 -0.1120 -0.1482
 7856TIP3    H123511   6.214   6.211   3.652  0.9438 -1.7459 -2.5242
 7856TIP3    H223512   6.352   6.271   3.661  0.1695 -0.1666 -0.7330
 7857TIP3   OH223513   7.983   6.437   3.359  0.4905 -0.0372 -0.1044
 7857TIP3    H123514   8.048   6.383   3.315 -0.7018 -0.1817 -1.7513
 7857TIP3    H223515   7.908   6.378   3.373  0.5458  0.2322  1.3799
 7858TIP3   OH223516   6.008   7.260   3.841  0.2938 -0.3072  0.5102
 7858TIP3    H123517   6.025   7.345   3.879  1.4724 -0.3287  0.0600
 7858TIP3    H223518   5.954   7.214   3.905 -1.8993  1.4133 -0.0355
 7859TIP3   OH223519   4.944   6.460   4.056 -0.6037  0.4200 -0.3089
 7859TIP3    H123520   5.002   6.530   4.027 -0.8611  0.6032 -0.3812
 7859TIP3    H223521   4.966   6.386   3.999  1.4266 -0.3659  1.3846
 7860TIP3   OH223522   0.781   0.327   3.735 -0.2646  0.2200  0.0440
 7860TIP3    H123523   0.689   0.351   3.727 -0.4227 -1.0856 -2.5788
 7860TIP3    H223524   0.827   0.392   3.682  0.0227 -0.8648 -1.0526
 7861TIP3   OH223525   6.045   4.255   4.686  0.0274 -0.4359  0.1904
 7861TIP3    H123526   6.092   4.332   4.654 -1.2883 -0.1304 -1.0881
 7861TIP3    H223527   6.084   4.182   4.639  0.6494 -0.4330  0.7053
 7862TIP3   OH223528   5.247   5.915   4.510  0.3863  0.1424 -0.2607
 7862TIP3    H123529   5.264   6.005   4.483 -0.3569  0.3157 -0.1431
 7862TIP3    H223530   5.153   5.904   4.502  0.5874 -0.9382 -1.2085
 7863TIP3   OH223531   6.011   4.377   2.949  0.4982  0.2676 -0.3091
 7863TIP3    H123532   5.970   4.371   3.036  0.3660  0.7030 -0.3403
 7863TIP3    H223533   6.061   4.296   2.941  0.9048  0.4368  0.3804
 7864TIP3   OH223534   7.091   1.963   6.405  0.2317 -0.1216 -0.2099
 7864TIP3    H123535   7.003   1.966   6.369  0.4287  1.2395 -0.6113
 7864TIP3    H223536   7.148   1.980   6.330  0.7557  0.4690  0.3218
 7865TIP3   OH223537   7.938   5.130   5.529  0.1773 -0.2521  0.4376
 7865TIP3    H123538   7.936   5.145   5.624 -0.2711  0.8406  0.2625
 7865TIP3    H223539   8.018   5.080   5.515  0.2689 -0.3952  1.3893
 7866TIP3   OH223540   5.882   4.333   3.186 -0.0699  0.1348  0.0831
 7866TIP3    H123541   5.880   4.394   3.260  2.5737 -1.1630  1.2869
 7866TIP3    H223542   5.837   4.255   3.218 -0.7586  0.3284 -0.4066
 7867TIP3   OH223543   5.976   4.186   6.489 -0.2106  0.3300 -0.2405
 7867TIP3    H123544   5.929   4.151   6.413  0.8277 -1.8775  0.0764
 7867TIP3    H223545   5.966   4.281   6.482 -0.7724  0.1273 -2.7145
 7868TIP3   OH223546   5.130   4.606   4.721 -0.0012  0.1739  0.1310
 7868TIP3    H123547   5.072   4.642   4.654  0.5867  0.3736 -0.2795
 7868TIP3    H223548   5.162   4.682   4.769  0.3206  0.1125  0.0205
 7869TIP3   OH223549   5.251   4.954   5.717 -0.1585  0.0386 -0.4348
 7869TIP3    H123550   5.213   4.872   5.748  0.1576  0.0980  0.1083
 7869TIP3    H223551   5.188   4.987   5.653  0.1613 -1.1119 -1.3619
 7870TIP3   OH223552   7.443   4.780   3.863  0.4089  0.3003  0.1709
 7870TIP3    H123553   7.486   4.854   3.821  0.4554 -0.0917 -0.4760
 7870TIP3    H223554   7.510   4.711   3.863 -0.3972 -0.5073 -1.3808
 7871TIP3   OH223555   3.037   5.100   1.657 -0.3328  0.1210 -0.9438
 7871TIP3    H123556   2.962   5.049   1.625 -2.0464  1.1974  1.2389
 7871TIP3    H223557   3.045   5.076   1.749  2.0832 -0.0494 -1.1832
 7872TIP3   OH223558   4.609   3.438   3.274  0.3684 -0.6352 -0.1677
 7872TIP3    H123559   4.678   3.408   3.334 -1.9124 -1.6545  2.0360
 7872TIP3    H223560   4.560   3.503   3.324 -0.6360 -0.3494 -1.5077
 7873TIP3   OH223561   4.776   3.300   3.451 -0.1181 -0.0807 -0.3825
 7873TIP3    H123562   4.752   3.266   3.538 -0.6960  0.7069 -0.2322
 7873TIP3    H223563   4.781   3.222   3.396 -2.3901 -0.3325 -0.2645
 7874TIP3   OH223564   7.389   4.721   2.818 -0.2752  0.1006 -0.3608
 7874TIP3    H123565   7.386   4.764   2.733  0.6364 -1.4438 -1.1900
 7874TIP3    H223566   7.298   4.715   2.846 -0.5910  0.4383 -1.3215
 7875TIP3   OH223567   5.377   4.676   4.583 -0.5223 -0.1822 -0.4882
 7875TIP3    H123568   5.283   4.689   4.567 -0.6015  0.4781  0.4480
 7875TIP3    H223569   5.414   4.765   4.581 -0.6296  0.0580  3.3492
 7876TIP3   OH223570   5.789   1.635   4.931 -0.2373 -0.2218 -0.2105
 7876TIP3    H123571   5.742   1.632   4.848 -2.1396  0.2037  0.8355
 7876TIP3    H223572   5.806   1.543   4.952 -3.3739 -0.5862  0.9384
 7877TIP3   OH223573   4.219   5.435   2.226  0.5411 -0.2676  0.0557
 7877TIP3    H123574   4.298   5.420   2.277  1.0763  0.1296 -0.6457
 7877TIP3    H223575   4.218   5.529   2.210  0.6488 -0.4497 -1.0817
 7878TIP3   OH223576   6.211   4.730   4.550  0.0649 -0.0152 -0.2079
 7878TIP3    H123577   6.129   4.770   4.520 -0.2295 -0.3645  0.1380
 7878TIP3    H223578   6.186   4.678   4.626  0.8816  1.2214  0.9252
 7879TIP3   OH223579   7.243   3.854   1.862  0.0999  0.3750 -0.2689
 7879TIP3    H123580   7.296   3.933   1.867  1.3697 -0.4559 -0.1940
 7879TIP3    H223581   7.183   3.859   1.936  0.3598  1.1321 -0.1141
 7880TIP3   OH223582   8.117   3.907   3.849 -0.0885 -0.3759  0.2997
 7880TIP3    H123583   8.026   3.887   3.868 -0.1853 -1.3184 -1.0493
 7880TIP3    H223584   8.164   3.890   3.930 -0.9442 -1.0703  0.6482
 7881TIP3   OH223585   7.886   2.634   3.886  0.3181  0.1930 -0.3805
 7881TIP3    H123586   7.826   2.610   3.957  0.8986 -0.8466 -0.2195
 7881TIP3    H223587   7.829   2.653   3.812 -0.4141  3.3001  0.8866
 7882TIP3   OH223588   0.258   4.293   1.968 -0.3663  0.1244  0.1468
 7882TIP3    H123589   0.299   4.356   2.026 -0.1533  0.0276  0.1044
 7882TIP3    H223590   0.181   4.338   1.933  0.6761  0.9469 -1.1457
 7883TIP3   OH223591   7.598   4.500   0.921 -0.6044 -0.6635  0.7967
 7883TIP3    H123592   7.630   4.448   0.847  0.2691 -0.8829  1.3221
 7883TIP3    H223593   7.557   4.435   0.979  1.2532 -0.9280  1.8727
 7884TIP3   OH223594   7.667   4.884   1.610 -0.3940 -0.7387 -0.1032
 7884TIP3    H123595   7.678   4.979   1.615 -1.1664 -0.6649  0.2457
 7884TIP3    H223596   7.708   4.860   1.527 -0.1861 -0.1006 -0.1874
 7885TIP3   OH223597   6.484   7.383   2.875 -0.3794  0.0491 -0.5585
 7885TIP3    H123598   6.462   7.339   2.957  0.0240 -1.2041 -1.1116
 7885TIP3    H223599   6.490   7.475   2.898 -0.4862 -0.2706  0.7825
 7886TIP3   OH223600   7.810   4.319   1.934  0.4436 -0.7569  0.0615
 7886TIP3    H123601   7.732   4.365   1.902  1.0291  0.4699  0.3539
 7886TIP3    H223602   7.853   4.288   1.854  1.4509  1.5631 -0.3404
 7887TIP3   OH223603   7.873   4.360   3.067  0.5505  0.5018  0.5593
 7887TIP3    H123604   7.925   4.360   3.148  0.4119 -1.6033  0.6816
 7887TIP3    H223605   7.787   4.328   3.094 -0.2530  2.1001 -0.0097
 7888TIP3   OH223606   8.035   4.753   4.272  0.2117  0.0193  0.1353
 7888TIP3    H123607   7.977   4.717   4.339 -0.3293  1.9054  0.6920
 7888TIP3    H223608   7.982   4.752   4.192  0.0401  0.0547  0.2480
 7889TIP3   OH223609   1.763   5.298   1.275  0.8265  0.2050  0.2854
 7889TIP3    H123610   1.808   5.350   1.208  0.5628  0.6623  0.4551
 7889TIP3    H223611   1.674   5.286   1.241  0.5342  0.8801  0.7695
 7890TIP3   OH223612   5.074   5.738   4.225 -0.4822 -0.3311  0.1535
 7890TIP3    H123613   5.056   5.765   4.315  0.7756 -0.1825  0.3700
 7890TIP3    H223614   5.004   5.676   4.204  0.2045 -1.7045  1.8378
 7891TIP3   OH223615   6.970   4.930   4.254 -0.4371  0.2548 -0.1755
 7891TIP3    H123616   7.028   4.859   4.227  0.7919  1.3384 -0.4020
 7891TIP3    H223617   6.882   4.899   4.232  0.2098 -0.5893 -1.6001
 7892TIP3   OH223618   7.145   5.542   3.701 -0.2273  0.1042  0.6561
 7892TIP3    H123619   7.239   5.554   3.687 -0.2598  0.0058  0.3570
 7892TIP3    H223620   7.105   5.626   3.680 -0.3447 -0.2217 -0.4639
 7893TIP3   OH223621   7.873   6.566   3.119  1.0044 -0.3051  0.2124
 7893TIP3    H123622   7.794   6.619   3.106  0.8840 -0.1951  1.2825
 7893TIP3    H223623   7.844   6.496   3.178  1.6682 -0.3638  0.4678
 7894TIP3   OH223624   8.445   3.868   4.135  0.6461 -0.3571 -0.2164
 7894TIP3    H123625   8.526   3.893   4.180 -0.1990  0.1046  1.0841
 7894TIP3    H223626   8.462   3.780   4.102  2.2629  0.3883 -1.4074
 7895TIP3   OH223627   7.405   3.648   3.094 -0.3707 -0.4449 -0.7396
 7895TIP3    H123628   7.349   3.716   3.132  1.2052 -0.4987  1.7632
 7895TIP3    H223629   7.387   3.653   3.000 -2.9406  1.0062 -0.2330
 7896TIP3   OH223630   7.961   6.883   2.259  0.4010 -0.1500 -0.7778
 7896TIP3    H123631   8.038   6.833   2.232  0.7212  0.6059 -1.2763
 7896TIP3    H223632   7.995   6.953   2.315  0.1478  0.5405 -1.4754
 7897TIP3   OH223633   6.996   4.561   3.855 -0.1857  0.0077  0.0912
 7897TIP3    H123634   7.090   4.544   3.850 -0.5813 -2.7070  0.7173
 7897TIP3    H223635   6.962   4.530   3.770 -0.6987 -0.5039  0.4786
 7898TIP3   OH223636   5.691   5.561   3.612  0.3502  0.0226 -0.1090
 7898TIP3    H123637   5.665   5.590   3.699 -0.3310 -3.3049  0.8635
 7898TIP3    H223638   5.673   5.467   3.611  0.6721 -0.0862 -3.7275
 7899TIP3   OH223639   5.762   6.661   1.875  0.0512 -0.3972 -0.3142
 7899TIP3    H123640   5.736   6.625   1.959 -0.6617  2.4402  0.7565
 7899TIP3    H223641   5.682   6.700   1.840  1.0479  1.3661 -0.7194
 7900TIP3   OH223642   7.007   4.366   4.432 -0.3482  0.5149  0.1461
 7900TIP3    H123643   7.069   4.430   4.397 -0.8477  1.2832  0.6428
 7900TIP3    H223644   7.059   4.286   4.445  0.0177  0.4554 -1.5673
 7901TIP3   OH223645   7.720   3.327   1.496  0.0773 -0.0550 -0.0278
 7901TIP3    H123646   7.736   3.236   1.521  0.4061 -0.0209 -0.1166
 7901TIP3    H223647   7.739   3.330   1.403  2.1276  0.5805  0.3852
 7902TIP3   OH223648   0.585   6.671   1.573  0.7007 -0.4674 -0.6311
 7902TIP3    H123649   0.658   6.635   1.622 -0.0984 -1.0113  0.1818
 7902TIP3    H223650   0.550   6.597   1.523 -0.3948 -0.6400  0.3638
 7903TIP3   OH223651   0.079   4.530   2.790 -0.0339  0.0713  0.4879
 7903TIP3    H123652   0.126   4.607   2.821 -0.3174  0.4598 -0.0377
 7903TIP3    H223653   0.023   4.563   2.720  2.0059 -1.1387 -1.7585
 7904TIP3   OH223654   6.139   5.595   2.569 -0.5516  0.3432 -0.6211
 7904TIP3    H123655   6.091   5.646   2.635 -1.5620 -0.5053 -0.6845
 7904TIP3    H223656   6.230   5.602   2.595 -0.9012  0.3492  0.6543
 7905TIP3   OH223657   1.083   4.325   3.572  0.1712 -0.1994  0.2417
 7905TIP3    H123658   0.993   4.306   3.547  0.3084 -0.3109 -0.1793
 7905TIP3    H223659   1.082   4.326   3.668  0.1130 -2.0881  0.2848
 7906TIP3   OH223660   5.509   3.307   2.749  0.2213  0.6339  0.0246
 7906TIP3    H123661   5.596   3.325   2.714 -0.1898  0.1578 -1.2821
 7906TIP3    H223662   5.475   3.238   2.692  0.4475 -1.8576  2.7720
 7907TIP3   OH223663   7.060   4.110   2.662  0.1631 -0.1889 -0.5098
 7907TIP3    H123664   7.088   4.038   2.718 -0.2963  0.2760  0.3207
 7907TIP3    H223665   7.123   4.179   2.679  1.0463 -0.6371 -1.8601
 7908TIP3   OH223666   6.868   5.173   2.366  0.2641 -0.0776 -0.4438
 7908TIP3    H123667   6.963   5.187   2.357  0.2452 -0.1208 -0.7031
 7908TIP3    H223668   6.855   5.161   2.460  0.3158  1.3714 -0.2471
 7909TIP3   OH223669   5.148   5.493   3.297  0.1106  0.4742 -0.2283
 7909TIP3    H123670   5.064   5.473   3.338  1.1472 -3.2068  0.3461
 7909TIP3    H223671   5.132   5.485   3.203  0.3672 -3.0575 -0.0384
 7910TIP3   OH223672   0.107   4.809   4.723 -0.3475 -0.5391  0.0797
 7910TIP3    H123673   0.142   4.897   4.710  0.9755 -0.9244  0.8708
 7910TIP3    H223674   0.014   4.816   4.703 -0.2776  1.0675  0.3124
 7911TIP3   OH223675   6.607   4.139   3.940 -0.0526 -0.4331  0.2856
 7911TIP3    H123676   6.535   4.118   3.880 -0.2844  0.8086  0.1072
 7911TIP3    H223677   6.567   4.144   4.026  0.4010 -2.8877  0.6605
 7912TIP3   OH223678   6.364   3.872   2.389  0.6471 -0.0947  0.0468
 7912TIP3    H123679   6.361   3.799   2.450  1.5928 -0.0766  0.1223
 7912TIP3    H223680   6.356   3.950   2.445 -1.4231 -0.1510 -0.1258
 7913TIP3   OH223681   6.955   4.881   3.530 -0.2993 -0.0862  0.0608
 7913TIP3    H123682   6.925   4.851   3.615 -2.4940 -0.4832 -0.8262
 7913TIP3    H223683   6.950   4.977   3.535  2.8703  0.0636  1.5110
 7914TIP3   OH223684   7.181   7.914   2.492 -0.0524 -0.4505 -0.1007
 7914TIP3    H123685   7.091   7.880   2.496 -0.5038  0.9611  2.2424
 7914TIP3    H223686   7.235   7.836   2.475 -1.4705 -1.6967  0.9857
 7915TIP3   OH223687   7.219   4.511   2.018 -0.1879  0.0143  0.2245
 7915TIP3    H123688   7.131   4.474   2.014  1.0269 -2.7995 -1.3142
 7915TIP3    H223689   7.263   4.460   2.086  0.3964  1.1345  0.6964
 7916TIP3   OH223690   5.348   5.686   1.783  0.1035  0.0803 -0.4327
 7916TIP3    H123691   5.409   5.732   1.725  1.5847  0.6137  1.5193
 7916TIP3    H223692   5.314   5.614   1.729  1.1607  0.7862 -2.0757
 7917TIP3   OH223693   8.391   5.190   0.528 -0.1656  0.2550 -0.3041
 7917TIP3    H123694   8.464   5.131   0.543  1.0461  1.4433 -1.3412
 7917TIP3    H223695   8.367   5.176   0.436 -1.1705 -0.0430 -0.0015
 7918TIP3   OH223696   6.926   6.033   2.769 -0.1842  0.2691  0.3984
 7918TIP3    H123697   6.887   6.051   2.683 -0.1205 -0.9959  0.1010
 7918TIP3    H223698   6.959   6.118   2.798  0.0732  0.6533 -0.9642
 7919TIP3   OH223699   6.165   4.009   1.747  0.7360  0.4084 -0.0903
 7919TIP3    H123700   6.096   3.944   1.735  0.2801  0.7789  0.5045
 7919TIP3    H223701   6.196   3.995   1.837  1.7837 -0.0845 -0.5101
 7920TIP3   OH223702   8.095   5.339   3.019 -0.1869 -0.3739  0.1296
 7920TIP3    H123703   8.005   5.330   2.985  0.8187 -2.6858 -2.1498
 7920TIP3    H223704   8.109   5.259   3.069  1.3451 -1.1105 -1.4363
 7921TIP3   OH223705   7.465   1.052   0.217  0.0035 -0.3169 -0.1277
 7921TIP3    H123706   7.511   1.129   0.182 -1.0948 -0.7470 -2.6329
 7921TIP3    H223707   7.387   1.089   0.260  0.8101  0.1326  0.9940
 7922TIP3   OH223708   7.221   5.558   1.670  0.2573  0.2117  0.2941
 7922TIP3    H123709   7.172   5.613   1.730  2.3734  2.0106  0.4590
 7922TIP3    H223710   7.266   5.495   1.726 -0.7971 -0.5772  0.2566
 7923TIP3   OH223711   1.741   3.706   0.406 -0.2916  0.0953 -0.2749
 7923TIP3    H123712   1.652   3.742   0.397 -0.6732 -0.8917 -0.4895
 7923TIP3    H223713   1.781   3.721   0.320  0.0324  1.2859  0.0779
 7924TIP3   OH223714   7.801   4.531   2.822  0.3409 -0.4336 -0.3782
 7924TIP3    H123715   7.886   4.562   2.853 -0.7870  0.9090  1.4473
 7924TIP3    H223716   7.773   4.466   2.885 -1.0982  0.9380  0.4535
 7925TIP3   OH223717   6.117   6.848   2.779  0.0060  0.0256  0.2301
 7925TIP3    H123718   6.095   6.882   2.692  0.3960 -0.0866  0.0881
 7925TIP3    H223719   6.152   6.924   2.826 -2.0232  0.5634  0.9414
 7926TIP3   OH223720   5.761   3.563   4.136 -0.1547 -0.0120  0.8427
 7926TIP3    H123721   5.697   3.626   4.102 -0.6012 -0.6013  0.5764
 7926TIP3    H223722   5.709   3.501   4.188  0.3178  0.0054  1.3411
 7927TIP3   OH223723   8.345   4.056   4.956  0.1623 -0.7575 -0.2610
 7927TIP3    H123724   8.388   4.141   4.959 -2.6677  0.7232  1.2183
 7927TIP3    H223725   8.314   4.048   4.866 -2.1840  1.2446  0.3014
 7928TIP3   OH223726   7.918   4.041   4.495  0.0833 -0.0504  0.3849
 7928TIP3    H123727   7.980   4.088   4.551  1.0734  0.6998 -1.2782
 7928TIP3    H223728   7.949   4.059   4.406 -1.5627 -1.0472 -0.4069
 7929TIP3   OH223729   1.292   4.553   2.727 -0.6880 -0.1909 -0.6477
 7929TIP3    H123730   1.270   4.599   2.809 -0.5737 -0.0262 -0.7098
 7929TIP3    H223731   1.269   4.615   2.658 -0.2975 -0.1290 -0.7244
 7930TIP3   OH223732   8.382   2.927   2.153 -0.1314 -0.3871  0.5601
 7930TIP3    H123733   8.438   2.985   2.101 -2.0387  0.4107 -0.6442
 7930TIP3    H223734   8.342   2.983   2.219 -0.6480 -0.6602  0.4859
 7931TIP3   OH223735   7.600   3.782   3.520  0.7885  0.0641  0.0416
 7931TIP3    H123736   7.597   3.771   3.615  1.2959 -0.0001  0.0496
 7931TIP3    H223737   7.681   3.739   3.493 -0.4360 -1.8551 -0.6930
 7932TIP3   OH223738   6.644   5.345   2.359  0.6490  0.3934  0.4228
 7932TIP3    H123739   6.640   5.381   2.447  0.8552  0.0359  0.5818
 7932TIP3    H223740   6.702   5.269   2.367  0.4316  0.1838  0.0409
 7933TIP3   OH223741   6.361   2.986   3.387  0.3831  0.1233 -0.0222
 7933TIP3    H123742   6.350   3.074   3.424  0.7396 -0.2482  0.9849
 7933TIP3    H223743   6.290   2.935   3.426  0.6493 -0.2259  0.0075
 7934TIP3   OH223744   8.263   5.340   1.790  0.3047 -0.1669 -0.2711
 7934TIP3    H123745   8.186   5.302   1.749  0.2124 -2.2207  1.7219
 7934TIP3    H223746   8.235   5.427   1.819 -1.4344 -1.1052  0.9116
 7935TIP3   OH223747   7.712   1.633   5.224 -0.5193 -0.1147 -0.1118
 7935TIP3    H123748   7.743   1.574   5.293 -0.3806 -1.4510 -1.2909
 7935TIP3    H223749   7.621   1.651   5.247  0.3813  1.8616  2.0384
 7936TIP3   OH223750   5.325   3.667   4.516 -0.0006 -0.3103  0.8766
 7936TIP3    H123751   5.239   3.704   4.536 -0.3103  0.0493 -0.9589
 7936TIP3    H223752   5.363   3.646   4.601 -0.9316  1.7415  1.8406
 7937TIP3   OH223753   6.422   4.967   4.151  0.7480 -0.0456  0.0527
 7937TIP3    H123754   6.358   5.032   4.182  0.2810 -0.7262  0.5624
 7937TIP3    H223755   6.413   4.895   4.213  0.1652 -1.2380 -1.3922
 7938TIP3   OH223756   5.972   4.375   4.084  0.0302  0.2664  0.0399
 7938TIP3    H123757   6.059   4.377   4.044  0.1245 -1.7674  0.0786
 7938TIP3    H223758   5.915   4.415   4.018  0.9200  1.2278 -0.1596
 7939TIP3   OH223759   5.491   2.362   2.864  0.2687 -0.1333 -0.1207
 7939TIP3    H123760   5.536   2.324   2.789  0.2474  0.6540 -0.5399
 7939TIP3    H223761   5.545   2.438   2.888 -1.7789  1.9093 -1.7733
 7940TIP3   OH223762   7.779   5.250   4.506  0.0501  0.0933 -0.4112
 7940TIP3    H123763   7.718   5.259   4.433 -0.0978  0.4677 -0.2417
 7940TIP3    H223764   7.865   5.238   4.465 -0.0798 -0.0424 -0.6458
 7941TIP3   OH223765   5.826   4.139   3.753 -0.2660  0.3605 -0.2222
 7941TIP3    H123766   5.901   4.116   3.808 -0.4079 -0.3782 -0.3400
 7941TIP3    H223767   5.814   4.233   3.768 -0.7618  0.0358  1.5761
 7942TIP3   OH223768   5.942   1.835   5.061  0.1830 -0.4374  0.0663
 7942TIP3    H123769   5.882   1.770   5.026 -0.0379 -0.6878  0.9039
 7942TIP3    H223770   6.029   1.804   5.036  0.0266 -0.6416 -0.2206
 7943TIP3   OH223771   8.372   5.226   5.711  0.2226  0.4325  0.3595
 7943TIP3    H123772   8.294   5.172   5.721  0.0464  0.6190 -0.0249
 7943TIP3    H223773   8.391   5.224   5.617  0.7335  0.3074  0.4660
 7944TIP3   OH223774   7.005   3.315   2.416 -0.2478  0.4162 -0.0207
 7944TIP3    H123775   6.926   3.343   2.370 -0.9567  0.4622  1.2244
 7944TIP3    H223776   7.075   3.368   2.378 -1.0773  1.5740  0.0545
 7945TIP3   OH223777   7.594   4.562   2.141  0.0708 -0.2587 -0.2065
 7945TIP3    H123778   7.597   4.520   2.055 -1.0080 -1.2654  0.2358
 7945TIP3    H223779   7.663   4.628   2.138  1.4147 -1.6866 -1.1139
 7946TIP3   OH223780   7.506   6.876   2.281 -0.7974 -0.0424 -0.4364
 7946TIP3    H123781   7.500   6.962   2.238  0.6728  0.1472 -0.2706
 7946TIP3    H223782   7.460   6.888   2.364 -0.0642  0.7700 -0.1392
 7947TIP3   OH223783   7.199   6.730   2.277  0.6164 -0.0555 -0.1224
 7947TIP3    H123784   7.195   6.808   2.222  0.5660 -0.1064 -0.1917
 7947TIP3    H223785   7.284   6.691   2.255  0.7294  0.0886  0.0618
 7948TIP3   OH223786   6.516   3.466   2.944 -0.1346  0.0687  0.3594
 7948TIP3    H123787   6.573   3.430   3.012 -0.0862 -1.9710 -0.7417
 7948TIP3    H223788   6.498   3.393   2.886 -1.1096  1.5135 -1.2074
 7949TIP3   OH223789   1.084   2.680   3.833 -0.6423 -0.5012 -0.0791
 7949TIP3    H123790   1.003   2.656   3.877 -1.0887  0.2649 -0.4795
 7949TIP3    H223791   1.058   2.693   3.741 -0.2370  0.6663 -0.0256
 7950TIP3   OH223792   6.059   4.720   4.906  0.1420  0.1558 -0.3621
 7950TIP3    H123793   5.974   4.697   4.944 -1.1873  0.1315 -3.2386
 7950TIP3    H223794   6.110   4.640   4.911 -0.6650 -0.3611 -0.4020
 7951TIP3   OH223795   7.765   2.012   0.085  0.4484 -0.0970  0.2417
 7951TIP3    H123796   7.711   2.068   0.029  3.5033 -0.6665 -3.5302
 7951TIP3    H223797   7.767   2.057   0.169 -1.7883  2.4894 -0.9859
 7952TIP3   OH223798   7.077   3.854   2.080  0.4430  0.3031  0.2195
 7952TIP3    H123799   7.054   3.945   2.101  2.0159  0.9565 -0.7122
 7952TIP3    H223800   7.003   3.802   2.111 -0.0037  1.7997  1.7376
 7953TIP3   OH223801   0.148   4.970   1.543  0.0540 -0.2565 -0.1548
 7953TIP3    H123802   0.201   4.995   1.619 -0.5935 -0.4637  0.3760
 7953TIP3    H223803   0.060   4.959   1.579  0.1301 -2.3242 -0.5617
 7954TIP3   OH223804   7.034   4.354   3.018 -0.6038  0.1582 -0.1032
 7954TIP3    H123805   6.961   4.299   3.048 -0.5209  0.8381  1.3620
 7954TIP3    H223806   7.090   4.294   2.968 -1.6635 -0.5857 -0.4267
 7955TIP3   OH223807   8.138   3.188   2.088 -0.0562  0.2758 -0.6440
 7955TIP3    H123808   8.217   3.236   2.064 -0.6449  0.9984 -1.1507
 7955TIP3    H223809   8.067   3.251   2.076 -0.5657  0.0650  1.1980
 7956TIP3   OH223810   6.493   4.076   2.677 -0.3108 -0.1270  0.1996
 7956TIP3    H123811   6.473   4.017   2.750  1.3265  0.9782  1.5666
 7956TIP3    H223812   6.587   4.093   2.685 -0.4365  1.2782 -1.2250
 7957TIP3   OH223813   7.651   5.450   2.491 -0.5490  0.7837  0.3954
 7957TIP3    H123814   7.704   5.378   2.525  1.4228  2.8752  1.9502
 7957TIP3    H223815   7.581   5.408   2.442  1.6507 -2.1285 -0.3764
 7958TIP3   OH223816   5.639   4.486   2.616 -0.4038 -0.2787  0.5272
 7958TIP3    H123817   5.707   4.440   2.665 -0.1376  1.4707  1.8544
 7958TIP3    H223818   5.582   4.416   2.583  0.7849 -1.6313  1.2794
 7959TIP3   OH223819   6.808   7.071   2.261 -0.5739  0.3545 -0.2426
 7959TIP3    H123820   6.771   7.038   2.179 -2.5573  0.7274  0.4695
 7959TIP3    H223821   6.801   6.996   2.321  0.1031  0.3407 -0.1843
 7960TIP3   OH223822   6.557   5.782   2.843 -0.2607 -0.2205  0.0128
 7960TIP3    H123823   6.633   5.731   2.815  0.9667  1.8431 -0.4793
 7960TIP3    H223824   6.559   5.777   2.939 -0.7155 -1.8617 -0.0360
 7961TIP3   OH223825   7.479   6.359   2.491 -0.2186  0.0130  0.2082
 7961TIP3    H123826   7.562   6.372   2.537  0.8942  1.3733 -2.0883
 7961TIP3    H223827   7.500   6.295   2.423 -0.9371  0.6784 -0.6460
 7962TIP3   OH223828   7.993   6.042   1.174 -0.0674  0.0917  0.2444
 7962TIP3    H123829   7.992   6.058   1.269  1.7915  1.2634  0.0969
 7962TIP3    H223830   8.053   6.108   1.139  0.2171 -1.1054 -1.6089
 7963TIP3   OH223831   5.965   6.656   2.365  0.0529 -0.4998 -0.5643
 7963TIP3    H123832   6.052   6.695   2.368 -0.1945  0.0613 -0.6151
 7963TIP3    H223833   5.979   6.565   2.389  0.4264 -0.0314  1.1039
 7964TIP3   OH223834   4.810   4.202   2.850  0.0038  0.2488  0.2413
 7964TIP3    H123835   4.897   4.173   2.879 -0.4620 -1.7241 -0.2518
 7964TIP3    H223836   4.752   4.129   2.871 -1.4139  1.2340 -0.1524
 7965TIP3   OH223837   7.384   4.344   2.985  0.2298 -0.0557  0.5794
 7965TIP3    H123838   7.327   4.361   2.910  2.6165 -0.9810 -1.5311
 7965TIP3    H223839   7.381   4.249   2.996  2.1971 -0.2759 -0.3469
 7966TIP3   OH223840   6.671   6.147   1.277 -0.2780  0.3378 -0.0180
 7966TIP3    H123841   6.657   6.242   1.276 -3.4347 -0.1005 -1.4279
 7966TIP3    H223842   6.611   6.115   1.343 -0.3395 -0.8509 -0.6463
 7967TIP3   OH223843   6.020   6.391   1.933 -0.2150 -0.3034 -0.3196
 7967TIP3    H123844   6.097   6.384   1.990  0.2653 -1.4170 -1.1004
 7967TIP3    H223845   5.947   6.406   1.993  0.7422  1.8140  0.3740
 7968TIP3   OH223846   7.070   6.718   2.797  0.9252  0.4112 -0.0186
 7968TIP3    H123847   7.139   6.652   2.792  0.8952  0.4106 -0.5133
 7968TIP3    H223848   7.106   6.793   2.749  0.0858 -0.0383 -1.3905
 7969TIP3   OH223849   6.933   6.026   0.671 -0.0434 -1.0445  0.2679
 7969TIP3    H123850   6.893   6.047   0.587  0.2151 -2.8020 -0.3370
 7969TIP3    H223851   7.027   6.018   0.651  0.4861  1.8656  1.4238
 7970TIP3   OH223852   5.833   3.774   2.523 -0.0833 -0.3164 -0.1513
 7970TIP3    H123853   5.909   3.750   2.470 -1.2405 -1.5586 -1.2824
 7970TIP3    H223854   5.867   3.777   2.613  1.6184  0.5680 -0.7884
 7971TIP3   OH223855   7.432   5.253   3.794  0.1920  0.4317  0.1390
 7971TIP3    H123856   7.402   5.331   3.841 -2.9378 -1.3375  1.2538
 7971TIP3    H223857   7.427   5.277   3.701  1.9050  2.4208  0.5394
 7972TIP3   OH223858   0.479   3.024   1.678 -0.0183  0.6122 -0.1276
 7972TIP3    H123859   0.519   3.111   1.681 -1.2961  1.1612  2.1469
 7972TIP3    H223860   0.541   2.971   1.628  1.9844  2.2266  0.5658
 7973TIP3   OH223861   8.151   6.554   1.427 -0.3980  0.0230 -0.2044
 7973TIP3    H123862   8.191   6.556   1.515  0.6200  0.1512 -0.6572
 7973TIP3    H223863   8.100   6.635   1.423  1.5280  1.2725 -0.6009
 7974TIP3   OH223864   6.606   3.245   3.120  0.3362  0.2702 -0.5127
 7974TIP3    H123865   6.689   3.199   3.106 -0.6666 -1.0667 -2.2067
 7974TIP3    H223866   6.558   3.188   3.180  0.1863  0.4815 -0.4318
 7975TIP3   OH223867   6.566   3.531   4.961  0.0008  0.1291 -0.0653
 7975TIP3    H123868   6.481   3.488   4.964  1.2943 -2.4670  1.7945
 7975TIP3    H223869   6.611   3.490   4.887 -0.7230  2.3351 -1.7937
 7976TIP3   OH223870   5.799   3.078   4.501  0.0554  0.3339 -0.2535
 7976TIP3    H123871   5.724   3.023   4.477 -0.9414  1.3745  0.4406
 7976TIP3    H223872   5.844   3.030   4.569 -1.8037  1.1396  1.5960
 7977TIP3   OH223873   7.861   1.278   4.904  0.2080  0.2234 -0.0904
 7977TIP3    H123874   7.837   1.309   4.817  2.1798  0.0515 -0.7271
 7977TIP3    H223875   7.904   1.194   4.889 -0.9134 -0.6145  1.2110
 7978TIP3   OH223876   7.150   5.015   3.030 -0.1339 -0.7052  0.4629
 7978TIP3    H123877   7.108   5.099   3.052 -1.1620 -0.6147 -1.7164
 7978TIP3    H223878   7.239   5.039   3.006  0.0767 -0.4466  1.4767
 7979TIP3   OH223879   1.262   6.888   3.210  0.0714  0.0194  0.3804
 7979TIP3    H123880   1.270   6.890   3.306 -1.6651  2.2307  0.5162
 7979TIP3    H223881   1.339   6.935   3.178 -0.3931  1.0439  0.7683
 7980TIP3   OH223882   7.407   3.549   1.548 -0.4358 -0.3736 -0.6401
 7980TIP3    H123883   7.337   3.558   1.612 -0.8732  0.2567 -1.1970
 7980TIP3    H223884   7.476   3.608   1.579 -0.2864 -0.7396 -0.2734
 7981TIP3   OH223885   1.399   3.885   3.602 -0.3590  0.3631  0.2946
 7981TIP3    H123886   1.435   3.807   3.560 -0.0423 -0.5023  2.1178
 7981TIP3    H223887   1.424   3.957   3.544  0.8261 -0.6934 -0.5455
 7982TIP3   OH223888   8.359   3.728   2.290  0.0218 -0.2682 -0.1064
 7982TIP3    H123889   8.397   3.761   2.372 -1.3919  0.1118  0.4067
 7982TIP3    H223890   8.265   3.732   2.304 -0.2047 -2.2387 -0.9654
 7983TIP3   OH223891   5.905   4.053   2.508 -0.5612  0.4525 -0.0371
 7983TIP3    H123892   5.826   4.093   2.470  0.2746  1.8855 -0.3133
 7983TIP3    H223893   5.890   3.959   2.502 -1.6391  0.6964 -1.3931
 7984TIP3   OH223894   6.132   1.995   3.943  0.3783 -0.0500 -0.2221
 7984TIP3    H123895   6.183   1.920   3.911  0.9209 -1.3728  3.5144
 7984TIP3    H223896   6.192   2.043   4.000 -0.7779  1.7651 -0.4821
 7985TIP3   OH223897   7.265   3.799   3.278  0.2876  0.1942 -0.0000
 7985TIP3    H123898   7.216   3.873   3.315 -3.0800 -0.5140 -2.8256
 7985TIP3    H223899   7.280   3.741   3.352 -0.4970  1.8684  1.5180
 7986TIP3   OH223900   0.038   4.266   2.656 -0.0782  0.7470  0.0420
 7986TIP3    H123901  -0.035   4.311   2.614 -0.2614  0.0240 -0.4098
 7986TIP3    H223902   0.080   4.334   2.709  0.5737  1.8394 -1.8363
 7987TIP3   OH223903   7.844   2.762   1.203  0.2610 -0.3203  0.3729
 7987TIP3    H123904   7.808   2.833   1.256 -1.0868 -0.6291 -0.1257
 7987TIP3    H223905   7.795   2.684   1.230  0.8133 -0.8152 -0.0395
 7988TIP3   OH223906   1.888   4.953   3.710 -0.1349  0.0474  0.0825
 7988TIP3    H123907   1.935   5.000   3.779 -1.1364  1.6224 -0.2807
 7988TIP3    H223908   1.798   4.985   3.717 -0.5225 -0.7987 -1.0698
 7989TIP3   OH223909   7.324   1.607   3.599 -0.2819  0.0581  0.5399
 7989TIP3    H123910   7.322   1.512   3.594  0.9696  0.0935 -1.2390
 7989TIP3    H223911   7.404   1.627   3.648  1.4702  0.2205 -2.2644
 7990TIP3   OH223912   1.163   0.241   1.460 -0.3293  0.2814 -0.4386
 7990TIP3    H123913   1.105   0.311   1.431  0.7026  1.1192 -0.5313
 7990TIP3    H223914   1.117   0.200   1.533 -1.7952 -0.1856 -1.6115
 7991TIP3   OH223915   8.269   3.376   6.893 -0.4305  0.8172  0.1755
 7991TIP3    H123916   8.326   3.361   6.969  0.0018 -2.3614 -0.7298
 7991TIP3    H223917   8.245   3.469   6.900  1.5587  1.2060  2.8320
 7992TIP3   OH223918   7.055   3.890   5.308  0.2225  0.0400 -0.1420
 7992TIP3    H123919   6.969   3.852   5.292  0.0443  0.0270  0.8487
 7992TIP3    H223920   7.093   3.901   5.221 -0.8392  0.1838 -0.5909
 7993TIP3   OH223921   8.386   5.489   0.482 -0.0412  0.0142  0.1217
 7993TIP3    H123922   8.379   5.397   0.509 -0.9518 -0.0912 -0.4671
 7993TIP3    H223923   8.473   5.516   0.512 -0.0066 -0.8626  0.8352
 7994TIP3   OH223924   7.916   3.110   2.936 -0.0370 -0.2307  0.1951
 7994TIP3    H123925   7.875   3.196   2.944  0.6455  0.0720  0.4018
 7994TIP3    H223926   7.926   3.097   2.841 -1.4028 -0.6838  0.0971
 7995TIP3   OH223927   0.882   4.191   0.798 -0.2299  0.0717 -0.4252
 7995TIP3    H123928   0.926   4.158   0.876  0.4868  0.9995 -0.4307
 7995TIP3    H223929   0.836   4.269   0.827 -0.0059  0.3864 -0.9157
 7996TIP3   OH223930   6.548   3.657   4.074  0.3844  0.0182  0.1155
 7996TIP3    H123931   6.583   3.618   4.154  1.3318 -1.0828 -0.8234
 7996TIP3    H223932   6.453   3.649   4.082  0.5396 -1.7554  0.3023
 7997TIP3   OH223933   7.488   4.197   4.537 -0.0900  0.2310 -0.6623
 7997TIP3    H123934   7.571   4.233   4.569  0.2113 -0.3526 -0.7831
 7997TIP3    H223935   7.424   4.267   4.553  0.2168  0.2695  0.4220
 7998TIP3   OH223936   8.413   6.826   2.367  0.4813  0.0837 -0.0050
 7998TIP3    H123937   8.429   6.803   2.458  1.2821  0.6950  0.0092
 7998TIP3    H223938   8.385   6.917   2.369  0.8710  0.2154 -0.3987
 7999TIP3   OH223939   5.743   5.866   1.363 -0.2322 -0.4788 -0.3813
 7999TIP3    H123940   5.797   5.877   1.441  0.4946 -0.6214 -0.8588
 7999TIP3    H223941   5.796   5.812   1.305 -0.2890  0.5586 -1.4265
 8000TIP3   OH223942   1.061   1.621   1.466 -0.1211  0.0888 -0.2562
 8000TIP3    H123943   1.049   1.640   1.559 -1.1353  2.1282 -0.7874
 8000TIP3    H223944   1.015   1.691   1.420  0.7723 -0.6185 -2.3117
 8001TIP3   OH223945   6.624   4.818   3.444  0.1602 -0.3419  0.3769
 8001TIP3    H123946   6.679   4.896   3.440 -0.8901  0.3747 -0.5800
 8001TIP3    H223947   6.535   4.851   3.455 -0.0082 -1.5190  2.9905
 8002TIP3   OH223948   7.440   1.985   2.877 -0.2589 -0.1590 -0.5119
 8002TIP3    H123949   7.516   2.042   2.871 -0.6772  0.4827  0.2177
 8002TIP3    H223950   7.369   2.042   2.905 -0.8559 -0.8872 -0.5186
 8003TIP3   OH223951   8.120   5.067   3.116  0.5768  0.4246 -0.4533
 8003TIP3    H123952   8.033   5.029   3.126  0.5189  0.8211  0.5935
 8003TIP3    H223953   8.158   5.062   3.203  0.7320  2.3642 -0.3983
 8004TIP3   OH223954   6.560   4.987   2.258 -0.0718  0.2926 -0.7052
 8004TIP3    H123955   6.642   4.955   2.294  1.7560  1.0261 -3.9561
 8004TIP3    H223956   6.509   4.908   2.239 -0.3717 -0.1429  1.8219
 8005TIP3   OH223957   8.270   3.921   3.263  0.5620 -0.2984 -0.4307
 8005TIP3    H123958   8.268   3.983   3.190  0.9909 -0.6665 -0.7622
 8005TIP3    H223959   8.286   3.836   3.221  0.7984 -0.5153  0.0904
 8006TIP3   OH223960   5.631   2.181   3.113 -0.5795 -0.2499 -0.0481
 8006TIP3    H123961   5.609   2.235   3.037  1.6369  1.1759  0.2790
 8006TIP3    H223962   5.701   2.124   3.081 -0.1721 -0.1775  0.7152
 8007TIP3   OH223963   8.028   4.020   4.765 -1.0783  0.0617  0.4481
 8007TIP3    H123964   8.070   3.978   4.840 -1.2992  0.2040  0.6513
 8007TIP3    H223965   8.099   4.038   4.704 -0.8006  0.5866  0.9273
 8008TIP3   OH223966   7.889   5.386   4.899  0.6174  0.3023  0.5603
 8008TIP3    H123967   7.841   5.399   4.980  0.7467 -0.8086  0.8323
 8008TIP3    H223968   7.822   5.372   4.832  0.4746  2.4552  0.2277
 8009TIP3   OH223969   6.642   6.423   2.620  0.2136 -0.4441 -0.1590
 8009TIP3    H123970   6.588   6.458   2.549 -1.6334 -0.2560  1.3023
 8009TIP3    H223971   6.711   6.488   2.633 -0.8197  0.6669 -0.1900
 8010TIP3   OH223972   8.344   3.937   4.402  0.5739 -0.0600  0.2599
 8010TIP3    H123973   8.297   3.900   4.328  2.5521 -0.2851 -0.9354
 8010TIP3    H223974   8.377   4.022   4.370  0.5019  0.3542  1.2514
 8011TIP3   OH223975   7.156   4.468   5.150 -0.3431 -0.1881 -0.5018
 8011TIP3    H123976   7.145   4.437   5.240  0.3095 -0.8496 -0.6443
 8011TIP3    H223977   7.089   4.536   5.140 -1.9557 -1.7014 -0.2641
 8012TIP3   OH223978   8.474   6.069   3.221 -0.1609 -0.0789 -0.5145
 8012TIP3    H123979   8.397   6.041   3.172 -0.7069  1.4073 -0.5283
 8012TIP3    H223980   8.486   6.161   3.196  1.5718 -0.2802 -0.4540
 8013TIP3   OH223981   6.548   5.420   2.622 -0.0906 -0.4821  0.6020
 8013TIP3    H123982   6.481   5.352   2.636 -0.2229 -0.1140  1.7787
 8013TIP3    H223983   6.498   5.500   2.607  0.0745 -0.0547  2.2385
 8014TIP3   OH223984   7.596   4.976   3.702 -0.3070  0.0908 -0.2639
 8014TIP3    H123985   7.558   4.995   3.616  0.0929 -0.1806 -0.5012
 8014TIP3    H223986   7.606   5.062   3.743 -1.4975  0.1356 -0.0639
 8015TIP3   OH223987   7.742   5.831   5.121  0.3482 -0.4986 -0.2440
 8015TIP3    H123988   7.734   5.816   5.027  0.4896  0.8293 -0.4783
 8015TIP3    H223989   7.652   5.841   5.152  0.3631  0.3325 -0.4594
 8016TIP3   OH223990   6.888   5.292   4.964 -0.1574 -0.4338  0.1295
 8016TIP3    H123991   6.829   5.234   5.010  0.0115 -0.2586  0.5660
 8016TIP3    H223992   6.976   5.263   4.990 -0.0825  0.4264  0.8554
 8017TIP3   OH223993   7.764   2.212   6.025 -0.2922 -0.0373 -0.0003
 8017TIP3    H123994   7.855   2.182   6.026 -0.2941 -0.0436  1.1366
 8017TIP3    H223995   7.759   2.273   6.099 -1.2806 -0.2541  0.1122
 8018TIP3   OH223996   6.445   2.593   3.015 -0.9645 -0.4582  0.7114
 8018TIP3    H123997   6.527   2.545   3.031 -0.0273  0.2432 -1.8160
 8018TIP3    H223998   6.383   2.526   2.987 -0.2981 -0.5271 -0.6150
 8019TIP3   OH223999   7.637   4.839   2.409  0.6948  0.3890 -0.2572
 8019TIP3    H124000   7.725   4.871   2.389  0.8928 -0.7359 -1.2440
 8019TIP3    H224001   7.651   4.770   2.475  0.5520  0.1987 -0.4264
 8020TIP3   OH224002   5.780   5.463   3.207 -0.2178 -0.7483 -0.1889
 8020TIP3    H124003   5.859   5.424   3.244 -0.5410  0.0400  1.3641
 8020TIP3    H224004   5.711   5.441   3.269 -0.5948  1.4052  0.1979
 8021TIP3   OH224005   6.024   7.148   2.324 -0.3940 -0.3411 -0.0002
 8021TIP3    H124006   5.979   7.068   2.296  1.1262 -1.8294  1.6713
 8021TIP3    H224007   6.021   7.144   2.420 -2.1610  2.7206  0.1389
 8022TIP3   OH224008   6.590   4.570   1.720  0.1225 -0.3929  0.1887
 8022TIP3    H124009   6.634   4.570   1.805 -1.0897 -0.1180  0.8301
 8022TIP3    H224010   6.576   4.663   1.701 -1.2555 -0.5016  0.5787
 8023TIP3   OH224011   7.374   4.381   4.164 -0.1019 -0.2333  0.0437
 8023TIP3    H124012   7.422   4.464   4.165  0.2516 -0.4167 -1.2962
 8023TIP3    H224013   7.436   4.317   4.197  0.3323 -0.3396 -0.9758
 8024TIP3   OH224014   1.502   5.356   4.488  0.2673 -0.2058  0.1194
 8024TIP3    H124015   1.425   5.351   4.432 -1.7646  1.2537  2.6555
 8024TIP3    H224016   1.565   5.408   4.438 -1.0908  0.1741 -1.2452
 8025TIP3   OH224017   7.171   5.916   2.183 -0.1547 -0.1269 -0.5211
 8025TIP3    H124018   7.096   5.971   2.163  0.4487  0.0132 -2.5066
 8025TIP3    H224019   7.235   5.936   2.115  2.9552  2.0597  2.8568
 8026TIP3   OH224020   2.341   4.108   1.536  0.4523  0.1799 -0.0501
 8026TIP3    H124021   2.386   4.167   1.597  0.5996 -1.5603  1.5888
 8026TIP3    H224022   2.404   4.038   1.520 -0.8766 -1.2030  0.6260
 8027TIP3   OH224023   8.062   6.370   5.532  0.1967  0.6587  0.3381
 8027TIP3    H124024   8.019   6.442   5.580 -1.2210  0.6502 -0.8957
 8027TIP3    H224025   8.058   6.397   5.440  0.2781 -0.6909 -0.0654
 8028TIP3   OH224026   6.590   4.706   3.056  0.9708 -0.0045 -0.1590
 8028TIP3    H124027   6.607   4.635   3.117 -0.2309 -0.2167 -0.0594
 8028TIP3    H224028   6.497   4.698   3.034  0.5235  2.2018  0.7310
 8029TIP3   OH224029   6.873   4.546   2.918  0.4283  0.4954 -0.1297
 8029TIP3    H124030   6.782   4.518   2.903  0.9800 -0.3252 -2.1046
 8029TIP3    H224031   6.926   4.472   2.890  1.7556  1.5902 -0.5612
 8030TIP3   OH224032   8.202   5.868   6.526  0.1286 -0.0570 -0.0678
 8030TIP3    H124033   8.170   5.888   6.614  1.0751 -0.1803  0.3076
 8030TIP3    H224034   8.123   5.860   6.473 -0.4347  0.2882  0.7158
 8031TIP3   OH224035   6.829   1.481   5.087  0.5172 -0.0315  0.4559
 8031TIP3    H124036   6.772   1.404   5.088 -0.8837  0.9781  1.9988
 8031TIP3    H224037   6.901   1.457   5.145  0.3034 -0.3678  0.5893
 8032TIP3   OH224038   6.903   6.497   3.280 -0.1035  0.1856  0.0019
 8032TIP3    H124039   6.900   6.454   3.194  0.5693  1.9953 -0.9533
 8032TIP3    H224040   6.988   6.470   3.317 -1.2066 -2.1267  0.9489
 8033TIP3   OH224041   8.252   5.431   2.826  0.0287 -0.0400 -0.3345
 8033TIP3    H124042   8.199   5.414   2.904 -1.3427  0.6439 -1.1124
 8033TIP3    H224043   8.203   5.496   2.777  2.8821  2.6646  0.2476
 8034TIP3   OH224044   6.747   6.849   2.403  0.2277  0.4283 -0.4283
 8034TIP3    H124045   6.696   6.827   2.481 -0.2355 -0.7438 -1.0428
 8034TIP3    H224046   6.831   6.805   2.416  0.4482  0.9016 -0.2279
 8035TIP3   OH224047   6.756   4.860   5.078  0.5128 -0.0093  0.9954
 8035TIP3    H124048   6.722   4.793   5.137 -1.4830 -0.0571 -0.1671
 8035TIP3    H224049   6.803   4.811   5.011 -1.3299 -0.3016 -0.1036
 8036TIP3   OH224050   8.442   4.650   2.158 -0.0404  0.2968  0.1494
 8036TIP3    H124051   8.349   4.673   2.158 -0.3917 -1.0956  1.4552
 8036TIP3    H224052   8.486   4.726   2.197 -0.8453  0.1228  1.4020
 8037TIP3   OH224053   5.646   7.006   3.293 -0.1269  0.4361 -0.2972
 8037TIP3    H124054   5.738   7.022   3.269  0.3139  0.7462  1.5470
 8037TIP3    H224055   5.648   6.922   3.339 -0.7216  0.6179  0.0565
 8038TIP3   OH224056   6.961   7.184   5.591  0.0272  0.2000  0.0178
 8038TIP3    H124057   6.946   7.113   5.653 -0.3405 -1.9066 -2.3697
 8038TIP3    H224058   7.051   7.212   5.607 -0.0989 -0.2397  1.5468
 8039TIP3   OH224059   6.039   4.540   2.184 -0.2766 -0.4944 -0.2307
 8039TIP3    H124060   6.114   4.503   2.137 -0.2437 -0.6996 -0.0199
 8039TIP3    H224061   6.076   4.572   2.266 -0.3279 -0.1022 -0.3624
 8040TIP3   OH224062   8.084   6.547   2.690 -0.2428  0.5328  0.2416
 8040TIP3    H124063   8.041   6.495   2.622  0.2959 -0.6754  0.8140
 8040TIP3    H224064   8.172   6.509   2.697  0.1060  1.4283  0.7769
 8041TIP3   OH224065   8.042   7.106   2.401  0.1301  0.1976  0.2348
 8041TIP3    H124066   8.137   7.101   2.412  0.6258  0.8131 -3.4127
 8041TIP3    H224067   8.029   7.146   2.315 -3.4435 -0.1893  0.5164
 8042TIP3   OH224068   7.020   6.733   3.397 -0.1512 -0.0088  0.3852
 8042TIP3    H124069   6.959   6.797   3.361  1.2116  1.9084  1.3487
 8042TIP3    H224070   6.986   6.648   3.369 -3.6534  0.9388  1.5296
 8043TIP3   OH224071   7.477   0.473   5.604 -0.0735  0.1310 -0.4594
 8043TIP3    H124072   7.408   0.407   5.598  0.3868 -0.3102 -0.9056
 8043TIP3    H224073   7.474   0.502   5.695  0.3303 -1.1658 -0.0282
 8044TIP3   OH224074   5.648   3.394   3.120  0.0684  0.0591  0.8139
 8044TIP3    H124075   5.563   3.410   3.078 -0.0252  1.0470  1.3690
 8044TIP3    H224076   5.696   3.340   3.057 -0.2609  1.0958 -0.3330
 8045TIP3   OH224077   8.079   4.081   1.533  0.3382  0.0967 -0.7228
 8045TIP3    H124078   8.026   4.009   1.567  1.6385 -1.1138 -1.2183
 8045TIP3    H224079   8.133   4.041   1.465 -0.5797  2.0074 -2.6416
 8046TIP3   OH224080   6.178   4.647   5.562 -0.1514 -0.2434  0.2961
 8046TIP3    H124081   6.169   4.675   5.471 -1.4014 -1.9360 -0.1114
 8046TIP3    H224082   6.196   4.728   5.610 -0.4745  0.7967 -1.3083
 8047TIP3   OH224083   7.929   1.753   5.140 -0.0257  0.0479 -0.3448
 8047TIP3    H124084   7.987   1.771   5.215  1.7441 -2.0592 -1.1264
 8047TIP3    H224085   7.849   1.718   5.180  1.1425 -1.6523  0.5780
 8048TIP3   OH224086   5.808   5.977   3.562  0.5505  0.1218 -0.2288
 8048TIP3    H124087   5.834   6.056   3.515 -1.1252  0.8346 -0.0122
 8048TIP3    H224088   5.799   5.910   3.495 -0.2926  0.7306 -0.7386
 8049TIP3   OH224089   0.561   3.730   0.540 -0.0277 -0.4133  0.6075
 8049TIP3    H124090   0.527   3.808   0.495  0.6741 -1.0138 -1.0268
 8049TIP3    H224091   0.496   3.711   0.608 -1.3374  0.3099 -0.4076
 8050TIP3   OH224092   7.496   3.163   5.012 -0.1241 -0.7544 -0.6835
 8050TIP3    H124093   7.416   3.155   4.960 -0.7532  1.5136 -0.0982
 8050TIP3    H224094   7.482   3.103   5.085 -1.5261  0.0038 -0.3121
 8051TIP3   OH224095   8.201   6.221   1.076  0.1604 -0.4204  0.1537
 8051TIP3    H124096   8.244   6.269   1.146  1.5721  0.0501 -1.0022
 8051TIP3    H224097   8.263   6.152   1.052 -1.1932 -1.8699  0.7580
 8052TIP3   OH224098   0.856   2.302   3.525  0.4027 -0.0678  0.2110
 8052TIP3    H124099   0.817   2.380   3.485  2.2703  1.1009  0.5933
 8052TIP3    H224100   0.811   2.293   3.609 -0.4041  0.1139 -0.2015
 8053TIP3   OH224101   0.591   3.261   6.170  0.1420 -0.3204  0.7242
 8053TIP3    H124102   0.564   3.208   6.095 -0.0688  0.7016  0.0692
 8053TIP3    H224103   0.687   3.259   6.168  0.1665  0.8733 -0.4401
 8054TIP3   OH224104  -0.016   4.567   4.188  0.2973  0.1675 -0.2230
 8054TIP3    H124105   0.078   4.551   4.179  0.9528  2.9515  1.2436
 8054TIP3    H224106  -0.035   4.547   4.280 -0.4403  0.0597 -0.3976
 8055TIP3   OH224107   5.912   4.052   1.956 -0.7320  0.6133  0.3621
 8055TIP3    H124108   5.955   4.113   1.896 -0.8784  2.3604  2.0155
 8055TIP3    H224109   5.828   4.032   1.913  0.0321  0.2110 -0.9934
 8056TIP3   OH224110   5.799   5.885   3.826 -0.4362 -0.3951 -0.0314
 8056TIP3    H124111   5.807   5.885   3.730 -1.0189 -2.5960 -0.0991
 8056TIP3    H224112   5.798   5.793   3.850 -0.0287  0.1368  2.1455
 8057TIP3   OH224113   1.397   6.616   3.953  0.1594  0.4887  0.1063
 8057TIP3    H124114   1.435   6.689   3.904 -1.6722  0.7341 -0.9950
 8057TIP3    H224115   1.413   6.540   3.898 -0.4543  0.5094 -0.1015
 8058TIP3   OH224116   7.536   6.056   5.651 -0.5824  0.0087 -0.7800
 8058TIP3    H124117   7.462   6.060   5.590  1.2767 -0.3729 -3.1379
 8058TIP3    H224118   7.594   6.127   5.622  0.3760 -0.2605  0.4610
 8059TIP3   OH224119   3.409   0.305   6.311 -0.2302  0.1013  0.2296
 8059TIP3    H124120   3.429   0.287   6.219  0.8604 -1.0510  0.6745
 8059TIP3    H224121   3.419   0.220   6.354 -0.2998  0.7275  1.4873
 8060TIP3   OH224122   0.990   7.760   6.535 -0.3705 -0.5783 -0.1353
 8060TIP3    H124123   1.050   7.825   6.497 -0.1778 -1.1414 -0.7948
 8060TIP3    H224124   0.908   7.773   6.488 -0.8015  0.2294  0.8055
 8061TIP3   OH224125   7.861   5.059   4.060 -0.2151  0.2158 -0.0441
 8061TIP3    H124126   7.881   5.151   4.042  0.8655 -0.1724 -0.8907
 8061TIP3    H224127   7.767   5.052   4.047 -0.2499  1.1267 -0.3459
 8062TIP3   OH224128   1.054   6.420   6.676  0.1496  0.9244  0.4628
 8062TIP3    H124129   0.964   6.432   6.706 -0.6096 -2.5313 -0.2053
 8062TIP3    H224130   1.108   6.440   6.753 -1.4700 -1.7661  2.3497
 8063TIP3   OH224131   8.013   4.547   3.945 -0.0294 -0.0554 -0.0365
 8063TIP3    H124132   8.038   4.533   4.037  2.3608 -0.3893 -0.7231
 8063TIP3    H224133   8.034   4.639   3.929  0.8291 -0.3546 -0.6361
 8064TIP3   OH224134   0.653   5.519   3.640 -0.4448 -0.1996 -0.7671
 8064TIP3    H124135   0.739   5.496   3.674  0.2748  2.3368 -0.7612
 8064TIP3    H224136   0.651   5.482   3.552  0.5233 -0.5205 -0.6574
 8065TIP3   OH224137   7.630   2.667   0.064 -0.2470  0.3492 -0.1663
 8065TIP3    H124138   7.654   2.588   0.014  0.0039  0.4577 -0.2175
 8065TIP3    H224139   7.699   2.675   0.130  1.1548  1.9869 -1.7897
 8066TIP3   OH224140   7.366   6.755   5.554 -0.4105 -0.7567  0.1040
 8066TIP3    H124141   7.324   6.673   5.580 -0.2779 -0.9709 -0.3544
 8066TIP3    H224142   7.297   6.821   5.563 -0.6501 -0.9953  0.0312
 8067TIP3   OH224143   7.353   5.087   5.584 -0.1143 -0.2404 -0.0512
 8067TIP3    H124144   7.430   5.031   5.591  0.2266  0.2235 -0.1357
 8067TIP3    H224145   7.386   5.171   5.553 -0.3564  0.5822  1.8363
 8068TIP3   OH224146   7.811   3.656   5.130  0.0074  0.2812  0.0475
 8068TIP3    H124147   7.892   3.699   5.158 -0.0846  1.0308 -0.7938
 8068TIP3    H224148   7.772   3.624   5.211  0.4397  1.1705  0.6266
 8069TIP3   OH224149   2.680   5.139   5.202  0.6994  0.1919  0.0682
 8069TIP3    H124150   2.733   5.131   5.123  0.6944  0.6276  0.0222
 8069TIP3    H224151   2.594   5.166   5.171  0.3023 -0.9915  0.0957
 8070TIP3   OH224152   0.019   7.040   6.567 -0.1969  0.1283 -0.1644
 8070TIP3    H124153   0.073   7.099   6.516 -0.2589  0.0065 -0.3722
 8070TIP3    H224154  -0.026   7.096   6.630  0.6858  0.1397  0.4507
 8071TIP3   OH224155   8.102   4.726   5.413  0.3322 -0.2703 -0.2039
 8071TIP3    H124156   8.193   4.698   5.421  0.3523 -0.8911 -2.3179
 8071TIP3    H224157   8.105   4.820   5.427  1.0164 -0.5338  1.6306
 8072TIP3   OH224158   7.708   6.955   6.587  0.2737 -0.2571  0.1816
 8072TIP3    H124159   7.672   7.003   6.662  0.9828 -0.0478  0.3955
 8072TIP3    H224160   7.704   6.863   6.614 -0.0863 -0.2373  0.2059
 8073TIP3   OH224161   1.524   7.437   3.916  0.0875  0.6943 -0.3147
 8073TIP3    H124162   1.563   7.361   3.873  1.5359  0.9416  0.5144
 8073TIP3    H224163   1.453   7.463   3.858 -0.8912 -1.6986 -0.2643
 8074TIP3   OH224164   8.370   5.047   3.482 -0.1759  0.0436  0.2222
 8074TIP3    H124165   8.306   5.117   3.495 -0.2314  0.2133 -0.8487
 8074TIP3    H224166   8.444   5.090   3.439  0.3696 -0.2908  0.8161
 8075TIP3   OH224167   7.619   6.007   4.753  0.5061  0.5342 -0.1618
 8075TIP3    H124168   7.611   5.913   4.767 -0.2624  0.7788  1.0766
 8075TIP3    H224169   7.679   6.036   4.822  0.1094  1.0719 -0.0396
 8076TIP3   OH224170   8.327   7.548   4.879  0.2105 -0.6675  0.1456
 8076TIP3    H124171   8.328   7.601   4.799 -0.3793 -1.6266 -0.4940
 8076TIP3    H224172   8.405   7.577   4.927  1.6037 -1.3760 -1.6237
 8077TIP3   OH224173   7.301   1.637   0.509  0.3855 -0.3513  1.0945
 8077TIP3    H124174   7.393   1.611   0.500 -0.1240 -2.4360  1.5815
 8077TIP3    H224175   7.268   1.639   0.419  1.0321  0.9116  0.8791
 8078TIP3   OH224176   0.850   6.157   5.888 -0.0732  0.2543  0.7759
 8078TIP3    H124177   0.827   6.082   5.832  0.5546  0.3212  0.4193
 8078TIP3    H224178   0.917   6.122   5.947  0.0714  0.4814  0.7448
 8079TIP3   OH224179   0.905   5.135   5.196  0.3256  0.0812  0.0739
 8079TIP3    H124180   0.856   5.092   5.267 -1.6159  0.4543 -1.0089
 8079TIP3    H224181   0.981   5.079   5.182 -0.9372 -1.7431  0.3027
 8080TIP3   OH224182   5.165   1.649   0.233 -0.0125  0.3773  0.6953
 8080TIP3    H124183   5.216   1.617   0.158 -1.5786  0.1646 -0.2999
 8080TIP3    H224184   5.179   1.583   0.301 -1.5209 -1.3957 -0.6454
 8081TIP3   OH224185   1.397   3.936   4.348 -0.4092 -0.1913 -0.0155
 8081TIP3    H124186   1.337   4.011   4.348 -2.0584 -1.4802  1.2530
 8081TIP3    H224187   1.408   3.913   4.256  0.8218  2.1409 -0.4943
 8082TIP3   OH224188   1.550   5.542   5.205 -0.2181  0.0093  0.0528
 8082TIP3    H124189   1.541   5.479   5.276  0.5088  0.1416  0.2691
 8082TIP3    H224190   1.482   5.607   5.222  0.7637  0.7216  1.3572
 8083TIP3   OH224191   1.120   7.627   4.532  0.3382 -0.6953  0.2605
 8083TIP3    H124192   1.205   7.585   4.537  1.8407  1.5488 -3.6106
 8083TIP3    H224193   1.061   7.559   4.498  1.3358 -1.3869 -0.0919
 8084TIP3   OH224194   0.070   7.959   6.843 -0.0421 -0.4229 -0.2610
 8084TIP3    H124195   0.073   7.927   6.753 -1.0245 -0.9970 -0.1087
 8084TIP3    H224196  -0.021   7.989   6.854  0.5500  1.3406 -0.0266
 8085TIP3   OH224197   3.267  -0.016   4.857  0.2984  0.2769 -0.3512
 8085TIP3    H124198   3.320  -0.014   4.936 -2.1201  1.1151  1.2957
 8085TIP3    H224199   3.269   0.074   4.825 -2.1948  0.9143  1.1717
 8086TIP3   OH224200   8.413   5.862   2.458  0.7205 -0.3958 -0.0537
 8086TIP3    H124201   8.386   5.856   2.549  0.4787 -0.8370 -0.1577
 8086TIP3    H224202   8.336   5.896   2.412  0.6417 -0.7669 -0.1959
 8087TIP3   OH224203   0.611   4.467   4.516 -0.0336  0.6870  0.6809
 8087TIP3    H124204   0.700   4.462   4.550  0.7721 -0.1795 -1.4335
 8087TIP3    H224205   0.588   4.559   4.523  1.9957  1.3610 -1.0362
 8088TIP3   OH224206   0.918   4.804   6.054  0.4465 -0.3333  0.5604
 8088TIP3    H124207   0.851   4.868   6.080 -1.3688 -2.2880  0.8799
 8088TIP3    H224208   0.891   4.776   5.967  1.2438 -0.6363  0.4102
 8089TIP3   OH224209   8.316   4.782   4.145 -0.2433  0.3602 -0.2521
 8089TIP3    H124210   8.361   4.698   4.137  0.3534  0.8092 -1.7982
 8089TIP3    H224211   8.224   4.762   4.128 -0.2695 -0.1631  0.5098
 8090TIP3   OH224212   8.336   4.658   5.156  0.1095 -0.1330 -0.2477
 8090TIP3    H124213   8.376   4.630   5.074  0.3380 -1.2355  0.2274
 8090TIP3    H224214   8.266   4.718   5.130 -0.9461 -1.7997 -1.3599
 8091TIP3   OH224215   0.237   4.904   4.179  0.5986  0.5131 -0.5110
 8091TIP3    H124216   0.189   4.884   4.098 -1.6059  1.1066  0.6176
 8091TIP3    H224217   0.232   4.823   4.230 -0.4489  1.0136  0.2015
 8092TIP3   OH224218   6.670   4.664   4.164 -0.1590  0.3842 -0.2911
 8092TIP3    H124219   6.611   4.677   4.238  1.6932  1.0683  1.1087
 8092TIP3    H224220   6.690   4.753   4.134  2.8501  0.3760  1.4719
 8093TIP3   OH224221   0.396   4.416   3.739 -0.2704  0.1076  0.2349
 8093TIP3    H124222   0.481   4.407   3.783 -0.9806 -1.8862  1.2569
 8093TIP3    H224223   0.363   4.501   3.768  1.1556  0.6991  0.1929
 8094TIP3   OH224224   7.448   4.311   5.175 -0.9044 -0.2022  0.2523
 8094TIP3    H124225   7.366   4.292   5.220  0.3053  0.5805  2.8289
 8094TIP3    H224226   7.461   4.405   5.186  1.2986 -0.6179  1.5682
 8095TIP3   OH224227   7.967   4.730   6.703  0.3786  0.0302 -0.3664
 8095TIP3    H124228   7.963   4.660   6.638  0.7164  0.4308 -0.8279
 8095TIP3    H224229   7.919   4.696   6.778  2.4574 -1.5677  0.2657
 8096TIP3   OH224230   0.804   4.791   4.115  0.2245  0.9221  0.1579
 8096TIP3    H124231   0.777   4.744   4.193 -0.0397 -0.4430 -0.7333
 8096TIP3    H224232   0.776   4.881   4.130 -1.8519  0.2137  0.6742
 8097TIP3   OH224233   7.704   6.515   2.553  0.6535 -0.3011  0.1204
 8097TIP3    H124234   7.683   6.599   2.512  2.5091  0.0679 -0.0916
 8097TIP3    H224235   7.685   6.529   2.645  3.3989  1.2223  0.5190
 8098TIP3   OH224236   8.126   5.699   4.196  0.3408  0.8816 -0.4041
 8098TIP3    H124237   8.191   5.749   4.146  0.4855  0.4048 -0.6953
 8098TIP3    H224238   8.155   5.608   4.190  0.6686  0.8721  1.0138
 8099TIP3   OH224239   7.650   5.978   6.909 -0.0694 -0.0923 -0.6435
 8099TIP3    H124240   7.670   5.941   6.995 -1.0451 -1.1686 -0.8535
 8099TIP3    H224241   7.733   6.012   6.877  0.4601 -0.4042  0.3909
 8100TIP3   OH224242   8.383   6.207   3.803 -0.4741 -0.1050  0.0592
 8100TIP3    H124243   8.458   6.266   3.814 -0.4716  0.2576 -1.7774
 8100TIP3    H224244   8.413   6.123   3.838  0.2807  0.4057  0.6684
 8101TIP3   OH224245   6.633   6.586   3.248 -0.4788  0.1329  0.6622
 8101TIP3    H124246   6.727   6.569   3.259 -0.5730 -1.7481 -1.2278
 8101TIP3    H224247   6.591   6.501   3.258 -2.1033  1.0847  2.2857
 8102TIP3   OH224248   7.037   4.920   6.675  0.1228  0.4195  0.0351
 8102TIP3    H124249   7.046   4.957   6.587  1.3169  1.4456  0.5649
 8102TIP3    H224250   7.065   4.991   6.733 -1.5698  0.0788  1.3010
 8103TIP3   OH224251   7.702   4.335   4.633 -0.4483  0.4356  0.3464
 8103TIP3    H124252   7.778   4.303   4.682 -0.1213 -1.3401 -1.2523
 8103TIP3    H224253   7.688   4.424   4.665  0.0561 -0.4729  3.2836
 8104TIP3   OH224254   7.670   6.190   3.873  0.3299  0.0194 -0.3591
 8104TIP3    H124255   7.647   6.164   3.784  3.5157  1.7504 -1.7720
 8104TIP3    H224256   7.754   6.147   3.890 -0.4946 -0.7193  2.0287
 8105TIP3   OH224257   1.692   7.084   6.212  0.4948 -0.0604  0.7279
 8105TIP3    H124258   1.736   7.135   6.280 -1.3159  0.7069  1.3370
 8105TIP3    H224259   1.641   7.019   6.259 -1.8761  1.3658  0.2128
 8106TIP3   OH224260   8.407   6.321   5.145  0.3832  0.3830  0.0316
 8106TIP3    H124261   8.374   6.343   5.232  1.2221  1.3554  0.1107
 8106TIP3    H224262   8.495   6.286   5.160  0.3449  0.1032 -0.3879
 8107TIP3   OH224263   3.967   5.694   3.997  0.5498 -0.0549 -0.1913
 8107TIP3    H124264   3.937   5.777   3.960 -0.2046 -0.2716 -0.0696
 8107TIP3    H224265   3.914   5.682   4.076 -0.0549 -1.1393 -0.7542
 8108TIP3   OH224266   1.083   5.248   3.402 -0.1789 -0.3822  0.2976
 8108TIP3    H124267   1.141   5.214   3.334  1.6428 -0.0591  1.6565
 8108TIP3    H224268   1.025   5.175   3.422  0.7470 -1.2214 -0.0060
 8109TIP3   OH224269   1.663   7.213   3.805  0.0798 -0.2440  0.4181
 8109TIP3    H124270   1.582   7.182   3.765  0.1442 -0.1450  0.2104
 8109TIP3    H224271   1.732   7.185   3.745  0.4654 -2.7627  1.9476
 8110TIP3   OH224272   0.964   4.408   3.926  0.2412  0.2966 -0.5217
 8110TIP3    H124273   0.953   4.498   3.896  1.0336  0.3530 -0.6469
 8110TIP3    H224274   0.885   4.390   3.978  0.3987  1.2896  0.0578
 8111TIP3   OH224275   7.963   5.795   6.888  0.4665  0.4686  0.8183
 8111TIP3    H124276   7.883   5.764   6.931  1.9687 -2.9203  1.3026
 8111TIP3    H224277   7.943   5.795   6.795 -0.2953  0.2514  0.9812
 8112TIP3   OH224278   7.355   4.867   5.319  0.5813 -0.1319  0.6097
 8112TIP3    H124279   7.272   4.824   5.340 -0.3117  2.3363  2.2825
 8112TIP3    H224280   7.351   4.881   5.224 -0.9449  0.0424  0.6885
 8113TIP3   OH224281   1.448   6.873   5.426 -0.2811 -0.0656  0.0216
 8113TIP3    H124282   1.533   6.859   5.470  0.5041 -0.5617 -1.6054
 8113TIP3    H224283   1.434   6.967   5.431  0.5775  0.0753 -0.0654
 8114TIP3   OH224284   0.429   3.855   4.758  0.6925 -0.2297 -0.4366
 8114TIP3    H124285   0.461   3.802   4.830  0.8682  0.3644 -0.0711
 8114TIP3    H224286   0.403   3.792   4.690  1.7002 -0.7488 -0.3427
 8115TIP3   OH224287   7.941   6.277   4.798 -0.1845 -0.2211  0.6513
 8115TIP3    H124288   7.914   6.187   4.816 -1.1363 -0.1113 -0.1986
 8115TIP3    H224289   7.933   6.285   4.703  0.4254  0.5931  0.6685
 8116TIP3   OH224290   0.177   3.452   5.208  0.1142  0.1165  0.1193
 8116TIP3    H124291   0.238   3.523   5.191  2.0955 -1.4667  0.3790
 8116TIP3    H224292   0.184   3.395   5.132  0.4959 -1.1215  1.0572
 8117TIP3   OH224293   0.827   4.277   3.473  0.1387 -0.3457 -0.3394
 8117TIP3    H124294   0.761   4.259   3.406  0.7827  1.2970 -1.4625
 8117TIP3    H224295   0.818   4.371   3.489  1.2429 -0.3902  0.5419
 8118TIP3   OH224296   7.089   4.682   6.797 -0.3244 -0.1332 -0.0563
 8118TIP3    H124297   7.182   4.677   6.820 -0.5811 -0.0611  1.0248
 8118TIP3    H224298   7.088   4.709   6.705  0.7110  0.9912  0.2535
 8119TIP3   OH224299   8.139   7.877   4.530  0.1949 -0.5844 -0.2579
 8119TIP3    H124300   8.166   7.957   4.575 -0.2689 -1.0893  0.9371
 8119TIP3    H224301   8.110   7.907   4.444  0.1261  0.5260  0.1366
 8120TIP3   OH224302   8.215   4.723   6.105 -0.0466  0.1965  0.1965
 8120TIP3    H124303   8.189   4.709   6.014 -0.0232 -0.7850  0.3392
 8120TIP3    H224304   8.311   4.723   6.102 -0.0409 -0.3143  0.2877
 8121TIP3   OH224305   1.421   5.178   6.768  0.1231  0.5324  0.2730
 8121TIP3    H124306   1.512   5.202   6.783  0.3130  1.1193 -1.5629
 8121TIP3    H224307   1.404   5.106   6.828  2.2117 -0.5066 -0.3431
 8122TIP3   OH224308   0.619   6.107   5.071  0.3914  0.5141 -0.3611
 8122TIP3    H124309   0.527   6.120   5.047  0.1383  0.6863  0.6588
 8122TIP3    H224310   0.667   6.117   4.990 -0.5944 -0.6172 -1.1057
 8123TIP3   OH224311   1.057   6.801   2.553  0.1962  0.1063  0.4670
 8123TIP3    H124312   1.088   6.866   2.489 -0.7280 -1.6220 -1.8123
 8123TIP3    H224313   0.963   6.794   2.535 -0.3968  0.7021  3.0981
 8124TIP3   OH224314   6.017   1.162   0.838  0.1529  0.1342  0.0695
 8124TIP3    H124315   5.952   1.177   0.907  0.6254 -0.6795  0.7111
 8124TIP3    H224316   6.100   1.186   0.880  0.4563 -0.5012 -0.1787
 8125TIP3   OH224317   7.732   6.848   4.964 -0.2104 -0.3815  0.3155
 8125TIP3    H124318   7.781   6.768   4.984 -0.6260 -0.5321  0.7418
 8125TIP3    H224319   7.711   6.886   5.050  0.2664  0.3594  0.1117
 8126TIP3   OH224320   6.168   4.720   2.404  0.1194 -0.2909  0.4493
 8126TIP3    H124321   6.108   4.793   2.392  0.0874 -0.5824 -1.3446
 8126TIP3    H224322   6.251   4.752   2.368  0.0467 -1.1990 -0.5486
 8127TIP3   OH224323   8.257   3.310   4.776 -0.4075 -0.0741  0.3622
 8127TIP3    H124324   8.204   3.380   4.814  0.9502  0.8966  0.5154
 8127TIP3    H224325   8.306   3.274   4.850  1.7961  1.4225 -0.2984
 8128TIP3   OH224326   8.397   7.384   3.511 -0.6020  0.2425  0.2970
 8128TIP3    H124327   8.427   7.374   3.601 -0.2513  1.5695  0.3343
 8128TIP3    H224328   8.333   7.455   3.514 -1.6480 -0.6541 -0.2717
 8129TIP3   OH224329   1.240   3.511   4.949  0.2540  0.1910  0.3478
 8129TIP3    H124330   1.290   3.463   4.884  1.7333  2.7883 -0.5064
 8129TIP3    H224331   1.175   3.561   4.899  0.4953  1.1480  0.9603
 8130TIP3   OH224332   0.645   4.435   3.872  0.0691 -0.5164 -0.8626
 8130TIP3    H124333   0.697   4.380   3.813  3.1671  0.4730  0.7908
 8130TIP3    H224334   0.660   4.397   3.959  2.6881  3.0549  0.3948
 8131TIP3   OH224335   0.665   6.302   4.536 -0.4628  0.0444  0.1555
 8131TIP3    H124336   0.746   6.313   4.485 -0.6776 -0.7434 -0.3631
 8131TIP3    H224337   0.650   6.388   4.575  1.3509 -0.1649  1.3554
 8132TIP3   OH224338   1.885   5.237   5.599  0.3825  0.4864  0.0057
 8132TIP3    H124339   1.806   5.237   5.652  0.3297 -0.6988 -0.0451
 8132TIP3    H224340   1.938   5.308   5.634 -0.6801  1.2526  0.0781
 8133TIP3   OH224341   0.565   5.906   3.206  0.4908  0.1816  0.1943
 8133TIP3    H124342   0.572   5.859   3.123  1.5599 -0.9021  0.8874
 8133TIP3    H224343   0.509   5.982   3.186 -0.4482 -0.8446 -1.1659
 8134TIP3   OH224344   1.831   4.434   4.336 -0.4552  0.0634 -0.3713
 8134TIP3    H124345   1.864   4.524   4.339  0.8433 -0.4367  0.5506
 8134TIP3    H224346   1.814   4.418   4.243  1.0720  0.6162 -0.7583
 8135TIP3   OH224347   6.478   0.122   0.504 -0.7386  0.1412  0.1593
 8135TIP3    H124348   6.553   0.064   0.492 -0.1605  0.9632 -0.3062
 8135TIP3    H224349   6.436   0.091   0.584 -0.0282 -0.4645  0.3067
 8136TIP3   OH224350   8.170   4.745   4.960 -0.1026 -0.2838  0.5667
 8136TIP3    H124351   8.174   4.651   4.974  0.9820 -0.0765  1.7185
 8136TIP3    H224352   8.218   4.759   4.878  1.8016 -0.4921  1.6228
 8137TIP3   OH224353   6.293   1.102   1.553  0.3062  0.2800  0.0430
 8137TIP3    H124354   6.311   1.029   1.493 -0.5426  0.1022 -0.0093
 8137TIP3    H224355   6.322   1.179   1.506  1.0341 -0.0025  0.0181
 8138TIP3   OH224356   6.485   7.827   0.315  0.1496  0.2038  0.5899
 8138TIP3    H124357   6.409   7.832   0.373 -0.7393  0.7446 -0.6006
 8138TIP3    H224358   6.507   7.919   0.297  0.0613  0.0441 -0.3692
 8139TIP3   OH224359   5.773   1.564   0.496  0.2483 -0.3207 -0.1372
 8139TIP3    H124360   5.779   1.659   0.488  1.4553 -0.2628  1.2925
 8139TIP3    H224361   5.752   1.534   0.407  0.6890  1.2053 -0.7761
 8140TIP3   OH224362   2.524   7.716   3.083 -0.4327  0.0019  0.0507
 8140TIP3    H124363   2.613   7.722   3.120  0.2532 -0.2829 -1.5360
 8140TIP3    H224364   2.476   7.786   3.128  1.1342  1.4978 -0.5172
 8141TIP3   OH224365   0.933   4.192   2.952 -0.3623 -0.5280  0.1080
 8141TIP3    H124366   0.887   4.276   2.959 -0.1895 -0.4668  0.5192
 8141TIP3    H224367   0.893   4.137   3.018 -1.4703 -1.2484 -1.1376
 8142TIP3   OH224368   8.184   5.057   5.862 -0.3691 -0.2226 -0.4684
 8142TIP3    H124369   8.212   5.067   5.953  0.9748  1.2269 -1.0095
 8142TIP3    H224370   8.112   5.121   5.852 -0.1321  0.0290 -0.5757
 8143TIP3   OH224371   1.078   5.256   4.560  0.0648 -0.4397 -0.0463
 8143TIP3    H124372   1.076   5.161   4.562 -0.2168 -0.4284  0.3031
 8143TIP3    H224373   1.152   5.278   4.503  0.1827 -0.8662 -0.0557
 8144TIP3   OH224374   0.949   7.221   2.948  0.1574  0.1569 -0.1358
 8144TIP3    H124375   0.911   7.136   2.929  0.4004  0.2378 -1.0088
 8144TIP3    H224376   1.042   7.212   2.925  0.1954  0.6365 -0.1802
 8145TIP3   OH224377   3.492   5.757   5.312 -0.3359 -0.3463  0.3977
 8145TIP3    H124378   3.585   5.758   5.292 -0.5452 -0.0269 -0.6018
 8145TIP3    H224379   3.487   5.774   5.407  0.5993 -0.0682  0.3985
 8146TIP3   OH224380   1.278   6.245   4.790  0.1987  0.2730 -0.2934
 8146TIP3    H124381   1.271   6.157   4.751  0.2702  0.1938 -0.1277
 8146TIP3    H224382   1.189   6.266   4.818  0.1921  0.2277 -0.2797
 8147TIP3   OH224383   1.073   4.786   1.888  0.1052 -0.2604  0.4912
 8147TIP3    H124384   1.034   4.703   1.861  1.9833 -0.8263 -0.6229
 8147TIP3    H224385   1.088   4.777   1.982  1.0947 -1.5218  0.2128
 8148TIP3   OH224386   0.051   4.248   4.080 -0.3525 -0.1184 -0.3633
 8148TIP3    H124387   0.136   4.290   4.098  0.0313 -1.5676  1.2660
 8148TIP3    H224388   0.073   4.172   4.027 -0.5271 -0.9230  0.6949
 8149TIP3   OH224389   0.821   4.516   5.025 -0.1981  0.2001 -0.2304
 8149TIP3    H124390   0.860   4.581   4.966  0.0661  0.9363  0.7433
 8149TIP3    H224391   0.780   4.568   5.094 -1.6262 -0.6148 -0.4449
 8150TIP3   OH224392   2.449   5.732   5.823 -0.0918  0.5063 -0.4214
 8150TIP3    H124393   2.474   5.731   5.915 -0.9330 -0.3296 -0.1918
 8150TIP3    H224394   2.418   5.822   5.808  0.3020  0.7204  0.0362
 8151TIP3   OH224395   3.504   4.392   6.288 -0.6506 -0.4203  0.2587
 8151TIP3    H124396   3.561   4.411   6.213  0.5944 -0.6046  1.1327
 8151TIP3    H224397   3.565   4.374   6.360 -1.8250 -0.8285  1.1689
 8152TIP3   OH224398   0.622   5.358   1.722 -0.2625 -0.4709 -0.6891
 8152TIP3    H124399   0.703   5.409   1.725 -1.4654  1.4225  0.2117
 8152TIP3    H224400   0.651   5.267   1.731  1.8345  0.1102 -1.3346
 8153TIP3   OH224401   6.261   5.408   3.955  0.3959  0.0859 -0.2291
 8153TIP3    H124402   6.186   5.373   3.907  0.9301  0.6336 -1.4827
 8153TIP3    H224403   6.336   5.360   3.922  0.7829  0.5101  0.0149
 8154TIP3   OH224404   1.852   4.630   5.276 -0.5073  0.0943 -0.0841
 8154TIP3    H124405   1.917   4.592   5.218 -0.5105 -1.5276  0.9303
 8154TIP3    H224406   1.768   4.605   5.237 -0.6329  3.4169 -2.2047
 8155TIP3   OH224407   7.778   5.991   5.431 -0.0994  0.5712  0.1585
 8155TIP3    H124408   7.741   5.933   5.498 -0.0305  0.5548  0.1820
 8155TIP3    H224409   7.869   5.963   5.423  0.3119  1.6248  1.1886
 8156TIP3   OH224410   3.327   5.339   5.119 -0.1038 -0.0407 -0.2871
 8156TIP3    H124411   3.310   5.417   5.172 -3.1563  0.4537 -1.9159
 8156TIP3    H224412   3.259   5.276   5.146 -0.6274 -0.4027 -2.3481
 8157TIP3   OH224413   7.962   3.482   5.466 -0.1225 -0.0643  0.1999
 8157TIP3    H124414   8.004   3.568   5.471  0.5041 -0.1749 -2.6249
 8157TIP3    H224415   7.910   3.477   5.547  0.8363  2.4192  1.0302
 8158TIP3   OH224416   3.056   3.376   5.429  0.1804 -0.0381  0.0959
 8158TIP3    H124417   2.994   3.427   5.378  0.3139 -1.9141 -2.0179
 8158TIP3    H224418   3.002   3.330   5.493 -0.4734 -0.6720 -0.9028
 8159TIP3   OH224419   0.218   6.052   2.232 -0.3946 -0.2334 -0.1835
 8159TIP3    H124420   0.243   6.070   2.323  0.2288 -1.5157 -0.0869
 8159TIP3    H224421   0.292   6.083   2.180 -0.3765 -0.2844 -0.1879
 8160TIP3   OH224422   8.009   7.232   6.606  0.5588  0.0735  0.2003
 8160TIP3    H124423   8.086   7.266   6.653 -0.5760  1.5144  1.0655
 8160TIP3    H224424   7.955   7.309   6.589 -0.6367 -0.9004 -0.5307
 8161TIP3   OH224425   1.278   6.686   5.253 -0.1299 -0.2237  0.0576
 8161TIP3    H124426   1.352   6.625   5.246 -0.0052 -0.0367 -0.2448
 8161TIP3    H224427   1.314   6.762   5.299  0.0612  0.1773 -0.7412
 8162TIP3   OH224428   0.523   4.999   5.527 -0.6915  0.1251  0.0067
 8162TIP3    H124429   0.517   4.917   5.575 -2.2844 -0.5409 -1.2883
 8162TIP3    H224430   0.610   4.999   5.488  0.4273  0.4368  2.4280
 8163TIP3   OH224431   0.932   5.493   4.584  0.2694  0.0180  0.3446
 8163TIP3    H124432   0.976   5.415   4.554  0.1561  0.0415  0.1185
 8163TIP3    H224433   0.991   5.532   4.649  0.5386  0.0058  0.1035
 8164TIP3   OH224434   1.378   7.114   6.012 -0.3802 -0.1926 -0.6645
 8164TIP3    H124435   1.300   7.065   6.038  1.5038 -1.7573  2.2729
 8164TIP3    H224436   1.434   7.049   5.968 -0.0678  0.5715 -1.4318
 8165TIP3   OH224437   7.451   7.466   6.365 -0.4541  0.3846 -0.4485
 8165TIP3    H124438   7.484   7.377   6.373 -1.3803 -0.0128 -1.0338
 8165TIP3    H224439   7.497   7.515   6.434 -0.0800 -0.5711 -0.0144
 8166TIP3   OH224440   1.090   3.022   5.999 -0.6853  0.2382  0.7955
 8166TIP3    H124441   1.044   3.066   5.928 -0.0821  2.0128  1.4881
 8166TIP3    H224442   1.173   3.069   6.008 -0.1785 -0.7978  1.8128
 8167TIP3   OH224443   0.874   4.525   4.577  0.0049  0.2576 -0.5749
 8167TIP3    H124444   0.931   4.581   4.524  0.5667  0.3939  0.1649
 8167TIP3    H224445   0.929   4.498   4.650 -1.2658  1.4828  0.8806
 8168TIP3   OH224446   0.085   3.115   4.478 -0.4254 -0.2676 -0.0265
 8168TIP3    H124447   0.125   3.151   4.557  1.9478  1.0575 -1.7756
 8168TIP3    H224448  -0.003   3.154   4.476 -0.1245  0.5057  1.4150
 8169TIP3   OH224449   7.812   4.668   4.457 -0.2309  0.3476  0.0026
 8169TIP3    H124450   7.811   4.762   4.474 -2.1105  0.6220 -1.5457
 8169TIP3    H224451   7.720   4.642   4.456  0.2663 -1.5207  0.3932
 8170TIP3   OH224452   1.189   6.760   4.395  0.1010  0.1914 -0.5529
 8170TIP3    H124453   1.133   6.802   4.461  1.7248 -0.1002  1.0536
 8170TIP3    H224454   1.257   6.824   4.377  1.4963 -0.9686  0.4831
 8171TIP3   OH224455   7.354   5.317   3.504  0.5178  0.4984  0.0463
 8171TIP3    H124456   7.261   5.304   3.483  1.1089 -2.4868 -0.9084
 8171TIP3    H224457   7.397   5.328   3.419  1.2875 -0.0872  0.3496
 8172TIP3   OH224458   8.203   7.515   5.504  0.3247 -0.4400  0.6442
 8172TIP3    H124459   8.194   7.495   5.597 -0.5566  1.7411  1.0508
 8172TIP3    H224460   8.176   7.435   5.460 -1.5385 -0.7197  2.2307
 8173TIP3   OH224461   1.273   5.315   4.345  0.2010 -0.3883  0.4501
 8173TIP3    H124462   1.188   5.345   4.312  1.5344  2.8301 -0.2617
 8173TIP3    H224463   1.301   5.247   4.283 -1.4085 -0.7930  0.1543
 8174TIP3   OH224464   1.145   7.083   6.843  0.3543 -0.1317 -0.1512
 8174TIP3    H124465   1.086   7.019   6.883 -0.4061 -0.2179 -1.3941
 8174TIP3    H224466   1.210   7.101   6.911 -0.1217 -1.3096  0.6367
 8175TIP3   OH224467   1.022   4.743   3.954  0.6766  0.2444 -0.3270
 8175TIP3    H124468   0.948   4.775   4.005  0.2878  0.9308 -1.3085
 8175TIP3    H224469   1.073   4.822   3.934 -0.3704  0.3300 -2.9013
 8176TIP3   OH224470   3.622   2.804   6.619  0.5481 -0.1962  0.1963
 8176TIP3    H124471   3.595   2.867   6.553 -0.4941 -1.1244 -0.2925
 8176TIP3    H224472   3.591   2.841   6.702 -0.8129 -0.4613 -0.1820
 8177TIP3   OH224473   8.123   5.543   4.776  0.2631 -0.5823  0.0416
 8177TIP3    H124474   8.158   5.593   4.849  0.3776 -2.4180  1.2762
 8177TIP3    H224475   8.040   5.507   4.809 -1.3168  1.2071 -1.8151
 8178TIP3   OH224476   2.565   7.159   4.120  0.8210 -0.2906 -0.2097
 8178TIP3    H124477   2.571   7.107   4.040  2.4394  0.0053 -0.3073
 8178TIP3    H224478   2.477   7.195   4.119  0.8219 -0.2893 -1.8711
 8179TIP3   OH224479   0.935   6.313   4.374  0.4423  0.0785  0.2862
 8179TIP3    H124480   0.994   6.387   4.364  0.8069 -0.3377 -0.6761
 8179TIP3    H224481   0.913   6.286   4.285 -0.0005 -0.7164  0.6232
 8180TIP3   OH224482   8.219   5.113   2.821 -0.0148 -0.3517  0.2227
 8180TIP3    H124483   8.222   5.123   2.916 -2.2982 -0.6704  0.3415
 8180TIP3    H224484   8.167   5.188   2.791  0.4493 -0.4147 -0.7513
 8181TIP3   OH224485   0.440   5.081   4.230  0.2305  0.4942  0.0700
 8181TIP3    H124486   0.369   5.026   4.198  0.4811  0.8402 -1.0862
 8181TIP3    H224487   0.400   5.166   4.247  0.3687  0.7006 -0.6181
 8182TIP3   OH224488   8.096   7.267   2.763  0.2292  0.0519  0.1763
 8182TIP3    H124489   8.181   7.290   2.725 -0.3670 -0.0026 -1.2293
 8182TIP3    H224490   8.093   7.171   2.758 -0.0949  0.0795 -0.1739
 8183TIP3   OH224491   2.679   7.351   1.897  0.1304  0.5636 -0.1970
 8183TIP3    H124492   2.694   7.367   1.990  1.7013  0.5141 -0.4382
 8183TIP3    H224493   2.743   7.284   1.873  0.2229  1.0965 -1.4847
 8184TIP3   OH224494   2.601   6.652   5.230 -0.0776 -0.0491 -0.0437
 8184TIP3    H124495   2.520   6.603   5.247 -0.6529  0.6713 -0.6715
 8184TIP3    H224496   2.632   6.677   5.317  1.1105 -2.9084  0.4250
 8185TIP3   OH224497   4.225   4.440   5.039 -0.7364 -0.2281  0.6685
 8185TIP3    H124498   4.190   4.386   5.109 -0.2475 -1.2721  0.1196
 8185TIP3    H224499   4.256   4.378   4.974 -0.3527  0.7196 -0.0697
 8186TIP3   OH224500   2.552   7.010   4.533 -0.1685  0.1863 -0.5273
 8186TIP3    H124501   2.601   6.956   4.470 -1.1785 -1.1323 -0.2017
 8186TIP3    H224502   2.505   7.073   4.479 -0.8654 -0.8035 -1.0925
 8187TIP3   OH224503   1.904   7.346   4.488  0.2182  0.0998 -0.4359
 8187TIP3    H124504   1.934   7.261   4.454 -0.3286 -0.0242 -0.6305
 8187TIP3    H224505   1.964   7.410   4.451  0.0633 -0.1137 -1.0643
 8188TIP3   OH224506   1.275   6.843   3.500 -0.3236 -0.7427 -0.0996
 8188TIP3    H124507   1.241   6.888   3.578 -0.4280 -2.8820  1.1237
 8188TIP3    H224508   1.274   6.751   3.524 -0.0748 -1.3992 -2.5601
 8189TIP3   OH224509   2.985   5.682   3.415 -0.4481  0.0900  0.2982
 8189TIP3    H124510   3.063   5.735   3.434 -0.8015  0.8675 -0.3861
 8189TIP3    H224511   3.012   5.624   3.343 -0.5961  0.5894 -0.1631
 8190TIP3   OH224512   0.728   5.784   4.165  0.2304  0.2324 -0.5633
 8190TIP3    H124513   0.718   5.825   4.251  2.8052 -1.5254  0.6405
 8190TIP3    H224514   0.641   5.789   4.126 -1.2180  0.3356  2.4942
 8191TIP3   OH224515   1.825   6.444   3.579  0.5589  0.7742 -0.2862
 8191TIP3    H124516   1.798   6.452   3.671  0.0056 -0.3738 -0.3252
 8191TIP3    H224517   1.817   6.532   3.543 -1.4972  0.8134  0.1786
 8192TIP3   OH224518   1.741   4.382   4.080 -0.2560 -0.0392 -0.0616
 8192TIP3    H124519   1.704   4.294   4.066  2.9914 -1.1948 -1.8722
 8192TIP3    H224520   1.695   4.437   4.016  0.0881 -1.1456 -1.3006
 8193TIP3   OH224521   4.582   4.324   6.178  0.1902 -0.8074  0.0748
 8193TIP3    H124522   4.494   4.359   6.193  0.5828  0.7120 -0.9981
 8193TIP3    H224523   4.641   4.398   6.196  1.2396 -1.7532  0.6045
 8194TIP3   OH224524   5.474   0.048   5.341 -0.5604  0.3110 -0.0364
 8194TIP3    H124525   5.405   0.043   5.408  0.0403 -1.5026  0.4728
 8194TIP3    H224526   5.556   0.045   5.392 -0.0709  2.6167 -0.6185
 8195TIP3   OH224527   3.044   5.577   4.678  0.3611  0.1836 -0.8834
 8195TIP3    H124528   2.980   5.643   4.649 -0.7559 -0.1055  0.8139
 8195TIP3    H224529   3.115   5.629   4.715 -0.7428  0.4750  0.9112
 8196TIP3   OH224530   2.925   5.899   3.274 -0.6649  0.1973 -0.3125
 8196TIP3    H124531   2.922   5.813   3.316  0.7605 -0.5242 -1.6308
 8196TIP3    H224532   3.009   5.936   3.300  0.0728 -0.1033 -2.2087
 8197TIP3   OH224533   1.457   4.828   6.425  0.4686 -0.5351  0.0359
 8197TIP3    H124534   1.497   4.807   6.509 -2.3632  0.2052  1.6530
 8197TIP3    H224535   1.482   4.919   6.409 -1.7075  0.4140  1.7825
 8198TIP3   OH224536   4.757   5.133   4.487  0.1052  0.3718  0.2947
 8198TIP3    H124537   4.827   5.145   4.422 -0.5876  0.4862 -0.4435
 8198TIP3    H224538   4.780   5.051   4.531  0.4123  0.1162 -0.3233
 8199TIP3   OH224539   3.691   6.525   3.794  0.0073  0.3172  0.7164
 8199TIP3    H124540   3.734   6.611   3.798 -0.9471  0.8141  0.3478
 8199TIP3    H224541   3.598   6.544   3.799 -0.1768 -0.7808  1.7379
 8200TIP3   OH224542   2.684   6.811   4.364 -0.7494  0.3005 -0.5029
 8200TIP3    H124543   2.676   6.773   4.451  0.1881  0.0822 -0.5105
 8200TIP3    H224544   2.634   6.752   4.307 -0.7272  0.0283 -0.2401
 8201TIP3   OH224545   1.569   4.577   3.895  0.4411  0.3373  0.6010
 8201TIP3    H124546   1.613   4.528   3.826 -0.1115 -1.4361  1.4712
 8201TIP3    H224547   1.482   4.596   3.860  0.6944  0.7644  0.2168
 8202TIP3   OH224548   6.996   0.161   4.537 -0.0239 -0.2648 -0.6756
 8202TIP3    H124549   7.044   0.168   4.620  1.2290  0.4378 -1.4418
 8202TIP3    H224550   6.966   0.250   4.519  2.1344  0.1487 -2.3797
 8203TIP3   OH224551   1.031   5.709   2.183  0.2848 -0.4453 -0.6040
 8203TIP3    H124552   1.118   5.691   2.218  1.1706  0.9802 -2.0392
 8203TIP3    H224553   0.987   5.624   2.186  1.7200 -1.1901  0.1155
 8204TIP3   OH224554   0.994   5.008   3.487  0.5949  0.6204 -0.0674
 8204TIP3    H124555   1.022   4.924   3.451  0.2569 -0.9753  3.2884
 8204TIP3    H224556   0.905   5.020   3.453  0.9288  0.0413 -1.1829
 8205TIP3   OH224557   3.456   7.102   6.671 -0.2377 -0.4605 -0.0017
 8205TIP3    H124558   3.367   7.133   6.686 -0.0883 -0.1497  0.2238
 8205TIP3    H224559   3.509   7.181   6.665  0.2724 -0.6874  1.3888
 8206TIP3   OH224560   1.783   4.681   4.857 -0.5227 -0.2455  0.2027
 8206TIP3    H124561   1.800   4.665   4.765 -1.8046  0.4474 -0.1718
 8206TIP3    H224562   1.730   4.760   4.858  0.4484  0.4141  1.6132
 8207TIP3   OH224563   2.997   5.877   5.458 -0.2779  0.0723 -0.0384
 8207TIP3    H124564   3.065   5.829   5.506 -1.1382  0.1013  1.2348
 8207TIP3    H224565   3.003   5.966   5.492 -3.5417 -0.7728  3.0345
 8208TIP3   OH224566   1.046   6.015   4.433 -0.1370 -0.1085 -0.5574
 8208TIP3    H124567   1.065   6.106   4.408  1.2927 -0.0377  0.6908
 8208TIP3    H224568   0.953   6.004   4.415 -0.9128  2.3745  1.5808
 8209TIP3   OH224569   0.876   6.252   5.117 -0.2435 -0.5014  0.0199
 8209TIP3    H124570   0.932   6.289   5.050  0.0057 -0.5360  0.2077
 8209TIP3    H224571   0.853   6.165   5.084 -1.2769  0.0221 -0.6728
 8210TIP3   OH224572   2.745   6.340   4.984 -0.2551 -0.2346 -0.0814
 8210TIP3    H124573   2.719   6.261   5.031 -0.4926  0.3389  0.7683
 8210TIP3    H224574   2.666   6.395   4.983  0.0307  0.1820 -0.2740
 8211TIP3   OH224575   1.374   4.363   4.132  0.1500 -0.0334 -0.2645
 8211TIP3    H124576   1.389   4.355   4.037 -0.6290 -0.0861 -0.3881
 8211TIP3    H224577   1.418   4.444   4.156 -1.8671  1.3685 -1.1690
 8212TIP3   OH224578   1.235   4.500   3.111  0.2617  0.3589 -0.5178
 8212TIP3    H124579   1.238   4.595   3.101 -0.7217  0.3289 -1.1220
 8212TIP3    H224580   1.327   4.474   3.119  0.4815  1.4417  0.5609
 8213TIP3   OH224581   3.989   7.929   4.544  0.2884 -0.1113  0.2941
 8213TIP3    H124582   3.949   7.908   4.459  0.1491 -1.1182  0.6094
 8213TIP3    H224583   4.016   8.020   4.535 -1.0949  0.2519 -0.3063
 8214TIP3   OH224584   1.014   6.376   4.834  0.1684 -0.5899  0.2891
 8214TIP3    H124585   0.935   6.428   4.822  0.2064 -0.8845 -1.3307
 8214TIP3    H224586   1.086   6.435   4.812  0.2332 -1.1744 -1.1203
 8215TIP3   OH224587   1.512   5.273   4.767  0.3337  0.0039 -0.0397
 8215TIP3    H124588   1.579   5.324   4.812  0.8115 -0.5116 -0.1655
 8215TIP3    H224589   1.509   5.308   4.679  0.1937  0.2546  0.0631
 8216TIP3   OH224590   1.644   3.861   4.882 -0.2689  0.1168 -0.7547
 8216TIP3    H124591   1.565   3.850   4.829 -0.8290  2.7448 -0.5735
 8216TIP3    H224592   1.610   3.887   4.968  0.7432 -0.6576 -0.1181
 8217TIP3   OH224593   1.599   4.054   4.631 -0.1742 -0.2990 -0.9109
 8217TIP3    H124594   1.649   4.038   4.551  0.0606 -0.3587 -0.7518
 8217TIP3    H224595   1.512   4.081   4.600  0.0923  0.2421 -1.1823
 8218TIP3   OH224596   3.037   7.607   2.263 -0.2000  0.2750  0.2260
 8218TIP3    H124597   3.044   7.667   2.338 -0.0190  0.4635  0.0595
 8218TIP3    H224598   3.033   7.520   2.303 -1.8645  0.4738  0.5219
 8219TIP3   OH224599   0.411   4.443   6.801 -0.2887  0.1929 -0.2281
 8219TIP3    H124600   0.345   4.512   6.793  0.3869  0.8546 -0.1994
 8219TIP3    H224601   0.376   4.384   6.867 -0.9012  0.4887 -0.2823
 8220TIP3   OH224602   1.460   6.100   5.186 -0.2558  0.3256  0.1329
 8220TIP3    H124603   1.554   6.102   5.203 -0.3169  3.3786  0.3691
 8220TIP3    H224604   1.447   6.020   5.135  2.3710 -0.4202  0.5296
 8221TIP3   OH224605   2.687   7.556   4.984 -0.0340  0.1657 -0.4657
 8221TIP3    H124606   2.682   7.466   4.952  1.1235 -0.3969  0.8534
 8221TIP3    H224607   2.653   7.552   5.074  0.8001  0.8779 -0.1042
 8222TIP3   OH224608   0.353   7.396   4.416 -0.1424 -0.5187  0.3783
 8222TIP3    H124609   0.309   7.368   4.336 -1.8595 -0.6217  1.3355
 8222TIP3    H224610   0.396   7.317   4.449 -1.2024 -0.9695  0.6815
 8223TIP3   OH224611   2.292   6.786   5.536  0.1765 -0.3165 -0.0073
 8223TIP3    H124612   2.260   6.807   5.624 -1.0853  1.4643 -0.8578
 8223TIP3    H224613   2.384   6.762   5.549 -0.1284 -0.5224  1.8490
 8224TIP3   OH224614   3.864   6.824   3.437 -0.6159 -0.3512  0.0267
 8224TIP3    H124615   3.830   6.912   3.424 -1.4023 -0.2030  2.9201
 8224TIP3    H224616   3.803   6.768   3.389 -1.9866  0.3770  0.8974
 8225TIP3   OH224617   5.260   6.080   5.100  0.3772 -0.4135  0.6928
 8225TIP3    H124618   5.191   6.117   5.045  0.8276  0.1584  0.5088
 8225TIP3    H224619   5.256   6.131   5.181  0.5529 -0.4026  0.6957
 8226TIP3   OH224620   0.686   5.865   6.167  0.3545  0.3843 -0.4143
 8226TIP3    H124621   0.701   5.960   6.164  2.2919  0.0789 -1.2260
 8226TIP3    H224622   0.640   5.846   6.085  1.0580  0.4590 -0.8325
 8227TIP3   OH224623   0.766   3.402   2.479  0.1012 -0.1470 -0.4271
 8227TIP3    H124624   0.859   3.424   2.480  0.0942 -0.1349  2.9644
 8227TIP3    H224625   0.764   3.307   2.472  0.4116 -0.2961  1.3983
 8228TIP3   OH224626   5.261   1.983   0.086  0.2682  0.4357  0.3376
 8228TIP3    H124627   5.328   1.988   0.018 -0.7311  0.5886 -0.6359
 8228TIP3    H224628   5.203   1.913   0.058  0.5892 -0.4037  1.7112
 8229TIP3   OH224629   8.158   4.255   5.330 -0.2423 -0.2613  0.2630
 8229TIP3    H124630   8.182   4.341   5.295  3.6522 -0.8815  1.1888
 8229TIP3    H224631   8.108   4.274   5.410  0.5621  1.1419  0.4357
 8230TIP3   OH224632   3.097   7.159   3.100 -0.0098  0.3601  0.0793
 8230TIP3    H124633   3.024   7.107   3.066  2.1191 -1.4545 -1.9338
 8230TIP3    H224634   3.085   7.246   3.062 -0.9044 -0.0366 -0.5629
 8231TIP3   OH224635   0.355   6.262   4.843 -0.5386 -0.2111 -0.5133
 8231TIP3    H124636   0.339   6.336   4.785  0.5637  0.6630  0.2643
 8231TIP3    H224637   0.289   6.197   4.819 -2.7514  1.7811  0.1155
 8232TIP3   OH224638   1.537   3.957   6.311  0.3432  0.4010  0.1667
 8232TIP3    H124639   1.454   3.927   6.273  0.5166  0.2121 -0.0633
 8232TIP3    H224640   1.511   4.022   6.377  0.0674  0.9719 -0.5068
 8233TIP3   OH224641   2.622   3.580   3.598 -0.2892  0.4117  0.5142
 8233TIP3    H124642   2.668   3.609   3.519 -0.2586 -1.1012 -0.0370
 8233TIP3    H224643   2.689   3.540   3.652 -0.8931 -1.5806 -0.1868
 8234TIP3   OH224644   1.259   4.869   4.850  0.1218  0.5177 -0.5609
 8234TIP3    H124645   1.300   4.894   4.933 -1.9098  1.0968  0.3147
 8234TIP3    H224646   1.273   4.944   4.793 -1.2096  1.4512  0.3032
 8235TIP3   OH224647   1.061   4.660   4.470 -0.9435  0.0441 -0.7023
 8235TIP3    H124648   1.069   4.626   4.381 -2.4076  1.8540 -1.5664
 8235TIP3    H224649   1.116   4.738   4.471 -0.9016  0.0041 -0.0105
 8236TIP3   OH224650   3.153   5.119   5.167  0.3130 -0.7353 -0.8821
 8236TIP3    H124651   3.093   5.046   5.155 -0.0998 -0.4928 -0.2964
 8236TIP3    H224652   3.119   5.166   5.243  0.9695 -0.3281 -0.8374
 8237TIP3   OH224653   1.916   5.339   4.036  0.2113 -0.2813  0.2157
 8237TIP3    H124654   1.956   5.388   3.964 -0.9509 -0.5369 -0.6032
 8237TIP3    H224655   1.950   5.382   4.115 -0.2026  1.3765 -0.4862
 8238TIP3   OH224656   1.063   5.685   3.168  0.3498 -0.2813 -0.7557
 8238TIP3    H124657   1.051   5.646   3.254  0.9536 -1.0970 -1.0337
 8238TIP3    H224658   0.996   5.645   3.113 -2.6094  3.0930  0.2100
 8239TIP3   OH224659   0.170   5.069   4.901  0.4207  0.6134  0.6251
 8239TIP3    H124660   0.087   5.060   4.854  0.2309  3.0232  0.4476
 8239TIP3    H224661   0.234   5.089   4.833  1.2632 -1.6535  0.7082
 8240TIP3   OH224662   1.719   4.616   5.731 -0.0701 -0.1318  0.2732
 8240TIP3    H124663   1.651   4.571   5.680 -0.0317  0.4348 -0.2757
 8240TIP3    H224664   1.799   4.602   5.680  0.6867 -2.8136  2.0889
 8241TIP3   OH224665   0.487   5.552   5.047 -0.3731  0.2451 -0.0095
 8241TIP3    H124666   0.446   5.473   5.013 -1.3121 -0.0642  1.7336
 8241TIP3    H224667   0.522   5.597   4.970 -0.6672 -1.3834 -1.1142
 8242TIP3   OH224668   3.214   5.511   5.521  0.8020  0.0090  0.3151
 8242TIP3    H124669   3.307   5.495   5.509  0.6523 -1.9599  1.4187
 8242TIP3    H224670   3.194   5.470   5.605 -1.6817 -2.4711 -1.4015
 8243TIP3   OH224671   0.802   3.827   4.075  0.5091  0.6252  0.0666
 8243TIP3    H124672   0.845   3.898   4.123  0.8903  0.4327  0.0099
 8243TIP3    H224673   0.817   3.849   3.982  0.1079  0.7907  0.0409
 8244TIP3   OH224674   3.272   5.568   5.255  0.0969  0.2782 -0.7228
 8244TIP3    H124675   3.222   5.564   5.336 -0.1881  0.0598 -0.9079
 8244TIP3    H224676   3.336   5.637   5.269  1.3265 -1.0710  0.4239
 8245TIP3   OH224677   1.380   6.007   3.974 -0.1184  0.0997  0.2667
 8245TIP3    H124678   1.399   6.071   4.042 -1.3035  0.1299  0.5871
 8245TIP3    H224679   1.402   5.922   4.014 -0.4639  0.1482  0.5625
 8246TIP3   OH224680   2.651   6.063   4.815 -0.0422  0.0873 -0.5840
 8246TIP3    H124681   2.596   5.993   4.849 -2.5379  1.7937 -0.9485
 8246TIP3    H224682   2.627   6.071   4.723  0.6545  0.9707 -0.7016
 8247TIP3   OH224683   6.620   2.573   0.634 -0.2309 -0.0508 -0.4867
 8247TIP3    H124684   6.585   2.487   0.657  0.3799 -0.5058 -1.2385
 8247TIP3    H224685   6.698   2.583   0.689  0.8382 -0.8461 -1.8208
 8248TIP3   OH224686   1.568   4.200   4.293  0.6874 -1.3213 -0.0619
 8248TIP3    H124687   1.529   4.283   4.264  0.4463 -0.6192  2.1620
 8248TIP3    H224688   1.585   4.152   4.213  0.3934  0.7031 -1.3707
 8249TIP3   OH224689   0.251   5.588   5.205  0.3979  0.5931  0.2375
 8249TIP3    H124690   0.325   5.583   5.144 -0.3550 -0.8542 -0.5746
 8249TIP3    H224691   0.286   5.556   5.288  0.5458 -0.5524 -0.2692
 8250TIP3   OH224692   1.476   5.127   3.328 -0.1229 -0.2135  0.2998
 8250TIP3    H124693   1.473   5.041   3.371  2.4347  0.6537  2.3731
 8250TIP3    H224694   1.560   5.128   3.282  0.5853  1.7357  1.5925
 8251TIP3   OH224695   6.579   1.020   0.257  0.0763  0.3211  0.1218
 8251TIP3    H124696   6.587   0.928   0.233  0.5895  0.1218  1.0175
 8251TIP3    H224697   6.590   1.021   0.352 -0.1185  1.2825  0.1420
 8252TIP3   OH224698   5.932   6.942   3.609  0.7782  0.4753 -0.4537
 8252TIP3    H124699   5.936   6.879   3.536  0.0503  0.8824 -0.8546
 8252TIP3    H224700   5.931   7.027   3.567  2.3434  0.7834  0.1168
 8253TIP3   OH224701   2.535   7.353   4.568 -0.4098 -0.8393 -0.2504
 8253TIP3    H124702   2.539   7.286   4.636  0.3287 -0.7794 -0.2315
 8253TIP3    H224703   2.624   7.359   4.534 -0.8676 -1.1908 -1.5430
 8254TIP3   OH224704   0.186   6.677   2.879 -0.0737 -0.3496  0.4057
 8254TIP3    H124705   0.261   6.694   2.936 -0.4358  0.3233  0.6870
 8254TIP3    H224706   0.210   6.597   2.832  1.2094  0.3538 -0.1719
 8255TIP3   OH224707   1.503   5.746   6.447 -0.2142 -0.0143  0.4417
 8255TIP3    H124708   1.549   5.744   6.531  0.3794 -1.5371  0.0978
 8255TIP3    H224709   1.522   5.832   6.412  0.1209  0.3805  1.5547
 8256TIP3   OH224710   3.009   5.097   4.479  0.1159  0.3211 -0.1597
 8256TIP3    H124711   3.077   5.081   4.414  0.3103 -1.3506  0.4486
 8256TIP3    H224712   2.955   5.018   4.478  0.6332 -0.0942  2.3285
 8257TIP3   OH224713   2.007   7.001   5.538 -0.1816 -0.0589 -0.4343
 8257TIP3    H124714   2.008   7.097   5.533 -3.3436  0.1987  2.2919
 8257TIP3    H224715   2.041   6.980   5.624  0.5902 -1.4316 -1.0476
 8258TIP3   OH224716   1.847   5.525   4.762 -0.5281 -0.2404 -0.0641
 8258TIP3    H124717   1.801   5.508   4.844 -0.2903 -0.6799 -0.0207
 8258TIP3    H224718   1.780   5.564   4.705 -1.0400 -1.1244 -0.0923
 8259TIP3   OH224719   2.578   4.147   4.002  0.1004 -0.1764 -0.2554
 8259TIP3    H124720   2.535   4.105   4.077  0.6153  0.9339  0.6909
 8259TIP3    H224721   2.527   4.119   3.926  0.5934 -2.6856  0.3043
 8260TIP3   OH224722   3.928   6.586   1.899 -0.3875 -0.2643 -0.0165
 8260TIP3    H124723   3.934   6.654   1.831 -1.9109 -0.7867 -0.6898
 8260TIP3    H224724   3.893   6.632   1.976 -4.3308 -0.8145 -1.3501
 8261TIP3   OH224725   2.413   6.439   5.256  0.5905 -0.4950 -0.1290
 8261TIP3    H124726   2.384   6.462   5.168 -0.2789 -1.9491 -0.2345
 8261TIP3    H224727   2.346   6.476   5.314  0.2696 -0.9816 -0.1840
 8262TIP3   OH224728   3.238   5.740   4.829 -0.2843 -0.2551 -0.5009
 8262TIP3    H124729   3.290   5.750   4.909  0.7126  2.0946 -1.3717
 8262TIP3    H224730   3.185   5.820   4.825 -0.6475 -0.5538 -1.9561
 8263TIP3   OH224731   3.659   5.050   4.737  0.1785  0.4265  0.4429
 8263TIP3    H124732   3.683   5.095   4.818  0.7904 -0.9949  1.0768
 8263TIP3    H224733   3.727   4.984   4.725  0.1395  0.6846 -1.2988
 8264TIP3   OH224734   2.887   7.279   4.245  0.2828 -0.2825 -0.2670
 8264TIP3    H124735   2.863   7.195   4.283 -0.7593 -0.9981 -2.3937
 8264TIP3    H224736   2.970   7.261   4.200 -0.4024 -0.4256 -1.4912
 8265TIP3   OH224737   1.314   5.670   2.276  0.2823 -0.0303 -0.1241
 8265TIP3    H124738   1.370   5.721   2.218 -0.4509 -0.5493 -1.3242
 8265TIP3    H224739   1.372   5.636   2.344  1.0734  0.9663 -0.3018
 8266TIP3   OH224740   4.585   0.431   4.795  0.2038 -0.1016  0.5079
 8266TIP3    H124741   4.633   0.514   4.797 -2.8450  1.7289  1.4364
 8266TIP3    H224742   4.618   0.383   4.871 -0.7509  1.9611  2.3095
 8267TIP3   OH224743   8.461   6.247   6.166  0.1610 -0.0361  0.4607
 8267TIP3    H124744   8.420   6.182   6.224 -1.9765  0.9192  0.0666
 8267TIP3    H224745   8.413   6.239   6.083  0.9207  0.9560 -0.0848
 8268TIP3   OH224746   8.121   6.718   5.176  0.0485  0.3750 -0.1269
 8268TIP3    H124747   8.115   6.782   5.247  1.0214  1.1206 -0.6922
 8268TIP3    H224748   8.150   6.770   5.101  0.5738 -0.6908 -0.6635
 8269TIP3   OH224749   8.393   7.023   5.117 -0.4007  0.0519 -0.2209
 8269TIP3    H124750   8.457   7.078   5.072  0.2265 -1.0328 -0.6629
 8269TIP3    H224751   8.356   7.080   5.184  2.2014  0.2147  1.1466
 8270TIP3   OH224752   0.478   7.141   4.480  0.0848 -0.2520  0.4496
 8270TIP3    H124753   0.418   7.101   4.418  0.2717 -2.0129  1.3852
 8270TIP3    H224754   0.528   7.068   4.517  3.5965  1.2051 -1.1103
 8271TIP3   OH224755   2.294   6.625   2.606 -0.3642  0.1513 -0.1049
 8271TIP3    H124756   2.282   6.604   2.698 -0.5841  1.1499  0.0992
 8271TIP3    H224757   2.302   6.540   2.562  2.7276 -0.3302  1.2217
 8272TIP3   OH224758   0.030   5.543   5.060 -0.3277  0.2499 -0.4189
 8272TIP3    H124759   0.104   5.566   5.116 -1.0014 -2.4340  1.6230
 8272TIP3    H224760  -0.047   5.554   5.116 -1.2418  0.1083 -1.6254
 8273TIP3   OH224761   2.302   5.808   5.547 -0.5223 -0.0401 -0.4104
 8273TIP3    H124762   2.392   5.775   5.550 -0.4072  0.1558 -1.3755
 8273TIP3    H224763   2.249   5.737   5.584  0.1732  0.4382  1.5544
 8274TIP3   OH224764   4.896   0.157   2.833 -0.1841 -0.7151 -0.0702
 8274TIP3    H124765   4.861   0.210   2.905  2.6264  1.5257 -0.2754
 8274TIP3    H224766   4.979   0.122   2.866  0.6313 -0.5215 -1.8518
 8275TIP3   OH224767   0.970   7.688   5.001  0.3694  0.4559 -0.3337
 8275TIP3    H124768   1.049   7.635   4.991  0.1135 -0.1553  0.7932
 8275TIP3    H224769   0.956   7.725   4.914  1.5234  0.0504 -0.7145
 8276TIP3   OH224770   3.206   4.954   1.470 -0.6028  0.3157  0.1419
 8276TIP3    H124771   3.258   4.941   1.549  0.1010  0.1971 -0.3462
 8276TIP3    H224772   3.119   4.979   1.503 -0.7583 -1.2681  0.9836
 8277TIP3   OH224773   1.378   5.895   5.002  0.1438  0.1895 -0.0104
 8277TIP3    H124774   1.284   5.878   4.995  0.2372 -0.0342 -0.8005
 8277TIP3    H224775   1.419   5.820   4.959  0.6892  0.2667  0.3615
 8278TIP3   OH224776   0.339   4.708   4.329 -0.6121  0.1654 -0.1740
 8278TIP3    H124777   0.419   4.693   4.379 -0.8197 -1.4669 -0.3226
 8278TIP3    H224778   0.273   4.655   4.374 -1.1166 -0.2137 -1.3582
 8279TIP3   OH224779   2.776   5.297   3.981 -0.6774  0.1399 -0.0662
 8279TIP3    H124780   2.863   5.262   3.999 -0.3845  0.8207 -0.1349
 8279TIP3    H224781   2.726   5.279   4.060  0.5386  2.9226  1.3772
 8280TIP3   OH224782   0.897   7.097   5.383  0.1209 -0.5623  0.0056
 8280TIP3    H124783   0.891   7.188   5.355  1.7409 -0.8444 -1.3986
 8280TIP3    H224784   0.830   7.051   5.332  0.3146 -0.3930 -0.4069
 8281TIP3   OH224785   1.468   4.953   6.124 -0.4861 -0.3529  0.2919
 8281TIP3    H124786   1.488   4.895   6.050 -2.1415  0.9415 -1.2116
 8281TIP3    H224787   1.373   4.965   6.120 -0.5046  0.2658  2.2632
 8282TIP3   OH224788   1.405   7.286   3.073 -0.4211  0.1021  0.1237
 8282TIP3    H124789   1.418   7.261   3.165 -2.2566  1.6270  0.7997
 8282TIP3    H224790   1.312   7.272   3.057  0.4375 -3.3887 -2.5210
 8283TIP3   OH224791   4.093   6.747   4.941  0.0133 -0.3786 -0.1853
 8283TIP3    H124792   4.114   6.780   4.854  0.4928 -1.7668 -0.6126
 8283TIP3    H224793   3.997   6.745   4.944 -0.0028 -0.6075 -0.7958
 8284TIP3   OH224794   2.067   6.436   4.546 -0.1740  0.2452 -0.4143
 8284TIP3    H124795   2.156   6.470   4.532 -0.1552  0.4241  0.1392
 8284TIP3    H224796   2.070   6.346   4.513 -0.0551  0.5716 -1.3155
 8285TIP3   OH224797   2.381   2.308   4.337 -0.2327 -0.1829 -0.0767
 8285TIP3    H124798   2.458   2.291   4.392 -0.6820  1.3350  1.0612
 8285TIP3    H224799   2.338   2.223   4.329  1.6285 -1.0771 -0.8490
 8286TIP3   OH224800   1.004   5.506   3.381  0.4890 -0.1344  0.1881
 8286TIP3    H124801   1.041   5.419   3.396  0.7963 -0.1852 -0.8231
 8286TIP3    H224802   1.021   5.553   3.463  1.1306 -0.7438  0.4138
 8287TIP3   OH224803   7.346   5.777   3.240  0.4668 -0.6986 -0.4218
 8287TIP3    H124804   7.409   5.707   3.226  0.3912 -0.8413 -0.0691
 8287TIP3    H224805   7.372   5.846   3.180  1.1630 -0.6218 -0.0248
 8288TIP3   OH224806   5.299   0.342   5.608 -0.4510  0.1292 -0.1524
 8288TIP3    H124807   5.381   0.335   5.561 -1.7446 -1.0019 -2.2890
 8288TIP3    H224808   5.272   0.433   5.596  2.0164  1.4389  3.2872
 8289TIP3   OH224809   1.741   4.657   6.007 -0.3450 -0.0994 -1.1513
 8289TIP3    H124810   1.691   4.712   5.947 -0.2256  1.4056  0.1126
 8289TIP3    H224811   1.706   4.678   6.094 -0.6640 -2.3908 -0.6718
 8290TIP3   OH224812   1.011   3.732   1.137 -0.0558 -0.2580  0.3702
 8290TIP3    H124813   1.080   3.732   1.203 -1.1252 -3.2232  1.5932
 8290TIP3    H224814   0.955   3.805   1.160  1.5999  1.0026  0.5080
 8291TIP3   OH224815   1.551   4.989   4.076 -0.7080  0.4202  0.1547
 8291TIP3    H124816   1.486   4.999   4.146  0.4076 -0.5272  1.3459
 8291TIP3    H224817   1.634   4.979   4.122 -0.0031 -0.5666 -1.3140
 8292TIP3   OH224818   1.686   6.027   4.235  0.1041  0.5545 -0.3651
 8292TIP3    H124819   1.609   6.073   4.268 -0.1584 -0.3197  0.2594
 8292TIP3    H224820   1.652   5.950   4.191  0.6157  0.1305 -0.0355
 8293TIP3   OH224821   2.525   5.583   5.354 -0.5020 -0.0977 -0.0289
 8293TIP3    H124822   2.548   5.514   5.416 -3.9917 -0.8210  0.5416
 8293TIP3    H224823   2.511   5.660   5.410 -0.7968 -0.0110 -0.2251
 8294TIP3   OH224824   0.310   6.660   6.261 -0.5509 -0.0872 -0.0896
 8294TIP3    H124825   0.322   6.747   6.300 -2.6149 -0.0825  0.6572
 8294TIP3    H224826   0.337   6.599   6.330 -0.9547 -0.0402  0.1147
 8295TIP3   OH224827   2.128   5.620   6.241  0.5637 -0.1599  0.0380
 8295TIP3    H124828   2.219   5.607   6.217  0.2083 -1.2013 -0.7675
 8295TIP3    H224829   2.113   5.558   6.312  0.3114 -0.4399 -0.2579
 8296TIP3   OH224830   0.510   5.804   3.997 -0.1757  0.5838 -0.1373
 8296TIP3    H124831   0.555   5.806   3.912  0.0701 -1.2428 -0.0697
 8296TIP3    H224832   0.477   5.715   4.004 -0.3669  0.7843  1.6090
 8297TIP3   OH224833   1.213   5.642   4.349 -0.2983 -0.0188 -0.0582
 8297TIP3    H124834   1.226   5.562   4.400 -2.3868 -0.7048 -0.5301
 8297TIP3    H224835   1.161   5.613   4.274  0.7601  1.4006 -1.3558
 8298TIP3   OH224836   7.828   4.808   4.993  0.1826 -0.0120 -0.3688
 8298TIP3    H124837   7.924   4.818   4.993  0.4004 -1.8311 -1.8596
 8298TIP3    H224838   7.804   4.807   5.086  1.1209  4.3472  0.0455
 8299TIP3   OH224839   7.902   4.550   3.655  0.2216 -0.5380 -0.2835
 8299TIP3    H124840   7.938   4.513   3.736  1.0835 -0.4307 -0.6079
 8299TIP3    H224841   7.841   4.483   3.623 -1.0319 -0.0554  1.0727
 8300TIP3   OH224842   7.994   3.586   4.333 -0.1790  0.0377  0.1184
 8300TIP3    H124843   7.971   3.677   4.313 -0.6870 -0.1119 -0.0123
 8300TIP3    H224844   7.918   3.553   4.381 -0.9387 -0.9249 -1.6703
 8301TIP3   OH224845   7.947   2.245   0.002  0.7580  0.0373  0.0944
 8301TIP3    H124846   8.023   2.291   0.038 -0.6987  2.0733  0.7376
 8301TIP3    H224847   7.945   2.162   0.048  2.9246 -0.2883 -0.3686
 8302TIP3   OH224848   2.709   6.059   3.234 -0.0673 -0.4518  0.4542
 8302TIP3    H124849   2.717   6.047   3.139  1.5853  1.1527  0.3615
 8302TIP3    H224850   2.763   5.991   3.272  0.0876 -0.4594  0.2203
 8303TIP3   OH224851   8.342   5.096   4.654  0.1262 -0.0572 -0.6744
 8303TIP3    H124852   8.412   5.071   4.594  1.0608  3.0852 -0.9867
 8303TIP3    H224853   8.309   5.179   4.618 -0.9207  0.6301  1.7969
 8304TIP3   OH224854   4.431   0.227   4.610  0.2117 -0.0301 -0.0445
 8304TIP3    H124855   4.479   0.249   4.690  0.3462 -2.5007  0.5937
 8304TIP3    H224856   4.498   0.194   4.550 -0.3377 -1.2086 -0.0181
 8305TIP3   OH224857   1.444   4.618   3.601 -0.1302  0.2855  0.1971
 8305TIP3    H124858   1.507   4.547   3.613 -0.6528  0.1436  2.2990
 8305TIP3    H224859   1.456   4.646   3.510  2.0354 -0.6225  0.1753
 8306TIP3   OH224860   0.879   4.254   5.007 -0.2785  0.2083 -0.1385
 8306TIP3    H124861   0.864   4.215   5.093  0.5537  1.1531  0.4318
 8306TIP3    H224862   0.853   4.346   5.017  1.0502  0.6390 -0.5303
 8307TIP3   OH224863   1.749   5.517   5.588  0.2686 -0.2729  0.3191
 8307TIP3    H124864   1.805   5.568   5.646  0.9413 -0.2945 -0.2966
 8307TIP3    H224865   1.744   5.430   5.629  2.0957 -0.7881 -0.4798
 8308TIP3   OH224866   2.822   6.501   3.957 -0.8672 -0.2991  0.0173
 8308TIP3    H124867   2.918   6.496   3.954 -0.7084  1.2603  1.6406
 8308TIP3    H224868   2.801   6.581   3.910 -1.4163 -0.8251 -0.6438
 8309TIP3   OH224869   1.422   5.230   4.018  0.0456 -0.0973 -0.0295
 8309TIP3    H124870   1.478   5.307   4.023  0.7256 -0.5038 -1.0266
 8309TIP3    H224871   1.482   5.156   4.031 -0.7329 -0.4421  1.7960
 8310TIP3   OH224872   2.368   5.283   4.940  0.4450  0.1300 -0.3071
 8310TIP3    H124873   2.398   5.362   4.986 -2.6121  0.7280  0.8033
 8310TIP3    H224874   2.313   5.316   4.869 -1.6563 -0.9663  0.7575
 8311TIP3   OH224875   1.637   5.413   4.016 -0.1397  0.5515 -0.2801
 8311TIP3    H124876   1.714   5.373   4.055  0.1141  0.7703 -0.5510
 8311TIP3    H224877   1.657   5.507   4.014 -0.2395  0.5629 -0.7372
 8312TIP3   OH224878   8.274   6.302   4.904 -0.2212  0.0513  0.7917
 8312TIP3    H124879   8.196   6.313   4.959  0.2718 -0.0415  1.5140
 8312TIP3    H224880   8.346   6.335   4.958 -0.1361  3.0775 -1.0234
 8313TIP3   OH224881   2.883   4.498   5.459  0.2033  0.4174  0.4299
 8313TIP3    H124882   2.972   4.518   5.431  0.2379 -1.1188 -0.6084
 8313TIP3    H224883   2.828   4.549   5.400  0.3938  1.7673  1.4017
 8314TIP3   OH224884   1.079   3.699   4.813 -0.0116 -0.4414 -0.5487
 8314TIP3    H124885   0.992   3.738   4.825  0.7761  1.5762 -1.0887
 8314TIP3    H224886   1.074   3.655   4.728 -0.9193 -1.5667  0.0689
 8315TIP3   OH224887   8.418   7.323   4.619 -0.5618 -0.3583 -0.5632
 8315TIP3    H124888   8.476   7.400   4.617  0.1488 -0.9123 -2.5412
 8315TIP3    H224889   8.462   7.261   4.677  0.5125 -0.5188 -1.5384
 8316TIP3   OH224890   2.469   4.250   5.022 -0.2697 -0.1269 -0.3612
 8316TIP3    H124891   2.449   4.183   4.957 -0.7720 -0.0879 -0.2505
 8316TIP3    H224892   2.505   4.202   5.096  0.2026 -0.1822 -0.6225
 8317TIP3   OH224893   2.842   5.798   6.374 -0.6481 -0.1935 -0.6422
 8317TIP3    H124894   2.842   5.708   6.342 -2.5203 -0.4540  0.0412
 8317TIP3    H224895   2.757   5.808   6.417  0.3034  1.3157  0.9357
 8318TIP3   OH224896   2.899   5.618   5.375 -0.5246  0.4751 -0.3746
 8318TIP3    H124897   2.942   5.704   5.380 -1.3532  0.9140 -0.6812
 8318TIP3    H224898   2.924   5.584   5.289 -0.3023  0.4608 -0.3061
 8319TIP3   OH224899   2.768   5.145   4.892 -0.4848  0.6635  0.8022
 8319TIP3    H124900   2.816   5.228   4.889 -1.3161  1.2213  2.4464
 8319TIP3    H224901   2.818   5.087   4.835  0.1933  2.2489 -0.2414
 8320TIP3   OH224902   4.035   4.923   4.717  0.1513  0.4055 -0.2606
 8320TIP3    H124903   4.001   4.914   4.628 -0.3718  0.9891 -0.1267
 8320TIP3    H224904   4.091   4.847   4.730 -1.6187 -0.9453 -0.2647
 8321TIP3   OH224905   2.678   5.571   4.919 -0.0219 -0.1252  0.0729
 8321TIP3    H124906   2.663   5.625   4.841  0.6069  1.0678  0.7672
 8321TIP3    H224907   2.591   5.563   4.959 -0.2930 -0.4754 -0.5803
 8322TIP3   OH224908   1.947   3.555   4.403 -0.3063  0.4759  0.2467
 8322TIP3    H124909   1.919   3.644   4.422 -1.3707 -0.0826  1.3250
 8322TIP3    H224910   1.926   3.542   4.310  1.6026  1.9774 -0.4304
 8323TIP3   OH224911   0.912   5.467   1.933 -0.1562 -0.1106  0.1623
 8323TIP3    H124912   0.878   5.527   2.001  0.3332  0.1879  0.1406
 8323TIP3    H224913   0.869   5.496   1.853 -1.9366 -1.4235  0.5852
 8324TIP3   OH224914   7.458   5.443   5.332  0.0631  0.7997 -0.6655
 8324TIP3    H124915   7.424   5.353   5.335  0.0070  0.8462  0.3830
 8324TIP3    H224916   7.550   5.434   5.360 -0.1661  1.1630  0.2337
 8325TIP3   OH224917   0.025   6.702   2.600  0.2425  0.3779 -0.8460
 8325TIP3    H124918  -0.015   6.750   2.673 -0.2980 -0.0565 -0.8545
 8325TIP3    H224919   0.118   6.724   2.605  0.3546 -0.4140  0.5511
 8326TIP3   OH224920   7.691   5.577   2.961  0.4486  0.0857 -0.2925
 8326TIP3    H124921   7.627   5.594   2.892 -1.2852 -2.1626  0.7082
 8326TIP3    H224922   7.655   5.503   3.010  3.2499 -0.4901  1.0131
 8327TIP3   OH224923   2.544   6.640   4.151  0.6727 -0.8585 -0.2586
 8327TIP3    H124924   2.464   6.693   4.149  0.8817 -0.5816 -1.2991
 8327TIP3    H224925   2.516   6.555   4.115  0.5335 -1.1890  0.6266
 8328TIP3   OH224926   2.611   5.786   5.503  0.5306 -0.5155  0.3969
 8328TIP3    H124927   2.682   5.748   5.451  0.2346  0.3121 -0.6418
 8328TIP3    H224928   2.646   5.791   5.592  2.2357  1.0115 -0.3243
 8329TIP3   OH224929   2.749   6.937   4.919  0.4382  0.4372 -0.3291
 8329TIP3    H124930   2.672   6.888   4.946 -1.0576  2.7409 -0.3272
 8329TIP3    H224931   2.810   6.927   4.993 -1.2634  1.6100  1.2847
 8330TIP3   OH224932   1.397   5.588   3.996  0.0237  0.2489 -0.7630
 8330TIP3    H124933   1.334   5.599   3.925  0.0169  0.6422 -0.6998
 8330TIP3    H224934   1.483   5.597   3.954  0.0079  3.7083 -0.2547
 8331TIP3   OH224935   2.431   7.442   5.426  0.1661  0.9291  0.2612
 8331TIP3    H124936   2.363   7.423   5.362  0.4155 -1.7829  0.7247
 8331TIP3    H224937   2.513   7.435   5.378  0.3979 -1.8824  0.9624
 8332TIP3   OH224938   3.492   6.185   6.271 -0.3687  0.5445 -0.4789
 8332TIP3    H124939   3.522   6.151   6.187  1.5522  2.0526 -0.4314
 8332TIP3    H224940   3.558   6.250   6.296 -1.5114  0.9392  1.6462
 8333TIP3   OH224941   3.046   5.189   4.052  0.1140 -0.1475 -0.3690
 8333TIP3    H124942   3.080   5.117   3.999  0.1729  0.1866 -0.7884
 8333TIP3    H224943   3.067   5.165   4.142 -3.2450 -2.5342 -0.1200
 8334TIP3   OH224944   2.709   5.770   3.534  0.3049 -0.4216  0.1284
 8334TIP3    H124945   2.674   5.858   3.530  2.2299  0.4264  1.2241
 8334TIP3    H224946   2.716   5.742   3.442  1.7462  1.4185 -0.3430
 8335TIP3   OH224947   2.453   5.543   5.060  0.0379  0.4108 -0.1700
 8335TIP3    H124948   2.388   5.612   5.068  0.7444  0.8510  1.8889
 8335TIP3    H224949   2.481   5.525   5.150 -0.1602 -2.5775 -0.6535
 8336TIP3   OH224950   0.482   4.626   6.488  0.2796 -0.0925  0.0855
 8336TIP3    H124951   0.505   4.710   6.527 -0.8118  0.6379 -0.8111
 8336TIP3    H224952   0.467   4.568   6.563  1.8196  0.2813  0.7011
 8337TIP3   OH224953   7.496   5.669   6.207  0.5717 -0.6477  0.3290
 8337TIP3    H124954   7.451   5.656   6.291 -1.1570 -1.7997 -0.7395
 8337TIP3    H224955   7.497   5.581   6.167  0.2396  0.1187 -1.4069
 8338TIP3   OH224956   2.254   5.731   5.105 -0.4320 -0.1729 -0.7785
 8338TIP3    H124957   2.171   5.695   5.073 -1.1066  0.1532  0.5978
 8338TIP3    H224958   2.248   5.725   5.200  1.2738 -0.4770 -0.6745
 8339TIP3   OH224959   4.608   5.803   3.381 -0.4066 -0.4322 -0.1985
 8339TIP3    H124960   4.524   5.819   3.423  0.2081  0.8470  0.5787
 8339TIP3    H224961   4.652   5.888   3.380  1.0666 -1.1652 -0.1808
 8340TIP3   OH224962   1.955   5.237   4.741  0.4083 -0.0314 -0.2136
 8340TIP3    H124963   1.930   5.202   4.656 -1.5796  0.7463  0.0063
 8340TIP3    H224964   1.930   5.330   4.736 -1.4575 -0.3813  1.8200
 8341TIP3   OH224965   3.529   4.697   4.724 -0.0767 -0.1930 -0.0509
 8341TIP3    H124966   3.458   4.698   4.788  0.4094  1.4574  0.4912
 8341TIP3    H224967   3.484   4.701   4.639 -0.6320  1.0172  0.2948
 8342TIP3   OH224968   2.668   3.125   5.105  0.5467  0.0777  0.1438
 8342TIP3    H124969   2.701   3.118   5.195  0.1508  1.9740  0.4487
 8342TIP3    H224970   2.629   3.212   5.100 -0.0605 -0.2745 -1.6728
 8343TIP3   OH224971   1.125   4.990   5.128 -0.4207  0.1687  0.2809
 8343TIP3    H124972   1.187   4.998   5.201  0.5303 -2.2008 -0.2336
 8343TIP3    H224973   1.065   4.922   5.156 -1.1058  0.4758 -0.4347
 8344TIP3   OH224974   1.772   7.957   6.486  0.6228  0.3893 -0.7376
 8344TIP3    H124975   1.770   8.051   6.501 -0.4075  0.2295  0.1994
 8344TIP3    H224976   1.860   7.940   6.451  1.6930  1.3746  1.3490
 8345TIP3   OH224977   6.907   7.856   0.140  0.2345  0.1647  0.2082
 8345TIP3    H124978   6.935   7.933   0.092  0.2323  0.7935  1.1981
 8345TIP3    H224979   6.859   7.890   0.215 -0.4714 -0.8212  0.2172
 8346TIP3   OH224980   2.580   7.273   4.975 -0.0708  0.4407  0.0544
 8346TIP3    H124981   2.537   7.209   5.032  0.7732 -0.5493 -0.4227
 8346TIP3    H224982   2.630   7.221   4.913  1.0515  1.5774 -0.0054
 8347TIP3   OH224983   6.336   2.836   0.608 -0.7870 -0.3893  0.4178
 8347TIP3    H124984   6.346   2.742   0.592  3.2075 -0.1308  0.7553
 8347TIP3    H224985   6.281   2.842   0.686 -2.3755 -2.3733 -0.5149
 8348TIP3   OH224986   8.098   4.724   3.589  0.5082  0.1235  0.3037
 8348TIP3    H124987   8.030   4.664   3.620 -1.8297  3.1577  1.3158
 8348TIP3    H224988   8.095   4.717   3.493  1.0567 -2.1302  0.4210
 8349TIP3   OH224989   3.529   6.518   6.776 -0.2074 -0.1522 -0.2249
 8349TIP3    H124990   3.534   6.428   6.743 -2.4332 -0.2681 -0.2995
 8349TIP3    H224991   3.471   6.513   6.852  1.3795  0.8726  1.0857
 8350TIP3   OH224992   0.392   6.821   4.240 -0.1049  0.6627 -0.2954
 8350TIP3    H124993   0.478   6.822   4.282 -0.3665  0.3791  0.2493
 8350TIP3    H224994   0.376   6.912   4.215 -0.2973  0.9867  0.9485
 8351TIP3   OH224995   0.927   5.186   3.827  0.0389  0.1039  0.1272
 8351TIP3    H124996   0.899   5.099   3.854 -0.6152  0.3925  0.3759
 8351TIP3    H224997   1.006   5.202   3.879  1.1697 -1.0399 -1.1793
 8352TIP3   OH224998   2.173   7.910   5.655  0.5434 -0.1981  0.2237
 8352TIP3    H124999   2.083   7.895   5.683  0.5232  1.0044  0.8468
 8352TIP3    H225000   2.225   7.898   5.734  0.8111  0.1171  0.1002
 8353TIP3   OH225001   3.385   3.973   5.034  0.0171  0.9917 -0.2144
 8353TIP3    H125002   3.331   3.963   5.112  1.3945  0.7333  0.7075
 8353TIP3    H225003   3.327   3.946   4.962 -0.5469 -0.9226  0.9179
 8354TIP3   OH225004   3.351   0.431   6.775  0.0636 -0.3707 -0.2331
 8354TIP3    H125005   3.386   0.507   6.822  1.0340 -1.5303  0.9767
 8354TIP3    H225006   3.337   0.462   6.685  1.7885  0.8280 -0.1049
 8355TIP3   OH225007   0.595   5.637   4.802  0.0503 -0.0197  0.1689
 8355TIP3    H125008   0.612   5.590   4.721 -1.5422 -1.0115  0.3888
 8355TIP3    H225009   0.540   5.711   4.776 -1.9247 -1.2974  0.5251
 8356TIP3   OH225010   1.034   7.616   6.017  0.2755 -0.7048 -0.1986
 8356TIP3    H125011   1.102   7.681   6.033 -1.3082  0.7432  0.7850
 8356TIP3    H225012   1.080   7.532   6.021  1.7660  0.1587  1.8976
 8357TIP3   OH225013   1.873   6.202   5.456 -0.2610  0.3241  0.3324
 8357TIP3    H125014   1.901   6.182   5.545 -0.5171 -0.2027  0.2934
 8357TIP3    H225015   1.951   6.237   5.413  0.4207 -1.4179  0.1351
 8358TIP3   OH225016   4.230   3.258   5.333 -0.7648  0.3088  0.1786
 8358TIP3    H125017   4.203   3.189   5.272  1.1699  1.1336 -1.6958
 8358TIP3    H225018   4.316   3.230   5.365  0.2176  1.9900 -0.8990
 8359TIP3   OH225019   1.060   5.432   4.212 -0.1260  0.4904  0.2270
 8359TIP3    H125020   1.021   5.505   4.164 -1.5174 -1.0468 -1.0367
 8359TIP3    H225021   1.111   5.384   4.146 -0.5069 -0.5742  0.6810
 8360TIP3   OH225022   2.037   4.878   4.768 -1.3552 -0.4665  0.8680
 8360TIP3    H125023   2.008   4.937   4.699 -1.0923 -0.9437  0.3512
 8360TIP3    H225024   2.046   4.934   4.845 -2.2634 -0.0556  0.6743
 8361TIP3   OH225025   1.800   6.211   4.801  0.0022  0.0160  0.4446
 8361TIP3    H125026   1.895   6.211   4.813  0.1126  1.8310 -0.1991
 8361TIP3    H225027   1.784   6.282   4.739 -1.7436 -0.5319  0.2467
 8362TIP3   OH225028   0.846   5.108   4.534 -0.3625 -0.7258  0.1586
 8362TIP3    H125029   0.844   5.069   4.621 -1.3267 -0.7861  0.1189
 8362TIP3    H225030   0.902   5.185   4.544  0.5328 -1.4214  0.5316
 8363TIP3   OH225031   2.529   6.855   2.146 -0.8965 -0.1262 -0.1624
 8363TIP3    H125032   2.491   6.768   2.137 -0.4657 -0.7226  3.1161
 8363TIP3    H225033   2.458   6.908   2.183 -0.2635  0.1632  0.6407
 8364TIP3   OH225034   1.943   0.326   5.273  0.2876  0.2213 -0.0506
 8364TIP3    H125035   2.007   0.396   5.266  1.6120 -0.9308  0.2017
 8364TIP3    H225036   1.906   0.336   5.361  2.1577 -0.7903  0.8699
 8365TIP3   OH225037   1.667   5.291   5.754 -0.4844 -0.3209  0.3383
 8365TIP3    H125038   1.591   5.340   5.786 -0.9828 -1.1414  0.4148
 8365TIP3    H225039   1.633   5.204   5.734  0.5309 -0.8266  0.7934
 8366TIP3   OH225040   1.949   4.553   5.030 -0.1897 -0.0572  0.2680
 8366TIP3    H125041   1.877   4.598   4.985 -0.6206  0.4504  1.4213
 8366TIP3    H225042   2.025   4.567   4.975 -0.6267  0.8843 -0.1026
 8367TIP3   OH225043   2.725   7.637   4.509  0.3709 -0.3539 -0.1326
 8367TIP3    H125044   2.637   7.628   4.546  0.3082  0.3304 -0.1255
 8367TIP3    H225045   2.720   7.711   4.449  0.9927 -0.1872  0.0126
 8368TIP3   OH225046   3.135   5.279   6.866 -0.0393 -0.5295 -0.6343
 8368TIP3    H125047   3.121   5.272   6.960 -1.4260 -2.1309 -0.9399
 8368TIP3    H225048   3.145   5.188   6.837  0.1651 -0.0542 -2.0587
 8369TIP3   OH225049   1.265   4.866   3.359 -0.1683 -0.0499  0.4639
 8369TIP3    H125050   1.197   4.805   3.388  0.8621 -1.6445 -0.3926
 8369TIP3    H225051   1.315   4.886   3.438  0.2451 -1.3042  0.5310
 8370TIP3   OH225052   0.657   4.031   2.399  0.4723 -0.1056  0.1821
 8370TIP3    H125053   0.688   3.941   2.392 -2.4254 -1.1537 -0.1087
 8370TIP3    H225054   0.722   4.083   2.352  1.3241 -2.2700 -1.0865
 8371TIP3   OH225055   1.360   6.436   4.213  0.4797  0.2630  0.0198
 8371TIP3    H125056   1.383   6.465   4.125  0.9081 -0.6705 -0.1826
 8371TIP3    H225057   1.349   6.341   4.206  0.7713  0.1397  1.0134
 8372TIP3   OH225058   3.849   5.707   5.535 -0.1186 -0.2997  0.4314
 8372TIP3    H125059   3.818   5.634   5.590 -1.8410  1.5692  1.9972
 8372TIP3    H225060   3.885   5.770   5.597  1.0745  0.3558 -0.8984
 8373TIP3   OH225061   3.138   6.553   4.176  0.1003 -0.2754 -0.7663
 8373TIP3    H125062   3.149   6.645   4.199 -1.5589  0.0452 -1.1985
 8373TIP3    H225063   3.130   6.553   4.081  0.4058 -0.9113 -0.7953
 8374TIP3   OH225064   6.688   2.860   0.078 -0.3264  0.4349  0.1914
 8374TIP3    H125065   6.631   2.916   0.130 -0.2509 -0.6290  1.4700
 8374TIP3    H225066   6.767   2.850   0.131  0.4838  0.7504 -0.9261
 8375TIP3   OH225067   1.459   2.614   4.954  0.1299 -0.9594 -0.1353
 8375TIP3    H125068   1.499   2.675   5.015  0.6662 -1.3119 -0.1247
 8375TIP3    H225069   1.385   2.661   4.916  1.2296  0.0981 -0.9879
 8376TIP3   OH225070   8.173   5.546   3.362  0.3028  0.3900  0.1183
 8376TIP3    H125071   8.188   5.641   3.360 -0.5204  0.5029 -1.5457
 8376TIP3    H225072   8.094   5.533   3.309 -0.1746 -1.1280  1.1710
 8377TIP3   OH225073   1.782   7.804   2.357  0.3748 -0.2675  0.2449
 8377TIP3    H125074   1.745   7.765   2.436 -1.2373 -0.4619 -0.5832
 8377TIP3    H225075   1.714   7.865   2.327  1.1407  0.1004 -0.7636
 8378TIP3   OH225076   2.076   6.148   4.576 -0.6409  0.3094  0.3669
 8378TIP3    H125077   2.088   6.158   4.670 -1.4071 -1.4173  0.6684
 8378TIP3    H225078   2.099   6.056   4.558  1.3352  1.0988 -1.4346
 8379TIP3   OH225079   3.441   5.676   6.222  0.6585 -0.1307  0.9205
 8379TIP3    H125080   3.534   5.692   6.239  0.4223  1.5348  0.7218
 8379TIP3    H225081   3.400   5.683   6.308  0.5506  0.3867  0.8289
 8380TIP3   OH225082   3.894   4.566   5.360 -0.3164  0.5644 -0.4437
 8380TIP3    H125083   3.907   4.661   5.366 -1.8708  0.7807 -0.2572
 8380TIP3    H225084   3.977   4.529   5.388  0.0837  1.8755  0.1713
 8381TIP3   OH225085   8.449   7.164   1.582  0.2067  0.2648  0.0882
 8381TIP3    H125086   8.480   7.238   1.634  1.4975 -1.2409  1.4919
 8381TIP3    H225087   8.524   7.142   1.526  0.0735 -0.4453  0.1903
 8382TIP3   OH225088   2.908   4.944   4.764 -0.0495 -0.4011 -0.2953
 8382TIP3    H125089   2.908   4.861   4.813 -0.5926  0.8800  1.9490
 8382TIP3    H225090   2.896   4.917   4.673 -1.3256 -2.7590  0.4965
 8383TIP3   OH225091   0.899   7.253   6.057  0.3313  0.0952  0.3004
 8383TIP3    H125092   0.834   7.297   6.111  0.1446 -0.2007  0.3139
 8383TIP3    H225093   0.874   7.273   5.967  0.0549 -0.2614  0.2992
 8384TIP3   OH225094   3.778   6.875   4.295  0.0662  0.2297  0.0218
 8384TIP3    H125095   3.686   6.858   4.276  0.6914 -2.0598 -1.1634
 8384TIP3    H225096   3.793   6.830   4.379  0.1659  0.4356  0.1157
 8385TIP3   OH225097   3.277   7.978   4.222 -0.0468 -0.0736  0.0195
 8385TIP3    H125098   3.326   7.900   4.197  0.3247  0.2966 -0.4150
 8385TIP3    H225099   3.186   7.956   4.205  0.0406 -0.4663  0.0500
 8386TIP3   OH225100   1.751   5.656   4.046 -0.8847 -0.4313  0.2486
 8386TIP3    H125101   1.778   5.688   3.960  0.1359 -2.0695 -0.0557
 8386TIP3    H225102   1.833   5.646   4.095 -1.4696  0.6567  1.4865
 8387TIP3   OH225103   6.370   0.616   4.995  0.3268 -0.0739 -0.3851
 8387TIP3    H125104   6.380   0.704   4.960 -0.3979 -0.1920 -0.9001
 8387TIP3    H225105   6.317   0.627   5.074 -0.1136 -0.0918 -0.6753
 8388TIP3   OH225106   4.211   7.267   4.534  0.1068  0.1286  0.2758
 8388TIP3    H125107   4.121   7.241   4.516  0.3353  0.5795 -1.5897
 8388TIP3    H225108   4.254   7.186   4.561 -0.0008 -0.8094 -2.2634
 8389TIP3   OH225109   3.620   5.397   5.222 -0.3592  0.2737 -0.7954
 8389TIP3    H125110   3.702   5.358   5.253 -1.8183 -1.4151  1.0239
 8389TIP3    H225111   3.580   5.329   5.168 -1.0521  0.7241 -0.8531
 8390TIP3   OH225112   3.804   5.919   5.955  0.2179 -0.0010  0.8379
 8390TIP3    H125113   3.858   5.875   5.889  1.5741  0.2025  1.7977
 8390TIP3    H225114   3.728   5.861   5.965  0.1224 -0.1647 -0.6994
 8391TIP3   OH225115   3.302   5.856   2.756 -0.3918 -0.0754 -0.4837
 8391TIP3    H125116   3.365   5.786   2.769 -0.1808  0.0531 -0.8033
 8391TIP3    H225117   3.259   5.834   2.672 -0.3554  0.1529 -0.5623
 8392TIP3   OH225118   5.766   1.783   3.700 -0.3236 -0.1095  0.2426
 8392TIP3    H125119   5.705   1.743   3.637 -0.6355 -1.7912  1.5743
 8392TIP3    H225120   5.787   1.712   3.761  0.9649  1.1629  1.3072
 8393TIP3   OH225121   3.635   6.209   5.735 -0.2382 -0.6787 -0.2963
 8393TIP3    H125122   3.728   6.215   5.759 -0.2146 -0.5711 -0.4127
 8393TIP3    H225123   3.633   6.145   5.664  0.0807  1.1617 -2.0095
 8394TIP3   OH225124   6.299   6.638   3.941 -0.3572 -0.1129  0.5260
 8394TIP3    H125125   6.327   6.717   3.987 -0.9098 -0.0490  0.7647
 8394TIP3    H225126   6.345   6.567   3.986  0.5076  0.1131  0.0069
 8395TIP3   OH225127   3.487   6.798   4.330  0.4561  0.3302  0.0186
 8395TIP3    H125128   3.519   6.738   4.397 -0.4999 -0.3376 -0.1057
 8395TIP3    H225129   3.445   6.869   4.378  0.1020  0.0414  0.1378
 8396TIP3   OH225130   4.208   3.971   5.192 -0.1273 -0.3460  0.3658
 8396TIP3    H125131   4.128   3.936   5.152 -1.3737 -0.1780  2.6397
 8396TIP3    H225132   4.227   3.910   5.263 -0.9344  2.1809  2.8336
 8397TIP3   OH225133   1.718   5.473   4.369  0.2400 -0.5359  0.0355
 8397TIP3    H125134   1.798   5.494   4.320 -0.6642  2.4710 -0.2514
 8397TIP3    H225135   1.705   5.549   4.426 -2.3890 -1.0296  0.1327
 8398TIP3   OH225136   2.963   4.859   2.671  0.4755  0.0907  0.9647
 8398TIP3    H125137   2.945   4.821   2.757 -2.3760 -0.6934  0.0812
 8398TIP3    H225138   2.941   4.790   2.609  1.5258  0.9974 -0.4513
 8399TIP3   OH225139   5.429   6.579   6.802  0.1147  0.1898  0.4754
 8399TIP3    H125140   5.471   6.628   6.872  0.2948  1.2717 -0.3686
 8399TIP3    H225141   5.358   6.636   6.772 -1.1119 -1.0461  0.9907
 8400TIP3   OH225142   2.077   4.857   5.716  0.0716  0.4108  0.0346
 8400TIP3    H125143   2.111   4.778   5.676  0.3758  1.0842 -1.0530
 8400TIP3    H225144   2.062   4.833   5.807 -0.0579 -0.9573 -0.3424
 8401TIP3   OH225145   2.280   6.368   3.539 -0.5347  0.1513  0.0365
 8401TIP3    H125146   2.227   6.301   3.495  0.2316 -0.8325  0.5916
 8401TIP3    H225147   2.361   6.371   3.487 -0.8007  1.0746 -0.3320
 8402TIP3   OH225148   5.092   4.708   3.969 -0.1073  0.0319 -0.5271
 8402TIP3    H125149   5.140   4.790   3.961 -1.1172  0.7536  0.5912
 8402TIP3    H225150   5.156   4.645   4.003  0.1776  0.8697  0.5134
 8403TIP3   OH225151   2.715   5.889   2.941  0.2418  0.1391 -0.1159
 8403TIP3    H125152   2.629   5.849   2.925  0.7670 -0.6923 -0.9103
 8403TIP3    H225153   2.696   5.982   2.955 -0.8413 -0.1306  0.2477
 8404TIP3   OH225154   4.895   5.354   6.490 -0.3193 -0.4197 -0.2119
 8404TIP3    H125155   4.876   5.404   6.570  0.5857 -1.5205  0.6942
 8404TIP3    H225156   4.892   5.263   6.517  1.7416 -0.7618 -1.0274
 8405TIP3   OH225157   4.416   5.839   5.886 -0.2845  0.1844 -0.0382
 8405TIP3    H125158   4.355   5.791   5.831  0.4986  0.0004 -0.7398
 8405TIP3    H225159   4.362   5.871   5.959 -0.9009 -1.3559  0.2004
 8406TIP3   OH225160   1.913   6.164   3.667  0.3396  0.0055  0.2467
 8406TIP3    H125161   1.885   6.072   3.669 -2.3440  0.8026  0.8854
 8406TIP3    H225162   1.954   6.178   3.753  1.4020 -0.7602 -0.1186
 8407TIP3   OH225163   7.338   0.090   4.410  0.2316 -0.9515 -0.9671
 8407TIP3    H125164   7.333   0.025   4.340  1.2949 -0.4579 -1.5145
 8407TIP3    H225165   7.431   0.095   4.432 -0.1860 -1.8449  1.1987
 8408TIP3   OH225166   6.290   5.880   6.374  0.4041 -0.6662 -0.3962
 8408TIP3    H125167   6.343   5.896   6.452 -0.5090 -1.1938  0.3363
 8408TIP3    H225168   6.288   5.964   6.328 -0.3783  0.0667  0.9629
 8409TIP3   OH225169   6.152   4.757   5.327 -0.4299  0.0206  0.2207
 8409TIP3    H125170   6.080   4.755   5.264 -1.0181  0.7736  0.8474
 8409TIP3    H225171   6.203   4.834   5.303 -0.2001 -0.1467  0.1732
 8410TIP3   OH225172   3.870   6.541   4.997 -0.6490 -0.7473 -0.5352
 8410TIP3    H125173   3.955   6.513   4.965 -0.6467 -0.0493 -1.1599
 8410TIP3    H225174   3.815   6.544   4.919 -1.2131 -1.0688 -0.1552
 8411TIP3   OH225175   3.573   5.993   4.906  0.3962 -0.3016  0.1169
 8411TIP3    H125176   3.624   6.071   4.927 -0.0133 -0.3668  1.3928
 8411TIP3    H225177   3.495   6.028   4.862  0.9899 -0.1235 -0.8101
 8412TIP3   OH225178   3.401   7.885   3.590 -0.8678 -0.4184 -0.4497
 8412TIP3    H125179   3.453   7.963   3.569 -0.4357 -0.3357  0.8371
 8412TIP3    H225180   3.440   7.815   3.539  0.1160 -0.2222  0.0165
 8413TIP3   OH225181   3.015   6.539   2.949 -0.0647 -0.3971  0.7494
 8413TIP3    H125182   2.940   6.595   2.970 -0.6259 -0.0381 -2.1102
 8413TIP3    H225183   3.089   6.598   2.946 -0.3817 -0.0672 -0.6298
 8414TIP3   OH225184   4.558   6.586   3.466 -0.0910  0.4256 -0.4795
 8414TIP3    H125185   4.469   6.569   3.435 -0.1002 -1.0266  0.3027
 8414TIP3    H225186   4.612   6.585   3.387 -0.6067  0.2056 -0.8307
 8415TIP3   OH225187   5.074   5.715   3.516 -0.0202 -0.0048 -0.0122
 8415TIP3    H125188   5.166   5.705   3.490  0.0164 -0.7942  0.4266
 8415TIP3    H225189   5.071   5.801   3.559  0.3355  0.4001 -0.7797
 8416TIP3   OH225190   6.427   6.198   4.078  0.1998 -0.4911 -0.5546
 8416TIP3    H125191   6.504   6.253   4.064 -1.4037  1.0281 -4.2036
 8416TIP3    H225192   6.455   6.110   4.053  1.3832 -0.3786  0.3666
 8417TIP3   OH225193   5.629   4.778   4.157 -0.3522 -0.2425 -0.2760
 8417TIP3    H125194   5.537   4.754   4.171 -0.1824 -0.4306  0.6071
 8417TIP3    H225195   5.667   4.774   4.245 -0.1546  2.6003 -0.1972
 8418TIP3   OH225196   2.990   5.493   3.173  0.6085  0.3543 -0.5566
 8418TIP3    H125197   2.965   5.404   3.147  1.5735  0.2212 -1.0777
 8418TIP3    H225198   2.929   5.550   3.125  0.6843  0.0042 -1.0793
 8419TIP3   OH225199   1.927   6.906   4.711  0.1175 -0.2030  0.0164
 8419TIP3    H125200   1.898   6.984   4.758 -1.3508 -0.3793 -0.5838
 8419TIP3    H225201   1.895   6.917   4.622  0.1419 -1.3570 -0.1524
 8420TIP3   OH225202   2.150   5.716   4.018  0.1435  0.4397 -0.7519
 8420TIP3    H125203   2.150   5.665   4.099  3.3042  1.0755 -0.2808
 8420TIP3    H225204   2.179   5.655   3.951  2.9114  1.2952 -0.3743
 8421TIP3   OH225205   7.182   0.097   4.925 -0.3932  0.6683 -0.5092
 8421TIP3    H125206   7.255   0.072   4.869  0.1106  0.2415  0.3274
 8421TIP3    H225207   7.105   0.062   4.881  0.1952 -1.4281  0.0971
 8422TIP3   OH225208   3.368   5.924   6.104 -0.0554 -0.0587  0.5618
 8422TIP3    H125209   3.451   5.927   6.056 -0.6287  1.2857 -0.3924
 8422TIP3    H225210   3.374   5.845   6.157  2.5055  0.8494  1.7424
 8423TIP3   OH225211   3.562   5.993   4.625  0.0921 -0.2393 -0.4664
 8423TIP3    H125212   3.535   5.906   4.596 -0.7371 -0.2569  0.3275
 8423TIP3    H225213   3.590   5.980   4.716  0.6045  0.2013 -0.5620
 8424TIP3   OH225214   4.405   6.076   4.402  0.1655 -0.0948 -0.0360
 8424TIP3    H125215   4.384   5.984   4.414  0.5154 -0.0067  1.3913
 8424TIP3    H225216   4.328   6.123   4.435  0.2276  0.1255 -0.2061
 8425TIP3   OH225217   4.220   7.015   1.916 -0.1764  0.3027  0.1031
 8425TIP3    H125218   4.279   7.003   1.991  0.1465 -0.5567 -0.2871
 8425TIP3    H225219   4.275   6.999   1.839 -0.9298 -0.6183 -0.2566
 8426TIP3   OH225220   5.525   0.550   2.579 -0.1773 -0.0246 -0.3782
 8426TIP3    H125221   5.603   0.494   2.575  0.6807  0.9932  1.3741
 8426TIP3    H225222   5.540   0.618   2.514  2.2038  2.3339  2.4873
 8427TIP3   OH225223   3.968   2.837   2.635 -0.0063 -0.1167 -0.3380
 8427TIP3    H125224   4.027   2.790   2.576  0.8442 -0.8498  1.0591
 8427TIP3    H225225   4.027   2.878   2.699 -0.8188  1.8620 -0.8358
 8428TIP3   OH225226   4.638   6.653   2.346  0.1803  0.5525  0.2563
 8428TIP3    H125227   4.597   6.675   2.263 -0.6205 -0.6434  0.3292
 8428TIP3    H225228   4.566   6.623   2.401  0.8697  0.2951  1.0199
 8429TIP3   OH225229   5.263   6.730   3.281  0.5111 -0.9419 -0.1054
 8429TIP3    H125230   5.207   6.673   3.332  0.5797 -1.7629 -0.9383
 8429TIP3    H225231   5.331   6.759   3.342  0.8896 -2.3174  0.1377
 8430TIP3   OH225232   2.794   5.893   5.270  0.1893  0.0038  0.6646
 8430TIP3    H125233   2.847   5.843   5.208  0.4467  0.8760  0.1773
 8430TIP3    H225234   2.840   5.884   5.353 -0.2366 -1.2991  0.7791
 8431TIP3   OH225235   2.953   6.961   2.972  0.2840 -0.0110 -0.1094
 8431TIP3    H125236   2.990   6.926   2.891  0.7958  0.9548 -0.3065
 8431TIP3    H225237   2.867   6.996   2.947  0.6162  0.6614 -0.3320
 8432TIP3   OH225238   6.170   0.119   4.950 -0.0453  0.2821  0.4019
 8432TIP3    H125239   6.208   0.040   4.913 -1.0745 -0.4139  0.8119
 8432TIP3    H225240   6.224   0.190   4.914  0.3781 -0.5359 -0.6246
 8433TIP3   OH225241   5.420   6.158   1.535  0.2458  0.5149  0.5181
 8433TIP3    H125242   5.339   6.135   1.488  1.0367  0.1306 -0.6773
 8433TIP3    H225243   5.446   6.077   1.579  1.3255 -0.0744 -1.1427
 8434TIP3   OH225244   1.176   7.772   3.387 -0.0705  0.0387  0.2473
 8434TIP3    H125245   1.121   7.826   3.331  2.2711  1.1091 -1.0917
 8434TIP3    H225246   1.188   7.691   3.337  0.5892  0.3084 -0.0399
 8435TIP3   OH225247   3.836   6.761   3.762 -0.0754 -0.2741 -0.1595
 8435TIP3    H125248   3.925   6.787   3.736 -0.0998 -0.0380 -0.0122
 8435TIP3    H225249   3.826   6.797   3.850 -0.8707  1.0326 -0.7637
 8436TIP3   OH225250   3.191   7.206   2.171  0.4534  0.3125 -0.0100
 8436TIP3    H125251   3.108   7.164   2.148  1.8870 -2.1856 -0.6941
 8436TIP3    H225252   3.208   7.178   2.261  1.3855 -0.5129 -0.4452
 8437TIP3   OH225253   4.233   6.127   4.877 -0.4060  0.0034 -0.3593
 8437TIP3    H125254   4.273   6.205   4.915 -1.6151  0.2753  0.3950
 8437TIP3    H225255   4.166   6.101   4.940 -2.7083  0.6831 -2.3971
 8438TIP3   OH225256   4.378   5.408   4.442 -0.2085  0.2576  0.2155
 8438TIP3    H125257   4.408   5.455   4.519 -0.8216  0.9395  0.0441
 8438TIP3    H225258   4.453   5.356   4.415  0.0372  0.0627  1.2298
 8439TIP3   OH225259   4.287   5.411   5.611 -0.2391  0.4529 -0.5734
 8439TIP3    H125260   4.279   5.334   5.554 -2.7176 -0.6982  1.2466
 8439TIP3    H225261   4.230   5.476   5.571 -3.4557 -0.9812  1.4939
 8440TIP3   OH225262   2.069   0.796   0.078 -0.0230 -0.0071  0.7384
 8440TIP3    H125263   2.057   0.788  -0.016  3.2513  0.7964  0.1774
 8440TIP3    H225264   2.037   0.884   0.100 -0.5570 -0.1025  0.3297
 8441TIP3   OH225265   5.071   4.676   2.666  0.1158  0.1421 -0.3254
 8441TIP3    H125266   5.026   4.592   2.681  0.2694 -0.1707 -1.5508
 8441TIP3    H225267   5.128   4.659   2.590  0.0587  1.3923 -0.6534
 8442TIP3   OH225268   4.944   7.570   5.901  0.3596 -0.5608 -0.3929
 8442TIP3    H125269   5.004   7.534   5.967  0.0287 -1.7092 -0.7041
 8442TIP3    H225270   4.882   7.499   5.885 -0.7750  0.4401 -0.4523
 8443TIP3   OH225271   5.827   5.782   5.131 -0.2426 -0.5056 -0.2867
 8443TIP3    H125272   5.845   5.693   5.163 -0.5170 -0.5088 -0.1404
 8443TIP3    H225273   5.820   5.772   5.036  0.2326 -0.5537 -0.3177
 8444TIP3   OH225274   1.920   4.576   5.536 -0.1348  0.3822  0.3245
 8444TIP3    H125275   1.950   4.486   5.548  0.2839  0.4886  0.0660
 8444TIP3    H225276   1.896   4.582   5.444 -1.5016  0.1340  0.6550
 8445TIP3   OH225277   5.781   4.444   3.445 -0.2536  0.4012 -0.2639
 8445TIP3    H125278   5.732   4.366   3.471 -0.8938  0.3630 -1.5290
 8445TIP3    H225279   5.714   4.511   3.429  0.2180  0.8766 -0.2616
 8446TIP3   OH225280   5.654   5.917   3.307 -0.0057  0.3127 -0.6957
 8446TIP3    H125281   5.613   6.001   3.283 -0.5903  0.6815  1.4494
 8446TIP3    H225282   5.748   5.933   3.299 -0.1388  0.9765 -0.9512
 8447TIP3   OH225283   3.559   6.036   2.905  0.5233 -0.2128  0.2227
 8447TIP3    H125284   3.590   6.030   2.815  0.3215  1.3328  0.0371
 8447TIP3    H225285   3.465   6.055   2.896  0.3996 -0.5525  0.7683
 8448TIP3   OH225286   4.745   5.329   4.131 -0.0692  0.1583  0.1792
 8448TIP3    H125287   4.817   5.367   4.080 -0.0569  1.1731  0.9199
 8448TIP3    H225288   4.714   5.255   4.079  1.5893 -0.3543 -0.0870
 8449TIP3   OH225289   3.378   5.831   4.037 -0.4648 -0.4212 -0.4638
 8449TIP3    H125290   3.351   5.742   4.061 -1.3443  0.2011  0.9673
 8449TIP3    H225291   3.297   5.876   4.015 -0.0060 -0.0223 -1.3624
 8450TIP3   OH225292   3.053   6.157   5.489  0.2913  0.0094 -0.1872
 8450TIP3    H125293   3.054   6.150   5.585  2.2673  1.2315 -0.0828
 8450TIP3    H225294   2.991   6.227   5.471  2.1861  1.8751  0.4007
 8451TIP3   OH225295   1.501   5.606   3.032 -0.2939 -0.3690 -0.3328
 8451TIP3    H125296   1.548   5.602   3.116  0.8479  0.3243 -0.9286
 8451TIP3    H225297   1.477   5.515   3.014 -0.4257 -0.5402  0.6859
 8452TIP3   OH225298   5.312   5.464   3.712 -0.1844 -0.2725  0.2569
 8452TIP3    H125299   5.288   5.385   3.665 -0.6228 -0.6461  1.0901
 8452TIP3    H225300   5.338   5.526   3.644 -0.0587 -1.0519 -0.4164
 8453TIP3   OH225301   3.650   4.255   4.089 -0.0054 -0.4041 -0.0364
 8453TIP3    H125302   3.648   4.349   4.070 -0.7059 -0.3932  0.0606
 8453TIP3    H225303   3.585   4.243   4.158 -3.6700 -1.6516 -3.4639
 8454TIP3   OH225304   2.857   6.348   3.600 -0.0930  0.2950 -0.1676
 8454TIP3    H125305   2.780   6.341   3.543 -0.7256  0.3141  0.6888
 8454TIP3    H225306   2.889   6.259   3.608  0.1967  0.3342 -0.8220
 8455TIP3   OH225307   3.305   5.321   3.325  0.1691  0.3218 -0.0843
 8455TIP3    H125308   3.246   5.259   3.367  0.6012  0.4699  0.7363
 8455TIP3    H225309   3.381   5.327   3.383  1.0319  0.0930 -1.1508
 8456TIP3   OH225310   5.848   4.025   3.524  0.7556  0.1295  0.1159
 8456TIP3    H125311   5.814   3.936   3.526  1.8305 -0.2832 -0.0969
 8456TIP3    H225312   5.820   4.063   3.607  0.6111 -0.5117  0.3624
 8457TIP3   OH225313   4.560   5.755   4.343  0.4197 -0.4940  0.0990
 8457TIP3    H125314   4.522   5.799   4.267  1.0027  1.8490  1.1314
 8457TIP3    H225315   4.486   5.737   4.400  0.2029 -0.7004 -0.2426
 8458TIP3   OH225316   6.519   0.961   2.260  0.2416  0.3901  0.5689
 8458TIP3    H125317   6.532   0.898   2.189 -0.4565 -0.2444  0.9939
 8458TIP3    H225318   6.584   0.937   2.326 -0.5474 -0.4237  1.0809
 8459TIP3   OH225319   1.195   3.239   0.199  0.0222 -0.1979  0.1412
 8459TIP3    H125320   1.279   3.194   0.197  0.4086  0.5000  0.4767
 8459TIP3    H225321   1.153   3.216   0.116  0.2866 -1.0243  0.2314
 8460TIP3   OH225322   4.393   4.295   6.643 -0.3508  0.4005 -0.4184
 8460TIP3    H125323   4.353   4.334   6.720  1.7533  0.7126  0.5670
 8460TIP3    H225324   4.471   4.251   6.676 -0.3396 -0.9246 -2.1353
 8461TIP3   OH225325   1.379   4.844   5.543  0.3002  0.3378  0.2541
 8461TIP3    H125326   1.380   4.751   5.523 -0.1159  0.5107 -0.5895
 8461TIP3    H225327   1.311   4.855   5.609 -1.0199  0.3292 -1.0921
 8462TIP3   OH225328   4.758   6.294   5.557  0.1596  0.2637 -0.1485
 8462TIP3    H125329   4.840   6.298   5.508  0.8061  0.8621  0.9546
 8462TIP3    H225330   4.716   6.212   5.528  0.4745  0.6484 -1.7414
 8463TIP3   OH225331   4.786   1.102   3.125 -0.1580 -0.2866 -0.0458
 8463TIP3    H125332   4.838   1.042   3.180  0.4090 -1.1423 -1.4738
 8463TIP3    H225333   4.846   1.173   3.105 -0.0508 -0.4603 -0.3480
 8464TIP3   OH225334   3.087   7.329   1.479  0.2552  0.5929 -0.5718
 8464TIP3    H125335   3.031   7.357   1.552 -0.3623 -1.1075 -0.3674
 8464TIP3    H225336   3.171   7.310   1.519 -0.1173 -0.4506 -0.2767
 8465TIP3   OH225337   4.467   6.977   3.876 -0.0607  0.5365  0.0830
 8465TIP3    H125338   4.425   6.929   3.805 -3.0551  0.9307  1.4805
 8465TIP3    H225339   4.498   7.058   3.836 -1.6074  0.7062 -0.8097
 8466TIP3   OH225340   3.607   6.282   4.505  0.7290 -0.2783  0.3761
 8466TIP3    H125341   3.646   6.210   4.554  0.8115 -0.2762  0.3139
 8466TIP3    H225342   3.590   6.247   4.418  0.6146 -0.2716  0.3950
 8467TIP3   OH225343   3.126   5.295   4.642 -0.0508  0.1733 -0.1557
 8467TIP3    H125344   3.065   5.368   4.631 -0.7586 -0.4848 -0.6685
 8467TIP3    H225345   3.077   5.218   4.612  0.5599 -0.5686  0.7314
 8468TIP3   OH225346   3.358   7.163   4.158  0.0445  0.3976  0.3867
 8468TIP3    H125347   3.404   7.245   4.175  0.5112  1.2121 -4.0818
 8468TIP3    H225348   3.266   7.189   4.148  0.3313  0.6502 -2.0555
 8469TIP3   OH225349   4.776   5.935   2.473 -0.0321 -0.2761 -0.1493
 8469TIP3    H125350   4.747   6.017   2.515  1.0217  0.5387 -0.9784
 8469TIP3    H225351   4.705   5.873   2.491  0.4161  0.0212  2.8841
 8470TIP3   OH225352   5.241   0.263   4.797  0.1660  0.1709 -0.0024
 8470TIP3    H125353   5.258   0.348   4.838  1.0862 -1.1140  2.3541
 8470TIP3    H225354   5.323   0.214   4.808 -0.7434 -1.4455 -0.2735
 8471TIP3   OH225355   5.283   7.311   4.932 -0.2183  0.1869 -0.6707
 8471TIP3    H125356   5.219   7.250   4.969 -0.0286 -0.4791 -1.4071
 8471TIP3    H225357   5.231   7.374   4.883 -0.3719  0.1812 -0.5125
 8472TIP3   OH225358   2.786   6.619   6.461 -0.0996 -0.2045 -0.1554
 8472TIP3    H125359   2.833   6.682   6.406 -1.3516  0.5383 -0.4055
 8472TIP3    H225360   2.854   6.562   6.496  0.7692 -0.4825 -2.1934
 8473TIP3   OH225361   5.474   5.062   2.209 -0.1322 -0.1222  0.0303
 8473TIP3    H125362   5.397   5.084   2.262  0.5336 -1.8872  1.7789
 8473TIP3    H225363   5.440   5.001   2.143 -0.7595  1.2923 -0.9890
 8474TIP3   OH225364   4.250   5.654   3.284  0.0995  0.2857 -0.0098
 8474TIP3    H125365   4.285   5.581   3.335  0.4984  0.8260  0.5055
 8474TIP3    H225366   4.193   5.613   3.219  0.2704 -0.4766  0.3119
 8475TIP3   OH225367   3.447   6.365   4.865 -0.3513 -0.3171 -0.4337
 8475TIP3    H125368   3.411   6.297   4.922 -1.6986  0.6961 -0.0307
 8475TIP3    H225369   3.371   6.398   4.817  0.2864  0.8539 -0.6625
 8476TIP3   OH225370   1.866   6.071   2.913  0.5298  0.2326 -0.5189
 8476TIP3    H125371   1.819   5.991   2.937  1.1737 -0.6753 -2.2109
 8476TIP3    H225372   1.796   6.131   2.886  0.0347  0.2735  0.8497
 8477TIP3   OH225373   3.825   5.740   2.454  0.3581 -0.1696 -0.3774
 8477TIP3    H125374   3.842   5.826   2.490  0.3486 -0.6278  0.7542
 8477TIP3    H225375   3.730   5.727   2.465  0.4730 -0.6155  0.1390
 8478TIP3   OH225376   3.396   6.309   2.409 -0.1533  0.3437 -0.1534
 8478TIP3    H125377   3.490   6.328   2.409 -0.3216  1.2008 -0.2175
 8478TIP3    H225378   3.360   6.367   2.476 -1.0884  2.3968 -2.3670
 8479TIP3   OH225379   5.974   1.107   2.401 -0.9523 -0.2034  0.0782
 8479TIP3    H125380   6.032   1.041   2.439 -1.6014 -0.1512  1.1954
 8479TIP3    H225381   6.033   1.173   2.366 -0.3115  0.2250  1.8797
 8480TIP3   OH225382   2.081   7.163   3.924  0.2962 -0.1407 -0.0652
 8480TIP3    H125383   2.075   7.074   3.958 -3.2973 -0.1252 -0.4647
 8480TIP3    H225384   1.997   7.203   3.947  2.3838  3.6742  1.4701
 8481TIP3   OH225385   2.131   7.593   4.790  0.5383 -0.1811  0.0171
 8481TIP3    H125386   2.173   7.508   4.803 -0.2790 -0.7630 -1.1301
 8481TIP3    H225387   2.072   7.603   4.865  0.3292 -0.8143 -0.0642
 8482TIP3   OH225388   2.209   4.725   3.648  0.5648  0.4077  0.3780
 8482TIP3    H125389   2.302   4.725   3.670  1.0227  0.2609 -1.4671
 8482TIP3    H225390   2.172   4.798   3.698  1.8923  1.1699  0.2741
 8483TIP3   OH225391   1.517   6.739   2.994  0.1495  0.6617  0.0353
 8483TIP3    H125392   1.531   6.773   2.906 -1.2456  0.9841 -0.0795
 8483TIP3    H225393   1.429   6.701   2.991  0.6935 -0.6859  0.8731
 8484TIP3   OH225394   5.073   6.337   1.950  0.0954 -0.0780  0.3986
 8484TIP3    H125395   5.138   6.272   1.978  0.0168 -0.9613 -1.3730
 8484TIP3    H225396   5.007   6.286   1.902 -1.2763  0.9792  1.1271
 8485TIP3   OH225397   8.031   2.971   0.189  0.7025 -0.1928  0.3590
 8485TIP3    H125398   8.075   2.886   0.180  2.0431  0.6830 -1.5554
 8485TIP3    H225399   8.033   3.009   0.101 -1.1264  1.2347  0.9053
 8486TIP3   OH225400   4.879   5.135   4.900  0.0007 -0.6509  0.1659
 8486TIP3    H125401   4.788   5.158   4.886 -0.2056 -2.8678 -2.4738
 8486TIP3    H225402   4.878   5.076   4.976 -0.9009 -1.5023 -0.5031
 8487TIP3   OH225403   5.837   6.945   4.401  0.6024 -0.4666 -0.9521
 8487TIP3    H125404   5.773   6.897   4.454  0.6219  0.7644  0.2244
 8487TIP3    H225405   5.854   6.888   4.326  0.8979 -2.4577  0.5822
 8488TIP3   OH225406   4.706   4.839   2.048  0.4441  0.0386  0.3123
 8488TIP3    H125407   4.721   4.801   1.962  1.5633 -0.3670  0.6843
 8488TIP3    H225408   4.734   4.930   2.040 -0.2008  0.2137  0.0273
 8489TIP3   OH225409   5.021   1.103   4.571 -0.1402  0.0849 -0.0027
 8489TIP3    H125410   5.116   1.095   4.574 -0.0209  1.6496  0.8524
 8489TIP3    H225411   5.003   1.142   4.485  0.1798  1.8785  0.7189
 8490TIP3   OH225412   2.512   6.459   2.922  0.1240 -0.0339 -0.4831
 8490TIP3    H125413   2.492   6.461   3.016 -0.7061 -1.0931 -0.6280
 8490TIP3    H225414   2.506   6.550   2.895  1.5892  0.4517  0.7413
 8491TIP3   OH225415   5.460   3.536   4.739 -0.0899  0.1895  0.4096
 8491TIP3    H125416   5.524   3.603   4.714 -0.1216  0.3941  0.8737
 8491TIP3    H225417   5.495   3.498   4.820  0.0433 -0.5152  0.0290
 8492TIP3   OH225418   3.410   4.447   5.658  0.5642  0.1798  0.1907
 8492TIP3    H125419   3.375   4.497   5.732  0.7047  1.0158 -0.2893
 8492TIP3    H225420   3.502   4.434   5.680  0.1089 -1.4612  1.1578
 8493TIP3   OH225421   1.210   7.820   2.672 -0.0045  0.5556  0.2128
 8493TIP3    H125422   1.125   7.776   2.671  1.1799 -1.8318 -0.7362
 8493TIP3    H225423   1.197   7.897   2.727 -2.7970  0.2933 -0.0081
 8494TIP3   OH225424   4.262   6.452   4.324  0.4340  0.3107 -0.3394
 8494TIP3    H125425   4.338   6.394   4.318  0.6853  0.5756  0.2599
 8494TIP3    H225426   4.268   6.507   4.246  0.4687 -0.1398 -0.6559
 8495TIP3   OH225427   2.746   6.941   3.207 -0.4445  0.0274  0.0911
 8495TIP3    H125428   2.834   6.916   3.234 -0.6995 -1.9420 -0.8146
 8495TIP3    H225429   2.708   6.982   3.284  0.9377  0.0446  0.7860
 8496TIP3   OH225430   2.699   7.526   2.392  0.2239  0.3413 -0.6042
 8496TIP3    H125431   2.736   7.594   2.335 -0.2989  1.0720 -0.0884
 8496TIP3    H225432   2.627   7.570   2.437  1.0594 -0.0187  1.1349
 8497TIP3   OH225433   4.659   0.409   3.475 -0.1844  0.1879  0.9089
 8497TIP3    H125434   4.585   0.351   3.456  0.4014 -0.7198  1.3565
 8497TIP3    H225435   4.737   0.356   3.456  0.3557  1.1087  0.5158
 8498TIP3   OH225436   4.232   4.291   3.585 -0.2163 -0.3681  0.5364
 8498TIP3    H125437   4.164   4.226   3.607 -0.9217 -0.0184 -0.5478
 8498TIP3    H225438   4.296   4.241   3.534  0.2414 -0.6543  1.3881
 8499TIP3   OH225439   5.248   4.205   6.731  0.4717  0.2714  0.0157
 8499TIP3    H125440   5.207   4.171   6.652  0.4765  1.6267 -0.5803
 8499TIP3    H225441   5.177   4.211   6.795 -0.0054  1.3699 -0.6082
 8500TIP3   OH225442   5.092   5.390   6.310 -0.2976  0.9804  0.5850
 8500TIP3    H125443   5.017   5.364   6.365 -0.3661 -0.2285 -0.0775
 8500TIP3    H225444   5.162   5.330   6.334 -1.2851 -1.7571 -2.9373
 8501TIP3   OH225445   4.447   0.693   4.493 -0.0521  0.7248  0.2642
 8501TIP3    H125446   4.512   0.696   4.563  0.4635 -1.0492 -0.1112
 8501TIP3    H225447   4.363   0.693   4.538  0.1780  2.7998  0.7653
 8502TIP3   OH225448   1.670   5.735   3.247 -0.3175  0.3108 -0.3391
 8502TIP3    H125449   1.652   5.698   3.333 -0.2464 -0.1659 -0.5259
 8502TIP3    H225450   1.764   5.753   3.248 -0.6951  2.3553  0.4659
 8503TIP3   OH225451   0.828   6.362   3.742 -0.1031 -0.0346 -0.0403
 8503TIP3    H125452   0.773   6.422   3.691  1.0390  0.0740 -1.1501
 8503TIP3    H225453   0.786   6.277   3.731  1.1628 -0.3286 -2.6554
 8504TIP3   OH225454   0.711   3.414   4.017  0.4297  0.1026  0.7449
 8504TIP3    H125455   0.781   3.377   4.071 -0.7270 -1.5175  1.1570
 8504TIP3    H225456   0.633   3.411   4.072 -0.0787  1.5168  0.1360
 8505TIP3   OH225457   3.316   7.871   5.878  0.3450 -0.3106 -0.0701
 8505TIP3    H125458   3.385   7.818   5.839  0.3435  0.0229 -0.5296
 8505TIP3    H225459   3.261   7.898   5.804  0.3625  0.3599  0.1540
 8506TIP3   OH225460   3.413   7.454   6.043 -0.1923  0.1168  0.7132
 8506TIP3    H125461   3.378   7.516   6.107 -0.3878  1.3412 -0.5751
 8506TIP3    H225462   3.475   7.400   6.093  0.1261  1.4647  1.7934
 8507TIP3   OH225463   4.888   6.885   4.408  0.1743 -0.2301  0.1594
 8507TIP3    H125464   4.944   6.827   4.357 -0.1017  0.6733 -1.1829
 8507TIP3    H225465   4.819   6.911   4.348 -0.4114  0.4961  1.1315
 8508TIP3   OH225466   4.277   6.116   5.247  0.3769  0.0143 -0.3661
 8508TIP3    H125467   4.330   6.189   5.216 -0.4122  0.0945 -1.5810
 8508TIP3    H225468   4.298   6.109   5.340  2.2886  0.2074 -0.7596
 8509TIP3   OH225469   2.814   7.330   2.147 -0.3686  0.2765 -0.6650
 8509TIP3    H125470   2.745   7.322   2.213  1.0243  0.9965  0.9219
 8509TIP3    H225471   2.879   7.264   2.173 -0.0513  0.1845 -1.6562
 8510TIP3   OH225472   2.781   6.438   4.227  0.1694  0.6167  0.0422
 8510TIP3    H125473   2.810   6.467   4.141  0.0305  1.3779  0.2433
 8510TIP3    H225474   2.704   6.492   4.246 -1.0685 -1.0062 -0.2512
 8511TIP3   OH225475   2.374   6.207   3.062 -0.1983  0.7594  0.4484
 8511TIP3    H125476   2.286   6.184   3.093 -0.6941  0.2799 -1.2427
 8511TIP3    H225477   2.358   6.267   2.989  0.7483 -1.2012 -1.4601
 8512TIP3   OH225478   4.520   6.680   5.580 -0.1971 -0.1430  0.0442
 8512TIP3    H125479   4.441   6.726   5.553 -0.1707 -0.5678 -0.7909
 8512TIP3    H225480   4.551   6.636   5.500  1.0318  0.2411  0.2943
 8513TIP3   OH225481   4.694   5.639   4.851 -0.1353  0.6849  0.1468
 8513TIP3    H125482   4.778   5.645   4.898 -0.1817  2.7573  0.0135
 8513TIP3    H225483   4.630   5.673   4.913 -0.1921  3.5063 -1.3855
 8514TIP3   OH225484   5.808   1.137   3.078 -0.6676  0.4918  0.3969
 8514TIP3    H125485   5.880   1.120   3.017 -1.3535  0.5715 -0.4394
 8514TIP3    H225486   5.845   1.117   3.164  0.6039  1.3302  0.0541
 8515TIP3   OH225487   2.800   3.662   0.800 -0.4999  0.1368 -0.1618
 8515TIP3    H125488   2.717   3.706   0.817 -0.1093 -0.0783  2.5566
 8515TIP3    H225489   2.857   3.689   0.872  1.2520 -1.0726 -1.0489
 8516TIP3   OH225490   3.374   4.900   5.462 -0.6394 -0.0907  0.0427
 8516TIP3    H125491   3.386   4.812   5.428  0.0062 -0.1022  0.3080
 8516TIP3    H225492   3.308   4.890   5.532  1.2572 -0.7721  1.7843
 8517TIP3   OH225493   4.508   5.046   3.080  0.2939  0.1860 -0.7012
 8517TIP3    H125494   4.577   5.091   3.031  1.0253  0.9057  0.9411
 8517TIP3    H225495   4.435   5.107   3.081  1.0459  1.0819  0.9422
 8518TIP3   OH225496   1.587   5.513   3.414 -0.6705 -0.8442  0.6571
 8518TIP3    H125497   1.681   5.495   3.421 -0.4142  0.0890 -0.3190
 8518TIP3    H225498   1.545   5.442   3.464  0.4513 -2.6496 -0.8932
 8519TIP3   OH225499   5.440   5.872   5.082  0.0171  0.0620 -0.1888
 8519TIP3    H125500   5.504   5.929   5.125  0.8826 -0.2527 -1.0458
 8519TIP3    H225501   5.361   5.925   5.075 -0.4090 -0.1396  2.5249
 8520TIP3   OH225502   4.700   7.441   2.497  0.2419  0.3593  0.0079
 8520TIP3    H125503   4.740   7.508   2.441  0.9226  0.3303  0.4509
 8520TIP3    H225504   4.723   7.359   2.454 -2.2311  0.4674 -1.5993
 8521TIP3   OH225505   1.841   4.046   5.763  0.7923 -0.2140  0.3048
 8521TIP3    H125506   1.767   3.985   5.764 -0.6325  1.4864  1.3310
 8521TIP3    H225507   1.829   4.097   5.683  0.3467  0.6639  0.9262
 8522TIP3   OH225508   4.974   5.727   5.373  0.5435  0.0626 -0.0891
 8522TIP3    H125509   4.945   5.688   5.291 -0.8944  2.0414 -0.5596
 8522TIP3    H225510   5.040   5.792   5.348 -0.2849  1.0537  0.2502
 8523TIP3   OH225511   4.879   5.404   5.204 -0.5704 -0.0238  0.0115
 8523TIP3    H125512   4.798   5.450   5.185 -1.1226 -0.0095  2.2622
 8523TIP3    H225513   4.879   5.330   5.142 -1.5451  0.8273 -1.0251
 8524TIP3   OH225514   3.398   6.319   5.236  0.3528  0.2953 -0.3679
 8524TIP3    H125515   3.361   6.399   5.199  0.5392  0.8841  0.6985
 8524TIP3    H225516   3.368   6.249   5.178 -0.0918  1.1015 -1.1089
 8525TIP3   OH225517   5.198   6.886   5.791  0.6991 -0.0256  0.1427
 8525TIP3    H125518   5.110   6.855   5.770 -0.1742  1.9665  0.7269
 8525TIP3    H225519   5.229   6.828   5.860 -0.8233  0.2695  1.0963
 8526TIP3   OH225520   2.982   6.479   5.019  0.1245  0.4357 -0.2769
 8526TIP3    H125521   2.905   6.422   5.008 -0.0626  0.8169 -1.0045
 8526TIP3    H225522   2.955   6.542   5.085  0.1242  0.0338  0.1108
 8527TIP3   OH225523   5.233   1.547   3.953  0.3286 -0.0680  0.4398
 8527TIP3    H125524   5.258   1.638   3.936 -0.7124  0.2436  0.5007
 8527TIP3    H225525   5.265   1.529   4.041  2.7329 -0.5805 -0.4894
 8528TIP3   OH225526   3.857   6.398   5.531 -0.0905  0.5011  0.7104
 8528TIP3    H125527   3.873   6.335   5.601 -0.1822 -0.6726 -0.2963
 8528TIP3    H225528   3.764   6.386   5.510  0.1564  0.1887 -0.2264
 8529TIP3   OH225529   4.668   7.824   6.794  0.1232  0.0766  0.0172
 8529TIP3    H125530   4.677   7.731   6.774 -1.3722  0.2808 -1.8081
 8529TIP3    H225531   4.593   7.829   6.854  0.3658  0.0767  0.3184
 8530TIP3   OH225532   3.953   4.423   4.782 -0.1452  0.6638  0.0215
 8530TIP3    H125533   3.879   4.466   4.741 -0.1502  1.4680  0.8571
 8530TIP3    H225534   3.916   4.378   4.857 -0.2016 -1.1430 -1.0627
 8531TIP3   OH225535   3.068   5.795   6.553  0.0376 -0.2756 -0.4252
 8531TIP3    H125536   2.990   5.780   6.501  1.8295 -1.5227 -2.8357
 8531TIP3    H225537   3.089   5.888   6.540  0.4202 -0.5581 -1.8873
 8532TIP3   OH225538   2.897   6.366   5.377 -0.0131  0.0840 -0.2955
 8532TIP3    H125539   2.925   6.417   5.301 -0.1917  0.0360 -0.3911
 8532TIP3    H225540   2.808   6.338   5.357  0.2030 -0.5427 -0.3804
 8533TIP3   OH225541   4.039   6.085   5.077 -0.5145 -0.3232  0.0055
 8533TIP3    H125542   3.967   6.051   5.129 -0.6322 -2.1600 -1.3120
 8533TIP3    H225543   4.108   6.105   5.140 -1.4616 -0.3974  1.0680
 8534TIP3   OH225544   2.296   7.867   1.431 -0.1111  0.1164 -0.3315
 8534TIP3    H125545   2.261   7.865   1.342  1.7802  2.4047 -1.1733
 8534TIP3    H225546   2.231   7.918   1.481 -0.2014  0.5098 -0.8485
 8535TIP3   OH225547   3.626   5.219   4.119 -0.2268  0.0112  0.1356
 8535TIP3    H125548   3.625   5.145   4.181  0.3815 -0.1736 -0.0635
 8535TIP3    H225549   3.543   5.212   4.072 -0.2156 -0.4949  0.1824
 8536TIP3   OH225550   6.774   0.242   3.980  0.1834  0.3369 -0.1420
 8536TIP3    H125551   6.755   0.201   4.064 -0.0907 -1.0664 -0.8749
 8536TIP3    H225552   6.862   0.213   3.958  0.5471  1.3019  0.0055
 8537TIP3   OH225553   4.544   5.812   5.635  0.1043 -0.1664  0.2353
 8537TIP3    H125554   4.497   5.895   5.623  0.9637  0.4047  0.7319
 8537TIP3    H225555   4.596   5.803   5.555  0.4076  0.0402  0.4083
 8538TIP3   OH225556   0.142   0.386   0.712  0.1717  0.6444  0.2543
 8538TIP3    H125557   0.085   0.364   0.638 -0.5428  1.4927  0.5537
 8538TIP3    H225558   0.180   0.471   0.688 -0.8676  1.4137  1.3445
 8539TIP3   OH225559   4.311   6.561   4.652 -0.6782 -0.4252  1.0103
 8539TIP3    H125560   4.402   6.575   4.680 -0.0662 -1.0279 -0.5988
 8539TIP3    H225561   4.313   6.579   4.558 -1.8833 -2.0693  0.6545
 8540TIP3   OH225562   4.491   5.034   5.386  0.6848  0.0675 -0.4891
 8540TIP3    H125563   4.565   5.091   5.364 -0.8317  1.7930 -1.2385
 8540TIP3    H225564   4.486   4.973   5.312  0.6180  0.7255 -1.0362
 8541TIP3   OH225565   4.782   6.754   2.815 -0.0441  0.3828  0.1445
 8541TIP3    H125566   4.874   6.744   2.840  0.1491  0.0141 -0.6909
 8541TIP3    H225567   4.765   6.680   2.756 -0.9704  0.2639  0.5633
 8542TIP3   OH225568   3.400   7.691   4.202 -0.1866  0.5359  0.1696
 8542TIP3    H125569   3.460   7.725   4.135  0.0965 -1.1587 -0.4662
 8542TIP3    H225570   3.435   7.723   4.284  0.5197  1.1222 -0.3547
 8543TIP3   OH225571   5.325   5.229   3.961  0.3525  0.3643  0.4025
 8543TIP3    H125572   5.411   5.230   4.002  0.1913 -0.3036  0.7603
 8543TIP3    H225573   5.343   5.216   3.868  0.6762  1.0589  0.3616
 8544TIP3   OH225574   6.422   0.383   1.277 -0.3639  0.2912  0.4310
 8544TIP3    H125575   6.434   0.454   1.213  1.3446  1.1281  1.6413
 8544TIP3    H225576   6.479   0.313   1.245 -0.8418  0.0468  0.1030
 8545TIP3   OH225577   3.008   4.758   3.641  0.0057 -0.0322 -0.0474
 8545TIP3    H125578   3.102   4.768   3.653  0.0147 -0.1939  0.0155
 8545TIP3    H225579   2.969   4.798   3.718  0.0692 -1.2931  0.6440
 8546TIP3   OH225580   5.811   4.838   2.520  0.4054 -0.1117  0.1358
 8546TIP3    H125581   5.857   4.844   2.603  0.8117 -0.2287 -0.0793
 8546TIP3    H225582   5.833   4.919   2.474 -2.2723  1.4010  1.3786
 8547TIP3   OH225583   2.878   6.034   3.622 -0.4136 -1.0293 -0.0167
 8547TIP3    H125584   2.899   5.959   3.678 -0.9349 -1.4941 -0.4465
 8547TIP3    H225585   2.908   6.007   3.535 -0.6440 -0.7524 -0.1775
 8548TIP3   OH225586   3.141   6.527   4.500  0.3317 -0.3457  0.0298
 8548TIP3    H125587   3.077   6.528   4.429  0.0132 -0.5080  0.3081
 8548TIP3    H225588   3.103   6.468   4.565 -0.1423  1.0209  1.0174
 8549TIP3   OH225589   7.337   7.049   6.249  0.2151 -0.5395 -0.0904
 8549TIP3    H125590   7.244   7.026   6.248 -0.4624  2.0419 -1.6872
 8549TIP3    H225591   7.356   7.069   6.340 -0.5412 -2.0387  0.4037
 8550TIP3   OH225592   3.450   5.230   4.694 -0.2817  0.6465  0.0480
 8550TIP3    H125593   3.485   5.281   4.621 -1.1211  2.5091  0.9179
 8550TIP3    H225594   3.516   5.163   4.711 -0.2370 -0.0280 -2.6364
 8551TIP3   OH225595   3.549   6.621   5.320 -0.0442 -0.1209 -0.6761
 8551TIP3    H125596   3.568   6.604   5.227 -1.4879  0.3356 -1.0622
 8551TIP3    H225597   3.454   6.625   5.325 -0.0369 -1.5205  1.0870
 8552TIP3   OH225598   4.067   6.457   5.369 -0.2160  0.2292  0.4944
 8552TIP3    H125599   4.004   6.402   5.416 -0.0070  0.1879  0.7283
 8552TIP3    H225600   4.115   6.503   5.438 -1.9811  2.5212  0.2640
 8553TIP3   OH225601   3.716   5.618   4.655 -0.2970  0.0123 -0.1675
 8553TIP3    H125602   3.717   5.630   4.750 -1.9303 -0.4217 -0.0774
 8553TIP3    H225603   3.639   5.666   4.625 -1.4896 -2.2832 -0.9044
 8554TIP3   OH225604   4.317   5.709   6.194  0.2169  0.5338 -0.2843
 8554TIP3    H125605   4.267   5.706   6.276 -1.8653 -0.1749 -1.5349
 8554TIP3    H225606   4.272   5.774   6.140  0.5517 -0.2118 -1.4992
 8555TIP3   OH225607   5.487   6.272   4.722  0.1875 -0.3198  0.1908
 8555TIP3    H125608   5.529   6.358   4.718 -1.5723  0.5565 -0.3318
 8555TIP3    H225609   5.502   6.242   4.811 -1.3820  1.7107  1.1779
 8556TIP3   OH225610   3.882   5.747   3.099  0.1423  0.1096  0.3249
 8556TIP3    H125611   3.939   5.705   3.035  0.6390  2.1722 -0.5929
 8556TIP3    H225612   3.795   5.714   3.078  0.6394 -1.2295  0.2608
 8557TIP3   OH225613   3.425   6.523   4.205  0.3311 -0.5408 -0.0312
 8557TIP3    H125614   3.332   6.538   4.218  0.3667 -1.4764  1.4078
 8557TIP3    H225615   3.468   6.595   4.251  0.3238  0.4975 -1.5952
 8558TIP3   OH225616   5.561   4.786   5.584  0.5272 -0.0475 -0.4541
 8558TIP3    H125617   5.599   4.723   5.523 -0.4983 -0.9430 -0.1710
 8558TIP3    H225618   5.511   4.846   5.528 -1.4249 -1.5834 -0.4238
 8559TIP3   OH225619   3.369   6.041   4.422 -0.0846 -0.4884  0.0097
 8559TIP3    H125620   3.429   6.079   4.358 -0.4980 -1.2777 -0.8563
 8559TIP3    H225621   3.403   6.069   4.507  0.9463 -0.1342 -0.5165
 8560TIP3   OH225622   2.384   5.354   4.268  0.6977  0.3424  0.0651
 8560TIP3    H125623   2.437   5.287   4.310  0.3848 -0.5899 -0.9953
 8560TIP3    H225624   2.389   5.333   4.174 -1.7526  0.0348 -0.0353
 8561TIP3   OH225625   0.212   0.872   0.806  0.0880  0.1792 -0.7065
 8561TIP3    H125626   0.255   0.873   0.720  0.4530  2.1646 -0.5259
 8561TIP3    H225627   0.129   0.918   0.791 -0.5955 -0.9498 -0.3684
 8562TIP3   OH225628   3.654   5.904   6.598 -0.6038 -0.1986 -0.7731
 8562TIP3    H125629   3.564   5.896   6.565 -0.7962  1.0291 -0.5799
 8562TIP3    H225630   3.699   5.958   6.533 -0.6512  1.1865  0.3157
 8563TIP3   OH225631   0.692   4.764   5.150 -0.0146 -0.4751  0.1744
 8563TIP3    H125632   0.620   4.709   5.183  0.0703 -1.0876 -0.6532
 8563TIP3    H225633   0.669   4.780   5.058  0.6251 -0.2054  0.0642
 8564TIP3   OH225634   5.662   1.308   3.486  0.3718  0.2430 -0.1448
 8564TIP3    H125635   5.653   1.382   3.427 -1.5333  1.5816  1.7473
 8564TIP3    H225636   5.572   1.279   3.502  0.9077 -0.6275  1.4009
 8565TIP3   OH225637   2.463   7.955   3.582  0.3062  0.3240  0.2405
 8565TIP3    H125638   2.511   7.879   3.547 -0.7918 -0.0996 -0.3720
 8565TIP3    H225639   2.458   7.938   3.676  1.6278  0.5363  0.3656
 8566TIP3   OH225640   3.461   7.403   3.120 -0.5131  0.1508  0.0878
 8566TIP3    H125641   3.417   7.354   3.190 -1.6629  1.2069  0.1336
 8566TIP3    H225642   3.391   7.425   3.059  0.5270 -0.9119 -1.5013
 8567TIP3   OH225643   5.707   4.710   4.753 -0.3433 -0.0041 -0.2396
 8567TIP3    H125644   5.756   4.657   4.690 -1.4035 -1.5071  0.1932
 8567TIP3    H225645   5.745   4.689   4.838 -1.4582 -0.8663  0.0504
 8568TIP3   OH225646   1.964   7.501   5.952  0.8853 -0.2253 -0.2470
 8568TIP3    H125647   1.872   7.523   5.962  0.8104 -0.5230 -0.2816
 8568TIP3    H225648   1.972   7.412   5.988  1.2053 -0.1028 -0.0082
 8569TIP3   OH225649   2.576   6.768   5.490 -0.4102  0.5687 -0.0544
 8569TIP3    H125650   2.570   6.859   5.464  1.2222  0.4445 -0.9273
 8569TIP3    H225651   2.670   6.753   5.504 -0.6553 -0.9713  0.0420
 8570TIP3   OH225652   3.017   7.744   3.182  0.3685  0.2994  0.0869
 8570TIP3    H125653   2.928   7.774   3.201  0.1176  1.2638 -2.4645
 8570TIP3    H225654   3.067   7.824   3.166  1.6034 -0.2661  0.9231
 8571TIP3   OH225655   4.224   7.616   3.351 -0.5284 -0.0725 -0.1745
 8571TIP3    H125656   4.188   7.535   3.317  0.0962 -0.6599  0.5455
 8571TIP3    H225657   4.162   7.684   3.323 -2.7503 -1.1611  1.8804
 8572TIP3   OH225658   5.120   7.239   2.724  0.4113  0.4576 -0.2557
 8572TIP3    H125659   5.083   7.151   2.730 -1.3416  1.2354  0.6958
 8572TIP3    H225660   5.132   7.266   2.815  2.4505  0.5876 -0.5556
 8573TIP3   OH225661   3.301   4.730   3.705 -0.5470  0.0607 -0.4425
 8573TIP3    H125662   3.286   4.713   3.798 -1.7119 -1.2058 -0.8443
 8573TIP3    H225663   3.388   4.693   3.688 -0.1455  0.6855  0.2323
 8574TIP3   OH225664   3.887   7.787   3.829  0.1819 -0.7193  0.0896
 8574TIP3    H125665   3.900   7.701   3.790  0.1667 -0.6850  0.0088
 8574TIP3    H225666   3.863   7.844   3.756 -0.5859 -0.8167  0.2561
 8575TIP3   OH225667   6.525   0.589   4.661  0.0314  0.7992  0.8348
 8575TIP3    H125668   6.582   0.661   4.634 -2.0834  2.3243  0.2895
 8575TIP3    H225669   6.472   0.627   4.731  0.1886 -0.8298  1.8583
 8576TIP3   OH225670   3.797   6.947   3.957 -0.1592 -0.6325 -0.0468
 8576TIP3    H125671   3.781   7.010   3.887  0.7450 -1.3119 -0.8747
 8576TIP3    H225672   3.723   6.957   4.016 -1.3505 -0.6195 -1.5240
 8577TIP3   OH225673   3.437   6.057   3.707 -0.3533 -0.1681 -0.1227
 8577TIP3    H125674   3.501   6.017   3.648  0.9505  0.0055  1.1321
 8577TIP3    H225675   3.448   6.151   3.694  1.0022 -0.0825  1.4494
 8578TIP3   OH225676   5.314   7.815   3.420  0.4579  0.3866  0.5432
 8578TIP3    H125677   5.377   7.864   3.474 -0.1103  0.9567  0.6892
 8578TIP3    H225678   5.230   7.859   3.435  0.7312  2.2179 -2.8665
 8579TIP3   OH225679   1.998   4.997   6.202  0.0241 -0.1719 -0.2658
 8579TIP3    H125680   2.085   4.987   6.241 -0.3729 -3.0667 -0.0520
 8579TIP3    H225681   1.980   5.091   6.207  1.8548  0.0792  2.5129
 8580TIP3   OH225682   1.751   4.052   4.404 -0.3245  0.0426  0.0296
 8580TIP3    H125683   1.831   4.104   4.391  0.0496 -0.4411  0.3824
 8580TIP3    H225684   1.681   4.109   4.374 -0.0528  1.2872  1.6695
 8581TIP3   OH225685   2.666   4.874   4.249  0.4848  0.3298  0.1776
 8581TIP3    H125686   2.667   4.883   4.154  2.7287 -0.9630  0.0402
 8581TIP3    H225687   2.621   4.791   4.266  0.1324  0.5343  0.2567
 8582TIP3   OH225688   4.344   3.761   6.298 -0.2469 -0.1718  0.3752
 8582TIP3    H125689   4.330   3.810   6.217 -1.5658 -2.0851 -0.6011
 8582TIP3    H225690   4.407   3.693   6.273 -1.2633 -1.2602  0.7274
 8583TIP3   OH225691   4.551   5.469   3.233 -0.0061 -0.1990  0.2760
 8583TIP3    H125692   4.557   5.562   3.256  0.6719  0.2894 -1.8184
 8583TIP3    H225693   4.475   5.437   3.282  0.3632  1.2052  1.8063
 8584TIP3   OH225694   1.128   5.807   2.908  0.6105 -0.2446  0.3330
 8584TIP3    H125695   1.054   5.746   2.913  0.3981 -0.0799 -0.8224
 8584TIP3    H225696   1.156   5.817   2.999 -2.2171  1.4556  1.0546
 8585TIP3   OH225697   2.784   5.280   4.435 -0.0034 -0.0634  0.1185
 8585TIP3    H125698   2.861   5.233   4.466  0.6489  1.6094  1.0869
 8585TIP3    H225699   2.815   5.370   4.419 -1.7006  0.5807  0.3523
 8586TIP3   OH225700   4.777   5.548   2.564 -0.0833 -0.1323 -0.0440
 8586TIP3    H125701   4.737   5.461   2.570  0.0696 -0.3339 -1.7179
 8586TIP3    H225702   4.822   5.548   2.480  0.0282  1.5329 -0.0018
 8587TIP3   OH225703   2.423   7.218   0.723 -0.5070 -0.0872 -0.2385
 8587TIP3    H125704   2.405   7.154   0.655 -0.3951  0.5421 -0.8654
 8587TIP3    H225705   2.341   7.267   0.733 -0.9120 -0.9598  0.9429
 8588TIP3   OH225706   0.486   0.172   2.952 -0.1011 -0.7847 -0.1466
 8588TIP3    H125707   0.402   0.173   2.998 -0.7543 -0.0447 -1.3060
 8588TIP3    H225708   0.548   0.135   3.014 -0.9760  0.1076  1.2756
 8589TIP3   OH225709   2.920   4.247   5.571 -0.4647  0.0225  0.0687
 8589TIP3    H125710   2.990   4.265   5.632  1.2178 -0.6532 -1.6145
 8589TIP3    H225711   2.904   4.330   5.527  1.3917 -0.4927 -1.6576
 8590TIP3   OH225712   3.885   4.418   3.424  0.3469 -0.4727  0.1721
 8590TIP3    H125713   3.828   4.341   3.421 -0.6920  0.2353  1.0490
 8590TIP3    H225714   3.951   4.402   3.356 -0.8597 -1.3501 -0.8329
 8591TIP3   OH225715   2.903   6.615   3.546  0.2558 -0.0262 -0.5268
 8591TIP3    H125716   2.826   6.575   3.506  0.1389  0.6952 -1.0469
 8591TIP3    H225717   2.960   6.542   3.570  0.1661 -0.4795 -1.7038
 8592TIP3   OH225718   4.313   2.932   4.112 -0.2230 -0.1376 -0.7992
 8592TIP3    H125719   4.229   2.969   4.140 -0.7787 -0.6642 -1.7678
 8592TIP3    H225720   4.341   2.988   4.040  1.6047  1.7138  1.2663
 8593TIP3   OH225721   0.146   0.015   3.377 -0.4885 -0.1602  0.4093
 8593TIP3    H125722   0.093   0.094   3.388 -0.9607 -0.6702  2.0406
 8593TIP3    H225723   0.236   0.045   3.392 -0.5038  0.3628 -0.5377
 8594TIP3   OH225724   6.753   5.155   4.338 -0.1506 -0.2855  1.0036
 8594TIP3    H125725   6.742   5.250   4.339 -1.3199 -0.3775 -0.8548
 8594TIP3    H225726   6.757   5.131   4.430  1.7166  1.7265  1.5121
 8595TIP3   OH225727   4.954   7.757   3.673  0.2412  0.0532 -0.1694
 8595TIP3    H125728   4.889   7.780   3.739  0.8815  3.0077 -0.4956
 8595TIP3    H225729   5.034   7.740   3.722  0.2728  0.5683 -0.0317
 8596TIP3   OH225730   7.430   0.001   4.879  0.1253  0.3340  0.1577
 8596TIP3    H125731   7.485   0.045   4.815 -0.1507 -0.9449 -0.9795
 8596TIP3    H225732   7.491  -0.027   4.948  0.5698  0.8085 -0.0434
 8597TIP3   OH225733   7.082   6.411   0.796 -0.4787 -0.2798  0.0104
 8597TIP3    H125734   7.115   6.423   0.886  0.2962  0.3844 -0.3506
 8597TIP3    H225735   7.138   6.468   0.743 -1.1932 -0.3703 -0.8413
 8598TIP3   OH225736   4.786   5.847   3.721  0.0611 -0.3242 -0.1699
 8598TIP3    H125737   4.816   5.928   3.762 -1.7543  0.8279 -1.0804
 8598TIP3    H225738   4.842   5.837   3.643  1.5691 -0.9900  0.9764
 8599TIP3   OH225739   4.902   6.733   2.408  0.0191  0.2378 -0.0491
 8599TIP3    H125740   4.812   6.703   2.395  0.5246 -2.1255  1.4500
 8599TIP3    H225741   4.943   6.725   2.322 -0.7240 -0.3799 -0.3526
 8600TIP3   OH225742   4.643   6.103   3.386 -0.5507  0.1872  0.0265
 8600TIP3    H125743   4.641   6.126   3.293  1.6658  0.4110  0.0043
 8600TIP3    H225744   4.595   6.172   3.430 -0.2151  0.9490 -0.7971
 8601TIP3   OH225745   6.246   6.748   2.107  1.1610  0.2984 -0.6431
 8601TIP3    H125746   6.218   6.780   2.022 -2.1721  0.9024  0.5958
 8601TIP3    H225747   6.221   6.817   2.168 -0.2999 -1.8314  1.2847
 8602TIP3   OH225748   6.818   6.803   5.244 -0.0340 -0.4858 -0.5880
 8602TIP3    H125749   6.839   6.782   5.335  0.5530 -0.0102 -0.6108
 8602TIP3    H225750   6.816   6.718   5.200 -0.8165 -0.7588 -0.0312
 8603TIP3   OH225751   0.288   0.285   4.512  0.4141  0.2181 -0.1934
 8603TIP3    H125752   0.230   0.336   4.455  1.1741  0.9393 -0.3431
 8603TIP3    H225753   0.335   0.352   4.563 -1.5400 -0.4363  2.6103
 8604TIP3   OH225754   0.468   0.905   1.809 -0.0050  0.0370 -0.0971
 8604TIP3    H125755   0.540   0.954   1.770  0.5077  0.6813  1.6401
 8604TIP3    H225756   0.464   0.935   1.900 -1.0621 -1.5726  0.4123
 8605TIP3   OH225757   5.284   5.900   3.410 -0.1591 -0.1541 -0.0644
 8605TIP3    H125758   5.273   5.908   3.315 -0.6774  2.0746  0.1667
 8605TIP3    H225759   5.311   5.987   3.439 -0.7116 -0.6223  1.9348
 8606TIP3   OH225760   5.329   6.848   2.670  0.0975  0.5091 -0.3006
 8606TIP3    H125761   5.334   6.770   2.615  0.9665 -0.2214  0.7899
 8606TIP3    H225762   5.243   6.886   2.650 -0.3266 -0.7076 -0.8582
 8607TIP3   OH225763   3.786   5.097   3.926 -0.5972  0.3419  0.0520
 8607TIP3    H125764   3.759   5.168   3.984 -2.2947  0.5701 -0.9771
 8607TIP3    H225765   3.707   5.076   3.876  0.1530 -1.6102 -0.3343
 8608TIP3   OH225766   7.068   1.060   2.359 -0.7974 -0.0640  0.2001
 8608TIP3    H125767   7.046   0.980   2.405 -2.4721  0.1839 -0.1472
 8608TIP3    H225768   7.093   1.031   2.271  0.5777 -0.3677  0.6780
 8609TIP3   OH225769   8.005   6.566   3.721  0.2071 -0.3295  0.4180
 8609TIP3    H125770   8.082   6.599   3.675  0.6056 -1.5040  0.2249
 8609TIP3    H225771   7.982   6.485   3.675 -0.4881 -0.5572  1.1495
 8610TIP3   OH225772   4.861   5.610   3.859  0.2389 -0.1608 -0.0790
 8610TIP3    H125773   4.814   5.681   3.816  1.0293  0.4258  0.0311
 8610TIP3    H225774   4.873   5.639   3.950 -0.6787 -1.0347  0.3371
 8611TIP3   OH225775   7.073   7.107   2.295 -0.3185 -0.2142  0.4637
 8611TIP3    H125776   7.087   7.033   2.354 -1.6548  0.5092  1.7483
 8611TIP3    H225777   6.986   7.093   2.258 -0.9301  1.0631  1.3286
 8612TIP3   OH225778   4.966   5.653   4.995 -0.0649 -0.1937 -0.1976
 8612TIP3    H125779   4.951   5.593   5.069  0.5041 -0.3119 -0.1787
 8612TIP3    H225780   5.006   5.598   4.927  0.1865  0.1023 -0.2900
 8613TIP3   OH225781   6.906   7.269   0.751 -0.2930 -0.4961 -0.2439
 8613TIP3    H125782   6.871   7.357   0.742  0.7083  0.0418  1.0862
 8613TIP3    H225783   6.835   7.212   0.722 -2.0784  0.6031  1.9106
 8614TIP3   OH225784   4.768   7.516   3.123 -0.3193 -0.0494 -0.0207
 8614TIP3    H125785   4.780   7.422   3.106 -0.4188 -0.0793  0.0769
 8614TIP3    H225786   4.713   7.519   3.201  0.0848  0.0894  0.2614
 8615TIP3   OH225787   4.824   6.768   3.716 -0.0396 -0.0846  0.3068
 8615TIP3    H125788   4.778   6.828   3.657 -0.2268 -0.8576 -0.3563
 8615TIP3    H225789   4.879   6.824   3.770  0.6783  0.6014 -1.0950
 8616TIP3   OH225790   5.691   0.421   2.867  0.1457  0.1480 -0.9853
 8616TIP3    H125791   5.624   0.452   2.929  0.8917 -2.5405  1.3030
 8616TIP3    H225792   5.644   0.408   2.785 -1.3977  1.5368 -0.3548
 8617TIP3   OH225793   4.434   6.882   4.154  0.6983 -0.2862  0.3991
 8617TIP3    H125794   4.454   6.936   4.078 -0.7079  0.3342  0.4629
 8617TIP3    H225795   4.462   6.936   4.229 -0.7168  0.3872  0.4636
 8618TIP3   OH225796   6.900   7.020   2.753  0.2302  0.1756 -0.3298
 8618TIP3    H125797   6.815   6.981   2.774  1.5728 -1.7338  1.6979
 8618TIP3    H225798   6.936   7.047   2.837  1.7532  0.7131 -1.1315
 8619TIP3   OH225799   6.300   4.910   3.882  0.2212  0.1795  0.0644
 8619TIP3    H125800   6.230   4.859   3.922 -1.9920  3.4053  0.4716
 8619TIP3    H225801   6.365   4.920   3.952 -0.5826  0.2009  0.8200
 8620TIP3   OH225802   4.551   6.910   3.350 -0.1997  0.0092  0.4620
 8620TIP3    H125803   4.640   6.904   3.316 -0.2746 -0.6430  0.3559
 8620TIP3    H225804   4.523   6.999   3.332 -0.1068 -0.2300 -0.8599
 8621TIP3   OH225805   4.219   7.359   5.292  0.5523 -0.2411 -0.3674
 8621TIP3    H125806   4.150   7.380   5.355  0.8588 -0.5441  0.0782
 8621TIP3    H225807   4.205   7.268   5.269  0.4928 -0.1554 -0.6738
 8622TIP3   OH225808   1.214   0.302   2.727  0.0810 -0.0650 -0.7038
 8622TIP3    H125809   1.189   0.277   2.638  0.6247  0.9877 -1.1698
 8622TIP3    H225810   1.215   0.220   2.776 -1.4953 -0.4878 -1.3488
 8623TIP3   OH225811   3.421   6.309   2.876 -0.6108 -0.5887  0.5938
 8623TIP3    H125812   3.381   6.339   2.795  1.1213 -2.4256 -0.9759
 8623TIP3    H225813   3.371   6.230   2.900  0.3639 -1.3758  0.0522
 8624TIP3   OH225814   4.996   7.220   3.604  0.2921  0.2929 -0.6019
 8624TIP3    H125815   4.916   7.271   3.622  0.0550  0.1120 -1.1214
 8624TIP3    H225816   5.032   7.260   3.525  0.6437  0.2898 -0.4409
 8625TIP3   OH225817   2.030   1.260   4.641 -0.4276  0.4802 -0.0456
 8625TIP3    H125818   1.944   1.217   4.641 -1.1486  1.8953 -1.1069
 8625TIP3    H225819   2.086   1.201   4.692 -1.2710 -1.9900 -1.8236
 8626TIP3   OH225820   7.323   5.437   3.242  0.2544 -0.1549 -0.0042
 8626TIP3    H125821   7.390   5.422   3.175 -0.0220  1.7276 -0.7329
 8626TIP3    H225822   7.241   5.440   3.193  0.0523  1.2068  0.3972
 8627TIP3   OH225823   3.524   6.745   4.009  0.3223  0.2368 -0.4314
 8627TIP3    H125824   3.525   6.782   3.921  0.4506  1.4516  0.0693
 8627TIP3    H225825   3.434   6.716   4.023  0.3152 -0.0025 -0.9711
 8628TIP3   OH225826   6.523   6.383   1.678 -0.3225  0.1681  0.2527
 8628TIP3    H125827   6.589   6.442   1.714 -0.2448 -0.2408  0.7853
 8628TIP3    H225828   6.490   6.428   1.600  1.3319 -0.0843 -0.6168
 8629TIP3   OH225829   5.281   0.073   5.524  0.2635 -0.2477  0.1341
 8629TIP3    H125830   5.284   0.152   5.579  0.0797 -0.3701  0.3186
 8629TIP3    H225831   5.198   0.079   5.477 -0.4252 -1.0697  1.2402
 8630TIP3   OH225832   2.281   6.633   4.789 -0.3657  1.0510  0.0701
 8630TIP3    H125833   2.194   6.663   4.815 -0.5807  1.4064 -1.0580
 8630TIP3    H225834   2.309   6.694   4.721 -0.0746 -0.2547 -0.9998
 8631TIP3   OH225835   6.133   7.869   4.028  0.0476 -0.4198 -0.3558
 8631TIP3    H125836   6.218   7.915   4.029 -0.2712  0.1647  0.0793
 8631TIP3    H225837   6.081   7.917   3.964 -0.0934 -0.5368 -0.3279
 8632TIP3   OH225838   6.224   6.204   5.128 -0.0802 -0.0926  0.5437
 8632TIP3    H125839   6.190   6.175   5.213 -0.4817 -0.2353  0.3360
 8632TIP3    H225840   6.149   6.199   5.069  0.5656 -1.5457 -0.1996
 8633TIP3   OH225841   3.743   6.787   4.562 -0.3312  0.0966  0.3755
 8633TIP3    H125842   3.662   6.746   4.591 -0.0157 -0.4483  0.5061
 8633TIP3    H225843   3.812   6.735   4.604  0.0669  1.0230  0.8864
 8634TIP3   OH225844   4.147   6.336   3.198 -0.1710  0.0073 -0.5572
 8634TIP3    H125845   4.155   6.241   3.196 -0.5797 -0.0183 -1.7878
 8634TIP3    H225846   4.053   6.352   3.189 -0.2240  0.5191  0.7032
 8635TIP3   OH225847   6.908   7.469   1.169 -0.3386  1.1100 -0.5736
 8635TIP3    H125848   6.883   7.555   1.205  1.8485  0.9374  1.4770
 8635TIP3    H225849   6.922   7.414   1.246 -0.2778 -0.6901 -1.8477
 8636TIP3   OH225850   7.799   0.029   5.447 -0.4703  0.5846 -0.3903
 8636TIP3    H125851   7.714  -0.014   5.445  0.3548 -1.2410  1.8954
 8636TIP3    H225852   7.804   0.070   5.533  1.1427  0.2508 -0.2953
 8637TIP3   OH225853   7.402   5.959   0.813 -0.3430 -0.3380 -0.2433
 8637TIP3    H125854   7.441   5.939   0.898 -0.7485  0.1418  0.0517
 8637TIP3    H225855   7.360   5.877   0.786  0.0471 -0.5793 -0.1252
 8638TIP3   OH225856   4.833   6.129   4.581 -0.3124  0.1459 -0.0323
 8638TIP3    H125857   4.758   6.156   4.527  1.0525 -0.2735 -2.2036
 8638TIP3    H225858   4.902   6.192   4.559  0.4340 -0.3720  0.8156
 8639TIP3   OH225859   5.587   5.227   4.042 -0.8054  0.0990 -0.1994
 8639TIP3    H125860   5.625   5.190   3.962  0.1631 -0.0692  0.3284
 8639TIP3    H225861   5.655   5.286   4.075 -1.7211  1.1702 -0.1934
 8640TIP3   OH225862   8.144   1.412   1.677  0.2988  0.5000 -0.4561
 8640TIP3    H125863   8.211   1.384   1.614  0.9771  0.3021  0.3340
 8640TIP3    H225864   8.128   1.504   1.657  2.3764  1.1505  0.6976
 8641TIP3   OH225865   3.891   6.926   2.519 -1.2016 -0.0656 -0.0452
 8641TIP3    H125866   3.946   6.852   2.493 -0.8115  0.5921 -1.1428
 8641TIP3    H225867   3.809   6.886   2.547 -0.6696 -0.9671  0.2789
 8642TIP3   OH225868   3.940   6.029   5.496  0.2954  0.4004  0.3706
 8642TIP3    H125869   3.928   6.023   5.401 -0.0608  0.6911  0.3956
 8642TIP3    H225870   4.029   5.999   5.511  1.1990  2.6993 -0.2969
 8643TIP3   OH225871   3.415   7.040   2.859  0.8620 -0.1460  0.2926
 8643TIP3    H125872   3.453   6.952   2.865  0.7956 -0.2687 -0.8845
 8643TIP3    H225873   3.484   7.098   2.890  1.9975 -0.3843 -1.7021
 8644TIP3   OH225874   7.661   7.334   0.204 -0.5949 -0.5841 -0.7011
 8644TIP3    H125875   7.642   7.375   0.120 -0.3914 -1.3459 -1.1194
 8644TIP3    H225876   7.730   7.271   0.186 -1.4128 -1.6377 -0.2128
 8645TIP3   OH225877   7.561   0.260   2.672 -0.2808  0.0189 -0.1356
 8645TIP3    H125878   7.481   0.224   2.633 -1.4712  0.1348  2.1334
 8645TIP3    H225879   7.588   0.195   2.737  0.6870  0.6338  0.0887
 8646TIP3   OH225880   6.087   7.667   4.428  0.3402 -0.7041  0.2326
 8646TIP3    H125881   6.068   7.747   4.478  1.2525 -0.7328  0.6407
 8646TIP3    H225882   6.125   7.607   4.492  0.7542 -1.0379 -0.3153
 8647TIP3   OH225883   7.650   4.982   4.875 -0.0312  0.3036  0.0858
 8647TIP3    H125884   7.713   4.929   4.924  0.6006  0.7616 -0.2358
 8647TIP3    H225885   7.595   4.917   4.830  0.4085 -0.0942  0.1132
 8648TIP3   OH225886   6.949   6.117   3.499 -0.1592 -0.3406 -0.0075
 8648TIP3    H125887   6.988   6.196   3.463 -0.7270  0.5610  1.2998
 8648TIP3    H225888   6.861   6.114   3.461 -0.8706  0.7777  1.4767
 8649TIP3   OH225889   4.567   7.236   3.837 -0.7219  0.0659 -0.2943
 8649TIP3    H125890   4.592   7.327   3.821 -1.2779 -0.0229 -1.7264
 8649TIP3    H225891   4.643   7.185   3.808 -0.4238  0.0594  0.4773
 8650TIP3   OH225892   4.839   6.991   4.847 -0.0815 -0.4243  0.0248
 8650TIP3    H125893   4.896   6.920   4.817  1.1813 -0.2485  1.8647
 8650TIP3    H225894   4.900   7.063   4.865 -1.1011  0.3596  0.3437
 8651TIP3   OH225895   3.445   5.384   2.793  0.0887 -0.1516 -0.2881
 8651TIP3    H125896   3.470   5.319   2.728 -0.1705  0.2590 -0.8032
 8651TIP3    H225897   3.356   5.410   2.768 -0.3768 -0.6742  0.7827
 8652TIP3   OH225898   5.343   3.584   2.570 -0.2557 -0.0280  0.0692
 8652TIP3    H125899   5.402   3.651   2.537  0.4701 -0.7127 -0.0437
 8652TIP3    H225900   5.381   3.558   2.655  0.3519 -1.3893 -0.5968
 8653TIP3   OH225901   8.019   5.051   0.314  0.1199 -0.0928  0.3297
 8653TIP3    H125902   7.974   5.088   0.238 -2.2518 -0.4431  1.5380
 8653TIP3    H225903   8.032   4.959   0.292  0.0490 -0.0457  0.0884
 8654TIP3   OH225904   3.564   6.151   4.244 -0.3359  0.1945  0.4611
 8654TIP3    H125905   3.500   6.193   4.187 -0.5904 -0.6664  0.1007
 8654TIP3    H225906   3.647   6.193   4.223 -0.6360  0.7284  0.3291
 8655TIP3   OH225907   3.863   5.999   3.247 -0.6259  0.2624  1.0366
 8655TIP3    H125908   3.779   6.044   3.243 -0.3940  0.4977 -1.6834
 8655TIP3    H225909   3.851   5.919   3.197  1.0492  0.8018 -0.2799
 8656TIP3   OH225910   4.275   7.396   3.968  0.0642 -0.2194 -0.3166
 8656TIP3    H125911   4.351   7.382   4.024  0.3014  2.7552  0.1910
 8656TIP3    H225912   4.208   7.337   4.003  0.0864  1.8076  3.3716
 8657TIP3   OH225913   5.465   6.933   4.194 -0.0035 -0.1136 -0.0997
 8657TIP3    H125914   5.373   6.909   4.206 -0.7699  1.3258 -2.8734
 8657TIP3    H225915   5.513   6.856   4.226 -2.1102 -0.7210  1.7899
 8658TIP3   OH225916   6.599   6.038   6.317 -0.0721 -0.2061 -0.2831
 8658TIP3    H125917   6.613   6.130   6.295 -1.2347  0.4339  1.5428
 8658TIP3    H225918   6.551   6.002   6.243  0.1860  0.7112 -0.8992
 8659TIP3   OH225919   7.270   4.546   3.832  0.1025  0.3191  0.1260
 8659TIP3    H125920   7.291   4.529   3.740  0.4886 -0.8898  0.4291
 8659TIP3    H225921   7.332   4.613   3.859  0.1997  0.4467 -0.4046
 8660TIP3   OH225922   4.573   6.806   4.774 -0.3099  0.1458  0.0693
 8660TIP3    H125923   4.659   6.838   4.801 -0.3646  2.3551 -2.1376
 8660TIP3    H225924   4.586   6.775   4.684 -1.8515  0.6373 -0.3380
 8661TIP3   OH225925   5.095   5.967   3.692  0.6088  0.1727  0.1157
 8661TIP3    H125926   5.170   6.015   3.728  1.2023 -0.7545  0.1441
 8661TIP3    H225927   5.071   6.016   3.613  0.5375  1.1088  0.7048
 8662TIP3   OH225928   5.311   6.644   3.036  0.5161 -0.4888  0.5713
 8662TIP3    H125929   5.390   6.688   3.005  1.2338 -0.4203  2.4521
 8662TIP3    H225930   5.281   6.697   3.109 -0.8117 -0.9790  0.3976
 8663TIP3   OH225931   3.848   5.405   2.564 -0.3669 -0.1020  0.4819
 8663TIP3    H125932   3.848   5.495   2.597 -0.1831 -0.0102  0.2265
 8663TIP3    H225933   3.918   5.403   2.499 -1.2935 -0.0614 -0.5322
 8664TIP3   OH225934   5.214   7.605   4.516 -0.0504  0.6666 -0.5500
 8664TIP3    H125935   5.251   7.620   4.603 -1.7184  0.9970  0.1294
 8664TIP3    H225936   5.286   7.623   4.456  1.0341  0.7564  0.7486
 8665TIP3   OH225937   5.398   7.375   3.934 -0.5023  0.8195  0.5759
 8665TIP3    H125938   5.383   7.413   4.020 -0.8048 -0.5891  1.1577
 8665TIP3    H225939   5.310   7.352   3.902 -0.3522  0.9327  0.0757
 8666TIP3   OH225940   5.699   2.958   3.206 -0.2666 -0.1464 -0.6146
 8666TIP3    H125941   5.632   2.992   3.265 -0.0983  0.6470 -0.8690
 8666TIP3    H225942   5.677   2.995   3.121  1.7224  1.8869 -0.2804
 8667TIP3   OH225943   5.144   4.405   4.949  0.2366 -0.0997 -0.4959
 8667TIP3    H125944   5.102   4.324   4.977 -1.7371  1.4023  1.0030
 8667TIP3    H225945   5.119   4.414   4.857 -2.7777  0.7285  0.3527
 8668TIP3   OH225946   5.821   7.906   4.732  0.5730 -0.5892  0.0254
 8668TIP3    H125947   5.836   7.920   4.638  1.5404  1.4276  0.4545
 8668TIP3    H225948   5.734   7.943   4.748  0.9890  0.3260  0.1837
 8669TIP3   OH225949   4.008   6.437   4.689 -0.7460 -0.0528  0.1646
 8669TIP3    H125950   4.075   6.501   4.665  0.3202 -1.1315  0.1570
 8669TIP3    H225951   4.036   6.405   4.775 -0.9666 -0.8937 -0.0735
 8670TIP3   OH225952   5.625   5.898   4.093 -0.4067 -0.7410  0.2667
 8670TIP3    H125953   5.623   5.842   4.016 -0.5332 -1.1106  0.5402
 8670TIP3    H225954   5.546   5.952   4.085 -0.1277 -0.3869 -0.1526
 8671TIP3   OH225955   4.659   5.619   5.841  1.0165  0.5390  0.1550
 8671TIP3    H125956   4.747   5.580   5.837  1.6283  1.9307 -0.3639
 8671TIP3    H225957   4.600   5.544   5.845  2.3431 -0.4348  3.0781
 8672TIP3   OH225958   6.666   5.366   2.870 -0.4271  0.2973 -0.6422
 8672TIP3    H125959   6.653   5.351   2.776  1.1607 -0.2374 -0.7943
 8672TIP3    H225960   6.722   5.443   2.874  0.7594 -0.5634 -0.2049
 8673TIP3   OH225961   4.791   5.283   3.364  0.6467  0.1124 -0.0014
 8673TIP3    H125962   4.746   5.365   3.343  0.8327  0.7280  1.9032
 8673TIP3    H225963   4.819   5.249   3.279  1.2309  2.4162 -0.7756
 8674TIP3   OH225964   5.396   7.679   1.649 -0.0507  0.4643  0.4405
 8674TIP3    H125965   5.345   7.648   1.724 -0.6931 -0.6037 -0.4178
 8674TIP3    H225966   5.397   7.774   1.658 -1.8074  0.4685  0.7333
 8675TIP3   OH225967   5.218   7.011   3.541  0.5839 -0.3327  1.1689
 8675TIP3    H125968   5.247   7.043   3.456  0.1730 -0.2565  1.0606
 8675TIP3    H225969   5.135   7.055   3.557  0.4840 -0.6214  1.4504
 8676TIP3   OH225970   6.079   7.311   1.096 -0.3116  0.1751  0.1510
 8676TIP3    H125971   6.086   7.359   1.179  0.2680  1.9198 -0.8810
 8676TIP3    H225972   5.987   7.323   1.070 -0.1532  0.8073 -0.1368
 8677TIP3   OH225973   5.285   7.739   0.704  0.2186  0.0089  0.0429
 8677TIP3    H125974   5.190   7.734   0.691  0.1519 -1.3785  0.9459
 8677TIP3    H225975   5.297   7.812   0.766 -0.2748  0.0914  0.0426
 8678TIP3   OH225976   4.827   4.827   6.460  0.0080  0.0061 -0.4645
 8678TIP3    H125977   4.852   4.827   6.368  0.8911  2.2020 -0.2733
 8678TIP3    H225978   4.734   4.848   6.460  0.0196  0.0581 -0.8496
 8679TIP3   OH225979   3.592   6.648   3.329 -0.2370  0.2145  0.1220
 8679TIP3    H125980   3.583   6.556   3.354 -1.7081  0.3416  0.0598
 8679TIP3    H225981   3.523   6.693   3.377 -0.0470  1.1754 -0.4980
 8680TIP3   OH225982   4.430   6.731   3.195 -0.2301  0.8487 -0.1540
 8680TIP3    H125983   4.371   6.682   3.251  0.4355  0.3621  0.1279
 8680TIP3    H225984   4.472   6.795   3.253  0.8483 -0.0040  0.0251
 8681TIP3   OH225985   5.358   4.778   4.207 -0.1232 -0.2291  0.6259
 8681TIP3    H125986   5.265   4.794   4.222  0.1321  1.4606  0.4350
 8681TIP3    H225987   5.394   4.863   4.183  1.6418 -0.6904  1.5426
 8682TIP3   OH225988   5.049   7.252   3.291  0.4873  0.2260 -0.3966
 8682TIP3    H125989   5.023   7.341   3.315  0.0994  0.4657 -1.6506
 8682TIP3    H225990   5.144   7.250   3.302  0.3605  0.4395  0.7593
 8683TIP3   OH225991   3.776   5.741   5.277  0.2430  0.4556  0.3616
 8683TIP3    H125992   3.795   5.734   5.371  0.3915  0.3447  0.3251
 8683TIP3    H225993   3.847   5.692   5.236 -0.0344  0.1805  0.2105
 8684TIP3   OH225994   7.903   5.364   1.472 -0.2719  0.2026 -0.2275
 8684TIP3    H125995   7.883   5.456   1.488 -0.3247  0.0263  0.7551
 8684TIP3    H225996   7.972   5.366   1.406 -1.6096  0.8889 -1.6468
 8685TIP3   OH225997   8.328   0.624   2.514 -0.0882  0.4325 -0.2388
 8685TIP3    H125998   8.340   0.570   2.437  1.1973 -0.2113  0.3879
 8685TIP3    H225999   8.249   0.590   2.556  1.3381 -1.8023  0.7847
 8686TIP3   OH226000   8.512   0.503   3.386  0.0890 -0.0527 -0.3301
 8686TIP3    H126001   8.426   0.498   3.428 -0.3045  1.6815 -0.8637
 8686TIP3    H226002   8.492   0.521   3.294  0.9612 -2.5618 -1.0279
 8687TIP3   OH226003   5.018   7.523   3.945  0.4697 -0.1458 -0.2395
 8687TIP3    H126004   5.010   7.513   4.040 -0.5972 -1.7701 -0.4756
 8687TIP3    H226005   5.062   7.607   3.934 -0.2340  0.5185  1.6739
 8688TIP3   OH226006   5.219   6.348   4.678 -0.1999  0.0792  0.8237
 8688TIP3    H126007   5.214   6.440   4.702 -0.5969 -0.0991  1.4307
 8688TIP3    H226008   5.309   6.322   4.697 -0.2991  0.1424  1.3828
 8689TIP3   OH226009   6.401   5.522   3.333 -0.1736 -0.3843  0.3358
 8689TIP3    H126010   6.344   5.445   3.321 -0.9796  0.3952 -0.9005
 8689TIP3    H226011   6.366   5.587   3.272  2.0000  0.1410 -0.3731
 8690TIP3   OH226012   7.068   1.199   4.562  0.5525  0.1492  0.1649
 8690TIP3    H126013   7.158   1.211   4.590  0.4305 -0.9942  1.0594
 8690TIP3    H226014   7.065   1.111   4.525  0.2117  0.8459 -1.5407
 8691TIP3   OH226015   4.734   6.168   2.620  0.9565  0.2414 -0.7770
 8691TIP3    H126016   4.819   6.203   2.591  1.5653 -0.3662  0.2378
 8691TIP3    H226017   4.679   6.246   2.632  2.1620  0.8669  1.0144
 8692TIP3   OH226018   5.514   6.812   2.975  0.2121  0.4849  0.1712
 8692TIP3    H126019   5.522   6.836   2.882  0.2828  1.5443  0.4364
 8692TIP3    H226020   5.602   6.823   3.011 -0.3207  2.5595  0.9117
 8693TIP3   OH226021   5.204   7.102   2.099  0.7121  0.0397  0.4873
 8693TIP3    H126022   5.224   7.042   2.171  1.4009 -0.7512 -0.3599
 8693TIP3    H226023   5.254   7.068   2.025 -0.8339  0.2251 -0.6607
 8694TIP3   OH226024   5.758   0.107   5.408  0.3434 -0.3986 -0.4552
 8694TIP3    H126025   5.773   0.019   5.443 -1.3035 -0.6038 -0.2489
 8694TIP3    H226026   5.846   0.144   5.400  0.8847 -0.9919  2.2198
 8695TIP3   OH226027   4.955   6.883   0.563  0.2524 -0.0665  0.2576
 8695TIP3    H126028   4.914   6.824   0.500  0.0103  0.2185  0.1524
 8695TIP3    H226029   5.045   6.893   0.531  0.0791  0.2235 -0.1465
 8696TIP3   OH226030   7.519   4.759   4.794 -0.5023  0.5999  0.4882
 8696TIP3    H126031   7.586   4.692   4.786 -1.0721  0.2796 -2.0226
 8696TIP3    H226032   7.452   4.720   4.849 -0.7933 -0.8842 -0.8853
 8697TIP3   OH226033   5.516   6.377   2.693  0.6157 -0.1822 -0.0750
 8697TIP3    H126034   5.586   6.367   2.758  0.2263 -0.4338  0.3102
 8697TIP3    H226035   5.448   6.426   2.738 -0.5772 -2.2424  0.4348
 8698TIP3   OH226036   3.079   7.761   2.753 -0.1817  0.7392 -0.1027
 8698TIP3    H126037   3.015   7.738   2.820 -1.0046  0.1122 -1.0895
 8698TIP3    H226038   3.111   7.677   2.721  1.0299  1.0446  0.2693
 8699TIP3   OH226039   4.015   7.220   1.913 -0.3818  0.1034  0.2287
 8699TIP3    H126040   4.078   7.155   1.943  0.5286  0.7122 -0.3609
 8699TIP3    H226041   4.021   7.217   1.818  0.0566  1.4295  0.2092
 8700TIP3   OH226042   5.810   6.237   4.541  0.1266  0.5964  0.3592
 8700TIP3    H126043   5.813   6.203   4.452  2.1332  1.0365  0.2232
 8700TIP3    H226044   5.741   6.187   4.584  0.4158 -0.9482 -0.9182
 8701TIP3   OH226045   5.534   6.077   3.656 -0.1865 -0.4993  0.1901
 8701TIP3    H126046   5.494   6.105   3.573 -1.1250 -1.2145  0.4070
 8701TIP3    H226047   5.621   6.046   3.630 -0.0830  0.2323 -0.3881
 8702TIP3   OH226048   5.990   6.234   3.426  0.0362 -0.5313  0.0517
 8702TIP3    H126049   5.917   6.274   3.473 -0.1257  0.7687 -1.2650
 8702TIP3    H226050   6.007   6.294   3.353  1.3949 -1.6306 -0.5551
 8703TIP3   OH226051   4.249   4.714   3.830  0.2216 -0.1755  0.0256
 8703TIP3    H126052   4.238   4.753   3.917 -0.6857  1.7764 -0.9293
 8703TIP3    H226053   4.176   4.653   3.822 -0.4040  0.5424  0.1712
 8704TIP3   OH226054   5.774   6.059   4.257  0.3645  0.1233 -0.1075
 8704TIP3    H126055   5.734   5.972   4.252 -0.6866  0.6800 -2.1179
 8704TIP3    H226056   5.778   6.088   4.165  1.7235  1.7351  0.4421
 8705TIP3   OH226057   7.982   7.213   2.172  0.4125  0.3542  0.2658
 8705TIP3    H126058   7.906   7.191   2.118  0.8911 -1.0001  0.1233
 8705TIP3    H226059   8.038   7.266   2.115  1.1873 -1.5489 -0.7940
 8706TIP3   OH226060   4.550   5.051   3.396  0.0287 -0.0585 -0.1591
 8706TIP3    H126061   4.461   5.061   3.363  0.0809  1.5995  0.1668
 8706TIP3    H226062   4.600   5.120   3.352  0.8149  0.0018  0.8009
 8707TIP3   OH226063   5.327   6.074   3.850 -0.8104 -0.2615 -0.3054
 8707TIP3    H126064   5.388   6.065   3.777  0.6956  2.1645  0.6104
 8707TIP3    H226065   5.351   6.003   3.911  0.0926 -0.2387 -0.6367
 8708TIP3   OH226066   5.563   3.801   3.102  0.8577 -0.2119  0.4130
 8708TIP3    H126067   5.505   3.744   3.051  0.7581 -0.0658  0.3648
 8708TIP3    H226068   5.505   3.855   3.155  0.9562 -0.2464  0.5573
 8709TIP3   OH226069   5.831   5.420   5.618  0.4128  0.0419 -0.1253
 8709TIP3    H126070   5.881   5.366   5.679  1.8618 -0.4266 -1.7180
 8709TIP3    H226071   5.835   5.508   5.656 -0.0152 -0.5251  1.2601
 8710TIP3   OH226072   4.337   6.185   3.466 -0.3163 -1.1761  0.2012
 8710TIP3    H126073   4.258   6.219   3.506 -0.5966 -0.6112 -0.8154
 8710TIP3    H226074   4.344   6.095   3.499 -3.1378 -2.3285 -2.1689
 8711TIP3   OH226075   4.068   6.747   2.369  0.3147  0.0283  0.4986
 8711TIP3    H126076   4.057   6.680   2.302  0.3078  0.2512  0.2760
 8711TIP3    H226077   4.079   6.828   2.320  0.2887  0.1951  0.7679
 8712TIP3   OH226078   4.241   6.692   2.593 -0.1832  0.6205  0.5661
 8712TIP3    H126079   4.182   6.672   2.666 -1.4933 -0.2149 -0.6871
 8712TIP3    H226080   4.183   6.714   2.520  1.0843  0.9606 -0.3649
 8713TIP3   OH226081   3.654   4.699   6.332 -0.3006  0.1258 -0.3318
 8713TIP3    H126082   3.614   4.638   6.394 -0.0841 -1.9814 -2.2211
 8713TIP3    H226083   3.744   4.667   6.322  0.1882  1.5006 -0.4027
 8714TIP3   OH226084   5.038   3.221   2.594  0.4792  0.6549  0.2668
 8714TIP3    H126085   5.085   3.140   2.616  0.8438  0.4792 -1.1052
 8714TIP3    H226086   4.963   3.222   2.653 -0.7248 -1.7946 -1.1518
 8715TIP3   OH226087   4.533   6.326   3.594 -0.4786 -0.6849 -0.2632
 8715TIP3    H126088   4.454   6.276   3.572 -0.9928  0.6235 -1.4769
 8715TIP3    H226089   4.526   6.406   3.541  1.2482 -0.1782  0.2508
 8716TIP3   OH226090   4.005   5.943   1.921 -0.5957 -0.0638  0.5905
 8716TIP3    H126091   3.936   5.954   1.986 -0.4463 -1.2570  0.9557
 8716TIP3    H226092   4.057   5.869   1.953  0.2518  0.1785 -0.2053
 8717TIP3   OH226093   5.973   6.319   3.874  0.1156  0.0149  0.1544
 8717TIP3    H126094   6.014   6.238   3.844  0.0821  0.2364 -0.4934
 8717TIP3    H226095   6.019   6.389   3.827 -0.3842  0.3245  0.1230
 8718TIP3   OH226096   6.656   6.165   1.581  0.2693  0.0155 -0.3797
 8718TIP3    H126097   6.598   6.093   1.561 -0.8184  0.2013  1.9527
 8718TIP3    H226098   6.599   6.233   1.618  1.4421  1.5812 -1.3863
 8719TIP3   OH226099   7.400   5.478   4.200  0.0118  0.2159 -0.4777
 8719TIP3    H126100   7.430   5.560   4.239  1.4585 -0.0463 -0.9959
 8719TIP3    H226101   7.434   5.409   4.257  0.9942 -0.1131 -1.4290
 8720TIP3   OH226102   5.280   6.400   3.117  0.2572  0.8325 -0.3504
 8720TIP3    H126103   5.301   6.404   3.211  0.1737  3.0285 -0.4130
 8720TIP3    H226104   5.306   6.485   3.082  0.4312 -0.0189 -2.3709
 8721TIP3   OH226105   3.632   6.315   2.536 -0.6369  0.5159 -0.3212
 8721TIP3    H126106   3.676   6.387   2.582 -3.3544  0.9595  1.7098
 8721TIP3    H226107   3.620   6.248   2.603 -3.8560  0.8087 -0.5211
 8722TIP3   OH226108   6.208   4.755   3.071  0.0408  0.1529  0.4695
 8722TIP3    H126109   6.126   4.773   3.118 -0.6049 -0.1314 -0.5327
 8722TIP3    H226110   6.248   4.841   3.060 -1.4484  0.6445 -1.4134
 8723TIP3   OH226111   6.086   6.177   3.108  0.1946  0.2799 -0.3269
 8723TIP3    H126112   6.068   6.258   3.156 -0.9743 -0.9661  1.3820
 8723TIP3    H226113   6.118   6.207   3.023 -3.9530  2.6082 -1.2139
 8724TIP3   OH226114   7.265   4.185   1.251 -0.5984 -0.1584  0.1799
 8724TIP3    H126115   7.207   4.158   1.321  1.3834  0.8527  2.3031
 8724TIP3    H226116   7.292   4.274   1.276  1.4106 -0.4108 -0.9887
 8725TIP3   OH226117   5.810   7.336   4.923 -0.4438 -0.1920  0.0595
 8725TIP3    H126118   5.729   7.321   4.873 -0.2248  2.3399 -1.1821
 8725TIP3    H226119   5.784   7.397   4.992  0.3309  0.4354 -0.1961
 8726TIP3   OH226120   6.090   6.123   5.376  0.5083  0.2423 -0.0790
 8726TIP3    H126121   6.067   6.176   5.452 -0.4268  0.2875 -0.3885
 8726TIP3    H226122   6.008   6.082   5.350  0.8308  0.1930 -1.0346
 8727TIP3   OH226123   6.244   7.985   3.125  0.1722 -0.5460 -0.0291
 8727TIP3    H126124   6.160   7.941   3.110 -1.0394  0.9768  2.0299
 8727TIP3    H226125   6.307   7.913   3.129 -0.9501 -1.6903 -2.0020
 8728TIP3   OH226126   5.903   6.921   2.244  0.1722 -0.0413  0.2768
 8728TIP3    H126127   5.872   6.876   2.166  2.1498 -0.4779 -0.2991
 8728TIP3    H226128   5.886   6.860   2.316 -0.0253 -0.3850 -0.0660
 8729TIP3   OH226129   5.909   5.126   4.361  0.0779 -0.6405 -0.2092
 8729TIP3    H126130   5.910   5.213   4.323 -0.8017 -0.3981  0.3193
 8729TIP3    H226131   6.000   5.095   4.352  0.3233  0.1982 -0.6720
 8730TIP3   OH226132   4.220   6.245   4.514  0.4322  0.2370  0.6724
 8730TIP3    H126133   4.232   6.323   4.459 -1.3168  0.3357  0.4241
 8730TIP3    H226134   4.215   6.280   4.603 -0.3718  0.4182  0.5604
 8731TIP3   OH226135   4.990   7.708   3.339 -0.0584  0.5908 -0.0833
 8731TIP3    H126136   5.012   7.794   3.376 -1.1407  1.0529 -0.5219
 8731TIP3    H226137   4.985   7.723   3.245 -0.7023  0.1410 -0.1190
 8732TIP3   OH226138   5.494   6.745   3.436  0.1378 -0.1444  0.4604
 8732TIP3    H126139   5.574   6.694   3.441 -0.0282 -0.4616 -0.1179
 8732TIP3    H226140   5.505   6.813   3.503 -0.1319 -1.6209  2.0261
 8733TIP3   OH226141   4.930   5.047   3.776  0.3012 -0.3233  0.0613
 8733TIP3    H126142   4.865   5.099   3.729  0.6887  0.4656  0.3873
 8733TIP3    H226143   4.957   4.979   3.713 -0.1390 -0.0749 -0.3965
 8734TIP3   OH226144   5.773   6.289   3.591 -0.1887  0.3674  0.5232
 8734TIP3    H126145   5.683   6.299   3.623 -0.3670 -0.0694  0.1586
 8734TIP3    H226146   5.821   6.256   3.667 -1.0756 -2.8654 -0.2304
 8735TIP3   OH226147   6.475   6.980   5.693  0.1275 -0.0949  0.0674
 8735TIP3    H126148   6.390   6.943   5.717  0.8841 -1.5683  0.4904
 8735TIP3    H226149   6.466   7.002   5.600 -0.6005 -0.5782  0.0222
 8736TIP3   OH226150   7.080   7.477   5.486  0.5095  0.0825  0.0437
 8736TIP3    H126151   7.115   7.426   5.413 -0.9114 -0.4172 -0.3042
 8736TIP3    H226152   7.100   7.424   5.564 -0.0365 -0.5132 -0.2157
 8737TIP3   OH226153   6.969   6.801   6.075 -0.2136  0.0944  0.0246
 8737TIP3    H126154   6.905   6.868   6.101 -0.1279  0.1528  0.0875
 8737TIP3    H226155   7.000   6.765   6.158 -0.3430 -0.1031 -0.0136
 8738TIP3   OH226156   7.110   4.893   2.438 -0.3506  0.4054 -0.6022
 8738TIP3    H126157   7.151   4.950   2.502 -0.1299 -0.8836  0.4221
 8738TIP3    H226158   7.017   4.891   2.463 -0.2386 -0.2128 -0.2302
 8739TIP3   OH226159   4.564   5.264   4.325  0.3657  0.7656  0.0631
 8739TIP3    H126160   4.618   5.221   4.392 -0.4768  0.6023  0.6512
 8739TIP3    H226161   4.627   5.299   4.262  1.0949 -0.7749 -0.0903
 8740TIP3   OH226162   6.211   7.311   4.488 -0.0723 -0.1235 -0.1261
 8740TIP3    H126163   6.258   7.394   4.477  0.7737 -0.7509 -1.4102
 8740TIP3    H226164   6.154   7.326   4.563 -0.5674  1.9126 -0.8544
 8741TIP3   OH226165   7.091   3.437   3.375  0.3519 -0.2525 -0.3946
 8741TIP3    H126166   7.106   3.509   3.435  0.0609 -0.2648 -0.3061
 8741TIP3    H226167   7.039   3.475   3.304  0.0590 -0.4116 -0.2671
 8742TIP3   OH226168   4.681   4.262   6.434  0.3007  0.3383  0.3851
 8742TIP3    H126169   4.777   4.254   6.429  0.2882 -0.1658  0.8591
 8742TIP3    H226170   4.649   4.208   6.362  0.3031 -1.7114  1.8731
 8743TIP3   OH226171   4.689   4.643   4.772 -0.1249  0.0145  0.0970
 8743TIP3    H126172   4.669   4.630   4.864 -1.7960 -1.2631 -0.4119
 8743TIP3    H226173   4.627   4.586   4.726  1.4371 -0.2293 -1.7674
 8744TIP3   OH226174   6.713   4.986   6.362  0.1189 -0.8467 -0.0608
 8744TIP3    H126175   6.639   5.025   6.315 -1.0807 -2.1640  0.6921
 8744TIP3    H226176   6.754   5.059   6.406 -0.4086 -0.0071 -0.9216
 8745TIP3   OH226177   4.743   6.391   2.164  0.3107  0.1476 -0.3725
 8745TIP3    H126178   4.727   6.425   2.076  0.5935 -2.0119 -1.2801
 8745TIP3    H226179   4.838   6.383   2.171  0.2159 -1.2982 -0.5245
 8746TIP3   OH226180   3.877   6.597   5.843 -0.0823 -0.3225  0.6844
 8746TIP3    H126181   3.800   6.550   5.810 -0.1320  1.1672 -1.4386
 8746TIP3    H226182   3.870   6.685   5.804  1.8108  0.3531  1.8038
 8747TIP3   OH226183   8.333   0.881   3.261 -0.0218  0.1243  0.1090
 8747TIP3    H126184   8.289   0.920   3.186  2.4744 -1.4830 -2.3134
 8747TIP3    H226185   8.290   0.797   3.274 -0.7520  0.5975  0.8005
 8748TIP3   OH226186   7.440   6.391   5.579  0.0166 -0.5507 -0.1553
 8748TIP3    H126187   7.397   6.401   5.665 -1.0480 -2.5904 -0.3978
 8748TIP3    H226188   7.523   6.348   5.599 -1.0109 -2.6600 -0.2704
 8749TIP3   OH226189   5.069   5.920   2.955 -0.4057  0.3002  0.2560
 8749TIP3    H126190   5.138   5.856   2.934 -1.4203 -0.9435  0.6529
 8749TIP3    H226191   5.020   5.930   2.874 -0.9988 -0.3774  0.5223
 8750TIP3   OH226192   6.475   7.592   2.521 -0.0027  0.4004  0.6898
 8750TIP3    H126193   6.380   7.594   2.535 -0.2830  0.0093 -0.9781
 8750TIP3    H226194   6.506   7.675   2.555 -1.1407  1.1150  0.0145
 8751TIP3   OH226195   7.257   6.445   2.909  0.3232  0.2544 -0.2636
 8751TIP3    H126196   7.213   6.380   2.854 -0.4353  2.0939 -1.8699
 8751TIP3    H226197   7.309   6.498   2.848  0.9769  1.1320  1.0279
 8752TIP3   OH226198   5.042   6.389   3.664 -0.8452  0.2594  0.4195
 8752TIP3    H126199   4.959   6.435   3.663 -1.2362 -0.4421 -0.1784
 8752TIP3    H226200   5.029   6.316   3.725 -0.8446 -0.1675 -0.0876
 8753TIP3   OH226201   6.561   7.080   4.311  0.1197  0.7253 -0.0736
 8753TIP3    H126202   6.511   7.088   4.392 -1.5471  1.2355 -1.1224
 8753TIP3    H226203   6.653   7.077   4.339 -0.5292 -0.9503  1.9325
 8754TIP3   OH226204   0.750   1.343   3.931 -0.2678 -0.6565 -0.1719
 8754TIP3    H126205   0.750   1.382   3.844 -1.5622  0.1310  0.1609
 8754TIP3    H226206   0.765   1.249   3.915  2.4634 -0.1078 -0.9971
 8755TIP3   OH226207   0.942   0.079   3.443 -0.0846  0.6354  0.0888
 8755TIP3    H126208   0.884   0.104   3.372 -1.1595 -1.0689  0.3411
 8755TIP3    H226209   1.002   0.153   3.453 -0.8442  1.4893 -1.6088
 8756TIP3   OH226210   6.914   6.205   1.540  0.5706 -0.2291  0.1613
 8756TIP3    H126211   6.823   6.186   1.561  0.8220 -0.0761  1.4345
 8756TIP3    H226212   6.948   6.248   1.619  2.2765 -2.0410  0.4630
 8757TIP3   OH226213   3.402   5.054   3.235  0.1865  0.2150 -0.0935
 8757TIP3    H126214   3.446   5.077   3.317 -2.0781  0.3326  1.1201
 8757TIP3    H226215   3.335   4.991   3.260 -0.0047 -0.3672 -1.9891
 8758TIP3   OH226216   5.460   6.611   3.972  0.3914  0.4899  0.0189
 8758TIP3    H126217   5.550   6.643   3.980  0.3013  1.2919 -2.0634
 8758TIP3    H226218   5.418   6.671   3.911 -1.8869  0.7542  1.7643
 8759TIP3   OH226219   3.405   6.531   0.739  0.0321  0.0318  0.3792
 8759TIP3    H126220   3.348   6.572   0.675  0.3892  0.3050  0.2333
 8759TIP3    H226221   3.395   6.585   0.818 -1.2801 -0.9789  0.9057
 8760TIP3   OH226222   1.286   0.029   0.879  0.1311 -0.3823 -0.0943
 8760TIP3    H126223   1.332   0.009   0.960 -2.0630 -0.5123  1.1568
 8760TIP3    H226224   1.298   0.123   0.866  1.7864 -0.6311 -0.4762
 8761TIP3   OH226225   8.290   6.729   3.690  0.3123 -0.0988 -0.0699
 8761TIP3    H126226   8.262   6.788   3.759  1.3521 -0.0101  0.2864
 8761TIP3    H226227   8.380   6.706   3.712  0.0453 -1.5576 -0.3720
 8762TIP3   OH226228   6.190   4.064   2.023 -0.0874  0.0453 -0.1068
 8762TIP3    H126229   6.254   4.134   2.037  0.1740 -0.3610  0.8093
 8762TIP3    H226230   6.106   4.106   2.039  0.1447 -0.1339  1.7358
 8763TIP3   OH226231   6.485   5.945   3.996  0.1548 -0.1839  0.2986
 8763TIP3    H126232   6.493   5.887   4.071  0.4982 -1.1814 -0.5058
 8763TIP3    H226233   6.511   5.892   3.921 -0.4563  0.7196 -0.5685
 8764TIP3   OH226234   4.304   6.534   3.397 -0.8147 -0.1782  0.6702
 8764TIP3    H126235   4.243   6.590   3.446 -0.8067  0.0914  0.3678
 8764TIP3    H226236   4.247   6.472   3.350 -1.0051  1.8024 -1.7866
 8765TIP3   OH226237   7.325   6.483   3.610 -0.1361 -0.2057  0.2609
 8765TIP3    H126238   7.349   6.575   3.600 -0.5586 -0.1461 -0.2283
 8765TIP3    H226239   7.363   6.457   3.694 -0.2899  0.5050  0.5515
 8766TIP3   OH226240   2.796   5.658   3.072  0.1176  0.0156 -0.1243
 8766TIP3    H126241   2.785   5.744   3.031 -0.1694  0.7495  1.4497
 8766TIP3    H226242   2.751   5.598   3.013  0.4053  0.9291 -1.3000
 8767TIP3   OH226243   6.549   7.467   3.769 -0.5085  0.0076  0.4311
 8767TIP3    H126244   6.524   7.484   3.678 -0.9309  0.1345  0.5682
 8767TIP3    H226245   6.618   7.402   3.763 -1.2404 -0.7486  0.0664
 8768TIP3   OH226246   6.128   6.335   2.860  0.3768 -0.2349  0.2109
 8768TIP3    H126247   6.075   6.405   2.821  2.1313  0.6788 -0.5967
 8768TIP3    H226248   6.174   6.296   2.785 -0.8296 -2.5059  0.6064
 8769TIP3   OH226249   7.501   6.433   3.858 -0.0271  0.2499  0.0775
 8769TIP3    H126250   7.546   6.500   3.909  0.7458  0.5258 -0.9436
 8769TIP3    H226251   7.561   6.358   3.859 -0.2708  0.0568  0.0693
 8770TIP3   OH226252   5.948   5.591   3.516  0.3702 -0.2529 -0.6881
 8770TIP3    H126253   5.949   5.539   3.436  1.5959 -3.4594  1.3399
 8770TIP3    H226254   5.861   5.576   3.554  0.5800 -0.5023 -0.3030
 8771TIP3   OH226255   6.852   8.035   2.823 -0.5246  0.1984 -0.0966
 8771TIP3    H126256   6.789   8.014   2.754 -0.6172 -0.6596  0.2531
 8771TIP3    H226257   6.911   7.960   2.826 -2.2295 -1.0924  2.7341
 8772TIP3   OH226258   6.600   7.821   3.399  0.8839 -0.7928  0.3952
 8772TIP3    H126259   6.598   7.916   3.396  1.5360 -0.6749  2.7656
 8772TIP3    H226260   6.561   7.793   3.316 -0.3738  1.5236  0.1762
 8773TIP3   OH226261   4.611   4.976   2.384  0.1028 -0.3507 -0.0792
 8773TIP3    H126262   4.518   4.991   2.369  0.4252  1.7172 -0.0833
 8773TIP3    H226263   4.654   5.015   2.308  1.0867  0.2326  0.7730
 8774TIP3   OH226264   5.291   6.335   3.950  0.4045  0.9461  0.1426
 8774TIP3    H126265   5.283   6.241   3.933  1.2402  0.3212  2.9657
 8774TIP3    H226266   5.216   6.374   3.906 -0.4568 -1.1592 -0.2849
 8775TIP3   OH226267   3.869   7.564   4.835 -0.3201  0.1417 -0.1972
 8775TIP3    H126268   3.833   7.602   4.914 -0.0805 -0.4545  0.2022
 8775TIP3    H226269   3.960   7.592   4.833  0.4475 -2.1448  1.2208
 8776TIP3   OH226270   5.298   6.195   4.281 -0.1815  0.1093 -0.1309
 8776TIP3    H126271   5.339   6.108   4.273  0.4053  0.5454 -2.1683
 8776TIP3    H226272   5.359   6.245   4.335  0.8955  0.0596 -1.2594
 8777TIP3   OH226273   4.037   6.799   5.329  0.3000  0.5715  0.3730
 8777TIP3    H126274   3.973   6.791   5.259  0.5272  1.2414  0.0839
 8777TIP3    H226275   3.988   6.781   5.409  0.3030 -1.3848 -0.0506
 8778TIP3   OH226276   3.844   7.300   3.637 -0.4237  0.6234  0.3162
 8778TIP3    H126277   3.917   7.362   3.636 -0.9238  1.2258  0.6436
 8778TIP3    H226278   3.873   7.229   3.695  0.6361 -0.0581 -1.0296
 8779TIP3   OH226279   6.115   2.278   4.263  0.3115 -0.0698  0.8328
 8779TIP3    H126280   6.147   2.296   4.351  2.3807  0.5180 -0.0206
 8779TIP3    H226281   6.070   2.193   4.271 -0.3544  0.4404  2.6331
 8780TIP3   OH226282   5.846   6.521   1.184 -0.0100  0.1524  0.3051
 8780TIP3    H126283   5.800   6.503   1.102  0.3116 -1.5197  0.4656
 8780TIP3    H226284   5.889   6.605   1.170  0.3016 -0.2737 -1.3476
 8781TIP3   OH226285   4.644   6.941   2.471 -0.2800 -0.3005 -0.3463
 8781TIP3    H126286   4.638   6.850   2.499  1.6489  0.1460  1.6488
 8781TIP3    H226287   4.557   6.961   2.437 -1.1698 -2.4380  0.5689
 8782TIP3   OH226288   8.293   0.970   2.138  0.5028  0.8220  0.2586
 8782TIP3    H126289   8.201   0.985   2.116  0.6970 -0.1068 -1.2312
 8782TIP3    H226290   8.335   1.055   2.124  0.0110  1.0706  0.2592
 8783TIP3   OH226291   7.346   0.434   3.942 -0.6841 -0.2546  0.3077
 8783TIP3    H126292   7.255   0.463   3.944 -0.6613 -0.0032 -1.5239
 8783TIP3    H226293   7.356   0.391   3.857  1.3085  1.1083 -0.1906
 8784TIP3   OH226294   8.397   1.235   3.461  0.5264  0.8382 -0.1421
 8784TIP3    H126295   8.332   1.190   3.407  1.4961  1.2165 -1.6459
 8784TIP3    H226296   8.403   1.182   3.540 -0.5560  0.0012 -0.6023
 8785TIP3   OH226297   6.329   6.904   4.058 -0.1659  0.3693 -0.5078
 8785TIP3    H126298   6.423   6.916   4.070  0.3214 -0.5522 -3.0712
 8785TIP3    H226299   6.306   6.965   3.987 -1.4210  0.2786 -0.1886
 8786TIP3   OH226300   2.990   7.355   3.352  0.8289  0.2559  0.4968
 8786TIP3    H126301   2.902   7.325   3.373  1.2330 -0.3539  1.3792
 8786TIP3    H226302   2.981   7.399   3.268 -0.2760  0.0134  0.4762
 8787TIP3   OH226303   5.595   6.697   4.314 -1.0628  0.4931 -0.6892
 8787TIP3    H126304   5.638   6.733   4.391  0.5275  0.6959 -1.6359
 8787TIP3    H226305   5.650   6.623   4.288 -1.6871  0.3060 -1.5159
 8788TIP3   OH226306   1.673   0.042   3.787 -0.1826 -0.0477  0.3033
 8788TIP3    H126307   1.588   0.082   3.803 -0.0363  0.5150 -0.3181
 8788TIP3    H226308   1.665  -0.046   3.824 -0.9928  0.0430  0.3572
 8789TIP3   OH226309   5.604   6.382   2.299 -0.4183 -0.2815 -0.0566
 8789TIP3    H126310   5.690   6.369   2.259 -0.6852  1.6796 -1.3002
 8789TIP3    H226311   5.621   6.378   2.393  0.9736 -0.2761 -0.2901
 8790TIP3   OH226312   5.306   7.413   2.087 -0.1786 -0.5034 -1.0732
 8790TIP3    H126313   5.348   7.438   2.170 -0.8110  1.7557 -1.4250
 8790TIP3    H226314   5.317   7.318   2.083  1.2100 -0.4477  0.8662
 8791TIP3   OH226315   3.802   5.471   3.653  0.0819 -0.6165  0.0739
 8791TIP3    H126316   3.802   5.562   3.623 -0.4367 -0.9061 -0.8246
 8791TIP3    H226317   3.773   5.475   3.744 -1.6481 -0.0482 -0.4936
 8792TIP3   OH226318   5.843   5.349   4.143 -0.2260  0.0241 -0.0352
 8792TIP3    H126319   5.894   5.426   4.169 -0.2558 -0.2377  0.8097
 8792TIP3    H226320   5.902   5.298   4.088  0.2743 -0.0451  0.5592
 8793TIP3   OH226321   4.316   6.435   3.850  0.2645  0.1888 -0.2095
 8793TIP3    H126322   4.299   6.524   3.880  0.9272 -0.0477  0.9160
 8793TIP3    H226323   4.229   6.397   3.837 -0.0182  1.3457 -1.8192
 8794TIP3   OH226324   5.303   4.023   4.700 -0.4751  0.3511  0.2732
 8794TIP3    H126325   5.268   4.100   4.744 -1.7603 -1.2325  2.0723
 8794TIP3    H226326   5.233   3.958   4.705  1.7376 -2.0160  1.6374
 8795TIP3   OH226327   6.350   4.970   4.732  0.5373  0.0615  0.0774
 8795TIP3    H126328   6.412   4.926   4.791  0.7508  0.8066  0.4189
 8795TIP3    H226329   6.332   4.906   4.664  0.3256 -0.7990  0.9342
 8796TIP3   OH226330   6.036   7.395   2.797  0.6784  0.2399  0.0218
 8796TIP3    H126331   6.111   7.390   2.857  0.0872 -0.0736  0.7441
 8796TIP3    H226332   6.075   7.409   2.711  1.7578 -3.1151 -0.0982
 8797TIP3   OH226333   3.756   7.275   4.766  0.2339 -0.2427  0.0701
 8797TIP3    H126334   3.801   7.359   4.773 -0.1260  0.0507 -0.9620
 8797TIP3    H226335   3.825   7.213   4.743  0.3690 -0.0788  0.0306
 8798TIP3   OH226336   4.699   5.545   1.267  0.1447 -0.3620  0.1642
 8798TIP3    H126337   4.659   5.587   1.343 -0.8988  0.4897 -0.8395
 8798TIP3    H226338   4.719   5.456   1.297 -0.1036  0.0162  1.4839
 8799TIP3   OH226339   5.876   4.300   2.673  0.2271  0.1257 -0.0065
 8799TIP3    H126340   5.904   4.231   2.612  0.2116  0.7116 -0.6762
 8799TIP3    H226341   5.957   4.325   2.719 -0.0228 -1.3503  1.2808
 8800TIP3   OH226342   5.977   5.255   2.813  0.1252 -0.3782  0.2546
 8800TIP3    H126343   5.979   5.188   2.881 -0.7619 -0.4272  0.2350
 8800TIP3    H226344   6.041   5.321   2.842  0.1022 -0.6310  0.8865
 8801TIP3   OH226345   6.052   7.226   1.858 -0.0842 -0.1434 -0.7098
 8801TIP3    H126346   6.040   7.283   1.934  0.3990 -1.8964  0.7150
 8801TIP3    H226347   6.045   7.284   1.783 -1.5920  1.4672  0.6371
 8802TIP3   OH226348   6.163   4.317   4.935 -0.1559  1.0702 -0.5124
 8802TIP3    H126349   6.140   4.229   4.966  0.5699  0.9152 -0.4151
 8802TIP3    H226350   6.084   4.347   4.889 -1.7055  1.7872  2.4444
 8803TIP3   OH226351   6.924   5.662   3.913 -0.3696  0.2171 -0.1437
 8803TIP3    H126352   6.905   5.590   3.852  1.4908 -1.0644  0.7318
 8803TIP3    H226353   6.980   5.622   3.980  0.4996  2.4327  0.4881
 8804TIP3   OH226354   4.509   5.460   2.219 -0.1988  0.3204  0.5594
 8804TIP3    H126355   4.526   5.447   2.126 -0.1778  0.7324  0.5066
 8804TIP3    H226356   4.530   5.552   2.235 -0.0087  0.2023  1.0142
 8805TIP3   OH226357   5.424   7.200   3.083 -0.3062 -0.2636 -0.4027
 8805TIP3    H126358   5.435   7.158   3.168 -1.2911 -0.7424 -0.5052
 8805TIP3    H226359   5.465   7.286   3.093  1.6657 -1.2235 -0.1795
 8806TIP3   OH226360   5.507   7.947   4.722 -0.2204 -0.2698 -0.0798
 8806TIP3    H126361   5.513   7.902   4.807  0.1603 -1.6197 -0.8084
 8806TIP3    H226362   5.505   8.040   4.744 -1.2691 -0.6449  1.4834
 8807TIP3   OH226363   8.180   5.702   1.297 -0.0288  0.6587  0.1094
 8807TIP3    H126364   8.196   5.677   1.206 -0.9729  2.1482 -0.4918
 8807TIP3    H226365   8.194   5.622   1.347 -3.2571 -1.1898 -1.7690
 8808TIP3   OH226366   5.983   5.106   4.664 -0.6883  0.4546  0.2893
 8808TIP3    H126367   5.984   5.201   4.677 -0.7625  0.4583  0.2670
 8808TIP3    H226368   6.021   5.093   4.577 -0.9953  0.4855  0.1522
 8809TIP3   OH226369   8.182   6.272   3.260 -0.2559  0.2253  0.1034
 8809TIP3    H126370   8.177   6.308   3.172  1.7579 -2.2843 -1.0905
 8809TIP3    H226371   8.180   6.177   3.248  0.9731 -0.1786  2.6972
 8810TIP3   OH226372   0.866   7.676   3.753 -0.0157 -0.1796 -0.1975
 8810TIP3    H126373   0.843   7.611   3.820  0.6956 -0.2501 -0.0239
 8810TIP3    H226374   0.924   7.629   3.693  0.6757  0.3537  0.0486
 8811TIP3   OH226375   2.285   0.944   0.853 -0.7211  0.6021  0.0070
 8811TIP3    H126376   2.295   0.868   0.910  0.1022  0.3519 -0.4606
 8811TIP3    H226377   2.235   0.911   0.778  1.1327  0.0571 -1.0334
 8812TIP3   OH226378   3.412   0.183   2.319  0.2889 -0.7306  0.0667
 8812TIP3    H126379   3.348   0.239   2.363  0.4182  0.2798 -1.0142
 8812TIP3    H226380   3.371   0.096   2.318  0.7617 -1.0325  3.1640
 8813TIP3   OH226381   4.057   6.956   2.799  0.3046  0.1542 -0.1327
 8813TIP3    H126382   4.052   6.864   2.826 -1.4395 -0.6478 -2.9831
 8813TIP3    H226383   3.970   6.991   2.818  0.1675  0.5099 -1.3868
 8814TIP3   OH226384   2.443   0.353   4.122 -0.1546 -0.1170 -0.1563
 8814TIP3    H126385   2.508   0.410   4.082 -0.6550  0.9247  0.4933
 8814TIP3    H226386   2.492   0.306   4.190 -0.0862  0.6904  0.3578
 8815TIP3   OH226387   5.870   6.815   0.239  0.3164 -0.2183  0.1727
 8815TIP3    H126388   5.802   6.880   0.225  1.2685  0.3123 -2.3003
 8815TIP3    H226389   5.845   6.741   0.183  1.1740 -0.4574  0.0970
 8816TIP3   OH226390   0.056   7.331   2.205  0.1565  0.0781 -0.6760
 8816TIP3    H126391   0.079   7.382   2.127 -0.8729 -0.1318 -1.1320
 8816TIP3    H226392  -0.038   7.344   2.215  0.1630 -0.4702  0.1200
 8817TIP3   OH226393   6.511   4.633   0.668  0.7097  0.2220 -0.2321
 8817TIP3    H126394   6.568   4.563   0.701 -1.5904 -2.9881 -2.7529
 8817TIP3    H226395   6.562   4.674   0.598  0.4497 -1.9423 -1.7590
 8818TIP3   OH226396   1.586   6.829   4.873  0.1262  0.6367 -0.6589
 8818TIP3    H126397   1.588   6.897   4.941 -0.1523 -0.3993  0.3898
 8818TIP3    H226398   1.494   6.822   4.849 -0.2244 -1.2434  1.1440
 8819TIP3   OH226399   1.097   7.166   2.636 -0.4929  0.6387 -0.4918
 8819TIP3    H126400   1.012   7.209   2.632 -0.7747 -0.0481 -2.1173
 8819TIP3    H226401   1.104   7.117   2.554  0.6225 -0.9283  0.5122
 8820TIP3   OH226402   4.551   6.645   4.236  0.1288  0.5191  0.2652
 8820TIP3    H126403   4.533   6.733   4.202  1.5739  1.0139  0.7653
 8820TIP3    H226404   4.569   6.592   4.158  0.1698  0.8801  0.0293
 8821TIP3   OH226405   7.686   7.851   3.536  0.1357  0.1787  0.9894
 8821TIP3    H126406   7.600   7.890   3.522  1.2103  1.9300 -1.0355
 8821TIP3    H226407   7.706   7.807   3.453  1.4462  0.3181  1.2157
 8822TIP3   OH226408   6.823   4.771   6.194 -0.3166 -0.3110 -0.2216
 8822TIP3    H126409   6.796   4.855   6.230  0.0864 -2.1580  4.7513
 8822TIP3    H226410   6.741   4.721   6.187 -0.3462 -0.0914 -1.6823
 8823TIP3   OH226411   7.923   7.655   2.303  0.6571  0.2195 -0.1322
 8823TIP3    H126412   7.854   7.621   2.359 -1.1764 -0.8422 -2.9177
 8823TIP3    H226413   7.911   7.750   2.305 -0.5152  0.0764 -0.1239
 8824TIP3   OH226414   7.294   7.101   3.904 -0.0323  0.1942 -0.5212
 8824TIP3    H126415   7.264   7.181   3.948 -0.8513  0.2550 -1.1820
 8824TIP3    H226416   7.265   7.031   3.962 -0.9694  0.2827 -0.8780
 8825TIP3   OH226417   0.075   5.356   2.523  0.0802  0.5166  0.4272
 8825TIP3    H126418   0.054   5.336   2.614 -0.8046 -0.1365  0.0947
 8825TIP3    H226419   0.059   5.274   2.476 -1.2760  1.3336 -0.5920
 8826TIP3   OH226420   6.559   6.649   3.717  0.1474 -0.6697  0.0174
 8826TIP3    H126421   6.644   6.634   3.675  0.5843 -0.6673  0.8986
 8826TIP3    H226422   6.574   6.632   3.810 -0.1539  1.8662  0.5929
 8827TIP3   OH226423   5.396   7.661   3.911  0.3362 -0.1313  0.4917
 8827TIP3    H126424   5.360   7.591   3.857  0.3025  0.6922 -0.5663
 8827TIP3    H226425   5.476   7.688   3.865  0.8954 -0.1478  1.4248
 8828TIP3   OH226426   5.625   7.670   3.017  0.6898 -0.8467 -0.4023
 8828TIP3    H126427   5.581   7.738   3.067 -0.5537 -2.0042  0.1159
 8828TIP3    H226428   5.712   7.663   3.058  0.8971  0.5437 -0.5902
 8829TIP3   OH226429   6.871   5.131   2.956 -0.1022  0.0434  0.1265
 8829TIP3    H126430   6.793   5.172   2.919  0.2879  1.5298  0.9390
 8829TIP3    H226431   6.837   5.065   3.016 -0.7431  0.6759  0.4648
 8830TIP3   OH226432   1.471   5.904   2.118  0.3056  0.5460  0.1058
 8830TIP3    H126433   1.426   5.984   2.089  1.7973  1.5881  0.5807
 8830TIP3    H226434   1.538   5.889   2.051  1.5997  1.0764  1.2620
 8831TIP3   OH226435   7.437   5.724   1.931 -0.3530  0.3206  0.0201
 8831TIP3    H126436   7.496   5.799   1.940  0.0345 -0.1914  2.0623
 8831TIP3    H226437   7.490   5.656   1.890 -0.5153  0.9303 -1.2302
 8832TIP3   OH226438   6.629   6.324   2.317 -0.8124  0.5029  0.0238
 8832TIP3    H126439   6.587   6.286   2.240  0.1551 -0.4599 -0.0567
 8832TIP3    H226440   6.591   6.411   2.326 -1.9461  0.0917 -0.7190
 8833TIP3   OH226441   8.122   6.420   3.030 -0.0915 -0.2562 -0.3528
 8833TIP3    H126442   8.085   6.496   3.075  0.0749  0.2115 -1.0055
 8833TIP3    H226443   8.053   6.393   2.969 -0.0625 -0.4940 -0.2811
 8834TIP3   OH226444   0.508   5.689   2.155 -0.0962 -0.0422  0.0206
 8834TIP3    H126445   0.547   5.630   2.090  1.1956  0.4039  0.3790
 8834TIP3    H226446   0.562   5.768   2.150 -1.5602  0.9672 -0.1686
 8835TIP3   OH226447   7.401   4.371   0.302  0.0460  0.2629  0.4703
 8835TIP3    H126448   7.395   4.397   0.210  0.7656 -0.2631  0.2737
 8835TIP3    H226449   7.342   4.432   0.348 -0.8871  0.0451 -0.4279
 8836TIP3   OH226450   2.944   0.862   5.399  0.0359 -0.3760 -0.4010
 8836TIP3    H126451   3.002   0.887   5.328 -1.0202 -1.0022 -1.5109
 8836TIP3    H226452   2.856   0.863   5.360 -0.7432  0.9226  1.3262
 8837TIP3   OH226453   8.230   6.203   4.224 -0.1333 -0.2147 -0.2035
 8837TIP3    H126454   8.148   6.154   4.217 -0.4063  0.1872  0.1306
 8837TIP3    H226455   8.223   6.270   4.156  0.4011 -0.8699 -0.9081
 8838TIP3   OH226456   5.028   6.557   2.687 -0.5588 -0.2482 -0.4849
 8838TIP3    H126457   5.005   6.649   2.672 -1.8165 -0.3192  0.8980
 8838TIP3    H226458   4.948   6.508   2.670 -0.4898 -0.8659  0.8487
 8839TIP3   OH226459   6.184   7.443   3.457 -0.2252 -0.3849 -0.0005
 8839TIP3    H126460   6.095   7.449   3.425  0.1712  0.8042 -0.8874
 8839TIP3    H226461   6.235   7.500   3.400  1.0433 -0.7566  0.7270
 8840TIP3   OH226462   1.648   5.054   4.612  0.1577  0.3866 -0.9373
 8840TIP3    H126463   1.643   4.973   4.662  2.3824  1.4746  1.1213
 8840TIP3    H226464   1.611   5.121   4.669  1.2425  1.3640 -1.3452
 8841TIP3   OH226465   1.922   0.682   3.710  0.5203 -0.1140  0.0946
 8841TIP3    H126466   1.950   0.703   3.621 -0.4978 -2.4228 -0.8212
 8841TIP3    H226467   1.980   0.611   3.737 -1.5118 -1.9036 -0.1422
 8842TIP3   OH226468   0.974   5.420   5.208 -0.0977 -0.5042  0.5911
 8842TIP3    H126469   1.041   5.405   5.142 -1.8179  1.0150 -1.6024
 8842TIP3    H226470   0.933   5.335   5.221 -0.8769 -0.4815 -1.6217
 8843TIP3   OH226471   6.890   6.305   4.125 -0.6098  0.3403  0.0231
 8843TIP3    H126472   6.960   6.362   4.157 -0.5528  0.0402  0.4358
 8843TIP3    H226473   6.882   6.236   4.192 -0.3473 -0.4048 -0.7039
 8844TIP3   OH226474   8.184   5.949   4.013  0.3642  0.4772  0.0182
 8844TIP3    H126475   8.279   5.963   4.017  0.4732 -0.1275 -0.3752
 8844TIP3    H226476   8.165   5.938   3.920  0.3082 -2.0117  0.2915
 8845TIP3   OH226477   6.452   7.080   2.282  0.1692 -0.3694  0.1311
 8845TIP3    H126478   6.496   6.999   2.256  0.1822 -0.0471 -0.8781
 8845TIP3    H226479   6.509   7.150   2.249 -0.4047  0.0458  0.0064
 8846TIP3   OH226480   7.807   4.729   2.093 -0.1337 -0.4985 -0.6989
 8846TIP3    H126481   7.851   4.690   2.168 -0.2817 -0.1378 -0.4237
 8846TIP3    H226482   7.878   4.761   2.037  0.0678 -2.9332 -1.9064
 8847TIP3   OH226483   5.984   7.738   3.628 -0.3028 -0.2191 -0.0336
 8847TIP3    H126484   5.964   7.678   3.699 -1.4546  0.5376  0.3058
 8847TIP3    H226485   6.019   7.816   3.672 -0.7387  0.1373 -0.3155
 8848TIP3   OH226486   7.617   6.661   3.065  0.4884 -0.2856 -0.1597
 8848TIP3    H126487   7.532   6.633   3.100 -0.2214 -1.3331 -2.6459
 8848TIP3    H226488   7.610   6.756   3.057 -0.7319 -0.4392 -1.0588
 8849TIP3   OH226489   7.595   0.635   2.565  0.7126  0.2526 -0.2959
 8849TIP3    H126490   7.650   0.606   2.493  1.1571  0.5189 -0.0645
 8849TIP3    H226491   7.540   0.703   2.527 -0.6267 -1.1525 -0.9479
 8850TIP3   OH226492   1.427   7.215   3.608  0.0768  0.2242 -0.0111
 8850TIP3    H126493   1.456   7.153   3.541  0.3978  0.3605  0.0027
 8850TIP3    H226494   1.485   7.290   3.599 -1.7820  1.5096 -1.5680
 8851TIP3   OH226495   1.657   0.109   1.969  0.8841  0.2230 -0.0364
 8851TIP3    H126496   1.684   0.186   2.020  0.7519  0.6254 -0.5653
 8851TIP3    H226497   1.736   0.055   1.963  1.1574  0.6380 -0.2266
 8852TIP3   OH226498   7.503   6.714   4.808  0.3890  0.0253 -0.2776
 8852TIP3    H126499   7.596   6.694   4.804  0.3130 -0.3582 -0.2458
 8852TIP3    H226500   7.463   6.652   4.747  0.1712  0.2788 -0.3920
 8853TIP3   OH226501   0.623   1.671   2.791  0.5176 -0.5445 -1.0893
 8853TIP3    H126502   0.547   1.724   2.767  1.2547  2.7769  3.1194
 8853TIP3    H226503   0.589   1.606   2.852  0.9641  1.2065  1.1246
 8854TIP3   OH226504   6.636   7.211   3.317  0.3381 -0.1342  0.0216
 8854TIP3    H126505   6.708   7.270   3.342 -0.0064  0.2753  0.0447
 8854TIP3    H226506   6.674   7.123   3.323  0.1379 -0.0877  2.4307
 8855TIP3   OH226507   6.811   6.274   2.807 -0.6930 -0.4802  0.1735
 8855TIP3    H126508   6.751   6.335   2.765 -0.2206 -0.5840 -0.6658
 8855TIP3    H226509   6.763   6.192   2.812 -0.1486 -0.9246 -1.7236
 8856TIP3   OH226510   7.763   6.534   5.370  0.3341 -0.3537  0.7313
 8856TIP3    H126511   7.830   6.601   5.356  0.0757 -0.4756 -1.2920
 8856TIP3    H226512   7.719   6.527   5.285  0.0902 -2.7826  1.0307
 8857TIP3   OH226513   6.486   3.185   6.843  0.3400 -0.0269  0.0755
 8857TIP3    H126514   6.498   3.097   6.876 -0.8108 -0.2152  0.0104
 8857TIP3    H226515   6.504   3.242   6.918 -1.8779 -0.4310  0.9481
 8858TIP3   OH226516   8.243   4.252   2.763  0.2967  0.0441  0.6302
 8858TIP3    H126517   8.315   4.258   2.827 -1.3136  2.0164  2.3380
 8858TIP3    H226518   8.250   4.333   2.713  2.8409 -2.3941 -3.2720
 8859TIP3   OH226519   5.679   7.640   3.832 -0.2757  0.5006  0.3713
 8859TIP3    H126520   5.726   7.559   3.852  1.6380  1.4623 -0.1159
 8859TIP3    H226521   5.709   7.703   3.898  0.8575  1.7590 -1.3106
 8860TIP3   OH226522   8.306   0.167   3.565 -0.5374 -1.1303 -0.3765
 8860TIP3    H126523   8.282   0.212   3.646  2.2761 -0.3969  0.1244
 8860TIP3    H226524   8.325   0.077   3.592  1.3373 -0.6451 -0.0260
 8861TIP3   OH226525   7.581   4.871   2.134  0.2371  0.1876 -0.3249
 8861TIP3    H126526   7.652   4.809   2.115 -0.9531 -1.1398 -0.4686
 8861TIP3    H226527   7.593   4.893   2.226  1.3390  0.6118 -0.5640
 8862TIP3   OH226528   1.731   7.479   5.001 -0.5267  0.1410  0.5651
 8862TIP3    H126529   1.700   7.466   4.912 -0.1062  0.4001  0.3844
 8862TIP3    H226530   1.819   7.514   4.992  0.2719 -1.6446  1.0770
 8863TIP3   OH226531   0.575   7.774   2.722  0.7886  0.4336 -0.0067
 8863TIP3    H126532   0.517   7.708   2.684  1.0012  0.4825 -0.4091
 8863TIP3    H226533   0.526   7.806   2.798 -0.1549  1.1697 -0.9035
 8864TIP3   OH226534   7.061   7.526   3.500 -0.4652  0.1895  0.2037
 8864TIP3    H126535   6.972   7.523   3.534 -1.0409  0.4493 -1.2228
 8864TIP3    H226536   7.066   7.609   3.453  0.7527  0.4940  0.8673
 8865TIP3   OH226537   7.441   5.393   2.992 -0.2639  0.0799 -0.2124
 8865TIP3    H126538   7.365   5.413   2.937 -1.5807  1.4168  2.0634
 8865TIP3    H226539   7.496   5.337   2.936 -1.7770  1.0175 -2.7194
 8866TIP3   OH226540   7.064   4.111   3.922  0.4146 -0.5576  0.2286
 8866TIP3    H126541   7.089   4.056   3.997 -2.5055 -1.0202  0.9164
 8866TIP3    H226542   7.088   4.200   3.949  0.4844 -0.8736  1.2334
 8867TIP3   OH226543   4.957   6.997   2.812  0.3439  0.1436 -0.4033
 8867TIP3    H126544   4.869   7.023   2.837  0.3672  0.0595 -0.2336
 8867TIP3    H226545   4.989   6.945   2.886  0.3270 -0.2992 -0.7030
 8868TIP3   OH226546   6.309   6.196   2.698 -0.0599  0.4641  0.0822
 8868TIP3    H126547   6.386   6.153   2.734 -0.4305  0.2768  0.6572
 8868TIP3    H226548   6.337   6.227   2.612  1.2367  2.0809  1.0527
 8869TIP3   OH226549   8.146   6.612   4.001  0.2793 -0.0413  0.2395
 8869TIP3    H126550   8.082   6.607   3.929  1.4419  0.1954 -0.8275
 8869TIP3    H226551   8.153   6.706   4.020  1.1368  0.0367 -0.4162
 8870TIP3   OH226552   7.683   6.569   2.810 -0.3632  0.2075 -0.0588
 8870TIP3    H126553   7.701   6.657   2.777 -0.7327  0.2595 -0.1266
 8870TIP3    H226554   7.673   6.580   2.905  1.2380 -0.0283  0.1511
 8871TIP3   OH226555   5.399   7.648   1.080 -0.3725  0.8013  0.3506
 8871TIP3    H126556   5.425   7.711   1.013  0.8222  1.6983  1.6473
 8871TIP3    H226557   5.481   7.611   1.112 -1.0676 -3.0208 -1.8374
 8872TIP3   OH226558   7.290   7.183   4.915  0.4619 -0.2901 -0.3433
 8872TIP3    H126559   7.337   7.183   4.998  0.1638 -0.4983 -0.1727
 8872TIP3    H226560   7.198   7.175   4.940  0.2719  0.9039 -0.6310
 8873TIP3   OH226561   6.267   6.205   2.241  0.1111  0.0974  0.1532
 8873TIP3    H126562   6.304   6.266   2.177 -3.4051  0.6757 -1.4703
 8873TIP3    H226563   6.254   6.257   2.320 -0.6999  0.8489 -0.4689
 8874TIP3   OH226564   5.031   6.190   2.916 -0.2124  0.2633 -0.0732
 8874TIP3    H126565   5.059   6.106   2.951  0.8669 -0.2849 -2.1727
 8874TIP3    H226566   5.007   6.172   2.825 -1.6413  1.8936 -0.0334
 8875TIP3   OH226567   7.172   7.359   5.253 -0.0862 -0.3419  0.2988
 8875TIP3    H126568   7.247   7.335   5.199 -0.4211  2.9851 -1.8094
 8875TIP3    H226569   7.112   7.284   5.246  1.6055 -1.6290 -0.6654
 8876TIP3   OH226570   6.923   6.054   2.481  0.1520 -0.5102  0.7436
 8876TIP3    H126571   6.858   6.004   2.431 -0.5070  0.3508  0.7137
 8876TIP3    H226572   6.879   6.137   2.500  0.8023 -0.4009  1.8026
 8877TIP3   OH226573   0.561   7.055   3.604 -0.3725 -0.1551 -0.5021
 8877TIP3    H126574   0.627   6.986   3.604 -2.6791 -2.4209 -0.0921
 8877TIP3    H226575   0.557   7.085   3.694 -0.8453 -0.9453 -0.2585
 8878TIP3   OH226576   6.011   7.573   3.926  0.6296  0.0986 -0.5137
 8878TIP3    H126577   5.952   7.615   3.989 -0.9195  0.6345 -2.2648
 8878TIP3    H226578   6.097   7.578   3.967 -0.2863  0.7226  1.4128
 8879TIP3   OH226579   8.148   7.400   3.057  0.6148 -0.5737 -0.3802
 8879TIP3    H126580   8.116   7.313   3.032  0.4171 -0.5906 -0.0682
 8879TIP3    H226581   8.234   7.385   3.095  0.9395 -0.5428 -1.1015
 8880TIP3   OH226582   6.180   4.979   1.272  0.1385  0.4570  0.2741
 8880TIP3    H126583   6.096   4.951   1.308  1.2196 -2.0677  0.9275
 8880TIP3    H226584   6.158   5.017   1.187 -1.5338 -1.4325 -0.1630
 8881TIP3   OH226585   1.780   0.415   0.883  0.1660  0.2516  0.0169
 8881TIP3    H126586   1.763   0.334   0.835  1.1642  0.1780 -0.2296
 8881TIP3    H226587   1.827   0.387   0.962 -0.6040  0.4701  0.5626
 8882TIP3   OH226588   8.462   5.509   2.145  0.4040 -0.1365 -0.1539
 8882TIP3    H126589   8.555   5.533   2.151  0.0895  0.8872  0.7520
 8882TIP3    H226590   8.423   5.548   2.224 -1.1103  0.9400 -1.4211
 8883TIP3   OH226591   5.261   6.611   4.590  0.4536  0.0597  0.2271
 8883TIP3    H126592   5.353   6.627   4.570  0.7287 -1.7928 -0.0874
 8883TIP3    H226593   5.254   6.624   4.685  1.0583  0.1237  0.2630
 8884TIP3   OH226594   1.917   0.533   0.608  0.1671 -0.3087 -0.7392
 8884TIP3    H126595   1.948   0.450   0.572  1.2714 -0.8641  1.3743
 8884TIP3    H226596   1.908   0.516   0.702 -1.1689  1.5024 -0.5081
 8885TIP3   OH226597   4.631   7.495   2.898  0.0490 -0.5724 -0.6875
 8885TIP3    H126598   4.709   7.459   2.856  0.3818 -1.3881  0.5937
 8885TIP3    H226599   4.658   7.511   2.988 -0.8033  0.6415 -0.6292
 8886TIP3   OH226600   6.951   5.818   4.527 -0.2932  0.0091  0.4296
 8886TIP3    H126601   6.999   5.890   4.568  1.1901 -0.0527 -1.1431
 8886TIP3    H226602   6.864   5.855   4.510 -0.1383  0.8205  1.3181
 8887TIP3   OH226603   1.330   0.848   3.741 -0.3547 -0.1758  0.4705
 8887TIP3    H126604   1.388   0.910   3.786  2.2345 -1.2917 -1.2568
 8887TIP3    H226605   1.245   0.892   3.740  0.4356  1.5255  3.0050
 8888TIP3   OH226606   7.834   6.440   4.518 -0.1166 -0.0476 -0.0963
 8888TIP3    H126607   7.911   6.384   4.513 -0.6331 -0.8035  0.2824
 8888TIP3    H226608   7.775   6.407   4.450  0.4609  1.4160 -1.3211
 8889TIP3   OH226609   8.278   1.291   2.634 -0.3525  0.0912  0.4179
 8889TIP3    H126610   8.316   1.291   2.722 -0.8253  1.1005  0.6386
 8889TIP3    H226611   8.278   1.384   2.609 -0.3229 -0.1813 -0.6001
 8890TIP3   OH226612   7.328   7.677   2.357 -0.1021 -0.2582 -0.0179
 8890TIP3    H126613   7.360   7.615   2.423 -0.5327  1.6813  2.1152
 8890TIP3    H226614   7.406   7.724   2.329 -0.1395 -0.0003  0.3050
 8891TIP3   OH226615   5.349   6.276   2.146 -0.4198 -0.5343 -0.0014
 8891TIP3    H126616   5.284   6.238   2.204  0.0006  1.8974  2.1274
 8891TIP3    H226617   5.430   6.275   2.197 -0.4457  3.3704  0.2781
 8892TIP3   OH226618   2.066   0.568   1.327  0.0898  0.4833  0.5938
 8892TIP3    H126619   1.995   0.586   1.266 -0.7754  0.2766  1.5317
 8892TIP3    H226620   2.095   0.479   1.305 -1.2286 -0.1753  1.4638
 8893TIP3   OH226621   6.538   5.509   1.536 -0.1805 -0.1024  0.2628
 8893TIP3    H126622   6.465   5.463   1.495 -0.4456  0.3308  0.2496
 8893TIP3    H226623   6.574   5.446   1.598 -0.8680 -0.1454  0.6209
 8894TIP3   OH226624   7.071   7.156   0.937 -0.2082  0.0801  0.0285
 8894TIP3    H126625   7.123   7.087   0.897  0.7966  0.9284 -0.1544
 8894TIP3    H226626   7.005   7.178   0.872  1.4509  1.4939 -1.2112
 8895TIP3   OH226627   7.365   5.993   3.070 -0.0232  0.2861  0.1735
 8895TIP3    H126628   7.410   6.078   3.069  2.5069 -1.0134 -2.2121
 8895TIP3    H226629   7.349   5.974   2.977  0.5520 -2.4197  0.6014
 8896TIP3   OH226630   6.546   5.668   1.780 -0.0915  0.2724 -0.1977
 8896TIP3    H126631   6.501   5.749   1.757 -0.7591 -0.1421 -0.3671
 8896TIP3    H226632   6.541   5.614   1.701 -1.1414 -0.5912  0.4385
 8897TIP3   OH226633   7.890   6.881   1.735  0.9402  0.1537 -0.5014
 8897TIP3    H126634   7.821   6.878   1.802 -0.4524 -0.1089 -1.9161
 8897TIP3    H226635   7.919   6.972   1.733  0.0473  0.4404 -0.4629
 8898TIP3   OH226636   1.038   0.932   1.343 -0.1261 -0.1251 -0.5216
 8898TIP3    H126637   0.967   0.890   1.390  0.9782 -1.1971  0.2337
 8898TIP3    H226638   1.083   0.985   1.409 -0.3602  0.7445 -1.0480
 8899TIP3   OH226639   6.735   5.637   0.479  0.4253  0.0729 -0.3815
 8899TIP3    H126640   6.780   5.669   0.557  1.3708 -0.4127 -0.7104
 8899TIP3    H226641   6.748   5.542   0.481  1.8794  0.2102 -1.9835
 8900TIP3   OH226642   6.836   7.786   1.095 -0.0998 -0.3576 -0.1572
 8900TIP3    H126643   6.839   7.874   1.056  0.2937 -0.4591 -0.3635
 8900TIP3    H226644   6.923   7.775   1.134 -0.8746  0.2099  1.7972
 8901TIP3   OH226645   8.196   7.531   2.521 -0.7552  0.1791  0.1951
 8901TIP3    H126646   8.210   7.536   2.616 -0.7409 -0.8017  0.2450
 8901TIP3    H226647   8.101   7.526   2.511 -0.7408 -0.0217  0.1672
 8902TIP3   OH226648   6.019   5.019   2.970  0.5596 -0.5636 -0.6766
 8902TIP3    H126649   6.022   4.938   2.919  1.7420 -0.6746 -0.4439
 8902TIP3    H226650   6.104   5.022   3.015 -0.1925 -0.1150  0.7338
 8903TIP3   OH226651   0.785   5.907   1.892  0.0433 -0.4423  0.2284
 8903TIP3    H126652   0.813   5.840   1.829 -1.0198 -1.0979  0.4318
 8903TIP3    H226653   0.800   5.990   1.846 -2.3484 -0.9659 -1.6069
 8904TIP3   OH226654   4.995   7.224   1.865 -0.0287 -0.9254 -0.0557
 8904TIP3    H126655   4.956   7.274   1.793  2.2967  0.0707 -0.6803
 8904TIP3    H226656   4.970   7.272   1.944 -1.3781 -1.2054 -0.2940
 8905TIP3   OH226657   1.161   6.567   1.880  0.1589 -0.1569  0.3896
 8905TIP3    H126658   1.102   6.493   1.868 -0.7573  0.4873  0.8908
 8905TIP3    H226659   1.212   6.570   1.799  0.5216 -1.6033  0.5433
 8906TIP3   OH226660   6.506   6.042   2.301 -0.1883 -0.2930  0.0254
 8906TIP3    H126661   6.433   6.008   2.351 -0.2144 -0.2717  0.0018
 8906TIP3    H226662   6.479   6.033   2.209  0.1051 -0.8905 -0.0062
 8907TIP3   OH226663   6.524   7.537   2.249 -0.2036  0.0096 -0.3764
 8907TIP3    H126664   6.573   7.616   2.224 -0.5392  0.0522 -0.9146
 8907TIP3    H226665   6.518   7.542   2.345 -1.1582  1.2083 -0.4734
 8908TIP3   OH226666   7.114   7.938   2.176 -0.7276 -0.3530  0.4398
 8908TIP3    H126667   7.074   7.950   2.262  0.2270 -0.1526  0.8673
 8908TIP3    H226668   7.188   8.000   2.175  0.7312 -2.0524  0.4258
 8909TIP3   OH226669   7.549   4.599   3.033  0.3930 -0.6912  0.4598
 8909TIP3    H126670   7.536   4.662   2.962 -1.2140  0.3019  1.5911
 8909TIP3    H226671   7.512   4.517   3.000  0.1032 -0.3615 -0.0353
 8910TIP3   OH226672   8.048   6.547   4.838 -0.0500  0.0527 -0.0963
 8910TIP3    H126673   8.053   6.452   4.833  0.5759  0.0927 -0.2470
 8910TIP3    H226674   8.139   6.576   4.836 -0.2653  0.6893 -0.7182
 8911TIP3   OH226675   6.998   6.387   1.778 -0.1742 -0.4032  0.0017
 8911TIP3    H126676   7.005   6.481   1.764 -0.0141 -0.4500 -0.2480
 8911TIP3    H226677   7.088   6.355   1.770 -0.3312 -0.6789 -0.7038
 8912TIP3   OH226678   6.624   5.961   2.023  0.2877 -0.4263  0.2253
 8912TIP3    H126679   6.629   5.879   2.072  1.0147 -0.7479 -0.3616
 8912TIP3    H226680   6.591   5.935   1.936 -0.1941  0.0130  0.2717
 8913TIP3   OH226681   7.669   7.621   2.502  0.0368  0.5457  0.0162
 8913TIP3    H126682   7.675   7.545   2.444  1.1743 -1.4856  2.6820
 8913TIP3    H226683   7.616   7.591   2.576 -0.9479  2.9010  0.3167
 8914TIP3   OH226684   7.114   6.919   2.097  0.0283  0.6427  0.2440
 8914TIP3    H126685   7.124   6.933   2.003  1.2819 -1.5926 -0.0035
 8914TIP3    H226686   7.127   7.005   2.136  1.2486  1.2852 -1.5197
 8915TIP3   OH226687   0.446   0.449   2.898  0.1198 -0.3565 -0.3414
 8915TIP3    H126688   0.453   0.354   2.907 -1.9139 -0.3123  2.1734
 8915TIP3    H226689   0.520   0.484   2.947  0.2410 -0.6112 -0.3433
 8916TIP3   OH226690   7.383   7.092   3.151 -0.4893  0.0887 -0.0190
 8916TIP3    H126691   7.320   7.020   3.156  0.3442 -0.8585 -2.3112
 8916TIP3    H226692   7.334   7.169   3.178 -1.5454 -1.2409  1.9621
 8917TIP3   OH226693   7.445   6.789   3.899  0.6901  0.0680  0.4614
 8917TIP3    H126694   7.509   6.848   3.859 -0.7800  1.0464 -0.4784
 8917TIP3    H226695   7.498   6.728   3.950  2.3186  1.3734  0.3737
 8918TIP3   OH226696   5.205   7.472   1.045 -0.7644 -0.2799  0.3307
 8918TIP3    H126697   5.259   7.394   1.049  0.1962  0.4358  2.0114
 8918TIP3    H226698   5.261   7.542   1.079 -1.9038  0.9689 -0.2853
 8919TIP3   OH226699   1.950   0.793   2.205  0.1158  0.1027 -0.9218
 8919TIP3    H126700   1.866   0.813   2.247  0.5086  0.4636 -0.3084
 8919TIP3    H226701   1.967   0.867   2.147  1.4826  1.4844  1.2131
 8920TIP3   OH226702   1.426   0.022   0.350  0.0307 -0.2514 -0.1218
 8920TIP3    H126703   1.468  -0.064   0.345 -0.2813 -0.3654 -0.8860
 8920TIP3    H226704   1.423   0.052   0.259  0.5215  0.7505  0.1834
 8921TIP3   OH226705   6.524   6.575   2.354  0.2270  0.0380 -0.5358
 8921TIP3    H126706   6.472   6.643   2.312 -1.2081  0.0568  1.2332
 8921TIP3    H226707   6.556   6.615   2.434 -0.4223 -1.2870  0.3950
 8922TIP3   OH226708   7.600   6.311   4.378  0.3033  0.3513 -0.0817
 8922TIP3    H126709   7.603   6.223   4.414  0.6570  0.4822  0.1970
 8922TIP3    H226710   7.506   6.331   4.373  0.2823  0.6324  1.4609
 8923TIP3   OH226711   6.939   7.280   1.772  0.0043 -0.1165  0.1884
 8923TIP3    H126712   6.857   7.307   1.814 -0.4018 -0.7521 -0.1910
 8923TIP3    H226713   6.947   7.337   1.696 -0.7483 -0.9047 -0.4970
 8924TIP3   OH226714   8.473   6.329   3.169  0.2186  0.3304 -0.6323
 8924TIP3    H126715   8.520   6.411   3.153  1.2570 -0.4845 -1.7619
 8924TIP3    H226716   8.424   6.346   3.250  2.0989  1.3231  0.3238
 8925TIP3   OH226717   1.366   0.644   5.715  0.0321  0.1974 -0.3952
 8925TIP3    H126718   1.289   0.701   5.723 -0.8500 -1.0911  0.7630
 8925TIP3    H226719   1.410   0.652   5.800 -0.7400 -1.6628  0.2332
 8926TIP3   OH226720   1.638   0.076   2.650  0.4544  0.1153  0.2997
 8926TIP3    H126721   1.589   0.012   2.598 -0.0153  1.6273 -1.1767
 8926TIP3    H226722   1.576   0.105   2.716  1.1693 -2.0925  2.0047
 8927TIP3   OH226723   7.613   5.655   4.073 -0.0631  0.4356 -0.0069
 8927TIP3    H126724   7.609   5.723   4.141  1.2481 -1.0135  1.5644
 8927TIP3    H226725   7.685   5.682   4.017  0.9598 -0.0254  1.0610
 8928TIP3   OH226726   7.229   5.855   3.609 -0.2491 -0.4460  0.7362
 8928TIP3    H126727   7.302   5.878   3.552 -1.4191  0.9112 -0.2467
 8928TIP3    H226728   7.236   5.916   3.683 -0.3805 -0.3216  0.6464
 8929TIP3   OH226729   0.136   0.138   4.229 -0.0668  0.3547 -0.1723
 8929TIP3    H126730   0.175   0.161   4.145  0.2858  0.5942  0.0507
 8929TIP3    H226731   0.146   0.218   4.282  2.5551 -0.7623  1.1309
 8930TIP3   OH226732   6.078   6.092   3.651  0.1891 -0.2617  0.1318
 8930TIP3    H126733   6.058   5.999   3.656 -0.1614 -0.1669  0.5550
 8930TIP3    H226734   6.067   6.115   3.559 -0.5243 -0.4645  0.1605
 8931TIP3   OH226735   8.364   7.572   5.284 -0.2322  0.2471 -0.3191
 8931TIP3    H126736   8.400   7.648   5.331  2.7138 -1.5377  0.4107
 8931TIP3    H226737   8.277   7.559   5.324 -1.0492  3.5415 -0.8650
 8932TIP3   OH226738   5.940   6.085   2.468  0.0243 -0.8135 -0.4205
 8932TIP3    H126739   5.855   6.094   2.512 -0.5096 -0.6770 -1.4584
 8932TIP3    H226740   5.988   6.022   2.521  0.4627  1.4005  1.9377
 8933TIP3   OH226741   7.817   5.630   3.627  0.0788 -0.8734 -0.1658
 8933TIP3    H126742   7.745   5.591   3.676 -1.4935  1.0108 -0.9110
 8933TIP3    H226743   7.858   5.555   3.583 -1.6146 -1.9547  0.0092
 8934TIP3   OH226744   1.769   6.762   3.802  0.1157  0.0889  0.0178
 8934TIP3    H126745   1.675   6.751   3.788 -0.0350  0.3868  0.7555
 8934TIP3    H226746   1.805   6.775   3.714 -0.5709  0.2779 -0.2421
 8935TIP3   OH226747   6.893   6.337   3.713  0.7782  0.2056 -0.1152
 8935TIP3    H126748   6.927   6.304   3.796  0.7282 -1.2693 -0.6634
 8935TIP3    H226749   6.926   6.276   3.647 -1.4905 -0.2616 -0.8546
 8936TIP3   OH226750   7.151   2.453   3.627 -0.1394  0.3466 -0.0983
 8936TIP3    H126751   7.127   2.489   3.713 -1.4569  2.5790 -1.3721
 8936TIP3    H226752   7.246   2.460   3.625 -0.0405 -0.1904  1.3615
 8937TIP3   OH226753   5.743   5.176   2.389 -0.4690  0.8447  0.1350
 8937TIP3    H126754   5.747   5.121   2.311  1.1793  1.4740 -0.2481
 8937TIP3    H226755   5.790   5.256   2.364  1.9860  0.1763  2.4749
 8938TIP3   OH226756   6.085   6.568   2.652 -0.5915 -0.1836  0.5324
 8938TIP3    H126757   6.010   6.624   2.673 -1.0413 -0.8172  0.6292
 8938TIP3    H226758   6.156   6.630   2.633 -1.2515  0.4344 -0.0066
 8939TIP3   OH226759   0.374   7.866   4.612 -0.5719 -0.2230 -0.0488
 8939TIP3    H126760   0.395   7.773   4.611  0.6949 -0.0054  2.3067
 8939TIP3    H226761   0.412   7.898   4.694  0.4871  2.6894 -1.6108
 8940TIP3   OH226762   0.232   4.831   6.341  0.4175 -0.1168  0.2459
 8940TIP3    H126763   0.291   4.878   6.282 -1.4166  0.9655 -0.7721
 8940TIP3    H226764   0.248   4.871   6.426  0.6574  0.6638 -0.1537
 8941TIP3   OH226765   5.123   2.623   0.017  0.4428 -0.5634 -0.3793
 8941TIP3    H126766   5.124   2.709  -0.024 -0.2148 -0.7663 -0.8281
 8941TIP3    H226767   5.135   2.640   0.111 -2.5779  0.2281 -0.0904
 8942TIP3   OH226768   6.274   5.004   3.105 -0.4177  0.0965  0.6944
 8942TIP3    H126769   6.360   5.045   3.096 -0.4471  0.2716  1.2240
 8942TIP3    H226770   6.271   4.974   3.196 -0.6535 -0.5041  0.4882
 8943TIP3   OH226771   7.354   6.022   2.014  0.0313  0.5222 -0.2050
 8943TIP3    H126772   7.441   5.997   2.044 -0.4698 -2.2894 -0.9773
 8943TIP3    H226773   7.364   6.035   1.919 -0.3180  0.5860 -0.2339
 8944TIP3   OH226774   5.090   6.397   2.244  0.1539  0.0687  0.1502
 8944TIP3    H126775   5.104   6.302   2.246 -2.7855 -0.4382 -0.2519
 8944TIP3    H226776   5.129   6.425   2.161  0.4619 -0.8902 -0.0382
 8945TIP3   OH226777   3.521   6.577   5.055  0.5437 -0.0151 -0.5298
 8945TIP3    H126778   3.502   6.498   5.004 -0.2399 -1.4609  1.9161
 8945TIP3    H226779   3.511   6.649   4.993  0.1907 -1.7547 -2.5432
 8946TIP3   OH226780   7.182   5.347   4.497 -0.0791 -0.7388  0.5756
 8946TIP3    H126781   7.113   5.364   4.562 -0.0945 -1.6737  0.8128
 8946TIP3    H226782   7.155   5.266   4.454 -0.1351 -0.0554 -0.7027
 8947TIP3   OH226783   0.042   4.501   1.934 -0.5335 -0.0495 -0.8226
 8947TIP3    H126784   0.001   4.533   2.014 -0.8782  0.6264 -1.2627
 8947TIP3    H226785   0.070   4.580   1.888  0.0454 -0.4494 -1.1684
 8948TIP3   OH226786   5.291   7.604   4.782 -0.4980  0.7471  0.6107
 8948TIP3    H126787   5.242   7.635   4.858 -0.1263  1.0475  0.7291
 8948TIP3    H226788   5.375   7.575   4.817 -0.0306  1.5985  0.2179
 8949TIP3   OH226789   7.998   7.158   4.299  0.3731  0.7620  0.0087
 8949TIP3    H126790   8.014   7.246   4.333 -1.5051  0.3023  2.1880
 8949TIP3    H226791   8.022   7.099   4.370 -3.5195 -0.2309  0.6160
 8950TIP3   OH226792   6.522   5.375   2.124 -0.2806  0.5343 -0.6909
 8950TIP3    H126793   6.571   5.374   2.206 -2.0880  2.9104  0.5062
 8950TIP3    H226794   6.557   5.451   2.076 -2.5186  2.1243  0.0801
 8951TIP3   OH226795   1.223   6.611   3.270 -0.4518  0.0141  0.9014
 8951TIP3    H126796   1.227   6.704   3.289 -0.4721  0.3898 -0.7973
 8951TIP3    H226797   1.223   6.606   3.174 -2.4470 -1.6385  0.9390
 8952TIP3   OH226798   6.309   6.164   3.368  0.0124 -0.1474  0.0589
 8952TIP3    H126799   6.316   6.205   3.454 -1.4203  0.2093  0.0224
 8952TIP3    H226800   6.226   6.196   3.333  0.4559 -0.5023 -1.3470
 8953TIP3   OH226801   8.063   7.816   4.093  0.5164 -0.9651  0.2203
 8953TIP3    H126802   7.997   7.779   4.034 -1.5704  0.9918  1.2347
 8953TIP3    H226803   8.122   7.744   4.112  0.3682 -2.0101 -3.0682
 8954TIP3   OH226804   7.797   4.333   2.613  0.6027  0.5380 -0.2070
 8954TIP3    H126805   7.770   4.402   2.674  0.5893  2.7827 -2.6659
 8954TIP3    H226806   7.760   4.359   2.529  0.7164 -2.4403 -1.2430
 8955TIP3   OH226807   8.437   4.752   1.269 -0.5541  0.5023 -0.3843
 8955TIP3    H126808   8.379   4.804   1.325 -1.2296  2.4698 -2.8271
 8955TIP3    H226809   8.522   4.754   1.314 -1.4079  0.8374  1.2660
 8956TIP3   OH226810   6.466   7.078   2.851  0.1989 -0.1062  0.0862
 8956TIP3    H126811   6.502   7.166   2.860 -0.7389  0.2263  0.7624
 8956TIP3    H226812   6.371   7.090   2.862 -0.2392 -0.8041 -2.7174
 8957TIP3   OH226813   6.447   6.452   1.945 -0.0719 -0.1367 -0.1633
 8957TIP3    H126814   6.454   6.466   1.850 -0.8925  1.5719  0.0155
 8957TIP3    H226815   6.519   6.392   1.966 -0.2074 -0.9664 -1.9484
 8958TIP3   OH226816   4.947   6.528   1.292 -0.6559 -0.2106 -0.6169
 8958TIP3    H126817   5.031   6.544   1.335 -0.0050  1.1157 -2.3326
 8958TIP3    H226818   4.910   6.615   1.279 -1.8714 -0.7334 -0.7170
 8959TIP3   OH226819   7.427   0.186   2.950 -0.2955 -0.0547 -0.0354
 8959TIP3    H126820   7.398   0.266   2.907  1.9244  0.4505 -0.6214
 8959TIP3    H226821   7.506   0.211   2.997  0.0884 -1.7794  0.2692
 8960TIP3   OH226822   7.677   5.958   2.751 -0.7892 -0.4038 -0.0733
 8960TIP3    H126823   7.664   6.052   2.764 -1.0563 -0.7010  2.1440
 8960TIP3    H226824   7.740   5.952   2.679 -1.5285  1.4353 -0.9003
 8961TIP3   OH226825   6.217   7.386   1.342 -0.0104 -0.1409  0.2315
 8961TIP3    H126826   6.272   7.307   1.336 -0.6532 -0.3894 -4.0506
 8961TIP3    H226827   6.130   7.353   1.366  0.2892 -0.4465  0.8999
 8962TIP3   OH226828   0.125   6.371   5.475 -0.1358  0.8781 -0.3179
 8962TIP3    H126829   0.029   6.374   5.472 -0.2061 -1.5151 -1.1240
 8962TIP3    H226830   0.145   6.338   5.563 -0.1298 -0.7580 -0.9206
 8963TIP3   OH226831  -0.003   6.599   3.790 -0.3477 -0.6894 -0.2341
 8963TIP3    H126832   0.077   6.630   3.833 -0.6708 -2.4266  1.6752
 8963TIP3    H226833  -0.052   6.555   3.859 -3.0923  0.5600 -1.3366
 8964TIP3   OH226834   6.930   7.934   3.530  0.3928  0.4627  0.1993
 8964TIP3    H126835   6.980   7.995   3.585  1.4756 -0.9018  0.7683
 8964TIP3    H226836   6.880   7.881   3.592  1.9046 -1.3329 -0.0729
 8965TIP3   OH226837   8.463   0.853   2.507 -0.3469 -0.0870 -0.6879
 8965TIP3    H126838   8.438   0.897   2.426  1.1876  1.0931 -0.5462
 8965TIP3    H226839   8.434   0.762   2.495 -2.1483  0.5768 -1.6184
 8966TIP3   OH226840   0.726   1.436   2.651 -0.5143 -0.1732  0.0253
 8966TIP3    H126841   0.688   1.513   2.693 -0.6659 -0.6056  0.6885
 8966TIP3    H226842   0.808   1.421   2.699 -0.2729 -0.1690 -0.3840
 8967TIP3   OH226843   6.972   6.160   4.714 -0.1420 -0.0575  0.4002
 8967TIP3    H126844   6.955   6.251   4.689  0.3689 -0.7103 -2.4839
 8967TIP3    H226845   6.886   6.122   4.727 -0.4549  0.2508 -0.6860
 8968TIP3   OH226846   5.132   7.465   1.718 -0.2286  0.0190 -0.5480
 8968TIP3    H126847   5.128   7.370   1.716 -1.5282 -0.0014  1.6978
 8968TIP3    H226848   5.190   7.485   1.792 -2.1149  0.9844  0.6981
 8969TIP3   OH226849   8.249   6.675   0.673  0.4479  0.5920 -0.0337
 8969TIP3    H126850   8.259   6.657   0.767  1.0341 -0.8758 -0.3555
 8969TIP3    H226851   8.324   6.730   0.651  0.8098  0.1852  0.1740
 8970TIP3   OH226852   7.829   3.919   3.878 -0.6091 -0.0436  0.1025
 8970TIP3    H126853   7.836   3.959   3.791 -0.6463 -1.6868 -0.6791
 8970TIP3    H226854   7.738   3.890   3.884 -1.1304  1.7823  1.4869
 8971TIP3   OH226855   0.825   6.274   4.106 -0.0554  0.0262  0.1073
 8971TIP3    H126856   0.760   6.223   4.059 -0.5019 -0.4677  1.2488
 8971TIP3    H226857   0.909   6.240   4.076 -0.3407 -0.5249 -0.0643
 8972TIP3   OH226858   8.061   3.901   2.043 -0.8043  0.1183 -0.2928
 8972TIP3    H126859   8.080   3.981   1.994  0.7272 -0.3760 -0.5409
 8972TIP3    H226860   8.042   3.931   2.132  0.5921  0.7079 -0.1797
 8973TIP3   OH226861   8.040   5.904   1.976  0.2516  0.4187  0.5883
 8973TIP3    H126862   7.968   5.961   2.003 -0.6187 -1.4447  2.4006
 8973TIP3    H226863   8.111   5.925   2.037  0.4267  0.6390  0.3027
 8974TIP3   OH226864   6.276   2.632   5.227  0.3902  0.1498  0.5112
 8974TIP3    H126865   6.214   2.583   5.173  0.6969 -0.1293  0.4106
 8974TIP3    H226866   6.311   2.700   5.169 -0.1566  0.5887  0.6974
 8975TIP3   OH226867   7.007   4.341   1.979 -0.4082  0.4308 -0.6238
 8975TIP3    H126868   6.973   4.261   2.021 -1.6980  0.8855 -0.7829
 8975TIP3    H226869   7.047   4.310   1.898  0.1336 -0.1892 -0.1336
 8976TIP3   OH226870   8.253   4.260   1.640  0.4334 -0.0851 -0.2374
 8976TIP3    H126871   8.199   4.198   1.591  1.0819 -0.6749 -0.2126
 8976TIP3    H226872   8.247   4.342   1.590 -1.2959  0.1413  0.3123
 8977TIP3   OH226873   7.027   5.924   0.300  0.1243  0.3131  0.4398
 8977TIP3    H126874   6.937   5.954   0.315 -0.4948 -0.9517 -0.6493
 8977TIP3    H226875   7.054   5.968   0.220 -0.9123 -2.2160 -1.3610
 8978TIP3   OH226876   1.074   0.250   2.472  0.4222 -0.5850  0.2107
 8978TIP3    H126877   1.041   0.160   2.470 -1.1180 -0.0507  0.7602
 8978TIP3    H226878   1.011   0.300   2.420  1.6563  0.0662 -0.6847
 8979TIP3   OH226879   4.913   2.051   5.817 -0.0433 -0.3022 -0.2431
 8979TIP3    H126880   4.849   1.991   5.855 -2.2874  2.5382  0.6296
 8979TIP3    H226881   4.918   2.026   5.724  0.6963 -3.1664  0.5366
 8980TIP3   OH226882   7.591   7.530   1.477  0.1359 -0.3815 -0.5759
 8980TIP3    H126883   7.597   7.442   1.514  4.9990 -1.0725 -2.4832
 8980TIP3    H226884   7.602   7.589   1.551 -1.6898 -1.4052  0.5240
 8981TIP3   OH226885   6.889   5.664   5.377  0.1218  0.6615  0.2381
 8981TIP3    H126886   6.940   5.745   5.382 -0.4179  1.1414 -1.9308
 8981TIP3    H226887   6.909   5.628   5.291 -1.2289 -0.4688  0.3797
 8982TIP3   OH226888   1.511   6.908   4.046  0.7124 -0.2900  0.3444
 8982TIP3    H126889   1.596   6.915   4.002  0.4690  0.1605 -0.0578
 8982TIP3    H226890   1.520   6.963   4.125  0.3724  0.8076 -0.3655
 8983TIP3   OH226891   1.917   0.005   1.861  0.1687 -0.4666 -0.5079
 8983TIP3    H126892   1.962   0.088   1.847  0.9754 -0.7650  0.3019
 8983TIP3    H226893   1.987  -0.058   1.881 -0.5349 -1.0647  0.1198
 8984TIP3   OH226894   8.127   7.219   1.523  0.2794  0.0980  0.3426
 8984TIP3    H126895   8.169   7.171   1.595  1.8123  2.0017  0.7726
 8984TIP3    H226896   8.044   7.249   1.559 -0.6905 -2.2037  0.0659
 8985TIP3   OH226897   0.187   6.096   5.770 -0.1060 -0.0312 -0.0818
 8985TIP3    H126898   0.157   6.054   5.850  0.3685 -1.1879 -0.4910
 8985TIP3    H226899   0.279   6.116   5.787 -0.0320 -0.1845 -0.2972
 8986TIP3   OH226900   7.857   0.677   3.294  0.0730 -0.0641 -0.1179
 8986TIP3    H126901   7.916   0.703   3.223  1.9060 -1.4361  0.8891
 8986TIP3    H226902   7.791   0.622   3.251  0.4581  0.1256 -0.9663
 8987TIP3   OH226903   5.321   0.875   4.801 -0.2452  0.2424  0.1010
 8987TIP3    H126904   5.345   0.853   4.711  1.2208  0.2689  0.4657
 8987TIP3    H226905   5.247   0.818   4.822  1.8592 -2.5537  0.1839
 8988TIP3   OH226906   1.036   5.571   5.767  0.3848  0.0798  0.4759
 8988TIP3    H126907   1.033   5.569   5.863 -0.5838  0.3987  0.4488
 8988TIP3    H226908   1.118   5.527   5.746  0.6711  0.1226  1.4577
 8989TIP3   OH226909   7.935   7.444   0.238  0.2908 -0.1483  0.7688
 8989TIP3    H126910   7.975   7.362   0.208  0.0660  0.0737 -0.1544
 8989TIP3    H226911   7.841   7.428   0.230  0.2707  0.8895 -1.3229
 8990TIP3   OH226912   0.506   7.353   4.808 -0.2631  0.3432 -0.1606
 8990TIP3    H126913   0.535   7.264   4.789  0.5326  0.5472  0.0917
 8990TIP3    H226914   0.411   7.349   4.802 -0.0918  0.4797 -4.6655
 8991TIP3   OH226915   4.877   0.024   6.816 -0.9646  0.4852 -0.4059
 8991TIP3    H126916   4.788   0.054   6.834 -1.1259  0.3544 -0.9878
 8991TIP3    H226917   4.919   0.022   6.902 -1.0306  2.0833 -0.3192
 8992TIP3   OH226918   1.317   5.678   5.302  0.1057  0.3625  0.6124
 8992TIP3    H126919   1.240   5.638   5.343 -0.1657 -0.0745 -0.3263
 8992TIP3    H226920   1.351   5.737   5.370 -2.9471  3.0436 -0.0426
 8993TIP3   OH226921   8.058   6.465   5.285  0.2538 -0.3201  0.2302
 8993TIP3    H126922   8.040   6.407   5.211  1.5575 -0.9672  0.4030
 8993TIP3    H226923   8.036   6.552   5.254  0.8177 -0.5867 -0.9329
 8994TIP3   OH226924   6.600   6.821   5.882  0.1720  0.1859  0.0487
 8994TIP3    H126925   6.589   6.888   5.814  0.5220  0.3365  0.1381
 8994TIP3    H226926   6.688   6.836   5.916  0.0080  0.0963  0.5169
 8995TIP3   OH226927   1.287   0.697   4.367 -0.3420  0.1062  0.2552
 8995TIP3    H126928   1.201   0.683   4.408 -0.5477 -1.9379 -0.7884
 8995TIP3    H226929   1.332   0.614   4.378  0.5787  0.3757 -1.3600
 8996TIP3   OH226930   0.703   7.559   6.332 -0.3584  0.3506 -0.2225
 8996TIP3    H126931   0.703   7.511   6.249  1.3632 -0.0271 -0.0095
 8996TIP3    H226932   0.740   7.645   6.310  0.6534  0.0449  0.2599
 8997TIP3   OH226933   6.761   7.641   4.308  0.0529 -0.0782  0.0805
 8997TIP3    H126934   6.685   7.657   4.253  0.4899 -1.1204 -0.8517
 8997TIP3    H226935   6.730   7.655   4.397 -0.8374  0.9619 -0.3916
 8998TIP3   OH226936   1.862   7.196   5.097 -0.2777  0.0289 -0.0200
 8998TIP3    H126937   1.880   7.282   5.136  1.1275 -0.7444  1.1202
 8998TIP3    H226938   1.790   7.161   5.149 -0.3804  0.2247 -0.0284
 8999TIP3   OH226939   0.294   6.116   5.337 -0.4767  0.0331  0.2319
 8999TIP3    H126940   0.388   6.132   5.327 -0.3846 -0.6396 -0.0105
 8999TIP3    H226941   0.259   6.120   5.248 -0.2960 -2.0169  0.0406
 9000TIP3   OH226942   8.170   6.518   6.047  0.0751 -0.1388 -0.3267
 9000TIP3    H126943   8.115   6.580   6.000 -0.2610  0.0963  0.3774
 9000TIP3    H226944   8.236   6.571   6.091 -0.3990 -0.2440  0.5276
 9001TIP3   OH226945   0.156   7.606   5.780 -0.5223  0.1020 -0.1436
 9001TIP3    H126946   0.069   7.588   5.745 -0.2182  0.9694 -1.3598
 9001TIP3    H226947   0.174   7.532   5.839 -2.8309  0.8308  1.5448
 9002TIP3   OH226948   2.144   0.466   2.680 -0.2842 -0.0130  0.0005
 9002TIP3    H126949   2.118   0.385   2.636 -1.9477  1.5002 -1.8976
 9002TIP3    H226950   2.080   0.477   2.750 -1.0678  0.4736 -0.7711
 9003TIP3   OH226951   0.738   7.469   3.116  0.3284 -0.3811 -0.3919
 9003TIP3    H126952   0.690   7.395   3.080  0.9413 -0.1189 -1.7540
 9003TIP3    H226953   0.812   7.430   3.162  0.4479 -0.6222 -0.7946
 9004TIP3   OH226954   2.697   0.793   5.575  0.2840  0.0031  0.5783
 9004TIP3    H126955   2.719   0.882   5.600 -0.2125  0.3214 -0.0975
 9004TIP3    H226956   2.710   0.790   5.480  2.9614 -1.4195  0.9382
 9005TIP3   OH226957   0.587   6.879   4.418  0.2935  0.1786  0.0830
 9005TIP3    H126958   0.662   6.820   4.421  0.6956  0.6612 -0.4267
 9005TIP3    H226959   0.617   6.954   4.366 -1.0505 -0.3305 -1.4554
 9006TIP3   OH226960   7.646   4.075   0.421 -0.2341  0.4230  0.0624
 9006TIP3    H126961   7.725   4.052   0.469 -1.3012 -0.1970  1.5776
 9006TIP3    H226962   7.642   4.171   0.425 -0.9300  0.3317  2.2895
 9007TIP3   OH226963   1.416   1.840   4.984 -0.1813 -0.5233 -0.3924
 9007TIP3    H126964   1.383   1.771   5.042  0.6501 -0.1012  0.5965
 9007TIP3    H226965   1.386   1.922   5.023  1.4346 -0.1712  0.1681
 9008TIP3   OH226966   2.937   0.361   5.509 -0.1458  0.2274 -0.2572
 9008TIP3    H126967   2.999   0.426   5.474  0.3000  0.0425  0.1727
 9008TIP3    H226968   2.861   0.413   5.536  0.2889  0.5975  0.2702
 9009TIP3   OH226969   3.274   1.369   5.708 -0.2336 -0.5068  0.0319
 9009TIP3    H126970   3.205   1.430   5.683  0.0519 -0.6276 -1.0413
 9009TIP3    H226971   3.296   1.323   5.627  0.3896 -1.1923  0.5865
 9010TIP3   OH226972   8.180   7.923   3.622 -0.3844  0.0494  0.3428
 9010TIP3    H126973   8.191   7.962   3.708 -0.4228  0.2233  0.2709
 9010TIP3    H226974   8.135   7.840   3.638 -0.7802  0.2865  0.4475
 9011TIP3   OH226975   3.492   1.595   6.455 -0.2983  0.0175  0.0943
 9011TIP3    H126976   3.406   1.559   6.478 -0.1059  0.4259  1.4919
 9011TIP3    H226977   3.494   1.591   6.359 -0.8365 -2.3416  0.1551
 9012TIP3   OH226978   3.515   1.151   5.811  0.2794 -0.4457 -0.5792
 9012TIP3    H126979   3.451   1.081   5.798 -0.1855  0.0762 -1.1375
 9012TIP3    H226980   3.485   1.198   5.889  1.8726 -2.2591  1.1964
 9013TIP3   OH226981   2.775   7.742   4.800  0.1057  0.4227 -0.0981
 9013TIP3    H126982   2.694   7.707   4.763  0.6748 -0.6476 -0.3628
 9013TIP3    H226983   2.791   7.688   4.877 -1.3943  3.0333  2.1245
 9014TIP3   OH226984   1.764   0.201   3.361 -0.3388 -0.2010  0.7765
 9014TIP3    H126985   1.803   0.254   3.431  0.1305  0.5824 -0.0814
 9014TIP3    H226986   1.818   0.218   3.284 -3.0484  1.9047 -0.7782
 9015TIP3   OH226987   1.198   7.904   4.913  0.2856 -0.0195 -0.4566
 9015TIP3    H126988   1.121   7.950   4.880  0.0906  0.3821  0.5410
 9015TIP3    H226989   1.236   7.863   4.836 -1.9608 -1.7869 -0.6846
 9016TIP3   OH226990   3.478   0.443   4.638 -0.0579  0.1856  0.4169
 9016TIP3    H126991   3.554   0.406   4.592  1.0530  0.4680  1.9863
 9016TIP3    H226992   3.416   0.463   4.568  2.0878  1.7778 -1.1052
 9017TIP3   OH226993   0.991   6.123   3.935  0.2202  0.3799  0.2782
 9017TIP3    H126994   1.036   6.039   3.922  0.0695  0.4924 -1.1044
 9017TIP3    H226995   0.907   6.112   3.891 -0.2944  0.8564  1.1348
 9018TIP3   OH226996   0.440   6.453   5.164  0.2882  0.2099  0.3614
 9018TIP3    H126997   0.416   6.489   5.079  0.3999  1.0299  0.6665
 9018TIP3    H226998   0.535   6.441   5.159  0.1780 -0.5114  0.0817
 9019TIP3   OH226999   8.426   5.168   5.422  0.6239  0.0378  0.1907
 9019TIP3    H127000   8.509   5.122   5.430 -0.2167 -1.8098 -1.1648
 9019TIP3    H227001   8.427   5.204   5.333 -0.9224 -1.9227 -0.6682
 9020TIP3   OH227002   0.689   7.511   5.405  0.5542 -0.6593  0.1800
 9020TIP3    H127003   0.779   7.537   5.388  1.4605 -2.9861  1.2043
 9020TIP3    H227004   0.670   7.543   5.493  0.4273 -0.2836  0.0157
 9021TIP3   OH227005   1.109   7.260   3.823  0.5350 -0.3868  0.5708
 9021TIP3    H127006   1.069   7.248   3.737 -0.2190 -0.3708  0.9140
 9021TIP3    H227007   1.141   7.173   3.846  0.5630 -0.4322  0.3657
 9022TIP3   OH227008   1.810   7.720   6.631 -0.2085 -0.5890  0.0365
 9022TIP3    H127009   1.797   7.803   6.586 -1.2033 -1.1488 -0.7210
 9022TIP3    H227010   1.821   7.743   6.723  2.6196  0.6487 -0.5610
 9023TIP3   OH227011   4.055   0.679   5.304 -0.2591 -0.1920 -0.3270
 9023TIP3    H127012   3.962   0.675   5.284 -0.7593 -0.6909  1.9071
 9023TIP3    H227013   4.087   0.754   5.255 -2.3428  1.4293  0.6992
 9024TIP3   OH227014   0.096   7.502   1.856  0.0994  0.5433 -0.1059
 9024TIP3    H127015   0.003   7.513   1.840  0.4791  1.0134 -2.1726
 9024TIP3    H227016   0.124   7.582   1.899 -0.2840  0.7510 -0.2481
 9025TIP3   OH227017   1.401   6.999   5.035  0.3468 -0.2300  0.6420
 9025TIP3    H127018   1.339   6.963   5.099 -0.0638  0.6174  0.7385
 9025TIP3    H227019   1.446   7.068   5.083 -0.1679  0.6070 -0.0667
 9026TIP3   OH227020   6.050   0.461   3.569  0.8048  0.1652  0.0160
 9026TIP3    H127021   6.055   0.397   3.498  1.9648  1.1232 -0.7683
 9026TIP3    H227022   6.070   0.411   3.648 -1.6976 -1.1743 -0.1498
 9027TIP3   OH227023   2.745   1.015   5.696  0.0953  0.1398 -0.1522
 9027TIP3    H127024   2.662   1.062   5.683  1.0651  1.4628 -1.7252
 9027TIP3    H227025   2.776   1.044   5.782 -1.2789 -0.7177  0.6553
 9028TIP3   OH227026   7.477   5.692   2.609  0.0446  0.1951 -0.0656
 9028TIP3    H127027   7.450   5.721   2.522 -1.4146 -0.3566  0.1877
 9028TIP3    H227028   7.535   5.617   2.592  0.1314  0.3692 -0.5617
 9029TIP3   OH227029   2.910   1.029   4.358  0.1482 -0.5720 -0.0976
 9029TIP3    H127030   2.932   0.936   4.365 -1.0785 -0.8273  0.4045
 9029TIP3    H227031   2.825   1.037   4.400 -0.1935  0.6137 -0.9889
 9030TIP3   OH227032   3.117   5.496   4.391 -0.0550 -0.3711  0.3760
 9030TIP3    H127033   3.136   5.584   4.423 -1.2052  0.0579 -0.1221
 9030TIP3    H227034   3.035   5.504   4.343  1.1289 -1.2023 -1.8848
 9031TIP3   OH227035   4.387   0.761   3.504  0.5030 -0.2572 -0.3739
 9031TIP3    H127036   4.292   0.759   3.516  0.6003 -1.5684  0.2755
 9031TIP3    H227037   4.422   0.707   3.576  1.6297 -1.0451 -1.4816
 9032TIP3   OH227038   4.253   5.961   6.099 -0.0913  0.0592 -0.2733
 9032TIP3    H127039   4.161   5.987   6.101 -0.1441 -0.0198 -1.3982
 9032TIP3    H227040   4.287   5.985   6.186 -0.7333  1.6849 -0.4603
 9033TIP3   OH227041   7.967   5.400   6.024 -0.4885  0.1934 -0.0305
 9033TIP3    H127042   8.040   5.342   6.043 -1.1181 -0.5081  0.2528
 9033TIP3    H227043   7.890   5.344   6.026 -1.2571  1.2486  1.5658
 9034TIP3   OH227044   0.575   6.569   2.755 -0.0762 -0.6884 -0.1649
 9034TIP3    H127045   0.532   6.572   2.840  1.1519  0.6543  0.4134
 9034TIP3    H227046   0.660   6.529   2.772  0.0831 -0.6271 -0.8053
 9035TIP3   OH227047   1.345   4.798   3.808 -0.2480  0.2102 -0.3480
 9035TIP3    H127048   1.286   4.865   3.774 -0.6521 -0.1823 -0.4255
 9035TIP3    H227049   1.360   4.739   3.734  3.2934  2.3595 -1.5048
 9036TIP3   OH227050   2.695   0.040   2.168  0.4205 -0.2029  0.1051
 9036TIP3    H127051   2.773   0.037   2.113 -0.4019 -1.4591 -1.0172
 9036TIP3    H227052   2.678   0.134   2.180  1.6472  0.0823 -0.2724
 9037TIP3   OH227053   1.617   7.775   5.686 -0.0166  0.1264  0.0385
 9037TIP3    H127054   1.662   7.770   5.602 -0.0370 -0.2310  0.0489
 9037TIP3    H227055   1.529   7.805   5.663 -0.0592 -0.0884 -0.0815
 9038TIP3   OH227056   6.409   3.423   0.470 -0.0252 -0.4735 -0.1675
 9038TIP3    H127057   6.404   3.510   0.431 -0.1248 -0.7874 -0.8617
 9038TIP3    H227058   6.325   3.382   0.449  0.0040 -0.7246  0.1924
 9039TIP3   OH227059   2.339   6.099   2.799 -0.0570 -0.2771 -0.1015
 9039TIP3    H127060   2.338   6.034   2.869  0.0629  0.6039  0.7249
 9039TIP3    H227061   2.253   6.091   2.758  0.1808 -1.3885 -0.4186
 9040TIP3   OH227062   0.235   7.357   4.815 -0.2334 -0.2390  0.0449
 9040TIP3    H127063   0.158   7.303   4.836 -1.4259  0.5153 -2.2724
 9040TIP3    H227064   0.204   7.447   4.823  0.9078  0.0950  0.8304
 9041TIP3   OH227065   2.824   1.356   4.320 -0.4677  0.1858 -0.1494
 9041TIP3    H127066   2.750   1.390   4.270  0.4544  0.4813 -1.3319
 9041TIP3    H227067   2.900   1.405   4.288  0.5615 -1.5262 -0.4114
 9042TIP3   OH227068   0.093   5.277   5.873 -0.1543  0.1869 -0.3730
 9042TIP3    H127069   0.147   5.302   5.799  1.1163 -0.4531  0.3241
 9042TIP3    H227070   0.003   5.279   5.839  0.3750  0.3406 -1.7899
 9043TIP3   OH227071   0.152   6.062   4.158 -0.2461 -0.3404 -0.1745
 9043TIP3    H127072   0.227   6.112   4.127  0.2863  0.7206  2.6623
 9043TIP3    H227073   0.190   5.988   4.206 -1.0275 -1.2205 -0.8996
 9044TIP3   OH227074   0.621   6.692   3.094 -0.1722  0.6649  0.2158
 9044TIP3    H127075   0.652   6.782   3.109  0.2069  0.5738  0.0015
 9044TIP3    H227076   0.701   6.642   3.081 -0.2811 -0.0626  2.2108
 9045TIP3   OH227077   1.127   6.504   4.342  0.5551  0.1843  0.9806
 9045TIP3    H127078   1.198   6.479   4.283  0.3674  0.6229  0.5640
 9045TIP3    H227079   1.151   6.591   4.374  0.4118  0.1565  1.1681
 9046TIP3   OH227080   8.374   6.658   3.322  0.0505 -0.0519 -0.4972
 9046TIP3    H127081   8.454   6.635   3.275  0.3959  0.8362 -0.3482
 9046TIP3    H227082   8.311   6.677   3.252  0.0262 -0.5423 -0.6130
 9047TIP3   OH227083   5.102   0.710   4.823 -0.2597  0.2797 -0.4814
 9047TIP3    H127084   5.042   0.665   4.765 -0.3918 -0.8782  0.5192
 9047TIP3    H227085   5.126   0.644   4.889 -0.3898  1.6420  0.9711
 9048TIP3   OH227086   0.992   7.538   5.585  0.3110 -0.0018  0.2535
 9048TIP3    H127087   0.999   7.549   5.490 -1.1364  1.3185  0.2971
 9048TIP3    H227088   0.940   7.612   5.615 -1.4340 -1.7653  1.7583
 9049TIP3   OH227089   8.278   7.832   3.291 -0.3130  0.2730  0.1568
 9049TIP3    H127090   8.258   7.871   3.206 -0.8689  0.4164  0.3494
 9049TIP3    H227091   8.311   7.905   3.344  1.1396 -0.0475 -0.2895
 9050TIP3   OH227092   2.142   0.242   3.582  0.1042 -0.1069  0.5953
 9050TIP3    H127093   2.185   0.306   3.638  0.8257 -0.2686  0.2292
 9050TIP3    H227094   2.050   0.245   3.609 -0.1242  2.0740 -0.3564
 9051TIP3   OH227095   5.117   0.266   4.237 -0.4284 -0.6613  0.3798
 9051TIP3    H127096   5.046   0.329   4.252  0.6773  0.7161 -0.1143
 9051TIP3    H227097   5.178   0.311   4.180  0.6192 -2.0239  0.3985
 9052TIP3   OH227098   0.716   7.441   5.832 -0.3857 -0.3649  0.2629
 9052TIP3    H127099   0.756   7.508   5.776  0.2464 -1.5023 -0.6726
 9052TIP3    H227100   0.742   7.358   5.792 -1.4685 -1.1665  1.1988
 9053TIP3   OH227101   2.658   7.712   6.081 -0.1543 -0.3698 -0.2492
 9053TIP3    H127102   2.602   7.686   6.155 -1.0258  0.6671 -0.5274
 9053TIP3    H227103   2.646   7.642   6.017 -0.2145 -0.7476  0.1729
 9054TIP3   OH227104   2.711   0.957   4.788 -0.1978 -0.1639  0.3093
 9054TIP3    H127105   2.708   0.900   4.711  0.2470  0.4881 -0.1994
 9054TIP3    H227106   2.776   0.917   4.845  1.3216  0.6886 -0.7588
 9055TIP3   OH227107   7.951   7.168   1.733  0.1341  0.0417  0.1505
 9055TIP3    H127108   7.879   7.211   1.778 -1.7096 -1.1839 -1.5194
 9055TIP3    H227109   8.017   7.152   1.801 -2.3968 -1.4311  2.3522
 9056TIP3   OH227110   1.547   6.539   2.744  0.3389  0.4067 -0.0275
 9056TIP3    H127111   1.485   6.610   2.762 -0.3567 -0.0022 -0.7734
 9056TIP3    H227112   1.503   6.486   2.677  0.3002 -1.4191  1.4002
 9057TIP3   OH227113   3.186   7.966   5.209  0.4693 -0.1486  0.1933
 9057TIP3    H127114   3.280   7.957   5.193  0.3298 -0.6632 -0.3446
 9057TIP3    H227115   3.157   7.877   5.231 -0.1016 -0.2010 -0.7777
 9058TIP3   OH227116   1.820   6.222   4.435  0.8007 -0.2224 -0.1803
 9058TIP3    H127117   1.754   6.181   4.379 -0.4241  0.9361  0.3944
 9058TIP3    H227118   1.903   6.189   4.402 -0.0991 -2.5321 -0.2633
 9059TIP3   OH227119   1.908   6.824   5.111 -0.3089  0.2591 -0.1410
 9059TIP3    H127120   1.983   6.844   5.167 -0.2026 -0.8533  0.1167
 9059TIP3    H227121   1.845   6.894   5.130 -0.2084 -0.0000  1.2489
 9060TIP3   OH227122   1.520   7.717   5.259 -0.0761  0.4883  0.0696
 9060TIP3    H127123   1.445   7.777   5.262  0.7454  1.5160  0.3516
 9060TIP3    H227124   1.560   7.733   5.174 -1.3827 -1.5799 -0.9785
 9061TIP3   OH227125   8.245   6.947   3.844 -0.4353 -0.2694 -0.2865
 9061TIP3    H127126   8.203   6.956   3.930  0.0077  1.3738 -0.2281
 9061TIP3    H227127   8.226   7.030   3.800  2.6601  0.4650 -0.2989
 9062TIP3   OH227128   2.487   1.041   5.183 -0.7243  0.4031  0.3254
 9062TIP3    H127129   2.578   1.069   5.187 -0.6716  0.2085  0.5569
 9062TIP3    H227130   2.461   1.033   5.275 -0.8998  0.2228  0.2612
 9063TIP3   OH227131   6.053   1.603   4.279 -0.3598 -0.4460 -0.1515
 9063TIP3    H127132   6.002   1.566   4.208 -0.7500  1.6201 -0.9727
 9063TIP3    H227133   5.991   1.611   4.352 -0.9731  1.1280 -0.8335
 9064TIP3   OH227134   0.556   5.988   5.305  0.1493  0.9125  0.0490
 9064TIP3    H127135   0.600   6.028   5.230  0.7551 -0.8622 -0.5696
 9064TIP3    H227136   0.504   5.917   5.267  0.2878  0.1356  1.2836
 9065TIP3   OH227137   6.768   3.453   0.440 -0.2790 -0.0494  0.2966
 9065TIP3    H127138   6.733   3.540   0.418 -0.6605 -0.1382  0.5548
 9065TIP3    H227139   6.787   3.413   0.355 -0.0694  0.3001  0.1766
 9066TIP3   OH227140   0.360   7.133   3.385 -0.2828 -0.6813 -0.1156
 9066TIP3    H127141   0.433   7.082   3.423  0.6220  1.1170  0.6208
 9066TIP3    H227142   0.346   7.093   3.299  1.0901 -1.5284  0.0227
 9067TIP3   OH227143   2.068   7.392   5.272  0.0639 -0.2084  0.5196
 9067TIP3    H127144   2.026   7.438   5.344 -0.8486  0.1820 -0.2507
 9067TIP3    H227145   2.059   7.299   5.294 -0.1716 -0.0914  0.9178
 9068TIP3   OH227146   1.748   7.683   5.916 -0.0112  0.3250 -0.2470
 9068TIP3    H127147   1.695   7.702   5.838 -0.2520  1.2849  0.1506
 9068TIP3    H227148   1.703   7.727   5.987  0.5971  0.0231  0.3277
 9069TIP3   OH227149   0.185   5.864   1.621 -0.3144  0.3288 -0.2468
 9069TIP3    H127150   0.150   5.792   1.674 -0.6325  0.6834  0.0317
 9069TIP3    H227151   0.113   5.886   1.561 -0.3177  0.6053 -0.1393
 9070TIP3   OH227152   1.726   7.692   5.451 -0.1237  0.0447  0.3354
 9070TIP3    H127153   1.773   7.610   5.433 -1.5284 -1.0536  1.5108
 9070TIP3    H227154   1.652   7.690   5.391  0.6397  1.1841 -0.6613
 9071TIP3   OH227155   1.197   6.401   3.446 -0.2457 -0.2349  0.3181
 9071TIP3    H127156   1.187   6.480   3.392  0.0631  0.6559  1.5354
 9071TIP3    H227157   1.267   6.352   3.404  0.4684  0.7891  0.2729
 9072TIP3   OH227158   0.039   6.447   4.203 -0.0289  0.4727 -0.4045
 9072TIP3    H127159  -0.003   6.379   4.255  1.1887 -0.7724 -1.0296
 9072TIP3    H227160  -0.021   6.463   4.130 -0.2871  0.0436 -0.2836
 9073TIP3   OH227161   4.234   0.042   5.251  0.1473  0.2184  0.0111
 9073TIP3    H127162   4.183  -0.023   5.203 -0.2107  0.2908  0.2921
 9073TIP3    H227163   4.173   0.078   5.315  0.6123  0.1428  0.5034
 9074TIP3   OH227164   1.878   7.562   1.930 -0.0005 -0.2377  0.4591
 9074TIP3    H127165   1.848   7.609   2.007 -1.3023  0.1629 -0.2782
 9074TIP3    H227166   1.831   7.479   1.933 -0.6487  0.0945 -0.3120
 9075TIP3   OH227167   4.157   0.314   6.091  0.4088  0.0664  0.0443
 9075TIP3    H127168   4.133   0.347   6.004 -0.3776  0.0377  0.2460
 9075TIP3    H227169   4.216   0.240   6.073 -0.2191 -0.3151 -0.4781
 9076TIP3   OH227170   2.647   4.664   4.755  0.4915 -0.2004 -0.3472
 9076TIP3    H127171   2.729   4.703   4.785 -1.0537  4.5598 -1.8242
 9076TIP3    H227172   2.584   4.686   4.824 -0.6011  0.6337 -1.5952
 9077TIP3   OH227173   8.275   6.381   6.430  0.0620  0.0277 -0.1163
 9077TIP3    H127174   8.307   6.455   6.378  0.8569  0.1999  0.5863
 9077TIP3    H227175   8.309   6.304   6.386 -1.8913 -0.0035 -1.6138
 9078TIP3   OH227176   0.817   7.703   4.365 -0.1649  0.6255  0.5682
 9078TIP3    H127177   0.729   7.676   4.388  0.8534 -0.5693  3.2601
 9078TIP3    H227178   0.852   7.629   4.315 -0.7954  1.2650 -0.8446
 9079TIP3   OH227179   3.591   1.841   6.376 -0.1334 -0.0137  0.1608
 9079TIP3    H127180   3.650   1.818   6.305  1.5095 -0.8369  1.7488
 9079TIP3    H227181   3.548   1.758   6.400  1.2859 -0.3093  1.8384
 9080TIP3   OH227182   3.914   0.573   4.580  0.3073 -1.2758  0.3824
 9080TIP3    H127183   3.858   0.641   4.542  1.0403 -0.7279  0.2660
 9080TIP3    H227184   3.865   0.491   4.567 -0.7187 -0.7374  0.8056
 9081TIP3   OH227185   1.006   7.220   4.968  0.0131 -0.0455  0.8273
 9081TIP3    H127186   0.966   7.297   4.927 -1.4242 -1.0638  0.2477
 9081TIP3    H227187   0.978   7.225   5.059 -1.4961 -0.7440  0.4301
 9082TIP3   OH227188   0.473   7.550   3.676 -0.3356  0.1507 -0.0044
 9082TIP3    H127189   0.480   7.462   3.639 -1.4482  0.5381 -1.1667
 9082TIP3    H227190   0.538   7.601   3.627 -0.7184  0.3018 -0.3636
 9083TIP3   OH227191   3.155   5.973   5.253 -0.4700  0.7155  0.1788
 9083TIP3    H127192   3.111   6.054   5.277  2.0484  2.0067  0.6464
 9083TIP3    H227193   3.155   5.920   5.332 -1.3326  0.6144  0.1160
 9084TIP3   OH227194   1.531   6.495   5.295 -0.2657 -0.0609  0.2532
 9084TIP3    H127195   1.570   6.486   5.382  0.0745 -0.7493  0.0313
 9084TIP3    H227196   1.596   6.545   5.244 -0.6202  0.6483  0.4915
 9085TIP3   OH227197   3.998   1.038   3.507  0.2605 -0.3930  0.0315
 9085TIP3    H127198   3.916   0.990   3.495 -0.2708  0.5444 -0.1795
 9085TIP3    H227199   3.970   1.127   3.530  1.2337 -0.3451  1.0412
 9086TIP3   OH227200   0.733   6.567   3.400 -0.1552 -0.2953  0.2041
 9086TIP3    H127201   0.701   6.580   3.489 -2.0817 -0.1354 -0.4831
 9086TIP3    H227202   0.765   6.653   3.373 -1.9594  0.2938 -0.1491
 9087TIP3   OH227203   1.148   7.934   2.996 -0.6509 -0.0878  0.6051
 9087TIP3    H127204   1.239   7.910   2.979 -0.3339  1.2240  0.3805
 9087TIP3    H227205   1.141   8.024   2.965 -2.1354 -0.3121  0.2594
 9088TIP3   OH227206   1.352   2.130   2.721 -0.3328 -0.1591 -0.0876
 9088TIP3    H127207   1.270   2.171   2.748  0.3193  0.8212  0.4349
 9088TIP3    H227208   1.398   2.198   2.671 -0.2397 -1.0022 -1.1620
 9089TIP3   OH227209   0.746   7.898   2.105  0.7833 -0.0821 -0.3370
 9089TIP3    H127210   0.759   7.920   2.197 -1.6727 -1.6742  0.4462
 9089TIP3    H227211   0.830   7.861   2.078  1.7216  0.9535  1.0803
 9090TIP3   OH227212   2.682   6.236   3.430 -0.3079 -0.4416  0.0144
 9090TIP3    H127213   2.596   6.232   3.388 -0.4012  0.4344  0.1135
 9090TIP3    H227214   2.743   6.206   3.364 -0.5254  0.3265 -0.5397
 9091TIP3   OH227215   1.912   6.588   5.361  0.0328 -0.3241 -0.2697
 9091TIP3    H127216   1.999   6.600   5.322 -0.4650  0.2604 -1.2271
 9091TIP3    H227217   1.919   6.508   5.413  0.5613 -1.4434 -2.0343
 9092TIP3   OH227218   2.675   7.135   4.755  0.0546  0.3195  0.4743
 9092TIP3    H127219   2.721   7.065   4.802  1.0028 -1.1774 -2.5517
 9092TIP3    H227220   2.630   7.090   4.683 -0.4030  2.6556 -0.7565
 9093TIP3   OH227221   0.272   6.754   3.808  0.6422  0.0141  0.3135
 9093TIP3    H127222   0.222   6.766   3.889  0.2620  2.1171 -0.1879
 9093TIP3    H227223   0.360   6.785   3.829  0.8831 -0.6572  0.2906
 9094TIP3   OH227224   0.658   1.185   3.125 -0.6448  0.4069 -0.3259
 9094TIP3    H127225   0.664   1.200   3.031 -0.4449 -4.2056 -1.1610
 9094TIP3    H227226   0.587   1.121   3.134  0.6095 -0.6481  2.4935
 9095TIP3   OH227227   1.222   7.253   4.167  0.0153  0.0761 -0.5170
 9095TIP3    H127228   1.179   7.338   4.154 -0.2255 -0.1443 -1.2046
 9095TIP3    H227229   1.217   7.238   4.262 -0.1587  0.7175 -0.4227
 9096TIP3   OH227230   7.132   7.133   4.226  0.3582 -0.5376 -0.5213
 9096TIP3    H127231   7.071   7.146   4.299  1.2611  0.2694  0.0983
 9096TIP3    H227232   7.132   7.038   4.213  1.4138 -0.8665  1.6141
 9097TIP3   OH227233   5.244   1.260   3.949 -0.0662 -0.2265 -0.2041
 9097TIP3    H127234   5.328   1.257   3.996 -1.4870 -0.9758  2.4261
 9097TIP3    H227235   5.215   1.351   3.958  0.1477 -0.1270 -0.5218
 9098TIP3   OH227236   3.800   0.392   4.224 -0.2833  0.2585  0.1616
 9098TIP3    H127237   3.896   0.393   4.218 -0.0508 -0.6313  2.8669
 9098TIP3    H227238   3.773   0.331   4.156  1.0367  0.7211 -0.8217
 9099TIP3   OH227239   5.696   0.352   3.695  0.8538 -0.5416 -0.2223
 9099TIP3    H127240   5.778   0.350   3.745  0.7043  1.2138  0.1423
 9099TIP3    H227241   5.724   0.359   3.604  1.1603  1.8204  0.0054
 9100TIP3   OH227242   1.118   6.438   5.475 -0.0417 -0.1580  0.3562
 9100TIP3    H127243   1.209   6.413   5.491 -0.2512  0.0093  1.8632
 9100TIP3    H227244   1.092   6.484   5.554 -1.1091  0.7532 -0.5177
 9101TIP3   OH227245   1.530   5.868   2.379 -0.3178  0.0485  0.1119
 9101TIP3    H127246   1.518   5.773   2.387  1.5086 -0.2286 -0.1428
 9101TIP3    H227247   1.554   5.882   2.288 -2.2580  0.9847 -0.2902
 9102TIP3   OH227248   5.097   0.410   4.616 -0.4085 -0.1296 -0.2937
 9102TIP3    H127249   5.112   0.338   4.678 -1.8530 -0.7346 -0.6132
 9102TIP3    H227250   5.014   0.449   4.644 -0.2292  0.6661 -0.8385
 9103TIP3   OH227251   4.811   0.294   3.993 -0.4361  0.2117 -0.1211
 9103TIP3    H127252   4.772   0.373   4.029  0.8537  1.0667 -0.5882
 9103TIP3    H227253   4.857   0.254   4.067  1.8759  1.7577 -0.6783
 9104TIP3   OH227254   0.907   7.407   3.344  0.0637  0.2779  0.4943
 9104TIP3    H127255   0.967   7.448   3.406  1.6701  0.1196 -0.9006
 9104TIP3    H227256   0.949   7.324   3.322 -1.7941 -0.8696  1.1917
 9105TIP3   OH227257   0.363   5.856   5.153 -0.5630  0.0996 -0.1169
 9105TIP3    H127258   0.316   5.932   5.119 -1.1389 -1.3167 -2.6654
 9105TIP3    H227259   0.313   5.781   5.121  2.0709 -1.3940 -0.8699
 9106TIP3   OH227260   3.860   1.278   3.557 -0.0348  0.2984  0.1387
 9106TIP3    H127261   3.915   1.344   3.515 -1.3758  0.5751 -1.2096
 9106TIP3    H227262   3.800   1.249   3.489 -1.9161  0.3720  1.7150
 9107TIP3   OH227263   2.640   0.875   4.117  0.3392 -0.2703  0.1546
 9107TIP3    H127264   2.615   0.794   4.161  1.7745 -0.5509  0.4930
 9107TIP3    H227265   2.688   0.847   4.039 -0.9156  0.2456 -0.8160
 9108TIP3   OH227266   0.798   7.152   4.484 -0.6208  0.1275  0.1624
 9108TIP3    H127267   0.747   7.111   4.415  0.2064  0.0381 -0.4109
 9108TIP3    H227268   0.806   7.243   4.458 -1.8409  0.5087  1.0682
 9109TIP3   OH227269   1.547   7.074   4.632 -0.5146  0.1628  0.2471
 9109TIP3    H127270   1.507   6.987   4.628 -1.6023  0.5602  1.9667
 9109TIP3    H227271   1.615   7.065   4.700 -1.0679  0.8153  0.8913
 9110TIP3   OH227272   0.427   5.807   5.695 -0.0880  0.1169 -0.2559
 9110TIP3    H127273   0.378   5.831   5.617 -0.4300 -1.6417 -0.6125
 9110TIP3    H227274   0.510   5.854   5.687 -1.9295  3.7297  0.7274
 9111TIP3   OH227275   0.695   7.030   2.577 -0.3525  0.7449 -0.0697
 9111TIP3    H127276   0.686   6.935   2.567  0.6139  0.7785 -1.5489
 9111TIP3    H227277   0.607   7.061   2.597  0.0892 -0.9577  5.3708
 9112TIP3   OH227278   1.294   7.129   5.389  0.3485 -0.2827  0.0424
 9112TIP3    H127279   1.332   7.135   5.477  0.4753  0.0415 -0.0355
 9112TIP3    H227280   1.200   7.119   5.405  0.1275  1.7252  0.1964
 9113TIP3   OH227281   0.823   6.731   4.366 -0.5310  0.3081 -0.3860
 9113TIP3    H127282   0.909   6.758   4.397  1.1966 -2.2048 -2.7416
 9113TIP3    H227283   0.828   6.736   4.271 -2.5174 -1.1816 -0.6125
 9114TIP3   OH227284   1.227   5.699   3.749 -0.1180 -0.3785  0.4319
 9114TIP3    H127285   1.150   5.656   3.712  0.1954 -1.5652  1.1131
 9114TIP3    H227286   1.299   5.674   3.690 -0.4975  1.9763 -1.0694
 9115TIP3   OH227287   1.193   6.249   3.662 -0.0885 -0.0123 -0.0943
 9115TIP3    H127288   1.174   6.320   3.601  0.4565  0.7541  0.6261
 9115TIP3    H227289   1.108   6.229   3.702 -0.3346 -0.1106 -0.6631
 9116TIP3   OH227290   1.690   6.922   5.527  0.2142  0.3294  0.0854
 9116TIP3    H127291   1.772   6.873   5.535 -0.1725 -0.2927  0.2530
 9116TIP3    H227292   1.676   6.960   5.614 -0.2987 -0.5650  0.4016
 9117TIP3   OH227293   3.665   1.434   1.633 -0.1713 -0.6781  0.3293
 9117TIP3    H127294   3.731   1.481   1.684  1.7719 -2.3869 -0.5037
 9117TIP3    H227295   3.693   1.342   1.637 -1.2389 -1.1501 -1.8773
 9118TIP3   OH227296   7.095   5.680   1.868  0.2276  0.2993  0.0389
 9118TIP3    H127297   7.164   5.718   1.923 -0.1097  4.2068 -2.0499
 9118TIP3    H227298   7.032   5.751   1.857 -0.9870 -1.2042 -3.2555
 9119TIP3   OH227299   2.539   7.667   6.324  0.2555 -0.4569 -0.5444
 9119TIP3    H127300   2.548   7.579   6.360  1.4015  0.1301  0.6882
 9119TIP3    H227301   2.549   7.725   6.400  1.5352  0.7923 -1.6169
 9120TIP3   OH227302   2.932   6.993   4.343 -0.4378  0.1455 -0.0921
 9120TIP3    H127303   2.855   6.943   4.369  0.5534 -1.5058 -0.2164
 9120TIP3    H227304   2.986   6.996   4.422  1.2727 -2.3960 -1.0883
 9121TIP3   OH227305   1.960   7.235   2.720 -0.0133  0.4952  0.5962
 9121TIP3    H127306   2.016   7.311   2.707  0.1847  0.3965  0.8829
 9121TIP3    H227307   1.874   7.263   2.690  0.7828 -0.2456 -2.6391
 9122TIP3   OH227308   4.059   1.417   3.446  0.3199 -0.0447  0.3296
 9122TIP3    H127309   4.025   1.396   3.359 -0.0549 -1.5490  0.8208
 9122TIP3    H227310   4.111   1.496   3.433  1.4383 -1.0544 -1.5351
 9123TIP3   OH227311   4.300   0.493   4.784  0.0098  0.1176 -0.2373
 9123TIP3    H127312   4.393   0.493   4.761 -0.3558  0.6318 -1.8319
 9123TIP3    H227313   4.260   0.552   4.720 -1.4693 -0.3954  0.1943
 9124TIP3   OH227314   4.060   0.336   3.783 -0.0080 -0.4008  0.1363
 9124TIP3    H127315   4.101   0.411   3.827 -0.6298  0.2157 -0.3063
 9124TIP3    H227316   3.966   0.351   3.793 -0.2661  1.1905 -3.6276
 9125TIP3   OH227317   2.794   1.783   4.327 -0.4574  0.1936 -0.2525
 9125TIP3    H127318   2.856   1.852   4.352  1.2392 -1.0453 -0.8972
 9125TIP3    H227319   2.818   1.709   4.382 -2.0054 -0.0129  0.1539
 9126TIP3   OH227320   0.108   5.067   4.550 -0.3153 -0.4211  0.0955
 9126TIP3    H127321   0.122   5.162   4.546 -0.5583 -0.3748  0.3262
 9126TIP3    H227322   0.194   5.030   4.533 -0.1668 -0.1538  0.2550
 9127TIP3   OH227323   3.347   0.863   3.583 -0.5481 -0.2957  0.2611
 9127TIP3    H127324   3.309   0.942   3.620 -3.1438 -0.8000 -1.1829
 9127TIP3    H227325   3.414   0.895   3.523 -1.2465  0.8016  0.0471
 9128TIP3   OH227326   4.650   0.205   4.322  0.9611 -0.0455 -0.1157
 9128TIP3    H127327   4.641   0.140   4.252  1.6308 -0.6345  0.3404
 9128TIP3    H227328   4.723   0.173   4.375  2.8551  2.2979 -1.2265
 9129TIP3   OH227329   3.212   2.045   5.751 -0.3886  0.1852  0.2532
 9129TIP3    H127330   3.221   1.991   5.830  1.1743 -0.2875 -0.2261
 9129TIP3    H227331   3.127   2.019   5.715 -0.2205 -1.0573  0.7081
 9130TIP3   OH227332   3.422   7.431   2.361 -0.5683  0.4022 -0.0446
 9130TIP3    H127333   3.462   7.427   2.448 -0.1251  0.0314 -0.2638
 9130TIP3    H227334   3.364   7.355   2.358  0.0994 -0.0917 -0.4083
 9131TIP3   OH227335   1.553   6.307   6.540 -0.2857 -0.0826 -0.3303
 9131TIP3    H127336   1.572   6.376   6.477 -0.1632  0.4483  0.2805
 9131TIP3    H227337   1.457   6.307   6.546 -0.2825  0.1097 -0.2541
 9132TIP3   OH227338   0.989   6.566   5.265  0.0838 -0.5621  0.7369
 9132TIP3    H127339   1.068   6.534   5.309  0.5752  0.4320  0.6038
 9132TIP3    H227340   0.966   6.645   5.313 -1.7226 -1.6558  1.7274
 9133TIP3   OH227341   8.405   7.181   5.361 -0.4263  0.1460 -0.2593
 9133TIP3    H127342   8.416   7.129   5.441  0.0769 -2.4939 -1.9796
 9133TIP3    H227343   8.494   7.201   5.333 -0.5275 -0.9938 -1.4332
 9134TIP3   OH227344   3.675   0.730   4.943  0.3200 -0.1004 -0.2404
 9134TIP3    H127345   3.611   0.727   5.014 -0.7870 -0.7157 -1.2385
 9134TIP3    H227346   3.635   0.787   4.877  1.4775  0.7259 -0.2397
 9135TIP3   OH227347   5.287   0.414   3.637 -0.1967 -0.0378  0.4474
 9135TIP3    H127348   5.362   0.473   3.626 -0.8119  0.3263 -2.0643
 9135TIP3    H227349   5.215   0.472   3.663 -0.0449 -0.1442  1.1192
 9136TIP3   OH227350   3.323   0.381   5.318  0.4610 -0.4721 -0.8167
 9136TIP3    H127351   3.277   0.465   5.315  1.4505  0.0531 -1.5772
 9136TIP3    H227352   3.349   0.372   5.410  0.1951 -0.0245 -0.6969
 9137TIP3   OH227353   3.281   0.772   6.073  0.5886  0.2200 -0.0582
 9137TIP3    H127354   3.340   0.835   6.115 -0.8103  1.7225 -0.2756
 9137TIP3    H227355   3.264   0.707   6.141 -0.1060  1.5773  1.1078
 9138TIP3   OH227356   4.086   0.071   4.173 -0.0644  0.3997 -0.2235
 9138TIP3    H127357   4.106   0.164   4.159  0.6870  0.1530 -0.8190
 9138TIP3    H227358   4.006   0.071   4.225 -0.3872  1.3803 -0.7204
 9139TIP3   OH227359   2.649   7.850   3.952  0.1723  0.0905 -0.1904
 9139TIP3    H127360   2.666   7.811   4.038 -0.6507 -1.2401 -0.6210
 9139TIP3    H227361   2.736   7.871   3.918  0.5409 -0.0044  0.6860
 9140TIP3   OH227362   3.314   1.532   4.644 -0.1372  0.7398  0.1886
 9140TIP3    H127363   3.409   1.544   4.641 -0.1210  0.2562 -2.1369
 9140TIP3    H227364   3.279   1.621   4.646  0.3422  0.9455 -0.3739
 9141TIP3   OH227365   3.080   0.705   3.918 -0.4329  0.0578 -0.2298
 9141TIP3    H127366   3.042   0.718   3.831  0.5545  0.9937 -0.5308
 9141TIP3    H227367   3.094   0.794   3.952  0.4688 -0.2847  0.3127
 9142TIP3   OH227368   1.407   6.335   5.060 -0.4903 -0.2995  0.2464
 9142TIP3    H127369   1.433   6.400   5.125 -2.2769  0.4142  0.2624
 9142TIP3    H227370   1.411   6.252   5.106  2.0842 -0.2543  0.1502
 9143TIP3   OH227371   8.202   5.956   4.602  0.7740  0.6808 -0.0335
 9143TIP3    H127372   8.191   6.051   4.594  0.3440  0.7766  1.5357
 9143TIP3    H227373   8.280   5.936   4.550 -0.2016  1.6218 -1.9255
 9144TIP3   OH227374   7.644   7.416   3.027  0.0489 -0.1476  0.0299
 9144TIP3    H127375   7.549   7.411   3.015  0.0892 -0.1343 -0.3225
 9144TIP3    H227376   7.662   7.358   3.101 -0.7539  3.4577  3.2051
 9145TIP3   OH227377   3.709   1.448   3.046  0.0487  0.4631  0.0925
 9145TIP3    H127378   3.639   1.481   3.102  0.2012  0.4529  0.2899
 9145TIP3    H227379   3.665   1.397   2.978 -0.0857 -0.0760  0.5860
 9146TIP3   OH227380   3.330   0.180   2.831 -0.0431  0.0080  0.0742
 9146TIP3    H127381   3.299   0.227   2.753  2.0410  0.8001 -0.2933
 9146TIP3    H227382   3.375   0.103   2.796 -0.2586 -0.3322  0.5464
 9147TIP3   OH227383   7.551   1.298   4.567 -0.1004  0.2658  0.3511
 9147TIP3    H127384   7.594   1.235   4.511  1.0153  1.0995  0.2554
 9147TIP3    H227385   7.621   1.334   4.622 -1.0497 -0.0166  1.7817
 9148TIP3   OH227386   4.059   7.988   6.058 -0.0164 -0.2311  0.0902
 9148TIP3    H127387   4.047   8.035   6.141 -0.4506 -0.0229 -0.0882
 9148TIP3    H227388   4.005   7.910   6.067  0.5034 -0.5700  0.2848
 9149TIP3   OH227389   2.126   7.926   5.095 -0.4787 -0.1767  0.1127
 9149TIP3    H127390   2.084   7.866   5.157 -0.1962 -1.1512 -0.6283
 9149TIP3    H227391   2.215   7.938   5.130 -0.6318  0.0486  0.4256
 9150TIP3   OH227392   8.041   6.869   3.614 -0.0166  0.4095  0.3084
 9150TIP3    H127393   8.006   6.827   3.536 -1.5472  1.0178  0.6378
 9150TIP3    H227394   8.125   6.826   3.630  0.5263  0.5802 -1.9146
 9151TIP3   OH227395   6.213   1.587   0.908  0.3274  0.0516  0.4148
 9151TIP3    H127396   6.178   1.571   0.820 -0.0049  2.6920  0.0114
 9151TIP3    H227397   6.236   1.680   0.907  1.3635 -0.1587  2.7773
 9152TIP3   OH227398   1.058   0.342   5.527  0.1093 -0.1225  0.2641
 9152TIP3    H127399   1.064   0.304   5.439  1.0713  2.6176 -0.9053
 9152TIP3    H227400   1.145   0.379   5.542 -0.4775  0.6208  1.8338
 9153TIP3   OH227401   3.979   1.035   4.971 -0.5378  0.2371 -0.2949
 9153TIP3    H127402   4.058   1.068   4.928 -0.6842  1.8936  0.6645
 9153TIP3    H227403   3.998   1.042   5.065 -1.2454 -0.8225 -0.0633
 9154TIP3   OH227404   2.436   6.060   3.343  0.3423  0.4479  0.0312
 9154TIP3    H127405   2.482   6.056   3.427 -1.3989 -1.8515  0.9091
 9154TIP3    H227406   2.503   6.090   3.281  1.6403  2.2257  2.2060
 9155TIP3   OH227407   1.366   6.879   2.223  0.1503 -0.4657 -0.3045
 9155TIP3    H127408   1.313   6.800   2.217  0.2315 -0.7026  1.7047
 9155TIP3    H227409   1.303   6.951   2.219 -0.0635 -0.6648 -0.5527
 9156TIP3   OH227410   6.442   0.396   3.131 -0.2602  0.2167  0.3892
 9156TIP3    H127411   6.352   0.385   3.099 -0.4556  2.2427  0.1299
 9156TIP3    H227412   6.432   0.406   3.226 -0.5726  2.5982  0.1435
 9157TIP3   OH227413   1.932   7.390   6.884 -0.4283 -0.1436  0.3483
 9157TIP3    H127414   1.837   7.379   6.872 -0.6053  0.8382  0.7548
 9157TIP3    H227415   1.945   7.384   6.978 -0.1922  0.4928  0.3588
 9158TIP3   OH227416   4.531   1.067   4.767 -0.3497  0.2730  0.0329
 9158TIP3    H127417   4.510   0.974   4.757 -1.6086  0.5569 -0.0332
 9158TIP3    H227418   4.611   1.079   4.715 -0.7528 -0.5577 -0.7940
 9159TIP3   OH227419   8.177   6.815   5.721  0.1028 -0.1988  0.1741
 9159TIP3    H127420   8.109   6.782   5.663  0.2643  1.8084 -1.2129
 9159TIP3    H227421   8.259   6.784   5.683  0.2516  1.6870 -1.1029
 9160TIP3   OH227422   3.968   7.773   6.525  0.3280  0.3764 -0.1043
 9160TIP3    H127423   3.957   7.770   6.620 -0.1558 -0.3088 -0.1787
 9160TIP3    H227424   4.048   7.823   6.512  1.2678 -0.8649  0.7317
 9161TIP3   OH227425   1.805   6.940   4.465  0.0856  0.3752  0.3295
 9161TIP3    H127426   1.762   6.979   4.389  0.0882  0.1617  0.2187
 9161TIP3    H227427   1.880   6.892   4.428 -0.5985 -0.7248  0.3421
 9162TIP3   OH227428   0.790   6.756   5.411 -0.0725 -0.1798  0.0535
 9162TIP3    H127429   0.697   6.744   5.427 -0.3226  0.4587 -0.8715
 9162TIP3    H227430   0.795   6.831   5.351  1.0435 -0.0554  0.2792
 9163TIP3   OH227431   4.453   1.839   5.917  0.0647  0.9608 -0.3221
 9163TIP3    H127432   4.476   1.850   5.824  2.6777 -0.2883  0.1183
 9163TIP3    H227433   4.396   1.762   5.918  2.0100 -0.5186 -0.6563
 9164TIP3   OH227434   6.098   1.010   3.912 -0.3384 -0.0945 -0.0232
 9164TIP3    H127435   6.005   1.027   3.897 -0.4248 -0.7436 -0.2778
 9164TIP3    H227436   6.116   0.934   3.857  0.6948  0.9150 -1.0983
 9165TIP3   OH227437   1.480   6.834   4.412  0.5895  0.0016 -0.7104
 9165TIP3    H127438   1.425   6.901   4.371 -1.9952 -2.3367 -1.1988
 9165TIP3    H227439   1.570   6.862   4.394 -0.4515  1.2926 -4.2802
 9166TIP3   OH227440   1.503   7.172   5.231 -0.2101  0.3148  0.0704
 9166TIP3    H127441   1.424   7.160   5.284 -0.0085  0.9237  0.5211
 9166TIP3    H227442   1.506   7.267   5.215  1.0665  0.4378  1.0326
 9167TIP3   OH227443   1.734   6.099   5.255  0.2008 -0.0797 -0.3211
 9167TIP3    H127444   1.807   6.085   5.194  1.1460  0.0536  0.7778
 9167TIP3    H227445   1.769   6.155   5.323 -0.8635 -0.2093  0.3496
 9168TIP3   OH227446   2.473   5.478   6.583 -0.5349  0.2014  0.5726
 9168TIP3    H127447   2.442   5.397   6.622 -0.4252  1.1923  2.7730
 9168TIP3    H227448   2.564   5.485   6.609 -0.5307  1.0025  0.3738
 9169TIP3   OH227449   0.854   5.680   4.922  0.3501 -0.7408 -0.1174
 9169TIP3    H127450   0.887   5.604   4.969 -1.7446 -1.1860  0.7263
 9169TIP3    H227451   0.766   5.654   4.893 -0.5252  1.4384  0.4375
 9170TIP3   OH227452   0.571   7.268   5.232  0.0231  0.3795 -0.0404
 9170TIP3    H127453   0.579   7.362   5.249  1.3102  0.0922  1.0646
 9170TIP3    H227454   0.661   7.238   5.224 -0.4040 -0.6633 -0.9744
 9171TIP3   OH227455   0.193   6.727   4.076 -0.2039 -0.5268  0.0367
 9171TIP3    H127456   0.137   6.799   4.105  1.1711  1.2101 -1.5380
 9171TIP3    H227457   0.269   6.730   4.134 -1.1349 -2.1259  1.3887
 9172TIP3   OH227458   1.088   6.710   5.035 -0.1982 -0.1009  0.5776
 9172TIP3    H127459   1.057   6.630   5.079  1.7160 -0.6999  0.8580
 9172TIP3    H227460   1.157   6.743   5.091 -2.0775  2.7241  1.3246
 9173TIP3   OH227461   2.054   6.223   3.908  0.0292  0.1137 -0.0935
 9173TIP3    H127462   2.144   6.234   3.878  0.1928  2.4384  1.1095
 9173TIP3    H227463   2.059   6.152   3.971  0.9527 -0.0815 -0.3722
 9174TIP3   OH227464   0.590   6.493   3.626  0.7034  1.0773  0.4368
 9174TIP3    H127465   0.555   6.459   3.708  0.6864 -1.8983 -0.7402
 9174TIP3    H227466   0.513   6.527   3.580  0.4367  1.0769  0.8740
 9175TIP3   OH227467   0.737   7.934   4.670 -0.1126  0.4720  0.4724
 9175TIP3    H127468   0.658   7.984   4.690  1.0994  2.2489  0.9880
 9175TIP3    H227469   0.753   7.949   4.577  0.5216  1.4561  0.7367
 9176TIP3   OH227470   0.550   6.445   3.907 -0.3861 -0.6085 -0.3520
 9176TIP3    H127471   0.464   6.486   3.920  0.4177  0.9310  0.2418
 9176TIP3    H227472   0.547   6.365   3.959 -1.5210 -0.6354 -0.4553
 9177TIP3   OH227473   1.337   5.859   3.508  0.4349 -0.1085  0.4016
 9177TIP3    H127474   1.379   5.911   3.577 -0.5669 -0.5577  1.3522
 9177TIP3    H227475   1.288   5.922   3.456  2.0312  0.3848 -0.5512
 9178TIP3   OH227476   1.539   6.461   4.791  0.1888 -0.3056  0.6220
 9178TIP3    H127477   1.614   6.459   4.731 -1.3851 -0.9389 -1.3785
 9178TIP3    H227478   1.513   6.553   4.793 -0.1680 -0.3862 -0.2040
 9179TIP3   OH227479   1.881   7.450   5.495  0.1677  0.6089 -0.4013
 9179TIP3    H127480   1.917   7.491   5.574 -0.2547  0.2400 -0.0149
 9179TIP3    H227481   1.829   7.376   5.528  2.4051 -1.3580 -1.1914
 9180TIP3   OH227482   8.362   2.966   0.058 -0.0225  0.0557  0.2951
 9180TIP3    H127483   8.272   2.987   0.032  0.3476 -0.7613 -1.6982
 9180TIP3    H227484   8.372   3.008   0.143 -1.6052  1.9320 -0.4093
 9181TIP3   OH227485   0.836   6.097   5.549 -0.1254  0.1474 -0.2444
 9181TIP3    H127486   0.750   6.056   5.543 -0.8047  1.5895 -0.5758
 9181TIP3    H227487   0.817   6.190   5.562  1.3839  0.2017  1.7124
 9182TIP3   OH227488   5.569   0.154   1.363  0.0201  0.4917 -0.1164
 9182TIP3    H127489   5.658   0.125   1.382  0.4606  1.1636 -1.1182
 9182TIP3    H227490   5.522   0.073   1.341  0.1875  0.0476  1.1262
 9183TIP3   OH227491   5.404   0.772   4.557  0.3753  0.5672  0.3030
 9183TIP3    H127492   5.332   0.722   4.520 -0.8554  0.7845  2.3074
 9183TIP3    H227493   5.454   0.802   4.482 -0.6371 -1.0492 -1.0464
 9184TIP3   OH227494   0.990   7.155   3.217  0.0463  0.2743 -0.3432
 9184TIP3    H127495   1.000   7.074   3.167  0.2516 -0.4908  0.9286
 9184TIP3    H227496   0.970   7.222   3.150 -0.0522 -0.7949 -1.4021
 9185TIP3   OH227497   4.620   7.072   4.591 -0.2022 -0.3997 -0.4658
 9185TIP3    H127498   4.553   7.039   4.650  0.3544 -0.5341  0.1023
 9185TIP3    H227499   4.696   7.089   4.647  0.7115 -1.5871 -1.2979
 9186TIP3   OH227500   3.883   7.877   1.535  0.3248 -0.1077 -0.5894
 9186TIP3    H127501   3.808   7.935   1.519  1.1083  1.5713  1.5362
 9186TIP3    H227502   3.959   7.933   1.521  1.1890 -1.5365 -1.7427
 9187TIP3   OH227503   1.764   7.021   2.778 -0.1734 -0.0230  0.7057
 9187TIP3    H127504   1.773   7.033   2.872  2.1166 -0.5053  0.5766
 9187TIP3    H227505   1.823   7.086   2.739 -1.1831  0.2490 -0.3950
 9188TIP3   OH227506   0.855   7.659   2.940  0.1307  0.1979 -0.2745
 9188TIP3    H127507   0.815   7.588   2.990  0.2458  1.3238  1.4373
 9188TIP3    H227508   0.784   7.693   2.886 -0.0143 -0.9718 -0.8289
 9189TIP3   OH227509   7.001   2.516   2.776 -0.4901 -0.7006 -0.1905
 9189TIP3    H127510   6.967   2.589   2.829 -0.8350 -1.2437  0.3523
 9189TIP3    H227511   7.096   2.527   2.779 -0.5310 -0.3697  0.0315
 9190TIP3   OH227512   3.834   7.913   2.688  0.2807 -0.2497 -0.4556
 9190TIP3    H127513   3.748   7.953   2.672 -0.0939 -0.8984 -0.0552
 9190TIP3    H227514   3.867   7.894   2.600  0.6765  1.3745 -0.6797
 9191TIP3   OH227515   1.445   7.563   4.404 -0.1626 -0.1390 -0.2419
 9191TIP3    H127516   1.398   7.587   4.324  1.8510  2.2273 -0.7623
 9191TIP3    H227517   1.452   7.467   4.399 -1.4256 -0.1757 -2.0962
 9192TIP3   OH227518   1.354   5.346   3.466  0.2317  0.9150  0.1071
 9192TIP3    H127519   1.297   5.371   3.394 -0.0347  0.2222  0.0743
 9192TIP3    H227520   1.396   5.265   3.438  0.4052  0.8351  0.5803
 9193TIP3   OH227521   4.804   1.514   2.900  0.5045 -0.1778 -0.5568
 9193TIP3    H127522   4.713   1.527   2.876  0.3709 -0.2193 -0.0865
 9193TIP3    H227523   4.803   1.437   2.957  0.5649  0.9249  0.9910
 9194TIP3   OH227524   4.299   0.232   6.403 -0.1465 -0.9678 -0.0176
 9194TIP3    H127525   4.227   0.255   6.344 -0.9890 -1.9773  0.5820
 9194TIP3    H227526   4.299   0.137   6.405  0.2285 -0.9600  1.1506
 9195TIP3   OH227527   5.825   0.815   3.049 -0.1065 -0.7534 -0.0362
 9195TIP3    H127528   5.842   0.869   3.127 -2.1863 -0.3932  0.1884
 9195TIP3    H227529   5.781   0.737   3.083 -1.4013 -0.4092 -0.8887
 9196TIP3   OH227530   5.446   7.170   0.529  0.2781 -0.6429  0.1184
 9196TIP3    H127531   5.357   7.201   0.514  0.9216  0.7654 -0.9196
 9196TIP3    H227532   5.468   7.200   0.617  0.3460  0.5294 -0.2970
 9197TIP3   OH227533   6.844   0.549   6.284  0.8617 -0.5195  0.4642
 9197TIP3    H127534   6.768   0.558   6.341  1.3657 -1.9943  1.4071
 9197TIP3    H227535   6.843   0.457   6.258  1.0481 -0.0326 -1.3359
 9198TIP3   OH227536   6.399   7.101   4.538  0.7071  0.8710 -0.1403
 9198TIP3    H127537   6.343   7.178   4.528 -0.5885 -0.3607 -2.9130
 9198TIP3    H227538   6.347   7.039   4.588  0.8662  0.9224  0.0927
 9199TIP3   OH227539   4.124   6.619   2.825  0.1669  0.3672 -0.2859
 9199TIP3    H127540   4.041   6.586   2.859 -0.6999 -1.5364 -3.9333
 9199TIP3    H227541   4.191   6.568   2.871 -0.7588  0.2637  0.9831
 9200TIP3   OH227542   3.278   6.101   2.949 -0.1214 -0.0625 -0.4678
 9200TIP3    H127543   3.306   6.106   3.041  0.6315 -2.5705 -0.5121
 9200TIP3    H227544   3.202   6.044   2.950 -1.0326  1.1217 -1.2406
 9201TIP3   OH227545   2.169   7.756   2.473 -0.2428 -0.0180 -0.1580
 9201TIP3    H127546   2.183   7.850   2.481 -3.2147  0.4628  0.1646
 9201TIP3    H227547   2.140   7.743   2.383 -2.3818 -0.2099  0.5252
 9202TIP3   OH227548   4.348   1.056   3.122 -0.0638 -0.3930 -0.0743
 9202TIP3    H127549   4.418   0.993   3.105 -1.4190 -1.6525 -1.0995
 9202TIP3    H227550   4.291   1.012   3.185  0.2797  0.7971  1.0919
 9203TIP3   OH227551   1.676   8.017   3.909 -0.0229  0.1342 -0.4946
 9203TIP3    H127552   1.600   7.979   3.952 -0.8267  1.2908 -0.8727
 9203TIP3    H227553   1.744   8.015   3.977  0.2779 -2.8604 -0.8201
 9204TIP3   OH227554   1.953   6.238   5.091 -0.5071  0.0388  0.3214
 9204TIP3    H127555   1.979   6.277   5.174  1.4227 -0.4069 -0.0431
 9204TIP3    H227556   1.914   6.309   5.041  1.0071  1.0146  0.4945
 9205TIP3   OH227557   0.657   6.766   4.779 -0.2057 -0.1419 -0.6422
 9205TIP3    H127558   0.662   6.856   4.747  0.6346  0.2593  0.5495
 9205TIP3    H227559   0.595   6.770   4.852 -1.4419 -0.8669 -1.6447
 9206TIP3   OH227560   7.806   0.548   1.293  0.6010  0.9599  0.2035
 9206TIP3    H127561   7.791   0.472   1.236  0.3359  2.4364 -1.7049
 9206TIP3    H227562   7.899   0.544   1.314  0.4352 -0.3301  0.7572
 9207TIP3   OH227563   4.379   7.111   3.258  0.6277  0.6221 -0.6871
 9207TIP3    H127564   4.379   7.198   3.298  0.2744  1.1037 -1.7353
 9207TIP3    H227565   4.317   7.061   3.311 -0.2039  1.3936 -0.9161
 9208TIP3   OH227566   8.153   4.139   6.847 -0.3068 -0.2719 -0.0671
 9208TIP3    H127567   8.074   4.166   6.895  0.2496  1.5581 -0.1520
 9208TIP3    H227568   8.142   4.176   6.760  1.6181  1.8236  0.5484
 9209TIP3   OH227569   2.139   7.840   2.154 -0.1825 -0.1516 -0.1203
 9209TIP3    H127570   2.084   7.782   2.100  1.3570 -0.3030 -1.5641
 9209TIP3    H227571   2.077   7.883   2.213 -1.7962 -0.6917 -1.3724
 9210TIP3   OH227572   0.633   1.340   4.447  0.1346 -0.2516 -0.1594
 9210TIP3    H127573   0.591   1.425   4.465 -1.4433 -0.5606 -2.2358
 9210TIP3    H227574   0.566   1.276   4.470  1.8297 -1.0612  2.8052
 9211TIP3   OH227575   5.489   0.539   3.777  0.7255  0.4237 -0.0903
 9211TIP3    H127576   5.571   0.489   3.783 -0.4610 -1.8345 -2.2658
 9211TIP3    H227577   5.424   0.485   3.822 -0.1741  0.9127 -0.7885
 9212TIP3   OH227578   2.244   7.035   3.723  0.3242 -0.2107  0.2326
 9212TIP3    H127579   2.337   7.037   3.741  0.3645 -0.8498  0.0976
 9212TIP3    H227580   2.205   7.090   3.791  0.7739 -0.1096  0.4090
 9213TIP3   OH227581   7.862   2.590   2.790 -0.5642 -0.4797 -0.3164
 9213TIP3    H127582   7.932   2.648   2.759 -0.1670 -1.0430 -0.4722
 9213TIP3    H227583   7.872   2.511   2.737  0.3962 -1.6416  1.5539
 9214TIP3   OH227584   2.378   5.714   4.553  0.6789  0.3784 -0.2302
 9214TIP3    H127585   2.324   5.634   4.549 -0.4128  1.1454 -1.0884
 9214TIP3    H227586   2.371   5.752   4.466  2.3501  0.6843 -0.2479
 9215TIP3   OH227587   0.499   7.333   4.070  0.4193  0.2795  0.6531
 9215TIP3    H127588   0.435   7.275   4.111 -0.1619  0.3101 -0.1864
 9215TIP3    H227589   0.446   7.400   4.027  1.0390  0.5926  0.3723
 9216TIP3   OH227590   2.808   7.080   3.693 -0.4191 -0.3272 -0.2430
 9216TIP3    H127591   2.715   7.085   3.714 -0.8267 -2.7083 -1.4325
 9216TIP3    H227592   2.834   6.992   3.719  0.8750 -0.6146 -2.3892
 9217TIP3   OH227593   5.009   0.611   3.129  0.4481  1.0855 -0.1237
 9217TIP3    H127594   4.954   0.608   3.207  1.1745  0.4628  0.3787
 9217TIP3    H227595   4.987   0.532   3.080  0.5263  1.0979 -0.1809
 9218TIP3   OH227596   3.821   5.709   3.536 -0.3427 -0.1745  1.0868
 9218TIP3    H127597   3.892   5.738   3.478 -0.0437 -1.2574  0.8887
 9218TIP3    H227598   3.775   5.789   3.560  0.6707  0.4910  0.8435
 9219TIP3   OH227599   2.891   0.166   1.906  0.2641  0.3547 -0.6181
 9219TIP3    H127600   2.886   0.083   1.860  2.9641  0.2201 -0.7663
 9219TIP3    H227601   2.866   0.232   1.841 -1.5319 -0.3028 -0.5975
 9220TIP3   OH227602   1.856   7.371   3.107  0.3157 -0.1448  0.7299
 9220TIP3    H127603   1.782   7.426   3.081 -0.7187 -1.0695  1.6488
 9220TIP3    H227604   1.932   7.414   3.068 -0.7439  0.5895 -0.6052
 9221TIP3   OH227605   3.357   7.381   6.546 -0.2704  0.2713  0.3470
 9221TIP3    H127606   3.277   7.346   6.584 -0.8478  1.7605  0.5189
 9221TIP3    H227607   3.428   7.332   6.589 -0.8893  2.0032  3.4466
 9222TIP3   OH227608   5.450   0.461   3.086 -0.3633  0.3841  0.3861
 9222TIP3    H127609   5.420   0.446   3.175 -0.8314 -1.6163 -0.0823
 9222TIP3    H227610   5.412   0.389   3.035  1.5524  0.3350 -1.0454
 9223TIP3   OH227611   6.320   0.094   6.283  0.3197 -0.2792 -0.3980
 9223TIP3    H127612   6.402   0.124   6.243 -0.0022  0.1375 -0.7344
 9223TIP3    H227613   6.322  -0.001   6.272  0.8809 -0.3003 -0.1711
 9224TIP3   OH227614   4.762   7.360   3.592  0.2080  0.1561  0.1830
 9224TIP3    H127615   4.697   7.403   3.648 -0.9085 -2.4829  1.0279
 9224TIP3    H227616   4.719   7.355   3.506  1.1042  2.3670 -0.4291
 9225TIP3   OH227617   3.617   5.976   3.523  0.2391  0.2571  0.7305
 9225TIP3    H127618   3.609   6.003   3.431  0.7667 -0.5380  0.4455
 9225TIP3    H227619   3.700   6.014   3.551 -0.5609  1.6191  1.2746
 9226TIP3   OH227620   3.233   6.265   2.174 -0.4111  0.8697 -0.3473
 9226TIP3    H127621   3.295   6.329   2.209 -1.0123  1.7490 -0.8332
 9226TIP3    H227622   3.198   6.221   2.252  0.2716  0.8886 -0.0266
 9227TIP3   OH227623   0.801   6.544   4.007  0.1214  0.3042  1.1488
 9227TIP3    H127624   0.718   6.517   3.967  0.1044 -0.1559  1.4911
 9227TIP3    H227625   0.842   6.463   4.035  0.9628  0.4840  0.4664
 9228TIP3   OH227626   2.926   6.960   2.409  0.3314  0.0527  0.1881
 9228TIP3    H127627   2.879   7.038   2.439 -0.1627 -0.7721  1.5989
 9228TIP3    H227628   3.018   6.983   2.418  0.1883  0.2922  1.1003
 9229TIP3   OH227629   7.699   1.114   4.413  0.0857 -0.2856  0.3778
 9229TIP3    H127630   7.765   1.156   4.357 -0.7228 -0.5612 -0.8041
 9229TIP3    H227631   7.744   1.097   4.495  1.0271  1.0111  0.1502
 9230TIP3   OH227632   7.426   1.147   5.105  0.1735  0.5900  0.5139
 9230TIP3    H127633   7.378   1.096   5.039 -0.2694  1.2420  0.3265
 9230TIP3    H227634   7.518   1.125   5.089  0.0051  0.0192  0.2931
 9231TIP3   OH227635   3.542   6.030   3.250  0.3199 -0.2434  0.0286
 9231TIP3    H127636   3.551   6.037   3.154 -0.3026  1.3118  0.0691
 9231TIP3    H227637   3.449   6.043   3.266  0.5425  0.2651  0.9173
 9232TIP3   OH227638   1.728   7.668   4.533 -0.0573 -0.1603 -0.2314
 9232TIP3    H127639   1.670   7.600   4.497 -0.8617  0.1758  0.3943
 9232TIP3    H227640   1.669   7.741   4.553  0.6582  0.3551 -0.0013
 9233TIP3   OH227641   2.618   6.138   2.958  0.7521 -0.2284 -0.3347
 9233TIP3    H127642   2.642   6.219   2.912 -1.0796  0.2138 -0.5821
 9233TIP3    H227643   2.530   6.157   2.993  1.1112 -1.4330  1.2504
 9234TIP3   OH227644   2.227   7.106   4.638  0.4026  0.0418 -0.1283
 9234TIP3    H127645   2.203   7.038   4.575 -0.2443 -0.0887  0.2507
 9234TIP3    H227646   2.281   7.061   4.702  2.0691  0.4322 -1.2291
 9235TIP3   OH227647   3.099   6.345   3.163  0.0813 -0.2594 -0.2299
 9235TIP3    H127648   3.091   6.374   3.072 -1.1858 -1.4804 -0.5162
 9235TIP3    H227649   3.016   6.369   3.203 -0.1245 -1.5204  0.0999
 9236TIP3   OH227650   3.144   7.675   5.494  0.2716 -0.3158 -0.2265
 9236TIP3    H127651   3.235   7.660   5.518 -0.1457 -0.3842  1.4282
 9236TIP3    H227652   3.144   7.680   5.399  1.9685 -0.5098 -0.2503
 9237TIP3   OH227653   5.387   0.746   2.694  0.2784 -0.3700  0.1667
 9237TIP3    H127654   5.335   0.687   2.749  0.3897  0.9812  1.7890
 9237TIP3    H227655   5.453   0.690   2.654 -2.0551 -2.0055 -1.4817
 9238TIP3   OH227656   5.728   0.129   2.669 -0.3464 -0.2849  0.1363
 9238TIP3    H127657   5.724   0.041   2.632 -0.1231 -0.2364 -0.0047
 9238TIP3    H227658   5.725   0.187   2.593  1.2435 -0.2090  0.1041
 9239TIP3   OH227659   4.259   7.442   0.824  0.0871 -0.0781  0.0317
 9239TIP3    H127660   4.187   7.383   0.849 -0.8048  0.3165 -1.5283
 9239TIP3    H227661   4.230   7.528   0.852 -0.1352  0.1091 -0.7726
 9240TIP3   OH227662   1.327   7.593   2.289 -0.6972 -0.0080  0.1291
 9240TIP3    H127663   1.272   7.515   2.293  0.8726 -1.1090  0.6028
 9240TIP3    H227664   1.360   7.595   2.199  0.2948 -0.6280  0.4703
 9241TIP3   OH227665   6.392   0.913   1.336 -0.5996 -0.1980  0.4324
 9241TIP3    H127666   6.349   0.890   1.254  0.7149  0.4963 -0.4712
 9241TIP3    H227667   6.475   0.952   1.309  0.0601 -0.4187  2.1082
 9242TIP3   OH227668   6.854   0.282   6.591 -0.3348  0.0833 -0.3059
 9242TIP3    H127669   6.770   0.322   6.614 -0.5087 -1.2320  1.4153
 9242TIP3    H227670   6.846   0.261   6.498 -3.0740 -2.7706  0.4916
 9243TIP3   OH227671   5.956   0.029   2.795  0.5489 -0.8485  0.2132
 9243TIP3    H127672   5.883   0.086   2.771  1.4152  0.4129  0.5134
 9243TIP3    H227673   5.928  -0.059   2.769 -1.0893 -0.3905  0.3652
 9244TIP3   OH227674   2.285   4.929   4.395 -0.6231 -0.4800  0.1922
 9244TIP3    H127675   2.291   4.924   4.299  1.4942  2.3314  0.1099
 9244TIP3    H227676   2.206   4.980   4.412 -0.1128  0.4305 -0.1301
 9245TIP3   OH227677   4.127   5.839   4.186  0.1464  0.0392  0.6361
 9245TIP3    H127678   4.150   5.822   4.095  2.0113 -1.0360  1.2681
 9245TIP3    H227679   4.076   5.919   4.184  0.2261  0.0559 -1.3434
 9246TIP3   OH227680   6.415  -0.016   3.814 -0.3666  0.1693  0.0794
 9246TIP3    H127681   6.478  -0.052   3.752  0.1984 -0.5389  1.0520
 9246TIP3    H227682   6.446   0.073   3.831 -0.3629  0.2659 -0.4183
 9247TIP3   OH227683   5.797   0.884   2.799  0.1648  0.9955  0.7079
 9247TIP3    H127684   5.709   0.875   2.764  0.6360 -0.1932 -0.2145
 9247TIP3    H227685   5.793   0.842   2.885  0.2915 -0.8461 -0.1531
 9248TIP3   OH227686   4.376   0.045   1.446  0.2311  0.1256  0.3102
 9248TIP3    H127687   4.284   0.070   1.458  0.2790  0.1829  0.5521
 9248TIP3    H227688   4.375  -0.051   1.452 -0.0612  0.0082 -1.3354
 9249TIP3   OH227689   5.090   0.277   5.062 -0.4372  0.4173  0.2569
 9249TIP3    H127690   5.135   0.243   5.140 -2.4537 -1.7813  0.5162
 9249TIP3    H227691   5.139   0.240   4.988  0.6186  1.3452  0.4854
 9250TIP3   OH227692   7.680   0.058   4.727 -0.2797 -0.4560 -0.0450
 9250TIP3    H127693   7.700   0.017   4.811 -0.3232  0.7850  0.5761
 9250TIP3    H227694   7.750   0.027   4.668 -0.2869 -1.3733  0.4225
 9251TIP3   OH227695   1.948   5.737   3.449  0.2273  0.1872 -0.1636
 9251TIP3    H127696   2.003   5.735   3.370 -1.1218 -2.0148 -1.0969
 9251TIP3    H227697   1.926   5.645   3.465  0.3045  0.6276  2.6775
 9252TIP3   OH227698   5.483   1.106   4.784  0.6418 -0.0025 -0.6703
 9252TIP3    H127699   5.407   1.048   4.796  1.3878 -0.9213 -0.3042
 9252TIP3    H227700   5.550   1.068   4.840  1.1946  1.1455 -0.5527
 9253TIP3   OH227701   2.125   6.915   4.068  0.4405  0.1330  0.5125
 9253TIP3    H127702   2.177   6.877   3.997 -0.7960 -0.9422  0.1626
 9253TIP3    H227703   2.127   6.847   4.137  0.8318  0.7689  1.1398
 9254TIP3   OH227704   7.131   0.757   4.566 -0.8969  1.1038 -0.1922
 9254TIP3    H127705   7.093   0.768   4.479  1.1901  2.4683 -0.9653
 9254TIP3    H227706   7.097   0.831   4.616  1.6649  3.0656 -1.2512
 9255TIP3   OH227707   4.701   5.592   0.997 -0.2416  0.7694 -0.0418
 9255TIP3    H127708   4.675   5.681   0.973 -0.8482  0.1422 -1.8131
 9255TIP3    H227709   4.687   5.588   1.092 -1.4318  2.1673 -0.1301
 9256TIP3   OH227710   0.854   2.417   4.518  0.3242  0.0103 -0.5577
 9256TIP3    H127711   0.934   2.393   4.565  0.6717  0.7891 -0.7499
 9256TIP3    H227712   0.854   2.512   4.517  0.2487  0.0128 -2.0055
 9257TIP3   OH227713   5.238   6.559   2.018 -0.1790 -0.0135 -0.1605
 9257TIP3    H127714   5.327   6.524   2.011 -0.5085 -0.8824 -0.1234
 9257TIP3    H227715   5.187   6.507   1.956 -0.2086  2.0517 -1.9370
 9258TIP3   OH227716   1.959   6.460   3.995 -0.0273 -0.1842 -0.1036
 9258TIP3    H127717   1.960   6.369   3.967 -1.3144 -0.2912  0.1371
 9258TIP3    H227718   2.030   6.502   3.946  1.1240 -1.4839  0.4304
 9259TIP3   OH227719   6.327   1.049   2.931  0.4740 -0.3030  0.0356
 9259TIP3    H127720   6.401   0.989   2.916  0.6388 -0.1537  0.2616
 9259TIP3    H227721   6.304   1.037   3.023  0.7009  0.2044  0.1557
 9260TIP3   OH227722   5.904   7.519   5.392 -0.3314 -0.1929 -0.3036
 9260TIP3    H127723   5.900   7.448   5.455 -0.7242 -1.2960 -1.5401
 9260TIP3    H227724   5.815   7.555   5.390 -0.8053 -1.3898 -1.5885
 9261TIP3   OH227725   2.208   7.116   2.793  0.0291  0.0653  0.0817
 9261TIP3    H127726   2.114   7.126   2.778  0.0077 -0.5146 -0.1739
 9261TIP3    H227727   2.249   7.161   2.719 -0.0264  1.5945  0.9565
 9262TIP3   OH227728   4.916   0.467   4.228 -0.0438  0.7587  0.2290
 9262TIP3    H127729   4.936   0.533   4.294 -1.8878  0.5506  1.0280
 9262TIP3    H227730   4.822   0.452   4.236  0.2355 -1.5435 -0.3413
 9263TIP3   OH227731   6.964   7.358   4.651 -0.2687 -0.4235 -0.1270
 9263TIP3    H127732   6.920   7.376   4.734 -2.7140  1.7418 -1.8363
 9263TIP3    H227733   7.057   7.373   4.670 -0.6463 -1.0569  2.4735
 9264TIP3   OH227734   4.896   0.351   3.096 -0.5355 -0.0191  0.1699
 9264TIP3    H127735   4.933   0.263   3.099  0.4206  0.3733  0.3164
 9264TIP3    H227736   4.856   0.364   3.181  0.0411 -0.0212  0.4465
 9265TIP3   OH227737   5.264   0.605   2.883 -0.0157  0.1576  1.1202
 9265TIP3    H127738   5.261   0.657   2.963  0.1452  0.6069  0.8361
 9265TIP3    H227739   5.273   0.515   2.914 -2.7909  0.0195  1.6981
 9266TIP3   OH227740   3.608   1.399   3.596 -0.4189  0.1996  0.3125
 9266TIP3    H127741   3.663   1.350   3.656  0.5590  1.1318  0.1905
 9266TIP3    H227742   3.571   1.332   3.538  0.0351 -0.5078  0.8273
 9267TIP3   OH227743   2.199   7.459   2.596 -0.3562 -0.3314 -0.1769
 9267TIP3    H127744   2.183   7.521   2.666 -0.6028  0.1561 -0.6649
 9267TIP3    H227745   2.136   7.482   2.528 -1.4316 -2.0236  0.2083
 9268TIP3   OH227746   6.762   1.001   2.648  0.0144 -0.2882 -0.1070
 9268TIP3    H127747   6.713   0.983   2.567  1.8505 -0.4445 -1.2129
 9268TIP3    H227748   6.738   0.930   2.707  0.0498 -1.2007 -1.1680
 9269TIP3   OH227749   6.226   1.044   3.192 -0.2334  0.3155  0.1466
 9269TIP3    H127750   6.142   1.002   3.211 -1.6692  1.9419 -2.2459
 9269TIP3    H227751   6.241   1.103   3.266 -2.9109  2.4724 -0.9399
 9270TIP3   OH227752   5.577   4.521   4.439 -0.2475  0.5024 -0.0654
 9270TIP3    H127753   5.509   4.509   4.373 -1.5008  0.9404  1.1058
 9270TIP3    H227754   5.529   4.548   4.518  1.0656 -1.2725  1.3895
 9271TIP3   OH227755   3.910   0.175   3.002 -0.0129 -0.2419  0.1282
 9271TIP3    H127756   3.882   0.263   2.978  1.2728 -0.4760 -2.3659
 9271TIP3    H227757   3.952   0.186   3.087 -1.7820  1.1671  0.8639
 9272TIP3   OH227758   5.632   0.421   4.539 -0.0908  0.0373 -0.2409
 9272TIP3    H127759   5.558   0.436   4.598 -1.2981  1.0927 -1.9485
 9272TIP3    H227760   5.702   0.477   4.573 -0.6099  0.2533  0.4689
 9273TIP3   OH227761   7.171   1.417   1.649  0.4649  0.3086 -0.2269
 9273TIP3    H127762   7.175   1.334   1.600 -1.4727  1.0686 -1.7340
 9273TIP3    H227763   7.260   1.452   1.643  0.3734  0.2167 -2.9786
 9274TIP3   OH227764   3.993  -0.005   2.446 -0.0222 -0.5504  0.2382
 9274TIP3    H127765   4.018  -0.058   2.522  0.4564 -0.4699  0.1404
 9274TIP3    H227766   4.002   0.086   2.476 -1.1754 -0.5201  0.5121
 9275TIP3   OH227767   1.610   7.627   4.100  0.4925  0.9031 -0.4345
 9275TIP3    H127768   1.575   7.557   4.046  2.7971 -1.2999  0.7958
 9275TIP3    H227769   1.567   7.707   4.068 -0.8000 -0.8042 -3.0971
 9276TIP3   OH227770   2.652   5.716   3.288  0.1607  0.1141  0.0350
 9276TIP3    H127771   2.709   5.676   3.223 -1.2076  0.4762 -1.4141
 9276TIP3    H227772   2.589   5.767   3.237  0.3248  2.0866  1.7206
 9277TIP3   OH227773   3.004   6.183   2.847  0.5635  0.4172 -0.3074
 9277TIP3    H127774   3.001   6.115   2.914  0.1257  2.6033  1.9630
 9277TIP3    H227775   3.060   6.147   2.778 -0.5066 -2.6234  0.3680
 9278TIP3   OH227776   1.389   6.701   0.018  0.3030  0.4187  0.3694
 9278TIP3    H127777   1.418   6.709   0.109 -1.1519  1.0256  0.7951
 9278TIP3    H227778   1.437   6.770  -0.028  1.1127  0.0522  0.6494
 9279TIP3   OH227779   5.866   1.036   5.323  0.4000  0.0860 -0.2198
 9279TIP3    H127780   5.840   1.019   5.414 -0.3315  2.0265 -0.0265
 9279TIP3    H227781   5.903   0.954   5.292 -0.9649 -1.1272  1.2805
 9280TIP3   OH227782   5.956   1.388   2.116  0.6463 -0.7582  0.5165
 9280TIP3    H127783   5.890   1.323   2.139  0.5477 -0.7297  0.3136
 9280TIP3    H227784   6.018   1.386   2.189 -0.1808  0.0189  1.2440
 9281TIP3   OH227785   7.124   2.384   5.088 -0.1658  0.0399 -0.1265
 9281TIP3    H127786   7.131   2.478   5.103  0.7622 -0.5180  3.5481
 9281TIP3    H227787   7.048   2.373   5.031  0.1099  3.0323 -1.1237
 9282TIP3   OH227788   6.712   0.024   6.455  0.1463  0.0091 -0.3175
 9282TIP3    H127789   6.644   0.082   6.490 -0.2443 -0.2809 -0.5923
 9282TIP3    H227790   6.785   0.082   6.434  0.1195  0.2728  0.3300
 9283TIP3   OH227791   3.675   0.623   2.879  0.5613 -0.1141  0.8213
 9283TIP3    H127792   3.603   0.685   2.875  1.4010  0.8821  0.9864
 9283TIP3    H227793   3.656   0.569   2.955 -1.1535 -1.3059 -0.4190
 9284TIP3   OH227794   3.052   0.707   4.263  0.1076 -0.1662 -0.5831
 9284TIP3    H127795   3.053   0.713   4.359  0.6312 -2.5559 -0.4194
 9284TIP3    H227796   3.122   0.766   4.235  1.3493 -1.0281  0.6209
 9285TIP3   OH227797   5.145   1.439   0.683  0.8091  0.5152  0.1808
 9285TIP3    H127798   5.182   1.489   0.756  0.0840 -1.1317  1.7132
 9285TIP3    H227799   5.071   1.391   0.721 -0.8227  1.1309 -2.0726
 9286TIP3   OH227800   2.792   7.373   3.725 -0.7692 -0.3372  0.6713
 9286TIP3    H127801   2.789   7.278   3.738 -1.3504 -0.6265 -1.2948
 9286TIP3    H227802   2.873   7.387   3.676 -1.3645 -0.0032 -0.2327
 9287TIP3   OH227803   6.991   0.345   3.582  0.2657  0.3933 -0.2282
 9287TIP3    H127804   6.984   0.415   3.517  3.3636  0.0783 -0.9674
 9287TIP3    H227805   6.960   0.385   3.663 -0.2518  1.8840 -1.1409
 9288TIP3   OH227806   4.337   5.854   3.457  0.0907  0.4047  0.3253
 9288TIP3    H127807   4.285   5.816   3.386  0.5053 -2.1586  1.3440
 9288TIP3    H227808   4.309   5.806   3.535  2.3496  0.5762  1.2633
 9289TIP3   OH227809   6.082   0.065   6.425 -0.0895  0.1701 -0.1807
 9289TIP3    H127810   6.075   0.150   6.469 -0.9537  0.2186 -0.4029
 9289TIP3    H227811   6.138   0.082   6.349  1.9370 -0.0467  1.2019
 9290TIP3   OH227812   3.665   8.022   4.240  0.2799  0.0358 -0.0391
 9290TIP3    H127813   3.740   7.971   4.272 -0.9170 -1.8461 -0.1736
 9290TIP3    H227814   3.641   7.980   4.157 -0.1660  1.3944 -0.6146
 9291TIP3   OH227815   6.223   0.943   4.655 -0.0384  0.5513  0.2215
 9291TIP3    H127816   6.191   0.953   4.744  1.0480 -1.8609  0.9215
 9291TIP3    H227817   6.144   0.937   4.602 -0.7171 -0.6934  1.3548
 9292TIP3   OH227818   6.870   0.563   4.645 -0.3165  0.0197 -0.0200
 9292TIP3    H127819   6.790   0.575   4.697 -1.0508  2.2165 -1.5418
 9292TIP3    H227820   6.926   0.636   4.671 -0.0432  0.2135 -1.1239
 9293TIP3   OH227821   2.262   7.621   4.090  0.3557  0.2173 -0.2747
 9293TIP3    H127822   2.213   7.673   4.153 -0.0963  0.9817 -1.2395
 9293TIP3    H227823   2.339   7.591   4.138 -0.2347  0.3669  0.7795
 9294TIP3   OH227824   3.462   7.298   3.916  0.1533  0.1413  0.2847
 9294TIP3    H127825   3.375   7.296   3.875  0.8354  0.1567 -1.2250
 9294TIP3    H227826   3.454   7.360   3.988 -1.7448 -1.7178  1.7300
 9295TIP3   OH227827   1.856   8.014   4.148 -0.0236  0.1691  0.7922
 9295TIP3    H127828   1.939   7.995   4.105 -0.2435 -0.0815  0.4793
 9295TIP3    H227829   1.847   7.946   4.214 -0.5041 -0.4404  0.0982
 9296TIP3   OH227830   4.541   6.352   5.393 -0.3018  0.5138  0.1491
 9296TIP3    H127831   4.624   6.339   5.438  0.4502  3.8912 -0.0750
 9296TIP3    H227832   4.475   6.315   5.453  1.1605 -0.0221  1.4606
 9297TIP3   OH227833   3.749   6.246   3.387 -0.4901  0.3907  0.6196
 9297TIP3    H127834   3.669   6.295   3.367 -0.6902 -0.6329 -1.1896
 9297TIP3    H227835   3.818   6.312   3.382 -0.9291  0.7965 -0.3908
 9298TIP3   OH227836   6.434   0.338   4.670 -0.6172  0.2988 -0.5558
 9298TIP3    H127837   6.366   0.341   4.737 -0.6088  1.2751 -0.5787
 9298TIP3    H227838   6.492   0.412   4.692  1.0300 -1.1316  0.0883
 9299TIP3   OH227839   3.521   7.665   3.501 -0.4444 -0.4620 -0.1799
 9299TIP3    H127840   3.544   7.664   3.408  0.7921  3.5100 -0.0090
 9299TIP3    H227841   3.605   7.659   3.547 -1.1421 -4.0846  0.7917
 9300TIP3   OH227842   3.000   6.895   5.102 -0.3456  0.0836  0.1850
 9300TIP3    H127843   2.984   6.817   5.155 -1.2575 -0.1050 -0.3591
 9300TIP3    H227844   3.039   6.958   5.163  0.8207 -0.9514  0.5193
 9301TIP3   OH227845   3.370   7.487   3.635  0.5185 -0.1309  0.4572
 9301TIP3    H127846   3.278   7.496   3.610  0.3721  0.8683  1.2904
 9301TIP3    H227847   3.414   7.558   3.589  0.6066  0.3712  1.3154
 9302TIP3   OH227848   6.503   0.233   3.894 -0.3584  0.2774  0.0629
 9302TIP3    H127849   6.574   0.198   3.947 -1.0887 -0.3283  0.6595
 9302TIP3    H227850   6.468   0.306   3.946  0.1156  0.8721 -0.4402
 9303TIP3   OH227851   5.532   7.888   3.584  0.1082 -0.2129  0.0989
 9303TIP3    H127852   5.571   7.882   3.672 -0.3019 -0.0063  0.2946
 9303TIP3    H227853   5.590   7.835   3.529  1.0059  0.5501  0.2794
 9304TIP3   OH227854   3.264   6.113   3.234 -0.3470 -0.3786 -0.3999
 9304TIP3    H127855   3.220   6.190   3.199 -2.7246 -1.9883 -1.0960
 9304TIP3    H227856   3.230   6.104   3.323  1.6005  0.6228  0.4591
 9305TIP3   OH227857   5.090   0.195   1.486 -0.2738 -0.0909 -0.1635
 9305TIP3    H127858   5.112   0.207   1.579 -0.8749 -2.9954  0.4203
 9305TIP3    H227859   5.175   0.192   1.442  0.2874 -2.8271  0.9334
 9306TIP3   OH227860   1.963   6.860   3.436  0.4556  0.4009  0.3002
 9306TIP3    H127861   2.013   6.870   3.517  0.2678 -1.2506  0.6380
 9306TIP3    H227862   2.026   6.824   3.374  0.0021 -0.5603  0.3892
 9307TIP3   OH227863   3.654   7.316   2.762  0.1628 -0.3394  0.2754
 9307TIP3    H127864   3.698   7.237   2.791 -1.9825 -0.3505  3.8364
 9307TIP3    H227865   3.683   7.384   2.823  0.4268  1.1838 -1.4930
 9308TIP3   OH227866   5.086   0.677   1.856  0.0243 -0.0887  1.0710
 9308TIP3    H127867   5.001   0.716   1.833 -0.0910  0.4036  2.2997
 9308TIP3    H227868   5.069   0.583   1.860 -0.0184 -0.1637 -0.5562
 9309TIP3   OH227869   2.665   7.742   3.458  1.1459 -0.5081 -0.0677
 9309TIP3    H127870   2.685   7.797   3.382  1.5564 -1.1063 -0.3906
 9309TIP3    H227871   2.728   7.770   3.525  0.5978  0.2197  0.1563
 9310TIP3   OH227872   6.108   1.024   1.746  0.4750 -0.2926 -0.2443
 9310TIP3    H127873   6.143   0.935   1.751 -0.2796 -0.6453 -1.0998
 9310TIP3    H227874   6.156   1.065   1.674  0.4081 -0.2086 -0.2416
 9311TIP3   OH227875   2.116   7.498   3.043 -0.2725  0.1085  0.3408
 9311TIP3    H127876   2.139   7.542   3.125 -1.8338 -0.3165  1.0173
 9311TIP3    H227877   2.198   7.459   3.014  0.4094  0.6748  1.4495
 9312TIP3   OH227878   6.201   0.515   1.647 -0.0990  0.6591  0.0657
 9312TIP3    H127879   6.191   0.452   1.575 -1.8747  0.5419  0.3803
 9312TIP3    H227880   6.247   0.467   1.715  0.4255  0.3600 -0.4940
 9313TIP3   OH227881   1.334   6.997   4.289  0.0455  0.0089  0.6185
 9313TIP3    H127882   1.283   7.023   4.212 -1.8597 -1.2276  1.4085
 9313TIP3    H227883   1.311   7.060   4.356 -0.7329 -0.7487  1.0773
 9314TIP3   OH227884   6.142   1.050   3.579 -0.2769 -0.2156  0.1370
 9314TIP3    H127885   6.222   1.081   3.621 -0.3556 -1.8873  1.6279
 9314TIP3    H227886   6.088   1.128   3.567  0.1528  0.4475  2.3453
 9315TIP3   OH227887   2.995   7.038   1.204 -0.2984  0.6466 -0.2130
 9315TIP3    H127888   3.037   7.051   1.289  1.9265  1.0966 -1.3432
 9315TIP3    H227889   2.954   7.122   1.184 -0.1593  0.7854  0.0869
 9316TIP3   OH227890   1.438   7.880   2.073  0.0268 -0.3748 -0.1303
 9316TIP3    H127891   1.434   7.904   1.980 -0.4162  0.6861  0.1512
 9316TIP3    H227892   1.347   7.883   2.102  0.1533 -0.8355  0.3064
 9317TIP3   OH227893   4.378   7.753   3.963  0.1194 -0.1336 -0.0737
 9317TIP3    H127894   4.293   7.717   3.938 -0.5580 -0.9910  3.2481
 9317TIP3    H227895   4.411   7.694   4.031  2.0644  1.7793  0.7386
 9318TIP3   OH227896   3.572   7.666   3.231  0.2719  0.2360 -0.1552
 9318TIP3    H127897   3.601   7.716   3.155  1.5330  0.4963  0.4883
 9318TIP3    H227898   3.579   7.575   3.203  0.6283  0.3356 -0.3942
 9319TIP3   OH227899   2.132   7.809   4.279  0.3313  0.1533  0.1527
 9319TIP3    H127900   2.065   7.808   4.347  1.0157  0.4893  0.8341
 9319TIP3    H227901   2.161   7.900   4.275  1.1998 -0.1118  0.3168
 9320TIP3   OH227902   2.755   7.174   2.498 -0.4370 -0.3247 -0.3948
 9320TIP3    H127903   2.700   7.124   2.559 -0.7291 -0.5727 -0.8544
 9320TIP3    H227904   2.693   7.208   2.433 -0.2198  0.5247 -0.1557
 9321TIP3   OH227905   2.795   7.842   4.289 -0.3330 -0.2367  0.2653
 9321TIP3    H127906   2.752   7.772   4.239 -0.9764  0.0700  0.3821
 9321TIP3    H227907   2.739   7.918   4.276  0.8203  0.4699 -0.5370
 9322TIP3   OH227908   5.287   0.724   3.132  0.3068  0.6015  0.1859
 9322TIP3    H127909   5.194   0.728   3.152  0.1112 -1.5191 -0.1819
 9322TIP3    H227910   5.323   0.661   3.194  1.2916  0.5644 -0.4033
 9323TIP3   OH227911   3.121   6.043   3.454 -0.0474 -0.2615 -0.9663
 9323TIP3    H127912   3.183   5.985   3.497 -1.0040 -0.6701 -0.1113
 9323TIP3    H227913   3.125   6.124   3.505  0.6596  0.1360 -1.6416
 9324TIP3   OH227914   1.525   6.966   3.127  0.0372  0.6881  0.0884
 9324TIP3    H127915   1.604   7.013   3.100 -0.3171  0.5412 -1.2203
 9324TIP3    H227916   1.528   6.884   3.076 -0.2524  0.0691  1.0511
 9325TIP3   OH227917   8.084   3.860   6.919 -0.0880 -0.3939 -0.7339
 9325TIP3    H127918   8.111   3.948   6.894  2.0869 -1.0592 -0.8915
 9325TIP3    H227919   8.081   3.812   6.836  3.4934 -1.6526 -0.2459
 9326TIP3   OH227920   3.593   7.790   2.945 -0.3088  0.6000  0.7176
 9326TIP3    H127921   3.515   7.782   2.890  0.6018  0.6141 -0.6227
 9326TIP3    H227922   3.592   7.881   2.975  1.4432  1.8952 -2.8495
 9327TIP3   OH227923   5.824   1.447   3.240  0.0962 -0.7209 -0.1794
 9327TIP3    H127924   5.841   1.539   3.225 -1.5193 -0.6614 -1.7783
 9327TIP3    H227925   5.839   1.405   3.156 -1.6177 -1.5299 -0.1041
 9328TIP3   OH227926   4.140   6.586   1.498  0.0643 -0.7139 -0.0368
 9328TIP3    H127927   4.207   6.517   1.501  1.5411  0.6650 -0.9081
 9328TIP3    H227928   4.061   6.543   1.532  1.2436 -2.5082  0.5336
 9329TIP3   OH227929   0.753   7.502   3.970  0.2808 -0.2142 -0.2019
 9329TIP3    H127930   0.695   7.426   3.977 -0.2363 -0.2148 -3.7770
 9329TIP3    H227931   0.699   7.576   3.999 -0.8069 -0.5199 -1.4290
 9330TIP3   OH227932   2.661   6.732   3.910 -0.6012 -0.5661  0.1822
 9330TIP3    H127933   2.636   6.699   3.997  0.8630  1.2835  1.3367
 9330TIP3    H227934   2.620   6.818   3.905  0.6294 -0.0043 -0.3118
 9331TIP3   OH227935   4.210   6.153   1.824 -0.5055 -0.1017 -0.2778
 9331TIP3    H127936   4.197   6.222   1.889 -1.3977  0.4294 -1.0029
 9331TIP3    H227937   4.186   6.072   1.870 -0.5607  0.1954  0.2230
 9332TIP3   OH227938   0.951   0.406   1.510 -0.1297 -0.0090  0.8052
 9332TIP3    H127939   0.920   0.496   1.519 -0.5480 -0.2616  1.9394
 9332TIP3    H227940   0.871   0.355   1.497  0.2427  0.0041 -1.8893
 9333TIP3   OH227941   7.385   6.816   2.758  0.1533  0.3010  0.0776
 9333TIP3    H127942   7.400   6.817   2.853 -0.0291  1.1503  0.0999
 9333TIP3    H227943   7.392   6.724   2.734 -2.7228 -0.3467  1.4121
 9334TIP3   OH227944   8.037   1.273   1.917  0.2976  0.1709  0.4564
 9334TIP3    H127945   8.085   1.263   1.834  1.0534 -1.9337  1.1030
 9334TIP3    H227946   7.998   1.360   1.912  1.1388  0.4614 -1.6960
 9335TIP3   OH227947   0.050   0.255   3.485  0.1351 -0.1979 -0.2347
 9335TIP3    H127948  -0.039   0.240   3.515  0.3161  0.4827  0.6508
 9335TIP3    H227949   0.048   0.343   3.448  0.3390 -0.3443 -0.5951
 9336TIP3   OH227950   8.065   7.505   2.134 -0.2837  0.1082 -0.1468
 9336TIP3    H127951   8.079   7.561   2.058  1.5133  2.2724  1.7282
 9336TIP3    H227952   8.039   7.564   2.204 -0.0957 -1.6027  1.4194
 9337TIP3   OH227953   5.859   0.024   0.890  0.1910 -0.1367  0.2721
 9337TIP3    H127954   5.891   0.114   0.898 -0.0848 -0.1840  1.9715
 9337TIP3    H227955   5.935  -0.026   0.860  0.0817  0.8176 -1.6841
 9338TIP3   OH227956   7.379   0.386   2.291 -0.1854 -0.0603 -0.3127
 9338TIP3    H127957   7.468   0.364   2.318 -0.4939 -0.0281  0.7579
 9338TIP3    H227958   7.345   0.306   2.251  0.5703  0.1510 -1.4158
 9339TIP3   OH227959   0.514   0.138   1.612  0.4136 -0.1724 -0.1984
 9339TIP3    H127960   0.570   0.197   1.562  0.1822  0.0413 -0.2042
 9339TIP3    H227961   0.573   0.097   1.675  0.9869 -1.4147 -1.4947
 9340TIP3   OH227962   5.325   0.226   5.173  0.2475 -0.6341 -0.0520
 9340TIP3    H127963   5.354   0.310   5.138 -0.9445 -0.6122 -1.0399
 9340TIP3    H227964   5.402   0.189   5.215  1.6714 -0.5299 -2.5004
 9341TIP3   OH227965   1.901   0.465   3.163 -0.1435  0.0192  0.0492
 9341TIP3    H127966   1.908   0.550   3.207 -0.0755 -0.4977  1.0297
 9341TIP3    H227967   1.899   0.401   3.234  1.5979 -0.9264 -0.7296
 9342TIP3   OH227968   4.440   7.775   3.274 -0.2763  0.1703  0.1804
 9342TIP3    H127969   4.432   7.812   3.186  1.3415 -1.6449 -0.7784
 9342TIP3    H227970   4.357   7.731   3.290 -1.1619  1.7923  0.2179
 9343TIP3   OH227971   3.867   6.399   2.701  0.4351 -0.1179  0.5024
 9343TIP3    H127972   3.952   6.439   2.690  0.5148  0.3101  2.4859
 9343TIP3    H227973   3.886   6.306   2.719  0.4616 -0.1464  0.3240
 9344TIP3   OH227974   7.653   2.676   2.935  0.2757 -0.3030 -0.1293
 9344TIP3    H127975   7.629   2.585   2.953 -0.5986 -0.6495 -2.7949
 9344TIP3    H227976   7.739   2.671   2.895 -0.2180 -0.0709 -1.2441
 9345TIP3   OH227977   8.310   0.407   0.820  0.5182  0.1096 -0.0522
 9345TIP3    H127978   8.287   0.378   0.908  1.8797  2.7192  1.2359
 9345TIP3    H227979   8.337   0.328   0.774  1.0177 -1.1038  2.2797
 9346TIP3   OH227980   0.312   0.853   2.784  0.3416  0.2036  0.1256
 9346TIP3    H127981   0.304   0.774   2.731  0.7771 -0.4301  0.9934
 9346TIP3    H227982   0.309   0.822   2.874  1.0369  1.1209  0.4724
 9347TIP3   OH227983   7.630   4.341   5.451  0.1782 -0.6733 -0.3023
 9347TIP3    H127984   7.571   4.397   5.400 -1.7871 -2.4284  0.0308
 9347TIP3    H227985   7.605   4.356   5.542  1.8585  0.3575  0.0246
 9348TIP3   OH227986   7.628   0.200   2.020 -0.6320  0.1635 -0.2790
 9348TIP3    H127987   7.577   0.135   2.068  0.2993  0.1814  0.7571
 9348TIP3    H227988   7.590   0.284   2.044  0.3817  0.2425  1.1663
 9349TIP3   OH227989   6.251   1.120   4.278  0.0241  0.6369 -0.3005
 9349TIP3    H127990   6.299   1.184   4.225 -1.9440  0.1708 -2.7775
 9349TIP3    H227991   6.292   1.036   4.257 -1.0077  0.4020 -1.4354
 9350TIP3   OH227992   0.916   0.356   2.272 -0.3400  0.2220  0.1597
 9350TIP3    H127993   0.960   0.288   2.220  0.1339 -1.5746  2.8342
 9350TIP3    H227994   0.823   0.337   2.260 -0.2306 -0.3479  0.1837
 9351TIP3   OH227995   6.885   1.336   3.009  0.1554 -0.3302  0.4042
 9351TIP3    H127996   6.881   1.383   3.092  1.4966  1.8437 -0.7198
 9351TIP3    H227997   6.824   1.382   2.951  0.8147 -0.5029 -0.4436
 9352TIP3   OH227998   0.117   1.636   1.301 -0.0962  0.3500 -0.5862
 9352TIP3    H127999   0.069   1.706   1.256  0.1420  1.2990  0.6274
 9352TIP3    H228000   0.151   1.581   1.230 -0.3348  1.4321 -1.5451
 9353TIP3   OH228001   5.172   7.953   1.794  0.2546  0.0023 -0.0940
 9353TIP3    H128002   5.181   7.912   1.879 -0.7106  0.1194  0.0667
 9353TIP3    H228003   5.224   8.033   1.801  0.2469 -0.0301  0.3575
 9354TIP3   OH228004   6.008   5.377   0.498 -0.2377 -0.2045 -0.2408
 9354TIP3    H128005   5.996   5.471   0.509 -1.0933 -0.4783  1.4380
 9354TIP3    H228006   5.926   5.347   0.459  0.2494 -0.1709 -1.2826
 9355TIP3   OH228007   6.718   0.008   1.862  0.1765  0.3028 -0.5211
 9355TIP3    H128008   6.785   0.066   1.899 -0.0306  0.9691 -1.1871
 9355TIP3    H228009   6.737   0.007   1.768  0.3801 -0.9697 -0.4679
 9356TIP3   OH228010   1.340   2.013   1.939  0.2350  0.2276 -0.1219
 9356TIP3    H128011   1.364   2.021   1.847  1.8263 -1.6967  0.0910
 9356TIP3    H228012   1.355   1.920   1.960 -1.7416  0.2757  1.6196
 9357TIP3   OH228013   8.467   0.594   3.038 -0.5370  0.6126 -0.0607
 9357TIP3    H128014   8.392   0.641   3.074 -0.7108  0.0864  0.2760
 9357TIP3    H228015   8.439   0.502   3.036  0.1302  0.4001  0.1615
 9358TIP3   OH228016   0.128   1.467   2.197  0.2219 -0.2798  0.0709
 9358TIP3    H128017   0.137   1.426   2.283 -0.1638  0.6616  0.5656
 9358TIP3    H228018   0.191   1.421   2.142  1.1004 -0.3070  1.0723
 9359TIP3   OH228019   3.919   7.497   1.929  0.0392 -0.1228  0.0001
 9359TIP3    H128020   3.855   7.530   1.992 -1.1249  0.4871 -1.5071
 9359TIP3    H228021   3.928   7.404   1.952 -0.7184 -0.0147  0.7753
 9360TIP3   OH228022   7.302   6.920   3.380 -0.1614  0.2617 -0.3853
 9360TIP3    H128023   7.385   6.881   3.353  0.7079  0.1288  2.3575
 9360TIP3    H228024   7.236   6.853   3.362  0.5807 -0.3533 -0.8106
 9361TIP3   OH228025   6.713   6.619   4.798 -0.3994 -0.0758 -0.2180
 9361TIP3    H128026   6.764   6.685   4.751  0.7116 -1.3726 -0.8752
 9361TIP3    H228027   6.720   6.644   4.890 -1.5380  1.7642 -0.6151
 9362TIP3   OH228028   0.042   1.115   2.521 -0.3979  0.3403 -0.2231
 9362TIP3    H128029   0.043   1.023   2.494  0.1594  0.8175 -1.8677
 9362TIP3    H228030  -0.036   1.123   2.576 -0.4252 -1.1218 -0.0423
 9363TIP3   OH228031   7.980   1.159   2.379  0.1997 -0.1015  0.3820
 9363TIP3    H128032   8.047   1.189   2.318  0.1059 -0.2091  0.2249
 9363TIP3    H228033   7.901   1.209   2.356 -0.0467 -0.7066 -0.1001
 9364TIP3   OH228034   5.498   7.085   4.689 -0.6636 -0.6455  0.0113
 9364TIP3    H128035   5.538   7.171   4.673  0.9970 -1.2335  0.8900
 9364TIP3    H228036   5.424   7.082   4.629 -0.3521  1.1360 -0.5131
 9365TIP3   OH228037   4.934   7.641   6.307  0.0914 -0.1333 -0.0751
 9365TIP3    H128038   4.855   7.587   6.313  0.0730  0.0230  1.1426
 9365TIP3    H228039   4.906   7.719   6.257 -0.2144 -0.6210 -0.6741
 9366TIP3   OH228040   0.236   0.439   2.476 -0.2104  0.1046  0.0493
 9366TIP3    H128041   0.310   0.424   2.418 -0.3032  0.0720 -0.0599
 9366TIP3    H228042   0.196   0.520   2.444 -1.2804 -0.8197 -0.9931
 9367TIP3   OH228043   6.664   7.747   2.040  0.0907 -0.5601 -0.7216
 9367TIP3    H128044   6.752   7.721   2.066 -0.1834 -1.0221 -0.2288
 9367TIP3    H228045   6.638   7.681   1.975  0.0553 -0.5078 -0.7605
 9368TIP3   OH228046   7.716   0.550   3.032  0.3150  0.6599 -0.1957
 9368TIP3    H128047   7.624   0.555   3.059 -0.0326  0.7432 -1.3693
 9368TIP3    H228048   7.715   0.567   2.938  1.5953  1.2046 -0.1303
 9369TIP3   OH228049   5.486   5.785   0.740  0.2323  0.4932  0.0558
 9369TIP3    H128050   5.406   5.838   0.739  0.6621  1.2042  1.2658
 9369TIP3    H228051   5.515   5.782   0.649 -2.3715 -1.6372 -0.7347
 9370TIP3   OH228052   5.659   7.480   4.183 -0.3360 -0.5500 -0.0993
 9370TIP3    H128053   5.699   7.430   4.111 -0.7901  0.3763 -0.9963
 9370TIP3    H228054   5.723   7.474   4.254  0.3961 -0.9587 -0.7816
 9371TIP3   OH228055   1.428   1.492   3.101  0.5981  0.3748  0.2737
 9371TIP3    H128056   1.392   1.576   3.132  2.0699  1.2282 -0.2711
 9371TIP3    H228057   1.361   1.428   3.124 -0.4938  1.6773  0.8431
 9372TIP3   OH228058   6.066   1.335   3.388 -0.2383 -0.3199 -0.7018
 9372TIP3    H128059   6.131   1.370   3.327 -0.9437  0.8369 -0.8059
 9372TIP3    H228060   5.982   1.346   3.342 -0.5147 -1.8366 -0.5935
 9373TIP3   OH228061   6.720   6.814   1.772  0.2259 -0.4474 -0.5158
 9373TIP3    H128062   6.652   6.813   1.839  1.4573  1.2836  0.8255
 9373TIP3    H228063   6.682   6.863   1.699 -0.2824 -0.2585 -0.1213
 9374TIP3   OH228064   6.289   1.633   1.775 -0.1546  0.0845 -0.7094
 9374TIP3    H128065   6.272   1.567   1.843 -2.1213  0.8099 -0.4553
 9374TIP3    H228066   6.239   1.603   1.700  1.0886 -0.0969 -1.4783
 9375TIP3   OH228067   1.777   1.062   3.880 -0.5095 -0.4075 -0.0413
 9375TIP3    H128068   1.755   1.002   3.808  1.9749 -0.3999 -0.8384
 9375TIP3    H228069   1.856   1.025   3.919 -0.2982  1.0623  0.9712
 9376TIP3   OH228070   6.445   6.149   4.966  0.5879  0.4984  0.7649
 9376TIP3    H128071   6.415   6.065   4.929 -0.0165  1.2849 -0.5636
 9376TIP3    H228072   6.371   6.179   5.020  0.7117  0.3017  1.0477
 9377TIP3   OH228073   1.299   0.311   0.789 -0.4251  0.0143 -0.5574
 9377TIP3    H128074   1.354   0.356   0.854 -0.5861 -1.1978  0.4429
 9377TIP3    H228075   1.232   0.375   0.765 -0.0354  0.6598  0.0733
 9378TIP3   OH228076   6.104   4.615   1.733  0.7652  0.3955 -0.7740
 9378TIP3    H128077   6.059   4.584   1.654 -0.7953  2.7608 -0.8715
 9378TIP3    H228078   6.145   4.537   1.770 -1.2651 -1.3437 -2.1077
 9379TIP3   OH228079   1.333   0.332   2.428 -0.2234  0.0333 -0.2690
 9379TIP3    H128080   1.296   0.406   2.476  1.6781 -0.7019  2.4633
 9379TIP3    H228081   1.258   0.275   2.411 -1.7233  2.5439 -2.4999
 9380TIP3   OH228082   7.347   1.010   3.579  0.4636  0.2875  0.3055
 9380TIP3    H128083   7.357   0.922   3.544 -1.1282  0.7489 -1.3914
 9380TIP3    H228084   7.431   1.028   3.623  0.9989 -1.8355  0.2053
 9381TIP3   OH228085   5.891   7.498   1.262  0.2334  0.4053 -0.1590
 9381TIP3    H128086   5.886   7.411   1.300 -1.4127  0.3216 -0.5363
 9381TIP3    H228087   5.816   7.503   1.202  0.6210  1.8741 -0.5512
 9382TIP3   OH228088   5.817   0.512   3.926  0.2095 -0.1926  0.5104
 9382TIP3    H128089   5.848   0.421   3.928  0.4950 -0.1411 -0.8743
 9382TIP3    H228090   5.755   0.518   3.998  0.8912 -1.2375  1.2002
 9383TIP3   OH228091   0.597   2.556   1.189 -0.1470  0.6506  0.7196
 9383TIP3    H128092   0.690   2.579   1.188  0.1189 -0.4005  0.3876
 9383TIP3    H228093   0.552   2.637   1.165  0.7193  0.9851  0.1868
 9384TIP3   OH228094   4.024   6.824   4.071 -0.0678 -0.8888 -0.2966
 9384TIP3    H128095   3.936   6.860   4.057  0.2214 -0.2685 -0.5396
 9384TIP3    H228096   4.067   6.889   4.127  1.7399  1.0818 -3.8267
 9385TIP3   OH228097   3.470   6.841   1.611  0.3806  0.6570  0.4218
 9385TIP3    H128098   3.493   6.807   1.524 -1.9108  0.6638 -0.2028
 9385TIP3    H228099   3.488   6.768   1.671  0.0734 -0.0286 -0.3114
 9386TIP3   OH228100   3.782   6.335   4.203  0.3976  0.1899  0.6490
 9386TIP3    H128101   3.734   6.413   4.175 -0.2805 -0.0714  1.0930
 9386TIP3    H228102   3.824   6.360   4.285  0.2160  0.0960  0.7690
 9387TIP3   OH228103   2.721   7.290   3.366 -0.0277 -0.5006  0.5727
 9387TIP3    H128104   2.656   7.324   3.305 -0.9558  0.7982  2.2422
 9387TIP3    H228105   2.691   7.201   3.387  1.3718 -1.7177 -2.3405
 9388TIP3   OH228106   0.484   2.437   3.255  0.1835  0.2072  0.2154
 9388TIP3    H128107   0.438   2.353   3.253  1.0911 -0.2830 -1.5508
 9388TIP3    H228108   0.570   2.417   3.291  0.5444  0.2821 -0.5809
 9389TIP3   OH228109   8.282   0.684   2.143 -0.0611  0.0323 -0.6416
 9389TIP3    H128110   8.188   0.664   2.145 -0.1222  0.3636 -0.0289
 9389TIP3    H228111   8.286   0.779   2.151  0.3766 -0.1043  1.0948
 9390TIP3   OH228112   3.813   6.568   2.344 -0.3164 -0.1381 -0.0597
 9390TIP3    H128113   3.739   6.507   2.345  0.1728 -0.7985 -2.1423
 9390TIP3    H228114   3.891   6.512   2.349  0.0736  0.5423  1.9005
 9391TIP3   OH228115   3.922   6.505   1.221 -0.1011  0.4695  0.6357
 9391TIP3    H128116   3.985   6.433   1.214  0.1630  0.5973  1.6493
 9391TIP3    H228117   3.969   6.581   1.188 -0.7139  0.0031 -1.4054
 9392TIP3   OH228118   7.705   1.437   3.969  0.1128  0.0761  0.3859
 9392TIP3    H128119   7.694   1.532   3.965  3.0174  0.3906 -2.2537
 9392TIP3    H228120   7.722   1.419   4.061 -1.4270  1.9962  1.0825
 9393TIP3   OH228121   2.195   0.742   1.580 -0.0188  0.4658 -0.5940
 9393TIP3    H128122   2.111   0.717   1.544  0.1609  0.5059 -1.0409
 9393TIP3    H228123   2.177   0.761   1.672 -0.5505  0.7662 -0.7581
 9394TIP3   OH228124   2.994   7.279   4.940 -0.2623 -0.4030 -0.5608
 9394TIP3    H128125   2.956   7.193   4.925 -1.7863  0.4598 -1.7163
 9394TIP3    H228126   3.024   7.308   4.854  1.1931 -0.2149 -0.0015
 9395TIP3   OH228127   7.416   0.540   3.652  0.2369 -0.1053  0.1515
 9395TIP3    H128128   7.391   0.573   3.738 -0.1905 -0.7063  0.2643
 9395TIP3    H228129   7.366   0.459   3.642  0.8370 -0.4177 -0.3551
 9396TIP3   OH228130   7.527   0.319   4.688 -0.1963 -0.6601 -0.2057
 9396TIP3    H128131   7.436   0.293   4.697 -0.2244 -0.6746 -0.5204
 9396TIP3    H228132   7.561   0.264   4.618 -1.5198  3.3678 -4.2481
 9397TIP3   OH228133   6.232   7.625   3.253  0.4236  0.1609 -0.3834
 9397TIP3    H128134   6.146   7.654   3.282  0.7228  1.0150 -0.3406
 9397TIP3    H228135   6.214   7.555   3.190 -0.3404  1.5536 -1.7411
 9398TIP3   OH228136   2.951   2.033   1.556 -0.4091 -0.0142 -0.1930
 9398TIP3    H128137   3.008   1.956   1.551 -1.8512 -1.0724 -0.6920
 9398TIP3    H228138   2.909   2.037   1.471 -1.2335  0.6407  0.2405
 9399TIP3   OH228139   2.064   2.095   1.815 -0.3130  0.0216 -0.1862
 9399TIP3    H128140   2.137   2.072   1.873 -1.0208  1.1706  1.1854
 9399TIP3    H228141   2.038   2.182   1.843 -1.9264 -0.1965 -0.9660
 9400TIP3   OH228142   7.938   0.857   2.636  0.5822 -1.0121  0.1578
 9400TIP3    H128143   8.024   0.892   2.662  0.6937 -0.4891 -0.8926
 9400TIP3    H228144   7.898   0.830   2.719  0.1176  2.4434  1.1501
 9401TIP3   OH228145   1.406   0.188   3.507 -0.0237 -1.0756  0.1823
 9401TIP3    H128146   1.322   0.220   3.475  1.0977  2.0472  0.1499
 9401TIP3    H228147   1.434   0.125   3.442 -1.3026 -0.4729 -0.9753
 9402TIP3   OH228148   0.297   1.250   1.031  0.2024 -0.7967 -0.0745
 9402TIP3    H128149   0.290   1.209   0.945  1.0489 -0.6737 -0.2032
 9402TIP3    H228150   0.206   1.259   1.060 -0.2682  1.5817 -2.0859
 9403TIP3   OH228151   1.259   1.796   2.615 -0.0119  0.0255 -0.1855
 9403TIP3    H128152   1.338   1.850   2.609  0.7204 -0.8817  1.0767
 9403TIP3    H228153   1.211   1.831   2.690  0.0661 -0.5461  0.1372
 9404TIP3   OH228154   6.755   7.423   3.420 -0.5726 -0.0005 -0.4080
 9404TIP3    H128155   6.785   7.422   3.511  0.6424  0.4935 -0.7911
 9404TIP3    H228156   6.681   7.484   3.419 -2.2385 -1.9373  0.7388
 9405TIP3   OH228157   5.984   7.207   3.108  0.2571 -0.4683 -0.3944
 9405TIP3    H128158   5.899   7.185   3.070 -0.0563 -0.7974  0.4788
 9405TIP3    H228159   5.963   7.240   3.196  1.0591 -0.9746 -0.0082
 9406TIP3   OH228160   0.529   0.941   4.563  0.1116  0.2533 -0.4364
 9406TIP3    H128161   0.495   0.984   4.484  0.9031  1.3311 -0.2044
 9406TIP3    H228162   0.609   0.896   4.533 -0.4041 -0.5938 -0.5573
 9407TIP3   OH228163   0.679   1.939   2.100 -0.9053  0.0130 -0.0712
 9407TIP3    H128164   0.585   1.918   2.098 -1.1493  0.8011  1.8316
 9407TIP3    H228165   0.696   1.958   2.192  0.4575  3.0240 -0.9192
 9408TIP3   OH228166   5.911   6.785   4.184  0.2091 -0.0484 -0.1322
 9408TIP3    H128167   5.907   6.692   4.162 -0.6319  0.5878 -2.7310
 9408TIP3    H228168   6.004   6.805   4.186  0.4193 -1.0668  1.0442
 9409TIP3   OH228169   0.414   0.818   2.474 -0.4389  0.4756  0.4317
 9409TIP3    H128170   0.414   0.773   2.559  0.7008  0.6625  0.5401
 9409TIP3    H228171   0.496   0.790   2.432 -0.4643  1.2538 -0.1374
 9410TIP3   OH228172   7.458   1.643   3.895 -0.2030  0.5083 -0.0452
 9410TIP3    H128173   7.414   1.691   3.965 -0.0349  0.1005  0.3423
 9410TIP3    H228174   7.509   1.710   3.849 -1.3987  1.0237 -0.6420
 9411TIP3   OH228175   0.248   1.952   1.255 -0.1808  0.1197 -0.2781
 9411TIP3    H128176   0.172   1.980   1.204 -0.6962  0.8794  0.8830
 9411TIP3    H228177   0.210   1.904   1.330  0.4948  0.2890  0.1741
 9412TIP3   OH228178   7.686   0.330   2.418  0.1363 -0.0232  0.3142
 9412TIP3    H128179   7.660   0.306   2.507 -0.2975 -1.2004 -0.1182
 9412TIP3    H228180   7.733   0.413   2.429 -1.5566  0.8334  1.4217
 9413TIP3   OH228181   5.561   6.176   3.235 -0.2472  0.0211 -0.3274
 9413TIP3    H128182   5.523   6.173   3.148  2.6206 -0.9751 -1.6122
 9413TIP3    H228183   5.603   6.262   3.240  1.3107 -0.6917 -0.7381
 9414TIP3   OH228184   7.262   0.304   3.722  0.5105 -0.1997  0.1729
 9414TIP3    H128185   7.176   0.276   3.691  0.6500  1.9684 -2.3725
 9414TIP3    H228186   7.324   0.245   3.680  0.4179 -0.1453 -0.0397
 9415TIP3   OH228187   4.645   5.458   6.694 -0.5150  0.0651 -0.0297
 9415TIP3    H128188   4.578   5.497   6.638 -0.1556  1.9172  0.7660
 9415TIP3    H228189   4.600   5.442   6.777 -0.6869 -1.3493 -0.3854
 9416TIP3   OH228190   6.970   7.732   2.530 -0.0605 -0.3547 -0.1818
 9416TIP3    H128191   7.019   7.682   2.596 -1.1298 -0.6839  0.3907
 9416TIP3    H228192   6.960   7.670   2.457  2.2957  0.4557 -1.2406
 9417TIP3   OH228193   0.057   1.752   2.720 -0.0834  0.2799  0.1708
 9417TIP3    H128194  -0.021   1.776   2.671 -1.3128 -2.2185  0.8031
 9417TIP3    H228195   0.129   1.767   2.659 -1.3391 -0.2377 -1.4722
 9418TIP3   OH228196   8.147   0.943   3.537  0.1905  0.2073 -0.1972
 9418TIP3    H128197   8.085   0.895   3.591 -0.5312  0.6049 -0.6561
 9418TIP3    H228198   8.227   0.945   3.588 -0.5005  0.6375  0.8951
 9419TIP3   OH228199   0.598   1.439   1.089  0.3540  0.1478 -0.4577
 9419TIP3    H128200   0.671   1.384   1.061  0.7557  0.1158  0.6143
 9419TIP3    H228201   0.541   1.379   1.138  0.4753  0.5389  0.1696
 9420TIP3   OH228202   6.183   5.632   1.144  0.2757 -0.1559 -0.2084
 9420TIP3    H128203   6.261   5.685   1.126 -0.1518  0.3516 -0.5899
 9420TIP3    H228204   6.190   5.558   1.084  0.7079 -0.3652  0.0955
 9421TIP3   OH228205   5.978   0.945   1.094 -0.8694 -0.0404  0.0694
 9421TIP3    H128206   5.960   0.936   1.188 -1.1553 -0.8878 -0.0585
 9421TIP3    H228207   5.912   1.007   1.063 -0.6660  0.3730  0.4630
 9422TIP3   OH228208   4.021   6.166   2.800  0.5306  0.3674 -1.2020
 9422TIP3    H128209   4.106   6.166   2.845 -0.7535  2.3276  1.3910
 9422TIP3    H228210   3.983   6.081   2.822  0.9684  0.3022 -0.6771
 9423TIP3   OH228211   3.824   6.754   2.113 -0.0559  0.4794  0.4403
 9423TIP3    H128212   3.809   6.716   2.199 -2.3033 -0.0512 -0.1422
 9423TIP3    H228213   3.776   6.837   2.115 -0.2850  0.3758 -0.3403
 9424TIP3   OH228214   7.793   6.267   4.182 -0.1305  0.2308  0.3081
 9424TIP3    H128215   7.726   6.289   4.247 -1.0309  1.1988 -0.9290
 9424TIP3    H228216   7.812   6.174   4.199  0.3567  0.7102  2.5749
 9425TIP3   OH228217   7.770   0.614   2.769 -0.6575 -0.0820  0.7740
 9425TIP3    H128218   7.704   0.615   2.700 -0.4272  1.3698  0.5579
 9425TIP3    H228219   7.836   0.677   2.740 -0.3750  0.2621  2.1358
 9426TIP3   OH228220   7.618   0.449   1.022  0.8323  0.4943 -0.0959
 9426TIP3    H128221   7.618   0.498   0.940  2.2468  2.1812  0.8606
 9426TIP3    H228222   7.527   0.452   1.052  0.7052  1.6625 -0.5695
 9427TIP3   OH228223   4.692   7.217   0.812 -0.5252 -0.1448  0.2290
 9427TIP3    H128224   4.628   7.243   0.878  1.0512 -0.0197  1.7636
 9427TIP3    H228225   4.738   7.298   0.790 -1.1763 -0.1472 -1.2057
 9428TIP3   OH228226   5.768   7.731   2.278 -0.4964 -0.2486  0.2903
 9428TIP3    H128227   5.771   7.638   2.255  1.3943 -0.0192 -0.4937
 9428TIP3    H228228   5.701   7.768   2.220  1.5226 -0.3984 -2.2228
 9429TIP3   OH228229   5.749   2.073   3.516 -0.6112 -0.0259 -0.1185
 9429TIP3    H128230   5.773   2.025   3.596 -1.3651 -0.1485  0.0347
 9429TIP3    H228231   5.822   2.057   3.456 -0.9747 -1.5820 -0.1628
 9430TIP3   OH228232   8.175   1.128   3.326 -0.1264  0.3872 -0.3455
 9430TIP3    H128233   8.180   1.087   3.240  0.1575 -0.6927  0.1684
 9430TIP3    H228234   8.145   1.057   3.384 -0.7731  1.2208  0.3591
 9431TIP3   OH228235   4.549   7.555   4.777 -0.6383 -0.3199 -0.0919
 9431TIP3    H128236   4.520   7.643   4.803  0.0717  0.4111 -1.6902
 9431TIP3    H228237   4.498   7.536   4.698 -0.5512 -1.2125  0.0696
 9432TIP3   OH228238   2.398   4.446   2.834  0.2166 -0.1785  0.1415
 9432TIP3    H128239   2.491   4.454   2.815  0.2189 -0.2883  0.1095
 9432TIP3    H228240   2.356   4.506   2.773  0.1949 -0.7919 -0.4456
 9433TIP3   OH228241   3.976   7.563   5.363 -0.1361 -0.0896 -0.2021
 9433TIP3    H128242   4.043   7.548   5.296 -0.7255  0.1560 -0.8662
 9433TIP3    H228243   3.898   7.587   5.312 -0.4486  0.6230  0.6094
 9434TIP3   OH228244   4.861   7.812   5.742 -0.3307  0.1228  0.1471
 9434TIP3    H128245   4.771   7.832   5.766 -0.8915 -0.5941 -1.2996
 9434TIP3    H228246   4.876   7.724   5.778 -0.5537 -0.1809 -0.4959
 9435TIP3   OH228247   5.659   7.592   3.567 -0.3957 -0.0678 -0.2429
 9435TIP3    H128248   5.687   7.500   3.562  2.1310  0.6797 -0.4361
 9435TIP3    H228249   5.668   7.615   3.660  0.7812  0.4922 -0.4788
 9436TIP3   OH228250   0.220   0.488   3.795 -0.1082  0.3739 -0.4590
 9436TIP3    H128251   0.203   0.513   3.704 -1.4315 -0.4495 -0.4510
 9436TIP3    H228252   0.161   0.543   3.846 -2.4712 -2.1367 -0.3900
 9437TIP3   OH228253   1.211   0.353   2.132 -0.0277  0.0874 -0.1718
 9437TIP3    H128254   1.282   0.356   2.196 -0.8591 -0.9297  0.8149
 9437TIP3    H228255   1.256   0.339   2.048  0.9158 -0.7907  0.4667
 9438TIP3   OH228256   1.445   1.148   3.561  0.1178  0.2275 -1.1622
 9438TIP3    H128257   1.454   1.104   3.646 -0.3407  0.5908 -0.9223
 9438TIP3    H228258   1.450   1.078   3.497  1.1421  0.0158 -0.8721
 9439TIP3   OH228259   1.017   0.329   4.203  0.5420  0.4498  0.0950
 9439TIP3    H128260   0.941   0.274   4.223  1.2408  0.0093  1.6074
 9439TIP3    H228261   1.090   0.267   4.195  0.5924  0.7788 -2.2628
 9440TIP3   OH228262   8.386   1.829   3.698  0.1745  0.0387 -0.4787
 9440TIP3    H128263   8.422   1.917   3.686 -0.8611  0.5680  0.2596
 9440TIP3    H228264   8.345   1.831   3.784  0.6262 -1.3468 -0.2173
 9441TIP3   OH228265   7.106   6.454   4.218 -0.3803  0.6288  0.1970
 9441TIP3    H128266   7.170   6.459   4.147  0.7930 -0.8345  1.1242
 9441TIP3    H228267   7.159   6.450   4.297 -1.5222 -2.9083  0.8684
 9442TIP3   OH228268   8.167   2.145   3.810 -0.0629  0.0389 -0.1365
 9442TIP3    H128269   8.192   2.228   3.851 -1.3815  1.0259 -1.2931
 9442TIP3    H228270   8.072   2.140   3.820 -0.1672 -0.6476 -1.3125
 9443TIP3   OH228271   6.031   7.658   4.965 -0.7777 -0.0105  0.3990
 9443TIP3    H128272   6.050   7.566   4.945 -2.8115 -0.4470  0.2823
 9443TIP3    H228273   6.113   7.704   4.948  0.2513 -1.7881  0.3729
 9444TIP3   OH228274   8.134   0.973   3.907  0.1363  0.9662  0.3472
 9444TIP3    H128275   8.059   0.919   3.881  0.5450 -0.1228  1.3829
 9444TIP3    H228276   8.127   1.052   3.854  0.0108 -0.4871 -1.8569
 9445TIP3   OH228277   7.971   0.177   5.279 -0.4960 -0.4826  0.0567
 9445TIP3    H128278   8.022   0.210   5.354 -2.0501  2.3134 -0.0424
 9445TIP3    H228279   7.909   0.115   5.317  0.4459 -1.0525  0.6950
 9446TIP3   OH228280   4.168   7.369   3.272  0.0659 -0.5428  0.0132
 9446TIP3    H128281   4.095   7.309   3.258  0.9139 -1.5353 -0.1929
 9446TIP3    H228282   4.221   7.361   3.192 -0.3397  1.2305 -0.4529
 9447TIP3   OH228283   3.495   7.419   4.168  0.3548  0.4086 -0.6126
 9447TIP3    H128284   3.467   7.507   4.195  0.6537  0.5868 -0.8801
 9447TIP3    H228285   3.590   7.427   4.158  0.2850  0.2478 -1.3819
 9448TIP3   OH228286   2.368   0.787   5.185  0.0551  0.8523  0.2691
 9448TIP3    H128287   2.281   0.796   5.223 -0.5010  0.0689 -0.7995
 9448TIP3    H228288   2.409   0.873   5.198 -0.7707  1.1405  1.0118
 9449TIP3   OH228289   0.393   0.112   3.364  0.2597 -0.0710 -0.4811
 9449TIP3    H128290   0.357   0.160   3.289  0.7230  1.7036  0.3952
 9449TIP3    H228291   0.476   0.077   3.332  0.0547 -0.0516 -1.0496
 9450TIP3   OH228292   4.514   7.396   4.988  0.3870 -0.0203  0.6633
 9450TIP3    H128293   4.506   7.458   4.916  0.7792  1.0291  1.5110
 9450TIP3    H228294   4.445   7.332   4.973  0.1585  0.4671 -0.3762
 9451TIP3   OH228295   3.504   5.680   3.354 -0.0615 -0.4320  0.0094
 9451TIP3    H128296   3.521   5.608   3.415 -1.1815 -0.1363  0.6827
 9451TIP3    H228297   3.590   5.706   3.324  0.4491 -1.1542  0.8101
 9452TIP3   OH228298   3.910   7.019   4.565 -0.0468  0.0181 -0.1204
 9452TIP3    H128299   3.845   6.965   4.520 -1.6201  1.7866 -0.0858
 9452TIP3    H228300   3.912   7.100   4.514  0.2139  0.9697  1.3775
 9453TIP3   OH228301   0.131   0.420   1.463  0.0516  0.4033  0.2585
 9453TIP3    H128302   0.133   0.473   1.543 -1.7645 -0.4375  0.8993
 9453TIP3    H228303   0.040   0.390   1.457  0.5753 -0.9394 -1.2068
 9454TIP3   OH228304   0.854   1.856   2.454  0.4522  0.1749  0.0197
 9454TIP3    H128305   0.821   1.944   2.477  2.1916  0.6887  0.6367
 9454TIP3    H228306   0.892   1.824   2.536  1.1555 -0.5512 -0.5962
 9455TIP3   OH228307   1.061   0.796   4.063  0.3075 -0.0425  0.5059
 9455TIP3    H128308   1.026   0.722   4.112  0.3499 -0.3971  0.0115
 9455TIP3    H228309   1.037   0.777   3.972 -0.1952  0.8463  0.4544
 9456TIP3   OH228310   3.717   0.602   1.281 -0.0006  0.3148  0.1759
 9456TIP3    H128311   3.789   0.656   1.315 -1.8081  1.3196  2.5340
 9456TIP3    H228312   3.683   0.652   1.207  1.0793  0.3077 -0.3411
 9457TIP3   OH228313   0.130   0.801   4.567  0.0846  0.6972  0.4412
 9457TIP3    H128314   0.200   0.840   4.619  1.4644 -0.6721 -0.3447
 9457TIP3    H228315   0.054   0.800   4.625  0.9014  1.5798  1.5384
 9458TIP3   OH228316   8.095   7.639   1.283 -0.5198  0.3057  0.2072
 9458TIP3    H128317   8.042   7.647   1.363 -0.9636 -0.7361  0.0310
 9458TIP3    H228318   8.183   7.619   1.315 -0.1707  2.2540  0.5087
 9459TIP3   OH228319   6.776   7.608   2.779 -0.4119 -0.1069  0.3657
 9459TIP3    H128320   6.741   7.557   2.852 -1.6420  1.9581  1.2547
 9459TIP3    H228321   6.824   7.680   2.821 -1.3839  1.2724 -0.8463
 9460TIP3   OH228322   1.164   0.793   2.015  0.0156 -0.9209 -0.4246
 9460TIP3    H128323   1.126   0.747   2.089  1.9883 -1.3815  0.3313
 9460TIP3    H228324   1.116   0.876   2.011 -0.8650 -1.3705  0.6408
 9461TIP3   OH228325   8.234   1.552   2.588 -0.4918  0.4589 -0.6556
 9461TIP3    H128326   8.170   1.546   2.517 -1.7171  0.7472  0.4086
 9461TIP3    H228327   8.293   1.622   2.562 -0.7951  0.4015 -1.4982
 9462TIP3   OH228328   1.533   3.117   0.672  0.1232 -0.0546 -0.0042
 9462TIP3    H128329   1.627   3.100   0.680  0.1135 -0.7698 -1.4006
 9462TIP3    H228330   1.499   3.101   0.760  1.0230 -1.6484  0.0686
 9463TIP3   OH228331   0.958   0.615   1.081 -0.4687  0.2843 -0.2656
 9463TIP3    H128332   1.018   0.561   1.133 -0.8813 -0.1804 -0.2734
 9463TIP3    H228333   0.874   0.606   1.125 -1.1446 -1.2729 -1.8493
 9464TIP3   OH228334   6.315   5.334   1.551 -0.2586  0.1183  0.0002
 9464TIP3    H128335   6.266   5.252   1.541  1.8221 -1.2138  0.3332
 9464TIP3    H228336   6.256   5.402   1.518 -2.8774 -1.2228  1.7615
 9465TIP3   OH228337   4.775   7.696   3.880  0.1619  0.5814 -0.4995
 9465TIP3    H128338   4.833   7.624   3.903 -3.2402 -2.7730 -1.9351
 9465TIP3    H228339   4.785   7.758   3.953  1.6762 -2.2394  1.8263
 9466TIP3   OH228340   4.992   5.991   0.857  0.4612  0.4149  0.2348
 9466TIP3    H128341   4.959   5.919   0.911 -0.0191  1.2435  1.0369
 9466TIP3    H228342   4.934   5.992   0.781 -2.3845  2.8522  2.3489
 9467TIP3   OH228343   4.765   7.193   2.385 -0.0143 -0.5306 -0.1762
 9467TIP3    H128344   4.742   7.101   2.399 -0.9357 -0.2992 -0.0858
 9467TIP3    H228345   4.838   7.191   2.324  0.3923 -1.3496  0.3260
 9468TIP3   OH228346   7.132   0.030   2.305  0.1226 -0.1224  0.2176
 9468TIP3    H128347   7.066   0.077   2.253  2.0025  1.5755 -0.7177
 9468TIP3    H228348   7.103  -0.061   2.304 -3.4546  0.9067  1.7996
 9469TIP3   OH228349   6.131   6.671   0.643 -0.2306  0.2259  0.2717
 9469TIP3    H128350   6.075   6.733   0.597  0.0766  1.3486  1.4013
 9469TIP3    H228351   6.106   6.679   0.735 -0.9453 -2.1174  0.3089
 9470TIP3   OH228352   5.283   6.405   3.550  0.1153  0.1655 -0.1804
 9470TIP3    H128353   5.282   6.483   3.495 -0.0456 -0.5319 -1.1826
 9470TIP3    H228354   5.197   6.403   3.591 -0.2369 -0.0148 -0.9194
 9471TIP3   OH228355   4.444   8.003   3.470 -0.3735 -0.0372  0.0148
 9471TIP3    H128356   4.385   7.949   3.417  0.2379  1.3525 -2.1216
 9471TIP3    H228357   4.445   7.960   3.556 -3.0074 -1.1393 -0.4751
 9472TIP3   OH228358   3.956   7.728   2.854 -0.1264  0.1750 -0.0570
 9472TIP3    H128359   3.902   7.800   2.821  0.1810 -0.7497 -2.6601
 9472TIP3    H228360   4.025   7.771   2.905  0.1378  1.7818 -1.7112
 9473TIP3   OH228361   6.913   7.776   6.935  0.0420 -0.0068 -0.2930
 9473TIP3    H128362   6.853   7.839   6.894  1.2099  0.5192 -1.2256
 9473TIP3    H228363   6.956   7.733   6.861  1.2149  0.0231  0.3696
 9474TIP3   OH228364   5.294   7.168   2.536 -0.2332  0.8330  0.3436
 9474TIP3    H128365   5.217   7.199   2.584  1.1219  2.2798  1.6473
 9474TIP3    H228366   5.366   7.176   2.599  0.6931 -2.2381 -0.2431
 9475TIP3   OH228367   6.390   7.258   3.121  0.2638 -0.0595 -0.1755
 9475TIP3    H128368   6.373   7.165   3.138  0.8592 -0.2063 -0.3840
 9475TIP3    H228369   6.456   7.282   3.186 -1.0862  0.6373  0.9555
 9476TIP3   OH228370   6.321   1.245   1.828 -0.0166  0.0121  0.1042
 9476TIP3    H128371   6.229   1.270   1.835 -0.3017 -0.8685 -0.5170
 9476TIP3    H228372   6.320   1.157   1.791  1.1060  0.2795 -0.5842
 9477TIP3   OH228373   6.915   6.604   3.897  0.3901  0.1663  0.3636
 9477TIP3    H128374   6.948   6.657   3.825 -1.1336  1.8906  0.9061
 9477TIP3    H228375   6.894   6.520   3.857  1.1587  0.5458 -0.8596
 9478TIP3   OH228376   4.071   7.976   3.746  0.0121  0.2886  0.1122
 9478TIP3    H128377   4.111   8.028   3.816  0.2723  1.2223 -0.7168
 9478TIP3    H228378   4.007   7.920   3.791 -0.1278  1.1781  1.0383
 9479TIP3   OH228379   1.072   0.420   5.099 -0.3406 -0.5147  0.0025
 9479TIP3    H128380   1.102   0.480   5.167 -0.1425 -0.9049  0.2672
 9479TIP3    H228381   1.020   0.474   5.040 -2.3916 -0.6238  1.6747
 9480TIP3   OH228382   6.204   5.675   2.244 -0.3670  0.4754  0.1659
 9480TIP3    H128383   6.220   5.615   2.171  0.6892  0.3675  0.4733
 9480TIP3    H228384   6.115   5.655   2.272  0.8145 -2.8477  1.9499
 9481TIP3   OH228385   5.528   6.424   3.659 -0.1681 -0.2186 -0.0723
 9481TIP3    H128386   5.440   6.405   3.626 -0.7399 -0.7450  1.7034
 9481TIP3    H228387   5.514   6.487   3.730  0.6541 -2.0775  1.7747
 9482TIP3   OH228388   7.567   0.938   3.973 -0.0884  0.7680 -0.5651
 9482TIP3    H128389   7.494   0.888   3.937  0.4109  0.0574 -0.5898
 9482TIP3    H228390   7.540   0.959   4.062  0.5029 -1.1896  0.0987
 9483TIP3   OH228391   3.429   7.106   3.375 -0.4056 -0.1688  0.1771
 9483TIP3    H128392   3.455   7.181   3.429 -0.7612  1.0451 -1.2696
 9483TIP3    H228393   3.358   7.141   3.319 -0.1579 -1.4101 -0.9323
 9484TIP3   OH228394   7.430   5.746   4.318 -0.3404 -0.4849  0.5092
 9484TIP3    H128395   7.414   5.733   4.412 -0.3992 -0.7914  0.4567
 9484TIP3    H228396   7.521   5.778   4.314  0.6293 -3.1144  0.4874
 9485TIP3   OH228397   6.140   7.066   3.729  0.0011  0.0204 -0.0204
 9485TIP3    H128398   6.093   7.143   3.763 -0.7480 -1.0085  1.3642
 9485TIP3    H228399   6.074   6.997   3.730  0.1828 -0.2293 -2.9384
 9486TIP3   OH228400   0.827   0.156   3.178  0.9054  0.6942 -0.0647
 9486TIP3    H128401   0.821   0.120   3.089  0.8835  0.9067 -0.1485
 9486TIP3    H228402   0.838   0.250   3.165  2.6285  0.5313  0.1053
 9487TIP3   OH228403   4.966   6.726   4.194  0.2659 -0.3738  0.1754
 9487TIP3    H128404   4.973   6.632   4.176  0.5090 -0.0070 -1.6945
 9487TIP3    H228405   4.913   6.760   4.122  0.3412  0.9597  0.7455
 9488TIP3   OH228406   6.318   0.540   3.933  0.2982  0.5440  0.3328
 9488TIP3    H128407   6.339   0.498   4.016  0.6446 -0.9264 -0.4988
 9488TIP3    H228408   6.264   0.476   3.886 -0.7283  1.7545 -0.1774
 9489TIP3   OH228409   4.027   6.626   4.498  0.5429 -0.7571  0.2826
 9489TIP3    H128410   3.956   6.564   4.511  0.6566 -0.8769  0.3355
 9489TIP3    H228411   4.054   6.612   4.407  0.6283 -0.8492  0.3223
 9490TIP3   OH228412   7.466   6.476   3.257  0.8543 -0.0512  0.3393
 9490TIP3    H128413   7.383   6.431   3.274  1.4277 -0.6684  1.6089
 9490TIP3    H228414   7.463   6.553   3.314  1.3204 -0.2991  0.7078
 9491TIP3   OH228415   1.833   1.640   2.776 -0.0812 -0.2763 -0.1590
 9491TIP3    H128416   1.851   1.603   2.690  1.2585 -0.7986  0.3229
 9491TIP3    H228417   1.810   1.564   2.830  0.2793 -0.0999  0.2396
 9492TIP3   OH228418   2.022   0.245   1.922 -0.0650 -0.1846 -0.6289
 9492TIP3    H128419   2.075   0.262   1.999  0.4098 -2.3532 -0.4518
 9492TIP3    H228420   1.940   0.291   1.939 -0.7788 -2.3417  2.1444
 9493TIP3   OH228421   7.237   1.450   3.105  0.3103 -0.0913  0.3185
 9493TIP3    H128422   7.269   1.522   3.049  0.3594  0.1773  0.6928
 9493TIP3    H228423   7.164   1.488   3.153 -0.0540 -0.4709  0.0660
 9494TIP3   OH228424   5.695   7.218   2.166 -0.2058 -0.0653  0.6342
 9494TIP3    H128425   5.639   7.212   2.244  0.5956 -0.8004  1.1538
 9494TIP3    H228426   5.638   7.191   2.094 -0.8428  0.2647  1.0092
 9495TIP3   OH228427   0.990   1.209   4.287 -0.5852  0.0864  0.3057
 9495TIP3    H128428   0.929   1.284   4.287 -0.7171 -0.0191  0.0829
 9495TIP3    H228429   1.010   1.196   4.194 -1.6698 -1.0520  0.2225
 9496TIP3   OH228430   6.375   7.492   1.140  0.4350 -0.6429 -0.3520
 9496TIP3    H128431   6.316   7.488   1.216 -0.2757  0.7157 -0.7996
 9496TIP3    H228432   6.433   7.566   1.160  1.2189 -1.2277 -0.4596
 9497TIP3   OH228433   8.109   0.552   1.013 -0.4349  0.0287 -0.2646
 9497TIP3    H128434   8.114   0.642   0.981  0.2410  0.4696  1.0220
 9497TIP3    H228435   8.099   0.498   0.934 -0.0523  1.1657 -1.1007
 9498TIP3   OH228436   2.270   2.300   1.075  0.3625 -0.2469 -0.1004
 9498TIP3    H128437   2.299   2.384   1.039  4.2533 -0.5274  2.1677
 9498TIP3    H228438   2.251   2.247   0.998 -0.9520  2.2281 -1.5847
 9499TIP3   OH228439   1.118   1.959   1.709 -0.0679 -0.1070 -0.3042
 9499TIP3    H128440   1.086   1.972   1.798 -0.6344  0.2273 -0.5571
 9499TIP3    H228441   1.193   2.018   1.702  0.0238 -0.1884 -0.0276
 9500TIP3   OH228442   1.398   0.503   4.153  0.0005 -0.5970  0.4068
 9500TIP3    H128443   1.389   0.489   4.247  1.1682 -0.5943  0.5228
 9500TIP3    H228444   1.453   0.581   4.146 -0.9982  0.0485 -0.2707
 9501TIP3   OH228445   2.186   1.160   1.071  0.3329  0.3805  0.1703
 9501TIP3    H128446   2.135   1.208   1.136 -0.8662  2.0801 -1.9431
 9501TIP3    H228447   2.269   1.208   1.066  0.6166 -0.0488  0.8145
 9502TIP3   OH228448   2.483   3.443   2.475 -0.0672 -0.0070 -0.0271
 9502TIP3    H128449   2.390   3.428   2.490 -0.5384  0.8963 -2.0172
 9502TIP3    H228450   2.518   3.464   2.562 -2.3685  3.0214  0.2485
 9503TIP3   OH228451   7.239   7.109   2.846 -0.3424 -0.2536 -1.0060
 9503TIP3    H128452   7.218   7.053   2.920 -0.0933  3.4404  2.0494
 9503TIP3    H228453   7.166   7.172   2.843  2.7418  3.6023  0.3298
 9504TIP3   OH228454   8.005   6.478   0.940  0.3595 -0.3851  0.3968
 9504TIP3    H128455   7.952   6.533   0.998  0.1014 -0.3729  0.1488
 9504TIP3    H228456   7.957   6.395   0.936 -0.3121  0.0593 -0.8576
 9505TIP3   OH228457   1.534   0.581   4.815 -0.3966  0.5053 -0.0357
 9505TIP3    H128458   1.538   0.486   4.825 -0.4309  0.1825 -2.7236
 9505TIP3    H228459   1.619   0.612   4.849  0.3090 -0.6488 -0.7296
 9506TIP3   OH228460   6.012   8.042   0.993  0.4641  0.2042 -0.2853
 9506TIP3    H128461   5.954   7.971   0.967  0.4734  0.7244 -1.7848
 9506TIP3    H228462   6.099   8.003   0.998  0.2499 -0.1972  0.2609
 9507TIP3   OH228463   8.022   2.131   3.294 -0.2279 -0.6026 -0.3363
 9507TIP3    H128464   8.024   2.158   3.385  0.8566 -0.8340 -0.2917
 9507TIP3    H228465   7.983   2.043   3.296  0.1758 -0.7764 -0.0482
 9508TIP3   OH228466   2.173   0.241   1.408 -0.0321 -0.4105 -0.6428
 9508TIP3    H128467   2.103   0.248   1.472 -0.7744 -1.9926 -1.2795
 9508TIP3    H228468   2.232   0.314   1.429 -0.9982 -0.0758  0.9283
 9509TIP3   OH228469   5.403   7.562   4.159 -0.0840  0.0498  0.4356
 9509TIP3    H128470   5.491   7.542   4.190 -0.4075 -0.7401  0.8617
 9509TIP3    H228471   5.417   7.621   4.085  0.6725  2.8048  2.6748
 9510TIP3   OH228472   3.889   5.843   2.168  0.4422 -0.3833 -0.6072
 9510TIP3    H128473   3.844   5.815   2.088  0.2579 -0.0594 -0.6181
 9510TIP3    H228474   3.833   5.812   2.239 -0.7603  1.6134 -0.6477
 9511TIP3   OH228475   1.697   1.217   1.358 -0.4818  0.9031  0.6940
 9511TIP3    H128476   1.676   1.310   1.343 -0.4367  1.0882  1.7308
 9511TIP3    H228477   1.632   1.188   1.422 -0.9197  0.0324 -0.1474
 9512TIP3   OH228478   7.411   7.682   2.880  0.4363 -0.1933 -0.0606
 9512TIP3    H128479   7.433   7.730   2.960  0.5077 -0.3966  0.0424
 9512TIP3    H228480   7.483   7.701   2.820 -1.2998  2.7659 -1.3053
 9513TIP3   OH228481   1.237   0.770   1.592  1.5551  0.1799 -0.0233
 9513TIP3    H128482   1.162   0.715   1.569  1.3646 -0.2535  1.5787
 9513TIP3    H228483   1.208   0.859   1.569  0.6098 -0.0021  0.4299
 9514TIP3   OH228484   5.582   7.750   0.858  0.5210  0.0818  0.0618
 9514TIP3    H128485   5.586   7.686   0.787  3.4343 -1.2717  1.3524
 9514TIP3    H228486   5.662   7.802   0.848  0.9335 -0.0733  2.2858
 9515TIP3   OH228487   6.967   7.302   3.229 -0.0807  0.0910  1.0764
 9515TIP3    H128488   7.053   7.335   3.204  0.2830 -1.1002  0.7429
 9515TIP3    H228489   6.934   7.367   3.291  1.4700  0.0549  1.9708
 9516TIP3   OH228490   5.299   6.863   1.988 -0.2968 -0.6147  0.2115
 9516TIP3    H128491   5.267   6.776   1.964 -0.5679 -0.7476  1.0294
 9516TIP3    H228492   5.276   6.918   1.913 -0.5202 -1.1520 -0.1249
 9517TIP3   OH228493   0.900   1.455   4.255  0.8376  0.2186 -0.5604
 9517TIP3    H128494   0.908   1.536   4.306  4.4854 -0.2071 -0.3003
 9517TIP3    H228495   0.907   1.483   4.164 -1.9793  0.5757 -0.7122
 9518TIP3   OH228496   3.212   0.969   0.068 -0.2358  0.1437  0.1631
 9518TIP3    H128497   3.138   1.026   0.048 -0.4994  0.2595  1.3977
 9518TIP3    H228498   3.241   0.936  -0.017 -3.9387 -2.6952 -0.1513
 9519TIP3   OH228499   7.282   2.084   0.445 -0.1053 -0.5067 -0.7474
 9519TIP3    H128500   7.294   2.015   0.510 -0.1145 -0.4155 -0.6483
 9519TIP3    H228501   7.199   2.064   0.403 -2.0622  1.6037  1.9537
 9520TIP3   OH228502   7.769   0.847   3.485 -0.0288  0.2547  0.6018
 9520TIP3    H128503   7.834   0.846   3.555 -0.0619  0.7997  0.6454
 9520TIP3    H228504   7.805   0.790   3.417  0.6394  0.8104  0.4914
 9521TIP3   OH228505   0.857   4.567   3.305  0.0581 -0.5403  0.0952
 9521TIP3    H128506   0.821   4.616   3.232  0.1415 -2.1395 -1.0330
 9521TIP3    H228507   0.791   4.502   3.326 -0.3345  0.4427  2.0141
 9522TIP3   OH228508   1.932   2.075   2.911 -0.5492 -0.1741  0.2657
 9522TIP3    H128509   1.926   1.988   2.949 -0.7378 -0.5763 -0.6787
 9522TIP3    H228510   1.948   2.060   2.818 -0.4522  0.7996  0.1170
 9523TIP3   OH228511   1.648   1.000   2.038  0.2472  0.2146 -0.0273
 9523TIP3    H128512   1.557   0.976   2.057  0.6344 -0.5038  0.9790
 9523TIP3    H228513   1.669   0.954   1.957  0.1188 -0.6706  0.4353
 9524TIP3   OH228514   6.172   7.897   2.766 -0.2803 -0.2021  0.2558
 9524TIP3    H128515   6.266   7.882   2.774 -0.5952 -2.3676  0.1270
 9524TIP3    H228516   6.156   7.979   2.812  1.7683  0.5363 -0.3074
 9525TIP3   OH228517   3.061   0.866   0.754  0.1146  0.1096 -0.6445
 9525TIP3    H128518   3.148   0.854   0.718  0.9289 -1.1540  1.6147
 9525TIP3    H228519   3.023   0.937   0.703  2.7758  1.2574 -1.1211
 9526TIP3   OH228520   0.129   0.026   1.834  0.3552 -0.5361 -0.3612
 9526TIP3    H128521   0.084  -0.037   1.890  1.4882 -2.5645 -1.6813
 9526TIP3    H228522   0.091   0.012   1.747  1.1860  0.0265 -0.8246
 9527TIP3   OH228523   8.405   0.483   4.166 -0.0954  0.7285  0.4529
 9527TIP3    H128524   8.497   0.508   4.175  0.7318 -1.2814 -2.0011
 9527TIP3    H228525   8.368   0.552   4.111  0.4383  0.4789 -0.2315
 9528TIP3   OH228526   7.859   6.180   0.583  0.3290  0.2965 -0.3217
 9528TIP3    H128527   7.945   6.166   0.623 -0.3227  1.5600  1.5956
 9528TIP3    H228528   7.849   6.275   0.581 -1.3434  0.1445  0.1779
 9529TIP3   OH228529   5.996   6.877   0.505 -0.1754  0.3808  0.1405
 9529TIP3    H128530   6.076   6.870   0.452  0.5949  0.6085  1.2619
 9529TIP3    H228531   5.926   6.885   0.441  0.7513  0.7008 -0.8536
 9530TIP3   OH228532   0.860   0.095   0.324 -0.2261 -0.0645  0.6526
 9530TIP3    H128533   0.794   0.128   0.386  0.1742  0.5150  0.7766
 9530TIP3    H228534   0.930   0.160   0.327  0.1060 -0.3931  0.1031
 9531TIP3   OH228535   2.119   2.275   1.321  0.1671 -0.1697 -0.2834
 9531TIP3    H128536   2.181   2.295   1.250  0.2235 -1.2885 -0.5611
 9531TIP3    H228537   2.070   2.356   1.334 -0.0286 -0.0342 -1.7938
 9532TIP3   OH228538   3.581   6.295   3.110  0.0075  0.4254 -0.3050
 9532TIP3    H128539   3.528   6.341   3.175 -1.0408 -0.8966 -0.2029
 9532TIP3    H228540   3.540   6.316   3.026  0.7026  1.2587 -0.4294
 9533TIP3   OH228541   0.025   1.045   1.703  0.1725 -0.4188  0.1131
 9533TIP3    H128542   0.039   1.119   1.762 -1.7573 -1.0975  1.4745
 9533TIP3    H228543   0.112   1.009   1.688  1.1265  1.9542 -0.3750
 9534TIP3   OH228544   6.100   7.473   0.365  0.4549 -0.0380  0.1708
 9534TIP3    H128545   6.154   7.528   0.310 -2.7400  1.7624 -1.3277
 9534TIP3    H228546   6.093   7.390   0.318 -0.5331  0.7700 -1.1480
 9535TIP3   OH228547   0.112   7.404   3.284 -0.3739  0.2551 -0.8949
 9535TIP3    H128548   0.082   7.474   3.340  0.3376  0.1755 -0.4024
 9535TIP3    H228549   0.167   7.349   3.340  0.3389  0.1720 -1.6500
 9536TIP3   OH228550   7.920   2.029   1.651  0.1964  0.0979  0.1657
 9536TIP3    H128551   7.984   2.096   1.677  0.5551 -0.2343  0.1503
 9536TIP3    H228552   7.846   2.078   1.617  0.9116  0.4655 -0.8878
 9537TIP3   OH228553   7.001   5.312   1.901 -0.1236 -0.4372  0.5029
 9537TIP3    H128554   7.015   5.277   1.813 -3.6106  2.2193 -1.2076
 9537TIP3    H228555   6.955   5.242   1.947 -0.8249 -0.7542 -0.6742
 9538TIP3   OH228556   1.574   0.613   1.352  0.4208  0.0242 -0.2088
 9538TIP3    H128557   1.516   0.612   1.428 -0.4732  0.2030 -0.8898
 9538TIP3    H228558   1.660   0.592   1.388 -0.1025 -0.4843  0.7716
 9539TIP3   OH228559   2.147   0.029   0.925  0.1869 -0.3143  0.4463
 9539TIP3    H128560   2.180   0.113   0.894 -0.5329 -0.3420 -0.4211
 9539TIP3    H228561   2.097   0.050   1.003  1.7977 -0.2088  1.4722
 9540TIP3   OH228562   7.607   7.614   2.061  0.2859  0.2383 -0.0244
 9540TIP3    H128563   7.564   7.551   2.119  2.8212 -1.1833  0.3825
 9540TIP3    H228564   7.581   7.587   1.972 -0.7341  0.2554  0.2589
 9541TIP3   OH228565   6.843   7.268   2.605  0.0451  0.4255 -0.5277
 9541TIP3    H128566   6.751   7.290   2.591 -0.6733 -2.2081 -0.2694
 9541TIP3    H228567   6.841   7.183   2.649  2.6463 -0.8144 -2.6800
 9542TIP3   OH228568   0.745   0.104   2.861 -0.0788  0.2742  0.0354
 9542TIP3    H128569   0.651   0.114   2.846  0.2103 -0.1657 -2.2082
 9542TIP3    H228570   0.776   0.193   2.879 -0.7749  0.5357 -0.0307
 9543TIP3   OH228571   0.991   1.632   1.892  0.5310  0.4570 -0.5732
 9543TIP3    H128572   0.938   1.712   1.899 -1.7780 -1.0700 -0.0943
 9543TIP3    H228573   0.985   1.607   1.800 -1.5301 -0.9835 -0.0689
 9544TIP3   OH228574   4.347   4.132   0.789  0.0174  0.4414  0.2702
 9544TIP3    H128575   4.299   4.215   0.787  0.8316  0.8963 -0.4274
 9544TIP3    H228576   4.421   4.146   0.731  0.6871 -0.4554  0.9049
 9545TIP3   OH228577   2.283   3.945   6.081 -0.0994  0.1231  0.7199
 9545TIP3    H128578   2.251   3.875   6.024 -1.1395  1.6455 -0.5873
 9545TIP3    H228579   2.365   3.911   6.117  1.0638 -0.4823 -2.4141
 9546TIP3   OH228580   6.402   3.646   2.544 -0.5297 -0.0372 -0.3609
 9546TIP3    H128581   6.369   3.620   2.630 -0.0418  0.3437 -0.0562
 9546TIP3    H228582   6.423   3.563   2.500 -1.4394 -0.2595 -0.3858
 9547TIP3   OH228583   0.863   3.242   6.170  0.3335  0.1082  0.0542
 9547TIP3    H128584   0.866   3.193   6.088  0.0042 -1.0437  0.7131
 9547TIP3    H228585   0.945   3.219   6.214 -0.1080 -0.3313  0.6432
 9548TIP3   OH228586   5.014   4.758   1.657 -0.0007 -0.1565  0.0067
 9548TIP3    H128587   5.024   4.849   1.628 -1.2254 -0.2857 -0.8751
 9548TIP3    H228588   5.027   4.706   1.578 -0.6682 -0.6599  0.2212
 9549TIP3   OH228589   5.547   5.764   1.617 -0.2478  0.0381  0.7681
 9549TIP3    H128590   5.592   5.756   1.533 -2.3496 -0.7428 -0.3059
 9549TIP3    H228591   5.599   5.711   1.677 -0.1595 -1.4996 -0.6440
 9550TIP3   OH228592   1.616   0.871   6.445  0.3341 -0.1962 -0.3474
 9550TIP3    H128593   1.679   0.844   6.379 -0.1694 -0.3680 -0.7612
 9550TIP3    H228594   1.538   0.819   6.427 -0.3181  0.8256 -0.5429
 9551TIP3   OH228595   1.659   2.186   6.515  0.0492  0.2994  0.0929
 9551TIP3    H128596   1.567   2.163   6.532  0.1507  0.9727  1.5451
 9551TIP3    H228597   1.679   2.256   6.577  2.1745 -1.2826  1.2551
 9552TIP3   OH228598   6.533   0.394   0.508  0.9163  0.0584 -0.2990
 9552TIP3    H128599   6.569   0.421   0.424  3.1704  0.1929  0.6763
 9552TIP3    H228600   6.512   0.301   0.496 -2.0550  0.8926 -2.0485
 9553TIP3   OH228601   2.066   0.376   5.785  0.4566  0.5132  0.3738
 9553TIP3    H128602   1.975   0.352   5.802  0.9377 -3.2828 -1.7520
 9553TIP3    H228603   2.092   0.430   5.860 -3.3385  1.1519  1.3021
 9554TIP3   OH228604   4.587   4.864   0.559  0.7316 -0.3827  0.4746
 9554TIP3    H128605   4.617   4.954   0.544  3.2554 -1.0047  1.4665
 9554TIP3    H228606   4.660   4.809   0.531 -0.2267 -2.0785  1.1860
 9555TIP3   OH228607   4.258   1.615   5.603  0.0226 -0.1572  0.3275
 9555TIP3    H128608   4.225   1.701   5.628  2.8418  0.3931  2.4936
 9555TIP3    H228609   4.314   1.633   5.527  0.8540 -0.0023  0.9675
 9556TIP3   OH228610   3.253   0.694   5.780 -0.0078 -0.2176  0.6715
 9556TIP3    H128611   3.316   0.700   5.852  0.3378  0.4616  0.3159
 9556TIP3    H228612   3.196   0.622   5.805 -1.1918  1.3434  2.6457
 9557TIP3   OH228613   1.773   0.567   6.504  0.6252 -0.1725 -0.5004
 9557TIP3    H128614   1.852   0.516   6.519  0.6685 -0.2824 -1.0973
 9557TIP3    H228615   1.799   0.634   6.440  1.0504  1.7554  1.6242
 9558TIP3   OH228616   4.141   4.807   0.559  0.2258  0.3847 -0.7455
 9558TIP3    H128617   4.078   4.777   0.624  1.9067  0.2183  0.8420
 9558TIP3    H228618   4.161   4.897   0.585  2.8207 -0.5086  0.5170
 9559TIP3   OH228619   4.037   3.821   0.720  0.0067 -0.1647 -0.3427
 9559TIP3    H128620   3.945   3.836   0.700 -1.4306 -3.4946  3.0008
 9559TIP3    H228621   4.065   3.899   0.767 -1.8167 -0.0500  0.5973
 9560TIP3   OH228622   4.493   5.469   1.930 -0.5043 -0.0671 -0.0164
 9560TIP3    H128623   4.554   5.509   1.868 -0.7762  0.8552  0.2998
 9560TIP3    H228624   4.424   5.535   1.942 -1.7646 -1.2293 -0.6407
 9561TIP3   OH228625   4.273   3.560   1.771  0.1848 -0.3811  0.2305
 9561TIP3    H128626   4.214   3.502   1.819 -1.3127  0.8423 -0.1016
 9561TIP3    H228627   4.360   3.541   1.806 -0.5729 -1.2743  1.6463
 9562TIP3   OH228628   8.383   0.203   5.863  0.4780  0.2459 -0.4286
 9562TIP3    H128629   8.405   0.248   5.944  0.0856  0.3105 -0.3600
 9562TIP3    H228630   8.313   0.143   5.886  0.0185  0.6235 -0.8242
 9563TIP3   OH228631   5.136   7.774   0.283 -0.2381  0.3613 -0.2315
 9563TIP3    H128632   5.098   7.713   0.345  0.3741  0.7096  0.4945
 9563TIP3    H228633   5.083   7.765   0.204  0.2061 -1.5341 -0.3310
 9564TIP3   OH228634   3.690   4.237   0.565 -0.3747 -0.0297  0.5229
 9564TIP3    H128635   3.601   4.230   0.530 -0.4256  1.2195  0.4029
 9564TIP3    H228636   3.731   4.153   0.543 -0.9845  0.0487 -0.9358
 9565TIP3   OH228637   5.871   2.720   1.758 -0.2934 -0.4239 -0.3727
 9565TIP3    H128638   5.799   2.753   1.705 -1.4420  0.5301  1.7134
 9565TIP3    H228639   5.915   2.656   1.702 -1.4496  0.5435 -2.4402
 9566TIP3   OH228640   7.914   6.891   6.412 -0.0797  0.9971 -0.0602
 9566TIP3    H128641   7.860   6.826   6.368  0.2715  0.4079  0.3637
 9566TIP3    H228642   7.862   6.919   6.488  0.1226  0.5700  0.2414
 9567TIP3   OH228643   2.412   0.700   4.928 -0.4042  0.1220 -0.2571
 9567TIP3    H128644   2.436   0.712   5.019  0.5484  0.3907 -0.5382
 9567TIP3    H228645   2.352   0.773   4.909 -0.6773  0.0117  0.1722
 9568TIP3   OH228646   5.129   3.920   1.577  0.7649  0.3752  0.2513
 9568TIP3    H128647   5.053   3.969   1.609  1.2121  1.7706 -0.7929
 9568TIP3    H228648   5.147   3.956   1.491  3.1870  0.7194  0.8457
 9569TIP3   OH228649   2.853   0.431   6.500  0.0667 -0.9975 -0.4194
 9569TIP3    H128650   2.863   0.468   6.412  0.4472 -0.0856 -0.0071
 9569TIP3    H228651   2.785   0.365   6.491 -2.2155  1.2964 -0.7692
 9570TIP3   OH228652   4.497   3.442   6.028 -0.3869 -0.3871  0.3026
 9570TIP3    H128653   4.444   3.429   5.949 -0.7329  0.4359  0.3986
 9570TIP3    H228654   4.583   3.469   5.995 -0.9904  1.5286  0.2447
 9571TIP3   OH228655   6.650   2.649   2.584  0.0362 -0.4654  0.5025
 9571TIP3    H128656   6.626   2.690   2.667 -0.6748  0.2728 -0.0558
 9571TIP3    H228657   6.716   2.584   2.607  0.6389  0.4886  1.5022
 9572TIP3   OH228658   8.239   7.331   6.764 -0.2197 -0.5595  0.1518
 9572TIP3    H128659   8.319   7.310   6.813 -0.9526  0.7018  1.9725
 9572TIP3    H228660   8.245   7.426   6.749 -1.3198 -0.4739  0.2141
 9573TIP3   OH228661   2.313   0.185   6.437 -0.1912  0.1234 -0.1734
 9573TIP3    H128662   2.308   0.281   6.447 -1.4340 -0.0490  0.9810
 9573TIP3    H228663   2.221   0.157   6.430  0.2176 -0.8379 -2.1818
 9574TIP3   OH228664   4.505   6.294   1.609  0.3405 -0.0794  0.3738
 9574TIP3    H128665   4.483   6.201   1.614  1.7415 -0.3775  1.1324
 9574TIP3    H228666   4.441   6.337   1.665 -0.4624 -0.5612 -0.1694
 9575TIP3   OH228667   6.799   6.078   0.159  0.8643 -0.2034  0.1311
 9575TIP3    H128668   6.746   6.001   0.138  0.8034  0.2714 -1.5108
 9575TIP3    H228669   6.867   6.080   0.092  0.8323  1.2076  0.1195
 9576TIP3   OH228670   3.137   4.953   0.112  0.2668  0.0958  0.0187
 9576TIP3    H128671   3.060   4.900   0.133  0.6403 -0.9666 -1.2056
 9576TIP3    H228672   3.190   4.951   0.192 -0.2700 -0.4239  0.3695
 9577TIP3   OH228673   2.618   7.450   1.627 -0.1003 -0.0497 -0.1366
 9577TIP3    H128674   2.642   7.415   1.713  1.8754  0.2244 -0.5507
 9577TIP3    H228675   2.599   7.542   1.644  4.2811  1.0353 -0.5907
 9578TIP3   OH228676   2.347   1.813   4.124 -0.0599  0.0006 -0.0629
 9578TIP3    H128677   2.328   1.835   4.032  1.2346 -0.1338 -0.3620
 9578TIP3    H228678   2.301   1.730   4.138  0.7095 -0.5797 -0.9347
 9579TIP3   OH228679   6.410   4.320   1.464  0.1592 -0.4614 -0.1890
 9579TIP3    H128680   6.329   4.326   1.414  0.3415 -0.8599 -0.5288
 9579TIP3    H228681   6.417   4.228   1.490  1.1323 -0.6954 -1.2172
 9580TIP3   OH228682   5.032   5.498   1.701  0.3791  0.0519  0.0585
 9580TIP3    H128683   4.964   5.432   1.713  1.0177 -1.0636 -2.0807
 9580TIP3    H228684   5.110   5.460   1.742  1.0152 -1.0611 -2.0711
 9581TIP3   OH228685   6.872   6.453   2.326 -0.3290  0.5206 -0.0793
 9581TIP3    H128686   6.849   6.514   2.256  1.3322 -0.7381 -1.7994
 9581TIP3    H228687   6.798   6.392   2.330 -1.6622  2.1772  1.1551
 9582TIP3   OH228688   3.846   2.918   2.091 -0.6403  0.5109  0.1546
 9582TIP3    H128689   3.814   2.836   2.127  1.7748 -0.4101  0.2727
 9582TIP3    H228690   3.880   2.895   2.004  1.3601  1.0733  0.7570
 9583TIP3   OH228691   4.773   4.184   1.147  0.5147  0.7110 -0.2196
 9583TIP3    H128692   4.755   4.178   1.053 -1.9103 -0.1741  0.2610
 9583TIP3    H228693   4.756   4.276   1.168 -1.1084  0.4372 -0.2635
 9584TIP3   OH228694   4.521   4.307   1.293  0.0090  0.1189 -0.5101
 9584TIP3    H128695   4.488   4.374   1.353 -0.5641  1.4166 -2.2382
 9584TIP3    H228696   4.498   4.224   1.335 -2.0954  1.0049  0.1426
 9585TIP3   OH228697   0.624   7.976   6.874  0.5323 -0.0475  0.1321
 9585TIP3    H128698   0.639   8.061   6.832 -3.1973  2.0986  2.8360
 9585TIP3    H228699   0.531   7.957   6.859  1.0810 -3.2087  0.3717
 9586TIP3   OH228700   7.864   7.455   6.534 -0.1910  0.0305  0.4053
 9586TIP3    H128701   7.904   7.457   6.447 -0.7782 -1.1702  0.0942
 9586TIP3    H228702   7.822   7.541   6.544  0.7823  0.5574 -0.0629
 9587TIP3   OH228703   0.206   3.647   1.137  0.3202 -0.5137 -0.4304
 9587TIP3    H128704   0.180   3.579   1.200  1.0561 -0.7059 -0.3323
 9587TIP3    H228705   0.296   3.667   1.160  0.4266 -0.2231 -1.1126
 9588TIP3   OH228706   3.970   0.428   5.870  0.0949  0.1807  0.2879
 9588TIP3    H128707   3.962   0.523   5.876  2.3839  0.3559  1.1206
 9588TIP3    H228708   4.007   0.411   5.783 -3.0585 -0.1854 -1.0405
 9589TIP3   OH228709   7.621   6.821   1.188  0.1299 -0.0826 -0.0894
 9589TIP3    H128710   7.636   6.908   1.151 -2.5041  0.7007  0.6030
 9589TIP3    H228711   7.591   6.769   1.114  0.3138 -0.0206 -0.2090
 9590TIP3   OH228712   0.162   6.186   6.739 -0.5195 -0.6403  0.0664
 9590TIP3    H128713   0.250   6.176   6.777 -0.9226 -0.1707  1.1281
 9590TIP3    H228714   0.143   6.100   6.700 -0.0440 -1.0739  0.7863
 9591TIP3   OH228715   4.960   1.806   0.165  0.5905 -0.6279 -0.2766
 9591TIP3    H128716   5.019   1.732   0.177 -2.9047 -3.4093  0.7036
 9591TIP3    H228717   4.963   1.853   0.248  2.9527  0.5312 -0.9617
 9592TIP3   OH228718   4.835   1.426   6.860  0.4541 -0.1226 -0.0604
 9592TIP3    H128719   4.797   1.503   6.902  0.5986 -0.5909  0.9485
 9592TIP3    H228720   4.924   1.420   6.897  0.1182 -1.3030  0.5957
 9593TIP3   OH228721   7.090   6.398   1.064  0.0615 -0.1009 -0.0739
 9593TIP3    H128722   7.042   6.379   1.144  2.0287 -1.4246  0.8535
 9593TIP3    H228723   7.176   6.429   1.094  1.1261 -1.3948 -1.6272
 9594TIP3   OH228724   8.268   3.989   1.348 -0.3261 -0.5668 -0.0672
 9594TIP3    H128725   8.275   4.057   1.281  0.7178 -0.4108  0.1910
 9594TIP3    H228726   8.353   3.946   1.347 -0.3512 -0.6511  1.0645
 9595TIP3   OH228727   3.636   6.599   0.196  0.4381 -0.1408 -0.1232
 9595TIP3    H128728   3.643   6.507   0.222  0.2231 -0.3807 -0.8932
 9595TIP3    H228729   3.677   6.602   0.109 -0.1311  0.3651 -0.3750
 9596TIP3   OH228730   3.824   6.358   1.971 -0.1596 -0.0554 -0.4732
 9596TIP3    H128731   3.775   6.313   1.902  0.9128  0.1692 -1.3965
 9596TIP3    H228732   3.863   6.434   1.927  0.0312  0.4384  0.5298
 9597TIP3   OH228733   2.509   2.374   6.235 -0.2773 -0.3299  0.6018
 9597TIP3    H128734   2.433   2.343   6.187 -0.0099  0.2319 -0.1853
 9597TIP3    H228735   2.548   2.441   6.179  0.0891  0.2634  1.5528
 9598TIP3   OH228736   2.245   0.109   6.709 -0.4773 -0.2787 -0.5678
 9598TIP3    H128737   2.307   0.172   6.745 -1.0169  0.4131 -0.8386
 9598TIP3    H228738   2.267   0.105   6.616 -0.7195 -0.1677 -0.6301
 9599TIP3   OH228739   2.624   0.205   5.522 -0.1006  0.2929  0.2094
 9599TIP3    H128740   2.531   0.197   5.542 -0.6884  0.7005 -2.1741
 9599TIP3    H228741   2.661   0.248   5.598 -1.5266 -1.4396  1.9534
 9600TIP3   OH228742   7.587   3.767   0.414  0.2140 -0.0508  0.1336
 9600TIP3    H128743   7.503   3.798   0.447 -0.6155 -0.6885 -1.3180
 9600TIP3    H228744   7.640   3.846   0.406  0.3323  0.1628  2.5942
 9601TIP3   OH228745   8.367   3.616   2.917 -0.4724  0.3941  0.2384
 9601TIP3    H128746   8.450   3.568   2.929  0.3508  1.3261 -1.5822
 9601TIP3    H228747   8.393   3.700   2.881 -2.0415  1.6869  2.0506
 9602TIP3   OH228748   3.032   0.256   6.209 -0.5572  0.5024 -0.6030
 9602TIP3    H128749   3.076   0.299   6.135 -0.8463 -0.3574 -1.2773
 9602TIP3    H228750   2.968   0.197   6.168 -0.1463 -0.5892  0.3180
 9603TIP3   OH228751   8.097   7.082   6.380 -0.4980 -0.4224  0.0856
 9603TIP3    H128752   8.087   7.147   6.450  2.7795 -1.8100  1.9658
 9603TIP3    H228753   8.037   7.012   6.404 -1.5031  0.3596 -0.0857
 9604TIP3   OH228754   6.649   6.971   1.044  0.0812 -0.0337 -0.3464
 9604TIP3    H128755   6.663   6.882   1.009  0.5871 -0.8124  1.7726
 9604TIP3    H228756   6.554   6.978   1.052  0.1196 -1.4017  1.9115
 9605TIP3   OH228757   1.662   1.310   5.879 -0.0213 -0.5341 -0.0018
 9605TIP3    H128758   1.617   1.373   5.935  2.0780 -0.6711  1.9017
 9605TIP3    H228759   1.699   1.246   5.939  1.9671 -0.8993 -1.5509
 9606TIP3   OH228760   4.988   0.643   6.684  0.0247  0.2191 -0.1710
 9606TIP3    H128761   4.988   0.691   6.767  0.6340  1.7701 -1.0528
 9606TIP3    H228762   4.896   0.622   6.668 -0.0260 -0.6599  1.2047
 9607TIP3   OH228763   6.495   5.306   0.623  0.4278 -0.5591 -0.1282
 9607TIP3    H128764   6.584   5.327   0.651  0.6499 -1.1837 -0.3565
 9607TIP3    H228765   6.446   5.298   0.705 -0.2671  3.3196 -0.0801
 9608TIP3   OH228766   4.277   3.896   0.492  0.1136  0.2723 -0.4892
 9608TIP3    H128767   4.345   3.959   0.465 -1.0019  0.8096 -2.1279
 9608TIP3    H228768   4.225   3.944   0.557  0.0143  0.6103 -0.8168
 9609TIP3   OH228769   0.477   5.869   1.285 -1.0305 -0.5818 -0.2566
 9609TIP3    H128770   0.444   5.922   1.357  0.5134 -0.1070  0.1314
 9609TIP3    H228771   0.506   5.932   1.220  0.7758 -0.9152  0.1913
 9610TIP3   OH228772   6.522   5.195   1.359 -0.3352 -0.2569  0.6157
 9610TIP3    H128773   6.469   5.256   1.308  0.5105  0.3853  0.4939
 9610TIP3    H228774   6.517   5.228   1.448 -0.9655 -0.7878  0.7877
 9611TIP3   OH228775   6.151   7.414   2.280 -0.4090  0.0368  0.3078
 9611TIP3    H128776   6.194   7.444   2.200 -0.3934 -0.8887 -0.0421
 9611TIP3    H228777   6.146   7.319   2.270 -0.5976 -0.0684  1.3131
 9612TIP3   OH228778   6.616   2.757   2.831  0.9158  0.2147 -0.5059
 9612TIP3    H128779   6.557   2.694   2.873  0.7070 -0.1629 -1.3619
 9612TIP3    H228780   6.578   2.842   2.852 -1.0807 -0.0888 -2.7469
 9613TIP3   OH228781   1.931   1.488   6.578 -0.7542 -0.3424 -0.0340
 9613TIP3    H128782   1.848   1.450   6.607  0.3365 -1.6861  1.4467
 9613TIP3    H228783   1.991   1.413   6.574  0.7207  0.8086  0.1894
 9614TIP3   OH228784   4.153   3.928   2.138 -0.6548  0.0272 -0.7437
 9614TIP3    H128785   4.247   3.946   2.128 -0.7905  0.5526 -1.0510
 9614TIP3    H228786   4.147   3.832   2.132  0.2591 -0.3051  2.4049
 9615TIP3   OH228787   3.552   0.705   6.461 -0.9244  0.7177  0.1525
 9615TIP3    H128788   3.624   0.732   6.405 -0.8519  0.9388  0.3518
 9615TIP3    H228789   3.544   0.775   6.526 -2.0208  1.2226 -0.5210
 9616TIP3   OH228790   3.994   1.965   4.524  0.7625  0.1896 -0.0226
 9616TIP3    H128791   3.983   2.046   4.476 -0.9510 -1.2170 -2.0667
 9616TIP3    H228792   4.056   1.914   4.472 -1.2066 -1.4029 -0.8239
 9617TIP3   OH228793   7.080   6.049   0.059 -0.1325 -0.1259 -0.5593
 9617TIP3    H128794   7.120   6.135   0.072  2.5123 -1.2750 -0.8793
 9617TIP3    H228795   7.086   6.033  -0.035 -3.6400  0.7238 -1.0026
 9618TIP3   OH228796   0.594   6.439   0.542  0.0292 -0.2646  0.0448
 9618TIP3    H128797   0.617   6.493   0.617 -0.9512 -0.6420  0.6197
 9618TIP3    H228798   0.563   6.501   0.476  0.0359 -0.0195  0.2721
 9619TIP3   OH228799   6.322   4.588   1.515 -0.6177  0.2473  0.0402
 9619TIP3    H128800   6.361   4.623   1.595 -1.6139 -0.8039  1.0137
 9619TIP3    H228801   6.348   4.495   1.514 -0.1232  0.3920 -1.1663
 9620TIP3   OH228802   7.598   2.080   4.590 -0.5839 -0.3028 -0.3269
 9620TIP3    H128803   7.543   2.075   4.668 -1.2957  0.5201 -0.7717
 9620TIP3    H228804   7.578   2.166   4.552  0.4872 -0.2870 -0.8730
 9621TIP3   OH228805   3.213   3.071   5.386 -0.5249  0.4899 -0.1500
 9621TIP3    H128806   3.152   3.014   5.433 -0.2635 -0.9482 -1.5456
 9621TIP3    H228807   3.269   3.108   5.454 -1.4841  0.0407  0.8947
 9622TIP3   OH228808   2.014   1.687   6.412 -0.3556  0.3218 -0.6896
 9622TIP3    H128809   2.039   1.759   6.470 -0.2680 -1.3458  1.4064
 9622TIP3    H228810   1.995   1.614   6.471 -3.6592 -0.4469 -2.5678
 9623TIP3   OH228811   3.839   2.696   5.661 -0.1504  0.2381 -0.3271
 9623TIP3    H128812   3.902   2.767   5.669  0.7066 -0.6820  1.5541
 9623TIP3    H228813   3.791   2.697   5.744 -0.9077 -0.6443 -0.7443
 9624TIP3   OH228814   7.807   2.843   0.733 -0.4129 -0.3653 -0.1524
 9624TIP3    H128815   7.875   2.821   0.796  0.0852 -1.6945 -1.1222
 9624TIP3    H228816   7.805   2.939   0.732  1.3903 -0.3050 -0.0519
 9625TIP3   OH228817   7.335   3.185   1.919 -0.0191  0.2387 -0.8427
 9625TIP3    H128818   7.240   3.174   1.919 -0.1216  0.9440  0.4075
 9625TIP3    H228819   7.348   3.279   1.906  0.4196  0.4944  1.2931
 9626TIP3   OH228820   3.834   1.399   6.400  0.2908  0.0984  0.2475
 9626TIP3    H128821   3.822   1.409   6.495 -0.1475  1.3938  0.0703
 9626TIP3    H228822   3.925   1.373   6.390  0.6703  1.0703  0.9745
 9627TIP3   OH228823   8.098   3.667   1.504 -0.3237  0.4011 -0.0207
 9627TIP3    H128824   8.046   3.686   1.426  1.2426  1.7843 -0.7618
 9627TIP3    H228825   8.172   3.615   1.472 -0.3633 -0.1370  0.7513
 9628TIP3   OH228826   3.633   0.397   6.849 -0.2331 -0.1029  0.3964
 9628TIP3    H128827   3.572   0.324   6.856 -1.9873  1.2196 -0.8006
 9628TIP3    H228828   3.639   0.415   6.755  0.7133  0.8497  0.6224
 9629TIP3   OH228829   6.927   1.088   5.980  0.0183  0.6625  0.8955
 9629TIP3    H128830   7.001   1.027   5.979 -0.4336  0.0930  1.5514
 9629TIP3    H228831   6.913   1.111   5.888 -0.9715 -1.6552  0.4332
 9630TIP3   OH228832   0.798   4.640   0.014  0.3887 -0.4849  0.6920
 9630TIP3    H128833   0.753   4.705   0.068 -0.7837 -0.4252 -0.3256
 9630TIP3    H228834   0.889   4.643   0.043  0.0627  0.5758  1.6491
 9631TIP3   OH228835   4.740   3.120   0.261 -0.2514 -0.2802 -0.3058
 9631TIP3    H128836   4.816   3.101   0.207 -0.2538 -0.1226 -0.3654
 9631TIP3    H228837   4.706   3.202   0.226  0.5433  0.5309  0.8135
 9632TIP3   OH228838   5.585   3.203   1.897 -0.7307 -0.2339  0.3762
 9632TIP3    H128839   5.656   3.229   1.956  0.3778 -0.7751 -0.7153
 9632TIP3    H228840   5.602   3.251   1.816 -0.6941 -1.6163 -0.4443
 9633TIP3   OH228841   4.612   3.848   1.135  0.7868  0.1047 -0.0065
 9633TIP3    H128842   4.579   3.920   1.082  1.0166  1.9009  2.2095
 9633TIP3    H228843   4.549   3.777   1.122 -0.1654  1.1515 -1.1841
 9634TIP3   OH228844   8.506   7.221   4.955  0.3389 -0.2467  0.5795
 9634TIP3    H128845   8.503   7.164   4.878  0.9985 -0.0980  0.4431
 9634TIP3    H228846   8.420   7.262   4.957 -0.2450 -1.4447  0.8322
 9635TIP3   OH228847   1.589   1.463   6.084  0.2651  0.1572 -0.0201
 9635TIP3    H128848   1.648   1.480   6.157 -0.1162  1.9057 -0.0932
 9635TIP3    H228849   1.606   1.535   6.023 -1.0673 -0.0123 -0.6020
 9636TIP3   OH228850   6.516   6.800   0.703 -0.4961  0.6705  0.3020
 9636TIP3    H128851   6.456   6.874   0.687 -1.4616  0.0919  1.1789
 9636TIP3    H228852   6.461   6.734   0.745  1.7316  1.8799  5.4496
 9637TIP3   OH228853   5.230   4.810   0.701 -0.0398 -0.3045 -0.3910
 9637TIP3    H128854   5.248   4.782   0.611 -2.8190  1.3127 -1.5344
 9637TIP3    H228855   5.268   4.897   0.708  0.2247 -0.4507  0.0327
 9638TIP3   OH228856   4.956   2.553   6.712  0.4278 -0.2377 -0.2962
 9638TIP3    H128857   5.049   2.562   6.735  0.4566  0.6785 -0.7397
 9638TIP3    H228858   4.938   2.630   6.658 -0.3426 -0.9390 -1.0363
 9639TIP3   OH228859   7.255   5.126   0.861  0.7645  0.2226 -0.3862
 9639TIP3    H128860   7.197   5.199   0.883  1.1705 -0.0504  1.6769
 9639TIP3    H228861   7.340   5.167   0.849  0.7008  0.2758 -0.6521
 9640TIP3   OH228862   2.019   0.730   6.373  0.4655 -0.1384  0.4763
 9640TIP3    H128863   2.083   0.670   6.335  0.5421 -0.2282  0.7457
 9640TIP3    H228864   2.072   0.790   6.426  0.0054 -2.3890  3.6130
 9641TIP3   OH228865   2.568   2.187   5.848  0.2424  0.7369 -0.1766
 9641TIP3    H128866   2.598   2.196   5.757  0.2059  0.5048 -0.2110
 9641TIP3    H228867   2.497   2.251   5.856  0.6906  1.2274 -0.1214
 9642TIP3   OH228868   6.905   6.334   3.069  0.6735 -0.1541  0.3043
 9642TIP3    H128869   6.891   6.349   2.976  0.5921  0.1498  0.3638
 9642TIP3    H228870   6.906   6.239   3.078  2.4034 -0.1959 -0.2463
 9643TIP3   OH228871   8.067   3.092   0.455 -0.0333  0.2925 -0.4995
 9643TIP3    H128872   8.069   3.071   0.362 -1.7417  1.3755 -0.8026
 9643TIP3    H228873   8.139   3.042   0.492  0.1351 -0.8179 -2.2575
 9644TIP3   OH228874   4.413   0.194   5.091  0.3941 -0.4239 -0.1441
 9644TIP3    H128875   4.349   0.225   5.027 -1.9727 -0.1991  2.2432
 9644TIP3    H228876   4.362   0.138   5.151  2.7461 -1.4896  0.9300
 9645TIP3   OH228877   5.376   1.072   6.214  0.4286  0.0174  0.3837
 9645TIP3    H128878   5.318   0.996   6.214 -0.6305  0.8153 -0.2239
 9645TIP3    H228879   5.449   1.047   6.271 -1.1239 -0.5279  2.1871
 9646TIP3   OH228880   0.836   4.818   0.419  0.2756  0.5464 -0.2437
 9646TIP3    H128881   0.929   4.828   0.399  0.3168 -1.6733 -1.2875
 9646TIP3    H228882   0.831   4.739   0.472 -1.0789  0.2358 -0.8054
 9647TIP3   OH228883   5.608   4.652   0.826 -0.0852  0.9563  0.1931
 9647TIP3    H128884   5.687   4.640   0.877  1.4140  1.7955 -1.8609
 9647TIP3    H228885   5.589   4.565   0.791 -0.4677  0.6163  1.2295
 9648TIP3   OH228886   3.067   1.335   6.806 -0.2917 -0.0710 -0.0407
 9648TIP3    H128887   3.069   1.426   6.836 -0.2932 -0.3260  0.7343
 9648TIP3    H228888   3.054   1.342   6.711 -0.8984  0.7245  0.0926
 9649TIP3   OH228889   1.516   2.081   6.251  0.1324  0.3969  0.1717
 9649TIP3    H128890   1.510   2.122   6.337 -0.1992  0.5434  0.0794
 9649TIP3    H228891   1.576   2.137   6.202 -0.0516  0.5796  0.1553
 9650TIP3   OH228892   6.892   4.511   0.968  0.2788 -0.2241  0.6818
 9650TIP3    H128893   6.879   4.427   0.923  0.9328 -0.2629  0.5631
 9650TIP3    H228894   6.850   4.499   1.053 -0.7931 -0.2214  0.1681
 9651TIP3   OH228895   4.233   1.682   6.823  0.1621  0.0098  0.4002
 9651TIP3    H128896   4.207   1.774   6.815  0.8368  0.0954 -0.9457
 9651TIP3    H228897   4.157   1.633   6.791  0.8496  0.1937 -1.5523
 9652TIP3   OH228898   7.526   2.692   2.269  0.0066 -0.5344 -0.2201
 9652TIP3    H128899   7.486   2.700   2.182 -0.9120  0.4052  0.2604
 9652TIP3    H228900   7.577   2.773   2.278 -0.5611 -0.2481  0.4295
 9653TIP3   OH228901   2.224   2.700   6.897 -0.0895  0.2507  0.8508
 9653TIP3    H128902   2.192   2.652   6.973  1.2367 -1.1194  0.5726
 9653TIP3    H228903   2.287   2.763   6.932  0.6422 -0.4906  0.9061
 9654TIP3   OH228904   6.960   5.621   0.249  0.1687 -0.0957  0.0659
 9654TIP3    H128905   6.996   5.709   0.256  1.1001 -0.4232 -0.6310
 9654TIP3    H228906   6.882   5.623   0.305 -0.5858  1.5595 -1.0363
 9655TIP3   OH228907   4.771   1.437   3.758 -0.1130  0.5098  0.4101
 9655TIP3    H128908   4.762   1.344   3.782 -1.3389  0.3210 -0.6901
 9655TIP3    H228909   4.720   1.483   3.824 -0.2538  0.3232  0.4332
 9656TIP3   OH228910   4.971   0.300   6.691 -0.4026  0.1322 -0.0618
 9656TIP3    H128911   4.953   0.332   6.603  1.8126 -0.6590 -0.8454
 9656TIP3    H228912   4.937   0.210   6.692 -0.7518  0.2654  0.0082
 9657TIP3   OH228913   1.469   7.935   6.342 -0.1734  0.3079  0.3322
 9657TIP3    H128914   1.537   7.941   6.409 -0.2695  0.0606  0.4508
 9657TIP3    H228915   1.408   7.870   6.375 -0.9247  1.1459  0.6235
 9658TIP3   OH228916   7.320   5.129   1.494 -0.1532  0.3089  0.1506
 9658TIP3    H128917   7.330   5.034   1.485  2.3082  0.5217  0.3541
 9658TIP3    H228918   7.316   5.161   1.404 -1.9736 -0.0480  0.0774
 9659TIP3   OH228919   1.682   3.214   5.837 -0.0504  0.0635  0.1325
 9659TIP3    H128920   1.675   3.126   5.800  3.0096  0.1156 -0.6923
 9659TIP3    H228921   1.592   3.237   5.862 -1.5385 -1.6646 -3.3614
 9660TIP3   OH228922   3.695   1.092   6.512  0.7384  0.2164  0.8203
 9660TIP3    H128923   3.697   1.167   6.572  2.3397  0.8944 -0.0500
 9660TIP3    H228924   3.605   1.090   6.480  0.2318  0.7083  2.1463
 9661TIP3   OH228925   4.344   4.494   1.375 -0.1564 -0.3816 -0.2231
 9661TIP3    H128926   4.319   4.539   1.455 -0.1637 -2.0882  0.7531
 9661TIP3    H228927   4.404   4.554   1.331 -0.2139  0.5919  1.0286
 9662TIP3   OH228928   3.467   3.842   6.833 -0.1493  0.3958  0.9852
 9662TIP3    H128929   3.524   3.834   6.909  0.1892  0.0297  0.6956
 9662TIP3    H228930   3.435   3.753   6.816  0.2165  0.3758  0.3664
 9663TIP3   OH228931   8.329   7.768   5.871 -0.0771  0.5159  0.4110
 9663TIP3    H128932   8.389   7.712   5.821 -0.0027  1.3876 -0.4983
 9663TIP3    H228933   8.267   7.707   5.911  0.9697 -0.3423  0.7594
 9664TIP3   OH228934   7.168   6.644   5.959 -0.1609 -0.6131 -0.1229
 9664TIP3    H128935   7.146   6.551   5.959  0.3741 -0.7632  2.1664
 9664TIP3    H228936   7.085   6.688   5.977 -0.0586 -0.7538  0.7029
 9665TIP3   OH228937   1.162   8.020   6.154 -0.2184 -0.3024  0.3777
 9665TIP3    H128938   1.201   8.054   6.074  0.8876  1.3540  1.5805
 9665TIP3    H228939   1.191   7.928   6.158  3.9372  0.9213  1.3761
 9666TIP3   OH228940   7.284   3.211   1.150  0.1332  0.7873  0.8801
 9666TIP3    H128941   7.315   3.159   1.224 -0.2466 -0.7832 -0.0494
 9666TIP3    H228942   7.313   3.300   1.170  1.4397  0.1015  2.1351
 9667TIP3   OH228943   6.975   4.110   2.149  0.2378  0.2545  0.0900
 9667TIP3    H128944   7.034   4.149   2.213  0.1673  0.2715  0.1442
 9667TIP3    H228945   6.897   4.087   2.199  0.5029 -0.4817  0.1678
 9668TIP3   OH228946   2.557   1.144   4.904  0.1724  0.3682 -0.3889
 9668TIP3    H128947   2.624   1.093   4.860  0.1230 -0.3402  0.3298
 9668TIP3    H228948   2.519   1.083   4.968  0.1420  1.3149  0.5128
 9669TIP3   OH228949   4.951   3.549   3.321 -0.2644 -0.1607  0.5884
 9669TIP3    H128950   4.872   3.567   3.372 -1.2349 -2.6338  0.0334
 9669TIP3    H228951   4.937   3.597   3.239 -1.8102 -1.6231 -0.0300
 9670TIP3   OH228952   7.830   7.980   6.020  0.0511  0.0775  0.0218
 9670TIP3    H128953   7.805   8.071   6.004  2.8453  0.4189 -2.7689
 9670TIP3    H228954   7.783   7.929   5.954 -0.6957 -0.4090  0.9127
 9671TIP3   OH228955   1.085   5.508   0.448 -0.0125  0.2716  0.2109
 9671TIP3    H128956   1.059   5.473   0.363  2.3350 -0.1898 -0.3396
 9671TIP3    H228957   1.133   5.589   0.427  0.3917  0.2657  1.1001
 9672TIP3   OH228958   2.312   1.896   5.434  0.2831 -0.2597  0.0302
 9672TIP3    H128959   2.344   1.899   5.525 -0.0799  0.3371  0.1430
 9672TIP3    H228960   2.348   1.815   5.399  0.2597 -0.6010  0.7717
 9673TIP3   OH228961   2.721   0.801   5.875  0.1607 -0.4515  0.4364
 9673TIP3    H128962   2.794   0.840   5.923  1.0425  0.5923 -1.6980
 9673TIP3    H228963   2.719   0.849   5.792 -1.7101 -1.8148 -0.3246
 9674TIP3   OH228964   4.479   1.543   5.058 -0.3266  0.4928  0.1022
 9674TIP3    H128965   4.532   1.467   5.081 -1.9612 -0.9856 -0.8740
 9674TIP3    H228966   4.493   1.606   5.129  1.4688 -0.4966  0.6374
 9675TIP3   OH228967   8.489   0.858   0.620  0.0483  0.1630 -0.3796
 9675TIP3    H128968   8.517   0.809   0.543  2.6391 -0.5513  0.9738
 9675TIP3    H228969   8.440   0.794   0.672  2.4458 -0.7451  0.8359
 9676TIP3   OH228970   2.111   2.137   5.713  0.2109 -0.5203  0.4775
 9676TIP3    H128971   2.174   2.151   5.783  0.7316 -1.4349  0.2078
 9676TIP3    H228972   2.142   2.191   5.641 -0.6460  0.8680  1.1308
 9677TIP3   OH228973   7.593   4.656   0.296 -0.4081 -0.3756  0.7160
 9677TIP3    H128974   7.685   4.634   0.279 -0.9112 -1.2297 -1.0129
 9677TIP3    H228975   7.593   4.751   0.308  0.4025 -0.0729 -1.4481
 9678TIP3   OH228976   1.843   6.834   6.491 -0.1756 -0.4784  0.6491
 9678TIP3    H128977   1.833   6.786   6.574  0.7295  0.2869  1.2048
 9678TIP3    H228978   1.935   6.822   6.467 -0.5186 -1.0220 -0.4610
 9679TIP3   OH228979   7.095   6.305   0.211  0.4092  0.2251  0.4169
 9679TIP3    H128980   7.083   6.333   0.301 -1.3888 -0.8483  0.5269
 9679TIP3    H228981   7.010   6.319   0.169  0.4475 -1.7742 -0.4074
 9680TIP3   OH228982   5.580   6.226   0.508  0.0618 -0.2771  0.6747
 9680TIP3    H128983   5.630   6.145   0.520 -1.8224 -1.3614  1.3654
 9680TIP3    H228984   5.519   6.228   0.582 -0.3380  1.4600  0.3199
 9681TIP3   OH228985   3.283   1.119   4.082  0.3002 -0.2939 -0.4610
 9681TIP3    H128986   3.331   1.182   4.028 -1.2802  0.1145 -1.4087
 9681TIP3    H228987   3.199   1.107   4.037  0.0442 -2.0498  0.4339
 9682TIP3   OH228988   7.247   5.521   0.775 -0.0509  0.4976 -0.0551
 9682TIP3    H128989   7.326   5.538   0.723 -0.2345 -0.3829 -0.6310
 9682TIP3    H228990   7.202   5.605   0.779  0.0502  0.6040 -1.1637
 9683TIP3   OH228991   8.181   4.102   2.385 -0.7473  0.2780 -0.2327
 9683TIP3    H128992   8.193   4.035   2.452  0.4443 -0.0010 -0.7150
 9683TIP3    H228993   8.266   4.146   2.380 -1.5059  1.8087  0.0591
 9684TIP3   OH228994   3.920   1.093   5.227  0.5449  0.6046 -0.2763
 9684TIP3    H128995   3.963   1.097   5.312  0.2676 -0.2531 -0.0917
 9684TIP3    H228996   3.827   1.107   5.246  0.3524 -0.5859 -0.3157
 9685TIP3   OH228997   1.855   0.936   6.030 -0.7156 -0.0790  0.1740
 9685TIP3    H128998   1.820   1.016   6.070  0.3608 -0.0314  1.0366
 9685TIP3    H228999   1.835   0.867   6.093  1.5559  0.1009  1.1282
 9686TIP3   OH229000   6.960   7.991   6.554  0.3888 -0.5422  0.2489
 9686TIP3    H129001   7.043   8.030   6.527  0.1423  0.1642  0.4778
 9686TIP3    H229002   6.917   7.966   6.472 -0.8897  2.6906 -0.1576
 9687TIP3   OH229003   2.068   1.779   6.691 -0.6632 -0.2025  0.3493
 9687TIP3    H129004   2.141   1.737   6.645 -0.7032  0.8303 -0.6868
 9687TIP3    H229005   2.089   1.770   6.784  1.4949  1.3107  0.0340
 9688TIP3   OH229006   7.678   5.568   0.383 -0.2009 -0.4983 -0.2105
 9688TIP3    H129007   7.691   5.662   0.368  2.0325 -1.0708 -2.2499
 9688TIP3    H229008   7.608   5.543   0.322 -0.9442 -0.1445  0.4839
 9689TIP3   OH229009   4.972   3.076   6.689 -0.3187  0.1550  0.1273
 9689TIP3    H129010   4.893   3.112   6.648  0.6408  1.6944 -0.3966
 9689TIP3    H229011   5.039   3.142   6.674  0.7403 -0.5263  1.7772
 9690TIP3   OH229012   4.143   1.776   6.406 -0.1157  0.3811  0.0945
 9690TIP3    H129013   4.077   1.752   6.342  1.6057  1.3325 -2.0904
 9690TIP3    H229014   4.136   1.871   6.414  0.3663  0.3840  0.5643
 9691TIP3   OH229015   3.062   1.735   5.850 -0.5023  0.4984 -0.2681
 9691TIP3    H129016   3.030   1.676   5.918 -0.1854 -0.2558 -0.7631
 9691TIP3    H229017   3.141   1.774   5.886 -0.3620  0.1360 -0.1835
 9692TIP3   OH229018   5.346   0.592   6.061 -0.8686 -0.6293  0.7031
 9692TIP3    H129019   5.347   0.520   6.125 -0.3447 -2.0008 -0.8004
 9692TIP3    H229020   5.337   0.548   5.976 -2.0389  1.1767 -0.1447
 9693TIP3   OH229021   6.344   7.133   1.319 -0.6296  0.0037 -0.0223
 9693TIP3    H129022   6.347   7.048   1.363 -1.1006  0.4801  0.9470
 9693TIP3    H229023   6.435   7.155   1.302 -0.4956 -0.6015 -0.0795
 9694TIP3   OH229024   5.895   2.779   3.127 -0.2550 -0.4175  0.1526
 9694TIP3    H129025   5.833   2.851   3.138 -1.1840 -1.1831  0.0094
 9694TIP3    H229026   5.966   2.800   3.188 -1.0921  0.0049  1.0072
 9695TIP3   OH229027   3.694   2.003   6.620  0.7974 -0.2202 -0.5655
 9695TIP3    H129028   3.737   1.932   6.668  0.7707 -0.0434 -0.2774
 9695TIP3    H229029   3.652   1.960   6.546 -1.0022 -0.8034  0.7600
 9696TIP3   OH229030   2.581   2.413   3.971 -0.5150  0.1421  0.2502
 9696TIP3    H129031   2.625   2.418   4.056 -0.5481 -0.6859  0.3267
 9696TIP3    H229032   2.592   2.500   3.933  0.7727  0.0907  0.4790
 9697TIP3   OH229033   5.695   4.327   1.819 -0.2849  0.2569  0.4793
 9697TIP3    H129034   5.779   4.369   1.801  0.2402 -0.7459  0.5756
 9697TIP3    H229035   5.693   4.314   1.914 -0.4835  0.1532  0.4629
 9698TIP3   OH229036   1.287   0.045   5.398  0.7450  0.4282  1.0371
 9698TIP3    H129037   1.302  -0.004   5.318  1.2428  0.7345  0.9363
 9698TIP3    H229038   1.218   0.108   5.376 -0.7159 -0.9844  1.5013
 9699TIP3   OH229039   6.424   4.746   0.906  0.1753  0.1483 -0.1733
 9699TIP3    H129040   6.461   4.706   0.828  1.9882 -1.4111  1.4666
 9699TIP3    H229041   6.329   4.742   0.892  0.4876  0.7096 -2.6678
 9700TIP3   OH229042   7.451   3.066   0.691  0.5560 -0.3672  0.0149
 9700TIP3    H129043   7.453   2.994   0.628 -1.0750 -1.3989  1.1120
 9700TIP3    H229044   7.524   3.048   0.751  3.8280  2.0643 -3.0684
 9701TIP3   OH229045   7.282   4.871   5.817  0.4707  0.5252 -0.0048
 9701TIP3    H129046   7.301   4.795   5.762 -0.7154  1.3633 -1.6183
 9701TIP3    H229047   7.298   4.946   5.760 -0.5494  1.4068  0.8554
 9702TIP3   OH229048   6.165   3.353   1.757  0.0099 -0.8801 -0.3390
 9702TIP3    H129049   6.145   3.446   1.748  0.0768 -0.8009  0.3340
 9702TIP3    H229050   6.172   3.322   1.666  2.5859  0.3252 -0.6090
 9703TIP3   OH229051   3.541   1.156   5.556 -0.0684  0.2284 -0.3565
 9703TIP3    H129052   3.551   1.162   5.651 -2.3027  0.7201 -0.1388
 9703TIP3    H229053   3.450   1.180   5.539  0.1118 -0.5087 -2.5700
 9704TIP3   OH229054   6.219   1.116   6.710  0.3670  0.0599  1.0288
 9704TIP3    H129055   6.248   1.037   6.755  0.7635  0.1048  0.8458
 9704TIP3    H229056   6.177   1.085   6.630  0.5304  0.0371  0.9529
 9705TIP3   OH229057   4.787   3.796   0.385 -0.2953  0.2720 -0.5356
 9705TIP3    H129058   4.714   3.856   0.369 -0.9456 -0.3836 -0.0451
 9705TIP3    H229059   4.787   3.738   0.309  0.9596  1.4981 -1.5030
 9706TIP3   OH229060   3.101   5.265   2.870  0.2047 -0.1104  0.2147
 9706TIP3    H129061   3.126   5.257   2.778 -0.3394 -2.5441  0.2199
 9706TIP3    H229062   3.183   5.252   2.918  0.0892 -1.4631  0.0903
 9707TIP3   OH229063   1.417   0.513   1.572 -0.4059 -0.7185 -0.0100
 9707TIP3    H129064   1.432   0.418   1.575 -0.9659 -0.7752  1.3213
 9707TIP3    H229065   1.334   0.526   1.617 -1.1046  0.2690 -1.5393
 9708TIP3   OH229066   5.149   5.734   2.192 -0.5242 -0.0308 -0.0459
 9708TIP3    H129067   5.075   5.786   2.161 -0.5028  0.4459  0.6992
 9708TIP3    H229068   5.224   5.768   2.143 -0.6280  0.1740 -0.0631
 9709TIP3   OH229069   5.571   2.581   5.476  0.4633  0.1530  0.1775
 9709TIP3    H129070   5.663   2.556   5.466  1.3056  2.1712  2.2707
 9709TIP3    H229071   5.547   2.547   5.563 -0.6158  0.1147 -0.1331
 9710TIP3   OH229072   6.613   2.215   2.838  0.0274 -0.0661  0.2657
 9710TIP3    H129073   6.570   2.227   2.753  0.2370  0.7507  0.2734
 9710TIP3    H229074   6.591   2.126   2.863 -0.2683 -0.2189 -0.5212
 9711TIP3   OH229075   1.322   5.010   0.213  0.1144 -0.0102 -0.4716
 9711TIP3    H129076   1.328   5.018   0.118  1.9175 -1.1204 -0.4536
 9711TIP3    H229077   1.324   5.101   0.244 -2.7687  0.5168 -1.5708
 9712TIP3   OH229078   5.541   0.938   5.104 -0.6024  0.1427 -0.2378
 9712TIP3    H129079   5.450   0.931   5.075 -1.3702 -1.4847  2.4480
 9712TIP3    H229080   5.559   0.854   5.147  1.1241  1.6964  2.1828
 9713TIP3   OH229081   6.342   5.792   0.921 -0.3583  0.4807 -0.3909
 9713TIP3    H129082   6.272   5.849   0.890 -0.4139  0.0716 -1.0342
 9713TIP3    H229083   6.376   5.836   0.999 -2.5307 -0.2282  1.0081
 9714TIP3   OH229084   5.252   5.219   1.060  0.2496 -0.0526  0.4935
 9714TIP3    H129085   5.208   5.160   1.000 -3.3114  1.3740  1.5549
 9714TIP3    H229086   5.242   5.306   1.020 -0.0599  0.6002  1.9557
 9715TIP3   OH229087   7.533   0.185   1.412  0.1240  0.3779  0.7066
 9715TIP3    H129088   7.472   0.113   1.429  2.2885 -1.0113  2.8720
 9715TIP3    H229089   7.538   0.232   1.496  1.0323  1.2485  0.1694
 9716TIP3   OH229090   2.004   2.033   5.474  0.4167  0.2196  0.2816
 9716TIP3    H129091   1.909   2.028   5.460  0.2627 -0.9526  1.6404
 9716TIP3    H229092   2.014   2.053   5.567  1.5126  1.1400 -0.0109
 9717TIP3   OH229093   5.004   4.053   0.138 -0.2513 -0.1210  0.1942
 9717TIP3    H129094   5.052   4.134   0.118 -0.7881  0.0626 -0.3746
 9717TIP3    H229095   4.916   4.083   0.160 -1.5664 -0.7678 -3.7080
 9718TIP3   OH229096   6.242   1.818   6.911  0.0296 -0.2887  0.4682
 9718TIP3    H129097   6.306   1.798   6.842  0.3641  0.1006  0.6627
 9718TIP3    H229098   6.183   1.743   6.911  0.8831 -0.9646  0.7455
 9719TIP3   OH229099   3.668   2.959   5.884 -0.3688 -0.1427  0.3589
 9719TIP3    H129100   3.589   2.905   5.873  0.6286 -1.1251 -2.3479
 9719TIP3    H229101   3.649   3.039   5.834 -0.7099  0.8130  1.9881
 9720TIP3   OH229102   6.086   4.898   0.775  0.2599  0.5398 -0.2456
 9720TIP3    H129103   6.058   4.836   0.708  0.9400 -0.2352  0.1807
 9720TIP3    H229104   6.088   4.982   0.730  0.3481  0.0866 -1.1042
 9721TIP3   OH229105   8.446   3.764  -0.002  0.5468  0.4173 -1.1346
 9721TIP3    H129106   8.494   3.812   0.065  3.4008 -2.8334 -0.6761
 9721TIP3    H229107   8.389   3.705   0.047 -2.1256  2.4616 -1.6794
 9722TIP3   OH229108   4.066   1.609   6.601  0.0239 -0.4394  0.0881
 9722TIP3    H129109   4.115   1.527   6.594  1.6704  0.6844 -2.2897
 9722TIP3    H229110   4.102   1.665   6.532 -2.1213  1.7534  0.6524
 9723TIP3   OH229111   3.311   7.966   6.691  0.3386 -0.5168  0.3372
 9723TIP3    H129112   3.348   8.042   6.736 -0.4625 -0.0659  0.2435
 9723TIP3    H229113   3.248   8.003   6.629 -0.2737 -1.2757  0.5002
 9724TIP3   OH229114   1.266   5.772   1.150  0.1689  0.5519 -0.1287
 9724TIP3    H129115   1.321   5.772   1.071  1.3238  1.5867  0.6595
 9724TIP3    H229116   1.326   5.748   1.221 -0.5732  0.8954  0.6220
 9725TIP3   OH229117   4.670   2.270   5.693  0.0500  0.6283  0.2437
 9725TIP3    H129118   4.751   2.297   5.737  1.1926 -0.6634 -1.0734
 9725TIP3    H229119   4.609   2.253   5.765  1.0667  1.1573  1.2501
 9726TIP3   OH229120   0.852   4.647   0.685  0.1893  0.0106  0.0117
 9726TIP3    H129121   0.778   4.708   0.675  0.5754  0.3161 -1.0185
 9726TIP3    H229122   0.812   4.560   0.684 -0.1932  0.1889 -0.1631
 9727TIP3   OH229123   6.045   3.915   0.588  0.1177  0.0123  0.3145
 9727TIP3    H129124   6.057   3.951   0.676 -0.1334  1.2818 -0.1612
 9727TIP3    H229125   6.016   3.990   0.535 -1.6347 -1.1511 -0.4197
 9728TIP3   OH229126   1.894   5.091   0.503  0.0324 -0.2143  0.0442
 9728TIP3    H129127   1.959   5.135   0.448 -0.5455  0.8126  0.1702
 9728TIP3    H229128   1.829   5.159   0.523  0.9845 -0.1651  3.2113
 9729TIP3   OH229129   5.569   1.206   5.290  0.4564  0.5242  0.4581
 9729TIP3    H129130   5.538   1.213   5.199  2.2004  1.7270 -0.0922
 9729TIP3    H229131   5.630   1.132   5.288  0.6010  0.6398  0.6038
 9730TIP3   OH229132   1.022   4.705   1.307  0.1301  0.5214  0.1490
 9730TIP3    H129133   1.028   4.616   1.272 -1.1325  1.0269 -1.4678
 9730TIP3    H229134   0.950   4.701   1.370  1.1446  0.0352  1.2792
 9731TIP3   OH229135   3.508   7.546   6.833 -0.2361  0.4242  0.1761
 9731TIP3    H129136   3.459   7.479   6.881  1.6799 -0.7445  0.5367
 9731TIP3    H229137   3.569   7.497   6.778  0.7214  1.8600 -0.0791
 9732TIP3   OH229138   3.023   7.518   6.480  0.2746 -1.0903  0.1996
 9732TIP3    H129139   2.951   7.543   6.538  0.1387  0.3637 -0.5676
 9732TIP3    H229140   3.102   7.549   6.525  0.1231  0.5918 -0.6477
 9733TIP3   OH229141   0.047   4.047   1.751 -0.3445 -0.7817 -0.4292
 9733TIP3    H129142  -0.025   3.987   1.733 -0.8949 -0.7652  1.5726
 9733TIP3    H229143   0.020   4.094   1.830  1.3009  0.1331 -0.3773
 9734TIP3   OH229144   5.747   4.045   0.430 -0.0897  0.3019 -0.1578
 9734TIP3    H129145   5.838   4.036   0.402 -0.0856  0.3073 -0.1470
 9734TIP3    H229146   5.697   3.990   0.369  0.0903 -0.9337  0.7937
 9735TIP3   OH229147   1.146   4.947   0.441  0.1481 -0.0868 -0.3150
 9735TIP3    H129148   1.198   4.883   0.489 -0.0411 -0.8794 -1.1481
 9735TIP3    H229149   1.201   4.970   0.366 -0.3682 -0.3291 -0.7686
 9736TIP3   OH229150   0.787   5.147   0.749 -0.3320 -0.1953 -0.1061
 9736TIP3    H129151   0.779   5.136   0.655 -0.3685  0.8157 -0.2299
 9736TIP3    H229152   0.833   5.231   0.760 -2.1198  0.6981  0.7873
 9737TIP3   OH229153   5.453   0.372   6.566 -0.1721  0.3649 -0.0268
 9737TIP3    H129154   5.367   0.411   6.577  0.2337  1.4544 -0.7000
 9737TIP3    H229155   5.435   0.278   6.557 -1.2608  0.5520  0.1252
 9738TIP3   OH229156   3.283   0.077   5.593  0.1476  0.3832  0.6805
 9738TIP3    H129157   3.264   0.057   5.684 -0.1600 -2.3479  0.0487
 9738TIP3    H229158   3.370   0.042   5.578 -0.1237  0.0966 -0.2734
 9739TIP3   OH229159   5.716   4.266   6.151  0.1073 -0.2774 -0.3027
 9739TIP3    H129160   5.642   4.325   6.150 -0.2555 -0.7261 -0.0579
 9739TIP3    H229161   5.760   4.280   6.066 -0.8759 -0.7973 -0.9042
 9740TIP3   OH229162   7.832   7.899   6.852 -0.1232  0.6538 -0.3082
 9740TIP3    H129163   7.812   7.936   6.937 -0.9564  0.9987 -0.6458
 9740TIP3    H229164   7.847   7.975   6.796  1.0012  0.4163 -0.3298
 9741TIP3   OH229165   1.056   5.396   0.190 -0.2518 -0.4087 -0.4162
 9741TIP3    H129166   1.124   5.329   0.191  1.0251  0.8488 -0.7374
 9741TIP3    H229167   0.975   5.349   0.209  0.6121 -2.0363 -0.6779
 9742TIP3   OH229168   5.066   1.057   4.940 -0.0033  0.0918 -0.1732
 9742TIP3    H129169   5.138   1.039   5.000  0.4808  0.2801 -0.6921
 9742TIP3    H229170   5.101   1.035   4.853 -0.6791 -0.1352 -0.3882
 9743TIP3   OH229171   6.367   0.899   5.858 -0.3214 -0.0386 -0.0509
 9743TIP3    H129172   6.302   0.876   5.925 -0.7380  1.3254  0.0151
 9743TIP3    H229173   6.449   0.908   5.907 -0.6036  0.8490  0.2652
 9744TIP3   OH229174   2.046   2.445   0.232  0.0870  0.1531 -0.2943
 9744TIP3    H129175   2.098   2.376   0.193 -0.9645 -0.5341 -0.5173
 9744TIP3    H229176   1.967   2.400   0.263 -0.4569  1.1963 -0.1534
 9745TIP3   OH229177   5.687   2.609   5.858 -0.3073  0.5476  0.1464
 9745TIP3    H129178   5.702   2.703   5.856  0.5244  0.4446  1.2017
 9745TIP3    H229179   5.735   2.575   5.783 -2.6616  1.2262 -1.7401
 9746TIP3   OH229180   8.130   0.493   4.965 -0.0001  0.3673  0.5310
 9746TIP3    H129181   8.122   0.517   4.872 -0.3122 -3.1389 -0.4191
 9746TIP3    H229182   8.212   0.534   4.993  1.5398 -0.7780 -2.0957
 9747TIP3   OH229183   7.347   4.008   1.075 -0.6148 -0.3910 -0.5672
 9747TIP3    H129184   7.402   3.948   1.124  0.1173 -0.7890 -1.8623
 9747TIP3    H229185   7.298   4.056   1.142 -0.5931 -1.8360  0.4940
 9748TIP3   OH229186   6.835   0.421   5.863 -0.1029 -0.2134 -0.2611
 9748TIP3    H129187   6.754   0.382   5.896  0.4598 -0.5397  0.7345
 9748TIP3    H229188   6.839   0.508   5.904  0.2308 -0.3332 -0.0401
 9749TIP3   OH229189   1.063   5.004   2.185 -0.5428 -0.7792 -0.2958
 9749TIP3    H129190   1.029   5.089   2.159 -1.1722 -0.8089  0.4342
 9749TIP3    H229191   1.158   5.014   2.183 -0.6246  0.5674  1.8859
 9750TIP3   OH229192   6.031   1.308   5.368 -0.1330 -0.2285 -0.2022
 9750TIP3    H129193   6.122   1.310   5.340  0.4522  1.3133  1.7078
 9750TIP3    H229194   6.011   1.215   5.382  1.7931 -0.4320  1.3912
 9751TIP3   OH229195   7.469   0.050   5.503  0.2693 -0.5355 -0.3049
 9751TIP3    H129196   7.490   0.027   5.412  0.0106  1.4563 -0.8799
 9751TIP3    H229197   7.397   0.112   5.497  0.0230 -0.6404  1.2886
 9752TIP3   OH229198   1.471   0.081   0.060 -0.3407  0.4842  0.1968
 9752TIP3    H129199   1.483   0.163   0.011  0.8083  0.3146  0.1914
 9752TIP3    H229200   1.450   0.016  -0.006 -0.3283  0.5812  0.0979
 9753TIP3   OH229201   5.413   3.132   2.555 -0.5019  0.0005 -0.0264
 9753TIP3    H129202   5.333   3.080   2.559 -0.1778 -0.7322 -2.1279
 9753TIP3    H229203   5.390   3.206   2.498 -0.2146  0.7993  0.8805
 9754TIP3   OH229204   7.946   0.812   4.879 -0.1946  0.3152  0.9408
 9754TIP3    H129205   7.936   0.764   4.797  0.0075  1.8137  0.0180
 9754TIP3    H229206   7.882   0.773   4.938  0.9779 -2.0767  0.7012
 9755TIP3   OH229207   1.251   3.408   2.672  0.1465 -0.3904  0.4173
 9755TIP3    H129208   1.321   3.384   2.611  0.3046 -0.6679  0.7056
 9755TIP3    H229209   1.270   3.498   2.696  1.6865 -1.1582  2.2173
 9756TIP3   OH229210   0.591   3.546   0.941  0.1108 -0.2338 -0.4855
 9756TIP3    H129211   0.671   3.580   0.903 -1.3180  3.2940 -0.5696
 9756TIP3    H229212   0.521   3.582   0.886 -1.6605 -0.6109  1.4332
 9757TIP3   OH229213   0.194   6.692   0.149 -0.3320 -0.0349  0.1534
 9757TIP3    H129214   0.277   6.706   0.104 -0.7743  0.1121 -0.6267
 9757TIP3    H229215   0.129   6.684   0.079 -1.0715  0.4908  0.7639
 9758TIP3   OH229216   0.909   3.645   1.830  0.3494  0.1447  0.5021
 9758TIP3    H129217   0.912   3.636   1.925  0.7848 -0.1450  0.4617
 9758TIP3    H229218   0.815   3.640   1.808  0.3739 -1.6674  0.7332
 9759TIP3   OH229219   2.257   7.068   6.079  0.5136  0.2814 -0.3433
 9759TIP3    H129220   2.327   7.072   6.014 -0.0193 -2.0456 -1.0988
 9759TIP3    H229221   2.290   7.118   6.153  2.8567 -0.5532 -0.7917
 9760TIP3   OH229222   7.000   3.303   5.236 -0.2809  0.0902 -0.0949
 9760TIP3    H129223   7.085   3.291   5.192  0.4382  2.4105  0.5840
 9760TIP3    H229224   6.970   3.389   5.207 -0.4296  1.0926  2.8302
 9761TIP3   OH229225   5.545   1.282   6.751 -0.1388  0.4441 -0.4706
 9761TIP3    H129226   5.626   1.235   6.770 -1.3051 -1.7262 -0.6982
 9761TIP3    H229227   5.568   1.374   6.760  1.8019 -0.1975  1.6592
 9762TIP3   OH229228   8.416   6.261   1.243  0.5261  0.0895 -0.1665
 9762TIP3    H129229   8.489   6.262   1.181  1.7879  0.6362  1.2776
 9762TIP3    H229230   8.385   6.352   1.244 -0.5678 -0.2714 -1.2251
 9763TIP3   OH229231   0.953   6.838   1.554 -0.5186  0.1316 -0.5194
 9763TIP3    H129232   1.020   6.799   1.610 -0.8571  1.2590  0.6906
 9763TIP3    H229233   1.000   6.902   1.501 -1.0695  3.2070  2.5372
 9764TIP3   OH229234   0.723   4.382   0.025  0.5288 -0.2652  0.1897
 9764TIP3    H129235   0.795   4.331   0.062  1.2412  1.6093  1.4519
 9764TIP3    H229236   0.761   4.467   0.005 -1.0403  0.3554 -0.2815
 9765TIP3   OH229237   5.806   2.802   6.646 -0.0621  0.1268 -0.4675
 9765TIP3    H129238   5.837   2.795   6.737  0.8035 -0.0634 -0.7732
 9765TIP3    H229239   5.876   2.847   6.600 -0.0044 -0.7893 -1.2877
 9766TIP3   OH229240   4.980   3.165   5.822  1.0766 -0.1439  0.1036
 9766TIP3    H129241   4.999   3.084   5.870  0.6928 -0.0737  0.3790
 9766TIP3    H229242   5.012   3.148   5.733 -1.4685 -1.6288 -0.5922
 9767TIP3   OH229243   7.654   2.921   5.535  0.5949  0.0137  0.3832
 9767TIP3    H129244   7.738   2.956   5.504 -0.1402  0.7272 -0.8422
 9767TIP3    H229245   7.672   2.828   5.552  0.8965 -0.6344 -2.9455
 9768TIP3   OH229246   6.587   1.616   6.237 -0.6228 -0.5939  0.0969
 9768TIP3    H129247   6.584   1.698   6.188 -0.5961 -0.9093 -0.4317
 9768TIP3    H229248   6.663   1.569   6.202  0.5472  0.0076  1.7695
 9769TIP3   OH229249   0.856   5.798   3.868 -0.3477 -0.1363 -0.0431
 9769TIP3    H129250   0.897   5.712   3.876 -0.3285 -0.2650 -1.3672
 9769TIP3    H229251   0.929   5.859   3.854 -0.4658 -0.1194 -0.6091
 9770TIP3   OH229252   7.836   4.271   0.035 -0.0449 -0.3597 -0.4640
 9770TIP3    H129253   7.831   4.283  -0.060  0.5718  1.1368 -0.3310
 9770TIP3    H229254   7.797   4.351   0.071  1.5012 -0.0195  0.5207
 9771TIP3   OH229255   2.333   4.162   0.470 -0.1789  0.8143  0.6459
 9771TIP3    H129256   2.248   4.190   0.506  0.1908  1.6940  0.8533
 9771TIP3    H229257   2.315   4.146   0.377 -0.9670 -0.7252  1.0395
 9772TIP3   OH229258   8.235   0.650   6.807 -0.1921 -1.0172  0.2112
 9772TIP3    H129259   8.200   0.711   6.742  2.3599 -1.0480 -1.2659
 9772TIP3    H229260   8.220   0.563   6.769  1.1440 -1.0453 -0.2607
 9773TIP3   OH229261   7.368   3.279   0.871 -0.1070 -0.0331  0.6496
 9773TIP3    H129262   7.357   3.217   0.943  3.1942 -1.5365 -0.0869
 9773TIP3    H229263   7.354   3.228   0.792  0.8426  0.5882  0.0757
 9774TIP3   OH229264   4.250   2.056   6.445 -0.4270  0.1308  0.2261
 9774TIP3    H129265   4.175   2.115   6.444  0.2334  0.9863 -0.6570
 9774TIP3    H229266   4.324   2.112   6.421  0.1169 -1.1890 -1.2319
 9775TIP3   OH229267   4.176   0.387   5.174  0.0610 -1.0447  0.0968
 9775TIP3    H129268   4.134   0.342   5.101 -0.8641 -2.0408  1.2170
 9775TIP3    H229269   4.265   0.352   5.177  0.8262  0.6440 -1.9291
 9776TIP3   OH229270   8.403   2.424   0.979  0.1632 -0.3916  0.2395
 9776TIP3    H129271   8.370   2.416   1.069  0.7771 -0.0014  0.5037
 9776TIP3    H229272   8.325   2.444   0.927 -0.5664 -2.7803  0.3334
 9777TIP3   OH229273   6.058  -0.015   6.950  0.0448 -0.5657 -0.2218
 9777TIP3    H129274   6.102   0.066   6.925  3.0644 -1.6608  1.2829
 9777TIP3    H229275   5.986  -0.024   6.887  1.5950  1.6209 -2.3758
 9778TIP3   OH229276   6.641   3.957   0.534 -0.3993 -0.4844 -0.3447
 9778TIP3    H129277   6.707   3.901   0.494 -0.6954 -0.2644 -1.1742
 9778TIP3    H229278   6.568   3.898   0.553  0.4649 -0.9341  1.6202
 9779TIP3   OH229279   5.923   4.700   0.266  0.4278 -0.5428 -0.2859
 9779TIP3    H129280   5.831   4.698   0.293  0.4616  1.3663  0.0706
 9779TIP3    H229281   5.972   4.681   0.346  0.3778 -0.2962 -0.1964
 9780TIP3   OH229282   8.220   0.416   5.320  0.4990 -0.2715 -0.2727
 9780TIP3    H129283   8.239   0.504   5.353  3.0282 -1.1641  0.7667
 9780TIP3    H229284   8.148   0.385   5.374 -0.3530  1.0962 -0.5804
 9781TIP3   OH229285   3.098   0.764   6.862  0.0229  0.2134  0.1798
 9781TIP3    H129286   3.182   0.720   6.845 -0.5554 -0.8783  0.0747
 9781TIP3    H229287   3.046   0.746   6.784 -0.5399  0.3194  0.5301
 9782TIP3   OH229288   4.250   2.416   5.030  0.0591 -0.0501 -0.1109
 9782TIP3    H129289   4.304   2.440   5.105 -2.1537  1.5523  1.0439
 9782TIP3    H229290   4.203   2.497   5.009 -0.7441 -1.0010 -2.0476
 9783TIP3   OH229291   1.048   3.215   0.427 -0.5449 -0.1011  0.2671
 9783TIP3    H129292   1.106   3.221   0.351  0.2662 -2.4251  0.6560
 9783TIP3    H229293   1.076   3.135   0.473 -1.1798  1.1078  2.8749
 9784TIP3   OH229294   1.001   6.342   0.738  0.1514  0.3164  0.3211
 9784TIP3    H129295   0.907   6.341   0.721  0.2842 -1.0112 -0.3934
 9784TIP3    H229296   1.009   6.346   0.833 -0.6609 -2.7792  0.5695
 9785TIP3   OH229297   5.726   1.092   5.558  0.1360  0.3612 -0.2315
 9785TIP3    H129298   5.647   1.039   5.550 -0.5560  1.6307 -2.2060
 9785TIP3    H229299   5.696   1.171   5.604  0.7669 -0.1312  1.0545
 9786TIP3   OH229300   2.461   6.619   6.870  0.3383 -0.2352  0.0075
 9786TIP3    H129301   2.376   6.627   6.826  0.5717 -1.7071 -0.7397
 9786TIP3    H229302   2.518   6.680   6.824  0.0157 -0.1897 -0.3370
 9787TIP3   OH229303   0.290   2.492   0.114 -0.2653  0.0163 -0.1780
 9787TIP3    H129304   0.196   2.488   0.135 -0.1339  0.7196  0.6014
 9787TIP3    H229305   0.326   2.551   0.180  0.9799 -1.3797  0.4236
 9788TIP3   OH229306   6.893   4.075   0.597  0.1818 -0.2589  0.0751
 9788TIP3    H129307   6.800   4.060   0.576 -0.6324  0.9450  2.6173
 9788TIP3    H229308   6.917   4.153   0.546 -0.5963  0.2167  0.4221
 9789TIP3   OH229309   0.735   5.947   0.138  0.3643  0.2966 -0.2088
 9789TIP3    H129310   0.681   6.011   0.185 -0.7560 -1.2801  0.6664
 9789TIP3    H229311   0.679   5.914   0.068  0.1331 -1.4607  0.7937
 9790TIP3   OH229312   3.345   0.957   5.734 -0.3168 -0.9029  0.1059
 9790TIP3    H129313   3.307   0.870   5.744 -0.2210 -1.0555 -0.7703
 9790TIP3    H229314   3.278   1.017   5.768 -2.1400 -1.0364 -3.0552
 9791TIP3   OH229315   5.584   2.210   6.624 -0.3326  0.0288  0.4985
 9791TIP3    H129316   5.655   2.257   6.667  1.2709 -1.3554 -0.5764
 9791TIP3    H229317   5.586   2.241   6.533 -0.3111 -0.8892  0.1773
 9792TIP3   OH229318   3.474   6.916   6.284 -0.2170  0.2342  0.3151
 9792TIP3    H129319   3.477   6.820   6.289  0.6351  0.2912  0.9814
 9792TIP3    H229320   3.546   6.939   6.226  0.3661  0.5338  1.1418
 9793TIP3   OH229321   2.456   7.676   6.734  0.2976 -0.6231 -0.1985
 9793TIP3    H129322   2.517   7.737   6.693 -1.7539  1.6731  0.0408
 9793TIP3    H229323   2.485   7.671   6.825  1.4597 -1.2939 -0.6009
 9794TIP3   OH229324   0.236   4.941   0.798 -0.4909  0.1813 -0.1391
 9794TIP3    H129325   0.303   4.997   0.759 -0.4795 -0.3556 -0.9045
 9794TIP3    H229326   0.275   4.912   0.880  0.8869 -1.4109 -1.3239
 9795TIP3   OH229327   7.282   5.174   0.528 -0.2756 -0.1184 -0.0205
 9795TIP3    H129328   7.208   5.198   0.584 -1.0293 -1.3488 -0.4633
 9795TIP3    H229329   7.359   5.207   0.574 -0.9642 -0.2198  1.2295
 9796TIP3   OH229330   2.174   4.995   0.967  0.0315 -0.4128 -0.2653
 9796TIP3    H129331   2.130   4.977   0.884  1.6780 -1.1665 -1.0015
 9796TIP3    H229332   2.119   4.952   1.033 -1.6118  0.6975 -0.8775
 9797TIP3   OH229333   1.663   4.574   0.316  0.6444 -0.0341  0.0574
 9797TIP3    H129334   1.644   4.644   0.378  1.2140 -0.4665  0.7292
 9797TIP3    H229335   1.617   4.599   0.236 -2.4525 -0.8861  1.5148
 9798TIP3   OH229336   0.509   7.691   6.106  0.2038  0.1961 -0.2758
 9798TIP3    H129337   0.544   7.758   6.047 -0.8449 -0.7990 -2.0873
 9798TIP3    H229338   0.585   7.657   6.152  1.0648  0.9786 -1.1025
 9799TIP3   OH229339   3.254   7.726   6.809 -0.4742 -0.4916 -0.1459
 9799TIP3    H129340   3.319   7.698   6.874  0.3973  0.1358 -0.7360
 9799TIP3    H229341   3.261   7.822   6.809 -0.9206 -0.4588 -0.7124
 9800TIP3   OH229342   6.786   3.136   6.775 -0.3236 -0.0919  0.0430
 9800TIP3    H129343   6.837   3.086   6.839  1.4872  1.7892  0.1470
 9800TIP3    H229344   6.703   3.089   6.768  0.6804 -2.1478  1.3506
 9801TIP3   OH229345   4.506   0.381   6.938  0.3382  0.0199 -0.2369
 9801TIP3    H129346   4.504   0.403   6.845  1.1803 -0.2124 -0.3181
 9801TIP3    H229347   4.467   0.457   6.981 -0.4322 -0.0504 -0.8088
 9802TIP3   OH229348   5.025   1.322   6.520  0.1453  0.4107 -0.1231
 9802TIP3    H129349   5.112   1.341   6.554  0.1923 -0.3747  0.2162
 9802TIP3    H229350   4.979   1.406   6.521  0.5287  0.6125  0.7828
 9803TIP3   OH229351   7.886   3.245   0.088  0.2187 -0.5983 -0.0158
 9803TIP3    H129352   7.827   3.171   0.076  1.3382 -1.2779 -1.4462
 9803TIP3    H229353   7.913   3.269  -0.000  2.2348 -0.4362  0.6110
 9804TIP3   OH229354   8.271   5.133   0.264  0.2008 -0.2648 -0.2526
 9804TIP3    H129355   8.254   5.165   0.175 -0.6102  1.9246  0.6433
 9804TIP3    H229356   8.184   5.118   0.301  0.4176  1.9173  1.2167
 9805TIP3   OH229357   7.601   5.324   1.777  0.0283  0.1834  0.2683
 9805TIP3    H129358   7.658   5.401   1.775  1.9573 -1.2187 -2.2591
 9805TIP3    H229359   7.517   5.356   1.745  0.8707  1.2357 -0.9534
 9806TIP3   OH229360   1.339   7.812   4.695  0.0644 -0.2438 -0.2847
 9806TIP3    H129361   1.357   7.719   4.678 -1.0280  0.2514 -4.8263
 9806TIP3    H229362   1.419   7.857   4.666 -0.1713  0.3796  0.0253
 9807TIP3   OH229363   4.548   7.740   5.978 -0.4186 -0.4708  0.0401
 9807TIP3    H129364   4.542   7.766   5.886 -0.6175 -0.0767  0.1628
 9807TIP3    H229365   4.484   7.795   6.023 -0.2021 -0.5416  0.4419
 9808TIP3   OH229366   6.063   1.301   6.867 -0.1804 -0.4295 -0.3613
 9808TIP3    H129367   6.140   1.254   6.835  0.6515  1.0865 -0.6165
 9808TIP3    H229368   6.001   1.298   6.795 -0.3625 -1.6241 -0.1685
 9809TIP3   OH229369   0.676   3.470   0.626 -0.0078 -0.0769 -0.1858
 9809TIP3    H129370   0.625   3.390   0.616 -1.2715  0.5796  0.7800
 9809TIP3    H229371   0.630   3.535   0.573  0.1580  0.3778  0.2231
 9810TIP3   OH229372   5.030   2.737   3.904 -0.0001 -0.1662 -0.0205
 9810TIP3    H129373   5.057   2.769   3.818  3.2378 -1.3518  0.4790
 9810TIP3    H229374   5.081   2.789   3.966 -2.9410  1.2777  1.2796
 9811TIP3   OH229375   0.543   6.147   0.714 -0.4288 -0.2143 -0.5276
 9811TIP3    H129376   0.526   6.063   0.757  0.9082  0.2975  1.0759
 9811TIP3    H229377   0.462   6.168   0.668 -0.6075 -2.6472 -1.4267
 9812TIP3   OH229378   8.477   4.935   0.222 -0.1672  0.2237  0.3050
 9812TIP3    H129379   8.404   4.995   0.208 -0.7975 -0.7445 -0.6744
 9812TIP3    H229380   8.527   4.974   0.293 -2.7013 -0.0806  2.3297
 9813TIP3   OH229381   1.973   6.844   6.792  0.0379 -0.5623  0.1566
 9813TIP3    H129382   1.913   6.789   6.741  0.4204 -0.4480 -0.4132
 9813TIP3    H229383   1.987   6.795   6.873 -2.3025  0.2686  1.1067
 9814TIP3   OH229384   3.996   1.605   5.932 -0.8071 -0.5144 -0.0944
 9814TIP3    H129385   4.084   1.583   5.900  0.0850  1.6077  0.7926
 9814TIP3    H229386   3.954   1.648   5.859 -0.8389 -0.8454 -0.2717
 9815TIP3   OH229387   7.370   4.658   0.921 -0.1970  0.4092  0.6510
 9815TIP3    H129388   7.461   4.629   0.932 -0.1061  0.4271 -0.0109
 9815TIP3    H229389   7.369   4.746   0.957 -0.0560  0.2467  1.0598
 9816TIP3   OH229390   7.419   2.087   5.183 -0.2145  0.1054 -0.3226
 9816TIP3    H129391   7.447   2.036   5.259  1.8697  1.8996  0.1793
 9816TIP3    H229392   7.450   2.037   5.107  0.8575  0.0585  0.1382
 9817TIP3   OH229393   3.082   7.336   5.361  0.1546  0.5724 -0.1608
 9817TIP3    H129394   3.011   7.357   5.301  1.0159  0.2951 -1.2830
 9817TIP3    H229395   3.059   7.382   5.442 -1.6662 -0.1137 -0.2742
 9818TIP3   OH229396   8.020   2.622   0.904 -0.0699  0.3571  0.2899
 9818TIP3    H129397   7.943   2.588   0.859 -0.0771  2.7811 -1.6244
 9818TIP3    H229398   8.094   2.582   0.859 -0.1167  1.6806 -0.9943
 9819TIP3   OH229399   6.237   5.033   0.054  0.0303 -0.3305  0.1621
 9819TIP3    H129400   6.327   5.063   0.071 -0.0118 -0.3020  0.3397
 9819TIP3    H229401   6.237   4.942   0.084 -0.4886  0.2019  1.8604
 9820TIP3   OH229402   8.295   2.847   1.265  0.6863 -0.1274  0.6514
 9820TIP3    H129403   8.243   2.925   1.243  1.4454  0.4876  0.9843
 9820TIP3    H229404   8.250   2.775   1.221  0.2249  0.5681 -0.0500
 9821TIP3   OH229405   5.182   2.003   6.872 -0.1829  0.1258  0.4806
 9821TIP3    H129406   5.199   2.082   6.821  0.8523 -0.6173 -0.3514
 9821TIP3    H229407   5.105   1.964   6.830  0.9286 -0.7142 -0.8239
 9822TIP3   OH229408   3.501   3.380   5.477  0.1063  0.1313 -0.3264
 9822TIP3    H129409   3.514   3.470   5.507 -2.1261  0.6226 -0.7461
 9822TIP3    H229410   3.432   3.386   5.412  1.0149 -1.6949 -1.5211
 9823TIP3   OH229411   6.954   2.607   5.594 -0.4940  0.0183 -0.4089
 9823TIP3    H129412   6.952   2.580   5.502 -0.2096 -1.3577 -0.0235
 9823TIP3    H229413   6.958   2.702   5.591  2.1580 -0.0942 -1.8544
 9824TIP3   OH229414   6.147   5.834   1.474  0.3107  0.1920 -0.0868
 9824TIP3    H129415   6.173   5.796   1.558 -0.7564  1.3430  0.7922
 9824TIP3    H229416   6.219   5.891   1.449  0.9513 -0.7064 -0.3290
 9825TIP3   OH229417   7.791   4.033   3.215  0.0968 -0.0394 -0.2193
 9825TIP3    H129418   7.717   3.973   3.224 -0.8050  0.7391 -2.1710
 9825TIP3    H229419   7.752   4.118   3.195  1.4797  0.4035 -1.1592
 9826TIP3   OH229420   7.799   3.214   2.323  0.5406 -0.3449 -0.2632
 9826TIP3    H129421   7.766   3.161   2.397  0.8673 -0.8642 -0.4866
 9826TIP3    H229422   7.760   3.173   2.246  0.7254 -0.1991 -0.4334
 9827TIP3   OH229423   6.815   0.924   5.422  0.3459  0.1877  0.1339
 9827TIP3    H129424   6.791   0.954   5.334 -0.9951  0.3563  0.5414
 9827TIP3    H229425   6.809   0.828   5.417  0.0958  0.2041  0.0793
 9828TIP3   OH229426   0.349   5.439   1.755  0.7714  0.2735 -0.3634
 9828TIP3    H129427   0.295   5.481   1.689  0.2611  0.7237  0.3347
 9828TIP3    H229428   0.437   5.436   1.717  0.9201  2.3947 -0.2353
 9829TIP3   OH229429   6.190   1.714   5.040  0.3655  0.4827 -0.3982
 9829TIP3    H129430   6.257   1.725   4.972 -0.6001 -1.7465 -1.7476
 9829TIP3    H229431   6.170   1.621   5.039 -1.8948  0.9326  0.8478
 9830TIP3   OH229432   2.669   3.478   0.597 -0.4803  0.1587  0.3700
 9830TIP3    H129433   2.619   3.558   0.581 -0.1801 -0.2419 -2.7846
 9830TIP3    H229434   2.613   3.426   0.655 -1.0499  2.2778  1.7501
 9831TIP3   OH229435   1.215   6.234   0.962 -0.3310 -0.2655  0.1024
 9831TIP3    H129436   1.248   6.170   0.900 -0.2935 -0.4877  0.3533
 9831TIP3    H229437   1.284   6.243   1.027 -0.8688 -0.9350  0.7756
 9832TIP3   OH229438   1.038   5.203   0.521 -0.3348 -0.0387  0.7171
 9832TIP3    H129439   1.091   5.125   0.506 -0.4191 -0.1707  1.0934
 9832TIP3    H229440   1.093   5.259   0.575  0.1105  0.5906 -0.3911
 9833TIP3   OH229441   5.243   1.360   4.479 -0.2118 -0.0203 -0.2734
 9833TIP3    H129442   5.245   1.373   4.384  4.6911  1.4254 -0.0991
 9833TIP3    H229443   5.310   1.294   4.496  0.6853  1.5219  2.4055
 9834TIP3   OH229444   1.031   4.072   1.016  0.3840  0.8011 -0.3822
 9834TIP3    H129445   0.997   4.039   1.100 -0.4979  1.9187 -0.2853
 9834TIP3    H229446   1.090   4.143   1.041  4.7947 -2.6782 -0.4098
 9835TIP3   OH229447   6.012   0.286   6.581  0.4566 -0.5311 -0.1293
 9835TIP3    H129448   5.960   0.279   6.661  1.5016 -0.1733  0.5844
 9835TIP3    H229449   6.024   0.380   6.568  2.2386 -0.6465  0.5732
 9836TIP3   OH229450   6.709   0.759   6.728  0.8610  0.0972 -0.0830
 9836TIP3    H129451   6.767   0.829   6.697  0.7323  0.0149 -0.5018
 9836TIP3    H229452   6.658   0.801   6.798  2.1947 -0.1259  1.0706
 9837TIP3   OH229453   1.758   6.393   6.333  0.1167  0.3443 -0.0409
 9837TIP3    H129454   1.676   6.369   6.289 -0.3433  0.1408  0.9095
 9837TIP3    H229455   1.782   6.316   6.383  0.9502  0.3733 -0.3846
 9838TIP3   OH229456   5.618   0.119   6.243 -0.6276  0.1342  0.1761
 9838TIP3    H129457   5.646   0.191   6.300 -0.4602  0.5397 -0.4126
 9838TIP3    H229458   5.535   0.090   6.280  0.7690 -1.3890  2.2195
 9839TIP3   OH229459   6.402   2.613   5.919 -0.2496  0.0337  0.2843
 9839TIP3    H129460   6.415   2.554   5.845  1.0854  1.8108 -0.9699
 9839TIP3    H229461   6.348   2.684   5.883 -1.2341 -0.0642  1.5533
 9840TIP3   OH229462   6.395   2.290   6.400  0.1506 -0.1394  0.4545
 9840TIP3    H129463   6.320   2.346   6.383  1.1007  0.9072 -0.3639
 9840TIP3    H229464   6.362   2.222   6.458 -1.8496 -0.6884 -1.2893
 9841TIP3   OH229465   6.684   3.673   1.104  0.2171  0.7148 -0.2597
 9841TIP3    H129466   6.719   3.587   1.080  1.5775  1.4792 -1.0837
 9841TIP3    H229467   6.602   3.653   1.149 -0.3451 -0.9592 -1.9011
 9842TIP3   OH229468   7.044   0.194   6.027  0.4695 -0.0093  0.8351
 9842TIP3    H129469   7.017   0.198   6.119  1.2779  0.9778  1.0397
 9842TIP3    H229470   6.986   0.129   5.988 -0.1426 -0.1541  1.9564
 9843TIP3   OH229471   0.985   2.756   0.315 -0.0726 -0.2535  0.3710
 9843TIP3    H129472   1.013   2.779   0.227  0.4392 -0.5645  0.4468
 9843TIP3    H229473   1.057   2.704   0.350 -1.0836 -1.7466  0.2824
 9844TIP3   OH229474   3.127   5.194   0.525 -0.1656  0.1998  0.4818
 9844TIP3    H129475   3.096   5.106   0.504  1.3988  0.3725 -2.7224
 9844TIP3    H229476   3.212   5.181   0.567 -0.0491  0.1846  0.2383
 9845TIP3   OH229477   5.127   2.994   2.297  0.3627 -0.6106 -0.5846
 9845TIP3    H129478   5.071   3.005   2.373 -0.8180 -0.7686 -1.4092
 9845TIP3    H229479   5.066   2.976   2.225  1.5018 -1.1864 -1.4183
 9846TIP3   OH229480   8.016   2.536   2.484 -0.1203  0.0788 -0.1971
 9846TIP3    H129481   7.942   2.559   2.428 -0.0966 -0.7372 -0.5703
 9846TIP3    H229482   8.045   2.450   2.452  0.0440 -0.2892  0.9076
 9847TIP3   OH229483   5.404   1.831   5.858 -0.8438  0.3444 -0.0096
 9847TIP3    H129484   5.393   1.837   5.953 -0.5090 -0.2896  0.0751
 9847TIP3    H229485   5.324   1.788   5.828 -2.0627  2.7917 -0.3094
 9848TIP3   OH229486   5.766   1.456   5.335  0.0665 -0.1207 -0.7590
 9848TIP3    H129487   5.861   1.455   5.347  0.3681 -0.2071 -2.8880
 9848TIP3    H229488   5.743   1.366   5.313 -0.2314  0.2510 -2.0461
 9849TIP3   OH229489   5.824   4.971   0.066 -0.1978  0.0695  0.0151
 9849TIP3    H129490   5.894   4.992   0.127  2.0957  0.5838 -2.6603
 9849TIP3    H229491   5.848   4.885   0.031 -1.8643 -0.5585  0.3388
 9850TIP3   OH229492   6.342   1.513   5.856 -0.0274 -0.1901  0.3596
 9850TIP3    H129493   6.337   1.608   5.858 -0.6321 -0.2111  0.0868
 9850TIP3    H229494   6.435   1.493   5.858  0.1392  0.4387 -0.6705
 9851TIP3   OH229495   4.480   2.232   6.521  0.7095  0.3921  0.4306
 9851TIP3    H129496   4.519   2.145   6.512 -0.1796  0.2904 -3.3433
 9851TIP3    H229497   4.554   2.291   6.531  1.5396 -0.4394 -0.7001
 9852TIP3   OH229498   7.807   2.940   5.118  0.5631 -0.4081 -0.5241
 9852TIP3    H129499   7.712   2.945   5.123  0.4941 -1.1158 -1.0691
 9852TIP3    H229500   7.832   3.004   5.051  0.4086 -0.7505 -0.9114
 9853TIP3   OH229501  -0.008   7.757   3.051  0.0723 -0.0512  0.8860
 9853TIP3    H129502   0.017   7.796   3.135  0.7511  1.3504  0.0571
 9853TIP3    H229503   0.032   7.670   3.052 -0.8354 -0.4655  2.4598
 9854TIP3   OH229504   5.585   1.770   6.267 -0.9623 -0.4197 -0.4321
 9854TIP3    H129505   5.566   1.677   6.267 -0.7719 -0.4785  1.1288
 9854TIP3    H229506   5.522   1.808   6.329  0.8587  0.0358  1.2168
 9855TIP3   OH229507   6.622   1.139   5.050  0.7585 -0.0241  0.3226
 9855TIP3    H129508   6.657   1.200   5.114 -1.2049  2.3824 -0.8280
 9855TIP3    H229509   6.546   1.183   5.013 -0.1331 -2.7457 -1.2869
 9856TIP3   OH229510   6.360   1.450   6.291  0.3995  0.1320  0.7448
 9856TIP3    H129511   6.425   1.516   6.269  1.2483 -1.2826 -1.1033
 9856TIP3    H229512   6.363   1.445   6.387 -0.5749  3.5995  1.0149
 9857TIP3   OH229513   5.855   2.297   6.653 -0.0906  0.0298 -0.0168
 9857TIP3    H129514   5.871   2.312   6.747  0.0569  1.6566 -0.2792
 9857TIP3    H229515   5.933   2.251   6.623 -0.1337 -0.4980  0.6635
 9858TIP3   OH229516   2.056   7.516   5.682  0.2125  0.4678  0.1234
 9858TIP3    H129517   2.064   7.521   5.777  0.0395  0.3446  0.1454
 9858TIP3    H229518   2.090   7.430   5.659  0.4537  0.5816  0.0514
 9859TIP3   OH229519   5.859   1.061   5.910  0.0052  0.1987 -0.2672
 9859TIP3    H129520   5.778   1.093   5.871  0.4495  0.9826 -0.5751
 9859TIP3    H229521   5.831   1.003   5.980 -0.8402  1.4983  0.4953
 9860TIP3   OH229522   3.255   7.485   5.753  0.1445  0.2418 -0.1303
 9860TIP3    H129523   3.288   7.513   5.838  0.0635 -1.3650  0.4470
 9860TIP3    H229524   3.333   7.480   5.697  0.4310 -0.3754  0.3243
 9861TIP3   OH229525   3.553   7.801   6.739  0.1905 -0.3705  0.9118
 9861TIP3    H129526   3.465   7.837   6.740  0.7244  1.0886 -1.1075
 9861TIP3    H229527   3.542   7.708   6.759 -1.9004 -0.3911 -0.1990
 9862TIP3   OH229528   2.201   6.403   0.486 -0.1428 -0.0620  0.1000
 9862TIP3    H129529   2.149   6.474   0.448  0.7213  1.0109  0.8705
 9862TIP3    H229530   2.271   6.388   0.422  0.2883  0.5205  0.4307
 9863TIP3   OH229531   1.689   6.893   1.100 -0.5401 -0.1923 -0.3483
 9863TIP3    H129532   1.766   6.843   1.129  0.2271  0.5441 -1.1082
 9863TIP3    H229533   1.615   6.846   1.138  0.2959 -0.7828  0.5795
 9864TIP3   OH229534   4.515   1.978   6.123 -0.2526 -0.1793  0.1759
 9864TIP3    H129535   4.522   1.926   6.043  1.4131 -0.3955  0.4445
 9864TIP3    H229536   4.476   1.918   6.187 -0.2943 -0.4442 -0.0948
 9865TIP3   OH229537   4.274   1.554   5.909 -0.5126 -0.0053 -0.3087
 9865TIP3    H129538   4.293   1.516   5.823 -1.2210  0.1108 -0.5200
 9865TIP3    H229539   4.326   1.502   5.970  0.0591 -0.0369 -0.8163
 9866TIP3   OH229540   2.881   6.506   0.233 -0.5463  0.5238 -0.3919
 9866TIP3    H129541   2.895   6.452   0.311  1.2538  0.3629 -0.7984
 9866TIP3    H229542   2.952   6.482   0.174  0.1540  3.1345 -0.6825
 9867TIP3   OH229543   8.001   3.862   0.139 -0.0644  0.2939  0.4822
 9867TIP3    H129544   7.913   3.898   0.153 -0.4158  0.7902 -2.7248
 9867TIP3    H229545   7.986   3.776   0.100  0.8775  0.0223  0.7174
 9868TIP3   OH229546   5.744   3.573   0.635  0.3238 -0.4370  0.3486
 9868TIP3    H129547   5.719   3.574   0.543 -1.2131 -0.0347  0.7476
 9868TIP3    H229548   5.767   3.482   0.653  0.8143 -0.4795 -0.4837
 9869TIP3   OH229549   5.598   3.777   4.735 -0.3356 -0.0966  0.2434
 9869TIP3    H129550   5.684   3.815   4.756 -1.0687  1.3097  0.8342
 9869TIP3    H229551   5.549   3.784   4.817 -1.5585  0.6663 -0.5451
 9870TIP3   OH229552   6.169   4.709   0.972  0.2823 -0.3451 -0.1938
 9870TIP3    H129553   6.158   4.781   0.910  1.6891  0.4607  0.4925
 9870TIP3    H229554   6.101   4.722   1.037  1.1136  0.9039  0.4409
 9871TIP3   OH229555   8.016   5.963   0.213 -0.2757 -0.1962 -0.0738
 9871TIP3    H129556   7.996   6.004   0.128 -0.0949  0.9716  0.4410
 9871TIP3    H229557   8.110   5.949   0.211 -0.1005  0.8435  0.3626
 9872TIP3   OH229558   5.340   0.642   6.874  0.2518 -0.1031  0.0299
 9872TIP3    H129559   5.282   0.658   6.948  0.8639 -1.8074  0.9035
 9872TIP3    H229560   5.312   0.557   6.839  2.0619 -0.8452  0.3403
 9873TIP3   OH229561   0.874   6.881   0.723  0.0639  0.3840  0.0309
 9873TIP3    H129562   0.828   6.870   0.806 -0.0004 -1.7816 -0.2679
 9873TIP3    H229563   0.808   6.865   0.656  0.2071  1.7461 -0.4409
 9874TIP3   OH229564   7.436   6.881   0.214 -0.0199  0.2427 -0.0221
 9874TIP3    H129565   7.354   6.891   0.262  0.3700 -1.7753  1.1307
 9874TIP3    H229566   7.436   6.952   0.150 -1.1240  2.2498  2.1423
 9875TIP3   OH229567   4.387   3.279   6.262  0.1407  0.8352  0.0351
 9875TIP3    H129568   4.360   3.203   6.210  2.0606  0.4366 -0.4380
 9875TIP3    H229569   4.444   3.329   6.204  1.1873  1.1260  1.2846
 9876TIP3   OH229570   0.180   6.053   0.430 -0.2380  0.0819 -0.5918
 9876TIP3    H129571   0.260   6.076   0.477 -1.1551  1.5197  0.3042
 9876TIP3    H229572   0.167   5.960   0.448  0.3257  0.2389  0.6423
 9877TIP3   OH229573   4.370   1.684   5.365  0.0552 -0.3618  0.5031
 9877TIP3    H129574   4.443   1.745   5.350  0.5407 -1.1854 -0.5881
 9877TIP3    H229575   4.310   1.700   5.292 -0.5241 -0.1645  1.0230
 9878TIP3   OH229576   6.691   1.731   6.870  0.1210  0.6089  0.0380
 9878TIP3    H129577   6.764   1.781   6.836  0.0108 -0.0768 -1.2464
 9878TIP3    H229578   6.614   1.768   6.828 -0.3869  1.9282  2.0771
 9879TIP3   OH229579   5.636   3.005   4.967 -0.3067 -0.3165 -0.1180
 9879TIP3    H129580   5.540   3.006   4.968 -0.2962  0.8715  2.1635
 9879TIP3    H229581   5.660   2.927   5.015 -0.1489  0.9674  1.9502
 9880TIP3   OH229582   7.883   4.031   1.146  0.2556 -0.0349  0.3817
 9880TIP3    H129583   7.825   4.102   1.174 -0.8026 -1.6194  2.3523
 9880TIP3    H229584   7.850   4.006   1.060 -0.4960  0.6753  0.4532
 9881TIP3   OH229585   3.530   2.066   5.672  0.4602  0.2496 -0.0872
 9881TIP3    H129586   3.520   2.119   5.751  1.0403  1.0288 -0.5310
 9881TIP3    H229587   3.440   2.051   5.642  0.1552 -1.1905  1.4462
 9882TIP3   OH229588   5.892   7.012   0.721 -0.5050 -0.2952 -0.2936
 9882TIP3    H129589   5.930   6.968   0.645  0.1811 -1.8863  0.9311
 9882TIP3    H229590   5.905   7.105   0.705  0.6471 -0.6725 -1.5880
 9883TIP3   OH229591   7.238   1.989   6.201 -0.3725  0.1501 -0.0116
 9883TIP3    H129592   7.296   2.059   6.169  0.0872 -0.2291 -0.0157
 9883TIP3    H229593   7.205   1.947   6.123  0.4658 -0.5432 -0.0047
 9884TIP3   OH229594   4.353   1.829   3.676  0.5076  0.3121 -0.3456
 9884TIP3    H129595   4.424   1.893   3.681  1.1588 -0.5107  1.2708
 9884TIP3    H229596   4.397   1.744   3.676 -0.4691 -0.2332  1.3966
 9885TIP3   OH229597   4.423   1.636   4.801  0.6998 -0.4679 -0.0126
 9885TIP3    H129598   4.329   1.645   4.815  0.6460  0.6447 -0.9387
 9885TIP3    H229599   4.455   1.589   4.877 -0.5341 -0.4025  0.5545
 9886TIP3   OH229600   1.369   4.350   0.714  0.1966  0.1029  0.0572
 9886TIP3    H129601   1.396   4.319   0.800  0.7259 -0.1314 -0.1894
 9886TIP3    H229602   1.450   4.382   0.673  0.2242 -1.1647 -0.9213
 9887TIP3   OH229603   7.650   2.402   6.216 -0.1097 -0.5621  0.0156
 9887TIP3    H129604   7.744   2.421   6.215  0.0422 -1.2374  0.7678
 9887TIP3    H229605   7.609   2.485   6.239  0.4243 -0.6637  1.4148
 9888TIP3   OH229606   5.713   6.952   5.916 -0.2792  0.2712 -0.8704
 9888TIP3    H129607   5.735   7.042   5.892 -1.7504  1.0157  0.4794
 9888TIP3    H229608   5.642   6.928   5.856 -0.2736  0.2111 -0.8529
 9889TIP3   OH229609   7.023   1.777   6.673 -0.6963 -0.4652  0.3435
 9889TIP3    H129610   7.113   1.769   6.705 -0.7257 -0.0188  0.5365
 9889TIP3    H229611   7.014   1.868   6.646 -1.0179 -0.5646  0.1029
 9890TIP3   OH229612   1.776   1.677   5.980  0.1733  0.3507 -0.1504
 9890TIP3    H129613   1.784   1.716   6.067 -0.0242 -0.2045  0.1181
 9890TIP3    H229614   1.754   1.751   5.923 -1.4427  0.4605  0.5657
 9891TIP3   OH229615   0.414   3.789   1.702 -0.2844 -0.0320 -0.5701
 9891TIP3    H129616   0.410   3.885   1.697  0.4494 -0.0598 -2.2156
 9891TIP3    H229617   0.332   3.760   1.663  0.3332 -0.0933 -1.8377
 9892TIP3   OH229618   6.295   2.415   5.697  0.4636  0.2060 -0.4069
 9892TIP3    H129619   6.238   2.346   5.731  1.6620 -1.0580 -0.9283
 9892TIP3    H229620   6.261   2.433   5.609 -0.7703  1.3473  0.2911
 9893TIP3   OH229621   5.993   2.926   5.876 -0.4073 -0.1262 -0.4714
 9893TIP3    H129622   6.073   2.942   5.826  0.0899 -1.1934 -0.0398
 9893TIP3    H229623   5.968   3.012   5.909  0.5880  0.2128 -0.5733
 9894TIP3   OH229624   6.407   3.214   5.909 -0.1212  0.2358  0.0990
 9894TIP3    H129625   6.444   3.126   5.903  0.6371  0.6038 -0.8414
 9894TIP3    H229626   6.323   3.202   5.953  0.7802 -0.7094  1.6148
 9895TIP3   OH229627   7.384   1.764   5.020 -0.0139  0.0774 -0.4239
 9895TIP3    H129628   7.389   1.761   5.116 -0.3791  0.4313 -0.3966
 9895TIP3    H229629   7.472   1.787   4.992 -0.0055  0.3702 -0.1563
 9896TIP3   OH229630   5.089   7.398   4.760  0.3529  0.4367  0.4114
 9896TIP3    H129631   5.135   7.480   4.746 -0.1975  0.5082 -1.1251
 9896TIP3    H229632   5.099   7.351   4.677 -0.3304 -0.5379  0.8751
 9897TIP3   OH229633   7.644   2.499   6.863  0.7254  0.4344 -0.5188
 9897TIP3    H129634   7.635   2.580   6.812  2.2241  0.1103 -1.3135
 9897TIP3    H229635   7.610   2.430   6.807 -1.4008  0.5965  0.5061
 9898TIP3   OH229636   3.814   3.849   0.239 -0.7031 -0.2033  0.4468
 9898TIP3    H129637   3.879   3.790   0.200 -0.8358  0.4094 -0.7279
 9898TIP3    H229638   3.834   3.935   0.201 -2.3728 -0.0610 -0.1317
 9899TIP3   OH229639   5.194  -0.000   5.196 -0.2060  0.2824  0.0960
 9899TIP3    H129640   5.274   0.052   5.185  0.5799 -1.0747 -0.7815
 9899TIP3    H229641   5.159   0.028   5.281  0.7437  1.4946  0.1079
 9900TIP3   OH229642   7.472   6.523   0.548  0.4490 -0.0943 -0.7291
 9900TIP3    H129643   7.439   6.532   0.459  1.1942  0.1334 -0.9850
 9900TIP3    H229644   7.517   6.438   0.548  2.9649  1.2030 -1.3881
 9901TIP3   OH229645   6.250   0.840   6.299 -0.2431 -0.4285 -0.3713
 9901TIP3    H129646   6.299   0.820   6.379  0.1445 -0.9249 -0.7306
 9901TIP3    H229647   6.304   0.903   6.252 -0.2414 -0.5080 -0.4758
 9902TIP3   OH229648   1.737   7.217   1.389 -0.1282  0.6840 -0.0139
 9902TIP3    H129649   1.766   7.237   1.478 -0.1588 -0.3778  0.2411
 9902TIP3    H229650   1.785   7.279   1.334  3.0977 -1.3798  0.3352
 9903TIP3   OH229651   2.052   6.093   0.115 -0.0440 -0.2376 -0.3485
 9903TIP3    H129652   2.052   6.186   0.138 -0.1293 -0.3672  0.2020
 9903TIP3    H229653   1.987   6.055   0.174  1.4244 -0.9758  0.8356
 9904TIP3   OH229654   0.810   5.914   0.622  0.4290  0.1669 -0.4472
 9904TIP3    H129655   0.818   5.914   0.526 -0.8825 -0.5501 -0.5752
 9904TIP3    H229656   0.842   6.000   0.649 -1.7398  1.4473 -1.7736
 9905TIP3   OH229657   6.943   1.501   4.851  0.0955  0.2945  0.0895
 9905TIP3    H129658   6.885   1.555   4.799 -0.0886  0.9841  0.9959
 9905TIP3    H229659   6.902   1.498   4.938  0.4837 -0.6872  0.2515
 9906TIP3   OH229660   7.164   1.401   5.874 -0.1888  0.5109  0.2664
 9906TIP3    H129661   7.100   1.351   5.925 -1.1058  1.1491 -0.2596
 9906TIP3    H229662   7.157   1.366   5.785  0.5147  0.2800  0.2917
 9907TIP3   OH229663   8.169   1.388   4.769  0.1239  0.4479  0.2625
 9907TIP3    H129664   8.138   1.477   4.784  0.7885  0.7508 -0.1287
 9907TIP3    H229665   8.173   1.349   4.856 -1.9369  0.1979  0.2641
 9908TIP3   OH229666   6.857   3.392   6.848  1.3112 -0.4507  0.4176
 9908TIP3    H129667   6.823   3.396   6.937  2.8061 -2.3892  1.1224
 9908TIP3    H229668   6.846   3.300   6.823  0.9380  0.0761 -1.3879
 9909TIP3   OH229669   6.809   2.606   5.860  0.7391 -0.1310  0.0921
 9909TIP3    H129670   6.742   2.669   5.833  0.0419 -0.0527  1.9461
 9909TIP3    H229671   6.872   2.606   5.788 -0.8053  0.4415 -1.2949
 9910TIP3   OH229672   0.409   1.479   6.238  0.0543  0.1991  0.0461
 9910TIP3    H129673   0.453   1.546   6.186 -0.6912  0.5618 -0.1250
 9910TIP3    H229674   0.372   1.419   6.173  0.5444 -0.2708  0.1952
 9911TIP3   OH229675   4.615   7.515   3.760  0.2574  0.0816 -0.3421
 9911TIP3    H129676   4.663   7.580   3.810  0.6027 -0.4689  0.0534
 9911TIP3    H229677   4.525   7.547   3.758  0.2481  0.1084  0.6226
 9912TIP3   OH229678   1.241   2.046   3.451 -0.3816  0.2686  0.0662
 9912TIP3    H129679   1.320   2.068   3.401  0.2487  0.8521  1.3116
 9912TIP3    H229680   1.269   1.977   3.511 -1.0428 -0.1345 -0.0870
 9913TIP3   OH229681   0.691   1.499   5.133 -0.3835 -0.3344 -0.1419
 9913TIP3    H129682   0.753   1.490   5.061 -0.8033 -0.0881 -0.5425
 9913TIP3    H229683   0.716   1.431   5.196  0.0653 -0.4671 -0.4635
 9914TIP3   OH229684   5.532   7.580   5.056  0.2833  0.2576 -0.1257
 9914TIP3    H129685   5.594   7.582   5.129  0.9856  0.7621 -0.7464
 9914TIP3    H229686   5.450   7.551   5.097  1.0763 -1.0795  0.5692
 9915TIP3   OH229687   6.361   3.904   6.222  0.1285 -0.6297 -0.4737
 9915TIP3    H129688   6.382   3.811   6.232  1.5050 -0.4284 -1.3857
 9915TIP3    H229689   6.385   3.926   6.132  0.7061  0.8243  0.0055
 9916TIP3   OH229690   1.864   4.204   1.621  1.0140  0.0814  0.3562
 9916TIP3    H129691   1.936   4.149   1.589  0.9728 -0.2028  0.7463
 9916TIP3    H229692   1.849   4.174   1.711  1.4689  1.2158  0.8277
 9917TIP3   OH229693   8.055   3.611   4.715  0.0937 -0.0349  0.1486
 9917TIP3    H129694   7.969   3.636   4.680  0.1039 -1.8749 -1.2731
 9917TIP3    H229695   8.035   3.560   4.793 -0.0776  0.4693  0.4337
 9918TIP3   OH229696   5.743   1.106   6.817  0.4027 -0.3106 -0.0142
 9918TIP3    H129697   5.771   1.016   6.799  0.4219 -0.7275  1.9768
 9918TIP3    H229698   5.823   1.158   6.808  0.6795 -0.6948  0.2244
 9919TIP3   OH229699   6.083   1.183   5.822 -0.1651  0.4487 -0.2234
 9919TIP3    H129700   6.042   1.269   5.814 -1.8579 -0.3155 -0.0705
 9919TIP3    H229701   6.010   1.123   5.838  0.8740 -1.1818 -1.3825
 9920TIP3   OH229702   0.644   1.071   5.915  0.5776  0.2698  0.1176
 9920TIP3    H129703   0.698   1.145   5.942 -1.2469  1.1328  1.5487
 9920TIP3    H229704   0.579   1.061   5.986 -0.7535 -1.0978 -1.2418
 9921TIP3   OH229705   7.201   3.157   6.119 -0.4869 -0.0771 -0.3451
 9921TIP3    H129706   7.143   3.231   6.137  0.9756  0.2715  3.3902
 9921TIP3    H229707   7.165   3.118   6.039 -5.2484  0.7231  1.2147
 9922TIP3   OH229708   6.274   1.296   5.204  0.2073  0.5934 -0.0692
 9922TIP3    H129709   6.327   1.299   5.125 -0.4597 -0.9719 -0.6149
 9922TIP3    H229710   6.336   1.301   5.277  0.8957  1.0193 -0.6897
 9923TIP3   OH229711   7.301   2.088   3.470 -0.3410  0.0539  0.3939
 9923TIP3    H129712   7.279   1.996   3.483 -1.5351  0.0846 -1.2682
 9923TIP3    H229713   7.261   2.111   3.387 -0.8735  2.3396  1.2418
 9924TIP3   OH229714   7.518   1.284   6.110  0.2804 -0.3536  0.7580
 9924TIP3    H129715   7.438   1.237   6.089 -0.1223  0.1541  1.1502
 9924TIP3    H229716   7.526   1.350   6.040 -0.6983  0.8909  1.8006
 9925TIP3   OH229717   2.312   7.542   0.599  0.4253 -0.1412  0.1010
 9925TIP3    H129718   2.276   7.469   0.549 -0.1812 -0.4640  0.9799
 9925TIP3    H229719   2.355   7.598   0.534 -0.2784 -0.5887 -0.7588
 9926TIP3   OH229720   7.712   1.306   6.336 -0.2023  0.3965  0.0948
 9926TIP3    H129721   7.636   1.275   6.287  0.3662 -0.4571 -0.2704
 9926TIP3    H229722   7.676   1.363   6.404 -1.2722 -1.0112  0.7398
 9927TIP3   OH229723   1.645   5.440   1.479  0.0354 -0.6157 -0.0504
 9927TIP3    H129724   1.565   5.392   1.456  1.1119 -2.2320 -0.5353
 9927TIP3    H229725   1.714   5.399   1.427  1.4805 -0.3321  1.5616
 9928TIP3   OH229726   7.466   2.254   5.888 -0.3188 -0.6509 -0.6640
 9928TIP3    H129727   7.538   2.308   5.853  0.2814 -0.5767  0.6709
 9928TIP3    H229728   7.451   2.188   5.819  1.0554 -0.6911 -0.9488
 9929TIP3   OH229729   5.427   0.794   6.205  0.0409 -0.0432 -0.2146
 9929TIP3    H129730   5.363   0.807   6.276 -1.4908  2.5945 -1.9957
 9929TIP3    H229731   5.386   0.729   6.148 -0.0344 -0.0179 -0.1895
 9930TIP3   OH229732   0.343   3.767   3.522  1.2140  0.0331 -0.1877
 9930TIP3    H129733   0.277   3.752   3.454  0.6918 -0.3411  0.3935
 9930TIP3    H229734   0.349   3.862   3.528  0.0075  0.0856  0.4297
 9931TIP3   OH229735   5.560   1.234   6.056  0.5113 -0.3968  0.0914
 9931TIP3    H129736   5.626   1.287   6.099 -0.8744  2.2419 -0.9327
 9931TIP3    H229737   5.507   1.198   6.127 -0.4290  2.1357  0.6974
 9932TIP3   OH229738   2.258   5.861   2.949 -0.4922 -0.0854  0.2651
 9932TIP3    H129739   2.280   5.829   2.862 -0.8753  1.7016 -0.4988
 9932TIP3    H229740   2.211   5.788   2.990  0.7182 -1.3781 -0.5671
 9933TIP3   OH229741   0.426   1.092   5.378 -0.2344  0.1301 -0.0501
 9933TIP3    H129742   0.475   1.023   5.422 -0.0945  1.5301  2.0578
 9933TIP3    H229743   0.477   1.113   5.300  0.4515 -1.1325  0.0485
 9934TIP3   OH229744   1.127   5.449   0.712  0.0684  0.1707  0.2071
 9934TIP3    H129745   1.092   5.472   0.626 -0.1013 -0.4117  0.1113
 9934TIP3    H229746   1.049   5.436   0.766  0.1855  1.1174  0.6108
 9935TIP3   OH229747   0.694   5.737   1.027  0.3318 -0.2982  0.0881
 9935TIP3    H129748   0.699   5.736   1.123 -2.8124  0.9741  0.3438
 9935TIP3    H229749   0.628   5.671   1.006  0.1492  0.2359 -1.0959
 9936TIP3   OH229750   5.555   7.233   5.241 -0.3827 -0.4775  0.3489
 9936TIP3    H129751   5.544   7.244   5.146 -0.2155 -1.0124  0.2644
 9936TIP3    H229752   5.467   7.247   5.276 -0.6049 -1.0630  0.0338
 9937TIP3   OH229753   3.520   7.830   6.129  0.0873  0.2043  0.4787
 9937TIP3    H129754   3.477   7.767   6.187  1.9708 -0.1051  1.5705
 9937TIP3    H229755   3.612   7.805   6.130  0.8151  2.8100  0.6894
 9938TIP3   OH229756   2.476   4.449   0.463  0.1007 -0.0005 -0.2234
 9938TIP3    H129757   2.420   4.486   0.395  1.3660  0.7385 -0.8690
 9938TIP3    H229758   2.523   4.524   0.500 -1.6202 -0.1699  2.4898
 9939TIP3   OH229759   8.207   5.758   0.995 -0.1046  0.2330  0.2413
 9939TIP3    H129760   8.296   5.781   1.021  0.1050  0.2370 -0.4662
 9939TIP3    H229761   8.185   5.821   0.926 -1.2917  1.3077  1.5690
 9940TIP3   OH229762   8.478   4.366   0.345 -0.5699 -0.0026 -0.4217
 9940TIP3    H129763   8.436   4.311   0.411 -1.5460  0.3896 -0.7013
 9940TIP3    H229764   8.567   4.332   0.337 -0.6766 -0.5123  0.5659
 9941TIP3   OH229765   8.185   2.457   6.632  0.2274  0.4055 -0.1495
 9941TIP3    H129766   8.202   2.369   6.664 -0.7190  0.0234 -0.6807
 9941TIP3    H229767   8.117   2.491   6.691 -0.3471  0.3003 -0.7493
 9942TIP3   OH229768   7.768   3.358   5.648  0.1212 -0.0802 -0.0238
 9942TIP3    H129769   7.816   3.281   5.677 -0.9588 -0.2690  1.3395
 9942TIP3    H229770   7.678   3.328   5.636 -0.1739  0.8177 -0.1129
 9943TIP3   OH229771   3.860   6.875   0.519  0.4404 -0.1556  0.0613
 9943TIP3    H129772   3.857   6.800   0.579  1.0764  0.7804  1.2908
 9943TIP3    H229773   3.910   6.942   0.567  0.0778  0.9720 -1.1083
 9944TIP3   OH229774   8.001   7.083   1.076  0.5312  0.0332  0.8707
 9944TIP3    H129775   7.946   7.037   1.012  0.5259  0.7484  0.3457
 9944TIP3    H229776   7.960   7.066   1.160 -1.4703  1.8670  0.3308
 9945TIP3   OH229777   7.882   3.490   4.898  0.1048  0.0494 -0.1266
 9945TIP3    H129778   7.911   3.563   4.952 -1.6388  0.8633 -0.2747
 9945TIP3    H229779   7.826   3.439   4.956 -0.3712 -0.0261 -0.6571
 9946TIP3   OH229780   8.271   1.329   6.890 -0.2372 -0.7250 -0.6612
 9946TIP3    H129781   8.362   1.304   6.873 -0.4912 -1.2557 -1.2528
 9946TIP3    H229782   8.224   1.304   6.810 -0.9023 -0.4519 -0.3564
 9947TIP3   OH229783   1.290   5.905   0.125  0.0553  0.3767  0.4818
 9947TIP3    H129784   1.272   5.815   0.152  0.0215  1.0495  2.8248
 9947TIP3    H229785   1.205   5.939   0.097  0.1371 -0.4201 -0.7723
 9948TIP3   OH229786   8.210   2.406   6.006  0.1021 -0.1552 -0.5956
 9948TIP3    H129787   8.210   2.417   6.101  0.4323 -0.0381 -0.6106
 9948TIP3    H229788   8.298   2.429   5.978  0.2834 -1.1078 -0.8304
 9949TIP3   OH229789   1.038   0.487   4.803  0.1331 -0.5783 -0.3474
 9949TIP3    H129790   0.979   0.501   4.729 -0.3004  0.8070  0.2537
 9949TIP3    H229791   1.096   0.563   4.803 -1.2135  0.4933  1.9896
 9950TIP3   OH229792   0.666   6.321   1.926 -0.2754  0.6938  0.1499
 9950TIP3    H129793   0.710   6.391   1.878  1.6385 -0.4939  0.1040
 9950TIP3    H229794   0.719   6.310   2.005 -0.9177 -0.2795  0.4548
 9951TIP3   OH229795   0.738   2.196   4.873  0.1393 -0.0202 -0.3951
 9951TIP3    H129796   0.657   2.234   4.840  0.6688 -0.4363 -2.2738
 9951TIP3    H229797   0.764   2.133   4.805  0.8668 -1.4979  1.2254
 9952TIP3   OH229798   0.072   5.243   1.104  0.2535 -0.2315  0.0663
 9952TIP3    H129799   0.116   5.234   1.188  0.1369  0.1265  0.1623
 9952TIP3    H229800   0.123   5.309   1.056 -1.4450  1.8151  1.0015
 9953TIP3   OH229801   6.873   2.392   6.387  0.0764  0.6737 -0.5082
 9953TIP3    H129802   6.910   2.380   6.475  1.2181 -0.3284 -1.1047
 9953TIP3    H229803   6.829   2.477   6.391 -1.4797 -0.1793  1.5649
 9954TIP3   OH229804   8.233   3.562   0.355  0.3488 -0.1425 -0.6177
 9954TIP3    H129805   8.150   3.606   0.375  1.5492  1.5267  0.8232
 9954TIP3    H229806   8.284   3.627   0.307  2.6638  0.6618  2.6775
 9955TIP3   OH229807   6.695   1.085   6.148 -0.2601  0.1358  0.5776
 9955TIP3    H129808   6.700   1.104   6.241  1.7303 -2.3177  0.9952
 9955TIP3    H229809   6.777   1.118   6.112 -0.1082 -0.8029  0.0501
 9956TIP3   OH229810   1.167   7.598   0.409 -0.5375 -0.7262 -0.1086
 9956TIP3    H129811   1.232   7.661   0.378  0.7816 -0.6480  2.6585
 9956TIP3    H229812   1.209   7.513   0.396 -0.4417 -0.7564  0.3831
 9957TIP3   OH229813   0.721   0.863   4.204 -0.1651  0.1441 -0.0717
 9957TIP3    H129814   0.757   0.936   4.253 -0.8103 -0.0967  0.7735
 9957TIP3    H229815   0.667   0.903   4.136 -2.6209  0.4656  1.9800
 9958TIP3   OH229816   7.469   4.150   6.483  0.3741  0.6283  0.0906
 9958TIP3    H129817   7.538   4.163   6.417 -0.4508  0.7477 -0.7603
 9958TIP3    H229818   7.479   4.059   6.511  0.1729  0.3066 -0.8525
 9959TIP3   OH229819   7.697   1.408   5.893 -0.4327 -0.2903  0.1041
 9959TIP3    H129820   7.729   1.497   5.909 -1.1474  0.0292 -0.2429
 9959TIP3    H229821   7.772   1.352   5.915  0.0385  0.3955  0.2764
 9960TIP3   OH229822   6.242   3.646   4.724 -0.5528 -0.5169  0.1956
 9960TIP3    H129823   6.164   3.591   4.724  1.1294 -3.0306  2.9696
 9960TIP3    H229824   6.253   3.674   4.814  0.3045  1.9887 -0.6382
 9961TIP3   OH229825   6.928   1.889   3.527 -0.2913  1.0126  0.5118
 9961TIP3    H129826   6.924   1.918   3.436 -1.1315  0.7475  0.4604
 9961TIP3    H229827   6.959   1.799   3.522 -1.3603  0.6385  0.4040
 9962TIP3   OH229828   7.698   3.461   4.040  0.2971  0.2076 -0.1966
 9962TIP3    H129829   7.698   3.528   4.108  2.3030 -0.1894  0.2301
 9962TIP3    H229830   7.616   3.474   3.992 -0.1008  1.8778  0.9283
 9963TIP3   OH229831   6.259   4.405   5.835  0.4859  0.7400 -0.3165
 9963TIP3    H129832   6.199   4.354   5.890  0.5380  0.3833 -0.5885
 9963TIP3    H229833   6.279   4.483   5.887 -0.0642  0.7693 -0.1436
 9964TIP3   OH229834   2.070   5.415   0.062  0.2723  0.2909 -0.6391
 9964TIP3    H129835   2.054   5.375  -0.023  2.0979 -0.1869 -0.7940
 9964TIP3    H229836   2.146   5.472   0.048  0.5332  0.2817  0.6281
 9965TIP3   OH229837   5.198   7.401   4.259  0.3396  0.2145  0.3220
 9965TIP3    H129838   5.216   7.414   4.353  0.3134 -0.7540  0.4609
 9965TIP3    H229839   5.271   7.444   4.215  0.5930  0.2787  0.8000
 9966TIP3   OH229840   7.252   2.878   6.902  0.3303  0.3298 -0.5309
 9966TIP3    H129841   7.216   2.924   6.978 -1.3519 -0.7386 -0.6502
 9966TIP3    H229842   7.251   2.943   6.832  1.4702  1.1894  0.2356
 9967TIP3   OH229843   1.010   3.311   3.761  0.3824  0.0028 -0.6155
 9967TIP3    H129844   1.004   3.296   3.667 -1.3598  0.9440 -0.6768
 9967TIP3    H229845   0.968   3.396   3.775 -1.0994 -0.9953  1.2230
 9968TIP3   OH229846   1.490   5.725   0.326 -0.1166  0.2394  0.1962
 9968TIP3    H129847   1.439   5.804   0.305 -2.2214 -1.0365  0.3890
 9968TIP3    H229848   1.520   5.740   0.416  0.0801  1.1336 -0.0126
 9969TIP3   OH229849   6.611   2.095   6.340  0.0845  0.3304 -0.4937
 9969TIP3    H129850   6.673   2.073   6.410 -0.1535 -0.5709 -0.5617
 9969TIP3    H229851   6.582   2.184   6.360  2.1002  1.1200 -0.9675
 9970TIP3   OH229852   6.574   2.989   6.649  0.7732 -0.4089  0.0368
 9970TIP3    H129853   6.512   3.048   6.692  2.9017  0.9542  1.3414
 9970TIP3    H229854   6.519   2.932   6.595 -1.8011 -0.6488  2.7523
 9971TIP3   OH229855   6.655   1.477   6.547 -0.0520  0.3197 -0.2771
 9971TIP3    H129856   6.684   1.408   6.487 -1.1390  0.5352 -1.0554
 9971TIP3    H229857   6.714   1.550   6.530  1.2495 -0.4725  0.7023
 9972TIP3   OH229858   6.246   1.974   5.151  0.1590 -0.7077 -0.0386
 9972TIP3    H129859   6.242   1.974   5.246 -0.9988  0.8362 -0.0582
 9972TIP3    H229860   6.207   1.891   5.124  0.4844 -1.1394  0.8311
 9973TIP3   OH229861   7.049   6.138   0.971 -0.7421 -0.0181  0.6062
 9973TIP3    H129862   7.072   6.216   1.021 -1.5073  0.6187 -0.0238
 9973TIP3    H229863   7.052   6.166   0.880  1.4170 -1.3660  0.2196
 9974TIP3   OH229864   8.150   0.366   6.231  0.5554  0.0711 -0.3877
 9974TIP3    H129865   8.148   0.409   6.145 -0.5502 -1.1091 -0.9678
 9974TIP3    H229866   8.062   0.380   6.266  0.5557 -0.6910 -0.0760
 9975TIP3   OH229867   8.003   0.872   5.974  0.3937  0.0670  0.1137
 9975TIP3    H129868   8.096   0.850   5.978  0.5180  0.6231  0.3748
 9975TIP3    H229869   7.958   0.791   5.995  0.8036 -0.4625 -0.9999
 9976TIP3   OH229870   0.855   0.132   5.261 -0.1075  0.1601 -0.4117
 9976TIP3    H129871   0.795   0.068   5.300  0.7480 -1.3483 -1.4992
 9976TIP3    H229872   0.810   0.216   5.269 -1.1419 -0.5426  1.2724
 9977TIP3   OH229873   8.092   1.237   6.697  0.0954  0.2005  0.4831
 9977TIP3    H129874   8.127   1.244   6.608 -0.0422 -0.9918  0.3340
 9977TIP3    H229875   7.999   1.255   6.688  0.0518 -0.0860  0.3606
 9978TIP3   OH229876   5.998   1.660   4.675  0.2469 -1.0752 -0.0750
 9978TIP3    H129877   6.090   1.640   4.660  0.5939 -0.5672  1.3051
 9978TIP3    H229878   5.996   1.701   4.761 -1.0480  0.5411 -0.8477
 9979TIP3   OH229879   7.380   0.277   6.481 -0.0591  0.0245 -0.1176
 9979TIP3    H129880   7.409   0.242   6.397 -0.1261  1.3775 -0.7028
 9979TIP3    H229881   7.287   0.297   6.469 -0.4886 -1.3227  0.7930
 9980TIP3   OH229882   6.406   2.318   6.048  0.0773  0.2089  0.7789
 9980TIP3    H129883   6.332   2.355   6.095 -1.5758 -0.5028 -1.1762
 9980TIP3    H229884   6.458   2.394   6.020 -1.2522  0.8635  0.0567
 9981TIP3   OH229885   0.814   6.978   2.869  0.2861  0.2258 -0.1564
 9981TIP3    H129886   0.829   6.884   2.862  1.1909  0.3877 -0.3868
 9981TIP3    H229887   0.777   7.002   2.784 -0.8016 -0.0735  0.2201
 9982TIP3   OH229888   7.023   7.868   5.199 -0.2396  0.4537  0.4540
 9982TIP3    H129889   7.007   7.879   5.105  0.2906 -0.3393  0.2653
 9982TIP3    H229890   7.100   7.811   5.203 -0.2492  0.5096  1.3711
 9983TIP3   OH229891   7.539   0.923   6.533 -0.3519  0.3263  0.3572
 9983TIP3    H129892   7.540   0.859   6.605 -0.7290  0.3853  0.4163
 9983TIP3    H229893   7.631   0.945   6.520 -0.3473  0.9520  1.3906
 9984TIP3   OH229894   0.639   3.920   6.350  0.6761 -0.5473  0.0801
 9984TIP3    H129895   0.568   3.982   6.333  1.2569  0.1627  0.1804
 9984TIP3    H229896   0.714   3.976   6.371  1.1085 -1.3040  0.5593
 9985TIP3   OH229897   8.008   2.131   6.514 -0.2017 -0.0473  0.0075
 9985TIP3    H129898   8.037   2.156   6.427  1.0424  1.3168  0.7949
 9985TIP3    H229899   7.922   2.091   6.500 -0.7177  1.5692 -1.6807
 9986TIP3   OH229900   0.950   3.469   1.285  0.2902  0.0704 -0.1155
 9986TIP3    H129901   0.959   3.434   1.196  0.2723 -0.5899  0.1446
 9986TIP3    H229902   0.997   3.552   1.283  0.8192 -0.2421 -0.5680
 9987TIP3   OH229903   7.560   2.870   4.969 -0.3753 -0.2867 -0.3469
 9987TIP3    H129904   7.552   2.809   4.896  0.3727  0.3015 -0.9398
 9987TIP3    H229905   7.585   2.953   4.928  0.0328  0.0541  0.5744
 9988TIP3   OH229906   6.410   3.981   4.900 -0.4930  0.5499 -0.5725
 9988TIP3    H129907   6.374   3.935   4.976 -1.3458  1.2558 -0.5493
 9988TIP3    H229908   6.505   3.978   4.913 -0.5992 -0.0519  0.0987
 9989TIP3   OH229909   5.170   6.890   4.229  0.2638  0.0414 -0.2762
 9989TIP3    H129910   5.142   6.967   4.179  1.5114  0.3467 -0.5095
 9989TIP3    H229911   5.105   6.823   4.207 -0.3692  0.7831 -0.7016
 9990TIP3   OH229912   8.393   0.548   6.253 -0.4961 -0.2159 -0.5291
 9990TIP3    H129913   8.427   0.635   6.233  2.0129 -1.1911 -0.7044
 9990TIP3    H229914   8.391   0.545   6.349  2.1866 -0.9392 -0.4528
 9991TIP3   OH229915   0.091   7.047   0.658  0.1140  0.1588  0.3317
 9991TIP3    H129916   0.172   7.099   0.657  0.6876 -0.6835  1.3875
 9991TIP3    H229917   0.035   7.093   0.721  0.6057 -0.4801  1.2354
 9992TIP3   OH229918   7.360   3.543   4.917 -0.4604  0.3257 -0.2300
 9992TIP3    H129919   7.430   3.597   4.953 -1.1118  0.4701  0.8391
 9992TIP3    H229920   7.403   3.488   4.852  0.5939  0.6370  0.2015
 9993TIP3   OH229921   0.790   3.266   0.316  0.1590 -0.4328 -0.3229
 9993TIP3    H129922   0.867   3.253   0.372 -1.0966  1.7808  2.0486
 9993TIP3    H229923   0.741   3.336   0.360 -3.0859 -1.6273 -1.9205
 9994TIP3   OH229924   5.524   2.039   2.617 -0.0504  0.1559  0.5115
 9994TIP3    H129925   5.490   2.040   2.706  1.6037 -0.0476  1.1557
 9994TIP3    H229926   5.611   2.079   2.624 -0.0743  0.5268 -1.0770
 9995TIP3   OH229927   8.391   1.768   5.231  0.2200  0.3844 -0.3571
 9995TIP3    H129928   8.472   1.793   5.275 -0.0584  0.2877  0.2237
 9995TIP3    H229929   8.405   1.677   5.205  0.0866  0.1883  0.2499
 9996TIP3   OH229930   1.307   2.230   4.457  0.1160 -0.0536  0.7538
 9996TIP3    H129931   1.237   2.291   4.435  0.7118  0.4056  0.0987
 9996TIP3    H229932   1.384   2.286   4.470  0.6979 -0.6699  0.0033
 9997TIP3   OH229933   2.375   7.313   5.768  0.8007 -0.0355  0.5256
 9997TIP3    H129934   2.339   7.343   5.851 -0.8890 -0.9669  0.1655
 9997TIP3    H229935   2.429   7.386   5.737 -0.6894  1.3751  1.1735
 9998TIP3   OH229936   1.837   4.237   0.544 -0.1357  0.6530 -0.1982
 9998TIP3    H129937   1.791   4.181   0.607  0.6177 -2.3385 -2.2036
 9998TIP3    H229938   1.865   4.178   0.475 -0.8828  3.8436 -3.3819
 9999TIP3   OH229939   0.556   6.838   0.174  0.4221  0.0104  0.1112
 9999TIP3    H129940   0.620   6.770   0.156  1.2622  0.4247  1.4836
 9999TIP3    H229941   0.605   6.906   0.221 -1.0395  0.2704  1.3024
10000TIP3   OH229942   5.003   4.152   5.541  0.0286  0.3437  1.2744
10000TIP3    H129943   4.946   4.154   5.463  0.3213 -1.9121  0.9521
10000TIP3    H229944   4.943   4.134   5.613  0.3225 -2.5973  0.8616
10001TIP3   OH229945   6.840   1.903   6.295  0.0393 -0.2429 -0.5359
10001TIP3    H129946   6.811   1.833   6.354 -1.4320  0.4206 -0.4499
10001TIP3    H229947   6.762   1.926   6.245  0.8490  0.4131 -1.5127
10002TIP3   OH229948   0.832   7.233   0.626 -0.3259 -0.7804 -0.6012
10002TIP3    H129949   0.894   7.215   0.555  1.6964 -0.0794  0.9387
10002TIP3    H229950   0.856   7.171   0.695  0.0938  0.9587  0.8445
10003TIP3   OH229951   1.399   0.912   4.801  0.4030  0.2342 -0.1771
10003TIP3    H129952   1.367   0.872   4.882 -1.0722 -1.7631 -1.6979
10003TIP3    H229953   1.346   0.991   4.790 -1.2673 -0.9158 -0.5647
10004TIP3   OH229954   6.701   3.780   3.889  0.1148  0.0576 -0.6908
10004TIP3    H129955   6.657   3.721   3.950 -1.3979 -0.6776 -2.4584
10004TIP3    H229956   6.722   3.857   3.942  0.5532 -1.3173  1.2176
10005TIP3   OH229957   4.933   7.416   4.209  0.2284 -0.0225 -0.0669
10005TIP3    H129958   5.025   7.400   4.229 -0.2483 -3.2055 -0.1203
10005TIP3    H229959   4.886   7.350   4.259 -1.8120 -0.3191 -2.2760
10006TIP3   OH229960   8.028   1.072   4.828  0.4227  0.5627 -0.2411
10006TIP3    H129961   8.004   0.988   4.866 -0.2271  1.2592  0.9023
10006TIP3    H229962   8.105   1.100   4.878  1.4524  0.0372 -1.4959
10007TIP3   OH229963   8.070   0.543   4.708  0.5895 -0.4149  0.0417
10007TIP3    H129964   8.140   0.546   4.643 -0.6094  1.7339 -1.1890
10007TIP3    H229965   7.995   0.582   4.664 -1.2061 -2.0308  1.5802
10008TIP3   OH229966   1.819   4.485   1.637  0.6350  0.1234 -0.1155
10008TIP3    H129967   1.823   4.390   1.624 -0.1440  0.2714 -1.4566
10008TIP3    H229968   1.760   4.496   1.712 -0.2807 -0.4049 -0.7394
10009TIP3   OH229969   6.731   7.694   4.958 -0.1038  0.3877 -0.1424
10009TIP3    H129970   6.740   7.782   4.996  2.1351 -0.7474  2.0735
10009TIP3    H229971   6.808   7.682   4.904 -1.0632  0.2556 -1.5147
10010TIP3   OH229972   0.246   0.306   4.021 -0.0559  0.1292  0.0636
10010TIP3    H129973   0.333   0.267   4.012  0.0766  0.4799 -0.1648
10010TIP3    H229974   0.231   0.353   3.939  0.2940  1.5851  0.8197
10011TIP3   OH229975   3.794   5.987   0.925 -0.1874 -0.9082  0.1734
10011TIP3    H129976   3.853   5.914   0.945 -0.5793 -1.3492 -0.2752
10011TIP3    H229977   3.709   5.946   0.912 -0.8326 -0.1669  1.8750
10012TIP3   OH229978   1.347   5.289   0.248  0.2057 -0.0003  0.2086
10012TIP3    H129979   1.431   5.274   0.206  0.3640 -2.2634  1.2307
10012TIP3    H229980   1.368   5.333   0.330  0.3879 -0.5404  0.4503
10013TIP3   OH229981   1.970   5.876   1.417  0.9214  0.1041 -0.1838
10013TIP3    H129982   2.008   5.894   1.331  0.6483 -0.0552 -0.3412
10013TIP3    H229983   1.895   5.935   1.422  1.0281  0.2236  0.0108
10014TIP3   OH229984   0.476   0.325   3.749  0.1089 -0.4038  0.3054
10014TIP3    H129985   0.487   0.239   3.709  0.0874  0.4638 -1.5890
10014TIP3    H229986   0.381   0.338   3.754  0.1232  0.0335 -0.5489
10015TIP3   OH229987   6.842   4.257   0.839 -0.1476 -0.0069 -0.3965
10015TIP3    H129988   6.809   4.199   0.907  0.9791  0.5757  0.6675
10015TIP3    H229989   6.872   4.198   0.769 -1.0842 -0.6091 -0.2997
10016TIP3   OH229990   1.084   3.711   0.857  0.3229  0.2104 -0.1485
10016TIP3    H129991   1.065   3.652   0.930  1.7856  1.1582  1.0223
10016TIP3    H229992   1.124   3.654   0.791 -0.7803 -0.6073 -0.1361
10017TIP3   OH229993   0.612   2.436   6.332  0.2581  0.3112 -0.8874
10017TIP3    H129994   0.577   2.521   6.306  1.2599  0.4868 -1.6462
10017TIP3    H229995   0.704   2.439   6.309  0.0765 -1.3820 -1.8883
10018TIP3   OH229996   2.105   6.798   0.880  0.1466  0.5329 -0.1861
10018TIP3    H129997   2.129   6.765   0.794 -1.2250  2.7209 -1.4708
10018TIP3    H229998   2.167   6.756   0.940  2.2338  0.2569 -2.4357
10019TIP3   OH229999   8.438   2.495   5.850 -0.4164 -0.2893  0.2627
10019TIP3    H130000   8.466   2.443   5.774  0.9968 -0.2509  0.7402
10019TIP3    H230001   8.494   2.572   5.849 -0.5911 -0.1390  1.1682
10020TIP3   OH230002   0.221   6.893   1.205 -0.1328  0.5457  0.1459
10020TIP3    H130003   0.211   6.966   1.143 -1.6975  0.4007  0.2251
10020TIP3    H230004   0.132   6.860   1.218  0.6068 -1.7094 -0.2818
10021TIP3   OH230005   5.360   3.308   6.815 -0.2151  0.1340 -0.5826
10021TIP3    H130006   5.335   3.313   6.907 -0.1121  1.0424 -0.5998
10021TIP3    H230007   5.387   3.217   6.802 -1.2652 -0.2727  0.0179
10022TIP3   OH230008   1.721   5.531   0.007  0.2431 -0.6822 -0.0254
10022TIP3    H130009   1.760   5.607  -0.036  0.7775 -0.1972  1.2776
10022TIP3    H230010   1.721   5.554   0.100 -0.0417 -2.0773  0.3293
10023TIP3   OH230011   6.160   2.527   6.804 -0.6070  0.1903  0.0754
10023TIP3    H130012   6.180   2.534   6.710 -1.4809 -0.0561 -0.1302
10023TIP3    H230013   6.245   2.506   6.844 -0.1847  0.5062 -0.6314
10024TIP3   OH230014   6.931   2.330   6.133 -0.0472 -0.2340 -0.3239
10024TIP3    H130015   6.907   2.346   6.224  0.0985 -1.8969  0.0176
10024TIP3    H230016   7.020   2.366   6.125 -0.1821  0.2011  0.0973
10025TIP3   OH230017   0.694   6.262   1.466 -0.4699  0.3964  0.5851
10025TIP3    H130018   0.773   6.291   1.511  0.0412  1.9067 -1.2296
10025TIP3    H230019   0.624   6.277   1.529  0.4220  1.0679  1.4271
10026TIP3   OH230020   2.247   5.604   0.055 -0.1049 -0.1027  0.1471
10026TIP3    H130021   2.336   5.601   0.022 -0.6888  0.9208 -1.6008
10026TIP3    H230022   2.238   5.691   0.094 -1.0471  0.7429 -1.8648
10027TIP3   OH230023   7.545   3.217   6.448 -0.0637 -0.1804 -0.3943
10027TIP3    H130024   7.611   3.149   6.430 -1.6680 -1.4986 -1.5079
10027TIP3    H230025   7.462   3.176   6.422 -1.1428  1.9668 -0.3884
10028TIP3   OH230026   5.290   2.993   5.905 -0.0958 -0.1039  0.1011
10028TIP3    H130027   5.269   3.050   5.832 -1.6701 -0.3501  0.3451
10028TIP3    H230028   5.205   2.970   5.943  0.7528  1.1935  2.8967
10029TIP3   OH230029   0.527   3.379   5.186 -0.2152  0.1511  0.3981
10029TIP3    H130030   0.458   3.415   5.130  0.3675  2.3806  1.0467
10029TIP3    H230031   0.609   3.412   5.149  0.5920 -2.9347 -0.6929
10030TIP3   OH230032   0.327   1.955   4.962  0.0251  0.2872 -0.8971
10030TIP3    H130033   0.299   1.994   4.879  2.2105  0.0195 -1.7927
10030TIP3    H230034   0.409   1.999   4.983  1.4897 -2.3598 -0.8734
10031TIP3   OH230035   4.772   2.444   4.854 -0.0556  0.7274  0.0243
10031TIP3    H130036   4.844   2.401   4.901 -0.7329 -0.5383 -0.0705
10031TIP3    H230037   4.811   2.524   4.820  1.1583  0.3549  0.4916
10032TIP3   OH230038   7.545   2.638   6.393 -0.9632 -0.1470  0.0492
10032TIP3    H130039   7.468   2.626   6.450 -1.2701 -0.0243 -0.3396
10032TIP3    H230040   7.612   2.672   6.452 -0.9943 -0.9198  0.5401
10033TIP3   OH230041   1.842   0.232   5.881 -0.4648  0.5971  0.5219
10033TIP3    H130042   1.888   0.234   5.965 -1.2530  0.4631  0.9627
10033TIP3    H230043   1.777   0.302   5.888  0.3120  1.4151 -0.4626
10034TIP3   OH230044   0.728   0.587   5.924  0.1770  0.7157 -0.4209
10034TIP3    H130045   0.671   0.579   5.847  0.3537 -0.0535 -0.4806
10034TIP3    H230046   0.684   0.650   5.980 -2.7092 -2.6571  1.2533
10035TIP3   OH230047   5.192   2.553   5.946 -0.2484  0.5418  0.0429
10035TIP3    H130048   5.250   2.610   5.896 -0.6318 -0.4819 -1.5971
10035TIP3    H230049   5.106   2.595   5.940 -0.7629 -0.7878 -2.1323
10036TIP3   OH230050   0.120   2.982   6.484 -0.0296 -0.5906  0.0652
10036TIP3    H130051   0.108   3.030   6.567  1.6328 -1.4209  0.8057
10036TIP3    H230052   0.187   3.032   6.437  0.8835 -1.5288  0.3485
10037TIP3   OH230053   8.366   1.068   5.180  0.3684 -0.2760 -0.3165
10037TIP3    H130054   8.411   0.994   5.140  2.1856  0.9467 -0.5968
10037TIP3    H230055   8.435   1.133   5.195 -1.0683  1.0907  0.5500
10038TIP3   OH230056   7.466   4.260   4.901 -0.4228 -0.0442  0.0450
10038TIP3    H130057   7.540   4.199   4.899 -1.0913 -0.8981  0.8378
10038TIP3    H230058   7.460   4.288   4.992 -0.4380  0.8219 -0.2187
10039TIP3   OH230059   0.407   4.539   3.090 -0.2957 -0.0749 -0.0403
10039TIP3    H130060   0.461   4.486   3.148  0.6586  0.1577 -0.7049
10039TIP3    H230061   0.372   4.477   3.026 -0.4843 -0.1606  0.1466
10040TIP3   OH230062   1.889   1.247   5.010  0.1227 -0.1252  0.3680
10040TIP3    H130063   1.823   1.316   4.998  2.7424  2.0666 -2.1172
10040TIP3    H230064   1.945   1.281   5.080  1.0215 -0.0517 -0.3890
10041TIP3   OH230065   0.281   2.279   2.617 -0.0505 -0.2397  0.3600
10041TIP3    H130066   0.305   2.371   2.625 -0.3089  0.1020 -2.3533
10041TIP3    H230067   0.328   2.249   2.539  0.1280 -2.4547  1.2777
10042TIP3   OH230068   1.639   2.392   5.563 -1.1086 -0.5007  0.5350
10042TIP3    H130069   1.609   2.482   5.551 -0.2158 -0.3755 -0.9261
10042TIP3    H230070   1.716   2.399   5.618 -0.6203 -0.2991 -0.1738
10043TIP3   OH230071   8.147   7.327   5.191 -0.1128  0.3406  0.0489
10043TIP3    H130072   8.180   7.301   5.278  1.0275  2.0087  0.1423
10043TIP3    H230073   8.056   7.353   5.207 -0.8437 -2.1557  0.1966
10044TIP3   OH230074   1.150   1.744   3.081  0.2862 -0.3798  0.1696
10044TIP3    H130075   1.137   1.665   3.029 -0.1612  0.4734 -1.0445
10044TIP3    H230076   1.076   1.745   3.142  0.2308 -0.8378  0.1144
10045TIP3   OH230077   6.301   5.934   4.811  0.5732 -0.4480  0.3708
10045TIP3    H130078   6.234   5.886   4.860  1.0799  1.1522  2.7303
10045TIP3    H230079   6.252   5.994   4.755 -0.0774  2.9351  4.3278
10046TIP3   OH230080   0.556   1.662   6.090 -0.6336 -0.0831  0.3943
10046TIP3    H130081   0.546   1.749   6.128 -2.2139  0.0649 -0.3170
10046TIP3    H230082   0.640   1.664   6.045 -1.2063  1.4630 -0.6143
10047TIP3   OH230083   0.564   4.281   5.691  0.0491 -0.3802  0.1911
10047TIP3    H130084   0.476   4.311   5.715  0.2915 -0.8260  1.7206
10047TIP3    H230085   0.569   4.192   5.726  1.1975 -0.2542  0.3583
10048TIP3   OH230086   7.023   7.937   5.686  0.3855 -0.6176  0.7782
10048TIP3    H130087   7.003   7.968   5.597  1.9838 -1.4978  0.0831
10048TIP3    H230088   6.938   7.932   5.730 -0.2634  1.2509 -0.2313
10049TIP3   OH230089   1.356   0.239   5.073  0.3977 -0.2237 -0.4387
10049TIP3    H130090   1.401   0.210   4.994 -0.0845 -2.2073  0.0056
10049TIP3    H230091   1.263   0.231   5.053  0.2453  1.2719 -0.3918
10050TIP3   OH230092   7.057   4.105   5.714 -0.4515 -0.2627  0.1956
10050TIP3    H130093   7.089   4.155   5.789 -1.6299  1.2983 -0.3129
10050TIP3    H230094   7.129   4.107   5.651 -0.8650  1.6797 -0.2266
10051TIP3   OH230095   7.550   3.212   4.483 -0.1276  0.6053  0.5682
10051TIP3    H130096   7.618   3.159   4.523  0.8306  1.3860  0.0071
10051TIP3    H230097   7.509   3.154   4.419 -0.1106  0.0780  1.0295
10052TIP3   OH230098   1.054   1.377   5.954 -0.3359 -0.2247  0.4286
10052TIP3    H130099   1.030   1.327   5.876 -0.5881  0.4490  0.0692
10052TIP3    H230100   1.126   1.327   5.994  0.8621  0.2702 -1.0979
10053TIP3   OH230101   2.398   6.925   1.554  0.2564 -0.2940  0.0925
10053TIP3    H130102   2.471   6.981   1.581  1.5787 -1.1440 -1.6323
10053TIP3    H230103   2.330   6.986   1.526  0.5183  0.4955  1.1569
10054TIP3   OH230104   6.247   7.866   4.979 -0.0915  0.7190 -0.3167
10054TIP3    H130105   6.221   7.951   4.942  1.4101  1.5213  0.4633
10054TIP3    H230106   6.244   7.879   5.073  0.5747  0.0313 -0.1959
10055TIP3   OH230107   8.221   2.977   6.145 -0.0984  0.1420 -0.7076
10055TIP3    H130108   8.169   3.049   6.181  0.5631  0.2091  0.1422
10055TIP3    H230109   8.302   2.979   6.197 -0.0955 -1.2355 -0.6546
10056TIP3   OH230110   0.120  -0.025   6.623 -0.6065  0.0226 -0.1121
10056TIP3    H130111   0.100   0.038   6.554 -0.0031 -2.8801 -3.0634
10056TIP3    H230112   0.204   0.005   6.659  0.7036 -0.1527 -2.8630
10057TIP3   OH230113   7.060   2.092   6.671  0.3533 -0.3227 -0.2377
10057TIP3    H130114   7.107   2.061   6.593 -1.0933  2.3536 -2.2353
10057TIP3    H230115   6.968   2.083   6.648 -0.0858  2.3826  0.3945
10058TIP3   OH230116   6.181   0.540   0.839 -0.0408 -0.4150  0.4217
10058TIP3    H130117   6.246   0.548   0.769  0.1455 -0.2158  0.6156
10058TIP3    H230118   6.120   0.612   0.823 -1.1299 -1.5718 -0.7097
10059TIP3   OH230119   2.220   3.711   6.958  0.0196 -0.0116  0.0397
10059TIP3    H130120   2.300   3.677   6.918 -0.4023 -0.4849 -0.4133
10059TIP3    H230121   2.201   3.792   6.909  0.1130 -0.0054  0.0141
10060TIP3   OH230122   2.038   2.778   5.751  0.0660 -0.3970  0.2432
10060TIP3    H130123   2.044   2.871   5.773 -2.1136 -0.1021 -0.2518
10060TIP3    H230124   2.109   2.737   5.799  0.2657  1.3562  1.4866
10061TIP3   OH230125   3.331   7.029   0.580  0.0708 -0.0444 -0.0650
10061TIP3    H130126   3.421   6.996   0.578  0.1330  0.1039  0.2244
10061TIP3    H230127   3.288   6.980   0.650  0.4973  1.3065  1.1853
10062TIP3   OH230128   1.226   2.237   5.320  0.2718  0.4501 -0.1767
10062TIP3    H130129   1.145   2.257   5.368 -0.3178 -1.4860 -0.2945
10062TIP3    H230130   1.294   2.237   5.387 -0.0711  0.7170  0.1722
10063TIP3   OH230131   1.987   4.506   6.756  0.1542 -0.2491  0.1341
10063TIP3    H130132   1.931   4.578   6.726  0.0837 -0.5128 -0.3698
10063TIP3    H230133   2.036   4.480   6.678  1.2269  0.2013  0.6584
10064TIP3   OH230134   0.383   2.596   6.088  0.2271  0.1611 -0.2013
10064TIP3    H130135   0.359   2.650   6.013 -0.1331 -1.2488 -1.1314
10064TIP3    H230136   0.476   2.612   6.100  0.5421 -0.4566 -1.6821
10065TIP3   OH230137   2.880   2.942   6.165  0.4211 -0.0331 -0.1982
10065TIP3    H130138   2.789   2.942   6.195 -0.5424  1.2810 -2.9722
10065TIP3    H230139   2.919   3.018   6.208 -0.0415 -0.0767  0.2997
10066TIP3   OH230140   1.750   3.590   4.858  0.0954  0.2341  0.3718
10066TIP3    H130141   1.715   3.677   4.879  1.7644  0.9212  0.4076
10066TIP3    H230142   1.680   3.547   4.808 -1.1298  1.2259  1.2024
10067TIP3   OH230143   4.287   5.610   2.710  0.4648  0.4053 -0.0508
10067TIP3    H130144   4.267   5.525   2.671 -0.1851 -0.1867  1.5263
10067TIP3    H230145   4.352   5.590   2.778 -1.2206  0.8310  1.7447
10068TIP3   OH230146   8.347   2.552   5.288 -0.3548  0.7343 -0.6198
10068TIP3    H130147   8.252   2.562   5.300 -0.5115 -0.8390 -0.4268
10068TIP3    H230148   8.384   2.566   5.375 -0.5806 -0.4539 -0.3243
10069TIP3   OH230149   0.503   1.445   6.489 -0.1882  0.0386 -0.1600
10069TIP3    H130150   0.466   1.459   6.402  1.2924 -0.4210 -0.8835
10069TIP3    H230151   0.434   1.398   6.537 -0.4743 -0.9989 -1.5517
10070TIP3   OH230152   7.426   5.241   0.327 -0.4787 -0.2616  0.3275
10070TIP3    H130153   7.511   5.231   0.370 -0.4496  0.5052  0.4565
10070TIP3    H230154   7.362   5.236   0.399 -0.5476 -0.9434  0.2173
10071TIP3   OH230155   2.320   2.369   5.767  0.4740  0.2742  0.0819
10071TIP3    H130156   2.300   2.356   5.675  0.5869 -0.8237  0.2035
10071TIP3    H230157   2.241   2.409   5.803  1.5833  3.6797 -1.1090
10072TIP3   OH230158   4.086   6.941   0.672 -0.2643  0.8428 -0.0531
10072TIP3    H130159   4.134   6.893   0.604 -0.6069 -0.4794  0.6164
10072TIP3    H230160   4.145   7.012   0.698  1.5479 -1.0093  1.0410
10073TIP3   OH230161   2.464   3.564   6.874 -0.1411  0.2335  0.0942
10073TIP3    H130162   2.452   3.487   6.819  0.0517 -0.0852  0.4921
10073TIP3    H230163   2.479   3.528   6.962  2.8410  0.6084 -0.1956
10074TIP3   OH230164   7.054   2.587   0.971  0.5581 -0.0876 -0.2968
10074TIP3    H130165   7.057   2.499   1.007  0.2404  0.5522  1.3413
10074TIP3    H230166   7.059   2.645   1.047  2.2294  1.3377 -1.4437
10075TIP3   OH230167   5.250   3.719   0.431  0.2583 -0.2340 -0.0428
10075TIP3    H130168   5.211   3.790   0.481 -0.6440 -1.0698  0.4534
10075TIP3    H230169   5.334   3.704   0.473 -0.1811 -0.4358  0.7610
10076TIP3   OH230170   2.402   3.384   5.967  0.0459 -1.0195 -0.3629
10076TIP3    H130171   2.400   3.440   5.889 -0.6567 -0.9566 -0.3063
10076TIP3    H230172   2.450   3.435   6.032  1.0476 -1.2700 -0.9062
10077TIP3   OH230173   0.333   3.326   6.839  0.4610 -0.4169  0.2212
10077TIP3    H130174   0.416   3.313   6.792  0.9162  3.1232 -0.1213
10077TIP3    H230175   0.350   3.294   6.927  1.9557 -0.4940 -0.0795
10078TIP3   OH230176   5.289   6.930   2.323 -0.2216 -0.7794 -0.2501
10078TIP3    H130177   5.245   6.846   2.336 -0.1924 -0.7682 -0.0856
10078TIP3    H230178   5.252   6.988   2.390 -0.8838 -0.4109 -0.9181
10079TIP3   OH230179   2.918   0.056   4.349  0.8096 -0.0122  0.0174
10079TIP3    H130180   2.934  -0.032   4.383 -0.9708 -0.2611  0.2659
10079TIP3    H230181   2.872   0.042   4.266 -1.0940  0.6880  0.9236
10080TIP3   OH230182   8.258   1.698   6.844  0.0638  0.8492  0.0289
10080TIP3    H130183   8.312   1.632   6.802 -0.0177  0.3324  0.7220
10080TIP3    H230184   8.301   1.714   6.928 -0.1482  1.3708  0.0372
10081TIP3   OH230185   1.215   3.554   6.496 -0.2119  0.0975  0.0739
10081TIP3    H130186   1.138   3.506   6.527  0.4619  0.9531  3.2649
10081TIP3    H230187   1.185   3.643   6.484 -0.2797 -0.0695 -1.0503
10082TIP3   OH230188   5.797   7.292   0.134 -0.0908  0.1207  0.0113
10082TIP3    H130189   5.826   7.382   0.149 -1.1686  0.2205  1.5586
10082TIP3    H230190   5.729   7.277   0.200 -2.3916 -0.6591 -2.4395
10083TIP3   OH230191   2.583   2.966   6.204 -0.4149  0.3212  0.3195
10083TIP3    H130192   2.606   3.034   6.267 -0.9150  1.0016 -0.2236
10083TIP3    H230193   2.546   3.014   6.130 -1.1530 -0.5704  0.1039
10084TIP3   OH230194   2.808   0.489   6.229  0.0963  0.4708  0.2256
10084TIP3    H130195   2.714   0.501   6.217 -0.0467  0.7807  1.5741
10084TIP3    H230196   2.845   0.500   6.141 -1.0736  0.8091 -0.2349
10085TIP3   OH230197   5.706   1.326   1.668 -0.6135  0.4506  0.6104
10085TIP3    H130198   5.700   1.395   1.602  1.4260  0.7250  0.6840
10085TIP3    H230199   5.668   1.365   1.747 -1.9890  0.5222 -0.0654
10086TIP3   OH230200   4.562   1.508   5.475  0.2831  0.0660  0.2808
10086TIP3    H130201   4.500   1.545   5.412  0.1124  0.2513  0.5582
10086TIP3    H230202   4.648   1.518   5.433  0.1084 -0.3548 -0.1798
10087TIP3   OH230203   3.999   7.977   2.154 -0.4975  0.4813  0.0871
10087TIP3    H130204   4.013   8.042   2.086  0.9342 -0.3001 -0.3851
10087TIP3    H230205   3.989   7.894   2.107  1.3922 -0.2049  0.8275
10088TIP3   OH230206   1.396   1.555   4.502  0.0105 -0.1913  0.6706
10088TIP3    H130207   1.441   1.600   4.573  0.9496 -0.7821  0.4677
10088TIP3    H230208   1.352   1.481   4.544  1.4310 -1.1465  0.4961
10089TIP3   OH230209   1.324   6.871   0.525  0.0971  0.5273 -0.0676
10089TIP3    H130210   1.398   6.927   0.548 -0.2834  0.3398  1.7053
10089TIP3    H230211   1.260   6.887   0.595 -0.5514 -1.1285 -0.2649
10090TIP3   OH230212   2.389   2.175   6.410 -0.0419  0.3602  0.0418
10090TIP3    H130213   2.467   2.127   6.438 -0.5575  0.9584  2.6834
10090TIP3    H230214   2.423   2.256   6.372  0.6586  0.7801  1.5043
10091TIP3   OH230215   4.601   6.365   0.685  0.0031 -0.0874 -0.3120
10091TIP3    H130216   4.617   6.326   0.771  0.0054 -2.3220 -1.2858
10091TIP3    H230217   4.688   6.392   0.655  0.0703  0.2648  0.1953
10092TIP3   OH230218   4.058   7.263   0.878 -0.5992 -0.0404  0.5478
10092TIP3    H130219   4.025   7.247   0.967 -1.1472 -1.1629  0.1473
10092TIP3    H230220   4.002   7.209   0.822 -1.0713  1.6102 -0.6171
10093TIP3   OH230221   0.887   2.698   6.422  0.0708 -0.2521  0.5904
10093TIP3    H130222   0.819   2.742   6.369  0.6547  0.6202  0.5496
10093TIP3    H230223   0.914   2.624   6.369 -0.4438 -0.2700  0.3451
10094TIP3   OH230224   2.574   2.805   5.713  0.3657  0.1813 -0.1063
10094TIP3    H130225   2.615   2.837   5.794  1.2181 -0.1632 -0.4011
10094TIP3    H230226   2.535   2.883   5.674 -0.1427  0.3332  0.6933
10095TIP3   OH230227   7.475   0.061   0.206 -0.3446  0.3886 -0.8927
10095TIP3    H130228   7.481  -0.009   0.270 -2.2610  1.2092  0.2576
10095TIP3    H230229   7.426   0.023   0.133 -2.3117  0.7809  0.1743
10096TIP3   OH230230   0.694   5.173   6.801 -0.2319  0.7905  0.2817
10096TIP3    H130231   0.617   5.141   6.847 -0.3030  1.8134  0.8952
10096TIP3    H230232   0.664   5.253   6.757 -0.0244  0.1200 -1.0934
10097TIP3   OH230233   0.475   2.361   6.546  0.4909 -0.2636  0.1543
10097TIP3    H130234   0.428   2.284   6.515  0.3298  0.5059 -1.5817
10097TIP3    H230235   0.543   2.376   6.480  0.9959  0.6345  0.8600
10098TIP3   OH230236   4.111   5.628   0.008  0.2889  0.1753 -0.2293
10098TIP3    H130237   4.090   5.542   0.045  1.6217 -0.0446  0.0672
10098TIP3    H230238   4.037   5.649  -0.049 -1.0578 -0.2021  1.3384
10099TIP3   OH230239   1.262   2.845   6.413  0.3490 -0.1024  0.3732
10099TIP3    H130240   1.327   2.811   6.474 -0.4617 -0.4186  1.0492
10099TIP3    H230241   1.228   2.923   6.456  0.4932  0.2350 -0.1209
10100TIP3   OH230242   3.536   6.846   0.056 -0.1360 -0.1075  0.3053
10100TIP3    H130243   3.570   6.757   0.062 -0.4664 -0.2790 -0.3911
10100TIP3    H230244   3.525   6.874   0.147  1.0161 -0.3759  0.5364
10101TIP3   OH230245   3.659   1.838   5.804 -0.2031 -0.0778  0.3047
10101TIP3    H130246   3.613   1.898   5.746 -0.7222 -0.1991  0.5872
10101TIP3    H230247   3.605   1.833   5.883  0.4207 -0.0327  0.7401
10102TIP3   OH230248   0.647   3.531   6.734 -0.5441 -0.4998  0.4811
10102TIP3    H130249   0.643   3.560   6.825 -0.4422 -1.4777  0.7927
10102TIP3    H230250   0.640   3.612   6.683  0.2347  0.1199  1.3616
10103TIP3   OH230251   0.687   0.022   6.478 -0.5897 -0.3362  0.1692
10103TIP3    H130252   0.700  -0.072   6.477  0.1093 -0.2357 -0.8442
10103TIP3    H230253   0.746   0.054   6.546  1.4792 -0.3199 -1.5807
10104TIP3   OH230254   4.592   7.720   2.513 -0.0610 -0.2944  0.0146
10104TIP3    H130255   4.615   7.627   2.505  0.9653  0.1090 -1.9934
10104TIP3    H230256   4.507   7.727   2.468  0.0232 -0.2059 -0.1328
10105TIP3   OH230257   1.688   1.370   6.591  0.1613  0.2841  0.5506
10105TIP3    H130258   1.685   1.278   6.564  0.2020  0.2315  0.7195
10105TIP3    H230259   1.606   1.407   6.558 -0.3443 -0.0740  1.3819
10106TIP3   OH230260   2.551   7.383   0.941 -0.7169 -0.6112  0.1670
10106TIP3    H130261   2.633   7.383   0.892 -1.1707 -1.1797 -0.6146
10106TIP3    H230262   2.502   7.308   0.906 -0.6189 -1.6896  2.2347
10107TIP3   OH230263   1.541   1.820   6.116  0.4296 -0.4341 -0.0946
10107TIP3    H130264   1.601   1.856   6.051  0.9138 -1.6181 -0.3349
10107TIP3    H230265   1.523   1.892   6.176  1.3206  0.2063 -0.5897
10108TIP3   OH230266   4.464   3.886   0.912 -0.2848  0.2601  0.5130
10108TIP3    H130267   4.423   3.962   0.870 -1.0208  0.7439  2.0785
10108TIP3    H230268   4.404   3.814   0.896 -0.4975  0.4138  0.6149
10109TIP3   OH230269   6.495   7.783   1.122  0.5465  0.2630  0.2088
10109TIP3    H130270   6.537   7.858   1.079 -0.4852  0.0548 -1.2010
10109TIP3    H230271   6.484   7.719   1.052 -0.3410 -0.4509  0.9911
10110TIP3   OH230272   7.348   7.834   6.550  0.1158 -0.1672 -0.1089
10110TIP3    H130273   7.333   7.928   6.568  0.3138 -0.0647 -0.4932
10110TIP3    H230274   7.299   7.789   6.619 -0.6697  0.2062 -0.4169
10111TIP3   OH230275   7.814   2.447   6.608  1.0478  0.2721 -0.3766
10111TIP3    H130276   7.726   2.422   6.578 -0.0880  1.8127  1.5777
10111TIP3    H230277   7.863   2.365   6.609 -1.0050 -0.9683  0.6080
10112TIP3   OH230278   4.600   4.565   0.721 -0.0576 -0.6292 -0.2536
10112TIP3    H130279   4.557   4.515   0.652  0.8808  0.9595 -2.0688
10112TIP3    H230280   4.647   4.634   0.674 -0.5152  1.3402  2.0795
10113TIP3   OH230281   1.211   4.145   6.630 -0.4788  0.0056  0.1629
10113TIP3    H130282   1.158   4.076   6.591  1.2318 -1.1817 -0.1423
10113TIP3    H230283   1.202   4.132   6.724  1.0216 -1.6449  0.1249
10114TIP3   OH230284   2.329   1.177   6.518  0.2696  0.0486 -0.0562
10114TIP3    H130285   2.346   1.235   6.444  0.2819 -1.2072 -1.0575
10114TIP3    H230286   2.395   1.108   6.510 -0.2572 -0.5427  0.6292
10115TIP3   OH230287   6.197   7.841   0.422  0.0134 -0.1339 -0.1823
10115TIP3    H130288   6.139   7.915   0.442 -0.1081 -0.5283  0.9190
10115TIP3    H230289   6.159   7.767   0.469  0.6619 -0.6974 -0.5412
10116TIP3   OH230290   1.084   3.104   4.725  0.4415 -0.5922 -0.3753
10116TIP3    H130291   1.049   3.132   4.810 -1.0124  1.2869 -1.5613
10116TIP3    H230292   1.054   3.014   4.716 -2.1169  0.1936 -0.2654
10117TIP3   OH230293   8.333   3.334   5.293 -0.2608  0.2037  0.4448
10117TIP3    H130294   8.316   3.412   5.241 -1.0152 -0.0335  0.3271
10117TIP3    H230295   8.345   3.366   5.382 -1.1237  0.4038  0.4918
10118TIP3   OH230296   1.589   7.589   3.189  0.0362 -0.0417  0.4670
10118TIP3    H130297   1.632   7.596   3.274  0.0115  2.4001  0.3071
10118TIP3    H230298   1.512   7.534   3.205 -0.8823  1.7392  2.4007
10119TIP3   OH230299   7.415   1.701   1.082 -0.4070  0.2334 -0.0810
10119TIP3    H130300   7.411   1.765   1.153 -0.2068 -1.6712  1.7096
10119TIP3    H230301   7.352   1.633   1.108  1.2604 -1.5687 -0.5997
10120TIP3   OH230302   2.631   5.502   1.587 -0.3647  0.2839 -0.6276
10120TIP3    H130303   2.688   5.468   1.656 -2.2260 -2.5193 -0.3487
10120TIP3    H230304   2.685   5.499   1.508  0.4899 -0.5066 -0.0340
10121TIP3   OH230305   7.126   0.292   0.891 -0.0533  0.0532 -0.5488
10121TIP3    H130306   7.086   0.363   0.940  2.3945  1.2608 -0.2278
10121TIP3    H230307   7.181   0.246   0.955  1.1928  0.0994 -1.5697
10122TIP3   OH230308   2.014   6.988   1.691 -0.0249 -0.3049  0.4642
10122TIP3    H130309   2.004   6.971   1.598 -1.0246  1.1748  0.2824
10122TIP3    H230310   2.103   7.024   1.700 -0.4902  1.0530 -0.1649
10123TIP3   OH230311   8.469   2.434   6.256  0.2207  0.7190  0.6105
10123TIP3    H130312   8.412   2.400   6.324 -1.3319  0.6964 -0.6923
10123TIP3    H230313   8.511   2.357   6.218 -1.6952  0.4061 -0.9151
10124TIP3   OH230314   5.924   0.483   2.972  0.4452 -0.2744 -0.5601
10124TIP3    H130315   5.838   0.468   2.932  0.7227 -0.5834 -1.0553
10124TIP3    H230316   5.959   0.559   2.924 -0.0166  0.5590  0.4071
10125TIP3   OH230317   2.524   3.431   6.459  0.0905  0.2633  0.6469
10125TIP3    H130318   2.441   3.428   6.507  0.3429  0.1204  1.0750
10125TIP3    H230319   2.586   3.384   6.515  0.0428 -1.1715 -0.4723
10126TIP3   OH230320   0.628   2.725   6.279 -0.1984  0.3851 -0.4817
10126TIP3    H130321   0.647   2.777   6.202 -1.0822  1.3645 -0.0468
10126TIP3    H230322   0.609   2.789   6.348  0.0624 -0.4779  0.4145
10127TIP3   OH230323   2.973   7.942   0.375 -0.4163  0.0430 -0.2333
10127TIP3    H130324   2.960   7.850   0.399 -0.6015 -0.4778 -2.2265
10127TIP3    H230325   3.033   7.976   0.441 -2.6820 -0.6762  2.3047
10128TIP3   OH230326   2.160   2.724   5.127  0.1601 -0.1796 -0.1116
10128TIP3    H130327   2.196   2.784   5.193  0.8910 -0.1916 -0.5010
10128TIP3    H230328   2.131   2.648   5.178  2.3349 -0.9543  0.0227
10129TIP3   OH230329   2.077   3.234   4.572 -0.1567  0.3910 -0.1241
10129TIP3    H130330   2.064   3.292   4.498  1.8446  3.9806  2.1689
10129TIP3    H230331   1.998   3.245   4.625 -0.6570 -0.5404 -0.6712
10130TIP3   OH230332   1.753   1.451   5.631 -0.0785  0.3838 -0.4359
10130TIP3    H130333   1.807   1.390   5.581 -1.3478  0.3808 -1.8587
10130TIP3    H230334   1.716   1.398   5.702 -0.5041 -0.3089 -1.1666
10131TIP3   OH230335   2.385   1.752   6.039 -0.1119  0.4078  0.4572
10131TIP3    H130336   2.349   1.710   6.117 -0.8038  0.5468  0.2201
10131TIP3    H230337   2.440   1.823   6.073 -0.5435  0.5747  0.8193
10132TIP3   OH230338   4.765   5.438   0.386  0.5864 -0.3085 -0.0118
10132TIP3    H130339   4.802   5.438   0.474  0.7939 -0.1527 -0.0986
10132TIP3    H230340   4.818   5.376   0.337  0.7649 -0.0500 -0.1481
10133TIP3   OH230341   0.645   2.452   6.833 -0.5999 -0.3027  0.3335
10133TIP3    H130342   0.639   2.493   6.747  0.0160 -1.4310 -0.2530
10133TIP3    H230343   0.601   2.368   6.822 -0.5226 -0.4485  1.1258
10134TIP3   OH230344   6.594   6.238   0.063  0.0370  0.3659  0.4731
10134TIP3    H130345   6.536   6.182   0.114 -1.3037  0.4595 -0.9079
10134TIP3    H230346   6.682   6.204   0.080 -0.6759 -1.5968  0.3434
10135TIP3   OH230347   1.344   3.758   5.260  0.1849  0.7830 -0.3013
10135TIP3    H130348   1.426   3.716   5.235 -0.9298 -1.8529  0.3131
10135TIP3    H230349   1.294   3.763   5.179  0.0874  0.3458 -0.2717
10136TIP3   OH230350   1.472   3.063   6.092 -0.4477  0.0845  0.2253
10136TIP3    H130351   1.480   3.143   6.143  0.0338  0.9826 -1.2152
10136TIP3    H230352   1.439   3.092   6.007  0.0152 -1.1931 -0.4080
10137TIP3   OH230353   1.942   0.626   5.766  0.0302  1.0379  0.2451
10137TIP3    H130354   2.025   0.580   5.778 -0.5633 -0.1667 -0.2622
10137TIP3    H230355   1.966   0.718   5.763  1.4053  0.6634 -0.3826
10138TIP3   OH230356   1.265   1.550   5.888 -0.0750 -0.4674 -0.0916
10138TIP3    H130357   1.317   1.572   5.965 -0.3531 -0.2976  0.0462
10138TIP3    H230358   1.205   1.481   5.918 -0.3114 -0.2692 -0.1062
10139TIP3   OH230359   3.092   2.435   6.010  0.1534 -0.6329 -0.2247
10139TIP3    H130360   3.049   2.356   5.978 -0.6240 -0.4498  0.3562
10139TIP3    H230361   3.081   2.431   6.105  1.0887 -0.3906 -0.1015
10140TIP3   OH230362   6.414   6.857   1.418 -0.0197  0.2767  0.6115
10140TIP3    H130363   6.402   6.822   1.329 -0.6460  0.0132  0.7922
10140TIP3    H230364   6.331   6.839   1.461 -0.2212  1.6556  0.8297
10141TIP3   OH230365   2.093   2.201   6.845 -0.6632  0.5932  1.0450
10141TIP3    H130366   2.007   2.171   6.874 -0.5014  1.8090  2.8742
10141TIP3    H230367   2.155   2.146   6.892 -0.4235  0.8387  1.0199
10142TIP3   OH230368   7.281   1.645   6.488  0.5745 -0.1359 -0.4404
10142TIP3    H130369   7.213   1.586   6.521 -0.2856  1.4210  0.6402
10142TIP3    H230370   7.261   1.654   6.394 -1.0713  0.7563 -0.0195
10143TIP3   OH230371   0.128   0.519   2.125  0.6137  0.1679 -1.0457
10143TIP3    H130372   0.171   0.526   2.041  0.0758  1.6258 -1.2113
10143TIP3    H230373   0.163   0.591   2.177  2.6713 -2.0766  0.7849
10144TIP3   OH230374   8.472   0.808   6.162 -0.5546  0.2903 -0.4472
10144TIP3    H130375   8.548   0.808   6.104 -0.8148  1.2541 -0.7970
10144TIP3    H230376   8.398   0.789   6.105 -0.6371 -0.1407 -0.1953
10145TIP3   OH230377   1.320   2.410   4.763  0.3074 -0.2754 -0.1279
10145TIP3    H130378   1.303   2.504   4.766 -0.9756 -0.4938 -0.1739
10145TIP3    H230379   1.415   2.403   4.751  0.3007  1.0186 -1.0672
10146TIP3   OH230380   5.641   5.690   0.514  0.3037  0.2396 -0.3391
10146TIP3    H130381   5.589   5.640   0.451  0.8704 -1.1116  0.2395
10146TIP3    H230382   5.718   5.635   0.529  0.5852  0.9559  0.8667
10147TIP3   OH230383   2.426   1.923   5.717 -0.2113  0.1111  0.2339
10147TIP3    H130384   2.450   1.830   5.711 -0.0032  0.2349 -0.7933
10147TIP3    H230385   2.501   1.970   5.681 -0.5937  0.6489  0.1354
10148TIP3   OH230386   0.923   3.493   6.865 -0.4613 -0.5711  0.1051
10148TIP3    H130387   1.018   3.483   6.870 -0.5181 -0.5090  1.8050
10148TIP3    H230388   0.908   3.584   6.890 -1.0174 -0.8195  0.6914
10149TIP3   OH230389   4.641   5.652   2.847  0.0756  0.3677  0.0055
10149TIP3    H130390   4.644   5.558   2.866 -1.1163  0.2525 -0.3496
10149TIP3    H230391   4.549   5.676   2.859 -0.2240  0.8403 -2.9991
10150TIP3   OH230392   1.562   1.746   6.375  0.1745 -0.2008  0.3678
10150TIP3    H130393   1.564   1.734   6.281 -1.0647  0.2286  0.2689
10150TIP3    H230394   1.635   1.804   6.394 -0.5926  1.0918 -0.5550
10151TIP3   OH230395   6.633   1.065   1.210 -0.6937  0.3322 -0.2705
10151TIP3    H130396   6.683   0.989   1.178 -1.6543  0.0326 -1.0861
10151TIP3    H230397   6.699   1.123   1.248  0.0060 -1.1371  0.8265
10152TIP3   OH230398   1.889   7.445   0.246 -0.3442  0.2805 -0.0472
10152TIP3    H130399   1.879   7.535   0.215  0.4423  0.1088 -0.8174
10152TIP3    H230400   1.943   7.402   0.179  0.9753 -0.2238  1.2924
10153TIP3   OH230401   8.206   2.202   6.693  0.7619  0.6510  0.0629
10153TIP3    H130402   8.195   2.141   6.766  2.9647 -2.0239 -1.7424
10153TIP3    H230403   8.143   2.172   6.627  1.6968  0.4433 -0.7444
10154TIP3   OH230404   0.316   3.932   6.665  0.0142  0.2456  0.3631
10154TIP3    H130405   0.402   3.957   6.697  0.4084 -0.4622 -0.1249
10154TIP3    H230406   0.270   3.900   6.742  0.5184 -0.2711  0.4513
10155TIP3   OH230407   3.594   4.834   6.672 -0.2741 -0.5394  0.1289
10155TIP3    H130408   3.543   4.758   6.644 -1.9427  0.2142  1.0747
10155TIP3    H230409   3.535   4.883   6.730  1.1850  0.8605  0.4657
10156TIP3   OH230410   7.161   2.236   2.346  0.1441  0.1552  0.3210
10156TIP3    H130411   7.107   2.285   2.285 -0.8291  0.2452  1.2518
10156TIP3    H230412   7.213   2.302   2.391  0.4147  0.1390  0.0374
10157TIP3   OH230413   0.808   3.524   5.846  0.1057 -0.0545  0.3694
10157TIP3    H130414   0.885   3.491   5.800 -0.2414  0.6123 -0.7146
10157TIP3    H230415   0.843   3.571   5.921  0.6942 -0.8252  0.5852
10158TIP3   OH230416   5.705   7.118   1.001 -0.1066  0.4295 -0.1527
10158TIP3    H130417   5.699   7.107   1.096 -0.2999 -1.2371 -0.3500
10158TIP3    H230418   5.743   7.036   0.969  0.6911  1.2871 -1.4381
10159TIP3   OH230419   2.512   1.262   6.862  0.0828  0.8711 -0.7752
10159TIP3    H130420   2.599   1.290   6.833 -0.5231  2.2048 -1.3392
10159TIP3    H230421   2.467   1.343   6.885 -0.8524  0.1482 -0.0053
10160TIP3   OH230422   5.068   7.082   0.221  0.4062  0.6681  0.3789
10160TIP3    H130423   5.004   7.104   0.289  0.0876  0.8832  0.0116
10160TIP3    H230424   5.123   7.014   0.261  0.0964  0.6481  0.7776
10161TIP3   OH230425   6.132   1.329   2.327  0.3678 -0.1757 -0.4767
10161TIP3    H130426   6.204   1.266   2.319  0.0656 -0.7404  1.0634
10161TIP3    H230427   6.135   1.357   2.419 -0.0849  1.3739 -0.9212
10162TIP3   OH230428   3.392   6.590   2.233 -0.1983  0.4362 -0.5309
10162TIP3    H130429   3.466   6.531   2.224 -1.7635 -2.0413  2.0372
10162TIP3    H230430   3.422   6.656   2.296  0.7166  1.0101 -1.5488
10163TIP3   OH230431   5.686   6.563   2.109  0.3273 -0.1773 -0.3995
10163TIP3    H130432   5.753   6.500   2.135 -0.6137 -1.0530 -0.0409
10163TIP3    H230433   5.645   6.590   2.192 -0.3898 -0.3699 -0.6834
10164TIP3   OH230434   1.111   3.177   5.670  0.1877  0.6755  0.4091
10164TIP3    H130435   1.091   3.266   5.639 -0.5040  0.6642  0.8188
10164TIP3    H230436   1.026   3.134   5.674  0.6998 -0.5984 -1.5441
10165TIP3   OH230437   4.538   6.148   0.464 -0.5476  0.1962  0.0825
10165TIP3    H130438   4.549   6.220   0.527  0.1143  0.7580 -0.6644
10165TIP3    H230439   4.583   6.179   0.385  1.6817 -1.9341  0.4583
10166TIP3   OH230440   5.184   7.758   1.221 -0.5777 -0.0175 -0.0798
10166TIP3    H130441   5.174   7.706   1.300 -0.3720  0.8837  0.5562
10166TIP3    H230442   5.269   7.731   1.185  0.0653  0.6939  0.8744
10167TIP3   OH230443   3.018   7.644   0.738  0.0127 -0.7710  0.2849
10167TIP3    H130444   3.082   7.593   0.787  0.0160 -0.9621  0.0806
10167TIP3    H230445   2.935   7.598   0.752 -0.4119  0.4578  2.0022
10168TIP3   OH230446   1.394   3.622   5.814 -0.5284  0.1759 -0.5168
10168TIP3    H130447   1.444   3.660   5.742  1.0766 -1.0024 -0.0513
10168TIP3    H230448   1.445   3.644   5.892 -0.6515 -1.1573 -0.0469
10169TIP3   OH230449   2.048   1.190   6.895 -0.2161 -0.4999 -0.2169
10169TIP3    H130450   2.123   1.156   6.846  0.7029  0.2102  0.6605
10169TIP3    H230451   2.009   1.113   6.935  0.9430 -0.7278  0.5188
10170TIP3   OH230452   1.497   3.168   6.487 -0.7073 -0.2932  0.1001
10170TIP3    H130453   1.483   3.262   6.476  0.5419 -0.0823  0.2935
10170TIP3    H230454   1.512   3.157   6.581 -0.3750 -0.6232  0.0090
10171TIP3   OH230455   1.291   3.972   6.910  0.1801  0.2318  0.7257
10171TIP3    H130456   1.227   3.916   6.865  0.7499  1.6651 -2.0026
10171TIP3    H230457   1.338   4.015   6.839  1.8687  1.7990  2.7508
10172TIP3   OH230458   4.461   6.699   0.590  0.0341  0.9129 -0.6533
10172TIP3    H130459   4.422   6.681   0.675 -1.7966  0.7403 -1.5040
10172TIP3    H230460   4.418   6.780   0.561  0.9169  1.1762 -1.2455
10173TIP3   OH230461   4.342   7.859   1.035 -0.2428 -0.1132  0.1546
10173TIP3    H130462   4.371   7.943   1.070 -1.2786 -0.2414  1.3675
10173TIP3    H230463   4.387   7.794   1.088  1.4452 -0.3550 -1.5293
10174TIP3   OH230464   0.668   0.566   2.083 -0.4434  0.1454  0.3139
10174TIP3    H130465   0.614   0.549   2.006  1.5262  2.7214 -1.7519
10174TIP3    H230466   0.744   0.509   2.072 -0.0437  0.6945  0.1913
10175TIP3   OH230467   0.830   4.279   5.645 -0.4518  0.0541  0.4378
10175TIP3    H130468   0.861   4.304   5.733 -1.4036 -0.0923  0.8254
10175TIP3    H230469   0.735   4.279   5.653 -0.5273 -0.5479 -0.4441
10176TIP3   OH230470   0.555   0.742   6.338 -0.7328 -0.4515  0.1166
10176TIP3    H130471   0.524   0.816   6.391  0.3003  1.0094 -1.2515
10176TIP3    H230472   0.634   0.712   6.383  0.7172  1.4416 -1.1159
10177TIP3   OH230473   7.834   0.333   1.125  0.6221 -0.5615  0.0768
10177TIP3    H130474   7.878   0.306   1.044  0.6933 -0.1820 -0.0124
10177TIP3    H230475   7.754   0.376   1.095  1.1964  0.5925  0.1557
10178TIP3   OH230476   6.633   0.282   1.464 -0.5154 -0.2987 -0.4199
10178TIP3    H130477   6.577   0.358   1.447 -3.0496 -1.8641  0.7939
10178TIP3    H230478   6.658   0.291   1.556 -1.3657 -1.2620 -0.0876
10179TIP3   OH230479   4.926   5.950   1.653 -0.2623  0.0778  0.3701
10179TIP3    H130480   5.008   5.949   1.702 -0.8904 -0.7080  1.4046
10179TIP3    H230481   4.910   5.858   1.631 -0.4140  0.3314 -0.5959
10180TIP3   OH230482   2.827   4.899   0.601  0.9305 -0.1409 -0.0949
10180TIP3    H130483   2.749   4.844   0.592  1.0156 -0.4570  1.0749
10180TIP3    H230484   2.842   4.905   0.695  2.0370  0.3238 -0.2916
10181TIP3   OH230485   3.353   3.330   6.067 -0.0960 -0.0982 -0.1209
10181TIP3    H130486   3.316   3.381   6.140  0.8440 -0.1951  0.4352
10181TIP3    H230487   3.443   3.363   6.058  0.8253 -2.2336  0.8165
10182TIP3   OH230488   5.315   5.295   1.489 -0.5299 -0.3132  0.3178
10182TIP3    H130489   5.332   5.224   1.427 -1.0955 -0.1573 -0.0186
10182TIP3    H230490   5.272   5.362   1.436  1.2917  0.8728  0.2944
10183TIP3   OH230491   4.352   4.057   0.099 -0.0976  0.1466  0.3858
10183TIP3    H130492   4.264   4.020   0.109 -0.2183  0.2554 -0.2522
10183TIP3    H230493   4.350   4.139   0.149  0.0290 -0.4659  1.4176
10184TIP3   OH230494   3.726   1.805   6.134  0.5256  0.2905  0.0362
10184TIP3    H130495   3.746   1.733   6.075 -0.5514 -0.9633  1.1625
10184TIP3    H230496   3.634   1.827   6.116  1.2232  2.3067 -1.2399
10185TIP3   OH230497   6.351   3.193   0.239  0.8532  0.3865  0.2140
10185TIP3    H130498   6.295   3.234   0.305  0.1946 -1.0956  0.5904
10185TIP3    H230499   6.293   3.132   0.193  1.1559  1.8563 -2.1644
10186TIP3   OH230500   0.790   1.700   5.939  0.3654  0.2655 -0.3156
10186TIP3    H130501   0.838   1.692   5.857  1.1818 -1.3715  0.2901
10186TIP3    H230502   0.843   1.651   6.003 -1.4274 -0.4489  0.6653
10187TIP3   OH230503   7.404   4.404   6.680 -0.3061 -0.1018 -0.2961
10187TIP3    H130504   7.348   4.350   6.735 -1.1108 -0.3853 -1.3626
10187TIP3    H230505   7.391   4.369   6.592  2.6002 -1.0576 -0.3873
10188TIP3   OH230506   8.208   1.750   6.012  0.5888 -0.0686  0.5983
10188TIP3    H130507   8.137   1.705   6.059  0.0893  1.8392  1.7081
10188TIP3    H230508   8.280   1.750   6.075  0.9423 -0.2921  0.1882
10189TIP3   OH230509   5.281   7.622   1.905  0.2902  0.3036  0.4202
10189TIP3    H130510   5.274   7.708   1.945 -1.5644 -0.1182  1.0279
10189TIP3    H230511   5.288   7.561   1.978  2.6344 -0.0192 -0.0113
10190TIP3   OH230512   0.292   4.137   0.639  0.6404  0.3298  0.3237
10190TIP3    H130513   0.314   4.096   0.722  1.4300 -1.8632 -0.9428
10190TIP3    H230514   0.355   4.101   0.576 -0.9752  0.6801 -1.5653
10191TIP3   OH230515   3.667   2.259   6.171 -0.2441 -0.3848 -0.2425
10191TIP3    H130516   3.745   2.204   6.175 -0.0145 -0.0704 -0.4370
10191TIP3    H230517   3.694   2.343   6.208 -0.3411 -0.1006 -0.8180
10192TIP3   OH230518   3.524   2.175   5.935 -0.2008  0.1685 -0.2546
10192TIP3    H130519   3.448   2.223   5.970 -1.1757 -2.2625  1.0573
10192TIP3    H230520   3.599   2.214   5.980 -0.7117  2.0294 -0.9419
10193TIP3   OH230521   3.346   2.229   6.160 -0.0720  0.9023 -0.6873
10193TIP3    H130522   3.352   2.316   6.198  1.3358  0.9866 -1.0921
10193TIP3    H230523   3.420   2.181   6.198 -1.1945 -0.2989  0.0114
10194TIP3   OH230524   1.636   2.917   6.373  0.5096  0.2634  0.0788
10194TIP3    H130525   1.604   2.883   6.457 -1.8957  0.2824 -0.7755
10194TIP3    H230526   1.601   3.006   6.369  0.3899  0.1690 -1.0602
10195TIP3   OH230527   3.789   7.035   2.849 -0.1557  0.2193 -0.1118
10195TIP3    H130528   3.737   7.073   2.920 -2.4992 -0.6571 -1.3309
10195TIP3    H230529   3.740   6.958   2.821  0.3222  0.9693 -3.1873
10196TIP3   OH230530   6.173   7.074   1.126  0.0546 -0.4654 -0.4199
10196TIP3    H130531   6.216   7.090   1.210 -1.1610 -1.5496  0.4367
10196TIP3    H230532   6.119   7.151   1.111 -0.1487 -0.5102  0.0781
10197TIP3   OH230533   2.835   2.909   6.782 -0.2862  0.0543  0.1058
10197TIP3    H130534   2.792   2.825   6.799 -0.8135  0.4372  0.6978
10197TIP3    H230535   2.907   2.888   6.723 -2.8073 -0.2118 -2.9494
10198TIP3   OH230536   6.580   7.004   1.589  0.3899  0.3109 -0.1870
10198TIP3    H130537   6.547   6.930   1.538 -2.0425  0.4063  1.2159
10198TIP3    H230538   6.609   7.067   1.523  0.4201 -0.9643 -1.4111
10199TIP3   OH230539   3.911   0.870   6.690 -0.2294  0.0043 -0.2930
10199TIP3    H130540   3.967   0.946   6.675  1.0476 -0.8031  0.2669
10199TIP3    H230541   3.931   0.810   6.618 -1.8810  0.5500 -1.2275
10200TIP3   OH230542   5.278   2.574   5.548 -0.4672 -0.0400  0.3246
10200TIP3    H130543   5.347   2.569   5.481  1.3072  4.0051  1.6709
10200TIP3    H230544   5.314   2.526   5.622 -0.3342 -0.3631  0.0546
10201TIP3   OH230545   5.430   6.485   1.011 -0.0597 -0.2511 -0.0516
10201TIP3    H130546   5.435   6.412   1.073  0.5381 -0.0703  0.1081
10201TIP3    H230547   5.510   6.479   0.959 -0.3958 -0.1977 -0.5837
10202TIP3   OH230548   4.823   2.600   6.312 -0.0357 -0.2670 -0.1769
10202TIP3    H130549   4.817   2.505   6.309 -1.4518 -0.2086  0.5533
10202TIP3    H230550   4.745   2.631   6.267  1.2669  0.5717 -1.9378
10203TIP3   OH230551   3.562   2.148   6.816  0.2827 -0.0878 -0.1331
10203TIP3    H130552   3.620   2.100   6.756 -0.6659  0.5276 -1.5751
10203TIP3    H230553   3.621   2.190   6.878  1.1944 -2.3153  0.5781
10204TIP3   OH230554   0.065   0.267   2.175 -0.1244  0.0520  0.0026
10204TIP3    H130555   0.102   0.355   2.166 -0.0537 -0.0859 -1.1091
10204TIP3    H230556   0.139   0.208   2.163 -0.5823 -0.2104 -1.6751
10205TIP3   OH230557   4.336   1.232   6.891  0.2038  0.3808  0.0945
10205TIP3    H130558   4.422   1.266   6.865  0.3199  1.0599  1.3147
10205TIP3    H230559   4.332   1.247   6.986 -0.8468 -0.5838  0.2163
10206TIP3   OH230560   4.564   3.930   0.289 -0.3581  0.5637 -0.0949
10206TIP3    H130561   4.486   3.986   0.287  0.5070  1.8155  0.6687
10206TIP3    H230562   4.550   3.867   0.219 -3.0791 -0.6051  1.4063
10207TIP3   OH230563   0.716   0.422   0.321  0.2575  0.3294 -0.3871
10207TIP3    H130564   0.754   0.419   0.409  0.1409  1.3842 -0.2868
10207TIP3    H230565   0.788   0.396   0.264  0.5186  0.2464 -0.0279
10208TIP3   OH230566   1.081  -0.004   0.696 -0.3052 -0.1541 -0.1048
10208TIP3    H130567   1.130   0.040   0.626 -1.2419 -0.3047 -0.8605
10208TIP3    H230568   1.142  -0.006   0.770  0.9519 -0.6174 -1.1284
10209TIP3   OH230569   2.019   3.060   6.124 -0.0730  0.6539  0.3859
10209TIP3    H130570   1.924   3.051   6.134  0.0222 -0.6265  0.1883
10209TIP3    H230571   2.050   2.971   6.109  1.3063  0.9024  1.6261
10210TIP3   OH230572   3.422   5.947   1.310 -0.4276  0.1328 -0.7073
10210TIP3    H130573   3.472   5.893   1.371  0.0893 -0.0426 -1.2841
10210TIP3    H230574   3.332   5.940   1.340 -0.4342 -1.4712 -1.1023
10211TIP3   OH230575   7.125   7.397   0.173  0.0104  0.4725  0.4775
10211TIP3    H130576   7.113   7.486   0.140  0.6360 -0.4151 -2.3133
10211TIP3    H230577   7.059   7.345   0.126  0.1744 -0.6715  1.4819
10212TIP3   OH230578   4.635   1.699   6.160 -0.0540 -0.1490 -0.0556
10212TIP3    H130579   4.640   1.604   6.165 -1.5529 -0.3119 -1.3226
10212TIP3    H230580   4.549   1.721   6.198  0.5675  0.7648  0.8779
10213TIP3   OH230581   6.517   5.438   0.209 -0.7175 -0.1467  0.1193
10213TIP3    H130582   6.485   5.525   0.187 -0.7248  0.0731  0.9660
10213TIP3    H230583   6.439   5.391   0.240 -0.8720 -0.7169 -1.0930
10214TIP3   OH230584   6.844   5.404   0.148  0.0593 -0.1674  0.1441
10214TIP3    H130585   6.877   5.489   0.177 -0.5101  0.1290 -0.0659
10214TIP3    H230586   6.754   5.401   0.180 -0.8944  0.5666 -2.3866
10215TIP3   OH230587   4.061   4.308   6.340 -0.1424  0.2933 -0.8830
10215TIP3    H130588   4.091   4.265   6.420 -1.7977  1.1662  0.2352
10215TIP3    H230589   4.141   4.324   6.290  0.8709 -0.5943  0.4151
10216TIP3   OH230590   6.882   0.068   0.675  0.2024 -0.6626 -0.6994
10216TIP3    H130591   6.870   0.036   0.764 -0.0565  0.9040 -0.1595
10216TIP3    H230592   6.977   0.072   0.663  0.2998  2.2771  0.6952
10217TIP3   OH230593   4.185   2.818   6.214 -0.6379  0.3969  0.5081
10217TIP3    H130594   4.261   2.803   6.159 -0.3741 -0.6016  1.1297
10217TIP3    H230595   4.169   2.913   6.208  0.0158  0.4536 -0.4326
10218TIP3   OH230596   2.276   1.886   4.552  0.4663  0.3084 -0.4888
10218TIP3    H130597   2.364   1.861   4.526  0.3638  0.8043 -1.3239
10218TIP3    H230598   2.283   1.902   4.647  1.4694  1.1835 -0.6985
10219TIP3   OH230599   6.870   6.552   0.137 -0.0905  0.2500 -0.7285
10219TIP3    H130600   6.902   6.622   0.080 -0.3288  1.6881  0.8427
10219TIP3    H230601   6.782   6.534   0.106  0.2873  0.0346 -1.6886
10220TIP3   OH230602   5.943   3.935   5.663  0.1266  0.2644  0.0527
10220TIP3    H130603   5.902   3.956   5.747  1.6555  0.9821  0.6510
10220TIP3    H230604   6.006   3.866   5.683 -1.3055 -1.3937 -0.9999
10221TIP3   OH230605   3.431   1.901   6.954 -0.3750  0.4027 -0.5970
10221TIP3    H130606   3.488   1.971   6.923 -0.5303  0.2559 -1.2285
10221TIP3    H230607   3.348   1.917   6.910 -0.3577 -0.2794 -0.8938
10222TIP3   OH230608   7.891   0.415   2.220 -0.0276 -0.4166  0.4397
10222TIP3    H130609   7.927   0.447   2.137 -0.7044  2.1000  1.0695
10222TIP3    H230610   7.816   0.361   2.194 -1.2018  1.6291 -0.5544
10223TIP3   OH230611   5.419   6.618   0.147 -0.6544  0.0318 -0.4305
10223TIP3    H130612   5.384   6.563   0.076 -1.3258 -1.5671  1.1014
10223TIP3    H230613   5.438   6.557   0.218  1.0929  1.4638  0.3862
10224TIP3   OH230614   3.561   3.540   4.792  0.6375 -0.2700  0.4843
10224TIP3    H130615   3.495   3.487   4.746  1.5377 -0.6680 -0.3766
10224TIP3    H230616   3.530   3.542   4.882  0.1713 -1.6321  0.3818
10225TIP3   OH230617   2.635   2.729   6.853  0.1966  0.4313  0.0722
10225TIP3    H130618   2.609   2.675   6.928  0.8838  0.3767  0.2735
10225TIP3    H230619   2.554   2.743   6.805 -0.1065 -0.2369  0.3748
10226TIP3   OH230620   6.872   5.885   0.980  0.2874 -0.5656 -0.0214
10226TIP3    H130621   6.890   5.824   0.908  0.4887 -1.3283  0.6726
10226TIP3    H230622   6.861   5.970   0.937 -0.7975 -1.2278 -1.0817
10227TIP3   OH230623   6.414   5.592   0.739 -0.1661  0.1262 -0.0484
10227TIP3    H130624   6.397   5.641   0.820  1.7606  0.4398  0.1974
10227TIP3    H230625   6.498   5.626   0.709  0.9265 -2.6364 -0.1823
10228TIP3   OH230626   3.566   3.736   5.961  0.2806  0.1892 -0.7311
10228TIP3    H130627   3.660   3.737   5.941  0.1186 -0.6818 -1.5759
10228TIP3    H230628   3.530   3.809   5.911  0.5215  0.6241 -0.2819
10229TIP3   OH230629   3.591   2.314   6.490 -0.5287 -0.2125 -0.1075
10229TIP3    H130630   3.656   2.334   6.423  0.0796 -0.3115  0.4457
10229TIP3    H230631   3.638   2.326   6.573 -0.6283 -2.2651  0.2641
10230TIP3   OH230632   7.708   7.102   1.477 -0.5956 -0.0218  0.2008
10230TIP3    H130633   7.766   7.163   1.432 -1.3391 -0.0621 -0.8294
10230TIP3    H230634   7.710   7.130   1.568  0.3645  0.5080  0.0255
10231TIP3   OH230635   8.396   0.269   1.408  0.0162 -0.1641  0.1769
10231TIP3    H130636   8.450   0.204   1.364  1.6060  1.5346 -0.4198
10231TIP3    H230637   8.381   0.337   1.342 -0.9365  0.4887  1.0420
10232TIP3   OH230638   3.589   4.088   6.694 -0.3867 -0.1533 -0.0224
10232TIP3    H130639   3.629   4.140   6.763  2.3374 -1.0244 -0.8505
10232TIP3    H230640   3.558   4.009   6.739  1.7919 -0.9323  0.1864
10233TIP3   OH230641   3.588   7.134   0.422 -0.5168 -0.1101  0.6259
10233TIP3    H130642   3.609   7.220   0.384  1.6229 -1.2209 -0.7847
10233TIP3    H230643   3.624   7.139   0.511  2.0312 -0.4579 -0.3462
10234TIP3   OH230644   4.832   3.954   5.656  0.3720  0.3121 -0.0417
10234TIP3    H130645   4.764   3.907   5.706  0.7382 -1.4566 -1.1721
10234TIP3    H230646   4.803   3.950   5.565  1.8810 -0.2665 -0.5135
10235TIP3   OH230647   4.742   0.968   6.726  0.3609 -0.2117  0.1988
10235TIP3    H130648   4.807   1.032   6.697 -0.7279  0.0129 -1.9192
10235TIP3    H230649   4.699   1.009   6.800  0.7240  0.8566 -0.1732
10236TIP3   OH230650   1.781   1.931   6.409 -0.1690  0.2146  0.2875
10236TIP3    H130651   1.804   1.898   6.496  1.0688  1.2606  0.3748
10236TIP3    H230652   1.733   2.012   6.427 -2.0043 -0.7842  0.0400
10237TIP3   OH230653   0.889   1.001   1.113 -0.1829  0.1254 -0.4461
10237TIP3    H130654   0.944   0.965   1.182  0.7413  0.4087 -1.0349
10237TIP3    H230655   0.804   0.959   1.126 -0.3337  1.0124  1.5406
10238TIP3   OH230656   4.880   7.480   1.929  0.5722 -0.1327 -0.4581
10238TIP3    H130657   4.831   7.484   1.847  1.3100  2.0353 -0.8269
10238TIP3    H230658   4.965   7.520   1.909 -0.5913  4.0296  2.2888
10239TIP3   OH230659   3.385   3.045   5.999  0.6339  0.4615 -0.0875
10239TIP3    H130660   3.464   3.044   6.054  0.5987  1.0068 -0.0247
10239TIP3    H230661   3.367   3.138   5.985  1.0871  0.3233 -1.6753
10240TIP3   OH230662   1.582   3.829   6.684  0.1134  0.1272 -0.0103
10240TIP3    H130663   1.617   3.761   6.741 -0.0660 -1.1704 -1.3981
10240TIP3    H230664   1.496   3.796   6.658  0.4617  0.3806 -1.5347
10241TIP3   OH230665   3.916   2.871   5.901 -0.3900  0.1803  0.2734
10241TIP3    H130666   3.822   2.887   5.890 -0.8193 -1.5556  1.2775
10241TIP3    H230667   3.926   2.845   5.993  0.7302 -1.8620 -0.3777
10242TIP3   OH230668   7.424   5.489   0.215  0.5305 -0.4321 -0.6594
10242TIP3    H130669   7.337   5.509   0.178  0.8334  1.4210 -0.4181
10242TIP3    H230670   7.418   5.397   0.242 -0.8773 -0.7570 -1.9978
10243TIP3   OH230671   3.626   3.451   6.000  0.1698 -0.3505  0.6849
10243TIP3    H130672   3.693   3.432   6.066  3.7100 -1.5423 -3.0556
10243TIP3    H230673   3.634   3.545   5.984 -0.3153 -0.1618  1.5098
10244TIP3   OH230674   4.863   4.287   0.200 -0.7341  0.3880 -0.0688
10244TIP3    H130675   4.946   4.332   0.213 -0.8728  0.4943  0.4598
10244TIP3    H230676   4.805   4.352   0.161 -0.6893  0.4340 -0.0578
10245TIP3   OH230677   5.203   5.176   2.834 -0.2780  0.0555 -0.5967
10245TIP3    H130678   5.133   5.240   2.848  0.0359  0.0992  0.8157
10245TIP3    H230679   5.279   5.214   2.878  0.2463 -0.7084 -0.8270
10246TIP3   OH230680   6.639   1.409   1.243  0.0778  0.2342 -0.8453
10246TIP3    H130681   6.638   1.452   1.158 -1.6153 -2.1888 -2.1023
10246TIP3    H230682   6.580   1.334   1.233  1.4371 -1.2695  1.8384
10247TIP3   OH230683   2.756   1.333   6.738  0.5270  0.2526  0.2289
10247TIP3    H130684   2.742   1.343   6.644 -0.3450  2.9222  0.5990
10247TIP3    H230685   2.849   1.351   6.750  1.1038 -2.2404 -0.3701
10248TIP3   OH230686   6.144   6.127   0.234 -0.1653 -0.1800  0.0175
10248TIP3    H130687   6.137   6.211   0.279  0.1443 -0.5587  0.7849
10248TIP3    H230688   6.236   6.122   0.206 -0.2121 -0.2101 -0.1308
10249TIP3   OH230689   4.440   4.128   5.657 -0.0064  0.4045  0.0085
10249TIP3    H130690   4.507   4.136   5.725 -0.5185  1.2747  0.4116
10249TIP3    H230691   4.358   4.118   5.706 -0.4154  1.3570 -0.4887
10250TIP3   OH230692   7.153   6.442   2.464  0.2078  0.2543 -0.0435
10250TIP3    H130693   7.227   6.405   2.415  0.3776  1.0732 -0.4108
10250TIP3    H230694   7.077   6.425   2.408  0.1095 -0.6317  0.3564
10251TIP3   OH230695   7.541   4.903   0.816  0.5890 -0.9131  0.0715
10251TIP3    H130696   7.505   4.919   0.903  1.5310  0.8471  0.1570
10251TIP3    H230697   7.467   4.912   0.756  0.5152  0.8091  0.4141
10252TIP3   OH230698   4.720   2.668   4.268  0.1004 -0.4101 -0.1111
10252TIP3    H130699   4.698   2.702   4.181 -0.2734  0.9460  0.5053
10252TIP3    H230700   4.639   2.675   4.318  0.7598  0.4866  0.8711
10253TIP3   OH230701   6.629   5.796   1.043  0.1174  0.6266  0.1565
10253TIP3    H130702   6.572   5.866   1.073 -0.5679 -0.2583  0.9765
10253TIP3    H230703   6.696   5.789   1.111 -1.7580 -1.7607  1.8729
10254TIP3   OH230704   5.718   2.242   5.770  0.3437 -0.6786  0.2506
10254TIP3    H130705   5.777   2.230   5.695 -0.0209 -1.5258  0.0928
10254TIP3    H230706   5.682   2.155   5.786  0.4060 -0.5081  1.4056
10255TIP3   OH230707   3.438   2.612   6.543  0.1256 -0.3711  0.0794
10255TIP3    H130708   3.518   2.657   6.569 -0.2443  0.4464 -0.1679
10255TIP3    H230709   3.379   2.682   6.516 -0.4275 -1.0149 -0.4083
10256TIP3   OH230710   2.547   2.914   5.369  0.2995  0.1806 -0.0584
10256TIP3    H130711   2.627   2.963   5.389  0.1868  0.6077 -0.6669
10256TIP3    H230712   2.575   2.822   5.369  0.5446  0.2491  0.9178
10257TIP3   OH230713   4.077   0.916   6.335 -0.6786 -0.3398 -0.0216
10257TIP3    H130714   4.049   0.983   6.397 -1.1808  0.1372 -0.7620
10257TIP3    H230715   4.045   0.833   6.372 -0.8460 -0.0718  0.4293
10258TIP3   OH230716   4.369   6.897   1.724  0.7087  0.0061 -0.4792
10258TIP3    H130717   4.378   6.903   1.629  1.0721 -0.4875 -0.4790
10258TIP3    H230718   4.457   6.913   1.758  0.5337  0.4029 -0.2162
10259TIP3   OH230719   3.454   1.513   5.463  0.2823  0.5764  0.0438
10259TIP3    H130720   3.414   1.595   5.492 -1.4590 -0.2784  0.0684
10259TIP3    H230721   3.399   1.483   5.391  1.2115 -0.3155 -0.3017
10260TIP3   OH230722   2.726   2.382   6.817 -0.4508 -0.6112  0.2181
10260TIP3    H130723   2.752   2.469   6.790  2.9265  0.0515  4.9342
10260TIP3    H230724   2.792   2.324   6.779 -0.0091 -0.5358  0.8575
10261TIP3   OH230725   6.684   7.811   0.529  0.0932 -0.2246 -0.1709
10261TIP3    H130726   6.682   7.884   0.590 -0.5427 -1.4839  1.3466
10261TIP3    H230727   6.696   7.852   0.443 -1.5878  1.7497  0.4895
10262TIP3   OH230728   8.168   7.203   0.921  0.5321 -0.2487  0.0549
10262TIP3    H130729   8.114   7.221   0.844  0.9510 -0.0846 -0.2013
10262TIP3    H230730   8.110   7.155   0.981  0.2263 -0.4351 -0.3913
10263TIP3   OH230731   2.946   6.016   1.099 -0.4328 -0.1469 -0.7487
10263TIP3    H130732   2.961   6.053   1.186 -0.2057 -2.7467  0.3589
10263TIP3    H230733   2.875   6.069   1.063  0.3663  1.8092  0.4834
10264TIP3   OH230734   6.919   0.318   3.193 -0.5370  0.2553  0.0442
10264TIP3    H130735   6.998   0.331   3.141 -0.7314  2.5042  0.2731
10264TIP3    H230736   6.947   0.336   3.283 -1.6286  2.5057 -0.0472
10265TIP3   OH230737   5.538   6.534   0.693 -0.3869 -0.1778  0.4671
10265TIP3    H130738   5.621   6.546   0.647  0.8926 -2.1935  2.1788
10265TIP3    H230739   5.512   6.444   0.674 -1.2808 -0.1203  1.3643
10266TIP3   OH230740   2.447   7.045   6.873  0.2435  0.4539 -0.1244
10266TIP3    H130741   2.373   7.056   6.815  0.2179  1.2588  0.0452
10266TIP3    H230742   2.519   7.092   6.830  0.5225  0.0797 -0.0655
10267TIP3   OH230743   5.339   2.068   6.582  0.3042  0.5856  0.0581
10267TIP3    H130744   5.266   2.093   6.525  0.5299  0.4907 -0.2781
10267TIP3    H230745   5.393   2.146   6.588  0.5370  0.4497 -0.2581
10268TIP3   OH230746   3.047   2.389   5.398 -0.3086 -0.1903 -0.0382
10268TIP3    H130747   3.066   2.445   5.322  0.5223  0.2731  0.5036
10268TIP3    H230748   2.954   2.403   5.415 -0.0318  1.3011  0.3048
10269TIP3   OH230749   5.978   7.275   0.692 -0.0346  0.0216 -0.7802
10269TIP3    H130750   5.957   7.294   0.784 -0.6344 -0.7219 -0.7542
10269TIP3    H230751   5.935   7.346   0.643  0.5477  0.5928 -0.4695
10270TIP3   OH230752   4.817   3.427   6.831  0.4519  0.0798 -0.4820
10270TIP3    H130753   4.897   3.387   6.796  0.1705 -1.9214  1.0866
10270TIP3    H230754   4.747   3.369   6.803 -0.2231  0.6767 -0.0346
10271TIP3   OH230755   6.240   7.615   1.496 -0.8963 -0.4868  0.0680
10271TIP3    H130756   6.265   7.541   1.440 -1.4115 -0.6620  0.0723
10271TIP3    H230757   6.149   7.633   1.473 -1.2035 -0.7493  1.0541
10272TIP3   OH230758   4.939   1.916   6.803  0.2886 -0.1482  0.0392
10272TIP3    H130759   4.861   1.925   6.857  0.6872  0.3014  0.5501
10272TIP3    H230760   4.926   1.835   6.754  0.2968 -0.9977  1.4134
10273TIP3   OH230761   2.692   3.392   4.505 -0.7368 -0.6746 -0.4776
10273TIP3    H130762   2.624   3.343   4.552  1.6123 -2.9218  0.7260
10273TIP3    H230763   2.726   3.329   4.441  0.1875  0.4185 -1.0681
10274TIP3   OH230764   6.710   4.438   1.199  0.5079  0.2313  0.3736
10274TIP3    H130765   6.660   4.503   1.148  0.8080  1.5758  1.7616
10274TIP3    H230766   6.684   4.454   1.290  1.5181 -0.8012  0.8534
10275TIP3   OH230767   5.268   5.911   1.454 -0.0783  0.5127  0.1312
10275TIP3    H130768   5.345   5.856   1.441 -0.3791  0.7579 -3.1095
10275TIP3    H230769   5.198   5.850   1.477  0.0771 -0.2069 -1.3096
10276TIP3   OH230770   7.661   5.816   1.075  0.8682  0.0839 -0.1528
10276TIP3    H130771   7.756   5.819   1.069  0.9524  1.6131  1.5727
10276TIP3    H230772   7.632   5.795   0.986  2.7120  2.4918 -1.3792
10277TIP3   OH230773   7.934   5.636   1.435  0.0887 -0.5439 -0.3792
10277TIP3    H130774   7.946   5.592   1.351  3.8540 -2.4390  1.0321
10277TIP3    H230775   7.992   5.712   1.431  1.0020 -1.1644  0.8391
10278TIP3   OH230776   6.829   2.757   6.200  0.1786  0.0946 -0.4385
10278TIP3    H130777   6.783   2.695   6.145  1.3571 -2.0294  0.9102
10278TIP3    H230778   6.805   2.734   6.289  1.7921  0.6073  0.1601
10279TIP3   OH230779   5.168   1.631   6.045  0.4086  0.1335 -0.0236
10279TIP3    H130780   5.138   1.613   5.956  0.2754  1.8096 -0.3378
10279TIP3    H230781   5.257   1.595   6.048  0.2989 -0.2089 -0.7507
10280TIP3   OH230782   2.231   3.081   4.898 -0.0360  0.0929  0.3873
10280TIP3    H130783   2.215   3.026   4.821  0.8586  0.7661 -0.2843
10280TIP3    H230784   2.261   3.164   4.862  1.0038  0.1989  1.4916
10281TIP3   OH230785   8.505   0.151   0.615  0.5308  0.0015 -0.3258
10281TIP3    H130786   8.410   0.159   0.612  0.2344 -3.3868 -2.6723
10281TIP3    H230787   8.536   0.201   0.539  0.4068 -1.1610 -1.1494
10282TIP3   OH230788   0.977   3.917   6.819 -0.2887 -0.0847 -0.1059
10282TIP3    H130789   0.918   3.846   6.846 -0.7424  0.3243 -0.0250
10282TIP3    H230790   1.000   3.896   6.728  0.4200 -0.9073  0.2560
10283TIP3   OH230791   6.354   6.585   0.754  0.2515 -0.4045 -0.0919
10283TIP3    H130792   6.282   6.630   0.709 -0.4296 -2.2349 -0.8827
10283TIP3    H230793   6.310   6.526   0.816  1.0810 -1.2049 -0.2551
10284TIP3   OH230794   5.737   6.438   0.527 -0.0591 -0.5637  0.4258
10284TIP3    H130795   5.797   6.437   0.452  1.9588 -2.3075  1.9990
10284TIP3    H230796   5.663   6.384   0.499  1.0387 -1.8551 -0.0222
10285TIP3   OH230797   2.283   2.038   5.905 -0.0237  0.1850 -0.6538
10285TIP3    H130798   2.331   2.003   5.830  1.0692 -0.3110  0.2557
10285TIP3    H230799   2.295   1.973   5.974 -2.9051 -0.4697 -0.6916
10286TIP3   OH230800   3.944   3.026   6.566  0.1273  0.4821  0.1924
10286TIP3    H130801   3.918   3.090   6.633  0.6208 -0.1584  1.0105
10286TIP3    H230802   3.940   2.942   6.611 -2.4209 -0.3142 -1.4026
10287TIP3   OH230803   7.281   7.390   0.741  0.0928  0.2056  0.0808
10287TIP3    H130804   7.238   7.400   0.826 -0.0993  2.4853 -0.2679
10287TIP3    H230805   7.235   7.316   0.700 -1.3096  0.5147  1.0472
10288TIP3   OH230806   0.440   5.067   0.180  0.8106 -0.2082 -0.8335
10288TIP3    H130807   0.465   5.022   0.260 -1.0668 -1.1137 -0.7373
10288TIP3    H230808   0.421   5.157   0.207  0.7769 -0.3546 -0.3653
10289TIP3   OH230809   6.046   6.721   0.891  0.2374 -0.0274 -0.0749
10289TIP3    H130810   6.059   6.779   0.966 -0.5260  2.8912 -2.1147
10289TIP3    H230811   5.952   6.703   0.890  0.1606  0.4017 -0.6548
10290TIP3   OH230812   4.624   7.307   0.415 -0.5215  0.2117 -0.0005
10290TIP3    H130813   4.568   7.326   0.490 -0.7372  1.0799 -0.3771
10290TIP3    H230814   4.574   7.336   0.339  0.4707  1.0797 -0.3313
10291TIP3   OH230815   4.699   6.295   0.945  0.1392 -0.5188  0.2670
10291TIP3    H130816   4.794   6.292   0.959  0.3568  1.4257 -0.6770
10291TIP3    H230817   4.671   6.375   0.990 -1.2109 -1.5307  1.2873
10292TIP3   OH230818   3.572   1.300   6.876  0.0210  0.3743 -0.0378
10292TIP3    H130819   3.634   1.236   6.910  0.0888  0.0854 -0.6985
10292TIP3    H230820   3.512   1.316   6.948  1.1165  0.9743  0.7483
10293TIP3   OH230821   2.843   3.409   6.340 -0.2273 -0.8239  0.2525
10293TIP3    H130822   2.898   3.460   6.399  0.9003 -1.4094 -0.2776
10293TIP3    H230823   2.753   3.428   6.368  0.2724 -0.5349  1.6816
10294TIP3   OH230824   3.534   2.956   6.371 -0.1698 -0.0554  0.2196
10294TIP3    H130825   3.453   3.007   6.376  0.0689  0.6677 -2.8524
10294TIP3    H230826   3.604   3.021   6.370  0.3013 -0.5718 -0.4777
10295TIP3   OH230827   4.965   6.697   0.849 -0.3547  0.0466 -0.6113
10295TIP3    H130828   5.009   6.744   0.778 -0.7952 -0.1483 -1.0184
10295TIP3    H230829   4.973   6.605   0.824 -0.7703 -0.0016 -0.5561
10296TIP3   OH230830   2.153   2.804   6.171 -0.1572  0.7834 -0.1555
10296TIP3    H130831   2.125   2.802   6.263 -3.1084 -0.2777 -1.0205
10296TIP3    H230832   2.145   2.713   6.142 -0.3636  1.2995 -1.7633
10297TIP3   OH230833   1.421   0.320   6.310  0.2221  0.2378  0.1797
10297TIP3    H130834   1.344   0.375   6.293  1.1580  1.8194  0.8373
10297TIP3    H230835   1.396   0.233   6.282 -0.9667  1.2195 -1.8809
10298TIP3   OH230836   3.154   1.621   6.899 -0.1711  0.2151  0.1589
10298TIP3    H130837   3.201   1.632   6.981  0.9525  0.2437 -0.4723
10298TIP3    H230838   3.202   1.676   6.837 -1.4416  0.7681 -0.3460
10299TIP3   OH230839   7.389   6.211   0.183 -0.1639  0.1425  0.0273
10299TIP3    H130840   7.444   6.289   0.187  0.9799 -0.6465 -0.0864
10299TIP3    H230841   7.314   6.232   0.238 -1.2091  2.3622 -2.1486
10300TIP3   OH230842   5.264   6.619   2.528 -0.0411 -0.0337  0.1401
10300TIP3    H130843   5.173   6.593   2.539 -0.2549 -0.1793 -1.7361
10300TIP3    H230844   5.310   6.582   2.603 -1.3089 -1.0839  0.4025
10301TIP3   OH230845   5.765   5.826   0.305  0.0595  0.4338 -0.4109
10301TIP3    H130846   5.858   5.841   0.322 -0.4508  2.0332  1.1047
10301TIP3    H230847   5.730   5.794   0.389 -0.8376  0.2169 -0.8629
10302TIP3   OH230848   6.947   3.774   1.701 -0.1682 -0.5033  0.5592
10302TIP3    H130849   6.884   3.744   1.635 -0.3554  1.9421 -0.4343
10302TIP3    H230850   6.983   3.694   1.738 -3.7737 -1.9901  1.0822
10303TIP3   OH230851   6.433   6.766   0.160 -0.0598  0.4713  0.3121
10303TIP3    H130852   6.520   6.799   0.137 -0.5531  0.8676 -1.0390
10303TIP3    H230853   6.406   6.714   0.084 -0.9637  0.2541  0.7690
10304TIP3   OH230854   3.837   1.881   6.939  0.2520 -0.0722  0.1520
10304TIP3    H130855   3.873   1.844   6.858  0.8953  0.4592  0.1905
10304TIP3    H230856   3.757   1.830   6.955  0.5214 -0.6834 -0.4067
10305TIP3   OH230857   2.158   1.557   5.155 -0.3959 -0.3457 -0.8987
10305TIP3    H130858   2.163   1.496   5.228  1.0719  0.6790 -0.1078
10305TIP3    H230859   2.231   1.531   5.098  0.5735  0.9716 -0.2899
10306TIP3   OH230860   8.041   5.856   0.467  0.2915  0.3460 -0.1856
10306TIP3    H130861   7.993   5.889   0.391 -2.4210 -1.3242  0.7180
10306TIP3    H230862   8.055   5.763   0.448  2.9477  0.7408 -0.2858
10307TIP3   OH230863   5.741   6.374   0.187 -0.5126 -0.0584  0.1739
10307TIP3    H130864   5.784   6.289   0.196 -1.1594 -0.2553  1.6213
10307TIP3    H230865   5.648   6.354   0.191 -0.7631  0.4166 -2.4680
10308TIP3   OH230866   5.605   6.154   0.959 -0.5707  0.6285  0.0198
10308TIP3    H130867   5.628   6.062   0.971 -2.5224 -0.0355 -1.2162
10308TIP3    H230868   5.527   6.153   0.904  1.0861  3.1560 -2.4905
10309TIP3   OH230869   7.584   7.687   0.813  0.4644 -0.1817 -0.7032
10309TIP3    H130870   7.506   7.671   0.761 -1.1626 -1.6220  2.0952
10309TIP3    H230871   7.647   7.622   0.783 -0.1821 -0.5210 -1.3443
10310TIP3   OH230872   3.713   2.659   6.032  0.3890  0.5593 -0.3144
10310TIP3    H130873   3.650   2.635   5.965  2.0537  0.0673 -1.7471
10310TIP3    H230874   3.717   2.754   6.030 -0.5241  0.5990 -0.0238
10311TIP3   OH230875   2.660   1.706   6.390 -0.2731  0.0740 -0.4078
10311TIP3    H130876   2.657   1.620   6.431 -0.2656  0.8569  1.2694
10311TIP3    H230877   2.752   1.731   6.392 -0.4673  0.7400  0.4384
10312TIP3   OH230878   6.256   6.455   2.105  0.3989 -0.8522 -0.3877
10312TIP3    H130879   6.259   6.547   2.130  0.1732 -0.9813  0.1110
10312TIP3    H230880   6.323   6.446   2.037  0.9936 -0.5083  0.1569
10313TIP3   OH230881   5.525   7.589   0.640 -0.0031 -0.0205  0.3272
10313TIP3    H130882   5.458   7.655   0.621 -0.9455 -1.0420  0.0582
10313TIP3    H230883   5.587   7.597   0.567 -1.0796 -0.6661 -0.6769
10314TIP3   OH230884   3.822   3.440   4.760  0.0732 -0.2795  0.0491
10314TIP3    H130885   3.830   3.492   4.680 -0.0193 -2.0162 -1.1340
10314TIP3    H230886   3.732   3.455   4.790  0.0334  0.2092 -0.3131
10315TIP3   OH230887   3.109   2.340   6.441  0.3577  0.3588  0.2139
10315TIP3    H130888   3.191   2.290   6.442  0.5062  0.5880 -0.3111
10315TIP3    H230889   3.131   2.419   6.391  0.4936  1.5383  2.0831
10316TIP3   OH230890   4.364   2.038   5.655  0.0890 -0.2732  0.2006
10316TIP3    H130891   4.287   1.982   5.672 -0.5678  1.0719  1.7922
10316TIP3    H230892   4.329   2.110   5.601  0.1108  0.6237  1.3794
10317TIP3   OH230893   4.480   6.145   0.946 -0.2416  0.3794 -0.1246
10317TIP3    H130894   4.514   6.056   0.943 -0.5244  0.2605  0.1597
10317TIP3    H230895   4.557   6.200   0.959 -0.0437  0.1924 -0.5138
10318TIP3   OH230896   5.477   7.186   0.049 -0.1344  0.0594  0.1357
10318TIP3    H130897   5.502   7.237   0.127 -0.4458 -0.4959  0.5966
10318TIP3    H230898   5.407   7.237   0.009  2.3645  2.2062 -1.7599
10319TIP3   OH230899   6.465   5.937   1.758  0.8173  0.5714  0.0453
10319TIP3    H130900   6.401   5.987   1.809 -0.3837 -1.5328  0.6556
10319TIP3    H230901   6.440   5.951   1.667  0.1771  0.6789  0.2357
10320TIP3   OH230902   4.585   1.417   4.602  0.0848 -0.1892  0.2455
10320TIP3    H130903   4.564   1.385   4.689  1.1735  1.1583  1.0234
10320TIP3    H230904   4.680   1.412   4.596  0.0753  0.4520 -0.5756
10321TIP3   OH230905   6.375   3.241   6.300  0.3017 -0.4330  0.5869
10321TIP3    H130906   6.402   3.213   6.387  0.1096  0.9886  1.1118
10321TIP3    H230907   6.340   3.329   6.312 -0.5964 -0.5778 -0.7764
10322TIP3   OH230908   4.947   6.316   0.330  0.2688  0.5129  0.3667
10322TIP3    H130909   4.858   6.283   0.315 -0.1335  1.2367  1.1175
10322TIP3    H230910   4.948   6.339   0.423  1.0536  1.0909  0.2180
10323TIP3   OH230911   4.734   1.804   4.531 -0.1123 -0.2226 -0.0944
10323TIP3    H130912   4.677   1.772   4.461 -0.8048  0.2234  0.2690
10323TIP3    H230913   4.728   1.899   4.525  1.8838 -0.1253 -1.1235
10324TIP3   OH230914   5.233   7.005   2.956  0.2883 -0.0445 -0.2063
10324TIP3    H130915   5.276   6.920   2.945 -0.7150 -0.7069  0.9034
10324TIP3    H230916   5.303   7.062   2.988  1.3143 -0.0614 -2.3314
10325TIP3   OH230917   3.219   2.871   4.439 -0.2791 -0.1034 -0.2681
10325TIP3    H130918   3.143   2.904   4.390  0.0560 -0.0022 -0.7216
10325TIP3    H230919   3.181   2.816   4.507 -0.6722 -1.7453 -1.7729
10326TIP3   OH230920   6.152   6.374   0.367 -0.1001  0.6355  0.6949
10326TIP3    H130921   6.065   6.412   0.355 -0.0923  0.7044  0.8575
10326TIP3    H230922   6.212   6.448   0.359  0.2835 -0.0300 -3.7842
10327TIP3   OH230923   6.377   4.908   0.321 -0.2913  0.2636  0.1588
10327TIP3    H130924   6.323   4.982   0.348 -0.2703 -0.5038  2.3908
10327TIP3    H230925   6.323   4.862   0.256 -2.1377 -0.1956  1.9681
10328TIP3   OH230926   5.637   4.575   0.154 -0.3225 -0.1799  0.0815
10328TIP3    H130927   5.639   4.550   0.246 -0.1308  2.5945  0.8953
10328TIP3    H230928   5.708   4.526   0.114 -0.6223 -1.6762  1.3416
10329TIP3   OH230929   2.273   1.993   6.962  0.3104  0.3881  0.4906
10329TIP3    H130930   2.240   1.904   6.967  0.6544  0.3186  1.4898
10329TIP3    H230931   2.310   2.000   6.874  2.0894 -1.0843  1.1011
10330TIP3   OH230932   5.595   6.955   0.206 -0.2824  0.4972  0.9150
10330TIP3    H130933   5.517   6.900   0.197  1.0309 -0.8210 -3.8760
10330TIP3    H230934   5.572   7.036   0.161  1.0656  0.0717 -0.6031
10331TIP3   OH230935   6.279   1.782   5.897  0.1406  0.1518  0.2743
10331TIP3    H130936   6.327   1.864   5.886 -2.1176  1.3096 -1.1632
10331TIP3    H230937   6.190   1.809   5.919 -0.6736 -1.9125 -0.3969
10332TIP3   OH230938   6.906   7.963   1.978 -0.4514  0.4426  0.5951
10332TIP3    H130939   6.971   7.954   2.048 -0.0416  1.1497  0.3164
10332TIP3    H230940   6.952   8.009   1.908 -1.6132  2.1454  0.9090
10333TIP3   OH230941   5.260   5.952   0.801  0.6528  0.1474  0.1077
10333TIP3    H130942   5.264   5.927   0.894  0.8921  0.2153  0.1149
10333TIP3    H230943   5.175   5.995   0.792 -1.0384 -3.1956 -0.5126
10334TIP3   OH230944   2.498   2.703   6.310 -0.0125 -0.3710  0.3386
10334TIP3    H130945   2.519   2.788   6.270 -1.8860 -0.4767 -0.9257
10334TIP3    H230946   2.575   2.681   6.362  1.5856  0.8276 -1.4776
10335TIP3   OH230947   4.773   2.509   5.433  1.0685 -0.4528 -0.2032
10335TIP3    H130948   4.773   2.578   5.366  0.9681  0.2539  0.5103
10335TIP3    H230949   4.861   2.512   5.470  0.7884 -0.0959  0.4421
10336TIP3   OH230950   4.871   3.898   6.704  0.3009 -1.0908 -0.8248
10336TIP3    H130951   4.960   3.906   6.671  0.1664  0.8034 -0.7741
10336TIP3    H230952   4.816   3.936   6.635 -0.2656 -0.1970  0.1092
10337TIP3   OH230953   6.666   6.890   2.836 -0.2653 -0.5745  0.2054
10337TIP3    H130954   6.589   6.946   2.839 -0.1700 -0.4656  0.6708
10337TIP3    H230955   6.700   6.891   2.926  1.1452  0.5756 -0.3154
10338TIP3   OH230956   5.223   6.553   1.319  0.5714  0.6568 -0.1063
10338TIP3    H130957   5.254   6.642   1.336  2.0561 -0.1519  1.6692
10338TIP3    H230958   5.302   6.506   1.291  0.1180 -0.4549  0.4502
10339TIP3   OH230959   5.196   6.422   0.738  0.5207  0.3121  0.4096
10339TIP3    H130960   5.109   6.413   0.699  0.6144 -0.6295  0.4127
10339TIP3    H230961   5.179   6.439   0.831  0.3431 -0.0064  0.4349
10340TIP3   OH230962   2.333   0.361   6.781  0.1378 -0.3666 -0.8744
10340TIP3    H130963   2.282   0.440   6.767 -0.1670 -0.4558 -0.2711
10340TIP3    H230964   2.417   0.392   6.814  0.1774 -0.2659 -1.0731
10341TIP3   OH230965   4.658   6.456   0.050 -0.2645 -0.3437  0.0758
10341TIP3    H130966   4.592   6.427  -0.012 -0.2741 -0.6311  0.2198
10341TIP3    H230967   4.734   6.478  -0.004 -0.8460  1.0542 -0.1980
10342TIP3   OH230968   1.792   2.769   5.577  0.4502  0.5180  0.0693
10342TIP3    H130969   1.782   2.862   5.554 -0.4732  1.2125  3.0345
10342TIP3    H230970   1.702   2.737   5.583  0.7463 -0.3505 -0.1557
10343TIP3   OH230971   1.710   7.805   0.067  0.4486 -0.5242  0.5681
10343TIP3    H130972   1.791   7.819   0.018 -0.0361  0.3452  0.0029
10343TIP3    H230973   1.704   7.881   0.124 -0.5383 -0.0257 -0.1916
10344TIP3   OH230974   2.111   2.421   5.933 -0.0201 -0.7780  0.1529
10344TIP3    H130975   2.061   2.375   6.000  0.2303  0.3251  1.1242
10344TIP3    H230976   2.045   2.473   5.886  0.1813  0.7273  1.4762
10345TIP3   OH230977   3.981   2.230   6.343 -0.3141 -0.1731  0.2364
10345TIP3    H130978   3.977   2.170   6.417 -1.0958 -0.7237 -0.2572
10345TIP3    H230979   3.941   2.183   6.270 -1.3420  1.0890 -0.0483
10346TIP3   OH230980   5.131   1.514   6.724 -0.4176  0.4567 -0.3311
10346TIP3    H130981   5.148   1.524   6.818 -1.2766 -1.2092  0.0276
10346TIP3    H230982   5.195   1.449   6.695 -1.5696 -0.6600 -0.4209
10347TIP3   OH230983   8.326   0.262   1.087 -0.1610 -0.7166 -0.2553
10347TIP3    H130984   8.362   0.318   1.156 -0.0563 -0.5802 -0.4220
10347TIP3    H230985   8.401   0.213   1.054 -0.3928 -1.5884  0.4760
10348TIP3   OH230986   4.412   4.137   0.437 -0.4803 -0.2434  0.1585
10348TIP3    H130987   4.413   4.221   0.392 -1.1870 -0.0860  0.4335
10348TIP3    H230988   4.485   4.142   0.498 -0.2639  0.0090 -0.1223
10349TIP3   OH230989   7.780   1.094   0.901  0.0369  0.2585  0.2265
10349TIP3    H130990   7.794   1.073   0.809  0.2466 -1.1779  0.5775
10349TIP3    H230991   7.813   1.184   0.910  1.5188 -0.1778 -0.7249
10350TIP3   OH230992   4.547   3.100   6.006 -0.5879 -0.0546  0.0824
10350TIP3    H130993   4.558   3.045   5.928 -0.5662 -0.8829  0.6668
10350TIP3    H230994   4.582   3.185   5.980 -0.1514 -0.4591 -0.6692
10351TIP3   OH230995   2.825   3.422   5.650  0.7311 -0.2785 -0.1136
10351TIP3    H130996   2.879   3.499   5.668  1.2665 -0.3030 -1.5462
10351TIP3    H230997   2.751   3.455   5.600  0.5945 -0.5903 -0.1209
10352TIP3   OH230998   5.616   2.374   6.903 -0.3410 -0.5328  0.3778
10352TIP3    H130999   5.702   2.416   6.912 -0.2302 -0.9840  1.6196
10352TIP3    H231000   5.635   2.281   6.889 -0.6241 -0.9590  2.6258
10353TIP3   OH231001   4.988   1.759   5.605 -0.0455 -0.9220 -0.1431
10353TIP3    H131002   4.975   1.710   5.523  0.7256  0.6106 -1.2039
10353TIP3    H231003   4.907   1.746   5.654  0.2451 -3.5002 -0.2644
10354TIP3   OH231004   3.658   3.170   6.144 -1.0539 -0.1024  0.6077
10354TIP3    H131005   3.732   3.229   6.130 -1.5827  0.8902  1.8799
10354TIP3    H231006   3.694   3.082   6.131 -0.0809  0.4526 -0.5327
10355TIP3   OH231007   4.426   6.814   3.627  0.3461 -0.0849 -0.0779
10355TIP3    H131008   4.472   6.822   3.543  2.3337  0.5902  1.0426
10355TIP3    H231009   4.417   6.719   3.640  2.9428 -0.2925  0.4601
10356TIP3   OH231010   6.876   6.345   2.026 -0.2770 -0.0864  0.1395
10356TIP3    H131011   6.937   6.361   1.954 -2.4369  1.5142 -1.3856
10356TIP3    H231012   6.898   6.412   2.091 -0.8931  0.9869 -0.7415
10357TIP3   OH231013   1.651   3.204   4.924  0.6416 -0.4623  0.1746
10357TIP3    H131014   1.705   3.181   5.000 -0.3952 -0.3238  0.9699
10357TIP3    H231015   1.562   3.206   4.958  0.3395  1.3410 -0.6661
10358TIP3   OH231016   3.114   1.092   5.859 -0.1340 -0.2154 -0.0018
10358TIP3    H131017   3.072   1.080   5.774 -2.5814  0.3877  1.0914
10358TIP3    H231018   3.059   1.042   5.920 -0.0677  1.7356  1.6891
10359TIP3   OH231019   5.226   6.678   0.982 -0.3720 -0.1289  0.3109
10359TIP3    H131020   5.292   6.608   0.976 -0.8207 -0.3906 -2.2122
10359TIP3    H231021   5.149   6.635   1.020  0.2643 -0.2995  1.4259
10360TIP3   OH231022   2.091   0.700   0.333  0.2612  0.3194 -0.0919
10360TIP3    H131023   2.031   0.639   0.377  1.2672 -0.2442  0.5286
10360TIP3    H231024   2.067   0.696   0.241 -1.7977  1.4030  0.3450
10361TIP3   OH231025   4.863   7.147   0.394  0.0925 -0.0046  0.3199
10361TIP3    H131026   4.848   7.231   0.350  0.9393  0.6265  1.2042
10361TIP3    H231027   4.779   7.102   0.388 -1.0721  1.8619  1.8049
10362TIP3   OH231028   2.031   3.771   6.554 -0.0535  0.4605 -0.4687
10362TIP3    H131029   2.053   3.827   6.480 -0.9602  1.6935  0.1867
10362TIP3    H231030   1.937   3.755   6.545 -0.0738  0.2255  0.1483
10363TIP3   OH231031   8.311   3.786   0.696 -0.3054 -0.1341 -0.1523
10363TIP3    H131032   8.341   3.730   0.625 -1.0879 -0.5002 -0.2060
10363TIP3    H231033   8.390   3.824   0.733 -0.0186  2.0325 -2.8228
10364TIP3   OH231034   7.908   4.886   0.740  0.5165  0.5830  0.1110
10364TIP3    H131035   7.823   4.905   0.781 -1.0926 -1.2387 -2.1941
10364TIP3    H231036   7.913   4.946   0.666  0.0001 -1.0259 -1.2740
10365TIP3   OH231037   6.533   3.214   1.981 -0.1935  0.0646 -0.4703
10365TIP3    H131038   6.444   3.222   2.013 -0.8363  0.8347 -2.3496
10365TIP3    H231039   6.581   3.173   2.052 -1.7915  0.7012  1.0092
10366TIP3   OH231040   2.724   3.711   6.859 -0.0408 -0.1994  0.7756
10366TIP3    H131041   2.692   3.801   6.867  0.9969  0.3443 -1.0757
10366TIP3    H231042   2.677   3.674   6.784 -1.0817 -1.4911  2.0311
10367TIP3   OH231043   7.701   4.237   1.172  0.7861 -0.3862 -0.6898
10367TIP3    H131044   7.626   4.253   1.114 -0.4867 -0.7545  0.8078
10367TIP3    H231045   7.725   4.324   1.204  0.5211 -0.3325 -0.6293
10368TIP3   OH231046   3.789   0.026   4.791 -0.3318 -0.0942 -0.4279
10368TIP3    H131047   3.714  -0.020   4.753 -0.8491  0.0775  0.3546
10368TIP3    H231048   3.751   0.077   4.863  0.0110  2.5942 -2.0900
10369TIP3   OH231049   4.579   3.867   6.752 -0.0122 -0.2628 -0.0601
10369TIP3    H131050   4.630   3.831   6.824  0.2015  2.1815  1.0662
10369TIP3    H231051   4.507   3.806   6.739  0.2650 -1.0033  1.8610
10370TIP3   OH231052   5.515   7.359   1.264  0.0854  0.3438 -0.1020
10370TIP3    H131053   5.451   7.288   1.271  0.0254  0.1427 -2.3833
10370TIP3    H231054   5.476   7.431   1.314 -1.6740  0.0255 -0.9638
10371TIP3   OH231055   5.368   5.055   0.743  0.4250  0.6544 -0.4750
10371TIP3    H131056   5.284   5.092   0.770  0.6268  0.6542  0.1623
10371TIP3    H231057   5.425   5.131   0.731  0.1262  0.7042 -1.6480
10372TIP3   OH231058   5.273   7.476   0.780  0.4023 -0.3527 -0.1327
10372TIP3    H131059   5.290   7.479   0.875 -2.1070 -0.0159  0.3412
10372TIP3    H231060   5.304   7.561   0.748  2.1048 -0.8244  0.2110
10373TIP3   OH231061   3.670   6.428   1.110  0.3215  0.1738  0.2384
10373TIP3    H131062   3.729   6.436   1.185  1.1824  1.4010 -0.5666
10373TIP3    H231063   3.724   6.450   1.034 -0.3008 -1.9157 -0.8581
10374TIP3   OH231064   5.627   6.592   6.205  0.1760  0.1791  0.2959
10374TIP3    H131065   5.635   6.516   6.147  3.0254  0.0744  0.7554
10374TIP3    H231066   5.609   6.554   6.291  1.6360 -0.0269  0.5331
10375TIP3   OH231067   3.958   1.566   4.863 -0.1605  0.3200 -0.5685
10375TIP3    H131068   3.930   1.508   4.792 -0.2185 -0.2063 -0.1236
10375TIP3    H231069   3.990   1.506   4.931 -0.2062  0.8136 -0.1100
10376TIP3   OH231070   5.821   0.832   6.802 -0.6108  0.0126 -0.2636
10376TIP3    H131071   5.895   0.826   6.864 -0.7979 -0.4311 -0.0839
10376TIP3    H231072   5.856   0.798   6.720 -0.0456  1.5788 -0.6861
10377TIP3   OH231073   6.658   7.586   1.818  0.4636  0.1791  0.3892
10377TIP3    H131074   6.740   7.591   1.768 -0.3950  1.0597 -0.9651
10377TIP3    H231075   6.590   7.577   1.752 -0.7996  2.4048  1.3236
10378TIP3   OH231076   2.483   3.573   5.674 -0.0681 -0.1090 -0.4754
10378TIP3    H131077   2.548   3.560   5.605  0.0384  2.1392 -0.8335
10378TIP3    H231078   2.398   3.566   5.630 -0.0731 -1.9844 -0.2012
10379TIP3   OH231079   5.883   0.576   5.575  0.3760 -0.0461 -0.1124
10379TIP3    H131080   5.889   0.671   5.578  1.3856 -0.0629 -1.1817
10379TIP3    H231081   5.957   0.545   5.626  0.4149 -0.2626 -0.2993
10380TIP3   OH231082   6.187   7.532   2.542 -0.1495  0.4700 -0.0927
10380TIP3    H131083   6.172   7.496   2.454  0.9844 -1.9678  0.6907
10380TIP3    H231084   6.131   7.609   2.545 -1.0840 -0.0522 -2.5539
10381TIP3   OH231085   1.521   0.646   6.272  0.0472 -0.3418 -0.0905
10381TIP3    H131086   1.608   0.651   6.231  0.0398 -1.3379 -0.2561
10381TIP3    H231087   1.460   0.674   6.204  0.2010 -0.1547 -0.1504
10382TIP3   OH231088   3.269   3.572   5.093  0.0552 -0.3426 -0.2907
10382TIP3    H131089   3.350   3.621   5.108 -0.6871  0.7636  0.1630
10382TIP3    H231090   3.276   3.495   5.150  1.0553 -0.5704 -0.7196
10383TIP3   OH231091   4.532   7.415   0.966 -0.4338  0.8383 -0.5229
10383TIP3    H131092   4.444   7.417   0.928  0.2462  0.1184 -2.2034
10383TIP3    H231093   4.523   7.362   1.045 -1.2400 -0.5014 -1.4857
10384TIP3   OH231094   6.959   4.699   0.743 -0.5017  0.1636 -0.1369
10384TIP3    H131095   7.003   4.766   0.797 -1.0823 -0.0585  0.6178
10384TIP3    H231096   6.921   4.639   0.807 -0.6288 -0.4692 -0.8151
10385TIP3   OH231097   3.257   1.617   6.063  0.7070  0.1254  0.2314
10385TIP3    H131098   3.280   1.650   5.976 -0.6576  1.7090  0.4470
10385TIP3    H231099   3.239   1.524   6.050  1.2253  0.1927 -1.0354
10386TIP3   OH231100   3.949   2.073   6.549  0.6110 -0.6685 -0.4971
10386TIP3    H131101   3.957   2.114   6.635  1.8887 -2.1273  0.0840
10386TIP3    H231102   3.858   2.044   6.544  0.5503 -0.6126  0.3645
10387TIP3   OH231103   7.311   6.956   6.629 -0.4696  0.0042 -0.3337
10387TIP3    H131104   7.344   6.916   6.709 -0.7882 -0.1511 -0.2756
10387TIP3    H231105   7.280   6.881   6.577 -0.3827  0.1152 -0.5418
10388TIP3   OH231106   7.094   5.295   0.712  0.0387  0.2210 -0.1937
10388TIP3    H131107   7.154   5.368   0.729 -0.5432  0.8453 -0.8006
10388TIP3    H231108   7.012   5.320   0.755  0.2596 -0.7114  0.7855
10389TIP3   OH231109   4.916   1.663   6.676 -0.3586 -0.0444 -0.2313
10389TIP3    H131110   4.848   1.597   6.692 -0.1960 -1.3840 -4.3931
10389TIP3    H231111   4.998   1.614   6.678  0.1522  0.8475  0.8959
10390TIP3   OH231112   0.813   4.957   2.546 -0.3964  0.4645 -0.3860
10390TIP3    H131113   0.742   4.893   2.549  0.5211 -0.5161  0.8466
10390TIP3    H231114   0.789   5.023   2.611  1.6304 -1.8485  2.8668
10391TIP3   OH231115   3.175   1.980   6.430  0.2224 -0.4766 -0.2313
10391TIP3    H131116   3.261   2.022   6.422  0.7171 -1.5546 -0.7504
10391TIP3    H231117   3.114   2.042   6.393  0.7258  0.4720  0.5017
10392TIP3   OH231118   7.815   5.723   0.116 -0.6153  0.3650 -0.2614
10392TIP3    H131119   7.724   5.730   0.089 -0.3898 -1.1625 -1.5044
10392TIP3    H231120   7.854   5.807   0.092 -1.8609  1.3476  1.0458
10393TIP3   OH231121   2.406   1.368   1.018  0.1134 -0.2028 -0.1788
10393TIP3    H131122   2.473   1.407   0.962  0.3508 -1.2242 -0.6198
10393TIP3    H231123   2.456   1.331   1.091 -0.1747  0.9357  0.6101
10394TIP3   OH231124   2.815   2.950   3.828  0.0349  0.2644 -0.9608
10394TIP3    H131125   2.907   2.935   3.847  0.0059 -0.0559 -1.0747
10394TIP3    H231126   2.810   2.951   3.733 -0.0823  0.2643 -0.9545
10395TIP3   OH231127   6.500   3.435   2.326 -0.7276 -0.1179  0.0692
10395TIP3    H131128   6.448   3.382   2.387 -1.2256  1.7182  1.3034
10395TIP3    H231129   6.436   3.488   2.279 -0.1173  0.7476  0.1969
10396TIP3   OH231130   1.706   2.930   4.716 -0.3424 -0.2067  0.1941
10396TIP3    H131131   1.717   2.875   4.638  2.3949 -2.0752  1.7932
10396TIP3    H231132   1.741   3.015   4.690 -2.3119  0.1041 -1.5440
10397TIP3   OH231133   6.598   6.503   0.060  0.1839  0.2913 -0.1356
10397TIP3    H131134   6.524   6.522   0.002  0.5428  0.9263 -0.3971
10397TIP3    H231135   6.594   6.409   0.075 -2.6958  0.7499  2.5974
10398TIP3   OH231136   2.333   3.341   6.246  0.4418 -0.1239  0.2675
10398TIP3    H131137   2.416   3.362   6.289  2.0228  1.2496 -3.2176
10398TIP3    H231138   2.359   3.307   6.160 -2.5811 -1.3968 -0.1963
10399TIP3   OH231139   1.085   6.525   0.300  0.2361 -0.2432 -0.0690
10399TIP3    H131140   1.146   6.458   0.332 -0.0385 -0.6895 -0.4713
10399TIP3    H231141   1.048   6.563   0.379 -1.1721 -2.0191  0.1631
10400TIP3   OH231142   5.605   3.445   6.064 -0.5132 -0.3004 -0.1074
10400TIP3    H131143   5.584   3.377   6.001  0.7612 -0.8014  0.0102
10400TIP3    H231144   5.601   3.402   6.149 -0.3250 -0.0858  0.0122
10401TIP3   OH231145   6.456   4.150   0.869  0.0972 -0.3723 -0.5791
10401TIP3    H131146   6.479   4.092   0.941  1.5732  0.9998  0.0679
10401TIP3    H231147   6.456   4.093   0.792  4.2793 -0.7363 -0.3848
10402TIP3   OH231148   3.969   3.526   5.876 -0.1285  0.4812  0.3421
10402TIP3    H131149   3.898   3.582   5.844 -0.9600 -0.6691  0.1165
10402TIP3    H231150   3.924   3.459   5.928  0.7758 -0.3571  0.0563
10403TIP3   OH231151   7.390   2.787   5.168  0.0107  0.1157  0.0380
10403TIP3    H131152   7.391   2.856   5.235  1.7221  1.1095 -0.9652
10403TIP3    H231153   7.428   2.829   5.091  0.8014 -1.8645 -0.6838
10404TIP3   OH231154   4.473   2.191   5.875 -0.1143 -0.1321 -0.0559
10404TIP3    H131155   4.398   2.226   5.922 -0.8171 -0.6546 -0.7693
10404TIP3    H231156   4.446   2.103   5.848  0.7393 -0.3150 -0.3392
10405TIP3   OH231157   7.075   7.546   0.849 -0.2625  0.9766  0.6380
10405TIP3    H131158   7.066   7.485   0.775  1.2339  0.2842  1.0097
10405TIP3    H231159   6.986   7.558   0.881 -0.6141 -0.8511  0.4084
10406TIP3   OH231160   6.143   2.030   6.574 -0.1941  0.3614 -1.0766
10406TIP3    H131161   6.147   1.944   6.534 -0.8884  0.0237 -0.4324
10406TIP3    H231162   6.129   2.013   6.667 -1.0476  1.1712 -1.0508
10407TIP3   OH231163   5.760   4.062   5.896 -0.0385  0.4911 -0.1918
10407TIP3    H131164   5.787   4.040   5.985 -0.7525 -0.8682 -0.3000
10407TIP3    H231165   5.675   4.106   5.907  0.7104  1.9605 -0.0859
10408TIP3   OH231166   5.813   7.767   0.681  0.2917  0.1409  0.3762
10408TIP3    H131167   5.854   7.766   0.767  1.8393  1.3246 -0.3431
10408TIP3    H231168   5.775   7.854   0.673 -0.7596 -0.3187  0.2719
10409TIP3   OH231169   0.075   5.808   0.575  0.0451  0.0957  0.4730
10409TIP3    H131170   0.094   5.865   0.649  1.6318  1.8296 -1.1937
10409TIP3    H231171  -0.008   5.840   0.541  1.7844  2.7298 -1.5482
10410TIP3   OH231172   6.057   2.846   5.273 -0.0072  0.5834 -0.0825
10410TIP3    H131173   6.108   2.768   5.297 -0.8105 -0.0239 -0.3361
10410TIP3    H231174   5.967   2.822   5.292 -0.1497  1.8886  0.9824
10411TIP3   OH231175   3.525   0.894   1.577  0.2326 -0.0624  0.4985
10411TIP3    H131176   3.486   0.843   1.647  0.9691 -0.6644  0.4745
10411TIP3    H231177   3.483   0.862   1.497  0.4891 -0.4378  0.5129
10412TIP3   OH231178   2.870   0.443   1.421  0.3537 -0.6010  0.0246
10412TIP3    H131179   2.848   0.426   1.329 -1.0317 -2.3353  0.6432
10412TIP3    H231180   2.901   0.533   1.422  0.2454 -0.5090 -2.1254
10413TIP3   OH231181   4.171   0.227   2.216  0.4531  0.2683  0.2117
10413TIP3    H131182   4.108   0.161   2.185  2.4785 -2.4992  1.7118
10413TIP3    H231183   4.143   0.308   2.174 -3.0592 -1.2183 -0.5348
10414TIP3   OH231184   1.328   0.726   0.816  0.0737 -0.2035 -0.0242
10414TIP3    H131185   1.374   0.780   0.752 -0.5039 -0.0073 -0.2796
10414TIP3    H231186   1.366   0.750   0.901  0.2706  0.1227 -0.2053
10415TIP3   OH231187   6.630   4.760   6.496 -0.0796 -0.9357 -0.6507
10415TIP3    H131188   6.689   4.690   6.466  0.3921 -1.0253  0.4392
10415TIP3    H231189   6.659   4.837   6.448  0.2664 -1.2102 -0.8912
10416TIP3   OH231190   8.023   6.750   0.101  0.0079 -0.3203 -0.8868
10416TIP3    H131191   7.992   6.796   0.023 -1.2885  0.5687  0.1303
10416TIP3    H231192   7.943   6.723   0.146  0.7263 -0.2092  0.4806
10417TIP3   OH231193   1.438   6.124   1.924  0.2959 -0.4758  0.6085
10417TIP3    H131194   1.409   6.106   1.835 -0.6983  1.0675  0.5984
10417TIP3    H231195   1.533   6.132   1.917  0.0530  1.8742 -0.7724
10418TIP3   OH231196   8.231   5.624   0.269 -0.0794  0.5434  0.0708
10418TIP3    H131197   8.247   5.718   0.255  1.2382  0.4998  1.2061
10418TIP3    H231198   8.306   5.594   0.321 -0.3143 -1.2154 -0.5637
10419TIP3   OH231199   6.056   0.222   5.714  0.5832  0.3423  0.2490
10419TIP3    H131200   6.100   0.187   5.792 -1.5271  0.3853  1.4915
10419TIP3    H231201   5.982   0.163   5.700 -0.2959  1.5829 -0.4254
10420TIP3   OH231202   5.378   1.813   6.464  0.0098 -0.3490 -0.1008
10420TIP3    H131203   5.317   1.805   6.391 -0.1664  2.1177 -0.2688
10420TIP3    H231204   5.349   1.891   6.511  2.6786  0.5424  0.1297
10421TIP3   OH231205   5.765   3.196   6.092 -0.1684 -0.2556 -0.6553
10421TIP3    H131206   5.686   3.151   6.121 -0.5827 -0.4997 -2.1188
10421TIP3    H231207   5.765   3.185   5.997 -0.9492  3.8425 -1.2215
10422TIP3   OH231208   7.143   4.041   6.174 -0.1586  0.8637  0.2675
10422TIP3    H131209   7.133   4.117   6.232 -2.9519 -0.0868  1.0940
10422TIP3    H231210   7.107   3.968   6.223  0.3040 -0.5629 -1.4775
10423TIP3   OH231211   0.230   5.726   0.175  0.3572 -0.2179 -0.4580
10423TIP3    H131212   0.175   5.743   0.099  0.8687 -0.3552 -0.8593
10423TIP3    H231213   0.199   5.642   0.209  0.1781 -0.1900 -0.5514
10424TIP3   OH231214   5.718   2.883   5.883  0.0608  0.6473  0.3625
10424TIP3    H131215   5.792   2.851   5.831 -1.5089  0.2145 -1.6960
10424TIP3    H231216   5.716   2.977   5.865 -0.1349  0.5895  0.0719
10425TIP3   OH231217   7.096   2.767   6.104 -0.3218  0.1233 -0.1686
10425TIP3    H131218   7.148   2.752   6.183 -0.1506 -1.1398 -0.5144
10425TIP3    H231219   7.007   2.781   6.136 -0.1303  0.2799  0.2961
10426TIP3   OH231220   1.439   0.467   2.717  0.0501 -0.2289  0.3155
10426TIP3    H131221   1.448   0.522   2.795 -0.3713 -1.4513  1.2578
10426TIP3    H231222   1.350   0.430   2.725  0.5430 -1.4974  0.0313
10427TIP3   OH231223   3.459   3.022   4.393  0.2169 -0.1349 -0.3122
10427TIP3    H131224   3.535   3.012   4.449  0.4548 -2.9816 -1.0703
10427TIP3    H231225   3.401   2.950   4.417 -1.9980  1.6343 -0.1641
10428TIP3   OH231226   6.680   1.494   5.517 -0.0235 -0.1334 -0.6698
10428TIP3    H131227   6.714   1.548   5.446 -1.1775  0.7012 -0.5978
10428TIP3    H231228   6.758   1.459   5.560  0.7928  2.4521  0.0287
10429TIP3   OH231229   0.749   7.722   0.661  0.2348 -0.6119 -0.6422
10429TIP3    H131230   0.782   7.780   0.729  0.1112 -0.0868 -1.0334
10429TIP3    H231231   0.822   7.662   0.643 -0.4829 -2.2433  1.5779
10430TIP3   OH231232   3.378   1.170   0.190  0.0968  0.2077 -0.7924
10430TIP3    H131233   3.415   1.180   0.103  0.0298 -1.1254 -0.9968
10430TIP3    H231234   3.283   1.165   0.176 -0.0067  1.3039 -0.5079
10431TIP3   OH231235   5.309   2.890   6.253 -0.4995  0.3796 -0.1906
10431TIP3    H131236   5.219   2.923   6.254 -0.8723 -0.6233 -0.3647
10431TIP3    H231237   5.325   2.860   6.342 -0.4266  0.3161 -0.2246
10432TIP3   OH231238   6.133   1.759   6.421  0.6687 -0.3514  0.2159
10432TIP3    H131239   6.055   1.802   6.387  0.4723  0.0739  1.1742
10432TIP3    H231240   6.184   1.736   6.344  0.9315  1.9015 -0.3018
10433TIP3   OH231241   5.469   3.454   5.640 -0.5477  0.1675 -0.1350
10433TIP3    H131242   5.428   3.420   5.560 -1.7695  2.3398 -0.4703
10433TIP3    H231243   5.558   3.475   5.614 -1.6181  3.1073 -1.6068
10434TIP3   OH231244   6.036   4.379   5.615  0.0317 -0.5331 -0.8603
10434TIP3    H131245   6.108   4.364   5.676  0.1866  0.2519 -0.8416
10434TIP3    H231246   6.037   4.474   5.600 -2.4770 -0.1815  0.9460
10435TIP3   OH231247   5.775   3.397   6.472 -0.9328 -0.4240  0.1454
10435TIP3    H131248   5.829   3.449   6.531 -0.9088 -0.8565  0.5055
10435TIP3    H231249   5.713   3.351   6.529 -1.3144 -0.3654 -0.2160
10436TIP3   OH231250   6.120   1.563   6.587  0.0642 -0.0798  0.4191
10436TIP3    H131251   6.099   1.645   6.543 -0.7233 -0.8964 -0.7556
10436TIP3    H231252   6.210   1.543   6.560 -0.4419 -0.6164 -0.9128
10437TIP3   OH231253   0.745   6.975   0.319 -0.2248 -0.3894  0.8457
10437TIP3    H131254   0.782   7.058   0.350 -1.9953  0.5264  0.5686
10437TIP3    H231255   0.779   6.965   0.230  0.7023 -0.4283  1.1931
10438TIP3   OH231256   3.283   3.354   5.281  0.2040 -0.2945 -0.1945
10438TIP3    H131257   3.206   3.349   5.337 -0.5947 -0.9375 -1.3199
10438TIP3    H231258   3.288   3.267   5.239 -0.6851  0.9473 -3.0031
10439TIP3   OH231259   5.270   1.291   5.877 -0.2493  0.1181 -0.1596
10439TIP3    H131260   5.218   1.219   5.913 -0.2290  0.7049  1.0486
10439TIP3    H231261   5.334   1.248   5.821 -0.8650 -0.7400 -0.2150
10440TIP3   OH231262   4.745   7.187   3.332  0.2078  0.3208  0.3556
10440TIP3    H131263   4.838   7.164   3.330  0.6522  2.1302 -0.7657
10440TIP3    H231264   4.728   7.226   3.247 -1.9809 -1.4034 -0.0296
10441TIP3   OH231265   5.145   1.975   5.980  0.2785  0.0479 -0.5608
10441TIP3    H131266   5.058   1.981   5.941  0.3762  3.1042 -0.4269
10441TIP3    H231267   5.202   2.021   5.919  0.9047  2.4962  1.8039
10442TIP3   OH231268   6.951   6.578   0.620  0.3058  0.5878 -0.0997
10442TIP3    H131269   7.005   6.655   0.642 -1.4933  1.2312  2.3108
10442TIP3    H231270   6.983   6.510   0.679 -0.7557  0.6504  0.5508
10443TIP3   OH231271   5.312   2.659   5.004 -0.6466 -0.6178 -0.1855
10443TIP3    H131272   5.398   2.651   5.045 -0.4259 -3.2863 -1.0465
10443TIP3    H231273   5.306   2.750   4.976  0.9934  0.1359  1.8157
10444TIP3   OH231274   4.874   1.042   6.108  0.1860  0.1338  0.2325
10444TIP3    H131275   4.794   1.066   6.060  1.4818  1.0824 -1.5176
10444TIP3    H231276   4.876   1.101   6.183  0.5674  1.8972 -1.1322
10445TIP3   OH231277   2.113   7.002   0.631  0.0705 -0.7187  0.5769
10445TIP3    H131278   2.139   6.938   0.698  0.1620  0.2044  1.4343
10445TIP3    H231279   2.185   6.999   0.567  0.4079 -0.9796  0.9614
10446TIP3   OH231280   1.479   7.999   3.578  0.3520  0.4226  0.9461
10446TIP3    H131281   1.394   7.963   3.602  0.9969 -0.7311  1.5558
10446TIP3    H231282   1.491   8.073   3.638  0.0702  0.1792  1.3078
10447TIP3   OH231283   3.514   2.558   6.891 -0.0638  0.3785 -0.5714
10447TIP3    H131284   3.490   2.549   6.799  1.1609 -1.8363 -0.7084
10447TIP3    H231285   3.436   2.532   6.939  0.3331 -1.7828 -1.0178
10448TIP3   OH231286   7.679   1.800   4.649 -0.0102 -0.1900  0.2296
10448TIP3    H131287   7.692   1.878   4.703  0.0668 -0.3781  0.4874
10448TIP3    H231288   7.587   1.776   4.663  0.8548 -2.2024  2.9625
10449TIP3   OH231289   4.640   3.467   5.668 -0.3797 -0.2283  0.0044
10449TIP3    H131290   4.561   3.512   5.697  0.7591  0.7260  1.7308
10449TIP3    H231291   4.660   3.405   5.739  1.6331  1.1196  0.6795
10450TIP3   OH231292   4.136   3.582   4.346  0.4357 -0.2000 -0.3534
10450TIP3    H131293   4.153   3.662   4.296  0.8028  0.2274  0.4407
10450TIP3    H231294   4.201   3.584   4.417 -0.7754 -0.2534  0.7677
10451TIP3   OH231295   4.409   3.222   4.535 -0.3347  0.0167  0.4739
10451TIP3    H131296   4.327   3.173   4.534 -0.2013 -0.2631  2.2811
10451TIP3    H231297   4.473   3.161   4.498 -0.5393 -0.5023  0.9690
10452TIP3   OH231298   5.928   2.461   6.233 -0.1623 -0.3568 -0.5253
10452TIP3    H131299   5.960   2.536   6.284  2.8805 -0.3739 -2.2580
10452TIP3    H231300   5.839   2.485   6.208 -0.3393  1.3042  1.5328
10453TIP3   OH231301   4.812   0.922   4.893  0.0857  0.0077 -0.0485
10453TIP3    H131302   4.819   0.992   4.829  0.7234 -0.9978 -1.0801
10453TIP3    H231303   4.895   0.924   4.941 -0.1582  0.3758  0.3679
10454TIP3   OH231304   7.402   4.901   1.044  0.0560 -0.1095  0.0570
10454TIP3    H131305   7.430   4.920   1.134  0.7296 -0.1719 -0.1407
10454TIP3    H231306   7.316   4.942   1.037  0.4512  0.7776  0.3990
10455TIP3   OH231307   0.912   5.888   0.944  0.2996 -0.6414 -0.1974
10455TIP3    H131308   0.879   5.970   0.981  0.8497  0.1924 -1.5018
10455TIP3    H231309   0.841   5.825   0.957 -0.8166  0.4843 -0.7225
10456TIP3   OH231310   6.493   3.772   6.652 -0.3005 -0.4177  0.6429
10456TIP3    H131311   6.443   3.695   6.679  1.0531 -1.4897  0.1557
10456TIP3    H231312   6.582   3.755   6.684  0.4954 -0.0456 -1.3041
10457TIP3   OH231313   7.032   6.799   1.377  0.1062  0.0335  0.3472
10457TIP3    H131314   7.057   6.778   1.287 -0.9890  1.1375 -0.2266
10457TIP3    H231315   7.034   6.894   1.381 -0.9764  0.0373  1.1580
10458TIP3   OH231316   3.219   0.560   0.209  0.5705  0.1057 -0.7342
10458TIP3    H131317   3.204   0.637   0.264 -1.3826  0.1934 -1.3534
10458TIP3    H231318   3.312   0.564   0.187  0.9985  1.0226  1.1088
10459TIP3   OH231319   3.539   0.138   1.337 -0.2914  0.0801  0.0823
10459TIP3    H131320   3.445   0.137   1.319 -0.3391  2.6864  0.1234
10459TIP3    H231321   3.549   0.082   1.415 -2.1090  1.6113  1.4436
10460TIP3   OH231322   3.993   2.746   6.778 -0.4332  0.5319 -0.1974
10460TIP3    H131323   3.925   2.696   6.733  0.3607 -0.5774 -0.1825
10460TIP3    H231324   3.945   2.817   6.821 -1.5475 -0.0510 -0.4390
10461TIP3   OH231325   2.720   3.320   6.628  0.1811 -0.1541 -0.6364
10461TIP3    H131326   2.792   3.333   6.690 -0.5696  0.6358  0.0724
10461TIP3    H231327   2.667   3.251   6.667  0.2132 -0.3023 -0.8561
10462TIP3   OH231328   4.791   1.420   5.297 -0.5236 -0.1710 -0.1159
10462TIP3    H131329   4.714   1.373   5.265 -0.6905  0.1088 -0.1263
10462TIP3    H231330   4.865   1.371   5.261 -0.7048 -0.0198 -0.7078
10463TIP3   OH231331   5.393   1.796   6.761  0.7269 -0.5483  0.0165
10463TIP3    H131332   5.346   1.790   6.679  0.6811 -0.1221  0.0111
10463TIP3    H231333   5.330   1.834   6.823 -0.0229 -3.0893  0.8651
10464TIP3   OH231334   3.928   3.207   6.787 -0.4565 -0.4075  0.3396
10464TIP3    H131335   4.023   3.212   6.774 -0.6586 -0.1570 -1.0763
10464TIP3    H231336   3.918   3.153   6.865  0.8451 -0.7999  0.2492
10465TIP3   OH231337   4.363   0.895   6.451 -0.1516  0.4464  0.5300
10465TIP3    H131338   4.332   0.859   6.533  0.7633 -0.5405  0.4639
10465TIP3    H231339   4.288   0.890   6.392 -0.0297 -1.5123  0.4859
10466TIP3   OH231340   7.154   5.791   0.855 -0.6927  0.2727  0.1391
10466TIP3    H131341   7.169   5.885   0.869 -0.3940  0.4142 -1.1147
10466TIP3    H231342   7.100   5.787   0.776  2.1145 -0.7709 -1.7933
10467TIP3   OH231343   6.383   1.433   6.580  0.0399 -0.1922  0.5181
10467TIP3    H131344   6.392   1.370   6.651  0.0374  1.9972  2.5069
10467TIP3    H231345   6.471   1.469   6.568 -0.0041 -0.3812 -0.4283
10468TIP3   OH231346   1.094   5.157   1.356  0.0466 -0.2527  0.1262
10468TIP3    H131347   1.128   5.128   1.272  0.0501  0.0237  0.0334
10468TIP3    H231348   1.012   5.202   1.335 -0.2155 -0.6359  0.3176
10469TIP3   OH231349   0.284   5.619   1.172 -0.5796 -0.0655  0.2634
10469TIP3    H131350   0.335   5.539   1.186 -0.6060 -0.4171 -1.5979
10469TIP3    H231351   0.345   5.690   1.195  0.7019 -0.4900 -1.7093
10470TIP3   OH231352   5.795   1.065   6.265  0.3475  0.5497  0.5389
10470TIP3    H131353   5.773   0.985   6.218 -0.3871 -0.2061  2.1009
10470TIP3    H231354   5.871   1.101   6.220  0.2889 -0.6978 -0.5620
10471TIP3   OH231355   1.646   6.772   2.059  0.3777 -0.5003  0.3462
10471TIP3    H131356   1.636   6.866   2.040 -2.3885 -0.5653  1.2084
10471TIP3    H231357   1.738   6.762   2.082  1.0011  1.7850 -0.9431
10472TIP3   OH231358   0.549   5.223   0.393  0.7653 -0.0295 -0.1988
10472TIP3    H131359   0.641   5.247   0.379  0.5835  2.1698  2.0483
10472TIP3    H231360   0.499   5.285   0.339  0.5800 -1.4329 -1.6764
10473TIP3   OH231361   4.993   4.257   6.858 -0.2562  0.1114  0.6030
10473TIP3    H131362   4.919   4.292   6.808  2.1492  1.7177 -1.9732
10473TIP3    H231363   5.015   4.327   6.920 -0.8601 -0.3663  1.3691
10474TIP3   OH231364   6.542   7.902   0.876 -0.1740 -0.1720 -0.4246
10474TIP3    H131365   6.526   7.808   0.877 -1.5549  0.0487  0.5613
10474TIP3    H231366   6.605   7.916   0.805  2.2835 -2.1649  1.3347
10475TIP3   OH231367   8.211   6.313   0.295 -0.1281 -0.3843  0.4948
10475TIP3    H131368   8.287   6.261   0.268 -1.1449 -1.8608  0.4412
10475TIP3    H231369   8.146   6.249   0.322 -2.1706  0.7572 -1.5207
10476TIP3   OH231370   1.372   6.086   2.497 -0.0716  0.4478  0.5829
10476TIP3    H131371   1.434   6.051   2.433 -1.0221 -1.7130  0.7960
10476TIP3    H231372   1.351   6.011   2.553 -1.9036  1.4608  1.2814
10477TIP3   OH231373   6.541   0.101   6.788 -0.3984  0.5019  0.4472
10477TIP3    H131374   6.496   0.017   6.794  0.3172  0.1261  0.6013
10477TIP3    H231375   6.524   0.131   6.699 -0.8239  0.2936  0.4543
10478TIP3   OH231376   4.649   0.100   0.929 -0.7566 -0.3086  0.3362
10478TIP3    H131377   4.618   0.012   0.907 -1.0312 -0.5472  1.6306
10478TIP3    H231378   4.745   0.093   0.924 -0.7577 -0.8211  0.9247
10479TIP3   OH231379   6.644   1.850   6.088  0.1643 -0.2046  0.2268
10479TIP3    H131380   6.700   1.848   6.011  0.9561  1.2692  0.7468
10479TIP3    H231381   6.580   1.919   6.070 -0.0907 -0.3423  0.5906
10480TIP3   OH231382   1.727   6.122   1.752  0.1247  0.0568  0.0011
10480TIP3    H131383   1.820   6.120   1.771  0.2903  0.6638 -0.7436
10480TIP3    H231384   1.699   6.211   1.774 -0.0779  0.1670 -0.6745
10481TIP3   OH231385   4.618   1.990   5.628 -0.2291 -0.5907 -0.4941
10481TIP3    H131386   4.659   2.073   5.653 -0.1895 -0.8048  0.1469
10481TIP3    H231387   4.524   2.007   5.637 -0.1941 -0.8529  0.3778
10482TIP3   OH231388   3.901   3.501   5.162 -0.9192  0.0614  0.3100
10482TIP3    H131389   3.806   3.504   5.151 -0.9810 -1.9976  0.1435
10482TIP3    H231390   3.914   3.484   5.255 -0.7972 -2.4621 -0.1344
10483TIP3   OH231391   5.825   3.982   5.029  0.0452  0.2180  0.6020
10483TIP3    H131392   5.801   4.019   5.114 -2.6563  0.5758 -0.2458
10483TIP3    H231393   5.822   4.057   4.969  2.9182  0.1575  0.3409
10484TIP3   OH231394   6.495   6.725   1.958 -0.8653 -0.1910  0.5014
10484TIP3    H131395   6.528   6.645   1.918 -1.4935  0.8262 -2.2057
10484TIP3    H231396   6.406   6.704   1.985 -1.2997 -0.2141 -0.9072
10485TIP3   OH231397   0.231   7.215   0.179 -0.2855  0.3037  0.2626
10485TIP3    H131398   0.137   7.200   0.190 -0.4818  2.0237  1.1656
10485TIP3    H231399   0.263   7.234   0.267  1.0569 -0.9617  0.0673
10486TIP3   OH231400   3.107   0.225   2.131 -0.6999 -0.4349 -0.5202
10486TIP3    H131401   3.053   0.234   2.053 -2.4955 -3.0481  0.3494
10486TIP3    H231402   3.143   0.136   2.125 -0.5889 -0.5406  1.4394
10487TIP3   OH231403   5.953   3.493   4.955  0.0027  0.1743  0.0952
10487TIP3    H131404   6.005   3.417   4.933  0.5209 -0.1242  2.2573
10487TIP3    H231405   5.952   3.546   4.875 -0.5708 -2.1879 -1.5004
10488TIP3   OH231406   6.333   4.577   6.027  0.0228 -0.5358  0.2606
10488TIP3    H131407   6.333   4.671   6.042 -2.2847 -0.1196 -1.8873
10488TIP3    H231408   6.287   4.540   6.102  0.3953  0.1075  0.8082
10489TIP3   OH231409   5.252   3.857   5.732 -0.0146  0.0043  0.3741
10489TIP3    H131410   5.229   3.765   5.746 -0.7443  0.0406 -0.5277
10489TIP3    H231411   5.339   3.866   5.771  0.5864 -1.3707 -0.6137
10490TIP3   OH231412   6.986   6.800   1.015  0.3027  0.2211  0.2113
10490TIP3    H131413   6.956   6.746   1.088  3.1338 -2.0499 -0.2219
10490TIP3    H231414   6.917   6.794   0.949 -0.2832 -1.2735  0.9624
10491TIP3   OH231415   6.455   3.648   6.286 -0.0078 -0.5561 -0.8682
10491TIP3    H131416   6.400   3.572   6.304  0.2800 -0.7022 -0.6080
10491TIP3    H231417   6.509   3.658   6.364 -1.2186  0.9419 -0.1820
10492TIP3   OH231418   3.873   4.227   6.591  0.1653  0.1637  0.2010
10492TIP3    H131419   3.825   4.178   6.524  1.6692 -0.7563 -0.2367
10492TIP3    H231420   3.960   4.187   6.592  0.1704  0.1644  2.7236
10493TIP3   OH231421   1.389   4.963   2.028 -0.4032 -0.0789 -0.4918
10493TIP3    H131422   1.419   5.048   1.995 -1.8859  1.1794  1.2584
10493TIP3    H231423   1.321   4.936   1.967 -1.5698  1.1505  0.2449
10494TIP3   OH231424   2.523   1.489   0.765  0.4434  0.4028  0.4513
10494TIP3    H131425   2.442   1.532   0.738  0.7562  0.6254 -0.1503
10494TIP3    H231426   2.522   1.405   0.719 -0.1690 -0.2504  1.6291
10495TIP3   OH231427   6.161   4.126   6.233 -0.1906 -0.4224 -0.0624
10495TIP3    H131428   6.224   4.053   6.238  0.4300  0.1153  0.1226
10495TIP3    H231429   6.093   4.102   6.295 -0.2415 -1.0824 -0.3638
10496TIP3   OH231430   1.221   7.215   0.328 -0.7459  0.2024 -0.3122
10496TIP3    H131431   1.272   7.280   0.376  0.0252 -0.5437 -0.1057
10496TIP3    H231432   1.283   7.145   0.310 -1.0812  0.3735 -2.2252
10497TIP3   OH231433   5.203   3.310   5.134 -0.5457 -0.5273 -0.1269
10497TIP3    H131434   5.214   3.401   5.161 -0.0743 -0.9137  0.9822
10497TIP3    H231435   5.111   3.304   5.108 -0.5974  0.2408 -0.1340
10498TIP3   OH231436   0.986   7.575   1.476  0.3947 -0.2372  0.4513
10498TIP3    H131437   0.955   7.561   1.565 -0.5327 -0.8124  0.0426
10498TIP3    H231438   0.918   7.627   1.434  0.4719 -0.6099 -0.1447
10499TIP3   OH231439   0.862   6.373   0.394  0.2458  0.3656 -0.1412
10499TIP3    H131440   0.794   6.400   0.457 -0.7085 -0.9924 -0.5674
10499TIP3    H231441   0.876   6.450   0.340 -1.0735  0.6305 -0.1322
10500TIP3   OH231442   6.724   6.533   1.786 -0.5709 -0.0408  0.0833
10500TIP3    H131443   6.812   6.499   1.803 -0.8082  0.0453  1.5141
10500TIP3    H231444   6.737   6.627   1.772 -0.6240  0.2503  1.9018
10501TIP3   OH231445   5.026   2.458   3.822 -0.1536  0.1030  0.3868
10501TIP3    H131446   5.023   2.439   3.728  1.2948 -0.8085  0.5106
10501TIP3    H231447   5.047   2.552   3.826 -0.2263  0.1484 -0.1941
10502TIP3   OH231448   6.489   7.305   0.269  0.1282 -0.0743 -0.4432
10502TIP3    H131449   6.461   7.271   0.354 -1.5894 -1.2134 -1.4114
10502TIP3    H231450   6.563   7.362   0.288  1.1131 -1.9664  1.5957
10503TIP3   OH231451   4.619   3.441   3.871  0.3195  0.2342  0.3096
10503TIP3    H131452   4.608   3.401   3.957  0.1282 -0.0264  0.1686
10503TIP3    H231453   4.540   3.494   3.859  1.1435  1.6255  1.0050
10504TIP3   OH231454   5.688   3.244   5.079  0.0108 -0.1901  0.0626
10504TIP3    H131455   5.611   3.291   5.048  1.1808  0.6795 -1.6191
10504TIP3    H231456   5.684   3.160   5.033  0.0216 -0.1651  0.0146
10505TIP3   OH231457   7.478   2.919   5.932  0.4222 -0.2146  0.7111
10505TIP3    H131458   7.501   2.829   5.906 -3.2389 -1.3523  1.1152
10505TIP3    H231459   7.457   2.912   6.025 -1.6648  0.6491  0.3297
10506TIP3   OH231460   6.484   3.449   6.031 -0.5849 -0.0146  0.2643
10506TIP3    H131461   6.444   3.369   5.996 -0.6767 -0.3183  1.0558
10506TIP3    H231462   6.557   3.417   6.084 -0.7499  0.4240  0.7495
10507TIP3   OH231463   6.006   1.445   5.816  0.4132  0.4426  0.1143
10507TIP3    H131464   6.011   1.514   5.750 -2.5215  1.9441  1.3911
10507TIP3    H231465   6.054   1.480   5.891 -0.0247  0.5498  0.3397
10508TIP3   OH231466   5.486   2.563   6.720 -0.0622  1.1407  0.2255
10508TIP3    H131467   5.516   2.507   6.792 -0.8392 -0.9181 -1.0109
10508TIP3    H231468   5.537   2.534   6.644  0.6120  3.1573 -0.1187
10509TIP3   OH231469   6.235   0.339   6.368 -0.7728  0.2818 -0.4026
10509TIP3    H131470   6.217   0.403   6.299  0.2804  1.0762  0.0518
10509TIP3    H231471   6.272   0.264   6.322  1.0572  1.2845 -0.5752
10510TIP3   OH231472   5.880   3.882   6.087  0.1972  0.2448  0.5244
10510TIP3    H131473   5.895   3.790   6.106 -1.3087  0.2913  2.0763
10510TIP3    H231474   5.951   3.906   6.027  2.1383 -1.2553  2.1206
10511TIP3   OH231475   4.853   1.694   5.295  0.1958 -0.1671 -0.7110
10511TIP3    H131476   4.947   1.702   5.277  0.6836 -1.3410  1.2260
10511TIP3    H231477   4.832   1.604   5.272  0.1279 -0.7011  1.4039
10512TIP3   OH231478   1.863   1.857   0.021  0.1007  0.5070 -0.1193
10512TIP3    H131479   1.792   1.820   0.074  0.6442  1.3195  1.1839
10512TIP3    H231480   1.939   1.803   0.043 -0.0935 -0.3666 -1.5217
10513TIP3   OH231481   5.142   1.084   5.992  0.4301 -0.2699 -0.0064
10513TIP3    H131482   5.061   1.078   6.043 -0.0878  0.7903 -0.6744
10513TIP3    H231483   5.211   1.093   6.057  0.0643 -1.6308  0.5871
10514TIP3   OH231484   6.441   2.451   6.863 -0.5659 -0.0659 -0.1221
10514TIP3    H131485   6.487   2.487   6.786 -1.0574 -1.1577 -0.9382
10514TIP3    H231486   6.507   2.400   6.909 -0.0806  1.1860  0.5828
10515TIP3   OH231487   6.505   2.957   5.317  0.1922  0.1398 -0.6676
10515TIP3    H131488   6.544   3.040   5.345  0.4577 -0.3995  0.5977
10515TIP3    H231489   6.573   2.891   5.335  1.0352 -0.0466 -4.1611
10516TIP3   OH231490   7.845   7.140   0.422 -0.1269  0.0204 -0.8181
10516TIP3    H131491   7.794   7.059   0.423 -0.8833  0.4998  1.1150
10516TIP3    H231492   7.841   7.169   0.331 -1.9465 -0.7939 -1.0205
10517TIP3   OH231493   5.036   2.910   5.857  0.4923  0.4186  0.3741
10517TIP3    H131494   5.051   2.872   5.771 -1.8404 -0.1046  0.1774
10517TIP3    H231495   5.010   2.836   5.912 -1.5750  1.2965  0.6230
10518TIP3   OH231496   6.770   7.628   0.039  0.2007 -0.9939  0.1985
10518TIP3    H131497   6.830   7.693   0.075 -0.8326 -0.1914  0.5084
10518TIP3    H231498   6.811   7.600  -0.043  0.4298  0.4016 -0.1806
10519TIP3   OH231499   0.598   4.776   0.678  0.7279  0.0930  0.2582
10519TIP3    H131500   0.523   4.768   0.620  1.5196  1.0319 -0.9427
10519TIP3    H231501   0.568   4.833   0.749 -0.2979 -1.1968  0.8672
10520TIP3   OH231502   4.477   1.378   6.008 -0.9961 -0.4856  0.1091
10520TIP3    H131503   4.486   1.292   5.967  1.4193 -0.5419  0.7189
10520TIP3    H231504   4.548   1.382   6.072 -1.8617  1.4624  0.9910
10521TIP3   OH231505   4.635   5.399   6.389 -0.2815  0.4363 -0.0449
10521TIP3    H131506   4.718   5.385   6.435  0.3570 -0.6223 -1.4746
10521TIP3    H231507   4.582   5.450   6.450  1.6453  1.6824  0.6517
10522TIP3   OH231508   5.425   7.797   4.511  0.0495  0.6740  1.0140
10522TIP3    H131509   5.491   7.839   4.567  0.8012  1.5081 -0.4762
10522TIP3    H231510   5.352   7.859   4.509 -0.1559  0.4465  1.4214
10523TIP3   OH231511   5.160   4.964   6.459 -0.2176 -0.1166 -0.6446
10523TIP3    H131512   5.187   4.882   6.418  2.4078  0.7519 -0.7283
10523TIP3    H231513   5.156   5.027   6.387  0.7301  0.5352 -0.1303
10524TIP3   OH231514   2.222   6.726   0.603 -0.2947  0.2842 -0.0489
10524TIP3    H131515   2.305   6.725   0.555 -0.6978 -0.8687 -0.7440
10524TIP3    H231516   2.155   6.713   0.536 -0.8611 -1.5532  0.8356
10525TIP3   OH231517   5.148   5.106   6.169  0.1560  0.6203 -0.1788
10525TIP3    H131518   5.140   5.137   6.079  2.0294 -0.6203 -0.7977
10525TIP3    H231519   5.231   5.142   6.200  0.7501 -1.0119  0.1926
10526TIP3   OH231520   4.864   3.149   6.364  0.3927  0.3899 -0.0380
10526TIP3    H131521   4.855   3.150   6.459 -1.7739  0.2161 -0.2267
10526TIP3    H231522   4.794   3.205   6.332 -0.3400 -1.3829 -1.6253
10527TIP3   OH231523   5.846   1.631   6.738 -0.3071  0.8957  0.3692
10527TIP3    H131524   5.844   1.697   6.668 -0.2244  0.2861 -0.2203
10527TIP3    H231525   5.926   1.582   6.721 -0.7214  0.2061  0.3955
10528TIP3   OH231526   1.356   6.478   2.095  0.2443 -0.4844  0.3253
10528TIP3    H131527   1.302   6.399   2.097  0.8859 -0.9618 -0.9867
10528TIP3    H231528   1.294   6.548   2.075 -0.1606 -0.7932  0.4765
10529TIP3   OH231529   3.931   0.099   1.118 -0.4884  0.2962 -0.2872
10529TIP3    H131530   4.018   0.118   1.083 -1.4306 -1.5905 -3.9098
10529TIP3    H231531   3.883   0.181   1.109 -0.2121  0.2939 -2.0178
10530TIP3   OH231532   3.434   1.647   0.711 -0.0211  0.3147  0.3469
10530TIP3    H131533   3.442   1.593   0.632  0.1311  0.7816  0.0318
10530TIP3    H231534   3.428   1.585   0.783 -1.4595 -0.1389 -0.1519
10531TIP3   OH231535   6.601   6.281   0.532  0.5110  0.4960 -0.5321
10531TIP3    H131536   6.607   6.328   0.615 -1.3266  2.1318 -1.2920
10531TIP3    H231537   6.614   6.349   0.466  2.1944 -0.8324 -1.6050
10532TIP3   OH231538   5.188   1.819   6.250 -0.3359  0.2218 -0.1128
10532TIP3    H131539   5.178   1.761   6.174 -1.6792  1.0887 -0.6158
10532TIP3    H231540   5.201   1.906   6.212 -2.3978  0.8843  0.6364
10533TIP3   OH231541   1.571   7.714   0.397 -0.0380  0.5707  0.5742
10533TIP3    H131542   1.626   7.635   0.395 -0.3732  0.3371  0.4453
10533TIP3    H231543   1.617   7.775   0.454  0.7908  0.6917 -0.2177
10534TIP3   OH231544   4.951   1.507   6.245 -0.2776 -0.4887  0.1331
10534TIP3    H131545   5.019   1.440   6.244 -0.1314 -0.3706  1.2032
10534TIP3    H231546   4.989   1.581   6.197  0.3454 -0.4296  0.7149
10535TIP3   OH231547   0.346   0.501   0.317  0.4456  0.3881  0.1472
10535TIP3    H131548   0.398   0.515   0.238  0.0587 -2.9890 -0.8005
10535TIP3    H231549   0.263   0.546   0.299 -0.1345 -1.4284 -1.9924
10536TIP3   OH231550   1.253   6.292   0.384 -0.4221 -0.9445  0.2314
10536TIP3    H131551   1.301   6.247   0.314 -0.6012 -1.4805  0.4513
10536TIP3    H231552   1.301   6.270   0.464 -1.0117 -1.4633  0.4478
10537TIP3   OH231553   5.075   2.255   6.092 -0.3476  0.4385  0.4846
10537TIP3    H131554   5.092   2.261   6.186  1.7249  0.9582  0.1018
10537TIP3    H231555   5.104   2.167   6.069  2.9160  1.6734 -0.3554
10538TIP3   OH231556   7.486   7.135   2.140 -0.1139  0.5148  0.3383
10538TIP3    H131557   7.435   7.159   2.217  0.8174 -1.4359  1.6174
10538TIP3    H231558   7.421   7.109   2.076 -0.8491  0.6331  1.0285
10539TIP3   OH231559   5.267   3.481   6.447  0.6636  0.3482  0.1952
10539TIP3    H131560   5.228   3.550   6.394 -0.0550  0.0760  0.3615
10539TIP3    H231561   5.360   3.500   6.446  0.3456  2.1257  1.3737
10540TIP3   OH231562   6.138   0.740   1.792  0.3838  0.1090  0.1894
10540TIP3    H131563   6.161   0.710   1.880  3.1072  0.8183 -0.2235
10540TIP3    H231564   6.173   0.673   1.734  0.1774  0.5203 -0.4118
10541TIP3   OH231565   2.531   0.662   1.233  0.1413  0.5561  0.3627
10541TIP3    H131566   2.564   0.620   1.153 -1.4019 -0.8701  0.4594
10541TIP3    H231567   2.481   0.737   1.202  0.6344  0.7726  0.0719
10542TIP3   OH231568   6.555   7.362   1.585 -0.1610 -0.1803  0.0212
10542TIP3    H131569   6.460   7.347   1.588 -0.5019  1.9919  2.3876
10542TIP3    H231570   6.592   7.288   1.634 -0.6285 -1.0196 -0.8794
10543TIP3   OH231571   6.920   2.889   6.657 -0.1376  0.0520 -0.3411
10543TIP3    H131572   6.886   2.970   6.695  0.3652  0.4076 -0.6482
10543TIP3    H231573   6.962   2.917   6.576  1.0617 -0.3644  0.1272
10544TIP3   OH231574   4.404   3.323   6.532 -0.4665 -0.6072 -0.2600
10544TIP3    H131575   4.418   3.309   6.438 -0.6896  1.9645 -0.7103
10544TIP3    H231576   4.491   3.339   6.567 -0.3812 -1.5830 -0.0210
10545TIP3   OH231577   1.184   5.705   1.481 -0.0846  0.1346 -0.1679
10545TIP3    H131578   1.278   5.712   1.498  0.0042 -0.3285 -0.4675
10545TIP3    H231579   1.160   5.791   1.446  0.5124 -0.2163 -1.4719
10546TIP3   OH231580   0.107   7.427   2.993 -0.2334  0.0211 -0.9064
10546TIP3    H131581   0.102   7.332   2.984 -2.2128  0.0238 -0.1626
10546TIP3    H231582   0.112   7.441   3.088 -0.3423  0.6774 -0.9976
10547TIP3   OH231583   0.896   3.938   1.266 -0.0039 -0.3960  0.3762
10547TIP3    H131584   0.833   4.009   1.276 -1.0546 -1.4806  1.7777
10547TIP3    H231585   0.870   3.874   1.333  1.3679 -1.7568 -0.3645
10548TIP3   OH231586   7.840   7.286   1.320 -0.1379 -0.3466  0.1526
10548TIP3    H131587   7.788   7.358   1.283  1.7077  1.9007  1.7691
10548TIP3    H231588   7.921   7.287   1.269 -0.1088 -1.3566  0.1654
10549TIP3   OH231589   6.001   2.948   6.499  0.0227  0.4972 -0.2563
10549TIP3    H131590   6.041   3.000   6.568  0.5682  0.7275 -0.7400
10549TIP3    H231591   5.943   3.009   6.453 -0.6702  0.2367  0.2609
10550TIP3   OH231592   2.524   1.890   0.735 -0.2153  0.7136  0.0250
10550TIP3    H131593   2.478   1.808   0.722 -0.8745  0.8429  1.5010
10550TIP3    H231594   2.539   1.896   0.829  1.0604  1.6198 -0.2157
10551TIP3   OH231595   6.450   7.747   1.580 -0.0989 -0.0775  0.1781
10551TIP3    H131596   6.371   7.700   1.553 -1.3404  1.8553  0.3463
10551TIP3    H231597   6.493   7.769   1.498  1.0875 -2.4173  0.1184
10552TIP3   OH231598   3.255   0.140   0.920 -0.1003  0.5362 -0.6349
10552TIP3    H131599   3.182   0.168   0.864  1.1863  0.0914 -2.6118
10552TIP3    H231600   3.256   0.045   0.912 -1.8986  0.1564  2.7806
10553TIP3   OH231601   5.928   6.513   0.339  0.3229 -0.0089  0.1330
10553TIP3    H131602   5.864   6.472   0.282  1.2064  0.9605 -1.5973
10553TIP3    H231603   5.926   6.606   0.315  0.2556  0.5237  2.1233
10554TIP3   OH231604   5.741   5.317   6.231 -0.1662 -0.2688 -0.3713
10554TIP3    H131605   5.702   5.274   6.155 -2.3528  0.0383  0.5397
10554TIP3    H231606   5.816   5.262   6.254 -0.6942 -1.4883 -1.5217
10555TIP3   OH231607   4.436   3.640   5.735  0.2666  0.3367 -0.3079
10555TIP3    H131608   4.380   3.569   5.767 -0.6636  0.4795 -1.5808
10555TIP3    H231609   4.381   3.686   5.672  1.4015  1.2602 -0.6207
10556TIP3   OH231610   0.918   7.974   1.863  0.2594 -0.2948 -0.4284
10556TIP3    H131611   0.962   8.006   1.942 -0.1039  0.4682 -0.5351
10556TIP3    H231612   0.958   8.023   1.791 -1.7183  1.4443 -0.3948
10557TIP3   OH231613   0.309   6.881   0.865  0.6660 -0.4371  0.8100
10557TIP3    H131614   0.257   6.952   0.903 -0.8972 -1.2000  0.1701
10557TIP3    H231615   0.283   6.804   0.916  1.3423 -0.7893  0.6209
10558TIP3   OH231616   5.535   2.831   6.685 -0.6801 -0.0440  0.2794
10558TIP3    H131617   5.614   2.832   6.632 -0.7648  0.7108  0.1577
10558TIP3    H231618   5.502   2.741   6.679 -0.3378 -0.1227 -0.4149
10559TIP3   OH231619   4.731   0.598   0.637  0.0356  0.2256  0.0366
10559TIP3    H131620   4.652   0.653   0.638 -0.6218 -0.6568 -1.6125
10559TIP3    H231621   4.767   0.610   0.549  0.2826 -1.4253 -0.0933
10560TIP3   OH231622   5.971   5.027   5.591  0.5684  0.0274 -0.0485
10560TIP3    H131623   5.937   4.961   5.651  1.1349 -0.7190 -0.5434
10560TIP3    H231624   6.065   5.014   5.591  0.5901  0.1702 -0.9258
10561TIP3   OH231625   4.693   5.212   5.338  0.4246  0.0149  0.4666
10561TIP3    H131626   4.639   5.287   5.310  0.4658 -0.1729 -0.1125
10561TIP3    H231627   4.739   5.244   5.416 -2.3339 -0.5725  2.4471
10562TIP3   OH231628   6.257   3.259   3.831 -0.2049  0.0936 -0.4160
10562TIP3    H131629   6.312   3.334   3.855 -0.5340  0.5162 -0.9597
10562TIP3    H231630   6.302   3.183   3.868 -0.4736  0.6697  1.1727
10563TIP3   OH231631   0.571   7.867   1.184  0.2562  0.6670 -0.1280
10563TIP3    H131632   0.519   7.867   1.104 -0.7830  0.3725  0.5256
10563TIP3    H231633   0.662   7.862   1.155 -0.2113 -1.9664 -1.2224
10564TIP3   OH231634   0.519   0.131   0.273 -0.0855  0.4617  0.2372
10564TIP3    H131635   0.601   0.120   0.320  0.5176  2.8027 -0.1985
10564TIP3    H231636   0.452   0.136   0.341  0.2830 -0.2037  0.6460
10565TIP3   OH231637   2.356  -0.016   0.661  0.0049  0.3820  0.4435
10565TIP3    H131638   2.301   0.033   0.600  0.2784  0.6303  0.3981
10565TIP3    H231639   2.365   0.042   0.737 -0.1455  0.1679  0.6265
10566TIP3   OH231640   7.415   3.942   5.607 -0.1421 -0.4222 -0.3419
10566TIP3    H131641   7.481   3.910   5.545 -0.6291 -2.7730  0.2805
10566TIP3    H231642   7.463   3.953   5.689 -0.0365  0.1992 -0.4831
10567TIP3   OH231643   5.722   2.123   6.940  0.6613 -0.2932 -0.1437
10567TIP3    H131644   5.814   2.110   6.965  0.6624 -1.1636 -0.5882
10567TIP3    H231645   5.712   2.072   6.861 -0.0531  0.3147 -0.4487
10568TIP3   OH231646   5.947   1.919   6.305 -0.5049 -0.2739 -0.4744
10568TIP3    H131647   5.897   2.001   6.302 -0.6619 -0.3445  0.1446
10568TIP3    H231648   5.956   1.893   6.213  0.6070  1.0704 -0.7621
10569TIP3   OH231649   5.803   4.923   6.481 -0.4543 -0.6110 -0.7136
10569TIP3    H131650   5.709   4.924   6.464 -0.7873 -0.3064  1.0299
10569TIP3    H231651   5.824   4.831   6.498 -0.7394 -0.4878  0.3742
10570TIP3   OH231652   6.691   6.156   2.546  0.1363  0.0703 -0.3435
10570TIP3    H131653   6.666   6.248   2.549  0.9723  0.2999 -0.3162
10570TIP3    H231654   6.674   6.130   2.455 -0.1279  0.2436 -0.3441
10571TIP3   OH231655   6.086   6.614   3.018 -0.2016 -0.2497 -0.0146
10571TIP3    H131656   6.122   6.586   2.934 -1.1447 -1.4258 -0.0389
10571TIP3    H231657   6.122   6.701   3.031 -0.3136  0.0900 -1.8027
10572TIP3   OH231658   1.338   3.801   0.522  0.5437 -0.2691 -0.3421
10572TIP3    H131659   1.331   3.779   0.615  2.4771  1.6771  0.3041
10572TIP3    H231660   1.265   3.754   0.481 -0.0575 -1.5403  2.0673
10573TIP3   OH231661   0.463   6.635   0.385 -0.1298 -0.4706 -0.0572
10573TIP3    H131662   0.377   6.676   0.372  0.1578  0.0815 -0.2432
10573TIP3    H231663   0.519   6.676   0.319  0.0781 -1.4341 -0.4735
10574TIP3   OH231664   0.476   7.549   1.420 -0.3294 -1.2024  0.1462
10574TIP3    H131665   0.399   7.597   1.451  1.5039  2.4053 -0.7450
10574TIP3    H231666   0.551   7.603   1.445  1.7403 -2.8982 -2.1126
10575TIP3   OH231667   6.590   7.497   1.346  0.2990  0.4318  0.5232
10575TIP3    H131668   6.581   7.473   1.438  1.5758  0.8147  0.7624
10575TIP3    H231669   6.608   7.415   1.300 -1.8412  0.0159  0.3814
10576TIP3   OH231670   8.312   2.055   6.044  0.0217  0.3161 -0.4281
10576TIP3    H131671   8.402   2.033   6.068 -0.0650 -0.5017 -0.8318
10576TIP3    H231672   8.273   1.971   6.020 -0.9650  0.6177  0.1250
10577TIP3   OH231673   6.992   0.790   6.317  0.6041  0.1528  0.3318
10577TIP3    H131674   6.959   0.704   6.293 -0.2399  0.4951  0.2151
10577TIP3    H231675   7.008   0.784   6.411 -0.8747  0.2995  0.6095
10578TIP3   OH231676   4.655   2.236   6.111  0.2596  0.3436  0.5741
10578TIP3    H131677   4.622   2.146   6.103  0.1037  0.4038  0.5207
10578TIP3    H231678   4.649   2.271   6.021  0.2731  0.4221  0.6036
10579TIP3   OH231679   2.963   0.117   0.276 -0.1851 -0.7369 -0.6092
10579TIP3    H131680   3.015   0.078   0.205  3.3835  2.2492  0.2152
10579TIP3    H231681   2.959   0.210   0.253 -1.6700 -0.2687  1.5183
10580TIP3   OH231682   8.441   7.527   0.707 -0.2527 -0.0322 -0.0194
10580TIP3    H131683   8.358   7.560   0.741  0.1367  0.8920  0.0541
10580TIP3    H231684   8.497   7.605   0.700  0.3643 -0.5283 -0.7634
10581TIP3   OH231685   3.112   3.804   6.354 -0.0188  1.1289 -0.0945
10581TIP3    H131686   3.111   3.773   6.263  0.5695  1.5809 -0.2541
10581TIP3    H231687   3.200   3.783   6.386  0.3807  2.6116 -0.1973
10582TIP3   OH231688   7.125   6.020   1.260  0.0033 -0.8136 -0.0479
10582TIP3    H131689   7.119   6.015   1.165  0.8791  1.4139 -0.2482
10582TIP3    H231690   7.214   5.991   1.280  0.1796 -0.2562 -0.0091
10583TIP3   OH231691   5.614   2.341   6.382 -0.4424  0.9080  0.1888
10583TIP3    H131692   5.666   2.403   6.433 -0.8124  1.5401 -0.2004
10583TIP3    H231693   5.559   2.396   6.326 -1.0658  0.2356  0.1340
10584TIP3   OH231694   4.351   4.150   5.054 -0.0216 -0.0849  0.1366
10584TIP3    H131695   4.293   4.084   5.092 -0.3005  0.7321  1.1551
10584TIP3    H231696   4.389   4.195   5.129 -1.1582  2.0746 -0.5222
10585TIP3   OH231697   2.189   6.752   0.164 -0.3561 -0.0670  0.1960
10585TIP3    H131698   2.255   6.744   0.233 -0.4817 -0.3419  0.2859
10585TIP3    H231699   2.227   6.812   0.101 -0.7135  1.1014  1.0622
10586TIP3   OH231700   5.401   7.963   0.815  0.6454 -0.4047 -0.1422
10586TIP3    H131701   5.380   7.988   0.905 -0.7590 -2.1613  0.0356
10586TIP3    H231702   5.469   7.895   0.825  2.3131  1.1629 -0.5196
10587TIP3   OH231703   6.503   7.657   0.092  0.5021 -0.0692  0.4943
10587TIP3    H131704   6.511   7.689   0.181  0.3585 -0.6548  0.7164
10587TIP3    H231705   6.593   7.639   0.064  0.5911  0.6209  0.3344
10588TIP3   OH231706   6.758   3.338   3.832 -0.1988  0.0090  0.1889
10588TIP3    H131707   6.784   3.279   3.903 -0.9298  0.8993  1.1982
10588TIP3    H231708   6.835   3.394   3.819 -0.0856 -0.1215  0.2865
10589TIP3   OH231709   7.235   3.068   5.466 -0.1847 -0.5867  0.0443
10589TIP3    H131710   7.187   3.144   5.499  0.6443  0.3082 -0.7877
10589TIP3    H231711   7.322   3.075   5.505  1.7452  2.0131 -4.3238
10590TIP3   OH231712   2.981   3.803   6.588 -0.0730 -0.3381 -0.2159
10590TIP3    H131713   3.053   3.827   6.646  0.0003 -0.0550 -0.4246
10590TIP3    H231714   3.025   3.778   6.506 -0.1779 -0.7058 -0.1614
10591TIP3   OH231715   5.611   1.949   6.727  0.0094  0.2925 -0.1229
10591TIP3    H131716   5.529   1.906   6.750  0.6514 -1.5931 -1.2491
10591TIP3    H231717   5.583   2.032   6.686 -1.3065 -0.0420  0.0561
10592TIP3   OH231718   5.021   2.255   6.630  0.1600 -0.5871 -0.4453
10592TIP3    H131719   4.973   2.172   6.627 -0.4905 -0.1852 -1.3179
10592TIP3    H231720   5.090   2.240   6.695 -0.6911 -1.4074  0.2947
10593TIP3   OH231721   3.456   3.493   5.793  0.3715  0.1291  0.3413
10593TIP3    H131722   3.364   3.519   5.801 -0.4085 -2.0125 -1.2163
10593TIP3    H231723   3.489   3.496   5.883 -2.0958 -2.0124  1.4015
10594TIP3   OH231724   8.112   5.576   0.517 -0.0600 -0.3925 -0.2511
10594TIP3    H131725   8.205   5.599   0.522 -0.1463  0.6258 -2.7691
10594TIP3    H231726   8.103   5.533   0.432 -2.0610  0.3680 -0.4412
10595TIP3   OH231727   7.443   4.316   1.044  0.0585  0.3667 -0.0728
10595TIP3    H131728   7.413   4.235   1.086 -1.3995  1.0100  0.1834
10595TIP3    H231729   7.376   4.334   0.977 -0.7993  2.5037  1.3140
10596TIP3   OH231730   7.215   2.529   5.743  0.2045 -0.3459 -0.0163
10596TIP3    H131731   7.125   2.518   5.711  0.6301  1.2929 -1.8727
10596TIP3    H231732   7.261   2.572   5.670  2.0909  0.2603  1.5018
10597TIP3   OH231733   1.783   6.050   1.463 -0.2119  0.1691  0.0957
10597TIP3    H131734   1.790   6.137   1.422 -1.1298  0.3044  0.2241
10597TIP3    H231735   1.754   6.069   1.552 -1.7708 -0.3666 -0.2997
10598TIP3   OH231736   4.841   2.349   5.911 -0.2239 -0.2988 -1.1372
10598TIP3    H131737   4.881   2.409   5.974 -0.7894 -0.0880 -0.9815
10598TIP3    H231738   4.904   2.276   5.905  0.5442  0.3851 -1.4661
10599TIP3   OH231739   5.726   3.496   5.558 -0.4018 -0.5332  0.5703
10599TIP3    H131740   5.774   3.532   5.633 -1.5829  1.8634  0.2492
10599TIP3    H231741   5.775   3.419   5.532  1.5614  0.1605  2.1115
10600TIP3   OH231742   0.486   6.605   1.020  0.3516 -0.5948 -0.2206
10600TIP3    H131743   0.477   6.679   1.080  1.2211  0.0785 -0.9122
10600TIP3    H231744   0.402   6.600   0.974  0.2151 -0.1825 -0.0158
10601TIP3   OH231745   1.612   0.758   6.898  0.1827 -0.1769 -0.1724
10601TIP3    H131746   1.649   0.686   6.949 -0.2235  0.3987  0.9498
10601TIP3    H231747   1.674   0.771   6.826 -0.3567 -2.4665 -1.1019
10602TIP3   OH231748   3.951   3.871   6.096 -0.0252  0.2801 -0.0239
10602TIP3    H131749   3.945   3.874   6.001  0.0002  1.2946  0.0037
10602TIP3    H231750   3.969   3.779   6.116  0.3380  0.1309 -1.0158
10603TIP3   OH231751   5.987   0.555   6.482  0.3868  0.3282 -0.0965
10603TIP3    H131752   5.978   0.649   6.498  1.9315  0.2703  1.1933
10603TIP3    H231753   6.053   0.549   6.412 -0.0698  0.2203 -0.5197
10604TIP3   OH231754   5.542   2.234   5.410  0.4098  0.5553 -0.0852
10604TIP3    H131755   5.549   2.307   5.471  2.9481 -1.1379  1.7569
10604TIP3    H231756   5.516   2.160   5.464  0.2260 -0.4305 -1.5010
10605TIP3   OH231757   5.061   4.517   5.380  0.6600 -0.1075 -0.5104
10605TIP3    H131758   4.983   4.530   5.326  0.6205  0.3200 -0.3517
10605TIP3    H231759   5.026   4.479   5.461  0.5170  0.8313 -0.1240
10606TIP3   OH231760   6.509   4.560   4.665 -0.2879  0.1269  0.4370
10606TIP3    H131761   6.571   4.490   4.686 -0.0433  0.5007  0.9739
10606TIP3    H231762   6.558   4.620   4.609 -0.8368 -0.6961 -0.9486
10607TIP3   OH231763   8.319   5.912   0.182 -0.2926 -0.1825 -0.3703
10607TIP3    H131764   8.358   5.990   0.222  2.1753 -0.7821 -1.5042
10607TIP3    H231765   8.393   5.868   0.140 -2.2538 -1.3354 -2.6621
10608TIP3   OH231766   8.414   7.716   2.365  0.1334 -0.0843 -0.2619
10608TIP3    H131767   8.341   7.771   2.337 -0.0876 -0.6541 -0.8342
10608TIP3    H231768   8.372   7.636   2.399  0.5250 -2.3256 -4.6714
10609TIP3   OH231769   0.633   6.592   0.769 -0.3837 -0.5684 -0.6145
10609TIP3    H131770   0.638   6.623   0.860  3.6013  2.5020 -1.6963
10609TIP3    H231771   0.555   6.634   0.734  1.0441  2.7379 -0.0348
10610TIP3   OH231772   3.517   6.301   0.585  0.0062 -0.1265  0.6017
10610TIP3    H131773   3.507   6.288   0.679 -0.4787  0.9911  0.7130
10610TIP3    H231774   3.498   6.394   0.571  0.6329 -0.1505 -0.5212
10611TIP3   OH231775   7.483   2.733   6.814 -0.2384 -0.6701  0.6708
10611TIP3    H131776   7.410   2.674   6.793  0.3475 -1.0548 -0.3481
10611TIP3    H231777   7.442   2.807   6.859 -1.8050  0.7605 -2.8622
10612TIP3   OH231778   6.411   3.093   0.668  0.5678 -0.4111  0.2085
10612TIP3    H131779   6.495   3.112   0.626  0.5083 -0.8268 -0.0980
10612TIP3    H231780   6.387   3.006   0.637 -1.0478  0.5822 -1.4604
10613TIP3   OH231781   5.139   0.582   0.867 -0.0481  0.2805 -0.1961
10613TIP3    H131782   5.066   0.550   0.813  1.5706 -0.0319 -2.2559
10613TIP3    H231783   5.214   0.530   0.839  1.1263  1.0658  1.4281
10614TIP3   OH231784   6.989   3.928   4.491 -0.2864  0.1599  0.0709
10614TIP3    H131785   7.022   3.855   4.543 -0.7708 -0.0123  0.1410
10614TIP3    H231786   6.916   3.891   4.441 -0.3505  0.5254 -0.1080
10615TIP3   OH231787   8.328   4.083   5.589  0.4543 -0.0455 -0.1177
10615TIP3    H131788   8.251   4.070   5.533  1.6238 -2.1745 -1.2831
10615TIP3    H231789   8.332   4.178   5.602 -1.9694  0.1597 -0.5827
10616TIP3   OH231790   0.324   7.709   1.586  0.3970 -0.0883  0.6178
10616TIP3    H131791   0.268   7.742   1.515 -2.0350  1.2631  3.0882
10616TIP3    H231792   0.374   7.785   1.615  1.0848 -0.5469  0.6523
10617TIP3   OH231793   5.034   3.269   5.552 -0.0423 -0.0436  0.2839
10617TIP3    H131794   5.053   3.349   5.601  1.5714 -0.8198  0.9307
10617TIP3    H231795   4.970   3.297   5.486 -0.7408  1.4257  1.5491
10618TIP3   OH231796   6.565   3.334   5.712  0.2773  0.2847 -0.4982
10618TIP3    H131797   6.604   3.405   5.763  0.6359 -0.3774  0.1729
10618TIP3    H231798   6.509   3.288   5.775  0.4350 -0.3202 -0.7956
10619TIP3   OH231799   6.045   5.348   4.923 -0.5533 -0.6683  0.8794
10619TIP3    H131800   6.023   5.284   4.990 -1.6384  0.0120  1.1881
10619TIP3    H231801   6.129   5.318   4.887 -1.1545 -2.3673  0.8564
10620TIP3   OH231802   7.043   3.368   5.826  0.6618  0.2148 -1.3665
10620TIP3    H131803   7.075   3.420   5.900  0.6941 -1.3666 -0.2331
10620TIP3    H231804   7.122   3.326   5.791  0.5750  0.5704 -1.9797
10621TIP3   OH231805   8.166   2.952   3.452  0.0803 -0.1650 -0.1735
10621TIP3    H131806   8.096   3.012   3.424  0.1234 -0.5064 -1.0419
10621TIP3    H231807   8.174   2.891   3.379 -0.5379 -1.7460  1.0639
10622TIP3   OH231808   7.624   3.481   4.782 -0.2266 -0.1471  0.7400
10622TIP3    H131809   7.709   3.511   4.815  0.3536 -0.7285 -0.1898
10622TIP3    H231810   7.631   3.386   4.781 -0.3934 -0.1624 -0.6033
10623TIP3   OH231811   6.063   3.847   6.848  0.0422  0.0468 -0.1952
10623TIP3    H131812   5.968   3.837   6.837 -0.3310  1.2453  1.7320
10623TIP3    H231813   6.088   3.912   6.782 -0.1060 -1.7708 -2.0942
10624TIP3   OH231814   5.658   4.338   4.990  0.4038 -0.2027 -0.1875
10624TIP3    H131815   5.595   4.395   4.946  0.2808 -1.0654 -1.1605
10624TIP3    H231816   5.706   4.296   4.919  2.5068  0.8777  0.5281
10625TIP3   OH231817   6.644   2.584   6.070 -0.0916  0.2042 -0.4814
10625TIP3    H131818   6.559   2.607   6.034 -0.5206 -0.4263  0.1105
10625TIP3    H231819   6.702   2.579   5.995 -0.4604  1.1308 -0.8379
10626TIP3   OH231820   2.668   5.442   0.208  0.2871 -0.1090  0.2467
10626TIP3    H131821   2.631   5.392   0.135  0.5509  0.4067 -0.2433
10626TIP3    H231822   2.754   5.404   0.223  0.5534  0.3011 -0.2321
10627TIP3   OH231823   6.495   3.396   3.898  0.3516  0.3003 -0.4951
10627TIP3    H131824   6.589   3.402   3.880  0.2701  1.2099 -0.6893
10627TIP3    H231825   6.478   3.468   3.958  0.0063 -0.6755  0.5846
10628TIP3   OH231826   5.981   2.636   5.738  0.0734  0.7193  0.1441
10628TIP3    H131827   5.983   2.640   5.834 -0.1140 -1.1100  0.2431
10628TIP3    H231828   6.073   2.634   5.713  0.1303 -1.6338  0.4510
10629TIP3   OH231829   6.177   3.183   6.054  0.0091  0.2595  0.2960
10629TIP3    H131830   6.223   3.165   6.136 -0.2394  2.0762  0.8464
10629TIP3    H231831   6.094   3.224   6.081 -1.3533 -1.7077 -0.7406
10630TIP3   OH231832   6.050   4.523   6.717 -0.1301 -0.2569 -0.5258
10630TIP3    H131833   6.127   4.562   6.759 -1.1289 -1.2557  2.3621
10630TIP3    H231834   6.064   4.429   6.722 -1.6571 -0.4621  0.2896
10631TIP3   OH231835   0.413   1.861   2.804  0.2064 -0.3488  0.3292
10631TIP3    H131836   0.337   1.852   2.862 -1.2220 -1.6510 -1.6611
10631TIP3    H231837   0.451   1.946   2.827 -2.9751  1.2150  0.0558
10632TIP3   OH231838   6.524   2.538   6.329  0.1069 -0.4691 -0.0437
10632TIP3    H131839   6.506   2.451   6.366 -0.0879 -0.2826  0.2932
10632TIP3    H231840   6.554   2.519   6.240 -1.2964 -0.8134 -0.4545
10633TIP3   OH231841   5.660   5.684   6.524  0.3030  0.0652 -0.2477
10633TIP3    H131842   5.732   5.647   6.473  1.2025 -0.7917  1.6026
10633TIP3    H231843   5.697   5.699   6.611 -1.3596  0.9676  0.3317
10634TIP3   OH231844   7.170   5.860   4.774 -0.0749 -0.3023  0.4730
10634TIP3    H131845   7.199   5.797   4.707 -0.5311 -0.3615  0.3342
10634TIP3    H231846   7.234   5.849   4.845  0.3265 -0.3408  0.1124
10635TIP3   OH231847   0.509   4.779   4.779 -0.0757  0.4571 -0.2744
10635TIP3    H131848   0.445   4.827   4.831  1.0225  0.6927  0.8850
10635TIP3    H231849   0.456   4.722   4.722 -1.3239  1.5710 -0.2370
10636TIP3   OH231850   0.237   1.095   2.738  0.2300  0.7909 -0.1387
10636TIP3    H131851   0.186   1.107   2.657  0.1440 -0.0555 -0.2178
10636TIP3    H231852   0.262   1.002   2.736  1.2872  1.0756  0.1910
10637TIP3   OH231853   6.340   1.031   0.684 -0.5411 -0.1969 -0.0599
10637TIP3    H131854   6.251   0.997   0.680 -1.3994  2.0851 -1.1146
10637TIP3    H231855   6.333   1.121   0.653  2.2588 -0.2103 -0.8864
10638TIP3   OH231856   7.967   4.369   5.500 -0.0861  0.5727 -0.1017
10638TIP3    H131857   7.980   4.459   5.473  1.1915 -0.0716 -1.6894
10638TIP3    H231858   7.872   4.356   5.494 -0.1138  1.3211 -1.4533
10639TIP3   OH231859   7.034   4.938   5.191  0.1518 -0.6301 -0.4705
10639TIP3    H131860   7.024   4.866   5.253  0.1757  0.1060  0.3832
10639TIP3    H231861   6.947   4.948   5.152 -0.9811  1.6881  2.4982
10640TIP3   OH231862   6.994   2.955   6.402 -0.7777  0.1108  0.0980
10640TIP3    H131863   7.019   2.863   6.408 -0.2480  0.4101  2.9204
10640TIP3    H231864   7.075   2.999   6.374 -0.7484 -0.1187 -0.1944
10641TIP3   OH231865   7.434   3.874   4.776 -0.3553  0.2128  0.1773
10641TIP3    H131866   7.505   3.834   4.826 -0.0600  1.2262  0.5967
10641TIP3    H231867   7.390   3.930   4.840 -0.2031  1.2458 -0.6205
10642TIP3   OH231868   5.527   3.158   5.310  0.2912  0.3574 -0.4420
10642TIP3    H131869   5.606   3.174   5.259  0.1179  3.6273  0.2172
10642TIP3    H231870   5.461   3.134   5.246  1.8094 -2.6031 -0.9893
10643TIP3   OH231871   6.834   5.371   6.638 -0.1321 -0.0269 -0.3883
10643TIP3    H131872   6.914   5.380   6.690 -1.0981  0.5240  1.0650
10643TIP3    H231873   6.797   5.459   6.636 -1.1946 -0.4639 -0.2213
10644TIP3   OH231874   2.565   0.306   0.101  0.0884 -0.4394 -0.3448
10644TIP3    H131875   2.619   0.382   0.079 -1.1780  0.5442 -0.1632
10644TIP3    H231876   2.500   0.302   0.031  0.4928 -1.7145 -0.6572
10645TIP3   OH231877   6.302   3.169   6.623  0.0136 -0.0260 -0.0586
10645TIP3    H131878   6.219   3.141   6.662  1.2033 -2.0912  1.0608
10645TIP3    H231879   6.352   3.206   6.696  1.0675 -1.1129 -0.2326
10646TIP3   OH231880   6.291   4.460   6.491 -0.2094  0.0993  0.0732
10646TIP3    H131881   6.242   4.519   6.548 -1.4207 -1.8923  1.1546
10646TIP3    H231882   6.310   4.384   6.546  0.3491 -1.0149 -1.6191
10647TIP3   OH231883   6.983   3.546   6.376 -0.0660  0.1823 -0.0285
10647TIP3    H131884   6.954   3.475   6.319  1.7075 -0.0543 -0.6496
10647TIP3    H231885   6.906   3.566   6.430 -1.1085 -1.0170 -1.0389
10648TIP3   OH231886   7.270   2.573   6.787  1.0020  0.2020  0.0125
10648TIP3    H131887   7.243   2.481   6.784  2.1874 -0.1251 -1.1311
10648TIP3    H231888   7.203   2.616   6.840  0.4454 -1.3225  0.5779
10649TIP3   OH231889   0.313   4.604   4.709 -0.4567  0.1029 -0.1835
10649TIP3    H131890   0.321   4.528   4.653 -1.0477  0.4580 -0.7596
10649TIP3    H231891   0.227   4.641   4.687  0.4933  1.8397 -1.0509
10650TIP3   OH231892   0.373   4.709   1.693 -0.2234  0.0262 -0.2933
10650TIP3    H131893   0.455   4.697   1.740 -0.5153 -0.6371  0.0480
10650TIP3    H231894   0.379   4.652   1.617 -0.6530 -0.5474  0.0995
10651TIP3   OH231895   7.210   1.570   4.796 -0.6152 -0.1535  0.1326
10651TIP3    H131896   7.247   1.531   4.875  1.9072 -0.5357 -1.1707
10651TIP3    H231897   7.120   1.594   4.820 -0.1528 -0.9888  2.8381
10652TIP3   OH231898   7.181   2.414   5.416  0.3443  0.4170  0.0256
10652TIP3    H131899   7.202   2.489   5.471 -0.0906  0.4152  0.2002
10652TIP3    H231900   7.115   2.447   5.355  1.1596  0.5416 -0.7940
10653TIP3   OH231901   2.051   0.174   1.149  0.4777 -0.6239 -0.9888
10653TIP3    H131902   1.982   0.238   1.130 -0.7400 -1.6238 -0.0554
10653TIP3    H231903   2.084   0.199   1.236  0.5722 -0.7623 -0.9840
10654TIP3   OH231904   7.536   8.012   2.555 -0.2346 -0.6436 -0.1687
10654TIP3    H131905   7.453   8.051   2.581 -2.1256 -2.3896 -3.2976
10654TIP3    H231906   7.560   7.954   2.627 -1.4580  0.2375  0.9601
10655TIP3   OH231907   7.702   1.573   4.953  0.1324  0.0227  0.7326
10655TIP3    H131908   7.724   1.598   5.043  0.4531  0.9196  0.4059
10655TIP3    H231909   7.661   1.651   4.915 -0.9603 -0.6954  0.4215
10656TIP3   OH231910   5.636   6.879   3.661 -0.8146  0.0295  0.0079
10656TIP3    H131911   5.683   6.804   3.698 -1.7896 -0.6605 -0.1309
10656TIP3    H231912   5.607   6.929   3.737  0.4393  0.6573  0.0894
10657TIP3   OH231913   1.744   3.746   5.221  0.1424  0.4031 -0.3869
10657TIP3    H131914   1.693   3.827   5.217 -0.1436  0.1226 -3.5940
10657TIP3    H231915   1.680   3.677   5.209  0.8404 -0.1053 -1.2690
10658TIP3   OH231916   1.733   7.827   0.849 -0.1432  0.0227 -0.0665
10658TIP3    H131917   1.790   7.763   0.807  0.1609 -0.3604  0.9164
10658TIP3    H231918   1.648   7.783   0.856 -0.1148 -0.0249 -0.0195
10659TIP3   OH231919   6.136   1.863   5.395 -0.5380 -0.2993  0.1214
10659TIP3    H131920   6.063   1.910   5.437 -0.5872  0.1534 -0.4604
10659TIP3    H231921   6.106   1.772   5.389 -1.6385  0.1451 -1.3994
10660TIP3   OH231922   3.883   7.928   0.500 -0.0259  0.1457  0.4202
10660TIP3    H131923   3.929   7.845   0.490 -0.2534  0.1794 -0.9852
10660TIP3    H231924   3.939   7.980   0.558  0.4014 -0.7639  0.8340
10661TIP3   OH231925   6.245   4.402   6.232 -0.1878 -0.1729 -0.3382
10661TIP3    H131926   6.221   4.311   6.244  0.3743 -0.3831 -0.7868
10661TIP3    H231927   6.269   4.433   6.319  0.2942 -0.6458 -0.3050
10662TIP3   OH231928   7.421   3.198   5.976 -0.1218  0.6490  0.2577
10662TIP3    H131929   7.346   3.162   6.024 -0.7516 -0.9185 -1.7978
10662TIP3    H231930   7.479   3.123   5.961  1.7329  1.7971  1.5667
10663TIP3   OH231931   5.679   5.236   5.971 -0.7490  0.0053  0.0390
10663TIP3    H131932   5.634   5.188   5.901 -0.8022 -0.8872  0.6677
10663TIP3    H231933   5.645   5.325   5.965 -0.7562 -0.0569 -1.0642
10664TIP3   OH231934   7.876   4.591   6.316 -0.5945 -0.3456  0.1880
10664TIP3    H131935   7.969   4.610   6.309 -0.4978 -1.0694 -0.5200
10664TIP3    H231936   7.869   4.531   6.391 -0.6006  0.4315  0.8110
10665TIP3   OH231937   5.598   3.958   4.180  0.0687  0.0676 -0.0109
10665TIP3    H131938   5.569   4.011   4.106 -2.4678  0.2056  1.0215
10665TIP3    H231939   5.605   3.869   4.144 -0.6140  0.2251 -0.5467
10666TIP3   OH231940   7.452   4.536   5.344 -0.4309 -0.2321 -0.0128
10666TIP3    H131941   7.428   4.576   5.428 -0.9641 -0.4830 -0.0467
10666TIP3    H231942   7.369   4.521   5.300 -0.2552 -1.6785  0.1330
10667TIP3   OH231943   8.351   4.861   5.762  0.2224  0.6324  0.1871
10667TIP3    H131944   8.302   4.939   5.789 -0.0913  0.2472  0.7286
10667TIP3    H231945   8.301   4.788   5.797  1.3085  0.2405  0.9429
10668TIP3   OH231946   0.905   6.333   1.621  0.4610  0.5926  0.5203
10668TIP3    H131947   0.933   6.411   1.574  3.4713 -1.2489 -0.9238
10668TIP3    H231948   0.941   6.343   1.709  0.2998  1.1051  0.5272
10669TIP3   OH231949   2.110   3.318   6.003 -0.0698 -0.3180  0.2431
10669TIP3    H131950   2.166   3.314   5.925  1.1216  0.5917  1.0331
10669TIP3    H231951   2.119   3.232   6.043 -0.5785 -0.7450 -0.5404
10670TIP3   OH231952   0.207   6.329   1.092  0.4771 -0.0936 -0.3343
10670TIP3    H131953   0.232   6.422   1.095 -0.5310  0.2380 -1.5805
10670TIP3    H231954   0.250   6.290   1.168 -0.2180  1.6817  1.0116
10671TIP3   OH231955   4.460   3.198   5.525  0.4226 -0.1571  0.3730
10671TIP3    H131956   4.399   3.154   5.584  0.2764  0.0097  0.3453
10671TIP3    H231957   4.547   3.170   5.555  0.3118 -0.9870 -0.0548
10672TIP3   OH231958   7.288   0.901   5.197 -0.2136  0.5786 -0.0639
10672TIP3    H131959   7.358   0.837   5.208  0.6216  0.7781 -3.4652
10672TIP3    H231960   7.328   0.984   5.221 -0.0982  0.3236  0.6223
10673TIP3   OH231961   0.046   3.784   4.997  0.3465 -0.2340 -0.4102
10673TIP3    H131962  -0.026   3.844   4.979  0.4176  0.5308  1.7226
10673TIP3    H231963   0.104   3.792   4.921 -0.6888  0.8088 -1.1024
10674TIP3   OH231964   5.049   1.463   3.727 -0.0645 -0.1495  0.1081
10674TIP3    H131965   5.091   1.498   3.806 -2.0075  0.5389  0.8951
10674TIP3    H231966   4.955   1.463   3.749 -0.4697 -1.7447 -1.5119
10675TIP3   OH231967   5.772   5.192   5.470 -0.7800  0.7895 -0.3676
10675TIP3    H131968   5.797   5.280   5.498 -1.1112 -0.0243  2.7022
10675TIP3    H231969   5.834   5.135   5.515 -1.0545 -0.6015 -1.7334
10676TIP3   OH231970   5.077   2.268   5.453 -0.2013  0.6711  0.2652
10676TIP3    H131971   5.099   2.296   5.542 -0.3021  0.4267  0.3677
10676TIP3    H231972   5.014   2.197   5.465 -0.9084  1.2423 -0.0273
10677TIP3   OH231973   6.476   6.193   6.878  0.1901  0.3446 -0.2214
10677TIP3    H131974   6.443   6.128   6.939 -0.3806  0.8815  0.0385
10677TIP3    H231975   6.444   6.277   6.911  0.5967  0.7226 -0.7702
10678TIP3   OH231976   6.218   3.471   6.352  0.5467 -0.0002  0.0102
10678TIP3    H131977   6.145   3.426   6.309  0.1926 -0.2680  0.8720
10678TIP3    H231978   6.177   3.520   6.423  1.2348 -0.4057  0.6997
10679TIP3   OH231979   6.181   3.053   5.693  0.6341 -0.3146  0.8861
10679TIP3    H131980   6.269   3.078   5.665  0.0134 -1.2110 -2.0097
10679TIP3    H231981   6.122   3.101   5.635 -0.7576 -0.8509  1.8245
10680TIP3   OH231982   5.925   2.049   5.242 -0.3724 -0.4145  0.9314
10680TIP3    H131983   5.849   2.035   5.299 -0.5724 -0.5163  0.6397
10680TIP3    H231984   5.939   1.964   5.200  0.0928 -0.4790  1.2190
10681TIP3   OH231985   7.976   1.419   3.904 -0.2966 -0.1878  0.3715
10681TIP3    H131986   8.021   1.494   3.864 -2.8132  2.2424  1.8899
10681TIP3    H231987   7.884   1.446   3.908 -1.4464 -3.8149  0.0210
10682TIP3   OH231988   6.039   2.683   6.010 -0.0026  0.0793  0.1351
10682TIP3    H131989   5.999   2.763   5.976  2.0433  1.5672  1.1072
10682TIP3    H231990   6.050   2.699   6.103  1.7040 -0.7736  0.1074
10683TIP3   OH231991   6.086   1.459   5.074  0.0141 -0.9040 -0.5818
10683TIP3    H131992   6.161   1.407   5.102 -0.7875 -0.5066  2.4874
10683TIP3    H231993   6.015   1.395   5.065  0.3360 -1.0742 -2.1317
10684TIP3   OH231994   5.093   2.377   4.083  0.6808  0.1359 -0.1875
10684TIP3    H131995   5.045   2.436   4.141 -0.4966 -1.5414  0.5899
10684TIP3    H231996   5.044   2.379   4.000  1.2406  1.0307 -0.5034
10685TIP3   OH231997   4.949   4.615   5.880  0.3269  0.0087  0.1615
10685TIP3    H131998   4.869   4.651   5.841  0.6844 -1.0438 -1.5955
10685TIP3    H231999   4.941   4.521   5.867  0.7196 -0.3201  2.1989
10686TIP3   OH232000   5.532   4.516   4.812 -0.7122 -0.3805  0.2247
10686TIP3    H132001   5.447   4.539   4.775  0.1397  0.1846 -1.4168
10686TIP3    H232002   5.590   4.586   4.784  0.3729 -0.9187  1.0900
10687TIP3   OH232003   7.418   1.437   5.450  0.2581 -0.6538  0.1177
10687TIP3    H132004   7.474   1.415   5.525 -0.7732 -0.8392  0.8442
10687TIP3    H232005   7.372   1.356   5.429 -0.0747 -0.3866 -0.1859
10688TIP3   OH232006   4.508   0.500   0.161 -0.0524  0.0726  0.5122
10688TIP3    H132007   4.464   0.416   0.147 -0.3835  0.3254  0.0337
10688TIP3    H232008   4.515   0.539   0.074 -0.3891  0.7869  0.7958
10689TIP3   OH232009   6.559   2.627   6.669 -0.2926 -0.3459  0.2235
10689TIP3    H132010   6.653   2.638   6.686 -0.4333 -0.3108  0.9868
10689TIP3    H232011   6.540   2.691   6.600  0.1748 -0.1229  0.2978
10690TIP3   OH232012   6.822   4.217   4.549  0.2772 -0.2582  0.5878
10690TIP3    H132013   6.856   4.278   4.484 -0.6629 -2.1412 -1.7009
10690TIP3    H232014   6.896   4.204   4.609  1.5565  0.5705 -0.7594
10691TIP3   OH232015   5.944   3.306   3.344  0.1825  0.1633  0.2195
10691TIP3    H132016   5.857   3.266   3.345  0.3564 -0.1910  0.6595
10691TIP3    H232017   5.991   3.259   3.275  0.5544 -0.7352  1.0818
10692TIP3   OH232018   6.828   3.151   4.043 -0.4893  0.3019 -0.0066
10692TIP3    H132019   6.814   3.083   3.977  1.3512  0.2770 -0.4014
10692TIP3    H232020   6.746   3.155   4.092 -0.6352 -2.1689 -0.0095
10693TIP3   OH232021   6.086   4.179   5.967  0.2254  0.2594 -0.1544
10693TIP3    H132022   6.123   4.151   6.050 -0.9483  1.2999  0.7432
10693TIP3    H232023   6.084   4.100   5.914  0.2808 -0.5884  1.0837
10694TIP3   OH232024   0.855   3.325   5.449  0.3163 -0.2312  0.0148
10694TIP3    H132025   0.873   3.402   5.395 -1.6077 -0.4304 -0.9476
10694TIP3    H232026   0.838   3.360   5.536 -2.8436  0.6734 -0.9114
10695TIP3   OH232027   7.950   1.548   4.453 -0.1624  0.5565  0.2042
10695TIP3    H132028   8.013   1.553   4.381 -1.1653  0.5977 -0.6940
10695TIP3    H232029   7.949   1.635   4.491 -1.8264  1.4117 -1.6819
10696TIP3   OH232030   7.737   2.663   5.525  0.1864 -0.0440  0.5132
10696TIP3    H132031   7.832   2.658   5.525  0.3600  2.5348 -0.4062
10696TIP3    H232032   7.711   2.627   5.441  0.6806  3.1615 -1.1088
10697TIP3   OH232033   4.885   0.548   5.732 -0.2757  0.8217  0.1396
10697TIP3    H132034   4.910   0.493   5.805  0.7644 -0.3512 -1.0703
10697TIP3    H232035   4.929   0.632   5.749 -0.3751  0.6975  1.0391
10698TIP3   OH232036   0.351   7.205   0.573 -0.2548  0.2435  0.0443
10698TIP3    H132037   0.334   7.249   0.490 -2.7823 -0.0921  0.3438
10698TIP3    H232038   0.403   7.268   0.624 -1.1532  1.6194 -0.7074
10699TIP3   OH232039   6.603   4.149   3.327 -0.8715 -0.4018  0.1277
10699TIP3    H132040   6.588   4.239   3.357 -0.3563 -0.4196  0.4459
10699TIP3    H232041   6.685   4.124   3.369 -1.4012 -1.2856  0.6405
10700TIP3   OH232042   1.104   6.919   1.829 -0.2770  0.1777  0.2012
10700TIP3    H132043   1.170   6.852   1.848 -0.1116  0.4866  0.7323
10700TIP3    H232044   1.020   6.872   1.836 -0.1405 -0.0787  0.1155
10701TIP3   OH232045   7.647   3.556   5.989  0.1342  0.1856  0.4630
10701TIP3    H132046   7.620   3.645   6.012  1.9236  0.4637  1.5425
10701TIP3    H232047   7.565   3.511   5.967 -0.9585  1.6322  1.5174
10702TIP3   OH232048   7.098   3.345   5.505  0.5596 -0.1089  0.0622
10702TIP3    H132049   7.011   3.360   5.542  0.6484  1.3427 -0.3080
10702TIP3    H232050   7.083   3.339   5.410  0.6623 -1.3590  0.1204
10703TIP3   OH232051   7.676   3.196   4.754 -0.1258  0.4902 -0.3823
10703TIP3    H132052   7.598   3.147   4.731  0.0426 -0.0374  0.1770
10703TIP3    H232053   7.746   3.131   4.758  0.0504  0.7256  0.5959
10704TIP3   OH232054   6.444   1.231   0.131 -0.8992  0.0334  0.0254
10704TIP3    H132055   6.488   1.150   0.156 -1.5561 -0.6050 -0.8523
10704TIP3    H232056   6.447   1.231   0.035 -1.5688  0.6679 -0.0025
10705TIP3   OH232057   7.633   3.438   6.277  0.0887  0.5891  0.3102
10705TIP3    H132058   7.636   3.471   6.187  0.8269  2.3026  0.9514
10705TIP3    H232059   7.540   3.430   6.297 -0.0742 -0.2768 -0.7728
10706TIP3   OH232060   7.927   2.718   4.965 -0.3837  0.2288 -0.3135
10706TIP3    H132061   8.018   2.703   4.992 -0.6509 -0.1261  0.3965
10706TIP3    H232062   7.890   2.770   5.036 -0.7735  0.2692 -0.5496
10707TIP3   OH232063   4.211   0.882   0.125 -0.2099  0.3314 -0.4793
10707TIP3    H132064   4.180   0.958   0.076 -1.2185 -0.5293 -1.1991
10707TIP3    H232065   4.136   0.822   0.126  0.8990 -1.0971 -0.8466
10708TIP3   OH232066   4.955   3.566   6.270  0.7989  0.0358  0.2266
10708TIP3    H132067   5.030   3.614   6.235  0.7056 -0.1992 -0.2965
10708TIP3    H232068   4.990   3.480   6.293  0.4903 -0.3932 -0.8891
10709TIP3   OH232069   5.169   3.422   5.789  0.4365 -0.2840 -0.4249
10709TIP3    H132070   5.084   3.425   5.834  1.2047 -1.4343  1.1593
10709TIP3    H232071   5.207   3.509   5.804  0.7757 -0.7127  1.3941
10710TIP3   OH232072   0.215   5.015   5.490 -0.3113  0.0417 -0.2422
10710TIP3    H132073   0.196   5.002   5.583  1.9599  2.0437  0.5447
10710TIP3    H232074   0.308   5.036   5.487  0.0791 -1.8337 -3.1835
10711TIP3   OH232075   6.422   4.790   4.363  0.0299  0.1718 -0.0598
10711TIP3    H132076   6.480   4.814   4.436 -0.8643 -0.6019  0.9278
10711TIP3    H232077   6.349   4.743   4.405 -3.3702  4.4830 -0.7355
10712TIP3   OH232078   7.039   2.002   3.760 -0.4690 -0.0178  0.3726
10712TIP3    H132079   7.097   2.077   3.754  0.4429 -0.7606 -0.2834
10712TIP3    H232080   7.037   1.966   3.671 -0.0109 -1.4196  0.9203
10713TIP3   OH232081   8.246   1.462   5.051  0.4111  0.1364  0.1530
10713TIP3    H132082   8.230   1.446   5.144  3.5225 -1.0738  0.5354
10713TIP3    H232083   8.291   1.546   5.048 -2.0144  1.4652 -0.5417
10714TIP3   OH232084   2.909   0.599   0.355 -0.7747 -0.9892  0.2772
10714TIP3    H132085   2.992   0.643   0.370 -2.0536  1.0886  1.5544
10714TIP3    H232086   2.855   0.664   0.308 -1.9174 -2.0213  0.1208
10715TIP3   OH232087   0.695   2.796   3.594 -0.1208 -0.4428  0.4619
10715TIP3    H132088   0.634   2.737   3.639 -0.9672  0.4046  0.4537
10715TIP3    H232089   0.643   2.874   3.576  0.4940 -0.3842 -1.1204
10716TIP3   OH232090   6.380   2.789   6.808  0.3841 -0.2106 -0.0784
10716TIP3    H132091   6.423   2.719   6.760  0.2640  0.2700 -0.8989
10716TIP3    H232092   6.332   2.838   6.741  0.6590  0.7945  0.4554
10717TIP3   OH232093   6.024   4.842   5.840 -0.6878  0.3088  0.9806
10717TIP3    H132094   5.931   4.856   5.822 -0.4843 -0.6743 -0.9854
10717TIP3    H232095   6.029   4.754   5.877 -0.4957  0.2346  0.7792
10718TIP3   OH232096   5.908   2.749   1.047 -0.0006 -0.1322  0.0026
10718TIP3    H132097   5.817   2.770   1.026  0.3121  0.8413 -0.4167
10718TIP3    H232098   5.939   2.700   0.971  0.4886  1.5130 -0.8861
10719TIP3   OH232099   5.926   3.336   5.457 -0.4894  0.2904 -0.2567
10719TIP3    H132100   5.937   3.241   5.465 -0.0393  0.3904  0.3540
10719TIP3    H232101   5.912   3.351   5.364  0.6900 -0.2470 -0.5260
10720TIP3   OH232102   8.115   2.035   5.756 -0.0537 -0.0724 -0.1794
10720TIP3    H132103   8.208   2.052   5.745  0.1605 -0.4195  1.0593
10720TIP3    H232104   8.078   2.047   5.668  0.7686  2.3920 -0.2260
10721TIP3   OH232105   4.818   2.311   4.394 -0.0732 -0.0587 -0.2858
10721TIP3    H132106   4.838   2.362   4.315 -0.5274 -0.2644 -0.5296
10721TIP3    H232107   4.892   2.330   4.453  0.1912  0.2120 -0.6979
10722TIP3   OH232108   4.029   0.286   0.282 -0.6944 -0.2843 -0.0994
10722TIP3    H132109   4.008   0.215   0.343 -1.8018  0.3839  0.3020
10722TIP3    H232110   3.985   0.362   0.318  2.8043  1.2963  1.0371
10723TIP3   OH232111   8.467   0.132   5.005  0.2223  0.2957  0.4293
10723TIP3    H132112   8.423   0.051   5.030  0.4917 -0.2000 -0.6865
10723TIP3    H232113   8.396   0.189   4.973  0.5069 -1.0743 -2.8848
10724TIP3   OH232114   6.926   3.560   4.598 -0.2526 -0.0235  0.6414
10724TIP3    H132115   7.006   3.600   4.565 -0.8362  0.5293 -0.0940
10724TIP3    H232116   6.933   3.570   4.693  1.1389 -1.0917  0.6719
10725TIP3   OH232117   5.955   1.754   5.904 -0.2668  0.8928  0.1382
10725TIP3    H132118   5.861   1.761   5.891 -0.2538  0.3114 -0.2652
10725TIP3    H232119   5.990   1.735   5.817  0.2893  1.7368  0.1665
10726TIP3   OH232120   6.977   2.541   5.313  0.8288 -0.4583 -0.2530
10726TIP3    H132121   7.043   2.586   5.260  0.1879  2.2461  1.1717
10726TIP3    H232122   6.897   2.545   5.260  0.1243  2.4675  0.9688
10727TIP3   OH232123   6.445   1.794   6.728 -0.2454 -0.5376 -0.1485
10727TIP3    H132124   6.489   1.873   6.697  1.7712 -1.2643  0.7505
10727TIP3    H232125   6.452   1.732   6.656 -0.6693 -0.3282 -0.3702
10728TIP3   OH232126   4.649   3.824   5.804  0.0440  0.5414  0.2055
10728TIP3    H132127   4.644   3.797   5.896  0.3930  0.6008  0.2406
10728TIP3    H232128   4.576   3.777   5.762 -1.3382  2.0397  0.8905
10729TIP3   OH232129   0.075   2.874   5.566 -0.2414 -0.5815  0.6320
10729TIP3    H132130  -0.019   2.879   5.553 -0.2378 -2.2391 -0.1190
10729TIP3    H232131   0.103   2.797   5.516  1.5290 -0.0147  0.7073
10730TIP3   OH232132   5.456   0.004   0.699  0.2990 -0.2795 -0.6302
10730TIP3    H132133   5.493   0.058   0.768 -0.3736  1.8521 -1.9179
10730TIP3    H232134   5.505   0.027   0.621 -1.8022  0.4576 -1.7527
10731TIP3   OH232135   6.689   4.060   5.573 -0.6390 -0.2034 -0.1475
10731TIP3    H132136   6.668   4.145   5.612  0.7256  0.5138 -0.9488
10731TIP3    H232137   6.761   4.026   5.627  0.1093  0.0220 -0.9987
10732TIP3   OH232138   4.139   1.740   4.757  0.1140  0.1510  0.1472
10732TIP3    H132139   4.140   1.748   4.662  0.7800 -0.1700  0.1230
10732TIP3    H232140   4.055   1.699   4.777 -0.8887  2.0505 -0.1477
10733TIP3   OH232141   6.403   4.134   3.726 -0.4552  0.2376 -0.8844
10733TIP3    H132142   6.320   4.123   3.680  0.0217  0.3500 -1.7791
10733TIP3    H232143   6.415   4.228   3.731 -0.1996  0.2143 -1.0797
10734TIP3   OH232144   5.460   4.899   5.336 -0.6303  0.6328 -0.1590
10734TIP3    H132145   5.399   4.826   5.323 -1.9662  1.6897  0.0645
10734TIP3    H232146   5.533   4.879   5.277 -0.4349 -1.4642  0.7425
10735TIP3   OH232147   6.069   1.311   6.456 -0.4077 -0.0848  0.1717
10735TIP3    H132148   6.024   1.319   6.372  0.1574 -2.8567 -0.4533
10735TIP3    H232149   6.076   1.400   6.489  3.2697  1.6445 -4.7643
10736TIP3   OH232150   7.195   1.251   5.629  0.1202  0.2661 -0.5506
10736TIP3    H132151   7.273   1.195   5.629  0.1473  0.2976 -1.5050
10736TIP3    H232152   7.139   1.215   5.560 -1.1392 -0.3369  0.7384
10737TIP3   OH232153   4.727   1.904   1.662  0.2950 -0.3732  0.3177
10737TIP3    H132154   4.803   1.845   1.667 -0.7949 -1.8616 -0.2953
10737TIP3    H232155   4.745   1.959   1.586  0.5296 -1.0508 -0.1211
10738TIP3   OH232156   6.991   4.262   6.602  0.5111  0.5506 -0.0617
10738TIP3    H132157   7.022   4.270   6.693 -0.6076  1.3406  0.2633
10738TIP3    H232158   7.070   4.249   6.551  1.0497 -1.1088  1.1707
10739TIP3   OH232159   5.529   4.239   5.473 -0.6794 -0.5241  0.4752
10739TIP3    H132160   5.597   4.265   5.536 -1.1266 -0.1352  0.8041
10739TIP3    H232161   5.494   4.157   5.507  0.1283 -1.1167 -0.0914
10740TIP3   OH232162   3.053   6.946   1.526 -0.7189 -0.1680  0.1104
10740TIP3    H132163   3.068   6.956   1.620  1.3343  0.4592 -0.2776
10740TIP3    H232164   2.998   7.021   1.502  0.0101  0.5020  0.5286
10741TIP3   OH232165   4.554   6.895   5.746 -0.6795  0.7544  0.6224
10741TIP3    H132166   4.518   6.812   5.713  0.5478  0.2217  0.5623
10741TIP3    H232167   4.577   6.876   5.837  0.2032  0.8214  0.4222
10742TIP3   OH232168   0.958   7.808   3.179 -0.3972 -0.2800  0.3075
10742TIP3    H132169   0.928   7.732   3.129  0.4004 -0.2496 -0.2213
10742TIP3    H232170   1.024   7.849   3.124 -0.8907  0.8631  0.5484
10743TIP3   OH232171   6.676   2.873   5.041  0.2111  0.2112 -0.6378
10743TIP3    H132172   6.638   2.837   4.961  0.2799  1.3276 -1.1965
10743TIP3    H232173   6.704   2.962   5.015  0.4230  0.4983  0.5670
10744TIP3   OH232174   6.779   6.063   0.450  0.3549  0.3525  0.2615
10744TIP3    H132175   6.787   6.094   0.360 -0.0962 -1.1060 -0.2969
10744TIP3    H232176   6.725   6.128   0.493  1.4352  1.6105 -0.2491
10745TIP3   OH232177   5.388   4.245   2.983  0.0314 -0.4682 -0.3151
10745TIP3    H132178   5.375   4.223   3.075  1.1233 -0.7674 -0.2295
10745TIP3    H232179   5.428   4.331   2.984 -2.0323  0.5257 -0.5891
10746TIP3   OH232180   6.032   3.659   6.521  0.2193  0.8991 -0.3813
10746TIP3    H132181   5.959   3.714   6.494  0.9842  1.8070 -0.6189
10746TIP3    H232182   5.999   3.610   6.596 -0.6046  1.3630 -0.4366
10747TIP3   OH232183   4.458   3.898   5.471  0.0550 -0.1489  0.5381
10747TIP3    H132184   4.433   3.964   5.535  0.7850  0.1432  0.5225
10747TIP3    H232185   4.374   3.861   5.442 -0.3096  0.1550  1.1876
10748TIP3   OH232186   6.703   4.404   4.782 -0.0152  0.5223 -0.1707
10748TIP3    H132187   6.729   4.317   4.752 -1.4064  0.0797 -0.1320
10748TIP3    H232188   6.781   4.459   4.769  0.6658 -0.5829 -0.7712
10749TIP3   OH232189   8.130   3.679   5.750 -0.2324  0.4693 -0.1191
10749TIP3    H132190   8.038   3.671   5.774 -0.0117  0.9351  0.9119
10749TIP3    H232191   8.129   3.701   5.657 -1.1515  0.1938 -0.1776
10750TIP3   OH232192   4.732   2.085   4.545 -0.0609  0.3017  0.0220
10750TIP3    H132193   4.687   2.157   4.589  0.0911  0.2242  0.3035
10750TIP3    H232194   4.756   2.121   4.459 -0.2428  0.4929  0.0502
10751TIP3   OH232195   0.113   5.140   4.260  0.4492  0.4181 -0.1576
10751TIP3    H132196   0.020   5.119   4.263  0.0331  2.4182  1.5666
10751TIP3    H232197   0.155   5.057   4.237 -1.6951 -0.6261 -0.4439
10752TIP3   OH232198   7.398   3.029   3.143 -0.5335 -0.2019 -0.4015
10752TIP3    H132199   7.447   2.998   3.066 -1.8566 -2.5984 -0.3292
10752TIP3    H232200   7.320   3.071   3.107  0.8588  2.4156 -0.4694
10753TIP3   OH232201   1.024   7.329   0.142 -0.1663  0.3894 -0.0004
10753TIP3    H132202   1.093   7.282   0.188  0.5318 -0.6916 -2.1055
10753TIP3    H232203   0.947   7.320   0.199  1.0126  0.3060  1.6245
10754TIP3   OH232204   5.904   2.417   6.885  0.2046  0.2377 -0.1730
10754TIP3    H132205   5.992   2.453   6.874  0.3832  0.0679  0.6439
10754TIP3    H232206   5.901   2.388   6.976 -0.6073 -0.0054 -0.2694
10755TIP3   OH232207   2.649   7.145   0.537  0.2029  0.3711 -0.0161
10755TIP3    H132208   2.581   7.148   0.604  1.7382 -0.0240  1.5821
10755TIP3    H232209   2.724   7.105   0.580  1.2871  0.2977 -1.9172
10756TIP3   OH232210   8.431   1.645   4.976 -0.2155  0.2288  0.1620
10756TIP3    H132211   8.385   1.702   4.915 -0.2172 -0.0436 -0.0896
10756TIP3    H232212   8.513   1.691   4.995  0.1628 -0.0900 -0.7003
10757TIP3   OH232213   6.550   4.600   6.729  0.4317  0.1567  0.0317
10757TIP3    H132214   6.554   4.610   6.634  0.1275  0.5210  0.0575
10757TIP3    H232215   6.630   4.553   6.752  1.1898  1.2919 -0.2463
10758TIP3   OH232216   5.262   3.228   6.114 -0.4602 -0.6716 -0.0786
10758TIP3    H132217   5.282   3.218   6.021 -1.1397 -0.8735 -0.2096
10758TIP3    H232218   5.330   3.178   6.159 -1.6996 -2.8769 -0.5747
10759TIP3   OH232219   5.548   0.882   5.528 -0.2552  0.3702  0.3063
10759TIP3    H132220   5.538   0.804   5.583 -0.9364  0.6352  0.5569
10759TIP3    H232221   5.459   0.905   5.502 -0.0189  0.8276 -0.1030
10760TIP3   OH232222   6.454   1.335   5.412  0.4219  0.4626 -0.5884
10760TIP3    H132223   6.422   1.325   5.502  2.2413 -0.0247  0.0122
10760TIP3    H232224   6.490   1.423   5.408  0.0246  0.6133 -0.9516
10761TIP3   OH232225   6.843   2.622   5.005  0.2575  0.2343  1.2224
10761TIP3    H132226   6.834   2.708   5.047 -1.4275  1.1963 -1.0073
10761TIP3    H232227   6.754   2.587   5.004  0.1666  0.4060 -1.7950
10762TIP3   OH232228   7.790   3.151   6.676 -0.5539 -0.5120 -0.5236
10762TIP3    H132229   7.876   3.119   6.705  0.0396  0.4265 -1.2029
10762TIP3    H232230   7.732   3.075   6.683 -0.0259 -0.7866  1.3992
10763TIP3   OH232231   6.377   2.213   6.672 -0.5414  0.2212 -0.5563
10763TIP3    H132232   6.391   2.293   6.722 -1.9278  0.3306 -0.3227
10763TIP3    H232233   6.281   2.202   6.670 -0.4890 -0.0991 -2.6631
10764TIP3   OH232234   6.162   3.925   5.904  0.0796 -0.4373 -0.1865
10764TIP3    H132235   6.133   3.841   5.869 -0.3826 -0.6023  0.5755
10764TIP3    H232236   6.257   3.923   5.897 -0.0313 -0.1617 -2.1023
10765TIP3   OH232237   4.224   7.138   2.320 -0.5444  0.3925  0.5823
10765TIP3    H132238   4.261   7.201   2.382  0.7025 -1.2491  1.5385
10765TIP3    H232239   4.132   7.129   2.346 -0.2874  0.5086  1.5262
10766TIP3   OH232240   6.642   5.430   6.273  0.1851 -0.0012  0.3807
10766TIP3    H132241   6.666   5.451   6.182  1.3782 -0.9911  0.4479
10766TIP3    H232242   6.652   5.512   6.320  1.7785  0.0274  0.0362
10767TIP3   OH232243   5.468   3.256   5.910  0.0235 -0.0122 -0.1463
10767TIP3    H132244   5.444   3.305   5.832 -1.1437  0.5634  0.5568
10767TIP3    H232245   5.455   3.164   5.886  0.0545  0.1437 -0.7564
10768TIP3   OH232246   6.157   5.798   4.170  0.2649 -0.3145 -0.6028
10768TIP3    H132247   6.237   5.755   4.139  1.8701 -1.1673  4.3128
10768TIP3    H232248   6.171   5.891   4.149  2.8206 -0.3721  0.6307
10769TIP3   OH232249   5.287   2.997   6.537 -0.4674  0.5225  0.0793
10769TIP3    H132250   5.378   3.023   6.543 -0.4733  0.1325  2.3584
10769TIP3    H232251   5.238   3.066   6.582 -1.0021 -0.6287  1.3119
10770TIP3   OH232252   7.479   3.678   5.137 -0.3911 -0.1766  0.4682
10770TIP3    H132253   7.535   3.636   5.203  0.1754 -2.0251 -1.1460
10770TIP3    H232254   7.395   3.691   5.181  0.1082 -0.9958  1.6781
10771TIP3   OH232255   0.799   3.128   5.892  0.0916 -0.2838 -0.4766
10771TIP3    H132256   0.799   3.056   5.830 -0.2495 -1.2098  0.5892
10771TIP3    H232257   0.733   3.189   5.858 -0.6381 -1.1440 -0.6101
10772TIP3   OH232258   6.762   3.217   6.037 -0.2941 -0.1883  0.0291
10772TIP3    H132259   6.758   3.178   6.125 -2.1061 -2.0443 -0.8324
10772TIP3    H232260   6.727   3.149   5.979  1.8486  0.6193 -2.2904
10773TIP3   OH232261   0.844   1.624   5.432 -0.6857 -0.1509  0.7810
10773TIP3    H132262   0.896   1.693   5.472 -0.9403 -0.6566  1.9837
10773TIP3    H232263   0.807   1.665   5.353 -1.0380  1.1626  1.6130
10774TIP3   OH232264   7.255   1.829   3.456 -0.1112  0.3846 -0.4256
10774TIP3    H132265   7.299   1.753   3.494  0.0457  0.3777 -0.6157
10774TIP3    H232266   7.199   1.792   3.388 -1.2251  0.2919  0.5313
10775TIP3   OH232267   7.301   1.909   6.576  0.1824 -0.5406  0.1977
10775TIP3    H132268   7.307   1.815   6.564 -0.5317 -0.6141  0.4206
10775TIP3    H232269   7.222   1.935   6.528  0.2402 -0.0893  0.3421
10776TIP3   OH232270   0.079   2.522   6.490 -0.0017 -0.1829  0.6068
10776TIP3    H132271   0.114   2.538   6.402 -0.3833  0.6138  0.5954
10776TIP3    H232272   0.049   2.431   6.487  0.9325 -0.4826  0.2369
10777TIP3   OH232273   0.615   4.104   4.189 -0.3726 -0.4644  0.3883
10777TIP3    H132274   0.620   4.048   4.266  1.0393  0.0361  0.6709
10777TIP3    H232275   0.540   4.070   4.140 -0.1835 -1.9117  1.0777
10778TIP3   OH232276   7.533   3.711   6.363  0.7103 -0.2948 -0.3048
10778TIP3    H132277   7.455   3.665   6.330  1.2165 -1.1896 -0.2800
10778TIP3    H232278   7.603   3.647   6.355  1.3342  0.3226  0.2009
10779TIP3   OH232279   8.100   3.400   6.320  0.2248  0.1416 -0.0905
10779TIP3    H132280   8.188   3.403   6.359 -0.0534 -1.3280  0.6905
10779TIP3    H232281   8.105   3.459   6.245  1.3372  1.5199  1.0402
10780TIP3   OH232282   7.230   3.782   6.779  0.3777  0.2398 -0.2169
10780TIP3    H132283   7.266   3.846   6.718  0.9507  0.0194 -0.1212
10780TIP3    H232284   7.280   3.794   6.859 -1.6118  1.7739  0.8264
10781TIP3   OH232285   2.199   2.228   0.216 -0.0002  0.2394  0.2531
10781TIP3    H132286   2.248   2.181   0.149 -1.3969 -0.5941 -0.1996
10781TIP3    H232287   2.119   2.177   0.227 -0.5149  1.2782  1.3810
10782TIP3   OH232288   0.436   4.453   5.439 -0.6740  0.0072 -0.0722
10782TIP3    H132289   0.419   4.389   5.508  2.7879  0.8886  1.6955
10782TIP3    H232290   0.355   4.503   5.432 -1.9694 -1.8193  1.4865
10783TIP3   OH232291   6.632   3.288   5.089 -0.0025  0.1988 -0.0869
10783TIP3    H132292   6.710   3.302   5.035 -1.2168 -0.9125 -2.1767
10783TIP3    H232293   6.588   3.373   5.091  1.9219  1.1984  2.2472
10784TIP3   OH232294   0.509   1.285   5.192 -0.5203  0.3160  0.1927
10784TIP3    H132295   0.471   1.333   5.119 -0.7534 -0.3776 -0.1462
10784TIP3    H232296   0.500   1.193   5.167  0.1112  0.1061  0.7392
10785TIP3   OH232297   8.036   0.460   4.336 -0.0893 -0.3741 -0.4187
10785TIP3    H132298   8.048   0.445   4.242  2.9678 -1.5732  0.1046
10785TIP3    H232299   8.076   0.546   4.351  1.3160 -1.1003  0.1025
10786TIP3   OH232300   4.981   4.335   5.873  0.0061 -0.4097 -0.0033
10786TIP3    H132301   4.927   4.256   5.876 -0.0709 -0.3343  0.5974
10786TIP3    H232302   5.071   4.303   5.869  0.0378 -0.5322  1.4052
10787TIP3   OH232303   6.803   1.426   6.080 -0.2574  0.5148 -0.3668
10787TIP3    H132304   6.724   1.388   6.043  1.0793 -1.1195 -1.6324
10787TIP3    H232305   6.859   1.350   6.099  1.0061  1.6473  0.4989
10788TIP3   OH232306   6.997   3.013   5.279 -0.3160  0.0735 -0.0382
10788TIP3    H132307   6.980   3.108   5.275 -0.5779  0.1508  2.2917
10788TIP3    H232308   7.073   3.005   5.337  0.2190 -1.1108 -0.8821
10789TIP3   OH232309   0.850   3.632   3.113 -0.4806 -0.3858  0.4877
10789TIP3    H132310   0.834   3.722   3.139 -3.3724 -1.7553  3.8891
10789TIP3    H232311   0.805   3.622   3.030 -1.0457  1.0375  0.6202
10790TIP3   OH232312   7.195   2.374   6.000 -0.6693 -0.6053  0.1754
10790TIP3    H132313   7.263   2.311   5.977 -0.4093 -0.4542  0.5219
10790TIP3    H232314   7.197   2.438   5.929  0.6845  0.3068  1.0033
10791TIP3   OH232315   6.657   1.386   4.513 -0.1697 -0.3944 -0.4071
10791TIP3    H132316   6.687   1.396   4.422  0.4539 -1.1707 -0.2896
10791TIP3    H232317   6.709   1.313   4.548  0.2194  0.4478  0.8319
10792TIP3   OH232318   5.015   7.493   5.152  0.0079  0.4067  0.5892
10792TIP3    H132319   4.931   7.529   5.181  0.3876  0.0851  2.1039
10792TIP3    H232320   5.019   7.405   5.190  0.1038 -0.3917 -1.2116
10793TIP3   OH232321   0.344   2.574   5.741  0.2582 -0.0442  0.0119
10793TIP3    H132322   0.332   2.485   5.709  0.8265 -0.5678  1.2428
10793TIP3    H232323   0.261   2.618   5.722 -0.7795 -1.4085  1.2800
10794TIP3   OH232324   5.998   2.627   3.823 -0.4210 -0.3182  0.5466
10794TIP3    H132325   5.945   2.698   3.861  1.0770  0.7394  0.6982
10794TIP3    H232326   5.947   2.597   3.748 -1.0295  1.0025  0.4171
10795TIP3   OH232327   7.591   1.674   6.005 -0.1935  0.4374  0.2735
10795TIP3    H132328   7.541   1.718   5.937 -0.8195  2.3432  1.9121
10795TIP3    H232329   7.552   1.586   6.010 -1.3399  0.8833 -0.5619
10796TIP3   OH232330   5.786   2.802   6.169  0.4055 -0.0610 -0.4306
10796TIP3    H132331   5.779   2.802   6.074  0.2829 -1.0957 -0.4261
10796TIP3    H232332   5.710   2.852   6.198 -1.1816 -2.1811 -0.7856
10797TIP3   OH232333   5.950   5.056   6.712 -0.2330  0.4086 -0.3084
10797TIP3    H132334   5.907   5.137   6.739 -2.2366  0.3087 -3.0166
10797TIP3    H232335   5.890   5.015   6.650  1.3690 -2.4783 -0.0859
10798TIP3   OH232336   5.829   7.116   5.107  0.4356  0.3805 -0.5631
10798TIP3    H132337   5.816   7.177   5.034  2.0523  0.2729 -0.9624
10798TIP3    H232338   5.767   7.045   5.091 -1.0182  1.6141 -0.4361
10799TIP3   OH232339   1.011   7.885   0.312 -0.3406 -0.1472  0.1437
10799TIP3    H132340   1.084   7.827   0.294 -0.9608 -0.7314 -0.5185
10799TIP3    H232341   0.952   7.874   0.238 -1.2945 -0.0008  0.8634
10800TIP3   OH232342   3.434   7.542   0.428  0.4120 -0.5422 -0.1510
10800TIP3    H132343   3.372   7.477   0.461  0.5440  0.0563  1.3389
10800TIP3    H232344   3.473   7.502   0.351 -0.4570 -1.6886 -0.0091
10801TIP3   OH232345   7.921   2.456   6.203 -0.1632  0.1936 -0.0795
10801TIP3    H132346   7.984   2.428   6.270 -1.0811  1.0646  1.1800
10801TIP3    H232347   7.974   2.474   6.126  0.9799 -0.3414  0.5712
10802TIP3   OH232348   6.189   4.903   6.749 -0.1740  0.2698  0.4103
10802TIP3    H132349   6.108   4.951   6.731  0.8562  2.8106  2.2690
10802TIP3    H232350   6.259   4.959   6.716  0.9434 -1.2961  0.0220
10803TIP3   OH232351   7.148   4.469   5.459 -0.5083  0.0547  0.1270
10803TIP3    H132352   7.066   4.499   5.500 -2.4554 -2.4661 -1.7247
10803TIP3    H232353   7.179   4.399   5.517 -0.6463 -0.2263 -0.1388
10804TIP3   OH232354   6.078   3.682   5.759  0.1783 -0.3982 -0.0131
10804TIP3    H132355   6.111   3.639   5.838  0.5536 -0.3237 -0.1296
10804TIP3    H232356   5.999   3.633   5.736 -0.1157 -0.2164  0.5975
10805TIP3   OH232357   8.220   5.860   3.739  0.6349  0.7298 -0.5137
10805TIP3    H132358   8.132   5.893   3.720 -0.0513  0.7293  2.4131
10805TIP3    H232359   8.214   5.766   3.726 -0.0532  0.6222  0.5669
10806TIP3   OH232360   7.635   3.817   5.469  0.4335 -0.7455 -0.1993
10806TIP3    H132361   7.679   3.876   5.531  0.1703 -0.5409 -0.2036
10806TIP3    H232362   7.684   3.826   5.388  0.9060 -1.1710  0.0399
10807TIP3   OH232363   6.302   3.638   5.949 -0.1327 -0.3781 -0.4681
10807TIP3    H132364   6.360   3.570   5.983  0.6772  0.8896  0.7331
10807TIP3    H232365   6.358   3.716   5.944 -1.2652  0.4030 -1.0465
10808TIP3   OH232366   4.264   3.311   3.569  0.2242 -0.0024 -0.5378
10808TIP3    H132367   4.211   3.368   3.514  0.0130 -0.8019 -1.1650
10808TIP3    H232368   4.335   3.367   3.601  1.5968 -0.0636 -3.3783
10809TIP3   OH232369   4.916   0.092   6.348 -1.3732  0.0667 -0.4680
10809TIP3    H132370   4.946   0.023   6.406 -1.5796 -0.3735 -0.8855
10809TIP3    H232371   4.881   0.159   6.407 -2.7384 -0.9207 -0.1244
10810TIP3   OH232372   6.695   1.807   6.535 -0.2454  0.1257  0.0510
10810TIP3    H132373   6.650   1.886   6.566 -0.6338  0.7621 -2.0614
10810TIP3    H232374   6.624   1.752   6.499  0.2831 -0.2478 -0.4228
10811TIP3   OH232375   0.165   2.741   5.184 -0.1629 -0.0326 -0.2483
10811TIP3    H132376   0.177   2.793   5.104 -0.1496 -0.6739 -0.6623
10811TIP3    H232377   0.243   2.760   5.237  1.7172 -2.5139 -2.0094
10812TIP3   OH232378   0.094   2.582   5.455  0.0725  0.5967 -0.1869
10812TIP3    H132379   0.102   2.487   5.465 -0.0492  0.7583  1.6004
10812TIP3    H232380   0.153   2.603   5.382  0.2815 -0.8138 -0.4428
10813TIP3   OH232381   1.568   6.682   0.570  0.3488 -0.4862 -0.1019
10813TIP3    H132382   1.609   6.596   0.581 -1.9004 -1.5825 -0.0797
10813TIP3    H232383   1.475   6.664   0.559 -0.2443  1.9907  0.4017
10814TIP3   OH232384   6.452   3.236   5.482 -0.3553 -0.0328 -0.5749
10814TIP3    H132385   6.530   3.204   5.435 -0.6216 -1.5851  0.0064
10814TIP3    H232386   6.486   3.265   5.566 -0.3722 -0.5749 -0.3772
10815TIP3   OH232387   4.964   1.223   5.281 -0.6025 -0.1288  0.2235
10815TIP3    H132388   5.054   1.247   5.303 -0.6922 -0.4758  1.0117
10815TIP3    H232389   4.967   1.128   5.268 -0.5696  0.0618 -1.2164
10816TIP3   OH232390   6.276   3.808   5.638  0.5741  0.1380 -0.0912
10816TIP3    H132391   6.336   3.734   5.637 -0.1761 -0.4737 -0.5480
10816TIP3    H232392   6.196   3.774   5.678 -0.0371  0.4800 -0.9946
10817TIP3   OH232393   0.585   1.417   5.440 -0.2626  0.4380 -0.3255
10817TIP3    H132394   0.521   1.368   5.387  0.1399  0.4873 -0.8563
10817TIP3    H232395   0.669   1.396   5.401 -0.0878  1.5849 -0.5789
10818TIP3   OH232396   6.857   4.202   5.057  0.1523 -0.0357  0.0583
10818TIP3    H132397   6.835   4.145   5.131 -2.5344  0.4137 -0.3392
10818TIP3    H232398   6.785   4.265   5.053  2.7929  3.1196  0.1466
10819TIP3   OH232399   3.088   5.983   0.719  0.2363  0.7497 -0.0260
10819TIP3    H132400   3.109   6.043   0.791  0.7146  0.9010 -0.2934
10819TIP3    H232401   3.046   5.909   0.762  0.8743  0.6593  0.4526
10820TIP3   OH232402   4.552   3.577   6.249  0.1220 -0.3417 -0.1741
10820TIP3    H132403   4.617   3.534   6.304  0.2550  0.8607  0.6408
10820TIP3    H232404   4.524   3.510   6.187  2.3782 -0.7825 -0.7505
10821TIP3   OH232405   6.142   3.299   4.876  0.0707  0.1163  0.5834
10821TIP3    H132406   6.220   3.340   4.912 -0.2656 -0.3050  1.7966
10821TIP3    H232407   6.177   3.227   4.822  0.4644 -1.2238  2.5934
10822TIP3   OH232408   8.060   3.223   5.411 -0.0003  0.3652  0.5087
10822TIP3    H132409   8.035   3.277   5.486 -2.1432  3.2928 -2.2022
10822TIP3    H232410   8.155   3.232   5.406 -0.1169  2.2286  1.3116
10823TIP3   OH232411   5.806   0.190   5.948  0.3324 -0.0949  0.1774
10823TIP3    H132412   5.842   0.107   5.979 -0.6483 -0.7610 -0.4403
10823TIP3    H232413   5.866   0.256   5.982  0.4229 -0.9550  1.7493
10824TIP3   OH232414   7.272   7.819   0.306  0.2762 -0.1798  0.3988
10824TIP3    H132415   7.344   7.762   0.334 -0.2563 -0.6970  0.7312
10824TIP3    H232416   7.313   7.882   0.246  0.7268 -1.4679 -0.6825
10825TIP3   OH232417   2.138   0.033   0.501 -0.2337  0.7104  0.8643
10825TIP3    H132418   2.093   0.098   0.447  1.5162  1.8587  0.7509
10825TIP3    H232419   2.106  -0.051   0.468 -0.4203  1.4424 -0.8837
10826TIP3   OH232420   8.139   1.935   6.771  0.1232 -0.3862  0.4359
10826TIP3    H132421   8.078   1.964   6.839 -2.9326 -0.6328 -2.1019
10826TIP3    H232422   8.168   1.849   6.801 -1.6211 -0.7364  1.1882
10827TIP3   OH232423   4.504   1.144   0.158 -0.2795 -0.1353  0.4456
10827TIP3    H132424   4.550   1.227   0.148  0.8697 -0.8086  0.0892
10827TIP3    H232425   4.426   1.165   0.210 -0.4548  1.3180 -0.4036
10828TIP3   OH232426   0.853   2.696   5.073 -0.4540  0.1490 -0.3712
10828TIP3    H132427   0.948   2.705   5.086 -0.3145 -2.1659  0.4789
10828TIP3    H232428   0.826   2.632   5.140 -2.2710 -0.7225 -1.9095
10829TIP3   OH232429   7.517   3.776   6.095 -0.4048 -0.1429 -0.9937
10829TIP3    H132430   7.534   3.775   6.189 -1.6598 -0.6250 -0.7472
10829TIP3    H232431   7.435   3.826   6.086 -0.0917  0.2228 -1.8657
10830TIP3   OH232432   0.097   0.674   5.916  0.5523 -0.0066  0.0335
10830TIP3    H132433   0.166   0.623   5.874  1.1421  0.8952 -0.0910
10830TIP3    H232434   0.032   0.687   5.847  0.1288 -1.0763  0.2208
10831TIP3   OH232435   0.342   2.398   5.160  0.5247  0.9173 -0.1685
10831TIP3    H132436   0.254   2.437   5.166  0.3791  0.7041 -0.9506
10831TIP3    H232437   0.384   2.444   5.087  1.9718  2.8065  1.7669
10832TIP3   OH232438   6.481   2.736   0.355  0.6785 -0.4990 -0.2605
10832TIP3    H132439   6.445   2.713   0.440 -0.0176  0.8901 -0.1619
10832TIP3    H232440   6.568   2.697   0.354  0.5223 -0.8774  0.9160
10833TIP3   OH232441   1.203   0.279   4.677  0.2505  0.5548 -0.6460
10833TIP3    H132442   1.280   0.256   4.729  0.0535  0.2886 -0.4688
10833TIP3    H232443   1.153   0.338   4.734  0.3129  0.7165 -0.7565
10834TIP3   OH232444   3.950   2.510   5.487  0.2065  0.4722 -0.4844
10834TIP3    H132445   3.901   2.564   5.548  1.5130 -0.5565  1.5386
10834TIP3    H232446   3.888   2.491   5.416 -1.4253  1.4671  0.6453
10835TIP3   OH232447   7.610   5.591   3.796  0.1387  0.1861  0.2704
10835TIP3    H132448   7.541   5.604   3.731  0.9617  1.4037 -0.3756
10835TIP3    H232449   7.567   5.610   3.880 -0.2936  1.0489 -0.1376
10836TIP3   OH232450   3.975   3.490   0.097 -0.2616  0.0794  0.2017
10836TIP3    H132451   4.018   3.574   0.080  1.0304 -0.7138 -0.5084
10836TIP3    H232452   3.953   3.457   0.010  0.5916 -1.0168  0.3955
10837TIP3   OH232453   0.424   3.469   6.280  0.3376  0.1626  0.1014
10837TIP3    H132454   0.491   3.419   6.233 -0.7490 -3.0090  1.7491
10837TIP3    H232455   0.349   3.470   6.220  0.4424 -0.0154 -0.0345
10838TIP3   OH232456   0.445   3.970   5.308  0.2585 -0.3261  0.6128
10838TIP3    H132457   0.460   3.939   5.397 -0.1865 -1.8899  0.1471
10838TIP3    H232458   0.377   3.912   5.273 -1.0333  1.5374 -0.0722
10839TIP3   OH232459   5.363   4.490   4.269 -0.0898 -0.1200 -0.2072
10839TIP3    H132460   5.363   4.582   4.294 -0.2117 -0.2534  0.2925
10839TIP3    H232461   5.299   4.485   4.197 -1.3258 -0.1068  0.8726
10840TIP3   OH232462   0.002   4.350   5.267  0.7856  0.2884  0.0456
10840TIP3    H132463   0.039   4.268   5.300  0.5607 -0.0660 -0.5850
10840TIP3    H232464   0.071   4.415   5.284  1.2705 -0.1673 -0.1446
10841TIP3   OH232465   7.874   2.994   5.386 -0.3383  0.2993 -0.0548
10841TIP3    H132466   7.888   2.977   5.293 -1.4133  2.1559 -0.5869
10841TIP3    H232467   7.882   3.089   5.394  0.8125  0.0588  1.9521
10842TIP3   OH232468   6.205   3.339   5.274 -0.3464  0.0230  0.3066
10842TIP3    H132469   6.117   3.340   5.236 -0.0077 -0.2185 -0.5103
10842TIP3    H232470   6.219   3.247   5.297 -0.1511 -0.0114  0.0523
10843TIP3   OH232471   7.136   3.090   5.844  0.3585 -0.2023  0.3582
10843TIP3    H132472   7.140   2.995   5.837 -1.0704 -0.1828 -1.0959
10843TIP3    H232473   7.219   3.121   5.808  1.2207 -0.9370  1.7280
10844TIP3   OH232474   6.379   0.126   1.022 -0.1554  0.2897  0.4916
10844TIP3    H132475   6.453   0.177   0.992 -0.8207  1.3779  0.6883
10844TIP3    H232476   6.305   0.186   1.021 -1.2321 -1.0147 -0.5373
10845TIP3   OH232477   7.680   4.828   4.257  0.3720 -0.7970 -0.1676
10845TIP3    H132478   7.600   4.880   4.243  0.7405 -0.3107 -0.4578
10845TIP3    H232479   7.739   4.855   4.187  0.8036 -1.1342  0.0654
10846TIP3   OH232480   6.542   2.166   4.836  0.3199 -0.1636  0.5835
10846TIP3    H132481   6.577   2.077   4.831  0.8974  0.2005 -2.6908
10846TIP3    H232482   6.614   2.222   4.808 -0.9781  1.0761 -0.3746
10847TIP3   OH232483   7.497   5.201   5.042  0.1392  0.1117 -0.7672
10847TIP3    H132484   7.527   5.127   4.990  1.2687  0.9503 -1.3308
10847TIP3    H232485   7.577   5.248   5.066 -0.4615  0.4600  0.6424
10848TIP3   OH232486   0.764   3.634   4.458  0.4142  0.2459 -0.4285
10848TIP3    H132487   0.820   3.705   4.491  0.4881 -1.1350  2.6378
10848TIP3    H232488   0.682   3.644   4.507 -0.2820 -0.6402 -1.3859
10849TIP3   OH232489   7.393   3.946   4.036  0.1198 -0.1517  0.0771
10849TIP3    H132490   7.391   3.888   4.112 -0.7863 -0.5686 -0.2482
10849TIP3    H232491   7.339   4.021   4.062 -1.1565 -0.8329 -0.5619
10850TIP3   OH232492   6.166   3.335   5.576  0.4901  0.2533 -0.0626
10850TIP3    H132493   6.236   3.356   5.514  0.4836  1.2852  0.2658
10850TIP3    H232494   6.086   3.333   5.524  0.4688  1.2281 -0.0883
10851TIP3   OH232495   7.917   5.521   4.388  0.1200 -0.2259  0.2885
10851TIP3    H132496   7.916   5.485   4.299 -4.2393 -0.6625  0.4304
10851TIP3    H232497   7.946   5.448   4.443  3.2046  0.1466 -0.7212
10852TIP3   OH232498   7.298   3.131   4.595 -0.1414  0.2756  0.0268
10852TIP3    H132499   7.273   3.039   4.585 -0.3658  0.4958 -1.5796
10852TIP3    H232500   7.389   3.134   4.567 -0.0675  0.4950  0.2972
10853TIP3   OH232501   0.112   2.633   4.715 -0.0033  0.0535 -0.3831
10853TIP3    H132502   0.070   2.584   4.644 -0.7215 -0.3492  0.3181
10853TIP3    H232503   0.158   2.704   4.670  2.1461 -1.9906 -1.5352
10854TIP3   OH232504   7.982   1.680   5.693  0.2002  0.0472 -0.3954
10854TIP3    H132505   8.076   1.694   5.702  0.3748 -1.3564  0.0827
10854TIP3    H232506   7.972   1.585   5.688 -1.4795 -0.0061  2.7489
10855TIP3   OH232507   6.703   4.349   4.142 -0.1911 -0.4314 -0.2100
10855TIP3    H132508   6.688   4.444   4.136  2.1987 -0.0133  0.1478
10855TIP3    H232509   6.686   4.317   4.053 -1.8793  0.1907 -0.1198
10856TIP3   OH232510   0.661   3.923   5.160  0.1104  0.1001  0.4754
10856TIP3    H132511   0.605   3.976   5.215  0.1537  1.1862 -0.5100
10856TIP3    H232512   0.601   3.871   5.107  0.0130  1.2667 -0.5836
10857TIP3   OH232513   1.328   3.601   6.217  0.3150 -0.1923 -0.1080
10857TIP3    H132514   1.356   3.514   6.189  0.1568 -1.0073  2.2522
10857TIP3    H232515   1.320   3.596   6.312 -2.3777  1.6331 -0.1762
10858TIP3   OH232516   8.062   2.074   5.040  0.4700  0.0001  0.0673
10858TIP3    H132517   8.118   2.098   4.966  1.7496 -0.3232  0.9015
10858TIP3    H232518   8.102   1.994   5.075  0.4008  0.6179  1.6149
10859TIP3   OH232519   1.013  -0.014   6.118  0.7164  0.0317  0.6193
10859TIP3    H132520   0.971   0.026   6.193 -1.0402  0.8172 -0.7528
10859TIP3    H232521   1.063   0.057   6.077  0.0812  0.1004 -0.0562
10860TIP3   OH232522   7.486   2.723   4.301  0.4910  0.0081  0.2561
10860TIP3    H132523   7.551   2.791   4.320  0.0001  0.5048  0.1446
10860TIP3    H232524   7.412   2.744   4.358 -0.2097  0.3631 -0.7869
10861TIP3   OH232525   1.467   0.547   5.204  0.3021  0.1321 -0.0266
10861TIP3    H132526   1.440   0.465   5.246  0.2772  0.9910  1.6719
10861TIP3    H232527   1.552   0.566   5.243  0.6325  0.5335 -0.9547
10862TIP3   OH232528   0.451   0.130   5.374 -0.1828  0.3634 -0.0177
10862TIP3    H132529   0.401   0.141   5.455 -0.0441 -0.8539  0.2398
10862TIP3    H232530   0.434   0.210   5.325 -0.9629  0.7387  0.8395
10863TIP3   OH232531   7.828   2.509   4.417 -0.0771  0.5416 -0.4205
10863TIP3    H132532   7.870   2.592   4.394  0.5362  0.4954  0.5203
10863TIP3    H232533   7.766   2.533   4.487  1.1483 -0.0264  0.8794
10864TIP3   OH232534   8.467   0.856   5.014 -0.5361 -0.3297 -0.0366
10864TIP3    H132535   8.562   0.863   5.025 -0.6438  0.5642  0.3714
10864TIP3    H232536   8.451   0.886   4.925 -0.7710  2.8543  1.0071
10865TIP3   OH232537   0.309   2.301   5.699  0.3367 -0.0716 -0.0553
10865TIP3    H132538   0.381   2.241   5.718 -0.7979 -1.7357 -0.9187
10865TIP3    H232539   0.243   2.281   5.765 -0.2027 -0.0006 -0.5797
10866TIP3   OH232540   8.051   3.815   5.199  0.3151  0.3266  0.8043
10866TIP3    H132541   8.021   3.904   5.219  1.9739  0.7051  1.6621
10866TIP3    H232542   8.068   3.815   5.105 -1.6669  0.3066  0.4285
10867TIP3   OH232543   6.463   4.061   4.166 -0.0805 -0.0763 -0.7453
10867TIP3    H132544   6.522   4.087   4.237 -0.7496  1.5745 -0.7491
10867TIP3    H232545   6.465   3.966   4.166  2.0209 -0.0578 -0.2746
10868TIP3   OH232546   7.357   1.515   6.003 -0.1437  0.0063 -0.2757
10868TIP3    H132547   7.293   1.461   5.955 -0.6500  0.2999  0.0669
10868TIP3    H232548   7.308   1.551   6.077  0.2493  0.7486 -0.3672
10869TIP3   OH232549   5.249   6.870   0.248  0.0144 -0.2080 -0.4854
10869TIP3    H132550   5.276   6.788   0.207  0.2705 -0.9513  1.1352
10869TIP3    H232551   5.261   6.855   0.342 -0.9860  1.2995 -0.0999
10870TIP3   OH232552   8.057   2.629   5.558 -0.2478 -0.1443  0.2273
10870TIP3    H132553   8.053   2.559   5.492 -1.1409 -1.2391  1.4159
10870TIP3    H232554   8.046   2.584   5.642  1.0942  1.2026  1.1606
10871TIP3   OH232555   0.029   3.102   6.741  1.1201  0.2868 -0.1733
10871TIP3    H132556  -0.044   3.042   6.756 -0.1861  1.6618 -0.9595
10871TIP3    H232557   0.090   3.083   6.813 -0.3488 -0.3464  0.9389
10872TIP3   OH232558   0.941   4.781   5.551 -0.5066 -0.4030  0.2594
10872TIP3    H132559   0.940   4.717   5.481  0.3453 -0.0153 -0.1188
10872TIP3    H232560   1.033   4.786   5.578 -0.4219  1.1634 -0.2124
10873TIP3   OH232561   0.664   2.443   4.716 -0.8023  0.2419 -0.1900
10873TIP3    H132562   0.725   2.375   4.686  0.2848  1.1732 -0.1290
10873TIP3    H232563   0.593   2.441   4.652  1.4082  2.0936 -2.8422
10874TIP3   OH232564   4.573   1.820   1.146 -0.2384  0.9755  0.4855
10874TIP3    H132565   4.620   1.757   1.091 -0.8299  0.5699  0.4295
10874TIP3    H232566   4.641   1.870   1.190  0.2518  0.2363  0.5865
10875TIP3   OH232567   6.280   2.048   0.363 -0.0311 -0.0440  0.0166
10875TIP3    H132568   6.213   2.081   0.303  0.5324  0.0955 -0.5500
10875TIP3    H232569   6.356   2.032   0.306 -0.0116 -1.4741  0.4314
10876TIP3   OH232570   2.339   6.998   0.465 -0.1948 -0.3367  0.0387
10876TIP3    H132571   2.380   7.005   0.378  0.8101  0.4336  0.5492
10876TIP3    H232572   2.400   6.944   0.515 -0.1374  0.2618  0.6167
10877TIP3   OH232573   6.994   4.191   4.819 -0.4431 -0.2750  0.1904
10877TIP3    H132574   6.962   4.199   4.908  0.6778 -2.0744  0.7823
10877TIP3    H232575   7.080   4.149   4.828 -0.6600 -1.1987 -1.7850
10878TIP3   OH232576   6.894   4.159   4.194 -0.1566  0.0259  0.2842
10878TIP3    H132577   6.837   4.233   4.175 -0.5922 -0.2405  0.5395
10878TIP3    H232578   6.967   4.196   4.244  1.5966  0.9431 -2.8169
10879TIP3   OH232579   1.789   3.790   4.473  0.3792  0.1876  0.1142
10879TIP3    H132580   1.696   3.769   4.484 -0.1625  1.3741 -1.9580
10879TIP3    H232581   1.791   3.883   4.450  1.8764 -0.3597 -2.2173
10880TIP3   OH232582   6.637   5.599   2.021  1.0066 -0.2613 -0.3439
10880TIP3    H132583   6.607   5.625   1.934  0.8256 -1.9428 -0.7967
10880TIP3    H232584   6.732   5.609   2.018  0.8018  2.0687  0.0856
10881TIP3   OH232585   8.457   2.972   6.281 -0.7487  0.5323  0.2280
10881TIP3    H132586   8.482   2.898   6.226 -2.0254 -0.6466  1.1783
10881TIP3    H232587   8.517   2.968   6.355 -2.0248 -0.7572  1.2379
10882TIP3   OH232588   3.246   6.572   0.519  0.3294  0.1085 -0.0104
10882TIP3    H132589   3.203   6.641   0.468  1.8486  1.4658  0.5066
10882TIP3    H232590   3.337   6.574   0.491  0.6932 -0.7171  1.0666
10883TIP3   OH232591   7.873   3.252   6.239 -0.1863  0.3355 -0.5306
10883TIP3    H132592   7.947   3.310   6.254  0.7208 -0.4777 -1.7968
10883TIP3    H232593   7.796   3.305   6.259  0.6777  1.5890 -0.5095
10884TIP3   OH232594   6.921   3.292   4.483 -0.3753 -0.3782 -0.1139
10884TIP3    H132595   6.905   3.379   4.448 -0.6866 -0.2417  0.3610
10884TIP3    H232596   7.017   3.285   4.488 -0.3610  0.3539  0.8746
10885TIP3   OH232597   7.641   1.652   6.375  0.2999 -0.0477  0.6794
10885TIP3    H132598   7.577   1.581   6.368  0.0134  0.4345 -2.0919
10885TIP3    H232599   7.587   1.732   6.381  0.5919  0.3784 -1.8967
10886TIP3   OH232600   6.359   3.955   6.511 -0.1583 -0.0468  0.1692
10886TIP3    H132601   6.398   3.947   6.424 -0.7284  1.0974 -0.1913
10886TIP3    H232602   6.409   3.894   6.565  0.5932 -0.3150 -0.8237
10887TIP3   OH232603   8.303   5.350   3.676  0.3786  0.5409  0.0086
10887TIP3    H132604   8.272   5.314   3.759 -1.0405  0.1195 -0.6809
10887TIP3    H232605   8.393   5.319   3.669  0.1737 -0.3078  0.9004
10888TIP3   OH232606   0.085   0.367   4.828 -0.3728 -0.4116 -0.3623
10888TIP3    H132607   0.042   0.286   4.853 -0.7994  0.0013  0.2537
10888TIP3    H232608   0.058   0.382   4.737 -0.6629 -0.7084 -0.3224
10889TIP3   OH232609   6.650   3.896   5.036  0.2672 -0.3522  0.0937
10889TIP3    H132610   6.646   3.971   5.096 -1.4879 -1.0225  0.8481
10889TIP3    H232611   6.606   3.826   5.084  2.2710 -1.9964 -0.4274
10890TIP3   OH232612   7.693   0.513   5.214  0.1453  0.3107 -0.3083
10890TIP3    H132613   7.653   0.431   5.242 -1.3449  0.8039 -0.9522
10890TIP3    H232614   7.756   0.487   5.147 -0.3965 -0.2939 -0.5832
10891TIP3   OH232615   8.499   0.843   6.503 -0.1954  0.5791 -0.1469
10891TIP3    H132616   8.450   0.876   6.428 -0.3711  1.3711  0.2998
10891TIP3    H232617   8.464   0.755   6.518 -2.0074  1.3762  0.5790
10892TIP3   OH232618   0.565   5.020   3.611  0.0583  0.0631  0.7398
10892TIP3    H132619   0.549   4.931   3.581  2.3664  0.0673 -0.5973
10892TIP3    H232620   0.616   5.009   3.692  1.4486  0.1640 -0.1081
10893TIP3   OH232621   8.197   3.987   6.010  0.1340  0.3771 -0.2528
10893TIP3    H132622   8.118   4.004   5.958 -0.4880  1.9795  1.1956
10893TIP3    H232623   8.267   3.981   5.944 -0.7105  1.9598 -1.3352
10894TIP3   OH232624   1.466   5.240   5.044  0.2297 -0.4016  0.0866
10894TIP3    H132625   1.546   5.220   5.093  0.6631  0.8108 -0.1115
10894TIP3    H232626   1.490   5.222   4.953  0.7626  1.4141 -0.1435
10895TIP3   OH232627   7.085   1.434   5.218  0.7743 -0.3240  0.2509
10895TIP3    H132628   7.136   1.375   5.273  0.9021  0.4549  0.9762
10895TIP3    H232629   7.145   1.457   5.146  0.7340 -1.0411 -0.0185
10896TIP3   OH232630   3.092   6.193   0.931 -0.0714  0.0166 -0.2053
10896TIP3    H132631   3.056   6.133   0.995 -0.5684  0.1022 -0.4026
10896TIP3    H232632   3.152   6.248   0.981 -0.1437 -0.1844  0.1061
10897TIP3   OH232633   8.401   4.173   4.290  0.5516  0.4040  0.0768
10897TIP3    H132634   8.368   4.256   4.325 -0.3040 -0.4915  1.4620
10897TIP3    H232635   8.456   4.198   4.216  0.0225  2.1835  0.2620
10898TIP3   OH232636   2.599   3.991   6.337  0.2985 -0.2185  0.1323
10898TIP3    H132637   2.670   3.941   6.376  0.1332 -0.1785  0.4908
10898TIP3    H232638   2.541   3.925   6.298  0.9020 -0.2063 -0.7910
10899TIP3   OH232639   0.753   4.187   3.726 -0.3554  0.3073 -0.0482
10899TIP3    H132640   0.802   4.205   3.645 -0.3721 -1.0029 -0.3724
10899TIP3    H232641   0.700   4.110   3.705  1.8923 -1.9454  2.1106
10900TIP3   OH232642   7.989   3.080   6.013  0.7975  0.1712  0.8825
10900TIP3    H132643   7.915   3.109   6.066 -1.2871 -0.6012 -1.5265
10900TIP3    H232644   8.007   2.991   6.043 -0.9817 -0.6057 -0.2848
10901TIP3   OH232645   0.315   2.093   5.335 -0.2346  0.7735 -0.0531
10901TIP3    H132646   0.278   2.145   5.263  0.9325  0.9452 -0.5357
10901TIP3    H232647   0.405   2.077   5.309 -0.5026 -1.3206  0.1815
10902TIP3   OH232648   7.383   2.136   5.649  0.0532  0.1232 -0.1478
10902TIP3    H132649   7.395   2.087   5.567  0.8454  0.1769 -0.0728
10902TIP3    H232650   7.289   2.151   5.655  0.0247  0.4281 -1.2355
10903TIP3   OH232651   0.018   4.276   4.870 -0.3113 -0.1925 -0.7357
10903TIP3    H132652   0.091   4.337   4.885  1.2210 -2.1429 -0.1739
10903TIP3    H232653   0.056   4.203   4.822 -2.3258 -0.3624 -2.1592
10904TIP3   OH232654   0.080   4.238   5.929  0.1794 -0.4455  0.7984
10904TIP3    H132655   0.030   4.301   5.876 -0.1057 -1.3764 -0.0549
10904TIP3    H232656   0.112   4.290   6.003 -0.2139  0.6650  0.2147
10905TIP3   OH232657   4.616   5.665   0.220  0.3597 -0.6151  0.1091
10905TIP3    H132658   4.622   5.611   0.299  1.7394 -2.6459 -1.3287
10905TIP3    H232659   4.538   5.633   0.175  0.0296 -0.0126  0.2544
10906TIP3   OH232660   7.549   1.953   6.243  0.4197 -0.6341  0.4041
10906TIP3    H132661   7.493   2.008   6.188  0.6103  0.3250  1.1643
10906TIP3    H232662   7.612   1.915   6.182 -0.2579 -0.7196 -0.2600
10907TIP3   OH232663   0.458   1.421   4.961 -0.3482 -0.9912  0.0333
10907TIP3    H132664   0.451   1.515   4.978  0.6709 -0.8196 -0.4569
10907TIP3    H232665   0.552   1.403   4.966 -0.5693 -2.0596  0.5173
10908TIP3   OH232666   1.078   2.271   6.200 -0.3956  0.1458 -0.7552
10908TIP3    H132667   1.035   2.222   6.270 -0.0748 -0.3198 -0.8851
10908TIP3    H232668   1.168   2.280   6.229 -0.7416  1.7476 -0.1482
10909TIP3   OH232669   8.368   4.377   3.528  0.6245 -0.0439 -0.4316
10909TIP3    H132670   8.407   4.415   3.449  1.6543 -0.1214  0.0308
10909TIP3    H232671   8.338   4.452   3.578  1.4388  0.0933 -0.1453
10910TIP3   OH232672   0.022   1.610   5.635 -0.6164  0.3220  0.4109
10910TIP3    H132673   0.079   1.651   5.699  0.5924  0.7586 -0.9334
10910TIP3    H232674   0.043   1.516   5.640 -1.6189  0.1504  1.7201
10911TIP3   OH232675   8.397   5.942   5.258 -0.1027 -0.1372  0.2204
10911TIP3    H132676   8.457   5.999   5.307  2.2071 -1.3103 -1.1654
10911TIP3    H232677   8.384   5.866   5.316 -0.8323  0.4369  0.8205
10912TIP3   OH232678   8.183   3.103   5.822 -0.0425 -0.0740 -0.0197
10912TIP3    H132679   8.115   3.091   5.888 -0.5026  0.1757 -0.4519
10912TIP3    H232680   8.211   3.194   5.833 -0.1949 -0.0023 -0.2534
10913TIP3   OH232681   7.944   4.136   5.872 -0.3796 -0.0214 -0.2016
10913TIP3    H132682   7.945   4.182   5.956  1.1753 -1.3744  0.5528
10913TIP3    H232683   7.852   4.131   5.848 -1.0027 -1.2489  2.3327
10914TIP3   OH232684   0.197   5.550   0.493 -0.3390  0.3255  0.1652
10914TIP3    H132685   0.169   5.621   0.551  0.4130  0.8474 -0.0963
10914TIP3    H232686   0.288   5.534   0.519 -0.0328  0.4916 -0.7920
10915TIP3   OH232687   0.916   0.929   5.866  0.0533  0.7836 -0.0477
10915TIP3    H132688   0.831   0.973   5.857  1.0665  2.9012  0.3540
10915TIP3    H232689   0.927   0.917   5.960 -0.2554 -0.4271 -0.1639
10916TIP3   OH232690   7.545   1.856   3.734 -0.3942  0.2586 -0.0238
10916TIP3    H132691   7.510   1.899   3.812 -0.2586  0.0536  0.1510
10916TIP3    H232692   7.576   1.928   3.679  0.1617  0.3727  0.4282
10917TIP3   OH232693   0.045   1.249   5.198  0.3556 -0.7309  0.2785
10917TIP3    H132694   0.103   1.267   5.125 -0.6888 -1.0961 -0.6662
10917TIP3    H232695   0.040   1.332   5.246  0.9697 -0.4610 -0.1239
10918TIP3   OH232696   6.094   2.061   5.973 -0.3726  0.1030  0.1423
10918TIP3    H132697   6.139   2.076   6.057 -0.3597  0.6346  0.0415
10918TIP3    H232698   6.007   2.099   5.986 -1.0316 -1.5230  0.5706
10919TIP3   OH232699   7.889   4.690   5.610  0.0651  0.3736 -0.0138
10919TIP3    H132700   7.818   4.692   5.546 -0.0269 -2.4555 -0.0543
10919TIP3    H232701   7.969   4.689   5.558  0.0245 -0.4864 -0.0660
10920TIP3   OH232702   1.193   3.444   5.847  0.3145 -0.5027 -0.4136
10920TIP3    H132703   1.137   3.473   5.918 -0.0762 -0.4015 -0.7574
10920TIP3    H232704   1.262   3.509   5.842  0.7137 -0.8624  0.2984
10921TIP3   OH232705   1.321   2.075   5.109  0.1284  0.0283 -0.0096
10921TIP3    H132706   1.317   2.141   5.039  2.2415  0.3472  0.1121
10921TIP3    H232707   1.272   2.114   5.181 -0.6775  0.4143 -0.7477
10922TIP3   OH232708   8.150   5.211   3.491 -0.0580 -0.5157 -0.6725
10922TIP3    H132709   8.070   5.170   3.522 -0.9909  0.7779 -1.3181
10922TIP3    H232710   8.170   5.278   3.557 -0.1571 -0.0603 -1.1018
10923TIP3   OH232711   1.054   2.887   5.384  0.4843 -0.0604 -0.3033
10923TIP3    H132712   1.020   2.817   5.440 -1.6870  1.6454  0.5738
10923TIP3    H232713   0.993   2.960   5.396  1.6911  1.3977 -2.5621
10924TIP3   OH232714   6.858   4.201   6.011  0.2214  0.4512 -0.5566
10924TIP3    H132715   6.929   4.147   5.977  0.1882  0.4679 -0.6555
10924TIP3    H232716   6.849   4.272   5.947  0.1412  0.4700 -0.5250
10925TIP3   OH232717   7.965   3.559   6.501 -0.0849 -0.4493 -0.5703
10925TIP3    H132718   8.027   3.514   6.444 -0.2447 -0.3928 -0.7933
10925TIP3    H232719   7.900   3.492   6.522  0.0184 -0.4913 -0.3887
10926TIP3   OH232720   5.685   0.825   0.666  0.2693  0.7033 -0.1143
10926TIP3    H132721   5.690   0.915   0.633  0.4119  1.0253  0.7874
10926TIP3    H232722   5.697   0.833   0.761 -1.9141 -0.0524  0.2418
10927TIP3   OH232723   7.942   1.440   6.377 -0.5145 -0.2974  0.8085
10927TIP3    H132724   7.894   1.359   6.361 -0.4184 -0.5634  1.8531
10927TIP3    H232725   7.909   1.473   6.461 -2.0463  1.8490 -0.5625
10928TIP3   OH232726   7.163   4.439   5.775 -0.0800 -0.2234  0.1849
10928TIP3    H132727   7.214   4.368   5.815  0.3438  0.1907  0.3870
10928TIP3    H232728   7.227   4.508   5.761  0.0002 -0.7095 -2.0915
10929TIP3   OH232729   8.354   6.572   5.334  0.3432 -0.3992  1.0278
10929TIP3    H132730   8.416   6.629   5.289  0.0164 -0.8784 -0.0709
10929TIP3    H232731   8.268   6.604   5.307  0.1694 -2.1653 -0.6163
10930TIP3   OH232732   0.777   1.954   6.102 -0.0787 -0.6543  0.4976
10930TIP3    H132733   0.734   1.898   6.037  0.7294  0.4955 -1.0535
10930TIP3    H232734   0.870   1.932   6.096 -0.0315 -0.7417  1.4642
10931TIP3   OH232735   3.530   0.962   4.821  0.7408  0.1939  0.1833
10931TIP3    H132736   3.495   0.899   4.758 -1.4937  0.6856  0.8801
10931TIP3    H232737   3.517   1.048   4.780  1.9570  0.3471  0.0833
10932TIP3   OH232738   6.737   5.082   4.595 -0.1730  0.2270  0.1055
10932TIP3    H132739   6.773   5.103   4.681 -0.0450  1.7317 -0.3070
10932TIP3    H232740   6.654   5.128   4.591  0.4245  1.2436 -1.0702
10933TIP3   OH232741   2.483   5.124   0.258 -0.8980 -0.4253 -0.0222
10933TIP3    H132742   2.558   5.079   0.219 -1.6431 -1.3533 -0.3998
10933TIP3    H232743   2.437   5.163   0.184 -1.8522 -1.4935 -0.0080
10934TIP3   OH232744   8.080   3.729   5.486 -0.8252 -0.2825 -0.9109
10934TIP3    H132745   8.022   3.803   5.505 -0.9040 -0.3518 -0.8799
10934TIP3    H232746   8.152   3.767   5.435 -0.4267 -0.0235 -0.1588
10935TIP3   OH232747   0.044   1.447   4.827 -0.0128  0.2423 -0.3239
10935TIP3    H132748  -0.017   1.488   4.889  0.4154  2.5280 -1.3597
10935TIP3    H232749  -0.013   1.403   4.763 -0.5753  1.5411 -0.7328
10936TIP3   OH232750   8.070   3.897   6.396  0.1700 -0.4401  0.2737
10936TIP3    H132751   8.108   3.979   6.365 -1.6014  0.3121 -0.0127
10936TIP3    H232752   8.109   3.830   6.340  1.5723  0.2215  0.4548
10937TIP3   OH232753   2.788   4.534   6.617  0.0672 -0.3032 -0.2257
10937TIP3    H132754   2.828   4.619   6.599 -1.5082  1.1722  2.8069
10937TIP3    H232755   2.859   4.471   6.610  1.1559  1.1555 -3.0843
10938TIP3   OH232756   1.743   5.047   4.917  0.1891  0.2262 -0.1325
10938TIP3    H132757   1.808   5.015   4.980 -0.3450  0.4534  0.5377
10938TIP3    H232758   1.786   5.122   4.875  0.9463 -0.5657 -0.7852
10939TIP3   OH232759   7.645   0.777   1.282 -0.0549 -0.0356  0.0571
10939TIP3    H132760   7.694   0.844   1.234 -0.6424 -0.0476 -0.5707
10939TIP3    H232761   7.690   0.695   1.261 -0.3567 -0.0513 -0.5441
10940TIP3   OH232762   2.880   4.016   5.712 -0.1611 -0.4897  0.3835
10940TIP3    H132763   2.791   4.019   5.747  0.2958  0.6415  1.4908
10940TIP3    H232764   2.887   4.094   5.657  0.8939  0.7809  2.2325
10941TIP3   OH232765   8.426   2.181   1.380 -0.1643  0.1109  0.1786
10941TIP3    H132766   8.469   2.196   1.296 -0.3363  0.0938  0.0859
10941TIP3    H232767   8.439   2.088   1.398  0.8961  0.3622  0.7492
10942TIP3   OH232768   1.831   2.033   4.112 -0.6710 -0.4637 -0.3210
10942TIP3    H132769   1.784   2.039   4.194 -1.6646  0.0877 -0.9316
10942TIP3    H232770   1.852   2.123   4.089 -1.1010 -0.5513 -1.0752
10943TIP3   OH232771   0.133   4.179   5.600  0.0704 -0.4248  0.7894
10943TIP3    H132772   0.150   4.159   5.508  1.5779  1.6536  0.5714
10943TIP3    H232773   0.051   4.228   5.599  0.6417  0.5496  0.4000
10944TIP3   OH232774   7.187   2.723   2.984 -0.0035 -0.2971 -0.1419
10944TIP3    H132775   7.121   2.780   2.944  0.4252 -0.3872 -0.9999
10944TIP3    H232776   7.197   2.756   3.073 -0.0685  0.7018 -0.5010
10945TIP3   OH232777   3.448   7.028   5.388  0.0407  0.1890 -0.1237
10945TIP3    H132778   3.527   7.082   5.391 -0.6496  1.3012 -1.4523
10945TIP3    H232779   3.473   6.947   5.432  2.3112  0.0413 -1.6122
10946TIP3   OH232780   8.030   5.467   5.328  0.1298  0.0366 -0.3170
10946TIP3    H132781   8.102   5.480   5.265  0.1342 -0.5357 -0.4289
10946TIP3    H232782   8.070   5.422   5.402 -0.2827 -0.9877 -0.7174
10947TIP3   OH232783   1.252   4.220   5.980 -0.6485  0.0007  0.1958
10947TIP3    H132784   1.267   4.305   6.022 -0.9528 -0.4742  1.2716
10947TIP3    H232785   1.208   4.167   6.047 -2.8177 -0.1808 -1.2985
10948TIP3   OH232786   0.473   5.199   6.366  0.1962 -0.5067  0.2512
10948TIP3    H132787   0.514   5.122   6.404  0.2070 -0.6483 -0.0404
10948TIP3    H232788   0.410   5.229   6.432 -0.6804 -1.4824 -0.1169
10949TIP3   OH232789   0.982   2.467   5.611 -0.2156 -0.2564  0.2509
10949TIP3    H132790   1.061   2.415   5.624  0.3299 -0.0060 -1.9516
10949TIP3    H232791   0.968   2.468   5.517 -0.5091  3.1092  0.2510
10950TIP3   OH232792   5.021   7.841   1.577  0.0359 -0.5543  0.0531
10950TIP3    H132793   4.930   7.822   1.599 -0.2659 -0.3499 -0.9754
10950TIP3    H232794   5.061   7.868   1.659 -1.5049  1.9843  0.0044
10951TIP3   OH232795   0.009   3.379   6.643  0.2779 -0.3715 -0.2606
10951TIP3    H132796   0.093   3.413   6.675 -0.1912 -0.1389  0.7503
10951TIP3    H232797  -0.002   3.296   6.689  0.4181 -0.8810 -1.1397
10952TIP3   OH232798   8.403   3.557   6.166 -0.5226  0.3382 -0.1622
10952TIP3    H132799   8.335   3.593   6.222 -1.1677 -0.8987 -0.1390
10952TIP3    H232800   8.379   3.586   6.078 -1.0773 -0.0687 -0.1515
10953TIP3   OH232801   1.746   4.122   5.289 -0.5677  0.0881 -0.1252
10953TIP3    H132802   1.828   4.078   5.312  1.1580  2.7320 -1.0529
10953TIP3    H232803   1.773   4.202   5.245 -3.6801  0.3706 -1.6611
10954TIP3   OH232804   7.220   0.200   1.594 -0.2802 -0.0837  0.5884
10954TIP3    H132805   7.201   0.150   1.514  2.2158 -0.9811  0.4849
10954TIP3    H232806   7.278   0.142   1.644 -0.2353  1.2797  2.1265
10955TIP3   OH232807   5.356   0.553   2.114  0.7084 -0.2190  0.2501
10955TIP3    H132808   5.349   0.494   2.040  0.0792 -0.5661  0.5827
10955TIP3    H232809   5.283   0.529   2.171  1.1548  0.0745  0.9550
10956TIP3   OH232810   0.905   3.556   5.321 -0.2932 -1.2729 -0.0198
10956TIP3    H132811   0.907   3.648   5.346  0.7532 -0.8193 -1.6986
10956TIP3    H232812   0.987   3.542   5.274 -0.7983 -2.8622 -0.4656
10957TIP3   OH232813   7.399   1.437   0.295  0.2485  0.1932  0.1947
10957TIP3    H132814   7.444   1.521   0.294  0.7482 -0.0602  0.8202
10957TIP3    H232815   7.455   1.379   0.243 -0.1695  0.2835 -0.3583
10958TIP3   OH232816   7.352   0.844   1.999 -0.4226 -0.0297 -0.7236
10958TIP3    H132817   7.441   0.819   2.024 -0.9020 -0.9296  0.1267
10958TIP3    H232818   7.344   0.817   1.908  0.8894  2.0224 -1.4789
10959TIP3   OH232819   5.919   2.431   0.045 -0.1159  0.2515 -0.4612
10959TIP3    H132820   5.892   2.369   0.113  2.4172  0.2981  0.6391
10959TIP3    H232821   5.998   2.392   0.007 -0.8102  0.8281 -2.5672
10960TIP3   OH232822   6.750   1.663   0.736 -0.0325 -0.2585  0.3515
10960TIP3    H132823   6.765   1.701   0.823 -0.1115 -0.0410  0.2704
10960TIP3    H232824   6.659   1.684   0.716  0.0327 -0.1694  0.1479
10961TIP3   OH232825   2.458   5.686   6.395 -0.0241  0.1335  0.1235
10961TIP3    H132826   2.541   5.709   6.435 -0.4060  1.0486  0.4034
10961TIP3    H232827   2.408   5.643   6.464  0.2630 -0.5121 -0.0754
10962TIP3   OH232828   0.245   5.841   6.427 -0.2415  0.0505 -0.5266
10962TIP3    H132829   0.276   5.885   6.348 -1.8533 -0.1231 -1.2902
10962TIP3    H232830   0.153   5.868   6.434 -0.0109  0.3625  1.5004
10963TIP3   OH232831   5.948   0.641   0.519 -0.2235 -0.1110  0.1104
10963TIP3    H132832   5.888   0.653   0.445  0.1325  0.6107 -0.0683
10963TIP3    H232833   5.894   0.653   0.597  0.0325  2.2963 -0.0647
10964TIP3   OH232834   7.373   4.614   6.839  0.2354  0.0422 -0.4683
10964TIP3    H132835   7.454   4.665   6.838 -0.6429  1.4596 -1.0281
10964TIP3    H232836   7.386   4.547   6.772  0.6918  0.6944 -1.0459
10965TIP3   OH232837   3.168   4.707   5.291  0.5157  0.5268  0.0554
10965TIP3    H132838   3.256   4.741   5.302  0.4791  0.6102  0.0906
10965TIP3    H232839   3.163   4.681   5.199  0.5031  0.7331 -0.0030
10966TIP3   OH232840   7.237   0.631   0.838 -0.3781 -0.1465  0.6264
10966TIP3    H132841   7.149   0.595   0.829  0.1434 -1.5419  1.0480
10966TIP3    H232842   7.225   0.726   0.828 -2.0018 -0.2728  1.2809
10967TIP3   OH232843   4.780   6.964   0.999 -0.2515 -0.2425  0.5527
10967TIP3    H132844   4.732   6.920   0.928 -0.3817 -0.7454  0.9586
10967TIP3    H232845   4.865   6.985   0.960 -0.0065 -1.2856  0.5112
10968TIP3   OH232846   6.488   0.029   1.528  0.0757 -0.0777  0.2288
10968TIP3    H132847   6.525   0.107   1.486  0.4876 -1.2110 -1.5381
10968TIP3    H232848   6.398   0.054   1.550  0.7049  1.4510  1.2059
10969TIP3   OH232849   7.091   0.482   5.271  0.2515 -0.2279  0.1934
10969TIP3    H132850   7.012   0.439   5.303 -0.0270 -0.3096 -0.6038
10969TIP3    H232851   7.163   0.427   5.302 -0.0391 -0.5446  0.3014
10970TIP3   OH232852   8.093   0.545   1.310  0.5141 -0.4369  0.1522
10970TIP3    H132853   8.171   0.591   1.339  0.5944  0.2926 -1.1917
10970TIP3    H232854   8.110   0.523   1.219 -0.9374 -0.0715 -0.2291
10971TIP3   OH232855   1.173   2.332   2.656  0.5100  0.6208 -0.0900
10971TIP3    H132856   1.185   2.426   2.670  2.1983  0.6776 -1.7196
10971TIP3    H232857   1.243   2.307   2.595  0.8904 -1.9580  1.3176
10972TIP3   OH232858   7.282   0.291   0.327  0.6651 -0.2064 -0.4480
10972TIP3    H132859   7.264   0.198   0.313 -0.5054 -0.0294 -0.2207
10972TIP3    H232860   7.346   0.314   0.260 -0.6669 -0.6802 -1.9316
10973TIP3   OH232861   3.459   4.586   6.569 -0.5235 -0.5135  0.1051
10973TIP3    H132862   3.366   4.563   6.558 -0.0821 -1.9531 -0.7421
10973TIP3    H232863   3.504   4.501   6.576  0.7151  0.1772  0.7178
10974TIP3   OH232864   4.182   7.352   0.119  0.2706  0.3162 -0.1706
10974TIP3    H132865   4.161   7.307   0.202 -2.2614 -0.6058 -1.2553
10974TIP3    H232866   4.194   7.281   0.056  3.3715  0.9649 -0.3982
10975TIP3   OH232867   0.078   6.793   6.630  0.0344  0.2953  0.1307
10975TIP3    H132868  -0.006   6.748   6.638  0.3454 -0.4624 -0.7130
10975TIP3    H232869   0.055   6.885   6.616 -0.7013 -0.0919 -1.3258
10976TIP3   OH232870   3.853   0.516   0.777 -0.0597 -0.6181 -0.2820
10976TIP3    H132871   3.817   0.601   0.800  0.1683 -1.1238  2.0337
10976TIP3    H232872   3.792   0.480   0.712 -0.3981  1.0970 -0.9277
10977TIP3   OH232873   0.574   3.995   6.749 -0.1135 -0.2735  0.3268
10977TIP3    H132874   0.565   4.081   6.708  1.0252 -0.0914  0.4358
10977TIP3    H232875   0.626   4.011   6.827 -0.8428 -0.8941  0.9401
10978TIP3   OH232876   0.978   3.160   5.018  0.0044  0.2077  0.4337
10978TIP3    H132877   1.005   3.178   5.108  0.2908  0.3090  0.3256
10978TIP3    H232878   0.913   3.227   4.998  0.0689  0.2897  0.5044
10979TIP3   OH232879   4.013   4.833   5.365  0.1773  0.3307  0.2372
10979TIP3    H132880   4.031   4.834   5.271  0.2074 -1.9722  0.1912
10979TIP3    H232881   4.094   4.865   5.405  0.6992 -0.1020 -0.4581
10980TIP3   OH232882   6.888   0.346   0.548  0.0026  0.1619 -0.0686
10980TIP3    H132883   6.889   0.251   0.538  0.0074 -0.0608  1.9395
10980TIP3    H232884   6.809   0.365   0.598  1.2584  0.9706  1.6799
10981TIP3   OH232885   6.848   1.777   0.994  0.0293  0.3297 -0.0514
10981TIP3    H132886   6.901   1.768   1.074  2.1805 -1.0211 -1.5949
10981TIP3    H232887   6.763   1.739   1.018 -0.0422  1.7760  2.1976
10982TIP3   OH232888   1.408   3.334   6.216 -0.7189 -0.3636  0.3491
10982TIP3    H132889   1.368   3.275   6.280 -1.3840  0.2819  0.5383
10982TIP3    H232890   1.484   3.370   6.261 -0.2886 -1.0920  0.2206
10983TIP3   OH232891   0.151   5.177   5.224  0.4031  0.5922 -0.6605
10983TIP3    H132892   0.216   5.148   5.288  1.2907  1.0755 -1.3240
10983TIP3    H232893   0.199   5.239   5.169 -0.5351  0.6937 -1.3649
10984TIP3   OH232894   0.756   5.228   4.987 -0.5282  0.1249 -0.0846
10984TIP3    H132895   0.826   5.199   5.045  1.3716  1.3812 -1.6678
10984TIP3    H232896   0.722   5.308   5.028 -0.3335  0.0842  0.1572
10985TIP3   OH232897   0.992   2.160   5.939  0.0809  0.1575  0.1720
10985TIP3    H132898   1.009   2.089   6.002 -0.1993 -0.2584 -0.2232
10985TIP3    H232899   1.023   2.239   5.984  2.6102 -0.5042 -0.3050
10986TIP3   OH232900   3.883   1.657   0.063  0.3932  0.5718  0.2513
10986TIP3    H132901   3.878   1.649   0.158  0.4863  0.9638  0.2926
10986TIP3    H232902   3.963   1.610   0.039  0.1619  0.1412  0.3244
10987TIP3   OH232903   3.654   6.973   2.128  0.2009 -0.3538 -0.8394
10987TIP3    H132904   3.561   6.964   2.107 -0.0760  0.3118  0.0570
10987TIP3    H232905   3.675   7.063   2.103  0.4197 -0.2778 -0.3814
10988TIP3   OH232906   2.916   3.454   6.068 -0.0131 -0.2314  0.3696
10988TIP3    H132907   2.971   3.532   6.057  0.1370 -0.1900  1.4219
10988TIP3    H232908   2.905   3.445   6.162 -0.2612 -1.3278  0.2433
10989TIP3   OH232909   2.676   4.315   6.840  0.1596 -0.1550 -0.7970
10989TIP3    H132910   2.591   4.270   6.839  0.5007 -0.8015 -0.6248
10989TIP3    H232911   2.687   4.348   6.751 -0.4518  0.2619 -0.7215
10990TIP3   OH232912   0.671   2.843   5.219  0.4301  0.3928  0.2204
10990TIP3    H132913   0.721   2.912   5.263 -1.0847  2.7077 -1.5866
10990TIP3    H232914   0.733   2.804   5.158  1.2011  0.3612  1.0083
10991TIP3   OH232915   1.134   7.204   1.820  0.4264  0.0395  0.1207
10991TIP3    H132916   1.126   7.109   1.819 -0.5113  0.0300  2.9888
10991TIP3    H232917   1.198   7.224   1.752 -1.1776 -2.4352 -2.1979
10992TIP3   OH232918   3.328   7.280   0.453  0.2192 -0.4081 -0.4972
10992TIP3    H132919   3.381   7.256   0.377 -0.7105 -0.1427 -1.2535
10992TIP3    H232920   3.340   7.208   0.515  0.5804 -0.8822 -1.1100
10993TIP3   OH232921   0.013   1.972   6.280 -0.1833 -0.1547  0.1004
10993TIP3    H132922   0.009   1.975   6.376  0.7494  0.1537  0.1275
10993TIP3    H232923   0.080   1.907   6.261 -0.8771 -0.7480 -0.3568
10994TIP3   OH232924   7.559   1.337   0.738  0.3156 -0.3046  0.5269
10994TIP3    H132925   7.526   1.300   0.819  0.2753  1.0797  1.1465
10994TIP3    H232926   7.503   1.299   0.670  0.4341 -1.5654  1.1119
10995TIP3   OH232927   4.354   1.449   1.713  0.1892 -0.1987  0.7094
10995TIP3    H132928   4.398   1.534   1.705  0.3177 -0.3732 -0.5141
10995TIP3    H232929   4.264   1.471   1.740 -0.5789  0.5341 -2.2550
10996TIP3   OH232930   1.030   3.948   6.111 -0.0776 -0.1529  0.3485
10996TIP3    H132931   1.064   3.909   6.191 -0.4254 -0.0971  0.5239
10996TIP3    H232932   0.968   3.884   6.078 -0.3595  0.0783  0.4282
10997TIP3   OH232933   3.225   7.916   2.313  0.2561 -0.1184  0.2206
10997TIP3    H132934   3.209   7.852   2.244 -0.0753 -0.5674  0.7176
10997TIP3    H232935   3.208   8.001   2.271 -3.3743 -0.5600  0.7178
10998TIP3   OH232936   5.293   2.000   1.089 -0.3163  0.1212  0.5252
10998TIP3    H132937   5.297   2.016   0.995 -0.5938  0.1303  0.5152
10998TIP3    H232938   5.381   2.020   1.121  0.9185 -3.5006 -0.3040
10999TIP3   OH232939   6.176   0.265   0.920 -0.6365 -0.3578 -0.2057
10999TIP3    H132940   6.147   0.354   0.898  0.6358  0.2185  0.4410
10999TIP3    H232941   6.134   0.210   0.853  0.2424  0.9519 -1.8833
11000TIP3   OH232942   6.908   2.477   1.204 -0.0654 -0.2814  0.0942
11000TIP3    H132943   6.861   2.489   1.122 -2.0516  0.5520  1.3271
11000TIP3    H232944   6.911   2.382   1.216 -2.4228 -0.3238  0.5348
11001TIP3   OH232945   2.292   6.152   5.280 -0.1630 -0.2147 -0.0723
11001TIP3    H132946   2.342   6.080   5.319 -0.0234  0.5048  1.1037
11001TIP3    H232947   2.352   6.193   5.219 -1.0248 -2.6299 -2.6900
11002TIP3   OH232948   1.273   3.945   6.294 -0.7351 -0.3019 -0.1790
11002TIP3    H132949   1.229   4.030   6.298 -0.6524 -0.3206  1.4693
11002TIP3    H232950   1.228   3.892   6.360  1.1966 -0.5655  0.9618
11003TIP3   OH232951   1.976   3.144   5.037  0.5414  0.3949  0.2025
11003TIP3    H132952   1.964   3.230   4.997 -2.4604 -0.2492 -0.4334
11003TIP3    H232953   2.037   3.098   4.979 -0.0880  1.1008 -1.0395
11004TIP3   OH232954   3.038   4.720   6.661 -0.0001 -0.0856 -0.0797
11004TIP3    H132955   3.046   4.814   6.642  0.9750  0.0794  1.0785
11004TIP3    H232956   3.122   4.683   6.632  0.2180 -0.3507  0.8882
11005TIP3   OH232957   0.483   1.946   1.694  0.0166 -0.1934  0.0177
11005TIP3    H132958   0.541   1.913   1.625 -0.8848  1.0757 -1.3714
11005TIP3    H232959   0.448   1.867   1.736  0.1621 -0.9814 -1.3208
11006TIP3   OH232960   8.412   1.596   2.037 -0.3417 -0.0487  0.5670
11006TIP3    H132961   8.459   1.557   2.111 -2.4223  1.0010  2.5196
11006TIP3    H232962   8.433   1.689   2.041 -1.5310  0.2283  0.6774
11007TIP3   OH232963   6.969   0.599   1.073 -0.4947  0.3353 -0.2926
11007TIP3    H132964   7.041   0.584   1.134 -0.9283  1.1020  0.4193
11007TIP3    H232965   6.992   0.681   1.028 -0.7971  0.4498 -0.2427
11008TIP3   OH232966   7.839   0.590   2.445  0.2763  0.2648  0.0549
11008TIP3    H132967   7.876   0.556   2.364  0.8861  1.2615 -0.0933
11008TIP3    H232968   7.915   0.621   2.495 -0.1232 -0.0500  0.8590
11009TIP3   OH232969   4.782   7.712   0.321 -0.4933 -0.4587 -0.0869
11009TIP3    H132970   4.829   7.794   0.337 -3.7296  1.1937  1.4141
11009TIP3    H232971   4.789   7.699   0.227  3.3101 -0.5485  0.1296
11010TIP3   OH232972   1.607   4.472   6.390  0.6872 -0.2761 -0.0581
11010TIP3    H132973   1.644   4.456   6.476  2.1194 -1.5774 -0.8981
11010TIP3    H232974   1.646   4.406   6.334  0.8816  1.4560 -2.0203
11011TIP3   OH232975   1.568   3.708   5.632 -0.4580  0.2320  0.3648
11011TIP3    H132976   1.649   3.669   5.664  0.1552  1.4917  0.3835
11011TIP3    H232977   1.595   3.764   5.559 -1.4714 -0.3130 -0.4404
11012TIP3   OH232978   7.484   2.845   1.032 -0.5333  0.3156 -0.2345
11012TIP3    H132979   7.449   2.760   1.057  0.1229  0.7000  2.0878
11012TIP3    H232980   7.432   2.871   0.956 -1.6017 -1.5674 -0.1664
11013TIP3   OH232981   6.053   0.168   0.585  0.4213 -0.3813  0.4866
11013TIP3    H132982   6.043   0.074   0.602  0.6941 -0.4585  0.2212
11013TIP3    H232983   5.978   0.208   0.628  0.2248 -0.7372  0.4748
11014TIP3   OH232984   7.572   0.505   1.457 -0.2761 -0.2063 -0.5264
11014TIP3    H132985   7.621   0.528   1.378 -0.4599  0.6424 -0.4007
11014TIP3    H232986   7.498   0.566   1.458  1.5547  2.1225  2.0876
11015TIP3   OH232987   0.954   3.717   6.323 -0.1657 -0.0877  0.1674
11015TIP3    H132988   0.977   3.765   6.402  1.3695 -0.8476  0.2035
11015TIP3    H232989   0.864   3.743   6.304 -0.5727  0.0559  2.1995
11016TIP3   OH232990   7.698   1.867   1.125  0.7001  0.4276  0.6159
11016TIP3    H132991   7.698   1.821   1.209 -1.3224  0.3399  0.5809
11016TIP3    H232992   7.780   1.917   1.125  2.1228 -1.8465  1.3744
11017TIP3   OH232993   7.245   1.757   1.516  0.0706  0.2145  0.2356
11017TIP3    H132994   7.185   1.766   1.590  1.0254  1.0261  0.9300
11017TIP3    H232995   7.233   1.667   1.486 -2.1628  0.6574 -0.2408
11018TIP3   OH232996   4.378   7.969   0.083  0.5021 -0.1070  0.0088
11018TIP3    H132997   4.373   7.965   0.178  2.1285  1.2172  0.1718
11018TIP3    H232998   4.287   7.961   0.054 -0.1092  0.4847  1.6998
11019TIP3   OH232999   0.596   4.983   6.454  0.2499  0.2886 -0.1419
11019TIP3    H133000   0.624   4.927   6.527  1.1608  0.2665 -0.4966
11019TIP3    H233001   0.677   5.027   6.426 -0.1115  0.3683 -1.0728
11020TIP3   OH233002   1.581   4.026   5.110  0.1271 -0.6639  0.1890
11020TIP3    H133003   1.487   4.046   5.108  0.1882 -0.4055 -0.0984
11020TIP3    H233004   1.614   4.076   5.184  0.0291 -0.7969  0.3247
11021TIP3   OH233005   7.157   1.386   0.487  0.5249 -0.1022 -0.1303
11021TIP3    H133006   7.094   1.383   0.416  2.6845 -1.4553 -2.0662
11021TIP3    H233007   7.200   1.471   0.479 -0.1906  0.3152  0.4310
11022TIP3   OH233008   6.283   1.121   2.279 -0.1653 -0.0573  0.1693
11022TIP3    H133009   6.351   1.055   2.293 -0.2552 -0.0608  0.6088
11022TIP3    H233010   6.230   1.087   2.207 -0.4094 -0.6268  0.6182
11023TIP3   OH233011   2.470   3.798   6.235 -0.0234 -0.0705  0.2149
11023TIP3    H133012   2.401   3.750   6.282  0.0862 -0.9325 -0.4780
11023TIP3    H233013   2.545   3.738   6.234  0.2313  0.2485 -0.3511
11024TIP3   OH233014   2.250   1.576   1.268  0.1494 -0.9765 -0.4042
11024TIP3    H133015   2.181   1.511   1.255  0.6388 -1.8101  1.0976
11024TIP3    H233016   2.279   1.598   1.180 -2.7610  0.1790 -1.1299
11025TIP3   OH233017   7.085   0.461   0.383 -0.0978  0.0107  0.6541
11025TIP3    H133018   7.142   0.402   0.335  0.7503  1.4121 -0.0728
11025TIP3    H233019   7.026   0.403   0.432  0.5556 -1.4220 -0.2426
11026TIP3   OH233020   7.844   1.338   2.145  0.4428  0.5875  0.8092
11026TIP3    H133021   7.832   1.392   2.067 -1.5296  1.1799  1.4771
11026TIP3    H233022   7.936   1.348   2.168  0.8471  1.0828 -0.9462
11027TIP3   OH233023   8.419   0.303   0.170 -0.2045 -0.5187 -0.3628
11027TIP3    H133024   8.347   0.245   0.194  1.3454 -2.0043  0.7808
11027TIP3    H233025   8.404   0.323   0.078 -0.4101 -3.2728 -0.9664
11028TIP3   OH233026   1.833   5.071   6.662  0.1330 -0.2871 -0.6245
11028TIP3    H133027   1.785   5.036   6.588  0.1525  0.1102 -0.8267
11028TIP3    H233028   1.904   5.123   6.623 -0.1269  0.2921 -0.3325
11029TIP3   OH233029   0.612   0.689   0.359  0.0818  0.7341  0.3932
11029TIP3    H133030   0.654   0.608   0.332 -0.3434  1.7794 -3.6809
11029TIP3    H233031   0.527   0.663   0.394 -0.1599 -0.5807 -1.1465
11030TIP3   OH233032   1.122   3.020   6.622  0.5539  0.2831  0.4956
11030TIP3    H133033   1.072   2.979   6.693  0.3149  0.2439  0.3036
11030TIP3    H233034   1.186   3.075   6.667 -1.3366  2.3722  0.7259
11031TIP3   OH233035   8.388   0.509   1.253  0.2623  0.0674 -0.7241
11031TIP3    H133036   8.436   0.570   1.310 -0.8325  0.8035 -0.5806
11031TIP3    H233037   8.405   0.540   1.164  0.1289  0.2701 -0.6786
11032TIP3   OH233038   6.892   1.235   0.502 -0.1821  0.2430  0.7847
11032TIP3    H133039   6.874   1.279   0.418 -1.8938 -1.4959  0.2044
11032TIP3    H233040   6.872   1.301   0.568 -1.2939  0.8518 -0.1219
11033TIP3   OH233041   3.979   6.801   1.677 -0.1471  0.6883 -0.1794
11033TIP3    H133042   4.049   6.735   1.674 -1.6270 -0.8781 -1.2589
11033TIP3    H233043   3.935   6.792   1.593 -4.2918 -1.3003  2.0914
11034TIP3   OH233044   7.062   1.635   3.533  0.0792  0.0442  0.1293
11034TIP3    H133045   7.151   1.621   3.564 -0.1662  0.1976  0.8926
11034TIP3    H233046   7.006   1.592   3.598 -0.4732  1.0890  0.3629
11035TIP3   OH233047   8.126   4.382   5.838 -0.1234  0.6503  1.1208
11035TIP3    H133048   8.181   4.348   5.909  0.5617  0.1019  0.3432
11035TIP3    H233049   8.070   4.308   5.814  0.3162  0.5313  0.4473
11036TIP3   OH233050   8.038   2.314   3.491 -0.2359  0.6550  0.3494
11036TIP3    H133051   8.100   2.255   3.535  2.0346  2.5164 -0.1980
11036TIP3    H233052   8.008   2.373   3.560 -2.5366 -1.1011  0.9052
11037TIP3   OH233053   6.167   1.030   0.234  0.5270 -0.1744 -0.8658
11037TIP3    H133054   6.120   1.035   0.317  0.7152 -2.4243 -0.5826
11037TIP3    H233055   6.245   1.083   0.248  0.0384  0.3124  0.0478
11038TIP3   OH233056   0.308   5.358   6.525 -0.2079 -0.4428  0.2837
11038TIP3    H133057   0.242   5.408   6.572  0.3855  1.4480 -0.8175
11038TIP3    H233058   0.325   5.410   6.446  2.8782 -0.6757  0.7414
11039TIP3   OH233059   3.322   4.442   5.145 -0.2212  0.2205  0.0185
11039TIP3    H133060   3.316   4.364   5.201  0.3143 -0.1596 -0.4438
11039TIP3    H233061   3.366   4.507   5.200 -1.0261  0.3278  0.5409
11040TIP3   OH233062   1.009   2.766   5.935 -0.8934  0.2470 -0.1431
11040TIP3    H133063   1.042   2.698   5.994  0.4528 -0.6693 -1.9226
11040TIP3    H233064   1.024   2.848   5.982 -4.2191 -0.6825  2.8704
11041TIP3   OH233065   0.414   6.673   6.004 -0.1432 -0.5071 -0.3522
11041TIP3    H133066   0.492   6.618   6.010  0.5617  0.5112  0.0517
11041TIP3    H233067   0.375   6.670   6.092  0.4079  0.3536 -0.0673
11042TIP3   OH233068   7.004   1.448   0.285 -0.2082 -0.0986 -0.5552
11042TIP3    H133069   7.027   1.461   0.193  0.9183 -1.2879 -0.4485
11042TIP3    H233070   6.908   1.439   0.284 -0.0484 -2.0104 -1.8753
11043TIP3   OH233071   4.802   7.679   1.389 -0.4229  0.0515  0.1305
11043TIP3    H133072   4.838   7.744   1.328 -1.4877  0.0503 -0.5105
11043TIP3    H233073   4.786   7.602   1.335 -2.5387  0.4593  0.1331
11044TIP3   OH233074   2.883   4.559   6.899 -0.0459  0.6239  0.1291
11044TIP3    H133075   2.889   4.475   6.852 -0.5291  0.8549 -0.3589
11044TIP3    H233076   2.950   4.614   6.859  0.4484  0.3870  0.6279
11045TIP3   OH233077   4.592   6.980   1.885 -0.0518 -0.6367 -0.2104
11045TIP3    H133078   4.558   7.062   1.920 -0.1600  0.0272 -1.7965
11045TIP3    H233079   4.683   7.001   1.861 -0.0676 -0.9893 -0.5742
11046TIP3   OH233080   0.356   2.620   6.548  0.0643 -0.5711 -0.0487
11046TIP3    H133081   0.367   2.526   6.535 -0.6834 -0.5185 -1.2135
11046TIP3    H233082   0.315   2.650   6.466  1.1745  0.9227 -0.0653
11047TIP3   OH233083   6.165   0.873   2.539 -0.1667 -0.2388  0.4378
11047TIP3    H133084   6.172   0.950   2.597 -0.4881  1.0860 -1.2392
11047TIP3    H233085   6.249   0.828   2.550  0.6236  1.1720  0.3239
11048TIP3   OH233086   8.273   4.348   4.049  0.0966  0.1162 -0.2889
11048TIP3    H133087   8.342   4.290   4.080 -1.1056 -0.7392  0.8640
11048TIP3    H233088   8.259   4.322   3.958  0.8183 -0.1803 -0.3132
11049TIP3   OH233089   6.968   1.025   0.338  0.4729 -0.0423  0.0669
11049TIP3    H133090   6.917   1.097   0.376 -0.6640 -0.4525 -0.6349
11049TIP3    H233091   6.923   0.946   0.367  0.0957 -0.3830 -1.3879
11050TIP3   OH233092   1.042   4.716   4.934  0.3306 -0.2465  0.4719
11050TIP3    H133093   0.975   4.775   4.901  0.6951 -1.5197 -2.6653
11050TIP3    H233094   1.125   4.761   4.916  0.5863 -1.4570 -1.4805
11051TIP3   OH233095   7.987   1.806   1.483 -0.3461  0.4134  0.1432
11051TIP3    H133096   7.969   1.886   1.534 -3.2720  0.9575 -1.6289
11051TIP3    H233097   8.067   1.771   1.522  0.2190  3.4383  1.9001
11052TIP3   OH233098   1.154   4.182   6.279 -0.7371 -0.0826 -0.1179
11052TIP3    H133099   1.130   4.255   6.222 -0.1731 -0.3857 -0.7509
11052TIP3    H233100   1.077   4.168   6.334 -1.0538  0.6222 -0.3801
11053TIP3   OH233101   7.456   5.418   6.100 -0.2953 -0.1249 -0.0290
11053TIP3    H133102   7.456   5.323   6.113  0.7950 -0.2923 -1.1179
11053TIP3    H233103   7.504   5.430   6.018 -0.3127  1.3797  0.1810
11054TIP3   OH233104   6.118   1.378   0.264  0.2174 -0.2492 -0.4817
11054TIP3    H133105   6.213   1.376   0.268  0.2134 -0.7900 -0.6950
11054TIP3    H233106   6.089   1.354   0.352  0.2788  0.6773 -0.1944
11055TIP3   OH233107   0.277   2.844   4.652 -0.4393  0.4661 -0.0116
11055TIP3    H133108   0.238   2.884   4.574  0.8694  0.4607 -0.6726
11055TIP3    H233109   0.371   2.845   4.635 -0.2038 -0.2670  1.2281
11056TIP3   OH233110   7.443   1.411   1.565 -0.8193  0.3790 -0.2355
11056TIP3    H133111   7.504   1.371   1.502 -1.4200 -1.3675  0.2465
11056TIP3    H233112   7.433   1.501   1.535  0.2949  0.0766 -1.5996
11057TIP3   OH233113   3.145   5.611   6.742  0.2298  0.2194  0.2174
11057TIP3    H133114   3.084   5.581   6.810  2.3852 -2.4174  1.0895
11057TIP3    H233115   3.093   5.670   6.688 -2.7260 -0.8790  1.7071
11058TIP3   OH233116   3.588   8.021   2.681 -0.4194  0.4510  0.1243
11058TIP3    H133117   3.518   7.974   2.725  0.3451  0.2687  1.1583
11058TIP3    H233118   3.563   8.021   2.588 -0.7996 -1.3270  0.2128
11059TIP3   OH233119   2.309   2.226   6.092  0.2615 -0.4002 -0.4048
11059TIP3    H133120   2.223   2.267   6.104  0.5434 -0.1129  0.7343
11059TIP3    H233121   2.297   2.164   6.020 -1.1405 -1.0506  0.3763
11060TIP3   OH233122   1.706   4.193   4.886  0.0193  0.3178  0.0549
11060TIP3    H133123   1.692   4.099   4.872 -0.3553  0.1135  1.6820
11060TIP3    H233124   1.617   4.230   4.885  0.1589  0.6440 -0.4693
11061TIP3   OH233125   1.169   3.505   5.201 -0.6508 -0.3346  0.5751
11061TIP3    H133126   1.193   3.517   5.109  0.9962 -0.6822  0.9481
11061TIP3    H233127   1.247   3.467   5.242 -1.7762 -1.2937  1.8750
11062TIP3   OH233128   2.494   6.893   0.667 -0.2808  0.3142 -0.3596
11062TIP3    H133129   2.549   6.818   0.645  1.7735  1.6788 -0.0307
11062TIP3    H233130   2.535   6.930   0.745 -1.2567  1.7951 -0.5423
11063TIP3   OH233131   5.076   0.803   2.098 -0.7229  0.4145 -0.2099
11063TIP3    H133132   5.156   0.851   2.117 -0.2978 -0.2397 -0.3453
11063TIP3    H233133   5.097   0.749   2.022 -1.5819  0.9679 -0.8495
11064TIP3   OH233134   2.880   6.743   2.594  0.2941 -0.2765 -0.1587
11064TIP3    H133135   2.828   6.666   2.618  0.0735 -0.7144 -2.0346
11064TIP3    H233136   2.820   6.799   2.544  0.3739  1.2619  1.3960
11065TIP3   OH233137   2.860   4.376   6.048  0.3286  0.4256 -0.7144
11065TIP3    H133138   2.865   4.410   6.137  1.0049 -2.4665  0.4256
11065TIP3    H233139   2.951   4.363   6.022  0.1059  0.1167 -1.3526
11066TIP3   OH233140   2.549   5.304   6.932  0.0801  0.0586 -0.0806
11066TIP3    H133141   2.493   5.300   6.854  0.4247  0.2974 -0.3396
11066TIP3    H233142   2.491   5.278   7.004 -0.8286  1.8432 -0.1154
11067TIP3   OH233143   3.529   7.861   1.069  0.6486  0.0176 -0.2285
11067TIP3    H133144   3.435   7.863   1.088  0.2918 -1.5266 -1.6915
11067TIP3    H233145   3.558   7.952   1.080 -0.9787  0.4758  0.3927
11068TIP3   OH233146   4.149   7.479   0.473 -0.1345  0.1102 -0.4386
11068TIP3    H133147   4.169   7.557   0.422 -0.3703  0.5445  0.1288
11068TIP3    H233148   4.055   7.483   0.488 -0.1299 -0.2275 -0.3160
11069TIP3   OH233149   5.083   7.579   1.465 -0.0790 -0.3624 -0.1711
11069TIP3    H133150   5.011   7.635   1.492  0.2030  0.5374 -1.2624
11069TIP3    H233151   5.119   7.544   1.547 -1.1627 -0.0891  0.4207
11070TIP3   OH233152   5.747   1.057   0.509 -0.1217  0.1518  0.4616
11070TIP3    H133153   5.687   1.071   0.436  0.5567 -0.2826 -0.1795
11070TIP3    H233154   5.740   1.137   0.561 -3.3164 -0.9414  1.9003
11071TIP3   OH233155   6.509   0.562   1.103  0.3422  0.0249  0.0354
11071TIP3    H133156   6.423   0.603   1.099 -0.5553 -1.7921  0.2302
11071TIP3    H233157   6.544   0.574   1.014  0.4563  1.9081  0.3114
11072TIP3   OH233158   2.128   5.351   6.357 -0.4599  0.4625  0.1102
11072TIP3    H133159   2.071   5.350   6.281 -1.3505 -2.6356  0.7320
11072TIP3    H233160   2.208   5.305   6.328 -2.0312 -3.6071  1.8029
11073TIP3   OH233161   2.135   5.093   5.238 -0.3394  0.0345 -0.5757
11073TIP3    H133162   2.050   5.051   5.225 -0.5681 -0.1531  1.3619
11073TIP3    H233163   2.116   5.187   5.234 -0.1425 -0.0067 -3.0097
11074TIP3   OH233164   2.081   5.631   5.448 -0.2036 -0.0563  0.0018
11074TIP3    H133165   1.998   5.656   5.409  0.4494 -1.0364 -2.0500
11074TIP3    H233166   2.137   5.709   5.439  0.0401 -0.3801 -1.2982
11075TIP3   OH233167   1.373   0.471   0.205  0.3084 -0.3569 -0.0848
11075TIP3    H133168   1.350   0.515   0.287 -0.1676 -1.5840  0.4400
11075TIP3    H233169   1.465   0.447   0.215  0.0828 -1.0578  0.3476
11076TIP3   OH233170   2.811   4.047   6.935  0.1063  0.1461 -0.3770
11076TIP3    H133171   2.718   4.031   6.948  0.1215  0.6641  0.3524
11076TIP3    H233172   2.814   4.121   6.874  0.0473 -0.1074 -0.6925
11077TIP3   OH233173   0.536   1.282   1.548  0.0794 -0.5469  0.0219
11077TIP3    H133174   0.466   1.336   1.585  0.1722 -0.2637 -0.2178
11077TIP3    H233175   0.523   1.287   1.453  0.9208  0.1650 -0.0531
11078TIP3   OH233176   5.191   3.245   6.615  0.4541 -0.2056 -0.5346
11078TIP3    H133177   5.231   3.284   6.693 -1.4006  2.2894 -0.7400
11078TIP3    H233178   5.206   3.311   6.546  0.7670 -1.7027 -1.9152
11079TIP3   OH233179   3.166   4.431   5.937 -0.0307 -0.1567 -0.6226
11079TIP3    H133180   3.213   4.513   5.925  2.1687 -1.3083 -0.0738
11079TIP3    H233181   3.194   4.400   6.023 -0.1821 -1.8939 -1.1878
11080TIP3   OH233182   2.810   4.613   5.878  0.3026  0.1919  0.4740
11080TIP3    H133183   2.893   4.637   5.838 -0.0883 -1.3609 -1.3443
11080TIP3    H233184   2.821   4.521   5.903 -0.9099 -0.0787  0.0567
11081TIP3   OH233185   1.164   3.731   5.679 -0.2950  0.3445 -0.1700
11081TIP3    H133186   1.219   3.671   5.729 -1.6926 -0.1566  0.8128
11081TIP3    H233187   1.162   3.811   5.731 -0.1172  0.5276 -0.4422
11082TIP3   OH233188   3.892   5.423   5.055 -0.2842  0.2531 -0.0366
11082TIP3    H133189   3.813   5.476   5.066 -0.2530  0.0964  0.9752
11082TIP3    H233190   3.876   5.374   4.974  0.0817  2.4845 -1.5307
11083TIP3   OH233191   2.964   4.932   5.074  0.4817 -0.3969 -0.0346
11083TIP3    H133192   2.914   4.991   5.017  0.7747  0.0762  0.1918
11083TIP3    H233193   2.925   4.846   5.059 -1.6520  0.2465  1.4897
11084TIP3   OH233194   8.037   1.012   1.964 -0.3552  0.2262  0.0134
11084TIP3    H133195   7.958   0.971   1.928  0.7933 -0.4932 -1.7786
11084TIP3    H233196   8.020   1.106   1.959 -1.0532  0.0793 -0.4591
11085TIP3   OH233197   8.370   4.361   5.605 -0.5941  0.3476 -0.4201
11085TIP3    H133198   8.359   4.418   5.529 -2.4617 -0.1583 -0.5551
11085TIP3    H233199   8.341   4.415   5.679 -2.2079 -0.3329 -0.5275
11086TIP3   OH233200   1.926   3.361   5.809 -0.5782  0.0598  0.2955
11086TIP3    H133201   1.972   3.361   5.893 -0.0042  0.1492 -0.0125
11086TIP3    H233202   1.868   3.285   5.813  1.9328 -1.9966 -0.5694
11087TIP3   OH233203   2.968   0.652   6.649 -0.5850  0.6318  0.0587
11087TIP3    H133204   2.933   0.580   6.596  0.6901 -1.1122  1.5194
11087TIP3    H233205   2.892   0.689   6.693 -1.2601  0.1462 -0.6837
11088TIP3   OH233206   4.484   7.368   0.201  0.0392 -0.2173  0.2316
11088TIP3    H133207   4.516   7.278   0.195 -1.6609 -0.8950  0.9442
11088TIP3    H233208   4.465   7.392   0.111  2.8893  0.3656 -0.2695
11089TIP3   OH233209   5.274   7.382   0.537  0.1981 -0.3132  0.0926
11089TIP3    H133210   5.215   7.452   0.511 -1.2981 -1.2341  0.9547
11089TIP3    H233211   5.283   7.392   0.632 -0.0758 -1.3081  0.2289
11090TIP3   OH233212   2.655   4.196   6.539 -0.5940 -0.0900 -0.5672
11090TIP3    H133213   2.743   4.157   6.534 -0.3359  0.0888  1.7701
11090TIP3    H233214   2.596   4.125   6.514  0.1577 -0.5367 -1.1149
11091TIP3   OH233215   3.952   1.019   0.094 -0.0308 -0.0640 -0.2256
11091TIP3    H133216   3.951   0.976   0.009 -1.5055  1.5047 -1.0225
11091TIP3    H233217   3.931   0.948   0.156  2.6302 -1.5428 -0.9575
11092TIP3   OH233218   7.766   0.718   1.590  0.2949  0.0561 -0.4285
11092TIP3    H133219   7.767   0.693   1.497 -2.7843  0.0071 -0.5101
11092TIP3    H233220   7.772   0.635   1.637 -0.2842 -0.0828 -0.6000
11093TIP3   OH233221   6.805   0.809   0.429  0.3576  0.2266 -0.1640
11093TIP3    H133222   6.873   0.786   0.492  0.2454  1.4551  0.4105
11093TIP3    H233223   6.750   0.873   0.474 -0.5176  0.1007 -1.0241
11094TIP3   OH233224   4.920   0.999   1.091  0.0716 -0.0331  0.6909
11094TIP3    H133225   4.910   0.933   1.022  0.6628 -0.1020  0.6625
11094TIP3    H233226   4.860   1.069   1.066 -0.8427 -0.7230  0.9275
11095TIP3   OH233227   6.951   0.440   1.407 -0.3715 -0.1384 -0.1498
11095TIP3    H133228   6.877   0.466   1.351 -0.7209 -0.9419 -0.0618
11095TIP3    H233229   7.028   0.474   1.361 -0.7551  0.2965 -0.4805
11096TIP3   OH233230   8.056   2.348   0.383  0.1091  0.3643 -0.2750
11096TIP3    H133231   8.140   2.388   0.365  0.4033 -0.1997 -0.1721
11096TIP3    H233232   8.074   2.282   0.450 -0.4504  0.3974 -0.0850
11097TIP3   OH233233   3.437   5.415   5.772  0.2251 -0.0741 -0.1930
11097TIP3    H133234   3.344   5.435   5.763  0.4095  0.6340 -0.5392
11097TIP3    H233235   3.474   5.431   5.685  0.4359 -1.6291 -0.4086
11098TIP3   OH233236   2.208   5.148   6.893  0.1826 -0.5601  0.2640
11098TIP3    H133237   2.126   5.097   6.890 -0.2890  0.2221 -0.2758
11098TIP3    H233238   2.277   5.083   6.878 -0.5841 -0.6171 -3.6660
11099TIP3   OH233239   5.306   7.234   1.743  0.2152  0.2430  0.1803
11099TIP3    H133240   5.357   7.219   1.822  0.1883  1.1473  0.3722
11099TIP3    H233241   5.368   7.272   1.681  0.3856 -1.0297 -0.4467
11100TIP3   OH233242   8.174   4.485   6.918  0.1753  0.5818 -0.5545
11100TIP3    H133243   8.202   4.568   6.880 -1.1245  1.4288  0.3061
11100TIP3    H233244   8.103   4.508   6.978  0.2536 -1.0694  0.2120
11101TIP3   OH233245   7.303   2.439   2.539  0.4140 -0.4631 -0.0452
11101TIP3    H133246   7.291   2.470   2.629 -3.0341 -1.4084 -0.1189
11101TIP3    H233247   7.318   2.519   2.489 -0.6014  0.3714  0.9459
11102TIP3   OH233248   7.204   0.399   1.872 -0.4825 -0.2009 -0.3145
11102TIP3    H133249   7.194   0.303   1.875  0.7551 -0.3468 -0.7887
11102TIP3    H233250   7.269   0.415   1.804 -0.1908  0.9485  0.2217
11103TIP3   OH233251   5.909   1.500   0.148  0.2396 -0.0275  0.1820
11103TIP3    H133252   5.823   1.488   0.187 -0.1352  0.4508 -0.4805
11103TIP3    H233253   5.964   1.433   0.189 -0.1393  0.4487  1.5097
11104TIP3   OH233254   7.459   1.473   2.146 -0.5533 -0.4203 -0.1361
11104TIP3    H133255   7.364   1.486   2.150 -0.5285 -0.2632 -0.0758
11104TIP3    H233256   7.470   1.391   2.098 -0.7302 -0.6006  0.1315
11105TIP3   OH233257   1.902   3.848   5.008 -0.0668 -0.4829 -0.6333
11105TIP3    H133258   1.854   3.808   5.080 -0.0420 -1.3834 -1.1098
11105TIP3    H233259   1.835   3.882   4.949 -0.1013 -0.6478 -0.6884
11106TIP3   OH233260   0.980   2.741   5.653 -0.4048 -0.2677  0.2268
11106TIP3    H133261   0.979   2.746   5.749  1.1972 -1.3895  0.3240
11106TIP3    H233262   0.951   2.651   5.634 -1.4635  0.1934 -0.3768
11107TIP3   OH233263   1.792   3.244   3.987 -0.1407  0.3302  0.2449
11107TIP3    H133264   1.743   3.162   3.989  1.3137 -0.5509  1.0853
11107TIP3    H233265   1.809   3.264   4.080  2.1763 -0.0808 -0.0607
11108TIP3   OH233266   0.242   2.953   3.798 -0.1483 -0.6253  0.2763
11108TIP3    H133267   0.267   3.030   3.747  0.2703 -1.7720 -1.2954
11108TIP3    H233268   0.288   2.963   3.881  1.1035  0.0866 -0.4887
11109TIP3   OH233269   0.462   4.133   6.265  0.3892  0.8260  0.2263
11109TIP3    H133270   0.478   4.218   6.305  1.6660  0.3204  0.8199
11109TIP3    H233271   0.536   4.120   6.206  0.6870 -0.2646  0.8217
11110TIP3   OH233272   3.296   7.691   2.528 -0.9102  0.2066  0.0003
11110TIP3    H133273   3.357   7.719   2.460 -1.2153  0.8962  0.0119
11110TIP3    H233274   3.337   7.612   2.565  0.1268  0.8237  0.2083
11111TIP3   OH233275   2.750   7.806   0.243  0.1242 -0.3281  0.0769
11111TIP3    H133276   2.687   7.814   0.314 -0.7413  0.9776 -0.8114
11111TIP3    H233277   2.833   7.835   0.281 -0.1438 -0.5036  0.7952
11112TIP3   OH233278   4.163   7.368   1.526  0.1363  0.0052  0.2282
11112TIP3    H133279   4.258   7.357   1.532  0.0526 -0.5009  0.6363
11112TIP3    H233280   4.151   7.430   1.454  0.8678  1.8248  1.6514
11113TIP3   OH233281   8.332   5.623   6.197 -0.2872  0.9203 -0.3088
11113TIP3    H133282   8.242   5.615   6.165 -0.0538  1.4443 -1.1272
11113TIP3    H233283   8.325   5.613   6.291 -0.9242 -1.2131 -0.5626
11114TIP3   OH233284   0.209   4.092   6.392  0.1735 -0.0717 -0.4366
11114TIP3    H133285   0.293   4.078   6.349  0.0137  0.0015 -0.7756
11114TIP3    H233286   0.232   4.121   6.481  0.4998 -0.5972 -0.3505
11115TIP3   OH233287   3.897   7.305   1.548 -0.7625 -0.1021  0.1507
11115TIP3    H133288   3.991   7.314   1.540 -0.4458 -0.9761  2.4927
11115TIP3    H233289   3.881   7.210   1.539 -1.5257  0.1330 -1.1518
11116TIP3   OH233290   2.935   2.465   6.234  0.2090 -0.4941  0.0533
11116TIP3    H133291   2.923   2.524   6.308  2.0917 -0.3323  0.2397
11116TIP3    H233292   2.874   2.394   6.250 -0.0800  0.0201  1.2575
11117TIP3   OH233293   4.104   5.582   5.500 -0.1601  0.1749  0.3754
11117TIP3    H133294   4.027   5.638   5.507  0.5458  1.3318 -1.0388
11117TIP3    H233295   4.092   5.535   5.418 -0.8440 -1.9288  1.6429
11118TIP3   OH233296   5.987   0.694   2.173  0.1271  0.4305  0.2744
11118TIP3    H133297   6.020   0.782   2.157  2.4436 -0.8301 -2.4444
11118TIP3    H233298   5.905   0.690   2.124  0.1336  1.0137  0.2099
11119TIP3   OH233299   2.620   4.009   5.791  0.7253  0.0916 -0.4435
11119TIP3    H133300   2.589   4.090   5.831  0.4367 -1.0305  1.6999
11119TIP3    H233301   2.553   3.987   5.727 -0.1551  0.5701  0.2949
11120TIP3   OH233302   3.565   2.489   5.303  0.1905  0.0744 -0.0840
11120TIP3    H133303   3.645   2.494   5.250 -0.4660  0.7627 -1.0039
11120TIP3    H233304   3.582   2.417   5.364  1.0165 -0.5989 -1.0951
11121TIP3   OH233305   1.879   3.914   4.705 -0.7462 -0.3408 -0.5544
11121TIP3    H133306   1.796   3.962   4.706 -0.4367  0.3192 -3.1612
11121TIP3    H233307   1.856   3.828   4.668 -0.4506 -0.5690 -0.2147
11122TIP3   OH233308   3.105   3.208   6.567 -0.1971  0.4798  0.0554
11122TIP3    H133309   3.041   3.230   6.635 -1.3182  1.5505 -1.3041
11122TIP3    H233310   3.187   3.193   6.614 -1.0633  0.7644  1.6739
11123TIP3   OH233311   4.219   5.770   4.859  0.0843  0.4230 -0.0295
11123TIP3    H133312   4.216   5.839   4.793 -1.5924 -0.3198 -0.7596
11123TIP3    H233313   4.159   5.702   4.826  0.2556 -0.5481  1.5884
11124TIP3   OH233314   0.668   5.549   4.521  0.2219  0.4031 -0.0463
11124TIP3    H133315   0.757   5.537   4.555 -0.2066  0.0356  0.9767
11124TIP3    H233316   0.671   5.511   4.433  1.2209  0.8990 -0.2390
11125TIP3   OH233317   6.975   1.789   0.627  0.0052  0.2260 -0.1669
11125TIP3    H133318   7.022   1.770   0.708  0.5271 -0.8305 -0.7097
11125TIP3    H233319   6.897   1.733   0.631  1.8684 -2.6550 -2.0640
11126TIP3   OH233320   1.821   5.586   5.345 -0.2331  0.0020  0.0504
11126TIP3    H133321   1.742   5.635   5.321  0.0438  0.3140 -0.2143
11126TIP3    H233322   1.797   5.542   5.427 -0.6491  0.1781  0.0257
11127TIP3   OH233323   3.715   4.412   5.066 -0.0108 -0.6265  0.0194
11127TIP3    H133324   3.809   4.425   5.082 -0.1307  0.3964 -0.0458
11127TIP3    H233325   3.678   4.501   5.070 -0.9502 -1.0101 -0.1056
11128TIP3   OH233326   3.408   4.892   6.865 -0.3713 -0.1376 -0.0850
11128TIP3    H133327   3.451   4.901   6.949 -0.7571  1.4437 -0.0351
11128TIP3    H233328   3.367   4.805   6.867  1.4572 -0.9981  0.4784
11129TIP3   OH233329   5.926   5.671   0.533  0.1328 -0.5570  0.2591
11129TIP3    H133330   5.921   5.716   0.618 -0.8166 -0.1791  0.0054
11129TIP3    H233331   6.017   5.684   0.505  0.0616  0.5799  0.5306
11130TIP3   OH233332   4.198   2.962   5.814 -0.3087 -0.0001 -0.5120
11130TIP3    H133333   4.256   2.942   5.741  1.2554  0.4693  0.5689
11130TIP3    H233334   4.144   2.883   5.824  1.8632 -1.4580  0.0314
11131TIP3   OH233335   5.816   6.122   0.193  0.2665  0.4087 -0.3033
11131TIP3    H133336   5.903   6.099   0.224 -0.2532 -1.1749  0.0410
11131TIP3    H233337   5.775   6.038   0.172 -0.7863  1.2102 -1.5234
11132TIP3   OH233338   3.226   2.761   6.012 -0.1601 -0.5052  0.3108
11132TIP3    H133339   3.284   2.693   5.977  0.1009 -1.2277  2.0928
11132TIP3    H233340   3.272   2.793   6.090 -1.1769  0.4133  0.5422
11133TIP3   OH233341   4.860   7.394   0.630  0.2394 -0.2240  0.2953
11133TIP3    H133342   4.803   7.471   0.624 -0.1392 -0.5315 -0.1327
11133TIP3    H233343   4.819   7.330   0.571  0.1095 -1.0245  1.2527
11134TIP3   OH233344   1.864   4.322   5.146  0.3584  0.1223  0.2218
11134TIP3    H133345   1.787   4.316   5.089 -0.0727  0.9652  0.6946
11134TIP3    H233346   1.906   4.405   5.121  0.5147  0.1886  0.6915
11135TIP3   OH233347   4.612   5.212   4.734 -0.1495  0.8322  0.4434
11135TIP3    H133348   4.599   5.124   4.770  3.1456  0.7954  1.7665
11135TIP3    H233349   4.669   5.198   4.658 -0.6798  1.7116 -0.1206
11136TIP3   OH233350   5.491   7.955   1.672  0.4406  0.1448  0.5852
11136TIP3    H133351   5.566   7.967   1.615  0.0256 -1.9701 -0.4364
11136TIP3    H233352   5.446   8.040   1.671  1.0225  0.4409 -1.3746
11137TIP3   OH233353   5.647   7.501   1.096 -0.0586  0.5215  0.1844
11137TIP3    H133354   5.587   7.458   1.156  1.6768 -0.7853  1.0217
11137TIP3    H233355   5.629   7.461   1.011  0.0738 -0.3486  0.5609
11138TIP3   OH233356   0.747   2.046   1.095  0.0721 -0.0113 -0.6558
11138TIP3    H133357   0.831   2.004   1.075  0.9310  1.2421  0.2819
11138TIP3    H233358   0.756   2.076   1.185 -0.1251  3.1689 -1.6500
11139TIP3   OH233359   5.947   6.953   1.452  0.4614 -0.3142  0.3304
11139TIP3    H133360   5.881   6.983   1.515 -0.0651 -1.4001  0.2956
11139TIP3    H233361   6.029   6.954   1.502  0.7543  2.6508 -0.0905
11140TIP3   OH233362   7.384   0.373   0.068 -0.6990 -0.4495  0.0358
11140TIP3    H133363   7.431   0.429   0.129 -1.4772 -1.7342  1.8584
11140TIP3    H233364   7.452   0.321   0.025  0.1244  2.3965 -2.3187
11141TIP3   OH233365   8.277   1.026   0.867 -0.4690  0.2809  0.1026
11141TIP3    H133366   8.210   0.990   0.925 -1.3713  1.4923 -0.1662
11141TIP3    H233367   8.358   0.985   0.896 -1.2665 -0.9161  0.6818
11142TIP3   OH233368   2.530   4.500   6.216  0.2840  0.0553  0.2174
11142TIP3    H133369   2.595   4.489   6.285  1.0046 -1.3835 -0.6758
11142TIP3    H233370   2.451   4.458   6.251  0.6881 -0.8008  0.1039
11143TIP3   OH233371   0.262   0.113   1.232  0.3965  0.4221  0.1740
11143TIP3    H133372   0.253   0.208   1.220 -0.5332  0.4022  0.6393
11143TIP3    H233373   0.280   0.079   1.144  0.6848  1.0315 -0.0004
11144TIP3   OH233374   3.046   3.520   6.542  0.1231  0.0481 -0.3904
11144TIP3    H133375   3.075   3.436   6.576  0.1217  0.0385 -0.4134
11144TIP3    H233376   3.011   3.566   6.619 -2.9088 -1.2455 -0.9184
11145TIP3   OH233377   4.949   7.827   2.290 -0.1360  0.1394  0.3329
11145TIP3    H133378   5.035   7.791   2.312 -1.8126 -3.7243  0.9272
11145TIP3    H233379   4.938   7.901   2.351  0.7711 -2.2793  3.5742
11146TIP3   OH233380   6.384   6.955   1.016  0.2392 -0.3023 -0.5998
11146TIP3    H133381   6.309   7.005   1.048  0.0332  0.6010 -2.3917
11146TIP3    H233382   6.369   6.866   1.047 -0.6089  0.2593  0.6415
11147TIP3   OH233383   1.565   4.803   6.658  0.3003  0.4391  0.1309
11147TIP3    H133384   1.579   4.867   6.728  0.1083  0.2703  0.3290
11147TIP3    H233385   1.486   4.756   6.685 -0.7481  1.5006 -1.0482
11148TIP3   OH233386   1.978   0.862   1.342 -0.2525 -0.4376 -0.1455
11148TIP3    H133387   2.054   0.900   1.297 -0.5153 -0.6641 -0.7950
11148TIP3    H233388   1.986   0.768   1.325  0.0284 -0.6063  0.8825
11149TIP3   OH233389   0.943   0.047   1.405 -0.3653 -0.2999 -0.4191
11149TIP3    H133390   1.003   0.082   1.340  0.1109 -1.1157 -0.4336
11149TIP3    H233391   0.986  -0.034   1.436 -0.9269 -0.3016  0.3725
11150TIP3   OH233392   2.762   3.842   5.485  0.8272  0.0916  0.1149
11150TIP3    H133393   2.746   3.901   5.558  2.4228 -0.0425  0.5996
11150TIP3    H233394   2.819   3.892   5.426 -1.1841  0.5425 -1.5034
11151TIP3   OH233395   3.647   4.956   6.414  0.8426  0.2958  0.0800
11151TIP3    H133396   3.661   4.930   6.505  0.0675  0.6025  0.2905
11151TIP3    H233397   3.649   4.874   6.365  2.3692  0.2374  0.2246
11152TIP3   OH233398   4.643   4.730   5.393  0.0842  0.1203  0.3459
11152TIP3    H133399   4.717   4.790   5.394 -1.7733  2.4711 -0.0243
11152TIP3    H233400   4.602   4.744   5.308 -0.3387 -1.7670  0.2170
11153TIP3   OH233401   5.776   5.076   1.657 -0.0591  0.5503 -0.0955
11153TIP3    H133402   5.694   5.078   1.608  0.6818  1.2438 -1.3445
11153TIP3    H233403   5.788   4.985   1.681 -0.1088  0.0851 -1.7846
11154TIP3   OH233404   0.749   5.266   5.702 -0.6619  0.4379 -0.3968
11154TIP3    H133405   0.735   5.341   5.760 -0.3403  0.5151 -0.4188
11154TIP3    H233406   0.676   5.270   5.640 -0.0336  1.3829 -1.0898
11155TIP3   OH233407   3.188   4.023   5.559 -0.1845  0.1116 -0.0887
11155TIP3    H133408   3.102   3.983   5.566 -0.2748  0.3000 -0.1403
11155TIP3    H233409   3.176   4.113   5.588  0.1899 -0.1325  0.8513
11156TIP3   OH233410   1.254   0.174   0.550  0.6833 -0.9201  0.3187
11156TIP3    H133411   1.275   0.217   0.633 -1.0116 -0.7873  0.6976
11156TIP3    H233412   1.333   0.124   0.528  2.3835  1.6686  0.2979
11157TIP3   OH233413   2.939   3.393   5.166  0.1154 -0.4030 -0.1212
11157TIP3    H133414   2.971   3.438   5.087 -1.9656 -0.0340 -0.7828
11157TIP3    H233415   2.956   3.300   5.149 -1.0297 -0.3966 -1.3528
11158TIP3   OH233416   7.916   1.814   0.370 -0.3960 -0.0272 -0.1329
11158TIP3    H133417   7.870   1.738   0.335  1.1893 -0.3921 -1.5139
11158TIP3    H233418   7.956   1.855   0.293 -0.1437  1.4440  0.7615
11159TIP3   OH233419   3.722   3.598   6.238  0.1576 -0.7214 -0.4302
11159TIP3    H133420   3.793   3.577   6.298  0.6487  1.7867 -0.0847
11159TIP3    H233421   3.646   3.550   6.272  0.6172  0.0722  1.7264
11160TIP3   OH233422   0.034   1.637   0.604 -0.0709 -0.2699  0.4622
11160TIP3    H133423   0.128   1.647   0.619  0.1945 -0.0030 -1.3113
11160TIP3    H233424  -0.005   1.649   0.691  1.6310 -1.9824  1.5228
11161TIP3   OH233425   2.927   4.067   6.551 -0.2592  0.3083  0.6119
11161TIP3    H133426   2.964   4.064   6.463  0.2277  1.2609  0.7700
11161TIP3    H233427   2.936   3.978   6.584 -1.5546 -0.3412 -0.7338
11162TIP3   OH233428   8.336   1.428   2.312 -0.1092  0.1626 -0.3884
11162TIP3    H133429   8.368   1.469   2.392 -0.3509 -0.1235 -0.1401
11162TIP3    H233430   8.414   1.396   2.268  0.0301  0.3642 -0.2880
11163TIP3   OH233431   6.419   5.645   0.035 -0.4675  0.9047  0.3473
11163TIP3    H133432   6.409   5.598  -0.048 -0.7467  1.8892 -0.1710
11163TIP3    H233433   6.338   5.694   0.046 -0.6017  0.4692  1.4037
11164TIP3   OH233434   2.249   4.727   5.093  0.1573 -0.7405  0.4988
11164TIP3    H133435   2.340   4.738   5.119  0.2384 -1.1776  0.4064
11164TIP3    H233436   2.240   4.777   5.012  0.4774 -1.2093  0.1698
11165TIP3   OH233437   0.859   2.317   0.076  0.3646  0.1762 -0.1026
11165TIP3    H133438   0.858   2.269  -0.007  0.3740  0.4959 -0.2909
11165TIP3    H233439   0.781   2.372   0.072 -0.1623 -0.5237  0.5307
11166TIP3   OH233440   1.950   4.453   6.052  0.5476  0.5738  0.0823
11166TIP3    H133441   1.902   4.535   6.038 -0.7770  0.4469  3.2665
11166TIP3    H233442   1.886   4.384   6.033  1.0230  0.2951 -0.5400
11167TIP3   OH233443   5.347   0.917   1.219 -0.7443 -0.3598 -0.2317
11167TIP3    H133444   5.436   0.922   1.253 -0.2777 -2.4964 -1.1135
11167TIP3    H233445   5.347   0.972   1.141 -0.2872 -0.1708 -0.0980
11168TIP3   OH233446   4.141   4.357   5.691  0.1364  0.0093  0.1197
11168TIP3    H133447   4.140   4.286   5.626  1.2471  0.3197 -0.2613
11168TIP3    H233448   4.188   4.428   5.647 -3.9151  2.2524 -0.7470
11169TIP3   OH233449   3.215   5.122   4.890 -0.1271 -0.2181 -0.0787
11169TIP3    H133450   3.183   5.034   4.868  0.6715 -0.6552  0.4794
11169TIP3    H233451   3.210   5.126   4.986  2.0503 -0.5322  0.0778
11170TIP3   OH233452   4.260   6.797   5.749  0.5699 -0.7381  0.7196
11170TIP3    H133453   4.217   6.868   5.796 -0.2598 -0.9077  0.2212
11170TIP3    H233454   4.260   6.724   5.810 -0.1948 -0.8536  0.5807
11171TIP3   OH233455   3.198   4.704   3.953 -0.4990  0.4923  0.2177
11171TIP3    H133456   3.263   4.711   4.023  0.1714  0.4227 -0.3868
11171TIP3    H233457   3.120   4.669   3.995 -0.7978  2.4723  1.3691
11172TIP3   OH233458   6.837   7.255   0.268 -0.0713  0.2255 -0.3289
11172TIP3    H133459   6.813   7.341   0.302  1.2384  0.1051  0.9552
11172TIP3    H233460   6.891   7.216   0.337 -1.4246 -2.0206 -0.5080
11173TIP3   OH233461   0.641   0.155   0.525 -0.2008  0.1577 -0.6317
11173TIP3    H133462   0.676   0.202   0.600 -0.5706  1.7937 -1.4445
11173TIP3    H233463   0.569   0.102   0.560  1.6012 -1.4776  0.6557
11174TIP3   OH233464   1.572   0.522   2.456  0.5805  0.3236 -0.2532
11174TIP3    H133465   1.524   0.509   2.538  0.8738 -0.1901 -0.1631
11174TIP3    H233466   1.635   0.450   2.453  0.6304  0.3915 -0.8875
11175TIP3   OH233467   2.478   2.944   4.939 -0.2423 -0.1004 -0.9801
11175TIP3    H133468   2.513   3.028   4.969 -0.0452 -1.0157  1.4567
11175TIP3    H233469   2.383   2.954   4.946 -0.1470 -1.1419  2.4314
11176TIP3   OH233470   3.457   3.262   6.298 -0.0868  0.3435  0.0478
11176TIP3    H133471   3.529   3.225   6.246 -0.3703  1.7228 -1.3708
11176TIP3    H233472   3.380   3.214   6.269  0.0611 -0.3257  0.7283
11177TIP3   OH233473   2.066   2.305   4.827 -0.1118  0.8360 -0.4186
11177TIP3    H133474   2.133   2.288   4.893  1.1664  0.9683 -1.6602
11177TIP3    H233475   1.986   2.318   4.877  0.6973  0.2436  1.0683
11178TIP3   OH233476   0.350   2.151   1.914  0.6834 -0.5349 -0.1899
11178TIP3    H133477   0.266   2.133   1.873  1.3238 -1.1477 -1.2432
11178TIP3    H233478   0.415   2.124   1.849  1.6951  1.4033 -0.0331
11179TIP3   OH233479   3.161   4.280   5.699  0.2913 -0.4067  0.1378
11179TIP3    H133480   3.150   4.293   5.793  1.1585 -0.4132  0.2461
11179TIP3    H233481   3.240   4.331   5.677 -1.0854  1.3095 -0.9642
11180TIP3   OH233482   7.570   5.946   0.121 -0.0356 -0.8150 -0.8194
11180TIP3    H133483   7.649   5.990   0.151 -0.3567 -1.5104  1.1591
11180TIP3    H233484   7.515   6.016   0.087  0.4718 -0.0178 -0.0348
11181TIP3   OH233485   2.297   3.054   5.600 -0.2082  0.4413  0.1345
11181TIP3    H133486   2.288   3.081   5.691  1.2422 -1.5955  0.9204
11181TIP3    H233487   2.388   3.076   5.577  0.0241 -0.7766 -0.1888
11182TIP3   OH233488   3.062   3.727   5.430  0.2106  0.1255 -0.1167
11182TIP3    H133489   3.051   3.806   5.377 -1.3946  0.6095  0.9014
11182TIP3    H233490   3.145   3.689   5.400  0.9248  2.1126 -0.7183
11183TIP3   OH233491   6.707   6.748   0.275  0.6571  0.1978 -0.4774
11183TIP3    H133492   6.775   6.719   0.336  0.5599  1.7946  0.3910
11183TIP3    H233493   6.642   6.678   0.279  0.0628  0.8492  2.1894
11184TIP3   OH233494   2.123   4.616   6.544  0.2723  0.0043 -0.8442
11184TIP3    H133495   2.148   4.550   6.480  0.3545 -0.7595 -0.0308
11184TIP3    H233496   2.029   4.629   6.529 -0.0001 -1.1744 -0.2120
11185TIP3   OH233497   4.140   3.322   6.406 -0.1245 -0.7880  0.1910
11185TIP3    H133498   4.204   3.339   6.338  0.0060  0.6231  0.6581
11185TIP3    H233499   4.192   3.293   6.481 -0.0648 -0.0333  0.4424
11186TIP3   OH233500   4.148   3.588   6.577  0.0027 -0.2503  0.1480
11186TIP3    H133501   4.145   3.680   6.554  1.3117 -0.3235 -0.3781
11186TIP3    H233502   4.162   3.542   6.494 -0.4778 -0.9133  0.4223
11187TIP3   OH233503   2.389   1.472   5.022  0.3753  0.4206 -0.0249
11187TIP3    H133504   2.398   1.393   5.074 -0.0817 -0.7963 -1.7217
11187TIP3    H233505   2.475   1.513   5.024  0.2654  0.5874  1.9402
11188TIP3   OH233506   5.014   7.959   0.854  0.3549  0.3281  0.4502
11188TIP3    H133507   4.960   7.917   0.920 -0.6474 -0.3158 -0.7594
11188TIP3    H233508   5.043   7.888   0.797 -1.0597  1.1781 -1.4081
11189TIP3   OH233509   2.587   7.307   2.302  0.3253  0.6310 -0.6619
11189TIP3    H133510   2.594   7.394   2.341  1.6367  0.2445  0.0402
11189TIP3    H233511   2.501   7.305   2.261  1.3601  3.2476 -3.1407
11190TIP3   OH233512   4.681   6.239   0.236 -0.3446 -0.1867  0.0776
11190TIP3    H133513   4.690   6.161   0.182 -0.6133 -0.3328  0.2409
11190TIP3    H233514   4.664   6.310   0.174  1.2204 -0.0254 -0.1797
11191TIP3   OH233515   7.486   7.083   0.025 -0.3305  0.5420  0.4684
11191TIP3    H133516   7.461   7.170   0.055 -1.2227  0.2619  0.5474
11191TIP3    H233517   7.529   7.099  -0.060  1.8124  1.2826  1.6594
11192TIP3   OH233518   3.688   3.869   6.189 -0.6372 -0.5468 -0.0687
11192TIP3    H133519   3.777   3.890   6.160 -1.0145  0.3433 -0.5921
11192TIP3    H233520   3.681   3.774   6.176  0.2891 -0.6532  0.1304
11193TIP3   OH233521   2.276   2.905   5.336 -0.2130 -0.0561 -0.1639
11193TIP3    H133522   2.371   2.892   5.325 -0.2843 -0.1787 -0.6612
11193TIP3    H233523   2.263   2.909   5.430  0.3419  0.3346 -0.0997
11194TIP3   OH233524   8.230   7.588   0.103  1.0348  0.0032  0.1765
11194TIP3    H133525   8.282   7.667   0.088  2.9719 -1.2223  0.2878
11194TIP3    H233526   8.287   7.532   0.156 -1.1735 -0.5502  2.0361
11195TIP3   OH233527   0.185   3.493   6.112  0.1612 -0.4063  0.0013
11195TIP3    H133528   0.102   3.529   6.144  0.4795  0.3568 -0.0065
11195TIP3    H233529   0.161   3.409   6.073 -0.6952  0.0416 -0.4743
11196TIP3   OH233530   2.049   5.430   5.661 -0.5499  0.0538 -0.8017
11196TIP3    H133531   2.121   5.453   5.720 -1.3985  0.2166  0.1804
11196TIP3    H233532   2.049   5.499   5.596 -1.3377  1.3765  0.5721
11197TIP3   OH233533   1.050   5.922   5.426  0.2728  0.0858 -0.5395
11197TIP3    H133534   1.053   5.849   5.365  1.5107  1.1411 -1.7804
11197TIP3    H233535   0.961   5.958   5.417  0.9782  1.2770 -2.9907
11198TIP3   OH233536   6.557   6.960   0.440  0.2351 -0.3166 -0.7715
11198TIP3    H133537   6.591   6.889   0.495 -0.4572  0.2924  0.4798
11198TIP3    H233538   6.623   6.971   0.372  2.9131  1.2322  1.9223
11199TIP3   OH233539   2.288   4.100   6.562 -0.8228  0.2555  0.5501
11199TIP3    H133540   2.359   4.037   6.574 -1.3705 -0.4927 -0.0819
11199TIP3    H233541   2.307   4.143   6.478  0.6294  2.3630  1.9215
11200TIP3   OH233542   0.924   0.039   2.392 -0.4059  0.0798  0.2487
11200TIP3    H133543   0.928   0.092   2.312 -2.1471  0.2843  0.2854
11200TIP3    H233544   0.879  -0.041   2.366  1.9297 -1.2992  0.2700
11201TIP3   OH233545   7.110   0.844   1.726 -0.0605 -0.3988  0.0737
11201TIP3    H133546   7.109   0.938   1.707  1.8491 -0.5523 -0.9132
11201TIP3    H233547   7.018   0.819   1.726 -0.7041  1.7426  1.8446
11202TIP3   OH233548   3.126   5.199   5.937 -0.1184 -0.3857 -0.2333
11202TIP3    H133549   3.143   5.175   6.028  1.2352 -1.3208 -0.7122
11202TIP3    H233550   3.036   5.172   5.921 -0.3579 -0.2294  0.8145
11203TIP3   OH233551   4.560   2.593   6.587 -0.0581 -0.0044  0.7152
11203TIP3    H133552   4.559   2.686   6.562 -0.6182 -0.2394 -0.1928
11203TIP3    H233553   4.524   2.591   6.675  0.9469  0.7550  1.1424
11204TIP3   OH233554   7.768   2.637   3.208  0.2994  0.0518  0.1119
11204TIP3    H133555   7.835   2.706   3.204 -0.6648  1.0663  1.0770
11204TIP3    H233556   7.720   2.646   3.126  2.3414 -1.7578 -1.3552
11205TIP3   OH233557   4.597   3.817   6.102  0.3612 -0.4021  0.6851
11205TIP3    H133558   4.505   3.832   6.082  0.7359  0.6547 -0.2845
11205TIP3    H233559   4.599   3.731   6.144 -0.9698 -0.7689  0.0025
11206TIP3   OH233560   2.502   3.950   6.613  1.0163  0.1194 -0.0818
11206TIP3    H133561   2.527   3.859   6.601  1.0864  0.1153  0.0991
11206TIP3    H233562   2.565   3.985   6.675  3.1857  1.2597 -2.8261
11207TIP3   OH233563   3.342   3.338   3.715  0.1590  0.0510  0.9496
11207TIP3    H133564   3.358   3.406   3.650 -2.5923  2.4354  2.6012
11207TIP3    H233565   3.248   3.322   3.711  0.3801 -1.8059  2.3659
11208TIP3   OH233566   1.354   3.823   6.045 -0.2105  0.1730 -0.5448
11208TIP3    H133567   1.338   3.901   6.097 -0.9928  0.0372 -0.5845
11208TIP3    H233568   1.344   3.750   6.106 -0.0342  0.0730 -0.6350
11209TIP3   OH233569   3.683   3.153   5.454  0.0806 -0.2477 -0.1029
11209TIP3    H133570   3.617   3.092   5.420  1.2669 -0.8920 -1.3036
11209TIP3    H233571   3.635   3.234   5.467 -0.7898 -0.4458 -1.8089
11210TIP3   OH233572   2.859   6.286   5.713 -0.6483  0.8689 -0.5627
11210TIP3    H133573   2.805   6.284   5.792 -2.1763  0.9236 -1.5878
11210TIP3    H233574   2.948   6.299   5.745 -1.3159  1.3738  1.1217
11211TIP3   OH233575   3.144   4.958   6.781  0.5098  0.2136  0.5401
11211TIP3    H133576   3.143   4.866   6.807 -0.9163  0.3437  0.9689
11211TIP3    H233577   3.237   4.982   6.783  1.1673 -1.8623 -2.0146
11212TIP3   OH233578   3.427   3.973   6.186  0.1215 -0.5152 -0.2530
11212TIP3    H133579   3.519   3.948   6.197  0.5185  0.3347 -1.6212
11212TIP3    H233580   3.397   3.921   6.112 -0.4042 -0.4846 -0.0608
11213TIP3   OH233581   6.204   7.211  -0.005 -0.3203  0.3403 -0.5855
11213TIP3    H133582   6.216   7.202   0.089  0.8850 -1.4589 -0.8884
11213TIP3    H233583   6.253   7.290  -0.028  2.7253 -1.3802 -0.2607
11214TIP3   OH233584   2.055   1.298   2.069  0.1870 -0.2956 -0.1339
11214TIP3    H133585   2.104   1.246   2.005  0.1021 -0.1407 -0.3224
11214TIP3    H233586   1.963   1.281   2.048  0.1597 -0.3488  0.0296
11215TIP3   OH233587   2.713   5.433   5.530 -0.1099 -0.3498  0.1354
11215TIP3    H133588   2.768   5.459   5.456  0.0384 -0.6783  0.1282
11215TIP3    H233589   2.760   5.465   5.607 -1.6922  2.5809 -0.0423
11216TIP3   OH233590   1.425   4.554   4.862 -0.4934 -0.6516 -0.3865
11216TIP3    H133591   1.370   4.563   4.785 -1.2392  0.6911  0.2771
11216TIP3    H233592   1.375   4.597   4.932  0.9867 -0.2236  0.4263
11217TIP3   OH233593   1.575   3.900   5.867 -0.2577  0.3205  0.2942
11217TIP3    H133594   1.626   3.830   5.907 -0.3280  0.5979  0.8880
11217TIP3    H233595   1.491   3.898   5.913  0.1406  1.5129  1.1216
11218TIP3   OH233596   1.290   4.998   5.342  0.1542 -0.1354 -0.2176
11218TIP3    H133597   1.268   5.085   5.375 -0.9883 -0.6747  0.4610
11218TIP3    H233598   1.335   4.955   5.415 -2.0342 -1.1911  0.5699
11219TIP3   OH233599   0.869   0.132   0.005  0.0916 -0.3578 -0.2799
11219TIP3    H133600   0.925   0.072   0.054 -1.2436  0.3659  2.2325
11219TIP3    H233601   0.869   0.212   0.057 -3.3703 -0.3823 -0.1110
11220TIP3   OH233602   2.132   2.828   1.332  0.5062  0.5372  0.0076
11220TIP3    H133603   2.142   2.802   1.240 -1.9595 -0.3567 -0.0243
11220TIP3    H233604   2.161   2.751   1.381 -1.3205 -0.2045 -0.0550
11221TIP3   OH233605   5.182   6.911   5.348 -0.8932  0.2520 -0.0919
11221TIP3    H133606   5.093   6.945   5.361 -0.7116  0.0754  1.8571
11221TIP3    H233607   5.182   6.876   5.259 -2.5007  1.0756 -0.4401
11222TIP3   OH233608   3.955   4.722   5.842  0.0659  0.0207  0.1889
11222TIP3    H133609   3.870   4.686   5.867 -0.3146 -0.3519 -1.5840
11222TIP3    H233610   3.934   4.804   5.797  0.6106 -0.2897 -0.6441
11223TIP3   OH233611   3.101   5.909   6.014  0.2424 -0.4199 -0.1182
11223TIP3    H133612   3.038   5.979   6.030  1.0754  0.8733 -2.2152
11223TIP3    H233613   3.176   5.930   6.070 -0.6528 -1.2567  1.4214
11224TIP3   OH233614   4.336   3.803   6.035  0.0930 -0.7359 -1.0600
11224TIP3    H133615   4.298   3.849   5.960  0.6400 -0.6004 -1.2607
11224TIP3    H233616   4.298   3.715   6.031 -0.8415 -0.3442 -0.7639
11225TIP3   OH233617   3.376   3.914   6.461  0.2617  0.1290 -0.3420
11225TIP3    H133618   3.378   3.949   6.371  0.6647 -1.4857 -0.9742
11225TIP3    H233619   3.462   3.873   6.472 -0.6895 -1.8229 -0.0889
11226TIP3   OH233620   2.818   2.887   4.973  0.0399  0.3818  0.0362
11226TIP3    H133621   2.759   2.956   5.004  0.5366  1.2685 -0.9438
11226TIP3    H233622   2.903   2.930   4.966  0.8268 -0.9182  1.5336
11227TIP3   OH233623   3.675   4.652   5.875 -0.5026 -0.4606  0.3240
11227TIP3    H133624   3.607   4.719   5.866  0.3515  0.3224 -0.3459
11227TIP3    H233625   3.680   4.610   5.789  0.5757  0.1707  0.0810
11228TIP3   OH233626   1.824   0.254   5.042  1.0025 -0.3147  0.6276
11228TIP3    H133627   1.897   0.242   5.103  1.5402  1.6483  0.4015
11228TIP3    H233628   1.856   0.218   4.960  1.2200 -0.6482  0.8543
11229TIP3   OH233629   2.400   2.877   6.747 -0.6543  0.5861 -0.5066
11229TIP3    H133630   2.321   2.920   6.779 -1.7442 -0.8243 -1.2665
11229TIP3    H233631   2.374   2.838   6.664  0.4221 -1.1593 -0.0494
11230TIP3   OH233632   5.484   6.347   0.273  0.2555 -0.3501  0.9416
11230TIP3    H133633   5.422   6.280   0.244  2.9760 -1.5546 -2.4530
11230TIP3    H233634   5.531   6.308   0.346  1.4666 -2.0084 -0.6863
11231TIP3   OH233635   1.387   1.484   0.175  0.1725 -0.1344  0.3102
11231TIP3    H133636   1.437   1.537   0.113 -1.3610  1.5668  0.4968
11231TIP3    H233637   1.451   1.457   0.241  1.4504 -0.5143 -1.0640
11232TIP3   OH233638   2.430   4.368   5.717 -0.4117  0.0846  0.0939
11232TIP3    H133639   2.353   4.397   5.767 -0.6703  1.5334 -1.1178
11232TIP3    H233640   2.496   4.351   5.784 -0.7970  1.8496  0.9760
11233TIP3   OH233641   8.461   1.884   1.285 -0.1148 -0.3878  0.2935
11233TIP3    H133642   8.454   1.904   1.191 -1.2398 -0.9048  0.2551
11233TIP3    H233643   8.370   1.872   1.313  0.1377  0.9382  1.7122
11234TIP3   OH233644   3.993   2.961   4.714 -0.2139  0.0853 -0.1770
11234TIP3    H133645   4.003   3.053   4.692  0.4222  0.0303 -0.1319
11234TIP3    H233646   4.064   2.917   4.667 -0.0107 -0.2717  0.4524
11235TIP3   OH233647   2.960   3.167   6.326  0.0655 -0.0304  0.8139
11235TIP3    H133648   2.952   3.261   6.308  1.5862  0.1039  0.7085
11235TIP3    H233649   3.026   3.162   6.395 -2.2623 -0.8442  3.0593
11236TIP3   OH233650   3.217   1.519   3.127 -0.2182 -0.4376  0.1011
11236TIP3    H133651   3.181   1.465   3.197 -1.2698 -1.3424 -1.1068
11236TIP3    H233652   3.144   1.531   3.066  0.0795  2.0825  0.1548
11237TIP3   OH233653   8.036   0.836   1.570 -0.7834  0.2830 -0.3574
11237TIP3    H133654   8.025   0.919   1.522  1.4511 -0.3975 -2.1024
11237TIP3    H233655   7.947   0.813   1.597 -1.9133  1.4633 -2.8841
11238TIP3   OH233656   2.019   4.342   6.962  0.6334  0.9201 -0.1070
11238TIP3    H133657   2.096   4.298   6.928  1.1678  1.7721 -0.0175
11238TIP3    H233658   1.983   4.389   6.887 -1.4370 -1.7311 -0.8497
11239TIP3   OH233659   3.677   4.483   5.648  0.1908  0.0038 -0.9231
11239TIP3    H133660   3.681   4.495   5.553 -1.6143 -1.3956 -1.1930
11239TIP3    H233661   3.751   4.426   5.669 -0.2726 -0.8897 -1.6948
11240TIP3   OH233662   1.999   4.017   5.358 -0.1800 -0.2903  0.3641
11240TIP3    H133663   1.985   3.922   5.357 -0.4722 -0.2613  1.0239
11240TIP3    H233664   2.088   4.027   5.393 -1.0925 -0.2468  2.7882
11241TIP3   OH233665   4.189   4.575   5.893  0.4080 -0.0800  0.1229
11241TIP3    H133666   4.108   4.615   5.862 -0.3225  0.0346  2.1031
11241TIP3    H233667   4.190   4.488   5.853 -1.6376 -0.7763  1.4997
11242TIP3   OH233668   4.568   7.981   1.184  0.0926  0.1959 -0.2248
11242TIP3    H133669   4.561   7.935   1.267 -2.1536  1.0685  0.0925
11242TIP3    H233670   4.597   7.914   1.122 -2.1007 -1.4066  0.4314
11243TIP3   OH233671   1.636   4.516   5.050 -0.0130 -0.4369 -0.3680
11243TIP3    H133672   1.714   4.565   5.025  1.0401 -1.4110  0.9187
11243TIP3    H233673   1.579   4.519   4.973  1.5555 -0.2452 -1.5375
11244TIP3   OH233674   0.980   1.105   0.600  0.1161  0.1631 -0.0809
11244TIP3    H133675   1.075   1.106   0.616  0.1443  0.2370 -0.2575
11244TIP3    H233676   0.946   1.045   0.667  0.4709 -1.1375 -1.0434
11245TIP3   OH233677   0.756   5.861   5.878 -0.0001  0.4567 -0.4484
11245TIP3    H133678   0.843   5.826   5.899  0.1139  0.3612 -1.0698
11245TIP3    H233679   0.709   5.786   5.842  0.4156  1.0470 -2.2998
11246TIP3   OH233680   1.907   4.969   5.455 -0.1498  0.5526  0.0764
11246TIP3    H133681   1.915   5.031   5.528 -0.7948 -1.0226  1.4990
11246TIP3    H233682   1.941   4.886   5.489  0.8654  0.1257 -1.8719
11247TIP3   OH233683   4.183   4.548   5.374 -0.4972  0.3744 -0.3372
11247TIP3    H133684   4.211   4.596   5.296  0.3241  0.5798  0.0715
11247TIP3    H233685   4.247   4.573   5.441 -1.5945  0.7348  0.5849
11248TIP3   OH233686   7.815   2.220   4.359 -0.3810  0.1462  0.6814
11248TIP3    H133687   7.749   2.157   4.386  0.0955 -0.4750  0.4030
11248TIP3    H233688   7.773   2.305   4.369 -0.8880 -0.1927  1.4512
11249TIP3   OH233689   2.544   1.681   5.634  0.2543 -0.0371  0.5782
11249TIP3    H133690   2.517   1.660   5.544 -1.1348  1.8373  0.5230
11249TIP3    H233691   2.526   1.601   5.683  0.6623 -0.9611 -0.7323
11250TIP3   OH233692   3.695   6.011   6.846  0.3662  0.3168 -0.0051
11250TIP3    H133693   3.672   5.942   6.908  0.2688  0.5975  0.2708
11250TIP3    H233694   3.692   5.968   6.760  2.8388 -0.6766  0.3704
11251TIP3   OH233695   1.390   2.807   4.053  0.4322 -0.1486  0.2701
11251TIP3    H133696   1.432   2.735   4.006  1.9767 -0.0738  1.4872
11251TIP3    H233697   1.355   2.863   3.984  1.5115 -0.7128 -0.7610
11252TIP3   OH233698   1.978   4.806   5.986  0.1283  0.2700 -0.0142
11252TIP3    H133699   1.997   4.874   6.050 -1.4584  0.2796  0.4796
11252TIP3    H233700   1.886   4.784   6.001  0.3040 -1.1812 -0.9262
11253TIP3   OH233701   0.769   1.104   0.836  0.0152 -0.1023  0.5764
11253TIP3    H133702   0.846   1.047   0.831  1.4601  1.8948 -0.2888
11253TIP3    H233703   0.786   1.160   0.912 -1.0271 -0.2763  0.9407
11254TIP3   OH233704   2.481   2.412   6.919  0.5281 -0.6359 -0.2264
11254TIP3    H133705   2.464   2.365   7.001 -0.4430  0.0832  0.0054
11254TIP3    H233706   2.566   2.381   6.890  1.1580 -0.4465  1.3827
11255TIP3   OH233707   2.970   3.312   6.782  0.1661  0.4137  0.3644
11255TIP3    H133708   2.959   3.405   6.801  0.6966  0.7538 -0.8963
11255TIP3    H233709   2.964   3.269   6.867  0.5375  1.6551  1.0323
11256TIP3   OH233710   1.964   2.143   3.822  0.5316  0.2366  0.1613
11256TIP3    H133711   2.050   2.185   3.824  1.2807 -1.3409  2.3262
11256TIP3    H233712   1.921   2.172   3.902 -0.1735 -0.6010  0.0919
11257TIP3   OH233713   0.042   1.395   1.856 -0.5680 -0.2106  0.3478
11257TIP3    H133714  -0.002   1.462   1.908  0.5780 -0.1707  1.2934
11257TIP3    H233715   0.013   1.411   1.766 -0.5209  1.3799  0.6062
11258TIP3   OH233716   2.311   4.568   5.387 -0.1383  0.3281  0.1287
11258TIP3    H133717   2.391   4.516   5.387 -0.4262 -0.1168 -0.0711
11258TIP3    H233718   2.291   4.582   5.295 -1.2140 -0.9891  0.1537
11259TIP3   OH233719   6.501   5.793   0.405 -0.4565 -0.2627  0.1132
11259TIP3    H133720   6.576   5.734   0.404  0.0739  0.4147 -2.3026
11259TIP3    H233721   6.504   5.835   0.491  0.3169 -2.2491  1.0876
11260TIP3   OH233722   2.488   3.320   5.147  0.0859 -0.5590  0.2962
11260TIP3    H133723   2.430   3.381   5.102  1.1063  0.5952  0.5112
11260TIP3    H233724   2.430   3.251   5.179 -1.1061  0.3724  0.1817
11261TIP3   OH233725   1.847   4.957   5.171  0.3967  0.0849 -0.4025
11261TIP3    H133726   1.889   4.963   5.258  1.5874  1.0751 -1.0239
11261TIP3    H233727   1.790   4.881   5.177  2.2329 -1.2646  0.5246
11262TIP3   OH233728   2.636   4.690   6.871  0.3299  0.0637  0.1317
11262TIP3    H133729   2.728   4.676   6.893  0.2037  0.2618  0.8098
11262TIP3    H233730   2.591   4.614   6.908  0.0571  0.6328  0.9937
11263TIP3   OH233731   3.379   3.880   5.747 -0.3200  0.0677 -0.1887
11263TIP3    H133732   3.326   3.903   5.670 -0.5250 -0.5743 -0.2414
11263TIP3    H233733   3.469   3.878   5.714 -0.5872 -2.2230 -0.9091
11264TIP3   OH233734   8.486   1.507   1.591  0.1785 -0.0894 -0.1634
11264TIP3    H133735   8.525   1.563   1.525 -0.0918 -0.0067 -0.2513
11264TIP3    H233736   8.427   1.449   1.542 -1.6283  1.3607  0.2460
11265TIP3   OH233737   0.222   0.526   0.984 -0.7504  0.3883  0.2678
11265TIP3    H133738   0.260   0.613   0.989 -1.3500  0.6748 -0.1645
11265TIP3    H233739   0.277   0.478   0.922 -0.5928  0.5463  0.2876
11266TIP3   OH233740   0.925   1.143   1.743 -0.8241  0.3263  0.0980
11266TIP3    H133741   0.957   1.228   1.712 -2.6931  1.2644  0.6928
11266TIP3    H233742   0.831   1.154   1.752 -1.0778 -1.7685  0.3735
11267TIP3   OH233743   7.137   7.166   0.361 -0.3651  0.4594  0.7467
11267TIP3    H133744   7.117   7.100   0.294 -2.2946 -1.6295  3.2199
11267TIP3    H233745   7.111   7.249   0.322 -0.4141 -0.5559 -1.4729
11268TIP3   OH233746   3.597   6.096   5.989  0.1242 -0.3023  0.0716
11268TIP3    H133747   3.670   6.036   5.971 -0.4798 -0.9392 -0.2870
11268TIP3    H233748   3.582   6.141   5.906 -1.7734 -2.2623 -0.7047
11269TIP3   OH233749   1.869   0.364   1.138  0.5898  0.4736  0.2532
11269TIP3    H133750   1.792   0.322   1.176 -0.3002 -0.7849 -2.8310
11269TIP3    H233751   1.867   0.453   1.173 -1.5342  0.0806  1.2175
11270TIP3   OH233752   2.404   1.313   0.603  0.5198 -0.2883 -0.3120
11270TIP3    H133753   2.422   1.235   0.551 -2.1422 -1.2308  0.1227
11270TIP3    H233754   2.347   1.366   0.547 -3.2673 -1.8008  1.9615
11271TIP3   OH233755   6.415   5.959   1.144 -0.0923 -0.2206  0.4213
11271TIP3    H133756   6.413   5.942   1.238  1.7817  0.5514  0.6241
11271TIP3    H233757   6.370   6.043   1.134 -0.5490 -0.4420  0.5845
11272TIP3   OH233758   3.780   2.929   4.238 -0.4221 -0.0492  0.3929
11272TIP3    H133759   3.779   2.930   4.334 -0.8249  0.8687  0.3809
11272TIP3    H233760   3.701   2.976   4.212 -0.3940 -0.4262 -0.3950
11273TIP3   OH233761   1.393   4.073   5.428 -0.5542  0.0257  0.2876
11273TIP3    H133762   1.333   4.141   5.460  0.1421  1.2653 -0.9839
11273TIP3    H233763   1.350   3.990   5.451 -0.4730  0.8488  3.6850
11274TIP3   OH233764   1.234   5.255   5.934  0.8106  0.1467 -0.2268
11274TIP3    H133765   1.239   5.327   5.872 -0.3431 -0.4884 -1.0691
11274TIP3    H233766   1.153   5.271   5.983  0.6608 -0.4629 -0.2757
11275TIP3   OH233767   8.178   0.198   0.171  0.4463  0.4167  0.1600
11275TIP3    H133768   8.115   0.138   0.211  0.7744  0.2691  0.4587
11275TIP3    H233769   8.144   0.212   0.082 -0.1422  0.5343  0.3963
11276TIP3   OH233770   1.711   2.789   0.290  0.2850  0.6643 -0.3421
11276TIP3    H133771   1.768   2.848   0.240  1.6823  0.1981  0.6501
11276TIP3    H233772   1.650   2.848   0.336 -0.6757  1.1172 -2.1634
11277TIP3   OH233773   5.437   7.220   5.846 -0.1826  0.2433 -0.0782
11277TIP3    H133774   5.398   7.282   5.907  0.5914 -0.4452  1.1299
11277TIP3    H233775   5.528   7.248   5.838 -0.0369 -0.2491 -0.1716
11278TIP3   OH233776   3.901   6.291   6.696 -0.0627  0.4505 -0.1879
11278TIP3    H133777   3.809   6.281   6.719 -0.4723 -2.1495 -2.6565
11278TIP3    H233778   3.899   6.320   6.604  1.5551 -1.4600 -0.8650
11279TIP3   OH233779   4.555   4.434   5.414 -0.7537  0.1552  0.4231
11279TIP3    H133780   4.525   4.409   5.326 -1.7097  1.2257  0.4353
11279TIP3    H233781   4.627   4.496   5.397 -0.7751  0.1734  0.3988
11280TIP3   OH233782   5.725   7.184   1.280  0.0278  0.1055 -0.6231
11280TIP3    H133783   5.710   7.143   1.365 -0.5663 -2.1334 -1.7529
11280TIP3    H233784   5.646   7.237   1.265 -1.1214 -1.6635 -0.9709
11281TIP3   OH233785   8.372   1.665   0.362 -0.4504  0.0210  0.2319
11281TIP3    H133786   8.332   1.591   0.408 -0.2397 -0.0138  0.3562
11281TIP3    H233787   8.416   1.716   0.430 -0.4019  0.1377  0.1138
11282TIP3   OH233788   2.320   1.731   1.005  0.6706 -0.2265  0.1450
11282TIP3    H133789   2.305   1.690   0.920  1.9259 -2.5056  1.0039
11282TIP3    H233790   2.393   1.791   0.989 -0.1376  0.5535 -0.7360
11283TIP3   OH233791   0.087   1.299   0.601 -0.0675  0.2055  0.3606
11283TIP3    H133792   0.031   1.240   0.551 -1.6529  1.1822  0.9489
11283TIP3    H233793   0.140   1.344   0.534 -1.1294  0.4403 -0.3473
11284TIP3   OH233794   3.104   3.584   3.370 -0.1270  0.1294  0.6487
11284TIP3    H133795   3.094   3.678   3.358 -0.6151 -0.1317 -1.1665
11284TIP3    H233796   3.032   3.546   3.319 -0.4602 -1.1865  2.0872
11285TIP3   OH233797   4.123   5.002   6.567  0.3223 -0.7247  0.0045
11285TIP3    H133798   4.103   4.982   6.476 -0.8409 -0.1352  0.1169
11285TIP3    H233799   4.197   4.946   6.588 -0.6676 -2.3507 -0.7038
11286TIP3   OH233800   5.002   7.715   0.709 -0.8939 -0.5436  0.0697
11286TIP3    H133801   5.001   7.636   0.763  0.5193 -0.6799 -0.0769
11286TIP3    H233802   4.928   7.704   0.650 -1.3276 -1.2778  0.7331
11287TIP3   OH233803   2.763   5.957   5.738  0.0963 -0.0692 -0.1045
11287TIP3    H133804   2.711   5.960   5.818 -0.1309 -0.4005 -0.2402
11287TIP3    H233805   2.709   6.002   5.673  0.2255  0.0870 -0.1047
11288TIP3   OH233806   5.802   6.694   5.814 -0.7212 -0.4351 -0.3781
11288TIP3    H133807   5.895   6.670   5.807 -0.4976  0.7701 -1.7790
11288TIP3    H233808   5.803   6.782   5.853 -1.2176  0.0386 -1.4249
11289TIP3   OH233809   3.274   2.427   6.931 -0.0335 -0.3783 -0.2154
11289TIP3    H133810   3.274   2.371   7.008 -0.2482 -1.2248 -0.8249
11289TIP3    H233811   3.300   2.369   6.859  0.1588  0.3973 -0.7791
11290TIP3   OH233812   6.679   3.219   5.351  0.3828  0.1793  0.2532
11290TIP3    H133813   6.746   3.279   5.383  0.8964 -0.4710  0.4139
11290TIP3    H233814   6.671   3.239   5.258 -0.1773  1.1859  0.5192
11291TIP3   OH233815   7.724   7.570   0.604 -0.4635  0.2061  0.0601
11291TIP3    H133816   7.664   7.504   0.569  0.2498  0.0595 -0.8972
11291TIP3    H233817   7.810   7.546   0.568 -0.0995  1.3117  0.1824
11292TIP3   OH233818   3.598   6.250   6.729 -0.2310 -0.2408 -0.4685
11292TIP3    H133819   3.618   6.166   6.768  0.7054 -1.2784 -3.0625
11292TIP3    H233820   3.530   6.231   6.664 -2.1892  1.5252  0.9854
11293TIP3   OH233821   4.661   6.965   0.362  0.2524 -0.2774  0.0455
11293TIP3    H133822   4.638   6.974   0.455  1.1688  0.2862  0.2278
11293TIP3    H233823   4.698   6.877   0.355 -0.0188 -0.4019  0.1742
11294TIP3   OH233824   4.961   5.749   6.908 -0.5199 -0.5447  0.1599
11294TIP3    H133825   5.023   5.816   6.877 -0.3392  0.2396  2.1633
11294TIP3    H233826   5.013   5.693   6.966 -1.4930 -0.3419  1.2436
11295TIP3   OH233827   2.956   3.298   5.853  0.7635  0.1862  0.2955
11295TIP3    H133828   2.936   3.352   5.929  1.5204  1.3052 -0.2863
11295TIP3    H233829   2.924   3.348   5.778  1.0966 -0.3632 -0.2227
11296TIP3   OH233830   0.081   2.020   1.620  0.0227 -0.2545 -0.1913
11296TIP3    H133831   0.146   2.090   1.629  0.9837 -1.1292 -0.3494
11296TIP3    H233832   0.125   1.952   1.569 -0.9823 -0.8916 -0.2159
11297TIP3   OH233833   4.650   4.295   4.922 -0.4415  0.3010  0.3979
11297TIP3    H133834   4.720   4.287   4.857 -1.0292  2.0857 -0.4919
11297TIP3    H233835   4.637   4.206   4.954  0.1815 -0.5378 -1.5990
11298TIP3   OH233836   7.355   0.518   1.067  0.1477  0.6545 -0.6001
11298TIP3    H133837   7.308   0.511   0.984 -0.2733 -1.1419 -0.2207
11298TIP3    H233838   7.363   0.613   1.082 -2.1686  0.9810 -1.3177
11299TIP3   OH233839   1.568   3.358   0.994  0.0501 -0.5351  0.3829
11299TIP3    H133840   1.536   3.409   0.920  0.9647  0.0891  0.4105
11299TIP3    H233841   1.564   3.419   1.068  3.5221  0.3494 -0.0593
11300TIP3   OH233842   5.559   0.213   1.756 -0.2247 -0.5489  0.1916
11300TIP3    H133843   5.613   0.175   1.826 -0.1643 -0.2089  0.3289
11300TIP3    H233844   5.615   0.279   1.716 -0.8601  0.4332  0.9228
11301TIP3   OH233845   7.160   0.731   0.058 -0.0100  1.1993 -0.1542
11301TIP3    H133846   7.253   0.716   0.076 -0.1017  1.5962  0.6789
11301TIP3    H233847   7.134   0.657   0.004  0.6291  0.7285  0.1774
11302TIP3   OH233848   2.794   5.624   6.169  0.0888  0.4977  0.4916
11302TIP3    H133849   2.861   5.621   6.101 -1.4418  1.9473 -1.1195
11302TIP3    H233850   2.775   5.532   6.188  0.0031  0.0644 -1.5704
11303TIP3   OH233851   4.620   6.475   5.978 -0.1630 -0.6351  0.1264
11303TIP3    H133852   4.701   6.483   6.028  0.4682 -0.8040 -0.8486
11303TIP3    H233853   4.586   6.389   6.002 -0.2165 -0.4395  0.7671
11304TIP3   OH233854   0.973   5.103   6.121 -0.1360 -0.3545 -0.0533
11304TIP3    H133855   1.038   5.081   6.187  0.5880 -1.7690 -1.2146
11304TIP3    H233856   0.963   5.198   6.128  1.3641 -0.2431  0.7590
11305TIP3   OH233857   0.420   6.237   6.852 -0.0207  0.7525  0.0894
11305TIP3    H133858   0.450   6.232   6.943  0.7255  0.0963 -0.1971
11305TIP3    H233859   0.499   6.252   6.801 -0.1460 -1.1493 -0.6824
11306TIP3   OH233860   4.495   5.483   5.384  0.2476  0.3555 -0.3014
11306TIP3    H133861   4.463   5.416   5.324  1.9608 -0.5895 -0.2004
11306TIP3    H233862   4.458   5.460   5.469 -0.9815  0.8391 -0.7012
11307TIP3   OH233863   5.228   6.572   4.857  0.1602 -0.2257  0.1349
11307TIP3    H133864   5.144   6.609   4.883 -0.3725 -0.1925 -1.5680
11307TIP3    H233865   5.290   6.604   4.922 -0.6738  1.8881 -0.0844
11308TIP3   OH233866   4.140   3.893   6.539  0.0527  0.1528 -0.1652
11308TIP3    H133867   4.062   3.916   6.489  1.2009  0.7522 -1.7284
11308TIP3    H233868   4.208   3.879   6.473  1.4180  0.2414  1.1826
11309TIP3   OH233869   7.229   4.419   6.208  0.9511 -0.2054 -0.4979
11309TIP3    H133870   7.316   4.451   6.185  1.1015  0.9070  1.5372
11309TIP3    H233871   7.170   4.492   6.189  0.4558 -0.8533 -1.5885
11310TIP3   OH233872   3.883   4.854   3.705  0.0161  0.2749  0.0211
11310TIP3    H133873   3.825   4.842   3.629  0.4342 -1.4484 -0.0460
11310TIP3    H233874   3.938   4.929   3.682 -0.4007  0.2626 -1.0304
11311TIP3   OH233875   2.612   4.256   5.923 -0.7979  0.1599 -0.7289
11311TIP3    H133876   2.670   4.317   5.967 -1.2481 -0.0736  0.2116
11311TIP3    H233877   2.536   4.248   5.981 -1.2875 -0.3626 -1.4161
11312TIP3   OH233878   3.610   2.320   4.127  0.6656 -0.3560 -0.4293
11312TIP3    H133879   3.588   2.388   4.063 -1.5344  0.6310  1.2696
11312TIP3    H233880   3.667   2.364   4.190 -0.3635 -0.1758  0.4045
11313TIP3   OH233881   3.973   2.691   6.329 -0.2294  0.0044 -0.1853
11313TIP3    H133882   4.023   2.623   6.375 -0.3337 -0.3952 -0.6621
11313TIP3    H233883   4.037   2.732   6.272  0.2384  1.4553  1.3479
11314TIP3   OH233884   7.398   7.334   1.607 -0.1561 -0.3109  0.4596
11314TIP3    H133885   7.332   7.331   1.676 -0.3061 -1.0992  0.2850
11314TIP3    H233886   7.353   7.371   1.531 -0.6845 -1.7795  0.0386
11315TIP3   OH233887   7.947   3.803   4.180 -0.2649  0.4984  0.1786
11315TIP3    H133888   8.024   3.854   4.155 -0.3579  0.8780  0.6556
11315TIP3    H233889   7.879   3.830   4.118 -0.4011  1.1914  0.6183
11316TIP3   OH233890   2.228   3.261   6.658 -0.2477  0.2181 -0.0206
11316TIP3    H133891   2.217   3.204   6.734 -0.3422  0.0509 -0.1609
11316TIP3    H233892   2.202   3.208   6.584 -1.0775  0.6884 -0.0767
11317TIP3   OH233893   6.266   5.644   0.436  0.3954  0.0566  0.1795
11317TIP3    H133894   6.329   5.711   0.410  0.2964 -0.0915 -0.4438
11317TIP3    H233895   6.308   5.600   0.510  1.2584 -0.3917 -0.5687
11318TIP3   OH233896   3.037   1.310   6.544 -0.1562  0.0716  0.1084
11318TIP3    H133897   2.983   1.349   6.475 -0.3706  0.0449  0.2601
11318TIP3    H233898   3.112   1.272   6.498 -0.4937 -0.2811 -0.1463
11319TIP3   OH233899   5.281   7.724   2.573 -0.3535 -0.1248  0.5500
11319TIP3    H133900   5.323   7.638   2.574  0.8256  0.4241 -0.5030
11319TIP3    H233901   5.316   7.769   2.650  0.3760  0.0319  0.1326
11320TIP3   OH233902   3.642   2.335   5.018  0.1774 -0.5300  0.3598
11320TIP3    H133903   3.645   2.424   4.982 -1.3937 -0.1347  1.1767
11320TIP3    H233904   3.733   2.304   5.012  0.2898  0.1243 -2.4175
11321TIP3   OH233905   0.840   4.083   6.472  0.0174 -1.0645 -0.0998
11321TIP3    H133906   0.832   4.124   6.558  0.3538 -0.5750 -0.2934
11321TIP3    H233907   0.901   4.010   6.485 -1.8153 -2.5117  0.5863
11322TIP3   OH233908   4.427   7.831   0.581 -0.5791  0.0441 -0.4991
11322TIP3    H133909   4.500   7.857   0.636  0.3797 -1.2710 -1.1167
11322TIP3    H233910   4.367   7.785   0.639 -0.3268  0.0493 -0.2371
11323TIP3   OH233911   3.298   2.163   5.235  0.8806 -0.3416 -0.1109
11323TIP3    H133912   3.235   2.110   5.185 -0.0780  2.4259 -1.9507
11323TIP3    H233913   3.272   2.151   5.326 -0.4092 -1.6451 -0.6198
11324TIP3   OH233914   4.274   4.126   5.894 -0.3146 -0.0465  0.2767
11324TIP3    H133915   4.233   4.211   5.911 -1.0553 -0.1551 -0.9217
11324TIP3    H233916   4.365   4.138   5.919 -0.8303  0.5058  2.0131
11325TIP3   OH233917   3.449   4.778   6.133 -0.4555  0.4607  0.0445
11325TIP3    H133918   3.457   4.869   6.162  1.0917  0.9202 -1.7289
11325TIP3    H233919   3.515   4.731   6.184 -0.9570  0.4073  0.6476
11326TIP3   OH233920   2.241   3.104   5.861  0.4074 -0.3774 -0.1528
11326TIP3    H133921   2.254   3.019   5.903  0.2911  0.6474  1.9861
11326TIP3    H233922   2.145   3.114   5.858  0.4257 -0.1969 -0.1371
11327TIP3   OH233923   2.778   5.213   6.519 -0.1174  0.3490  0.3716
11327TIP3    H133924   2.750   5.284   6.577 -2.2592  0.7504 -1.0972
11327TIP3    H233925   2.731   5.136   6.550 -0.2747  0.2762 -0.0522
11328TIP3   OH233926   3.422   4.362   4.871  0.4633 -0.3439  0.2511
11328TIP3    H133927   3.393   4.400   4.954  0.0935 -1.6884  0.7479
11328TIP3    H233928   3.490   4.300   4.896 -0.5557 -1.6992 -0.3200
11329TIP3   OH233929   7.329   8.023   0.977  0.4131 -0.2804  0.2189
11329TIP3    H133930   7.291   7.946   0.933  0.4612 -1.7384  2.6307
11329TIP3    H233931   7.409   8.042   0.928  0.3100 -1.6582 -0.5066
11330TIP3   OH233932   1.399   3.674   0.113  0.5482 -0.7087 -0.3798
11330TIP3    H133933   1.339   3.600   0.106  0.6110 -0.9909  1.8362
11330TIP3    H233934   1.398   3.697   0.206  2.2247  0.6614 -0.6818
11331TIP3   OH233935   4.156   2.610   4.644 -0.4636  0.9981  0.3228
11331TIP3    H133936   4.234   2.568   4.607  0.2781  0.4240  2.4105
11331TIP3    H233937   4.117   2.658   4.572 -0.0301 -1.4282 -1.5921
11332TIP3   OH233938   4.566   3.321   4.740  0.1245  0.4277  0.2653
11332TIP3    H133939   4.561   3.245   4.798 -0.9818  2.5437  3.0378
11332TIP3    H233940   4.513   3.296   4.664 -1.7404 -0.9193  1.9392
11333TIP3   OH233941   4.815   5.268   5.717  0.3266  0.3817  0.3998
11333TIP3    H133942   4.789   5.357   5.742 -2.4142 -0.4873  0.8612
11333TIP3    H233943   4.846   5.277   5.627  0.2668  1.8555  0.5151
11334TIP3   OH233944   4.604   4.960   6.380 -0.0828  0.0340 -0.4184
11334TIP3    H133945   4.527   4.986   6.430  0.9405  0.2111  1.0818
11334TIP3    H233946   4.610   5.025   6.310 -0.4834  0.8588  0.2995
11335TIP3   OH233947   2.519   2.678   0.278  0.1417 -0.1473  0.6039
11335TIP3    H133948   2.470   2.647   0.202  2.1668  2.5007 -1.9166
11335TIP3    H233949   2.610   2.677   0.249  0.9132  1.3645  2.8510
11336TIP3   OH233950   3.317   3.379   4.700  0.3762 -0.1373  0.2516
11336TIP3    H133951   3.315   3.302   4.756 -1.0273 -0.0070  0.4080
11336TIP3    H233952   3.313   3.345   4.611  0.1863 -0.2607  0.3084
11337TIP3   OH233953   4.182   5.825   5.155  0.0735 -0.6857 -0.1778
11337TIP3    H133954   4.186   5.816   5.060  0.8878 -1.1839 -0.0941
11337TIP3    H233955   4.221   5.911   5.173  0.0229 -0.6401 -0.2820
11338TIP3   OH233956   3.376   4.629   5.899 -0.1986  0.0313 -0.2487
11338TIP3    H133957   3.429   4.708   5.892  1.4407 -0.9769  0.4575
11338TIP3    H233958   3.372   4.611   5.993 -2.5709  0.5853 -0.2101
11339TIP3   OH233959   4.705   2.804   6.139 -0.6387  0.5192 -0.0559
11339TIP3    H133960   4.695   2.847   6.223  0.5589  1.4471 -0.3676
11339TIP3    H233961   4.721   2.875   6.077  0.1321 -0.2640 -0.7839
11340TIP3   OH233962   5.576   3.677   5.349 -0.0814  0.6335 -0.3825
11340TIP3    H133963   5.629   3.646   5.422 -1.3970 -1.1919 -0.1564
11340TIP3    H233964   5.635   3.678   5.275  1.0479  1.6558  0.5128
11341TIP3   OH233965   1.141   6.896   0.743 -0.3317  0.1026  0.0477
11341TIP3    H133966   1.048   6.879   0.730 -0.5952  1.5114  0.0325
11341TIP3    H233967   1.160   6.864   0.831 -1.1507  1.1405  0.6022
11342TIP3   OH233968   4.531   2.909   6.577 -0.1484  0.3216  0.3045
11342TIP3    H133969   4.460   2.944   6.523 -0.5513  2.2258  2.0204
11342TIP3    H233970   4.568   2.985   6.621  1.3574 -0.9703  1.3502
11343TIP3   OH233971   6.073   3.581   5.375 -0.2402  1.7800 -0.5415
11343TIP3    H133972   6.029   3.514   5.426 -1.1838  3.8068  1.4172
11343TIP3    H233973   6.150   3.538   5.338 -0.9835 -0.4074  0.4321
11344TIP3   OH233974   0.480   0.416   0.811  0.0231 -0.6235 -0.4707
11344TIP3    H133975   0.452   0.324   0.817  1.3409 -1.0817 -1.0671
11344TIP3    H233976   0.458   0.442   0.721 -2.2497  0.3000  0.3349
11345TIP3   OH233977   4.884   5.617   6.087 -0.4584  0.4446  0.0811
11345TIP3    H133978   4.924   5.535   6.057  1.3579  1.2895  0.1268
11345TIP3    H233979   4.875   5.670   6.007  1.2451  1.3799  0.4772
11346TIP3   OH233980   3.753   0.582   0.497  0.3081 -0.0544 -0.0317
11346TIP3    H133981   3.744   0.487   0.488  0.2493  0.0784 -1.4778
11346TIP3    H233982   3.809   0.608   0.424  0.8331  0.9559  0.7091
11347TIP3   OH233983   3.580   5.469   6.786  0.0299 -0.1024  0.1273
11347TIP3    H133984   3.497   5.458   6.740 -1.1531 -0.5251  2.2996
11347TIP3    H233985   3.614   5.380   6.797  1.4551  0.1526 -1.9081
11348TIP3   OH233986   4.807   6.832   3.981 -0.1362  0.0273  0.4417
11348TIP3    H133987   4.768   6.917   3.960 -0.8736 -0.1645  1.0179
11348TIP3    H233988   4.764   6.770   3.922  0.0799 -0.0153  0.3284
11349TIP3   OH233989   5.801   2.176   6.216  0.0038  0.2135  0.2526
11349TIP3    H133990   5.737   2.244   6.236  0.7786  1.0627 -0.0997
11349TIP3    H233991   5.854   2.214   6.145 -0.8945 -1.5816 -1.4074
11350TIP3   OH233992   4.931   5.546   5.821 -0.6969 -0.2087 -0.2548
11350TIP3    H133993   4.972   5.464   5.849 -1.9062 -0.4915  0.7315
11350TIP3    H233994   4.966   5.561   5.734 -1.3788 -2.4242 -0.9464
11351TIP3   OH233995   4.117   3.236   5.787  0.3514  0.6211 -0.1947
11351TIP3    H133996   4.151   3.147   5.780  0.4100  0.4608  1.6574
11351TIP3    H233997   4.051   3.243   5.719 -0.0526 -1.0340  0.0087
11352TIP3   OH233998   5.328   5.360   6.619  0.1133 -0.4293 -0.1104
11352TIP3    H133999   5.379   5.353   6.699  0.1068 -0.0004 -0.0642
11352TIP3    H234000   5.392   5.356   6.548  0.3540  1.3967 -0.0150
11353TIP3   OH234001   5.347   6.455   5.620  0.1145 -0.4733 -0.0151
11353TIP3    H134002   5.314   6.543   5.600 -0.1316 -0.7788 -0.9313
11353TIP3    H234003   5.407   6.469   5.694  1.0611  0.6482 -0.9866
11354TIP3   OH234004   4.720   4.120   3.927 -0.1585  0.5651  0.0509
11354TIP3    H134005   4.684   4.167   4.002 -1.2788  0.4842 -0.4377
11354TIP3    H234006   4.788   4.063   3.966  0.3683  1.6776  0.7861
11355TIP3   OH234007   5.835   1.817   6.551 -0.0260  0.0318 -0.0031
11355TIP3    H134008   5.871   1.847   6.467  0.0886  0.1345  0.0839
11355TIP3    H234009   5.773   1.886   6.576  1.3654  0.9470  0.9567
11356TIP3   OH234010   2.844   0.277   1.661 -0.0156  0.1782 -0.0083
11356TIP3    H134011   2.804   0.213   1.602  0.5535  0.0336 -0.2405
11356TIP3    H234012   2.858   0.354   1.605 -2.2796  1.1252  0.6806
11357TIP3   OH234013   7.435   7.062   5.122 -0.3167 -0.7076  0.2170
11357TIP3    H134014   7.433   7.073   5.217 -0.9313 -0.4335  0.1726
11357TIP3    H234015   7.491   6.985   5.108 -3.1934 -3.0034  1.0049
11358TIP3   OH234016   4.770   4.530   6.258  0.2828 -0.3632 -0.1307
11358TIP3    H134017   4.864   4.512   6.261  0.7486  2.0107  0.9338
11358TIP3    H234018   4.761   4.602   6.196 -0.5732  0.7420  1.2239
11359TIP3   OH234019   7.367   0.408   0.557 -0.2096 -0.2094  0.3522
11359TIP3    H134020   7.338   0.366   0.476  2.1405  1.0342 -1.2226
11359TIP3    H234021   7.309   0.483   0.567 -0.6150 -0.4578 -0.1154
11360TIP3   OH234022   4.644   4.595   5.076  0.0452  0.4835  0.1539
11360TIP3    H134023   4.588   4.673   5.070  0.2344  0.5581 -0.7156
11360TIP3    H234024   4.586   4.522   5.051  0.5052  0.6406 -1.4028
11361TIP3   OH234025   3.991   3.848   5.047 -0.5339  0.1311 -0.1860
11361TIP3    H134026   3.917   3.902   5.017 -0.9997 -1.2389 -1.5983
11361TIP3    H234027   3.957   3.758   5.045  0.5865 -0.3332  1.0172
11362TIP3   OH234028   4.604   5.744   6.166 -0.1132  0.0134  0.3705
11362TIP3    H134029   4.525   5.700   6.136  0.2493 -1.1071  1.0431
11362TIP3    H234030   4.663   5.673   6.192 -0.1016  0.9042  2.9390
11363TIP3   OH234031   3.560   3.154   4.164 -0.0341 -0.8539  0.1024
11363TIP3    H134032   3.504   3.227   4.140 -0.0422 -0.9444 -0.1489
11363TIP3    H234033   3.534   3.132   4.253 -0.8844 -1.3666 -0.2774
11364TIP3   OH234034   4.274   6.382   6.464 -0.0023 -0.1815  0.5531
11364TIP3    H134035   4.308   6.404   6.377 -1.1704  0.9149  0.3593
11364TIP3    H234036   4.219   6.305   6.448  0.2068 -0.3042  0.4118
11365TIP3   OH234037   4.357   3.917   4.205  0.3307  0.0330 -0.7935
11365TIP3    H134038   4.372   3.924   4.110  0.0080 -0.9647 -0.9229
11365TIP3    H234039   4.262   3.909   4.214  0.4177 -0.6247 -0.4358
11366TIP3   OH234040   4.893   4.817   6.203  0.3724 -0.3834  0.2105
11366TIP3    H134041   4.987   4.822   6.185  0.0399  1.8206 -0.9778
11366TIP3    H234042   4.851   4.851   6.125 -1.4779 -1.9676  0.4702
11367TIP3   OH234043   4.799   4.941   5.962 -0.1929  0.2736  0.7474
11367TIP3    H134044   4.806   5.028   6.000 -3.4853  1.3464 -0.8777
11367TIP3    H234045   4.828   4.952   5.871  0.8207 -0.6824  0.9393
11368TIP3   OH234046   5.959   4.850   4.517 -0.0183  0.2042 -0.3429
11368TIP3    H134047   5.878   4.816   4.478  0.4908 -0.8370 -0.5133
11368TIP3    H234048   5.934   4.874   4.606 -0.6593  0.4732 -0.5889
11369TIP3   OH234049   4.027   7.802   1.128 -0.3723 -0.0114  0.3188
11369TIP3    H134050   4.099   7.853   1.165  2.2564 -1.7206 -2.2022
11369TIP3    H234051   4.006   7.846   1.046 -0.0212 -1.3320 -0.4950
11370TIP3   OH234052   7.518   6.278   2.801 -0.6009  0.4292  0.1166
11370TIP3    H134053   7.451   6.213   2.824 -0.1329  0.1715  0.7595
11370TIP3    H234054   7.526   6.272   2.706 -0.8672 -0.1562  0.1311
11371TIP3   OH234055   2.996   1.454   0.074 -0.0706  0.4645 -0.5695
11371TIP3    H134056   2.910   1.493   0.091 -0.3624 -0.4062  0.0052
11371TIP3    H234057   3.057   1.508   0.124 -0.4412  0.3706 -0.0066
11372TIP3   OH234058   3.697   4.086   6.418  0.7229 -0.6458  0.7888
11372TIP3    H134059   3.695   3.999   6.380  2.3325 -0.4671  0.2756
11372TIP3    H234060   3.649   4.077   6.501 -1.0042 -1.4961 -0.2764
11373TIP3   OH234061   1.136   1.969   0.148 -0.3462 -0.1361  0.2623
11373TIP3    H134062   1.131   1.912   0.224  1.6806 -1.6076 -0.6618
11373TIP3    H234063   1.051   1.961   0.106 -0.5632 -1.3803  0.9292
11374TIP3   OH234064   5.883   4.327   6.866  0.2880  0.0603 -0.8188
11374TIP3    H134065   5.964   4.277   6.859 -0.5610 -1.2447 -1.3584
11374TIP3    H234066   5.866   4.333   6.960  0.9390  0.2445 -0.7107
11375TIP3   OH234067   3.367   3.153   5.587 -0.6628  0.2274  0.3972
11375TIP3    H134068   3.329   3.161   5.674 -1.8117  1.5814 -0.2100
11375TIP3    H234069   3.439   3.217   5.586  1.1336 -1.7204  1.2505
11376TIP3   OH234070   3.946   6.366   4.432 -0.3999  0.3021 -0.4644
11376TIP3    H134071   3.963   6.349   4.524 -1.5300 -0.2022 -0.3371
11376TIP3    H234072   4.032   6.375   4.393  0.1375 -1.0218  0.3598
11377TIP3   OH234073   3.633   5.711   5.837 -0.3045 -0.4304  0.3986
11377TIP3    H134074   3.682   5.638   5.799 -1.2281  0.5255 -2.7026
11377TIP3    H234075   3.560   5.669   5.883 -0.6393 -1.5084 -1.0662
11378TIP3   OH234076   1.664   5.091   6.232 -0.7113 -0.2116  0.0912
11378TIP3    H134077   1.598   5.034   6.193 -1.9518  1.6058 -0.5509
11378TIP3    H234078   1.705   5.134   6.156 -0.1950  0.1876  0.5938
11379TIP3   OH234079   2.530   1.000   0.740  0.2170  0.3757 -0.0071
11379TIP3    H134080   2.497   1.032   0.656 -0.6816  0.7657  0.4805
11379TIP3    H234081   2.451   0.988   0.793  0.5621 -2.3148 -0.0351
11380TIP3   OH234082   2.379   2.042   0.064  0.1908 -0.6815 -0.2762
11380TIP3    H134083   2.407   1.971   0.121  0.3003  0.2882  0.8946
11380TIP3    H234084   2.325   2.000  -0.003  0.5732 -1.9084  0.1803
11381TIP3   OH234085   5.511   6.238   4.994  0.7363 -0.8138  0.2472
11381TIP3    H134086   5.493   6.307   5.058 -1.4643  0.6601 -1.8720
11381TIP3    H234087   5.454   6.166   5.019 -1.0680  0.2297 -0.7182
11382TIP3   OH234088   5.172   7.659   5.008 -0.1501  0.1336 -0.4843
11382TIP3    H134089   5.107   7.596   5.039 -1.0081 -0.5048 -3.4728
11382TIP3    H234090   5.151   7.740   5.055 -1.7738 -0.6313  0.1399
11383TIP3   OH234091   2.954   3.947   5.277 -0.2100  0.0863 -0.1984
11383TIP3    H134092   2.961   3.927   5.183  2.5048  0.2465 -0.0739
11383TIP3    H234093   2.975   4.041   5.283  1.9249 -0.4255  0.7808
11384TIP3   OH234094   6.082   5.951   6.164 -0.1843 -0.2267 -0.0083
11384TIP3    H134095   6.110   6.015   6.228  0.7298 -1.5218  0.9106
11384TIP3    H234096   6.000   5.916   6.199 -0.1223 -0.3405  0.0215
11385TIP3   OH234097   4.767   3.076   4.124 -0.3727  0.3740 -0.1815
11385TIP3    H134098   4.699   3.129   4.084  0.2836  1.0912 -0.3521
11385TIP3    H234099   4.761   2.991   4.079 -2.2086 -0.1068  0.9281
11386TIP3   OH234100   5.870   7.059   0.001  0.1406  0.6313 -0.1315
11386TIP3    H134101   5.780   7.032  -0.019 -0.5871  3.1864 -0.5187
11386TIP3    H234102   5.859   7.142   0.049  2.2759  0.6573  0.3374
11387TIP3   OH234103   3.156   3.220   4.227  0.0574 -0.2214 -0.0389
11387TIP3    H134104   3.225   3.222   4.161 -1.7716 -0.8061 -2.0206
11387TIP3    H234105   3.117   3.133   4.218 -2.0797  0.7290 -0.1462
11388TIP3   OH234106   2.058   0.534   2.139  0.6928 -0.5093  0.4232
11388TIP3    H134107   2.026   0.625   2.146  0.0418 -0.5675 -1.4921
11388TIP3    H234108   2.153   0.543   2.133  0.6329  0.0559  0.2195
11389TIP3   OH234109   4.582   3.103   4.933  0.0822 -0.1936  0.4252
11389TIP3    H134110   4.554   3.025   4.981 -1.6312  0.1255 -0.0387
11389TIP3    H234111   4.677   3.106   4.946 -0.2297 -0.5147  3.1935
11390TIP3   OH234112   4.595   5.482   4.626 -0.0950 -0.6454 -0.3608
11390TIP3    H134113   4.593   5.390   4.655 -1.2434  0.3767  3.1023
11390TIP3    H234114   4.644   5.527   4.694 -1.0708  1.5974 -1.1085
11391TIP3   OH234115   3.456   4.651   5.371  0.3151 -0.1582 -0.1930
11391TIP3    H134116   3.523   4.654   5.304 -0.5718  0.2858 -1.0801
11391TIP3    H234117   3.480   4.577   5.427  2.3116  0.8713  0.3434
11392TIP3   OH234118   3.657   4.443   5.357 -0.3239 -0.4124  0.1299
11392TIP3    H134119   3.649   4.393   5.276  0.3283  0.1384 -0.2825
11392TIP3    H234120   3.746   4.478   5.355 -0.5803  0.2952  0.6850
11393TIP3   OH234121   3.682   4.719   5.146  0.3623 -0.7390  0.2445
11393TIP3    H134122   3.772   4.718   5.113  0.0393 -1.0947 -0.6315
11393TIP3    H234123   3.635   4.774   5.084 -0.0928 -0.8036  0.5349
11394TIP3   OH234124   3.862   4.338   5.776 -0.0658  0.1058 -0.0710
11394TIP3    H134125   3.830   4.248   5.777 -1.9228  0.7048 -1.5265
11394TIP3    H234126   3.954   4.330   5.751 -0.4511 -1.3497 -1.1519
11395TIP3   OH234127   2.538   2.044   0.496 -0.4856 -0.4292 -0.0917
11395TIP3    H134128   2.451   2.070   0.467  0.2333  3.4027  0.9545
11395TIP3    H234129   2.521   1.981   0.567 -2.3179 -1.4868 -1.4164
11396TIP3   OH234130   0.820   0.324   1.199 -0.1567 -0.4475 -0.2052
11396TIP3    H134131   0.909   0.327   1.235 -0.3718 -1.6879  0.4722
11396TIP3    H234132   0.830   0.280   1.115  0.2807  2.0468 -1.4969
11397TIP3   OH234133   4.807   2.276   6.847 -0.6537 -0.1804  0.1354
11397TIP3    H134134   4.726   2.229   6.832 -1.4103  0.8317  0.9318
11397TIP3    H234135   4.812   2.286   6.942  0.2313  0.0507  0.0715
11398TIP3   OH234136   7.161   7.368   1.154 -0.6963  0.3658  0.5574
11398TIP3    H134137   7.158   7.272   1.144 -0.2469  0.3535  0.5508
11398TIP3    H234138   7.078   7.398   1.117 -0.6570  0.0106  0.1762
11399TIP3   OH234139   4.684   3.423   6.438 -0.2154  0.1800 -0.0855
11399TIP3    H134140   4.695   3.370   6.517 -1.6148 -1.1168 -0.7421
11399TIP3    H234141   4.682   3.513   6.470 -1.7310 -0.3754  1.5052
11400TIP3   OH234142   4.591   3.935   3.409 -0.0434 -0.2618 -0.2517
11400TIP3    H134143   4.629   4.009   3.363 -0.6642  0.6497  0.6619
11400TIP3    H234144   4.647   3.922   3.485 -0.3764 -0.2337  0.0011
11401TIP3   OH234145   4.387   3.025   6.853 -0.6808  0.2276  0.6035
11401TIP3    H134146   4.470   3.073   6.854  0.0328 -0.9769  1.7625
11401TIP3    H234147   4.322   3.088   6.823  0.6692  1.1751 -0.3779
11402TIP3   OH234148   5.178   4.955   5.075  0.5844  0.2721 -0.4822
11402TIP3    H134149   5.129   4.965   5.157 -1.9187  0.5684 -1.9814
11402TIP3    H234150   5.183   4.861   5.062  0.7288  0.2318 -0.1571
11403TIP3   OH234151   5.614   2.041   4.081  0.0671 -0.3035  0.2922
11403TIP3    H134152   5.556   2.005   4.149  1.5644 -0.9207  1.2606
11403TIP3    H234153   5.558   2.101   4.032 -1.2664 -0.4877  1.5429
11404TIP3   OH234154   5.847   4.605   5.036 -0.2781  0.4003 -0.2138
11404TIP3    H134155   5.799   4.652   5.103 -0.4751 -2.2279  1.5683
11404TIP3    H234156   5.807   4.518   5.034 -0.1272  0.3138 -3.5782
11405TIP3   OH234157   7.872   7.466   1.888 -0.0369 -0.0189 -0.2705
11405TIP3    H134158   7.925   7.458   1.967 -2.8435  1.2651  1.7836
11405TIP3    H234159   7.871   7.560   1.869 -1.1982 -0.0850 -0.5518
11406TIP3   OH234160   0.416   7.332  -0.006  0.5085 -0.6188 -0.2436
11406TIP3    H134161   0.425   7.418   0.035 -1.4415 -0.1440 -0.7529
11406TIP3    H234162   0.376   7.277   0.061 -0.1201 -0.5827 -0.5863
11407TIP3   OH234163   1.352   2.410   1.688  0.3438 -0.4861 -0.1539
11407TIP3    H134164   1.377   2.500   1.707 -0.4430 -0.3391  0.1975
11407TIP3    H234165   1.398   2.358   1.754 -2.1001 -0.0089  1.9904
11408TIP3   OH234166   0.211   1.790   1.552 -0.6015 -0.0195  0.5369
11408TIP3    H134167   0.177   1.712   1.507  0.5995 -1.4416  2.0631
11408TIP3    H234168   0.247   1.757   1.634 -0.0734  2.1612  1.2117
11409TIP3   OH234169   5.662   2.472   6.090  0.6547  0.1662 -0.1716
11409TIP3    H134170   5.691   2.530   6.020 -1.9268 -0.4969 -1.8769
11409TIP3    H234171   5.587   2.517   6.130 -0.2328 -1.1323 -0.3221
11410TIP3   OH234172   4.696   1.290   4.077 -0.4746 -0.1373  0.1661
11410TIP3    H134173   4.683   1.384   4.063 -0.6652 -0.1469  0.2752
11410TIP3    H234174   4.727   1.284   4.168  0.5831 -0.0894 -0.1783
11411TIP3   OH234175   3.000   0.377   0.212  0.3722 -0.2926  0.0977
11411TIP3    H134176   2.936   0.432   0.257 -1.3212 -0.6823 -1.7237
11411TIP3    H234177   3.069   0.437   0.185  1.0287  0.0637  2.5020
11412TIP3   OH234178   5.040   2.791   6.330 -0.3297 -0.1238  0.1296
11412TIP3    H134179   4.996   2.871   6.303  1.0598 -0.0887 -2.1145
11412TIP3    H234180   4.973   2.723   6.325 -0.5050  0.1836 -1.8346
11413TIP3   OH234181   5.238   4.380   5.233  0.0343 -0.8122  0.8837
11413TIP3    H134182   5.242   4.370   5.138 -0.6442  0.0036  0.7683
11413TIP3    H234183   5.165   4.440   5.248  0.6629 -0.2897  1.8704
11414TIP3   OH234184   5.639   3.157   5.616 -0.2719 -0.0410 -0.5416
11414TIP3    H134185   5.678   3.146   5.530  1.3207  0.0125  0.1637
11414TIP3    H234186   5.545   3.166   5.599 -0.0291 -0.5929 -2.2142
11415TIP3   OH234187   5.857   6.023   5.262 -0.0921  0.1666 -0.3896
11415TIP3    H134188   5.851   5.945   5.208  1.2778  0.2050 -0.6073
11415TIP3    H234189   5.859   6.096   5.200  0.0271  0.2948 -0.2382
11416TIP3   OH234190   5.284   4.172   5.735 -0.3375  0.3044  0.3814
11416TIP3    H134191   5.291   4.215   5.650 -0.6284  0.8978  0.6580
11416TIP3    H234192   5.209   4.114   5.726 -1.3155  1.4944  0.7212
11417TIP3   OH234193   3.255   4.229   6.589 -0.1153  0.0841  0.0241
11417TIP3    H134194   3.316   4.203   6.520  1.4451 -0.0004  1.4017
11417TIP3    H234195   3.219   4.147   6.622 -0.4702  0.0972 -0.3183
11418TIP3   OH234196   4.414   5.433   6.187  0.1302  0.4805  0.1061
11418TIP3    H134197   4.384   5.524   6.186  0.6128  0.6476  0.6992
11418TIP3    H234198   4.476   5.428   6.260 -0.0856 -0.3844  0.2464
11419TIP3   OH234199   5.925   6.476   4.558  0.2999 -0.1045  0.4201
11419TIP3    H134200   6.018   6.467   4.537 -0.0308  0.4505 -1.3086
11419TIP3    H234201   5.893   6.386   4.564  0.9297 -0.2970  0.9780
11420TIP3   OH234202   5.250   4.170   6.449 -0.1454 -0.0306  0.1121
11420TIP3    H134203   5.273   4.263   6.448 -1.8167  0.3863 -0.5900
11420TIP3    H234204   5.332   4.125   6.426  0.7430  1.2393  0.7306
11421TIP3   OH234205   4.201   0.931   1.001  0.0233 -0.4257 -1.0611
11421TIP3    H134206   4.215   1.026   1.007  0.5871 -0.5933  0.6024
11421TIP3    H234207   4.280   0.898   0.958  1.4643 -0.5011  1.4977
11422TIP3   OH234208   5.980   3.065   5.451  0.3052 -0.2808 -0.4159
11422TIP3    H134209   6.043   3.026   5.391  1.4953 -0.2787  0.8181
11422TIP3    H234210   5.931   2.990   5.485  0.7879 -0.4433 -0.0790
11423TIP3   OH234211   0.963   7.132   1.259  0.9653 -0.0636  0.1023
11423TIP3    H134212   1.030   7.183   1.214  1.8053 -0.1394  1.2383
11423TIP3    H234213   0.987   7.138   1.351 -0.5769 -0.1304  0.5143
11424TIP3   OH234214   6.941   5.479   6.136  0.0048  0.1695  1.0059
11424TIP3    H134215   7.036   5.473   6.142  0.0566 -2.2795 -1.2821
11424TIP3    H234216   6.911   5.388   6.134 -2.3420  0.8973  0.8951
11425TIP3   OH234217   5.974   2.705   6.355 -0.3328  0.1750  0.5546
11425TIP3    H134218   6.015   2.787   6.381 -0.4588  0.2976  0.3694
11425TIP3    H234219   5.881   2.727   6.347 -0.3722  0.0038  0.5463
11426TIP3   OH234220   1.032   0.568   0.393  0.0086  0.1972  0.2981
11426TIP3    H134221   1.115   0.615   0.397 -0.3830  1.2012 -2.3096
11426TIP3    H234222   0.992   0.597   0.311 -1.7629 -2.2017  0.2588
11427TIP3   OH234223   2.641   4.793   5.702  0.0056  0.2456  0.0985
11427TIP3    H134224   2.667   4.885   5.706  2.9156 -0.4987 -0.1031
11427TIP3    H234225   2.564   4.792   5.645 -0.1631  2.5521  0.2345
11428TIP3   OH234226   1.543   0.717   0.275 -0.2982  0.0057 -0.6830
11428TIP3    H134227   1.526   0.635   0.229  0.4222  0.7152 -2.2488
11428TIP3    H234228   1.555   0.782   0.205  1.7004  0.9302  0.4632
11429TIP3   OH234229   5.169   4.836   6.077 -0.4978  0.2342  0.3449
11429TIP3    H134230   5.231   4.803   6.142 -0.5129 -1.1524 -0.3251
11429TIP3    H234231   5.179   4.932   6.081  3.2531  0.0141 -1.2455
11430TIP3   OH234232   4.793   6.595   5.204 -0.0338 -0.6054  0.0692
11430TIP3    H134233   4.706   6.600   5.244  0.2901  0.4928  0.6598
11430TIP3    H234234   4.775   6.583   5.110 -0.8536  0.8216  0.0267
11431TIP3   OH234235   2.672   0.760   0.807  0.3289 -0.0736 -0.7913
11431TIP3    H134236   2.642   0.849   0.792 -1.3739 -0.4059  0.5461
11431TIP3    H234237   2.671   0.719   0.720 -0.4504  0.7278 -1.1584
11432TIP3   OH234238   3.324   3.042   5.138  0.0199 -0.2379 -0.6054
11432TIP3    H134239   3.284   3.045   5.225  0.2377  0.1946 -0.5208
11432TIP3    H234240   3.417   3.028   5.154  0.3008  1.4416 -0.7084
11433TIP3   OH234241   5.748   5.567   4.563 -0.7227  0.0882  0.2577
11433TIP3    H134242   5.741   5.576   4.467  1.2004  0.0318  0.1094
11433TIP3    H234243   5.758   5.657   4.595 -1.6348  0.1303  0.4428
11434TIP3   OH234244   4.467   5.974   4.831 -0.6358  0.0242  0.2403
11434TIP3    H134245   4.428   6.049   4.875  1.9437  2.0395 -0.7666
11434TIP3    H234246   4.419   5.967   4.748  0.1264  1.5939 -0.3605
11435TIP3   OH234247   5.201   4.708   5.827 -0.2195  0.0705  0.4624
11435TIP3    H134248   5.184   4.763   5.903  0.1224  0.1854  0.4562
11435TIP3    H234249   5.115   4.674   5.802 -0.2437 -0.4733  1.2782
11436TIP3   OH234250   4.027   3.490   4.910 -0.5818  0.2845  0.8728
11436TIP3    H134251   3.954   3.487   4.848  1.7920  1.6876 -2.1008
11436TIP3    H234252   3.987   3.468   4.994 -4.4054  0.8943 -0.6679
11437TIP3   OH234253   3.494   4.871   5.825  0.3160 -0.6413 -0.0405
11437TIP3    H134254   3.549   4.917   5.888  0.1181 -1.7093  0.9326
11437TIP3    H234255   3.479   4.935   5.755  0.3468  0.6480  1.0986
11438TIP3   OH234256   4.129   4.670   4.728 -0.1117  0.3198 -0.4513
11438TIP3    H134257   4.093   4.584   4.704 -0.5822  0.6736 -1.0440
11438TIP3    H234258   4.224   4.658   4.728 -0.2062 -0.4472  0.4260
11439TIP3   OH234259   5.145   4.952   6.727  0.1540  0.3336  0.1315
11439TIP3    H134260   5.136   4.936   6.633 -1.2196  1.6675  0.0113
11439TIP3    H234261   5.118   5.043   6.738  0.3172  0.1904  1.8254
11440TIP3   OH234262   2.407   5.140   5.972  0.1214  0.1235 -0.2869
11440TIP3    H134263   2.367   5.062   5.934 -1.2099  0.8941 -0.5084
11440TIP3    H234264   2.489   5.151   5.924 -0.1867 -0.5444 -0.9745
11441TIP3   OH234265   5.424   3.038   6.864  0.2248 -0.3110 -0.0380
11441TIP3    H134266   5.460   2.979   6.798  2.9058 -0.2426  1.3041
11441TIP3    H234267   5.416   2.984   6.943 -0.3606  0.2930  0.3212
11442TIP3   OH234268   5.923   6.953   0.994 -0.5449  0.3128  0.3559
11442TIP3    H134269   5.992   7.015   1.017 -0.0113 -0.5587  1.1061
11442TIP3    H234270   5.912   6.965   0.899  1.1267 -0.0540  0.0989
11443TIP3   OH234271   5.699   5.135   4.551  0.2100  0.4089 -0.6617
11443TIP3    H134272   5.707   5.201   4.620 -0.4554 -0.4488  0.2483
11443TIP3    H234273   5.790   5.114   4.528  0.4961 -0.4542  1.1029
11444TIP3   OH234274   2.125   3.558   6.357  0.4883 -0.0963  0.5604
11444TIP3    H134275   2.090   3.641   6.391  0.7430  0.3613 -0.2910
11444TIP3    H234276   2.171   3.520   6.432  0.8648  0.8067  0.8011
11445TIP3   OH234277   5.843   2.505   5.481 -0.8603 -0.1940 -0.3532
11445TIP3    H134278   5.933   2.487   5.507 -0.8804  0.7835  0.4110
11445TIP3    H234279   5.823   2.437   5.416  0.6917  0.0897 -1.1503
11446TIP3   OH234280   4.762   5.666   4.477  0.3238  0.0136 -0.0719
11446TIP3    H134281   4.693   5.704   4.423 -0.3691 -1.3556 -0.1848
11446TIP3    H234282   4.717   5.599   4.529  1.1833  0.5404  1.3776
11447TIP3   OH234283   2.894   4.076   6.106  0.2773 -0.3431  0.1405
11447TIP3    H134284   2.911   4.092   6.199  0.2093 -1.1890  0.3074
11447TIP3    H234285   2.879   4.162   6.069 -2.8737 -0.2236  1.5526
11448TIP3   OH234286   3.183   4.658   6.249  0.4120  0.1219  0.6139
11448TIP3    H134287   3.251   4.726   6.241  0.7108  0.0153  2.1043
11448TIP3    H234288   3.122   4.693   6.314  0.7798 -1.1961  1.6908
11449TIP3   OH234289   5.068   3.059   6.190  0.1863  0.0971 -0.0236
11449TIP3    H134290   5.120   3.131   6.154  0.5964 -0.0766  0.2101
11449TIP3    H234291   4.999   3.102   6.241 -0.9646  0.3510 -1.7778
11450TIP3   OH234292   6.172   5.957   5.877  0.3762 -0.0475 -0.3258
11450TIP3    H134293   6.128   5.944   5.961  1.5262 -1.5266  0.0574
11450TIP3    H234294   6.196   5.869   5.848  0.5686  0.5047 -1.8938
11451TIP3   OH234295   4.148   4.193   6.563 -0.2458 -0.6366 -0.2935
11451TIP3    H134296   4.136   4.120   6.624 -1.4404 -0.8539 -0.7676
11451TIP3    H234297   4.235   4.226   6.582 -0.9634 -0.0576  2.2644
11452TIP3   OH234298   3.807   3.596   4.538 -0.0880 -0.0633 -0.5060
11452TIP3    H134299   3.855   3.535   4.481 -0.2656  0.0650 -0.7933
11452TIP3    H234300   3.726   3.613   4.491  0.0177  0.4995 -0.4787
11453TIP3   OH234301   3.999   6.122   6.069 -0.3015 -0.5792 -0.0473
11453TIP3    H134302   4.008   6.210   6.034 -0.2233 -0.5747 -0.0140
11453TIP3    H234303   3.932   6.082   6.014 -0.4241 -0.4600  0.0168
11454TIP3   OH234304   3.811   2.900   6.906  0.0336  1.1132  0.1811
11454TIP3    H134305   3.836   2.963   6.974  0.2843 -0.6324  1.7306
11454TIP3    H234306   3.716   2.911   6.897  0.0386  1.5374  0.5992
11455TIP3   OH234307   0.383   4.566   5.932  0.2822 -0.3495  0.1457
11455TIP3    H134308   0.347   4.650   5.962  1.3165  0.6218 -1.2540
11455TIP3    H234309   0.422   4.528   6.011  3.0024  2.1836  0.1155
11456TIP3   OH234310   1.350   1.697   0.506  0.6256 -0.4428  0.1965
11456TIP3    H134311   1.266   1.718   0.546  0.8311  0.1542  0.3195
11456TIP3    H234312   1.340   1.608   0.474 -0.5154  0.0963 -1.0023
11457TIP3   OH234313   4.199   3.289   4.212  0.3119 -0.0357  0.2628
11457TIP3    H134314   4.293   3.306   4.221  0.2858  0.4991 -0.4870
11457TIP3    H234315   4.173   3.337   4.133 -1.1926  2.1810  2.0678
11458TIP3   OH234316   4.446   2.679   6.836 -0.5866  0.1282  0.7293
11458TIP3    H134317   4.443   2.766   6.797  0.3884 -0.0355  0.2751
11458TIP3    H234318   4.374   2.678   6.898 -1.0062  1.0349  0.2612
11459TIP3   OH234319   4.893   7.153   4.443  0.1933 -0.2241 -0.3845
11459TIP3    H134320   4.816   7.191   4.484  0.1925  0.8024 -1.3007
11459TIP3    H234321   4.874   7.059   4.439 -0.3720 -0.1596  0.7163
11460TIP3   OH234322   4.192   6.855   6.328  0.3958 -0.1130 -1.1248
11460TIP3    H134323   4.108   6.891   6.300 -0.1584  0.0114  0.5988
11460TIP3    H234324   4.224   6.806   6.252 -0.5792  0.9714 -2.2570
11461TIP3   OH234325   1.670   3.170   4.233  0.5601  0.2122  0.0171
11461TIP3    H134326   1.601   3.200   4.174  1.1033 -0.6811 -1.0982
11461TIP3    H234327   1.653   3.077   4.245  1.2973  0.0781  0.0886
11462TIP3   OH234328   7.329   2.690   6.546  0.1417 -0.5545 -0.3265
11462TIP3    H134329   7.292   2.768   6.506  1.9014  0.2713 -0.4008
11462TIP3    H234330   7.271   2.671   6.620 -1.4491 -0.3848 -1.5123
11463TIP3   OH234331   4.206   4.858   5.839 -0.2560 -0.5519  0.4649
11463TIP3    H134332   4.151   4.783   5.859  0.8659 -0.9455  2.1614
11463TIP3    H234333   4.296   4.825   5.845  0.2237  0.5771 -0.2151
11464TIP3   OH234334   3.643   3.729   5.227  0.4150 -0.2743 -0.6851
11464TIP3    H134335   3.644   3.794   5.157 -0.5541 -1.0422 -1.4248
11464TIP3    H234336   3.610   3.778   5.303 -1.3978 -0.1421 -1.5164
11465TIP3   OH234337   5.761   4.578   6.824 -0.2080 -0.0267  0.3890
11465TIP3    H134338   5.798   4.491   6.838  0.3672  0.0880 -0.3796
11465TIP3    H234339   5.836   4.633   6.802 -0.8225  0.2016 -1.1885
11466TIP3   OH234340   5.519   5.883   6.205 -0.0459  0.6495  0.7107
11466TIP3    H134341   5.552   5.955   6.259  1.0514  1.7243 -1.3684
11466TIP3    H234342   5.477   5.925   6.130  0.2716 -0.8617 -0.3354
11467TIP3   OH234343   3.870   3.204   4.570  0.3761 -0.1028 -0.3044
11467TIP3    H134344   3.858   3.278   4.511 -1.7117  0.8388  1.2462
11467TIP3    H234345   3.940   3.231   4.628  1.2282 -0.3201 -1.2119
11468TIP3   OH234346   4.290   5.807   4.449  0.4424 -0.2003  0.2647
11468TIP3    H134347   4.229   5.744   4.412 -2.1503  2.1718  0.3794
11468TIP3    H234348   4.276   5.801   4.544  0.9682 -0.2295  0.3418
11469TIP3   OH234349   3.982   4.998   5.030  0.2993 -0.0068  0.2739
11469TIP3    H134350   4.036   4.946   4.970  0.1104  2.3186 -1.9999
11469TIP3    H234351   4.045   5.034   5.093  0.9304 -0.1560 -0.2545
11470TIP3   OH234352   5.897   4.664   6.540  0.3105 -0.2322  0.3885
11470TIP3    H134353   5.902   4.628   6.451 -1.6758  1.2774 -0.3676
11470TIP3    H234354   5.949   4.604   6.593  0.1167 -2.1070 -1.4907
11471TIP3   OH234355   2.864   4.160   3.896  0.4502 -0.4329  0.0044
11471TIP3    H134356   2.794   4.131   3.838  0.1773 -0.0421  0.1426
11471TIP3    H234357   2.822   4.219   3.958  1.1244  0.7565 -0.6598
11472TIP3   OH234358   4.923   6.747   6.142 -0.3705  0.4296 -1.0958
11472TIP3    H134359   4.993   6.805   6.171 -0.8479  1.4415 -1.9539
11472TIP3    H234360   4.867   6.801   6.087 -0.6319 -0.9317 -2.2055
11473TIP3   OH234361   3.698   2.523   4.590  0.3163  0.5723  0.4785
11473TIP3    H134362   3.684   2.615   4.612  1.0559  1.4969 -2.6506
11473TIP3    H234363   3.790   2.507   4.612  1.0478  1.4804 -1.8233
11474TIP3   OH234364   1.787   0.741   0.483  0.1042 -0.1393 -0.0335
11474TIP3    H134365   1.723   0.712   0.418 -0.1614 -0.4745  0.3772
11474TIP3    H234366   1.832   0.661   0.510 -0.0070 -0.0489  0.4299
11475TIP3   OH234367   8.053   7.891   0.973  0.1455  0.3189  0.1281
11475TIP3    H134368   8.011   7.904   0.888 -2.3672  0.2734  1.3191
11475TIP3    H234369   8.061   7.980   1.009  1.3991  0.3571 -0.2372
11476TIP3   OH234370   4.547   4.150   6.780 -0.1469  0.5611  0.1255
11476TIP3    H134371   4.616   4.158   6.846  1.7326  0.5942 -1.7576
11476TIP3    H234372   4.572   4.073   6.728 -1.0759  1.0595 -1.1009
11477TIP3   OH234373   5.636   1.495   6.194  0.1474  0.2998  0.4094
11477TIP3    H134374   5.721   1.539   6.186  1.2768 -1.9102 -0.5176
11477TIP3    H234375   5.652   1.426   6.259 -1.1722  0.4256  0.8624
11478TIP3   OH234376   3.291   4.648   6.860  0.2561  0.1891 -0.3097
11478TIP3    H134377   3.310   4.597   6.782  0.4642  0.0673 -0.1782
11478TIP3    H234378   3.309   4.588   6.933 -0.3760  0.1534 -0.1810
11479TIP3   OH234379   2.607   0.564   0.981  0.0351  0.5010 -0.1275
11479TIP3    H134380   2.589   0.494   0.918  1.1985  0.3386 -0.2898
11479TIP3    H234381   2.633   0.639   0.927 -1.6020  1.2057  0.0209
11480TIP3   OH234382   3.733   6.594   4.122 -0.3755 -0.0339 -0.0791
11480TIP3    H134383   3.656   6.628   4.075 -0.3289  0.0911 -0.0646
11480TIP3    H234384   3.785   6.672   4.142 -0.9242  0.0313  1.1219
11481TIP3   OH234385   5.525   3.017   6.118 -0.0748 -0.3394 -0.3014
11481TIP3    H134386   5.475   2.988   6.195 -0.5532  2.2377  0.4302
11481TIP3    H234387   5.463   3.010   6.046 -0.6542  0.2315  0.1267
11482TIP3   OH234388   2.784   5.111   6.157  0.2089 -0.4376  0.0450
11482TIP3    H134389   2.866   5.158   6.169  0.6294 -0.8730 -1.0573
11482TIP3    H234390   2.726   5.176   6.116  0.7384 -0.8233 -1.3258
11483TIP3   OH234391   5.522   4.883   6.554 -0.4453 -0.4745  0.1980
11483TIP3    H134392   5.550   4.953   6.612  2.1463 -0.5656 -0.9006
11483TIP3    H234393   5.510   4.807   6.612 -1.5791  0.3857  1.1201
11484TIP3   OH234394   1.075   5.597   5.406  0.0310  0.2087  0.3495
11484TIP3    H134395   1.030   5.556   5.332  0.2562  2.7817 -1.2871
11484TIP3    H234396   1.008   5.605   5.473 -0.5335 -0.9490 -0.0598
11485TIP3   OH234397   4.167   5.874   5.568 -0.0131 -0.4662  0.6047
11485TIP3    H134398   4.224   5.950   5.553 -1.4273  0.7322  1.1841
11485TIP3    H234399   4.213   5.801   5.527  1.1082  0.8089 -0.4598
11486TIP3   OH234400   5.206   6.215   5.345 -0.5288 -0.2541  0.3840
11486TIP3    H134401   5.125   6.255   5.315  1.1725  2.1850 -1.0992
11486TIP3    H234402   5.243   6.277   5.408  0.7458 -0.7783  0.1792
11487TIP3   OH234403   4.700   3.601   4.987  0.2289  0.0763 -0.8794
11487TIP3    H134404   4.726   3.600   5.079 -0.7605  0.7165 -0.5842
11487TIP3    H234405   4.694   3.509   4.962  1.3461 -0.0832 -0.5484
11488TIP3   OH234406   7.209   5.502   6.187  0.4128 -0.5943  0.4502
11488TIP3    H134407   7.281   5.449   6.151  1.6115  1.2805  0.0543
11488TIP3    H234408   7.211   5.483   6.281  3.0203  1.2713  0.8258
11489TIP3   OH234409   5.876   4.711   6.136  0.1597 -0.5170  0.3262
11489TIP3    H134410   5.788   4.747   6.132 -0.4665 -1.9023  1.1785
11489TIP3    H234411   5.898   4.692   6.044 -0.7492 -0.8956  0.1779
11490TIP3   OH234412   6.980   5.453   3.160 -0.3493  0.3957 -0.9929
11490TIP3    H134413   6.952   5.394   3.090 -0.3420 -1.4808  0.5414
11490TIP3    H234414   6.898   5.484   3.200 -0.3425 -1.6409  0.6723
11491TIP3   OH234415   5.946   3.322   5.174 -0.0364 -0.3765 -0.0144
11491TIP3    H134416   5.860   3.286   5.150  0.0048 -0.5412  0.0801
11491TIP3    H234417   5.957   3.398   5.117 -0.4274 -0.1129  0.2533
11492TIP3   OH234418   4.743   7.126   6.531 -0.4346  0.1358  0.5033
11492TIP3    H134419   4.744   7.116   6.436  0.8658 -0.9309  0.6108
11492TIP3    H234420   4.675   7.066   6.561  0.2144 -0.6772  0.3584
11493TIP3   OH234421   6.820   5.190   5.766 -0.4472 -0.0429  0.0836
11493TIP3    H134422   6.769   5.130   5.711 -1.1906  0.3409  0.3514
11493TIP3    H234423   6.856   5.254   5.704 -2.3883  1.1880  0.1533
11494TIP3   OH234424   5.558   2.870   0.210  0.7117  0.0434  0.0155
11494TIP3    H134425   5.506   2.905   0.138  1.7803  2.0683  0.1685
11494TIP3    H234426   5.643   2.850   0.171  0.4687 -1.3476  0.1763
11495TIP3   OH234427   3.956   4.194   5.036 -0.1235 -0.2923  0.2639
11495TIP3    H134428   4.026   4.253   5.066  1.2517 -0.9223 -1.5714
11495TIP3    H234429   3.920   4.156   5.116 -0.4966  2.4195  1.4245
11496TIP3   OH234430   3.677   3.235   5.835 -0.0992  0.0282  0.2736
11496TIP3    H134431   3.715   3.183   5.905 -1.2728 -0.6167  0.4338
11496TIP3    H234432   3.658   3.320   5.875  1.1643  0.3685  0.1885
11497TIP3   OH234433   4.341   4.531   5.586  0.4509 -0.0986 -0.3008
11497TIP3    H134434   4.409   4.494   5.531  0.8001 -0.8598  0.6182
11497TIP3    H234435   4.376   4.615   5.615  1.9249 -1.4043  1.8624
11498TIP3   OH234436   4.550   4.138   5.901  0.0160 -0.0190 -0.9696
11498TIP3    H134437   4.551   4.161   5.994  2.1536  1.6558 -1.3658
11498TIP3    H234438   4.617   4.069   5.893 -1.8066 -1.8328 -0.8957
11499TIP3   OH234439   5.421   1.742   1.046  0.2400 -0.0002 -0.1028
11499TIP3    H134440   5.496   1.745   1.106 -0.0587  1.5135  0.2024
11499TIP3    H234441   5.362   1.810   1.078 -1.1848 -1.0472 -0.4606
11500TIP3   OH234442   4.600   3.899   5.225 -0.0909 -0.3148  0.6957
11500TIP3    H134443   4.543   3.902   5.303 -2.1430 -0.9057 -0.7316
11500TIP3    H234444   4.641   3.813   5.229 -1.8283 -1.1951  0.0260
11501TIP3   OH234445   4.636   2.042   4.188 -0.1729  0.0153  0.0822
11501TIP3    H134446   4.600   2.022   4.101  1.1999  0.6112 -0.6437
11501TIP3    H234447   4.608   1.969   4.243  1.5737 -2.0195 -1.6132
11502TIP3   OH234448   6.701   3.651   6.454  0.1359  0.4558 -0.8726
11502TIP3    H134449   6.691   3.625   6.545  4.2848 -0.1695 -0.5041
11502TIP3    H234450   6.728   3.743   6.457 -1.0661  0.8604 -1.5912
11503TIP3   OH234451   4.996   2.911   6.884 -0.3472 -0.1113  0.0859
11503TIP3    H134452   4.944   2.832   6.869 -0.4035 -0.2401  0.9602
11503TIP3    H234453   4.984   2.963   6.804 -0.7316 -0.7447 -0.2726
11504TIP3   OH234454   5.404   4.442   5.788 -0.3671 -0.1821  0.1450
11504TIP3    H134455   5.356   4.525   5.793 -0.3772 -0.1890  0.1481
11504TIP3    H234456   5.356   4.390   5.724 -0.8003 -0.4776  0.7071
11505TIP3   OH234457   5.036   4.530   6.159 -0.5478  0.2570  0.1769
11505TIP3    H134458   5.118   4.483   6.146 -0.7810 -0.1921  0.3388
11505TIP3    H234459   5.008   4.554   6.071 -0.6502 -0.2791  0.0639
11506TIP3   OH234460   1.033   6.069   0.606  0.5542  0.8407  0.1656
11506TIP3    H134461   1.051   6.161   0.625  2.5105  0.4719  0.2614
11506TIP3    H234462   1.000   6.069   0.516 -0.5608  1.7343  0.5620
11507TIP3   OH234463   5.507   4.668   6.722  0.1014 -0.8034 -0.3596
11507TIP3    H134464   5.589   4.646   6.766 -0.1793 -1.2153 -0.0315
11507TIP3    H234465   5.456   4.587   6.725 -0.0546 -0.7449 -1.1588
11508TIP3   OH234466   3.318   3.246   4.466 -0.5358  0.0888  0.2020
11508TIP3    H134467   3.269   3.260   4.385 -0.4699  2.4338  0.5382
11508TIP3    H234468   3.380   3.177   4.445 -0.7587  0.4328 -1.6358
11509TIP3   OH234469   1.040   0.536   1.915 -0.3000  0.0483 -0.2007
11509TIP3    H134470   1.056   0.487   1.995  1.7316  0.6655 -0.2032
11509TIP3    H234471   1.044   0.628   1.941  1.3610  0.2731 -1.1590
11510TIP3   OH234472   1.793   1.780   1.702 -0.1674  0.2754  0.1204
11510TIP3    H134473   1.843   1.848   1.656  0.4488 -1.3516 -1.6795
11510TIP3    H234474   1.721   1.758   1.643  0.6185 -1.8189 -0.1207
11511TIP3   OH234475   7.487   3.549   3.874 -0.1522 -0.6295  0.1816
11511TIP3    H134476   7.425   3.545   3.947 -1.0121 -2.1308 -0.6007
11511TIP3    H234477   7.452   3.487   3.810 -0.2978  1.8274 -2.2079
11512TIP3   OH234478   4.727   2.918   6.382 -0.0760 -0.1049 -0.1761
11512TIP3    H134479   4.680   2.917   6.466  0.2116  0.6722  0.0055
11512TIP3    H234480   4.779   2.999   6.386  1.0029 -0.7778 -0.5197
11513TIP3   OH234481   4.969   4.211   6.509  0.1790 -0.1357 -0.3675
11513TIP3    H134482   5.038   4.224   6.444  1.0995 -0.1183  0.5971
11513TIP3    H234483   4.990   4.127   6.550 -1.1250 -0.7652 -0.9670
11514TIP3   OH234484   4.816   6.056   6.183 -0.5713 -0.9526 -0.5158
11514TIP3    H134485   4.732   6.024   6.216 -0.2881 -0.5938  0.5954
11514TIP3    H234486   4.822   6.145   6.216  1.1890 -1.6787  1.2334
11515TIP3   OH234487   5.103   3.960   6.549 -0.7483 -0.0375 -0.1714
11515TIP3    H134488   5.169   3.925   6.609 -0.6003  1.2226  0.4204
11515TIP3    H234489   5.153   4.017   6.490 -1.3258  1.1528  0.4616
11516TIP3   OH234490   1.800   3.179   0.945  0.1197  0.5079 -0.1363
11516TIP3    H134491   1.734   3.246   0.963 -0.1438 -0.0725  1.1129
11516TIP3    H234492   1.780   3.148   0.857 -1.3114  0.2838  0.2643
11517TIP3   OH234493   1.499   1.930   0.445  0.2342 -0.0337  0.6781
11517TIP3    H134494   1.442   1.860   0.477  0.1756 -0.7934 -1.0040
11517TIP3    H234495   1.503   1.915   0.350  1.9499  0.9670  0.5823
11518TIP3   OH234496   3.345   2.296   1.493  0.7781 -0.1330 -0.9378
11518TIP3    H134497   3.347   2.273   1.400  1.3222  1.9076 -1.4487
11518TIP3    H234498   3.254   2.321   1.510  0.1489 -2.6681 -0.3452
11519TIP3   OH234499   4.083   2.927   5.410  0.0541  0.2692  0.2039
11519TIP3    H134500   4.076   2.883   5.325  0.9591  2.5741 -1.1226
11519TIP3    H234501   4.008   2.987   5.413 -0.3210 -0.2362  1.3166
11520TIP3   OH234502   1.038   0.277   0.394  0.2016 -0.0081 -1.0780
11520TIP3    H134503   1.121   0.263   0.439  0.2161  1.0908 -0.7491
11520TIP3    H234504   1.015   0.368   0.413 -1.8975 -0.7723  0.1620
11521TIP3   OH234505   5.174   6.252   5.958 -0.0800  0.7802 -0.6613
11521TIP3    H134506   5.119   6.174   5.955  1.8015 -0.5337 -1.6744
11521TIP3    H234507   5.124   6.318   5.909 -1.3004 -0.0282 -0.5154
11522TIP3   OH234508   1.994   1.064   0.902  0.0600 -0.0248 -0.2079
11522TIP3    H134509   2.067   1.107   0.946  0.1928  0.7815 -1.1921
11522TIP3    H234510   2.009   1.081   0.809 -1.4719  0.3141 -0.4098
11523TIP3   OH234511   5.684   6.792   4.581 -0.4278 -0.3179  0.1901
11523TIP3    H134512   5.733   6.734   4.640 -0.5501 -1.8929 -1.2225
11523TIP3    H234513   5.608   6.818   4.632  0.2977 -0.3402  1.3094
11524TIP3   OH234514   4.445   6.642   6.717 -0.4819  0.5387  0.5210
11524TIP3    H134515   4.438   6.718   6.659  0.9950 -0.9299 -1.6483
11524TIP3    H234516   4.358   6.601   6.713 -0.6834  0.9948  0.1129
11525TIP3   OH234517   4.663   4.920   6.900 -0.1779  0.5015 -0.7759
11525TIP3    H134518   4.572   4.920   6.932  0.5435 -0.8564  1.3791
11525TIP3    H234519   4.681   4.829   6.877  1.3706  0.3181  1.0452
11526TIP3   OH234520   5.811   5.354   6.718  0.0048  0.4131  0.0559
11526TIP3    H134521   5.810   5.374   6.812  0.3047  0.1202  0.1235
11526TIP3    H234522   5.865   5.423   6.679 -0.2067  0.5950  0.0844
11527TIP3   OH234523   5.085   5.699   6.444  0.1968 -0.1299  0.2104
11527TIP3    H134524   5.086   5.607   6.418 -0.2907 -0.1524  0.2658
11527TIP3    H234525   5.099   5.747   6.363  2.2532 -0.2932  0.4257
11528TIP3   OH234526   6.441   3.939   5.476  0.0685  0.4950  0.0710
11528TIP3    H134527   6.389   3.887   5.537  1.0382  2.6834  2.8715
11528TIP3    H234528   6.518   3.966   5.526  0.0440  3.8015 -1.5236
11529TIP3   OH234529   5.518   4.214   5.898 -0.1089 -0.5455 -0.3687
11529TIP3    H134530   5.513   4.308   5.882  0.6703 -0.3622  0.4499
11529TIP3    H234531   5.471   4.175   5.824  0.9683  0.4151 -1.5939
11530TIP3   OH234532   0.152   7.074   1.413 -0.4548 -0.5095  0.5784
11530TIP3    H134533   0.208   7.140   1.372 -1.2274 -0.7263 -0.8387
11530TIP3    H234534   0.150   7.002   1.351 -0.7298 -1.3066  1.5028
11531TIP3   OH234535   6.681   1.665   5.252 -0.0364  0.2499 -0.1356
11531TIP3    H134536   6.711   1.620   5.173 -0.5101  1.0091 -0.7476
11531TIP3    H234537   6.600   1.620   5.276 -1.2885  1.6529 -1.5649
11532TIP3   OH234538   3.797   3.325   4.132  0.3099  0.2171 -0.6725
11532TIP3    H134539   3.736   3.257   4.162  1.8430 -0.5575  0.7108
11532TIP3    H234540   3.820   3.298   4.043 -2.2389  1.1372 -1.6490
11533TIP3   OH234541   2.326   1.672   0.711 -0.1189 -0.2093 -0.1292
11533TIP3    H134542   2.300   1.629   0.630 -0.7478  0.9683 -0.5629
11533TIP3    H234543   2.294   1.762   0.702 -0.7332 -0.2169  1.6702
11534TIP3   OH234544   8.485   7.872   0.257  0.5175  0.4330  0.1570
11534TIP3    H134545   8.394   7.894   0.238  0.2906  0.3039  1.1053
11534TIP3    H234546   8.533   7.954   0.246 -0.2161  1.2670  2.9714
11535TIP3   OH234547   5.585   6.029   4.630  0.2886  0.1128  0.0821
11535TIP3    H134548   5.551   5.952   4.675  1.2774  0.9904  2.4036
11535TIP3    H234549   5.521   6.098   4.650  0.1910  0.2616 -0.7339
11536TIP3   OH234550   2.936   3.863   5.005 -0.2378 -0.0363  0.0120
11536TIP3    H134551   2.949   3.768   5.002 -2.0598 -0.3893  1.8039
11536TIP3    H234552   3.008   3.899   4.955  0.7892 -2.3589 -0.2362
11537TIP3   OH234553   4.880   2.794   4.996 -0.4721 -0.2878 -0.7301
11537TIP3    H134554   4.969   2.830   4.998 -0.7671  0.4366 -0.2757
11537TIP3    H234555   4.848   2.815   4.908  0.0245 -1.1070 -1.1151
11538TIP3   OH234556   5.441   1.258   4.996 -0.4420  0.1788  0.0180
11538TIP3    H134557   5.475   1.230   4.912  0.8321  0.2543  0.4908
11538TIP3    H234558   5.494   1.335   5.018 -0.0846 -0.4286  1.3387
11539TIP3   OH234559   3.104   3.685   3.939 -0.0435 -0.3116  0.0206
11539TIP3    H134560   3.189   3.715   3.907  0.9204 -1.1877  1.6437
11539TIP3    H234561   3.115   3.680   4.034 -1.2999 -2.2553  0.0993
11540TIP3   OH234562   1.897   2.976   0.148  0.3530 -0.2064  0.4850
11540TIP3    H134563   1.862   2.949   0.063 -1.9217  0.1774  1.2555
11540TIP3    H234564   1.978   3.022   0.127  0.2021 -0.7511 -1.4166
11541TIP3   OH234565   4.117   4.705   6.432 -0.3919  0.4169  1.0021
11541TIP3    H134566   4.131   4.619   6.393 -0.7310  0.3141  1.1093
11541TIP3    H234567   4.069   4.754   6.365 -0.3142  0.4807  0.9929
11542TIP3   OH234568   5.891   4.608   5.886 -0.2356 -0.2855 -0.0697
11542TIP3    H134569   5.805   4.612   5.842 -0.3835  1.3187  0.3195
11542TIP3    H234570   5.901   4.516   5.911 -0.7940 -0.9602 -2.1789
11543TIP3   OH234571   3.062   7.081   5.550 -0.2940 -0.7286  0.1171
11543TIP3    H134572   3.070   7.155   5.609  1.1810  0.4595 -1.5102
11543TIP3    H234573   3.101   7.008   5.598 -0.0211 -0.0205  0.9911
11544TIP3   OH234574   8.233   7.496   0.543 -0.5000  0.1917 -0.0434
11544TIP3    H134575   8.219   7.589   0.527  0.2605  0.2903 -0.1634
11544TIP3    H234576   8.324   7.490   0.574  0.1496 -0.7226 -2.0340
11545TIP3   OH234577   2.276   1.920   0.570  0.4502  0.1191  0.1280
11545TIP3    H134578   2.184   1.894   0.572  0.6787 -0.7625 -0.6080
11545TIP3    H234579   2.321   1.847   0.529  1.2466  1.2962 -1.1295
11546TIP3   OH234580   6.578   5.466   5.951 -0.0589 -0.2979 -0.5422
11546TIP3    H134581   6.533   5.409   5.889 -0.0024  1.5233 -2.3228
11546TIP3    H234582   6.644   5.511   5.899  1.2119 -0.0514  1.2306
11547TIP3   OH234583   0.177   2.964   5.790  0.0129 -0.4587 -0.2557
11547TIP3    H134584   0.264   3.004   5.779 -0.2879  0.5965  1.0114
11547TIP3    H234585   0.145   2.950   5.701  1.3255 -0.4900 -0.7338
11548TIP3   OH234586   2.321   8.007   0.185  0.1201 -0.4616  0.0867
11548TIP3    H134587   2.334   7.950   0.109 -0.7194  2.1083 -2.0556
11548TIP3    H234588   2.241   7.973   0.227  1.3523 -2.7453  0.6745
11549TIP3   OH234589   5.030   6.039   5.969  0.0361 -0.5459 -0.0816
11549TIP3    H134590   5.073   5.953   5.972 -2.3063 -1.7379 -0.2080
11549TIP3    H234591   4.955   6.031   6.027 -0.1884  1.4403 -0.0763
11550TIP3   OH234592   5.378   4.097   6.135 -0.2035 -0.0637 -0.1887
11550TIP3    H134593   5.416   4.107   6.048  0.3241  0.1758  0.0650
11550TIP3    H234594   5.332   4.179   6.151  0.2063  0.1275  0.0034
11551TIP3   OH234595   4.745   5.197   3.617 -0.0595 -0.1373  0.2727
11551TIP3    H134596   4.758   5.215   3.524 -0.2888 -0.0892  0.2484
11551TIP3    H234597   4.722   5.281   3.655  0.7184 -0.0254  0.5005
11552TIP3   OH234598   5.456   4.669   3.668  0.1623  0.0673 -0.2629
11552TIP3    H134599   5.481   4.591   3.717  1.6719 -0.3106 -1.6117
11552TIP3    H234600   5.361   4.661   3.656 -0.0718 -0.2986  1.7556
11553TIP3   OH234601   6.834   6.173   5.870  0.6121 -0.4417  0.4712
11553TIP3    H134602   6.764   6.111   5.887 -1.0092  0.6085 -2.1635
11553TIP3    H234603   6.799   6.258   5.898  1.0596 -0.0066 -0.2720
11554TIP3   OH234604   0.407  -0.016   3.747  0.9942 -0.0899  0.5551
11554TIP3    H134605   0.498   0.006   3.727  0.6022 -0.2433 -1.5640
11554TIP3    H234606   0.359   0.065   3.734  0.8093 -0.0291  1.5822
11555TIP3   OH234607   7.318   1.831   3.127 -0.2512  0.7908  0.3302
11555TIP3    H134608   7.308   1.890   3.202  0.3153 -0.1865  1.1836
11555TIP3    H234609   7.413   1.824   3.115 -0.3572  2.1793 -1.4820
11556TIP3   OH234610   5.578   5.405   4.717 -0.3516 -0.2593  0.1249
11556TIP3    H134611   5.624   5.471   4.665  1.8098  0.9242  3.4178
11556TIP3    H234612   5.491   5.442   4.730 -0.3047  0.2882 -1.0266
11557TIP3   OH234613   6.317   3.456   5.043 -0.0230 -0.1710 -0.2768
11557TIP3    H134614   6.292   3.547   5.058  2.4446  0.2490  1.5899
11557TIP3    H234615   6.289   3.409   5.122  0.5631 -0.6364 -0.3401
11558TIP3   OH234616   2.094   7.846   0.289 -0.1396  0.6814  0.1538
11558TIP3    H134617   2.034   7.866   0.361 -0.0437 -0.7388  0.6533
11558TIP3    H234618   2.149   7.775   0.323  0.6516  0.7646 -0.9268
11559TIP3   OH234619   6.908   3.868   6.050  0.2783  0.1647  0.4520
11559TIP3    H134620   6.924   3.880   6.144 -0.6671  0.3141  0.5961
11559TIP3    H234621   6.837   3.805   6.046  2.0006 -1.8019 -0.2193
11560TIP3   OH234622   6.238   6.384   4.793  0.1384  0.0981  0.4881
11560TIP3    H134623   6.164   6.334   4.827  0.6160 -1.3549 -0.5840
11560TIP3    H234624   6.242   6.362   4.700  1.9846  0.0841  0.5520
11561TIP3   OH234625   3.511   0.895   0.133  0.1381 -0.0060  0.6642
11561TIP3    H134626   3.546   0.945   0.058 -1.6075 -0.0387 -0.2051
11561TIP3    H234627   3.416   0.900   0.122 -0.1058 -1.1164  2.1840
11562TIP3   OH234628   7.832   3.819   6.520 -0.0961 -0.4866 -0.2447
11562TIP3    H134629   7.920   3.830   6.485 -0.5293 -0.7436 -1.4229
11562TIP3    H234630   7.822   3.724   6.533  0.7932 -0.2500  2.5215
11563TIP3   OH234631   6.925   3.561   5.162  0.9555 -0.2771 -0.1810
11563TIP3    H134632   6.853   3.517   5.117  0.3802 -0.1407  0.5955
11563TIP3    H234633   6.887   3.642   5.195  1.7902  0.3895 -0.8430
11564TIP3   OH234634   6.758   5.260   6.024  0.2532  0.5530  0.0524
11564TIP3    H134635   6.787   5.250   5.933  0.1129  0.4126  0.0228
11564TIP3    H234636   6.690   5.328   6.020  1.6607  1.9998  0.3474
11565TIP3   OH234637   5.732   4.017   5.430 -0.3053  0.3645  0.2704
11565TIP3    H134638   5.658   4.030   5.488 -0.4167 -0.6382  0.3640
11565TIP3    H234639   5.695   4.023   5.342 -1.0929 -3.2039  0.2988
11566TIP3   OH234640   6.924   5.656   4.759 -0.4003 -0.3860 -0.5238
11566TIP3    H134641   6.958   5.708   4.686 -0.7426 -0.3095 -0.6271
11566TIP3    H234642   6.949   5.706   4.837  1.8982 -1.5572 -0.4656
11567TIP3   OH234643   6.314   6.360   3.056  0.1318  0.1863  0.1869
11567TIP3    H134644   6.331   6.266   3.056 -0.1177  0.1414 -0.0962
11567TIP3    H234645   6.253   6.374   2.983  0.6579  0.6567 -0.1638
11568TIP3   OH234646   6.382   6.195   4.402 -0.1327  0.1880  0.0776
11568TIP3    H134647   6.304   6.185   4.346 -0.2314 -1.2100  0.4416
11568TIP3    H234648   6.456   6.192   4.341 -0.2312 -1.5211  0.0174
11569TIP3   OH234649   6.016   4.148   5.404 -0.0119 -0.4258  0.2477
11569TIP3    H134650   6.070   4.149   5.325 -0.3231  0.2761  0.0430
11569TIP3    H234651   6.020   4.237   5.438 -0.8516 -0.4289  0.3650
11570TIP3   OH234652   4.903   3.535   4.582 -0.1590  0.2297 -0.2456
11570TIP3    H134653   4.928   3.583   4.661  1.0944  0.5690 -0.8354
11570TIP3    H234654   4.827   3.583   4.548 -0.1421  0.6144  0.2638
11571TIP3   OH234655   7.225   3.342   4.454 -0.0948 -0.4908 -0.3978
11571TIP3    H134656   7.242   3.270   4.514  0.9161 -0.2038 -0.3182
11571TIP3    H234657   7.274   3.416   4.491 -0.3737 -0.0133 -0.9690
11572TIP3   OH234658   5.673   6.225   6.609 -0.1484 -0.3972 -0.0701
11572TIP3    H134659   5.627   6.167   6.547  0.8060 -1.3122  0.0740
11572TIP3    H234660   5.649   6.191   6.695 -2.1631  1.3987  0.1143
11573TIP3   OH234661   5.475   4.050   6.641 -0.6372  0.1922 -0.3999
11573TIP3    H134662   5.415   4.103   6.693 -0.8256  1.0416 -1.4680
11573TIP3    H234663   5.561   4.087   6.659 -0.2230 -1.8688  2.1729
11574TIP3   OH234664   7.024   3.811   6.323 -0.1869  0.2730  0.3541
11574TIP3    H134665   7.061   3.857   6.398 -2.2229 -1.2916  2.4138
11574TIP3    H234666   7.034   3.718   6.345 -1.7559 -0.1975 -0.7999
11575TIP3   OH234667   5.738   4.878   5.790 -0.3797  0.4247  0.4751
11575TIP3    H134668   5.676   4.926   5.844 -1.4241 -0.0425 -0.2975
11575TIP3    H234669   5.688   4.854   5.712  0.6219 -0.4218  0.0883
11576TIP3   OH234670   6.284   5.683   5.755 -0.4532 -0.1088 -0.0257
11576TIP3    H134671   6.235   5.617   5.804 -0.4402 -1.1965 -1.4535
11576TIP3    H234672   6.227   5.705   5.681  0.3084  0.1694 -0.5375
11577TIP3   OH234673   6.801   5.672   2.538 -0.3642  0.0543 -0.3277
11577TIP3    H134674   6.794   5.767   2.536 -1.8309 -0.0703 -1.5385
11577TIP3    H234675   6.810   5.646   2.447 -0.5278 -1.0121 -0.0455
11578TIP3   OH234676   6.162   4.874   6.449 -0.6242 -0.4527 -0.3655
11578TIP3    H134677   6.206   4.805   6.398 -0.7425 -0.6233 -0.2393
11578TIP3    H234678   6.144   4.832   6.534  2.2024  0.7231  0.8865
11579TIP3   OH234679   6.485   5.877   5.419  0.2939 -0.5178 -0.4934
11579TIP3    H134680   6.424   5.823   5.369 -0.1006 -0.3794 -0.1672
11579TIP3    H234681   6.437   5.958   5.436  0.5201 -0.4586 -0.1220
11580TIP3   OH234682   6.858   5.244   6.386  0.3832 -0.4188  0.2903
11580TIP3    H134683   6.772   5.261   6.349  0.7602  0.5541 -0.1547
11580TIP3    H234684   6.864   5.301   6.462 -0.1946 -2.0564  1.6149
11581TIP3   OH234685   6.421   5.455   4.332 -0.0993  0.1547 -0.0121
11581TIP3    H134686   6.346   5.513   4.338 -2.6475 -2.9051 -0.9215
11581TIP3    H234687   6.425   5.413   4.418  1.1551  0.9371  0.3273
11582TIP3   OH234688   8.421   5.586   1.502 -0.6289 -0.0137  0.1665
11582TIP3    H134689   8.451   5.614   1.415  1.1038  0.3420  0.8591
11582TIP3    H234690   8.402   5.668   1.548 -1.4498 -0.1998  0.1708
11583TIP3   OH234691   8.488   5.230   3.081 -0.0673 -0.3397 -0.0929
11583TIP3    H134692   8.432   5.292   3.129  0.4035 -1.0361  1.3942
11583TIP3    H234693   8.550   5.199   3.147 -0.5729 -2.7223 -0.6970
11584TIP3   OH234694   6.353   6.123   5.487 -0.0081  0.7099  0.5580
11584TIP3    H134695   6.258   6.122   5.475  0.0714  2.1839 -0.2868
11584TIP3    H234696   6.369   6.200   5.542  0.8490  1.3811 -0.6314
11585TIP3   OH234697   4.982   6.420   4.542  0.2891  0.5062 -0.3308
11585TIP3    H134698   5.007   6.376   4.461  1.6597  3.5147 -1.6118
11585TIP3    H234699   5.064   6.430   4.590 -0.0616  1.3033  0.1113
11586TIP3   OH234700   3.689   2.576   0.321 -0.2941 -0.2242  0.4889
11586TIP3    H134701   3.703   2.551   0.230 -1.1671 -1.4241  0.6823
11586TIP3    H234702   3.776   2.597   0.354  0.0283  0.1866 -0.6110
11587TIP3   OH234703   7.954   4.064   5.238  0.2147 -0.9096 -0.4008
11587TIP3    H134704   7.874   4.108   5.263  0.3925 -0.5368 -0.4914
11587TIP3    H234705   8.024   4.117   5.276  0.4288 -1.1007 -0.5240
11588TIP3   OH234706   4.735   4.698   5.705  0.6226  0.2726 -0.1448
11588TIP3    H134707   4.640   4.705   5.704  0.5843 -0.2114 -0.4328
11588TIP3    H234708   4.766   4.787   5.687  0.2451  0.7044  1.3317
11589TIP3   OH234709   6.536   5.749   4.595 -0.2793  0.2888  0.8395
11589TIP3    H134710   6.575   5.663   4.576 -1.7258 -0.0627 -0.6650
11589TIP3    H234711   6.573   5.774   4.680  1.6173 -0.9555  0.4101
11590TIP3   OH234712   6.764   4.615   5.242  0.0743  0.0537  0.0548
11590TIP3    H134713   6.821   4.538   5.239 -0.7640 -0.5590 -0.1726
11590TIP3    H234714   6.724   4.612   5.329  1.0284  0.9573  0.5429
11591TIP3   OH234715   0.039   6.640   6.073  0.5444 -0.2237 -0.3568
11591TIP3    H134716  -0.019   6.717   6.076 -1.2777 -1.5237 -1.1440
11591TIP3    H234717   0.025   6.597   6.158 -1.8195 -2.0352 -1.6000
11592TIP3   OH234718   7.865   4.806   5.262 -0.3713 -0.3862  0.5493
11592TIP3    H134719   7.800   4.770   5.323  1.0772 -3.0650  0.6161
11592TIP3    H234720   7.948   4.766   5.290  0.6978  0.1967 -1.7068
11593TIP3   OH234721   5.733   4.827   5.209 -0.2666  0.0965 -0.7068
11593TIP3    H134722   5.701   4.876   5.133 -0.1588  0.7976 -0.3092
11593TIP3    H234723   5.777   4.893   5.263  0.3258 -0.5381 -0.4056
11594TIP3   OH234724   5.435   5.695   6.371 -0.4382  0.3201 -0.6822
11594TIP3    H134725   5.466   5.756   6.305  0.2937 -0.2008 -0.8269
11594TIP3    H234726   5.512   5.676   6.425  0.0024 -2.5285 -2.2437
11595TIP3   OH234727   4.868   6.165   6.546  0.2269 -0.0971  0.3149
11595TIP3    H134728   4.864   6.178   6.451  0.4275  0.3788  0.3733
11595TIP3    H234729   4.856   6.070   6.557 -1.1593  0.0204 -0.1057
11596TIP3   OH234730   6.400   6.682   3.492 -0.0238  0.4414 -0.6537
11596TIP3    H134731   6.375   6.594   3.464 -0.5258  0.9443 -1.8380
11596TIP3    H234732   6.477   6.669   3.546  0.6210 -0.6283 -1.8080
11597TIP3   OH234733   4.653   5.860   3.123  0.4062 -0.4312 -0.6206
11597TIP3    H134734   4.646   5.829   3.213  0.8133  1.0289 -0.0695
11597TIP3    H234735   4.570   5.837   3.083  0.5525 -1.8823 -0.1332
11598TIP3   OH234736   7.955   4.230   6.139 -0.0745 -0.1321 -0.2518
11598TIP3    H134737   7.881   4.284   6.166  1.6173  1.3880  1.5169
11598TIP3    H234738   7.984   4.186   6.219  0.7007 -1.0090 -0.9927
11599TIP3   OH234739   6.108   3.959   4.997  0.1401  0.2485  0.1088
11599TIP3    H134740   6.021   3.985   5.027 -1.1255 -2.4345 -1.0585
11599TIP3    H234741   6.097   3.947   4.902  1.5059 -1.0495  0.1026
11600TIP3   OH234742   6.693   4.685   5.733 -1.0949  0.2249  0.3319
11600TIP3    H134743   6.631   4.617   5.758 -2.2665  1.2817  0.3515
11600TIP3    H234744   6.723   4.721   5.817 -0.1982 -0.5001  0.3306
11601TIP3   OH234745   1.677   7.929   0.536 -0.5512 -0.9009 -0.4126
11601TIP3    H134746   1.772   7.942   0.529 -0.6737 -0.0115 -0.6182
11601TIP3    H234747   1.658   7.936   0.629 -0.5332 -0.0668 -0.4611
11602TIP3   OH234748   7.659   5.133   5.574 -0.1154  0.1114  0.0012
11602TIP3    H134749   7.752   5.129   5.552 -0.1081 -0.6245  0.1634
11602TIP3    H234750   7.649   5.219   5.616  0.7718 -0.3647  1.2302
11603TIP3   OH234751   5.883   3.775   2.811 -0.1950 -0.5075 -0.0427
11603TIP3    H134752   5.860   3.853   2.862 -1.1015 -0.9879  0.3004
11603TIP3    H234753   5.961   3.740   2.854  0.8438  0.8089 -0.8495
11604TIP3   OH234754   4.196   4.080   5.465  0.3582 -0.0564  0.2386
11604TIP3    H134755   4.207   4.065   5.371 -0.7514 -1.5705  0.3244
11604TIP3    H234756   4.281   4.111   5.495  0.1625  2.3804 -1.6316
11605TIP3   OH234757   6.411   6.577   6.460  0.9144  0.2539 -0.3820
11605TIP3    H134758   6.324   6.541   6.477  1.9889 -2.1665  0.0592
11605TIP3    H234759   6.395   6.671   6.446 -1.6131  0.0376  0.7736
11606TIP3   OH234760   6.691   5.559   4.030  0.6540  0.0203 -0.0773
11606TIP3    H134761   6.760   5.588   3.970 -0.6266  0.8681 -1.2018
11606TIP3    H234762   6.669   5.471   4.000 -0.7494  0.8516 -1.6394
11607TIP3   OH234763   7.467   5.724   5.469 -0.1429 -0.0269 -0.2595
11607TIP3    H134764   7.462   5.704   5.375  1.9874  0.4962 -0.5222
11607TIP3    H234765   7.451   5.818   5.475 -0.0983 -0.0267 -0.1373
11608TIP3   OH234766   6.343   4.952   5.179  0.0443  0.2991  0.2604
11608TIP3    H134767   6.371   5.028   5.129 -0.6150  0.0527 -0.4946
11608TIP3    H234768   6.320   4.887   5.113  0.4102 -0.4821  0.9004
11609TIP3   OH234769   7.894   5.723   5.706 -0.3174  0.4072  0.1042
11609TIP3    H134770   7.802   5.730   5.680 -0.8343  2.7408  2.4518
11609TIP3    H234771   7.942   5.749   5.627 -1.7285  2.3168 -0.1608
11610TIP3   OH234772   2.089   1.196   0.373  0.5771 -0.5568 -0.0051
11610TIP3    H134773   2.116   1.176   0.283  1.7511 -1.8781  0.6128
11610TIP3    H234774   2.109   1.288   0.384 -0.9196 -0.0030 -1.5536
11611TIP3   OH234775   6.797   4.100   5.298  0.1162 -0.0155  0.0261
11611TIP3    H134776   6.702   4.089   5.290 -0.2315  2.6157 -0.1673
11611TIP3    H234777   6.817   4.075   5.388 -0.6267 -1.3281 -0.1608
11612TIP3   OH234778   0.961   7.525   0.685 -0.2402 -0.0419  0.4457
11612TIP3    H134779   1.003   7.520   0.771 -0.8677 -2.7978  0.6579
11612TIP3    H234780   1.034   7.541   0.625  0.5430 -0.4604  1.2542
11613TIP3   OH234781   4.922   4.041   4.102 -0.2060 -0.4398 -0.5472
11613TIP3    H134782   4.972   4.120   4.123 -1.2920  0.2029 -0.3390
11613TIP3    H234783   4.959   3.973   4.159  1.0678 -0.2036 -1.0868
11614TIP3   OH234784   3.780   0.800   0.206  0.1413  0.0209  0.3800
11614TIP3    H134785   3.790   0.769   0.116  0.0620  0.9884  0.0345
11614TIP3    H234786   3.693   0.839   0.209 -0.0424 -0.4337  1.0062
11615TIP3   OH234787   5.169   3.731   6.185 -0.3841 -0.4139  0.1081
11615TIP3    H134788   5.112   3.803   6.157  0.5070 -0.0263 -0.7322
11615TIP3    H234789   5.257   3.766   6.176 -0.0373 -0.6298  2.4637
11616TIP3   OH234790   6.969   5.395   4.663 -0.2512 -0.2049  0.0589
11616TIP3    H134791   6.945   5.362   4.750 -1.7634  0.6339 -0.0208
11616TIP3    H234792   6.975   5.490   4.675 -0.6525 -0.0745 -0.8033
11617TIP3   OH234793   4.490   6.610   5.241 -0.3020  0.1022 -0.1104
11617TIP3    H134794   4.418   6.604   5.179  0.1378 -2.3055 -0.4295
11617TIP3    H234795   4.483   6.531   5.294 -0.2596  1.7900  2.4796
11618TIP3   OH234796   5.738   6.071   6.249  0.4204  0.2095 -0.8815
11618TIP3    H134797   5.809   6.134   6.235  1.5021 -0.7692  0.0620
11618TIP3    H234798   5.745   6.010   6.175 -1.1198  1.6099 -2.2224
11619TIP3   OH234799   7.491   6.139   6.316 -0.1842 -0.3873 -0.2942
11619TIP3    H134800   7.509   6.045   6.307  2.5283  0.0909 -0.1652
11619TIP3    H234801   7.562   6.173   6.369 -1.6113  1.6212  0.4006
11620TIP3   OH234802   6.714   5.533   4.578 -0.5247  0.0870  0.5355
11620TIP3    H134803   6.713   5.447   4.535 -1.9567  0.5179 -0.3373
11620TIP3    H234804   6.770   5.521   4.655  2.4946 -0.6082 -1.6558
11621TIP3   OH234805   6.581   4.558   5.023  0.4050  0.2430 -0.0832
11621TIP3    H134806   6.653   4.545   4.961  0.9736  1.1905  0.3522
11621TIP3    H234807   6.620   4.609   5.095 -0.0774 -1.3974  1.3720
11622TIP3   OH234808   6.970   4.685   5.616 -0.0571 -0.4649 -0.0252
11622TIP3    H134809   6.999   4.649   5.699 -0.2972  0.1785  0.3459
11622TIP3    H234810   6.880   4.714   5.633 -0.1711 -0.4992 -0.5582
11623TIP3   OH234811   4.726   4.233   5.524  0.0277 -0.3389  0.4424
11623TIP3    H134812   4.640   4.210   5.561 -0.5955 -1.4115 -1.5862
11623TIP3    H234813   4.706   4.294   5.453  0.7762 -1.8266 -1.0769
11624TIP3   OH234814   0.439   4.799   3.520 -0.0687  0.0249  0.4894
11624TIP3    H134815   0.440   4.704   3.525  1.0281  0.1138  2.8118
11624TIP3    H234816   0.348   4.823   3.538  0.1612 -0.5174  2.5210
11625TIP3   OH234817   7.580   5.345   5.719  0.4493 -0.5469  0.0659
11625TIP3    H134818   7.635   5.385   5.787  0.5444 -0.6622  0.0557
11625TIP3    H234819   7.511   5.410   5.704 -1.0041 -1.5751  2.0423
11626TIP3   OH234820   6.554   1.055   1.716 -0.1873  0.3160 -0.1256
11626TIP3    H134821   6.597   1.112   1.653  3.0054 -0.7777  0.9652
11626TIP3    H234822   6.533   0.976   1.666  0.3962  0.2934 -0.3405
11627TIP3   OH234823   7.995   5.756   4.682  0.2960 -0.7475 -0.1743
11627TIP3    H134824   8.038   5.840   4.672 -0.4577 -0.1580  1.3775
11627TIP3    H234825   8.066   5.693   4.691  0.8320  0.0301  0.9973
11628TIP3   OH234826   6.669   6.347   3.989  0.4890 -0.3568  0.3837
11628TIP3    H134827   6.650   6.440   4.001  2.2714  0.1252 -0.3881
11628TIP3    H234828   6.750   6.333   4.039  0.3503 -1.4386  0.3024
11629TIP3   OH234829   3.746   4.617   4.146 -0.7872  0.6283 -0.0193
11629TIP3    H134830   3.803   4.547   4.116 -1.8262  0.4672 -1.6633
11629TIP3    H234831   3.779   4.696   4.103 -1.1306  0.7146 -0.1312
11630TIP3   OH234832   5.542   4.905   4.641  0.6842 -0.0634 -0.2233
11630TIP3    H134833   5.608   4.867   4.699  0.4600  1.1867  0.8677
11630TIP3    H234834   5.574   4.994   4.624  1.0929 -0.6258 -2.5802
11631TIP3   OH234835   4.334   0.217   0.227  0.5327  0.0605 -0.6958
11631TIP3    H134836   4.376   0.253   0.305 -0.2661 -0.6228  0.0668
11631TIP3    H234837   4.240   0.233   0.242  0.3434 -0.4857 -1.2990
11632TIP3   OH234838   7.700   6.181   2.497  0.1720 -0.3482  0.0131
11632TIP3    H134839   7.669   6.142   2.416  1.3357 -1.2200 -0.0263
11632TIP3    H234840   7.767   6.120   2.529 -1.2313 -0.7440  2.3251
11633TIP3   OH234841   6.290   5.646   3.782 -0.0777 -0.3807  0.4179
11633TIP3    H134842   6.352   5.604   3.722  3.3103  2.7442  1.5765
11633TIP3    H234843   6.294   5.593   3.861 -0.7043 -1.5444 -0.3097
11634TIP3   OH234844   7.188   6.858   5.244  0.0569  1.1335 -0.2502
11634TIP3    H134845   7.183   6.785   5.305  2.1359  0.9442 -0.2813
11634TIP3    H234846   7.245   6.827   5.173  1.4713  2.9689  0.0323
11635TIP3   OH234847   7.017   6.279   1.286  0.2707 -0.5128 -0.1821
11635TIP3    H134848   6.975   6.262   1.370 -0.0854 -0.7596 -0.4079
11635TIP3    H234849   7.081   6.209   1.277  0.5649 -0.2724  0.0545
11636TIP3   OH234850   7.174   6.465   4.890 -0.0970 -0.2078  0.2296
11636TIP3    H134851   7.262   6.437   4.865 -0.1793 -0.7774  0.5768
11636TIP3    H234852   7.116   6.422   4.827 -0.1473 -0.0382  0.1602
11637TIP3   OH234853   6.626   5.709   6.362 -0.2513  0.5423 -0.1827
11637TIP3    H134854   6.550   5.726   6.307  0.2187  0.4405 -0.8720
11637TIP3    H234855   6.642   5.793   6.407 -0.0085  0.9422 -0.9976
11638TIP3   OH234856   2.937   3.657   5.665  0.3043  0.1481  0.0159
11638TIP3    H134857   2.862   3.713   5.688 -0.3512 -0.8658  0.3788
11638TIP3    H234858   2.965   3.690   5.579 -1.8926 -0.8053 -1.1236
11639TIP3   OH234859   3.271   2.625   1.802 -0.0396 -0.4773  0.2976
11639TIP3    H134860   3.245   2.533   1.808 -0.1091 -0.5711 -1.4554
11639TIP3    H234861   3.219   2.661   1.730  0.7334  0.6804  0.2997
11640TIP3   OH234862   8.308   6.265   5.921  1.1495  0.2650  0.2132
11640TIP3    H134863   8.360   6.321   5.863  0.1679  1.3476  0.3467
11640TIP3    H234864   8.251   6.326   5.968  1.1550 -0.7109  1.5147
11641TIP3   OH234865   4.029   5.562   4.750 -0.3019  0.6783 -0.1667
11641TIP3    H134866   3.944   5.601   4.728  0.2402  1.8490 -0.2104
11641TIP3    H234867   4.041   5.494   4.684 -1.0580  0.7205 -0.3568
11642TIP3   OH234868   7.024   4.910   5.946  0.4353 -0.1616  0.5104
11642TIP3    H134869   7.076   4.876   5.873 -0.7621  0.2453 -0.5408
11642TIP3    H234870   7.053   5.000   5.955 -0.4624  0.2291 -0.4330
11643TIP3   OH234871   6.712   4.802   2.831  0.1051  0.4720 -0.0319
11643TIP3    H134872   6.696   4.740   2.901 -1.3241  0.5545 -0.2760
11643TIP3    H234873   6.658   4.878   2.853 -1.0894  0.1273 -1.6934
11644TIP3   OH234874   5.565   6.303   4.078 -0.5216  0.2044 -0.2280
11644TIP3    H134875   5.596   6.252   4.152  0.5063  1.5374  0.2875
11644TIP3    H234876   5.610   6.265   4.002 -0.2980 -0.1058  0.0590
11645TIP3   OH234877   6.105   4.861   6.187  0.4344  0.2660 -0.0330
11645TIP3    H134878   6.030   4.804   6.174  0.0062  0.8181 -0.0284
11645TIP3    H234879   6.095   4.894   6.276  1.8955 -1.3900  0.7708
11646TIP3   OH234880   3.797   1.520   0.553  0.2186 -0.3364 -0.3877
11646TIP3    H134881   3.767   1.584   0.618 -1.1538 -0.4445 -0.9119
11646TIP3    H234882   3.838   1.572   0.485  1.8999 -0.2333  0.6540
11647TIP3   OH234883   7.109   5.573   2.417 -0.0926  0.2801  0.3322
11647TIP3    H134884   7.104   5.658   2.460  0.8873 -0.5907  2.2054
11647TIP3    H234885   7.023   5.561   2.377 -0.1900  2.2053 -0.0669
11648TIP3   OH234886   5.717   7.050   6.742  0.0490 -0.9816 -0.1978
11648TIP3    H134887   5.668   7.001   6.676  1.2303 -2.1553 -0.2341
11648TIP3    H234888   5.807   7.052   6.708  0.5831 -1.2454  1.1635
11649TIP3   OH234889   6.817   5.569   2.283  0.1679 -0.3250 -0.0126
11649TIP3    H134890   6.856   5.558   2.196 -1.5026  1.3574 -1.0151
11649TIP3    H234891   6.737   5.516   2.280 -0.5102  0.6923  0.0782
11650TIP3   OH234892   7.707   6.836   5.808  0.6052  0.1323 -0.0507
11650TIP3    H134893   7.723   6.779   5.883  0.9598 -0.1422 -0.3388
11650TIP3    H234894   7.664   6.781   5.743 -0.7619  0.6580  0.3980
11651TIP3   OH234895   4.672   5.808   6.689 -0.0020  0.2852  0.1126
11651TIP3    H134896   4.590   5.857   6.681  1.1713  1.9022 -2.5981
11651TIP3    H234897   4.689   5.807   6.783 -1.0929  3.4111  0.4089
11652TIP3   OH234898   3.690   0.186   0.297  0.2152  0.4172 -0.2738
11652TIP3    H134899   3.774   0.162   0.336 -0.6575  0.1893  1.4929
11652TIP3    H234900   3.702   0.171   0.203  1.1938 -2.4665  0.2667
11653TIP3   OH234901   7.765   6.093   4.976  0.1948 -0.4404 -0.2757
11653TIP3    H134902   7.804   6.011   5.009 -0.0858 -0.4476  0.0448
11653TIP3    H234903   7.729   6.135   5.054  0.2590 -0.0507 -0.4546
11654TIP3   OH234904   6.298   7.540   2.075  0.2258  0.3965 -0.6828
11654TIP3    H134905   6.366   7.533   2.142 -0.8538  0.0285  0.3852
11654TIP3    H234906   6.341   7.584   2.001  1.3627  0.9870  0.3234
11655TIP3   OH234907   5.931   6.023   6.881  0.6745  0.0883  0.2633
11655TIP3    H134908   5.850   6.056   6.920 -0.1241  1.4794 -2.4329
11655TIP3    H234909   5.902   5.969   6.808  2.1592 -1.0481  0.4993
11656TIP3   OH234910   6.692   5.490   3.257 -0.4287 -0.8856 -0.1909
11656TIP3    H134911   6.597   5.479   3.265 -0.2874 -1.6495  0.5042
11656TIP3    H234912   6.714   5.559   3.320 -0.3792 -1.4899  0.4671
11657TIP3   OH234913   7.351   4.846   6.061  0.5587 -0.3825  0.4192
11657TIP3    H134914   7.335   4.845   5.967  1.1177 -0.3421  0.3257
11657TIP3    H234915   7.392   4.762   6.079  4.5727  1.3790 -0.0873
11658TIP3   OH234916   7.292   5.237   4.853 -0.2778 -0.4665 -0.2577
11658TIP3    H134917   7.362   5.218   4.916 -1.4047  1.7052  1.7182
11658TIP3    H234918   7.315   5.185   4.776  3.0687 -0.4503  0.6227
11659TIP3   OH234919   7.813   3.091   4.486  0.1033 -0.2664 -0.4512
11659TIP3    H134920   7.833   3.025   4.552 -1.3134 -1.9372 -1.6380
11659TIP3    H234921   7.868   3.166   4.509  0.9260 -1.4551  1.5672
11660TIP3   OH234922   4.335   3.093   0.778 -0.5101 -0.5788 -0.2467
11660TIP3    H134923   4.323   3.133   0.692  2.2477  2.2859  0.5963
11660TIP3    H234924   4.250   3.101   0.821 -1.3825 -0.3082 -1.9812
11661TIP3   OH234925   6.657   4.633   3.646 -0.0196  0.1826 -0.3344
11661TIP3    H134926   6.621   4.681   3.571  2.4231  0.4003 -1.4158
11661TIP3    H234927   6.748   4.663   3.652  0.5973 -1.8926  1.0044
11662TIP3   OH234928   7.127   3.845   4.892  0.0101 -0.1598  1.1547
11662TIP3    H134929   7.035   3.855   4.869  0.2493 -1.2102 -0.3370
11662TIP3    H234930   7.155   3.933   4.916 -0.8451  0.5818 -0.4753
11663TIP3   OH234931   7.565   6.546   6.497 -0.3986 -0.0549 -0.0372
11663TIP3    H134932   7.594   6.601   6.570 -0.9930 -0.4883  0.5356
11663TIP3    H234933   7.629   6.476   6.491  1.2797  1.5680 -1.8201
11664TIP3   OH234934   6.468   3.861   5.954  0.1958  0.2791 -0.2815
11664TIP3    H134935   6.500   3.950   5.939 -0.3348  0.7610  1.3395
11664TIP3    H234936   6.533   3.822   6.014 -0.8310  0.3830  0.9093
11665TIP3   OH234937   6.983   5.645   5.647  0.9834  0.6782  0.3052
11665TIP3    H134938   7.067   5.692   5.644  1.3176  0.0753  0.1768
11665TIP3    H234939   6.964   5.625   5.555  0.5760  1.0378  0.3145
11666TIP3   OH234940   6.606   6.714   5.558  0.0288 -0.1624  0.0208
11666TIP3    H134941   6.616   6.725   5.652  2.0536 -1.7172  0.0113
11666TIP3    H234942   6.570   6.798   5.527  2.3883  1.5240  1.7222
11667TIP3   OH234943   4.763   0.484   0.873 -0.6826 -0.0532  0.4035
11667TIP3    H134944   4.683   0.442   0.844 -1.0297  0.2917  0.8549
11667TIP3    H234945   4.785   0.545   0.803 -1.0817  0.2080  0.5071
11668TIP3   OH234946   5.342   5.663   3.523  0.5051 -0.2970  0.3774
11668TIP3    H134947   5.401   5.641   3.451 -0.6171 -1.5328 -0.1753
11668TIP3    H234948   5.311   5.751   3.503  0.4625 -0.5030 -0.4658
11669TIP3   OH234949   3.326   1.893   0.599  0.2266 -0.2922  0.3155
11669TIP3    H134950   3.330   1.815   0.654  0.0674 -0.2194  0.4328
11669TIP3    H234951   3.328   1.966   0.661  2.4471 -0.1522  0.0999
11670TIP3   OH234952   6.373   5.426   1.255  0.6434 -0.5641 -0.4777
11670TIP3    H134953   6.349   5.451   1.166 -0.7764 -0.9158 -0.1934
11670TIP3    H234954   6.368   5.508   1.305 -0.1397 -0.6682 -0.3827
11671TIP3   OH234955   6.660   5.590   5.519 -0.0612 -0.6125 -0.4563
11671TIP3    H134956   6.738   5.622   5.474 -1.9629  1.1964 -2.5517
11671TIP3    H234957   6.603   5.667   5.526 -1.9298 -2.0414  0.4706
11672TIP3   OH234958   6.925   4.555   4.662  0.6226  0.5207  0.2459
11672TIP3    H134959   6.899   4.604   4.583  1.1731  0.0838 -0.2140
11672TIP3    H234960   6.990   4.492   4.630  0.4380 -0.0325  0.9583
11673TIP3   OH234961   6.689   6.297   6.504 -0.0555 -0.4229  0.6552
11673TIP3    H134962   6.689   6.262   6.415 -1.2963  3.2201 -0.8660
11673TIP3    H234963   6.598   6.289   6.533  0.2652 -1.2122  1.4848
11674TIP3   OH234964   7.466   6.204   5.282  0.0191 -0.1323 -0.4266
11674TIP3    H134965   7.435   6.199   5.191 -2.1750  1.1559  0.2199
11674TIP3    H234966   7.421   6.132   5.326 -0.7032  0.6597  0.1363
11675TIP3   OH234967   6.191   6.135   4.199 -0.3810 -0.2214  0.5308
11675TIP3    H134968   6.152   6.214   4.161  1.0009  0.7919  1.1375
11675TIP3    H234969   6.265   6.115   4.143 -0.0175 -0.3755  1.0581
11676TIP3   OH234970   3.852   0.098   0.725 -0.0760 -0.3481 -0.0760
11676TIP3    H134971   3.771   0.136   0.759  0.1530 -0.2557  0.3661
11676TIP3    H234972   3.854   0.010   0.761  0.2233 -0.2122  0.2390
11677TIP3   OH234973   6.228   4.526   4.754 -0.3458 -0.3387 -0.1312
11677TIP3    H134974   6.251   4.469   4.827  1.0665 -0.8404 -0.9460
11677TIP3    H234975   6.309   4.533   4.703 -0.8411  1.3837 -0.7175
11678TIP3   OH234976   3.138   2.863   0.199 -0.0680  0.1352 -0.4635
11678TIP3    H134977   3.133   2.782   0.250  1.3109 -0.8439 -1.8547
11678TIP3    H234978   3.075   2.851   0.128  0.7617 -0.0837 -1.1660
11679TIP3   OH234979   6.432   6.010   6.584 -0.0367 -0.0874 -0.0386
11679TIP3    H134980   6.517   5.998   6.626  0.4868 -1.7811 -1.5221
11679TIP3    H234981   6.422   6.105   6.576  1.0199  0.1757  1.5007
11680TIP3   OH234982   6.557   5.991   4.474  0.2935  0.4107 -0.1927
11680TIP3    H134983   6.547   5.905   4.516 -0.0100  0.1151 -0.8564
11680TIP3    H234984   6.471   6.032   4.483  0.3333  0.4957 -0.2010
11681TIP3   OH234985   6.491   4.633   3.926 -0.0137 -0.3997 -0.3221
11681TIP3    H134986   6.400   4.651   3.948  0.7832  2.8573  0.6334
11681TIP3    H234987   6.537   4.634   4.010  1.1541 -0.3688 -0.9480
11682TIP3   OH234988   5.853   6.004   6.522 -0.4288 -0.1809 -0.3861
11682TIP3    H134989   5.917   5.936   6.503 -1.1465 -0.8578 -0.4334
11682TIP3    H234990   5.829   6.040   6.436 -1.1393 -0.8877 -0.4900
11683TIP3   OH234991   5.492   5.064   5.817 -0.0349  0.8546 -0.4036
11683TIP3    H134992   5.500   5.113   5.736  0.8972  1.0343 -0.2097
11683TIP3    H234993   5.417   5.005   5.803  1.0045 -0.1330 -1.9268
11684TIP3   OH234994   6.649   4.217   6.365  0.1260  0.2237  0.3464
11684TIP3    H134995   6.696   4.297   6.339 -0.9350  0.2437 -1.6001
11684TIP3    H234996   6.717   4.150   6.367  0.3346  0.3150 -2.1492
11685TIP3   OH234997   5.826   4.066   6.300  0.1914 -0.0987 -0.2508
11685TIP3    H134998   5.829   4.002   6.229 -2.0038 -2.4266  1.6387
11685TIP3    H234999   5.778   4.140   6.264  2.3962  0.4080 -2.3355
11686TIP3   OH235000   3.129   1.709   1.041 -0.0942  0.3503 -0.2791
11686TIP3    H135001   3.150   1.618   1.020  0.9936  0.7172 -0.8257
11686TIP3    H235002   3.097   1.706   1.131  1.7608 -0.3372  0.3979
11687TIP3   OH235003   2.615   0.190   0.400  0.8577 -0.0092 -0.5707
11687TIP3    H135004   2.612   0.246   0.322  1.2623 -0.3820 -0.8555
11687TIP3    H235005   2.587   0.104   0.369 -0.1034  0.1167 -0.0588
11688TIP3   OH235006   1.620   0.248   1.127 -0.3200 -0.0301  0.0289
11688TIP3    H135007   1.534   0.241   1.169 -0.3202 -0.0471  0.0256
11688TIP3    H235008   1.626   0.171   1.071  0.0029 -0.4102  0.5842
11689TIP3   OH235009   8.406   3.245   6.267  0.0568 -0.0555  0.1171
11689TIP3    H135010   8.418   3.153   6.242  2.4710  0.3558 -0.3745
11689TIP3    H235011   8.364   3.285   6.191 -2.1104 -0.9870  0.7999
11690TIP3   OH235012   7.005   3.340   6.192 -0.2612 -0.1148  0.0464
11690TIP3    H135013   6.932   3.333   6.130 -0.2265 -0.4037  0.0371
11690TIP3    H235014   7.059   3.411   6.157 -0.8351  0.4839  0.3678
11691TIP3   OH235015   4.670   1.548   0.147 -0.2342  0.0718 -0.0378
11691TIP3    H135016   4.748   1.593   0.181  0.2269 -0.2410 -0.6631
11691TIP3    H235017   4.633   1.503   0.223 -0.1745  0.7465  0.3992
11692TIP3   OH235018   7.666   5.146   6.311  0.0507 -0.6302  0.7986
11692TIP3    H135019   7.743   5.192   6.346 -0.7153  1.9850 -0.8223
11692TIP3    H235020   7.702   5.068   6.269  1.5483 -0.7966  2.3337
11693TIP3   OH235021   7.141   3.796   5.780  0.0820  0.0001  0.2382
11693TIP3    H135022   7.082   3.838   5.718  0.3695 -2.2983 -1.7066
11693TIP3    H235023   7.175   3.720   5.732 -0.4212 -2.4129  3.5641
11694TIP3   OH235024   7.383   3.942   4.512  0.4942 -0.1713  0.6276
11694TIP3    H135025   7.390   3.909   4.601 -1.4995  1.2136  1.3156
11694TIP3    H235026   7.411   4.033   4.518 -0.3663  0.1363 -0.0328
11695TIP3   OH235027   7.083   6.435   5.164  0.2320 -0.4800  0.5767
11695TIP3    H135028   7.125   6.444   5.078 -1.4500  0.1456 -0.1949
11695TIP3    H235029   7.128   6.498   5.219 -0.1505  0.6805 -0.4195
11696TIP3   OH235030   5.832   5.889   5.564  0.0981 -0.1550 -0.4088
11696TIP3    H135031   5.871   5.975   5.577  1.0247 -0.4859 -0.9074
11696TIP3    H235032   5.799   5.891   5.474 -0.7248  0.0085 -0.0993
11697TIP3   OH235033   3.588   4.340   6.567  0.1800  0.4751 -0.5738
11697TIP3    H135034   3.536   4.259   6.569  0.7340  0.1116 -0.8031
11697TIP3    H235035   3.677   4.312   6.587 -0.1211  1.4415  2.3579
11698TIP3   OH235036   3.294   3.781   6.015 -0.4763  0.3568 -0.5325
11698TIP3    H135037   3.378   3.741   6.034 -0.6641  0.3652  0.3319
11698TIP3    H235038   3.306   3.825   5.931  0.3765  0.3504 -0.4133
11699TIP3   OH235039   2.487   1.688   0.425 -0.5893  0.0040 -0.3607
11699TIP3    H135040   2.507   1.745   0.350  0.3593 -1.1928 -1.0551
11699TIP3    H235041   2.423   1.625   0.391  0.3836 -0.9898 -0.3941
11700TIP3   OH235042   5.482   5.651   5.727 -0.4373  0.1708 -0.0433
11700TIP3    H135043   5.428   5.646   5.649 -1.8078 -0.0532  0.8894
11700TIP3    H235044   5.493   5.745   5.742  1.6096  0.2103 -1.6841
11701TIP3   OH235045   0.444   5.370   4.346 -0.4750  0.6827  0.1618
11701TIP3    H135046   0.367   5.426   4.348  0.9645  2.7230  0.1774
11701TIP3    H235047   0.504   5.413   4.285  0.3531 -1.2898 -0.4675
11702TIP3   OH235048   6.670   5.038   3.840  0.1797 -0.3779 -0.1821
11702TIP3    H135049   6.696   5.088   3.917  0.9505  0.3568 -0.9050
11702TIP3    H235050   6.701   4.949   3.856 -0.4869 -0.4473  0.7530
11703TIP3   OH235051   7.397   5.581   3.641  0.0765  0.3447  0.3805
11703TIP3    H135052   7.388   5.661   3.589 -0.0531  0.7374  0.9852
11703TIP3    H235053   7.399   5.510   3.578 -2.6138  0.6068 -0.0565
11704TIP3   OH235054   7.105   5.023   5.508 -0.1811  0.1509  0.0942
11704TIP3    H135055   7.100   4.930   5.532 -0.1959  0.6425  2.0901
11704TIP3    H235056   7.191   5.051   5.540  0.5707  0.4031 -2.0955
11705TIP3   OH235057   8.268   5.009   6.109  0.2859 -0.1371 -0.0756
11705TIP3    H135058   8.342   5.028   6.166 -0.6020  1.9857  0.4590
11705TIP3    H235059   8.229   4.929   6.145  1.5996 -0.5849  0.3579
11706TIP3   OH235060   4.826   5.614   4.179 -0.0863 -0.0631  0.4726
11706TIP3    H135061   4.793   5.639   4.265  0.9875 -0.0614  0.8912
11706TIP3    H235062   4.786   5.529   4.162 -0.3332 -0.0449  0.9628
11707TIP3   OH235063   6.422   5.169   3.459  0.0663 -0.2346  0.2931
11707TIP3    H135064   6.376   5.191   3.540 -0.2718  0.6085 -0.1302
11707TIP3    H235065   6.512   5.149   3.488 -0.2199 -0.5871  0.9536
11708TIP3   OH235066   7.330   7.090   1.893  0.5205 -0.0196 -0.4157
11708TIP3    H135067   7.312   7.012   1.841 -2.6783 -0.0785  0.6741
11708TIP3    H235068   7.282   7.160   1.850  0.4921  0.6108  0.6234
11709TIP3   OH235069   1.228   1.168   1.371  0.4146 -0.3029  0.4864
11709TIP3    H135070   1.322   1.150   1.379  0.2930 -1.2066 -0.0489
11709TIP3    H235071   1.221   1.227   1.296  0.5382 -0.3777  0.4165
11710TIP3   OH235072   6.711   6.103   4.671  0.0737  0.0829  0.0389
11710TIP3    H135073   6.654   6.049   4.616 -0.2052 -1.4187  1.7491
11710TIP3    H235074   6.652   6.166   4.712 -0.2240 -0.7869  0.9793
11711TIP3   OH235075   6.109   7.394   5.688  0.4467  0.0893 -0.2924
11711TIP3    H135076   6.017   7.414   5.704  0.4841 -0.4011  0.5571
11711TIP3    H235077   6.152   7.479   5.688  0.1625  0.2372  0.4458
11712TIP3   OH235078   5.206   3.434   4.726  0.1729  0.1868  0.5428
11712TIP3    H135079   5.295   3.454   4.697 -0.9458  1.3873 -2.2276
11712TIP3    H235080   5.177   3.361   4.671 -0.0175 -1.3464  2.5701
11713TIP3   OH235081   0.373   3.479   5.001 -0.4068 -0.2956  0.4294
11713TIP3    H135082   0.412   3.453   4.917  0.0083 -2.7250  1.3520
11713TIP3    H235083   0.281   3.497   4.980 -0.0908  0.0397 -0.7112
11714TIP3   OH235084   0.039   4.645   6.033 -0.0467 -0.4536  0.6855
11714TIP3    H135085   0.016   4.657   6.126 -1.4061  2.8531 -0.0074
11714TIP3    H235086   0.105   4.711   6.017  1.1305 -1.8869 -0.4178
11715TIP3   OH235087   3.122   1.228   0.122 -0.1248 -0.3278 -0.2365
11715TIP3    H135088   3.072   1.298   0.080  2.2536  2.3267  1.1808
11715TIP3    H235089   3.059   1.183   0.178 -2.1142 -0.5861 -2.5685
11716TIP3   OH235090   1.755   3.907   6.497  0.0337  0.0700  0.2535
11716TIP3    H135091   1.685   3.884   6.557 -0.9881  1.6696 -0.2769
11716TIP3    H235092   1.710   3.945   6.421  1.4770  1.3075 -0.0102
11717TIP3   OH235093   7.146   3.185   3.945 -0.6446  0.2179 -0.2323
11717TIP3    H135094   7.126   3.119   4.012  1.6819  0.0050  0.3260
11717TIP3    H235095   7.172   3.134   3.869 -2.0219  0.4781 -0.8877
11718TIP3   OH235096   6.866   5.116   5.377  0.1017  0.1327 -0.0108
11718TIP3    H135097   6.848   5.095   5.469  0.1411 -0.4640 -0.1416
11718TIP3    H235098   6.955   5.085   5.363  0.2794  0.6889 -0.1097
11719TIP3   OH235099   5.467   2.227   6.081 -0.2388  0.1192  0.2069
11719TIP3    H135100   5.534   2.292   6.066  0.9214 -1.4855 -1.8498
11719TIP3    H235101   5.515   2.145   6.092 -1.7833 -0.8625 -0.1728
11720TIP3   OH235102   0.364   4.080   4.033 -0.6145  0.4324 -0.0853
11720TIP3    H135103   0.396   3.993   4.012 -1.0231  0.5178 -1.0929
11720TIP3    H235104   0.317   4.108   3.954 -1.3386  1.1576  0.5949
11721TIP3   OH235105   7.911   5.137   5.871 -0.0275 -0.0945 -0.1092
11721TIP3    H135106   7.929   5.135   5.965  1.7383  1.9090 -0.3784
11721TIP3    H235107   7.816   5.122   5.865 -0.2232  0.1281  2.0069
11722TIP3   OH235108   4.442   6.218   5.996  0.4930 -0.3391  0.3289
11722TIP3    H135109   4.498   6.208   5.919  0.1160  0.1154 -0.0058
11722TIP3    H235110   4.379   6.146   5.990  0.1022  0.0429 -0.0922
11723TIP3   OH235111   7.104   6.030   3.115 -0.1036  0.0200 -0.6422
11723TIP3    H135112   7.049   5.955   3.093 -0.1398  0.4510 -2.0358
11723TIP3    H235113   7.193   5.999   3.098 -0.0205 -0.1375  0.0570
11724TIP3   OH235114   4.582   3.570   4.623 -0.4012  0.2228  0.5140
11724TIP3    H135115   4.563   3.635   4.690  1.4285  1.3795 -0.0599
11724TIP3    H235116   4.563   3.486   4.665  0.9231  0.9070  2.5826
11725TIP3   OH235117   2.450   0.238   3.540  0.2179 -0.2800 -0.0283
11725TIP3    H135118   2.411   0.226   3.626  0.0743 -1.2787 -0.2263
11725TIP3    H235119   2.413   0.167   3.487  0.9806 -0.2043 -0.6718
11726TIP3   OH235120   7.007   7.740   6.657 -0.1455  0.0545  0.1823
11726TIP3    H135121   6.928   7.694   6.630  0.8073 -1.2062 -0.4838
11726TIP3    H235122   6.995   7.829   6.624 -2.5504  0.6737  2.5508
11727TIP3   OH235123   3.930   2.717   0.402 -0.1549  0.3991 -0.3197
11727TIP3    H135124   3.980   2.717   0.321  1.0587  1.9805  0.3953
11727TIP3    H235125   3.997   2.723   0.471 -1.2779  2.1765  0.6691
11728TIP3   OH235126   6.204   6.518   6.687  0.4303  0.2308  0.0353
11728TIP3    H135127   6.147   6.585   6.649 -0.9291 -1.1083 -0.3253
11728TIP3    H235128   6.164   6.497   6.771  0.8186 -0.1765  0.1198
11729TIP3   OH235129   7.494   4.649   6.463  0.1712  0.1674 -0.1648
11729TIP3    H135130   7.516   4.637   6.556 -0.2895  0.9930  0.0516
11729TIP3    H235131   7.439   4.727   6.461 -2.6782 -1.7667 -0.6980
11730TIP3   OH235132   7.281   0.245   5.377  0.0790 -0.1036  0.0989
11730TIP3    H135133   7.224   0.197   5.317  1.4175 -0.3650 -0.9837
11730TIP3    H235134   7.348   0.284   5.321  0.4166  0.9970  1.2461
11731TIP3   OH235135   3.603   1.662   0.984  0.0299 -0.0559 -0.1332
11731TIP3    H135136   3.606   1.669   1.080 -0.1372  1.5189 -0.2277
11731TIP3    H235137   3.542   1.590   0.968 -1.8774  1.2537  0.9343
11732TIP3   OH235138   6.601   4.637   6.178 -0.1655  0.0887 -0.1583
11732TIP3    H135139   6.597   4.542   6.164 -0.8447  0.4357 -2.4680
11732TIP3    H235140   6.509   4.664   6.179  0.0580  0.8555 -0.4466
11733TIP3   OH235141   7.564   6.048   4.464 -0.0320 -0.8479  0.2649
11733TIP3    H135142   7.556   6.027   4.557  0.1455 -1.3649  0.1638
11733TIP3    H235143   7.606   5.971   4.425  1.4868  0.0673  0.0485
11734TIP3   OH235144   2.579   7.662   0.077 -0.2095 -0.2780 -0.1377
11734TIP3    H135145   2.543   7.747   0.051  0.9686  0.3528  0.2567
11734TIP3    H235146   2.662   7.683   0.120 -0.2084 -1.5841  0.5367
11735TIP3   OH235147   7.802   4.905   4.596 -0.4415 -0.0219  0.6069
11735TIP3    H135148   7.882   4.928   4.643  0.3650  1.4827 -1.3894
11735TIP3    H235149   7.731   4.929   4.655  0.5533 -0.6182  2.0785
11736TIP3   OH235150   5.290   6.547   5.222  0.2020 -0.1949 -0.2272
11736TIP3    H135151   5.246   6.569   5.304 -0.5747  2.1877 -1.2486
11736TIP3    H235152   5.228   6.489   5.177 -1.3351  2.0170 -1.0368
11737TIP3   OH235153   6.308   6.720   5.658  0.1528  0.1139  0.5203
11737TIP3    H135154   6.294   6.663   5.582 -0.9388 -0.3838  1.0880
11737TIP3    H235155   6.278   6.806   5.630  0.8310  0.1940  0.0106
11738TIP3   OH235156   0.739   7.854   0.416 -0.0179 -0.0844 -0.4283
11738TIP3    H135157   0.826   7.839   0.381 -0.5449  0.0045 -1.7989
11738TIP3    H235158   0.743   7.822   0.506  1.6655  0.7431 -0.2076
11739TIP3   OH235159   8.481   4.036   6.613  0.2474  0.3211 -0.0797
11739TIP3    H135160   8.472   3.974   6.541 -0.7395  0.3597  0.0078
11739TIP3    H235161   8.405   4.093   6.605  0.0881  0.2712  1.0482
11740TIP3   OH235162   1.037   6.724   0.135 -0.1947 -0.3191 -0.3671
11740TIP3    H135163   1.046   6.781   0.212 -0.8971 -0.2273 -0.3481
11740TIP3    H235164   1.055   6.636   0.168 -0.7592 -0.3135 -0.0437
11741TIP3   OH235165   8.114   5.057   5.176 -0.3075  0.2028 -0.0554
11741TIP3    H135166   8.143   5.066   5.085  0.4786 -0.1784  0.1510
11741TIP3    H235167   8.026   5.094   5.177 -1.2829 -2.0164 -1.5089
11742TIP3   OH235168   4.676   3.674   6.553 -0.1962 -0.0757  0.7712
11742TIP3    H135169   4.670   3.729   6.474  2.3812 -2.8377 -1.4626
11742TIP3    H235170   4.738   3.720   6.609  0.8614  0.0816 -0.4826
11743TIP3   OH235171   7.951   1.308   5.176  0.6151  0.0730 -0.1473
11743TIP3    H135172   7.907   1.321   5.092  1.2364 -2.7579 -0.9763
11743TIP3    H235173   8.044   1.317   5.155  0.7713 -0.6575  0.2122
11744TIP3   OH235174   8.348   3.465   6.432  0.1692 -0.0711  0.3201
11744TIP3    H135175   8.373   3.396   6.371  1.8289  0.8433 -0.0628
11744TIP3    H235176   8.390   3.441   6.514  0.4511  0.2911  0.2827
11745TIP3   OH235177   7.255   5.519   4.835 -0.1497  0.2558 -0.4959
11745TIP3    H135178   7.291   5.521   4.923  0.2655  0.2074 -0.6660
11745TIP3    H235179   7.249   5.426   4.813  0.7744  0.3012 -0.9421
11746TIP3   OH235180   5.601   6.436   5.481  0.6528 -0.0276  0.3200
11746TIP3    H135181   5.669   6.500   5.498  1.9993 -0.2594 -3.6648
11746TIP3    H235182   5.561   6.420   5.566  4.0280  1.8421  2.3632
11747TIP3   OH235183   5.920   5.366   4.677 -0.0565  0.1325  0.2551
11747TIP3    H135184   5.952   5.419   4.749 -2.3440  0.9940  0.6769
11747TIP3    H235185   5.859   5.423   4.629  0.5177 -0.8036 -1.6568
11748TIP3   OH235186   7.452   5.550   5.074 -0.1902 -0.1897 -0.7885
11748TIP3    H135187   7.449   5.514   5.162  0.9627  1.9620  0.1609
11748TIP3    H235188   7.459   5.474   5.017 -0.5387 -1.5823  0.9893
11749TIP3   OH235189   4.363   5.280   4.911  0.1146 -0.2872  0.3471
11749TIP3    H135190   4.295   5.275   4.844  0.6410  1.6245 -0.3815
11749TIP3    H235191   4.445   5.277   4.862  0.5370 -0.8627  1.0802
11750TIP3   OH235192   1.126   0.335   3.167  0.0343 -0.8124 -0.2308
11750TIP3    H135193   1.156   0.258   3.214  3.5754 -1.9238 -3.9659
11750TIP3    H235194   1.199   0.397   3.174 -0.6935  0.2055 -1.5039
11751TIP3   OH235195   0.494   3.195   6.423  0.4282  0.0656 -0.1197
11751TIP3    H135196   0.404   3.227   6.423  0.1665 -0.6121  1.2608
11751TIP3    H235197   0.522   3.200   6.332 -0.4093  1.9218 -0.2846
11752TIP3   OH235198   0.088   6.606   1.241  0.2762  0.3267 -0.0319
11752TIP3    H135199   0.086   6.547   1.317  1.5105 -0.1634 -0.3789
11752TIP3    H235200   0.059   6.690   1.276 -1.3747 -0.4276  0.5043
11753TIP3   OH235201   6.248   6.427   4.163 -0.0242  0.0250 -0.4536
11753TIP3    H135202   6.302   6.452   4.238  0.2213  0.2195 -0.6933
11753TIP3    H235203   6.303   6.367   4.113  0.6342  1.5737 -1.6143
11754TIP3   OH235204   4.465   1.286   0.857 -0.5043 -0.0347 -0.3711
11754TIP3    H135205   4.466   1.369   0.811  0.3705  0.0027 -0.2819
11754TIP3    H235206   4.452   1.220   0.788  0.7093  0.0271 -0.6683
11755TIP3   OH235207   5.215   5.150   5.917 -0.0536 -0.0067 -0.1918
11755TIP3    H135208   5.252   5.084   5.858  1.2253  0.6844 -0.1771
11755TIP3    H235209   5.208   5.229   5.863  2.4199  1.0225  0.9098
11756TIP3   OH235210   7.727   2.997   6.328  0.0264  0.4435  0.0203
11756TIP3    H135211   7.792   2.933   6.355  0.4140  0.8062 -0.0411
11756TIP3    H235212   7.777   3.078   6.318 -0.5072  0.8222  0.3925
11757TIP3   OH235213   7.580   5.515   4.772 -0.3491  0.4715  0.5180
11757TIP3    H135214   7.598   5.423   4.791  0.1165  0.5866  0.6536
11757TIP3    H235215   7.522   5.513   4.696 -0.0155  0.0795  0.2726
11758TIP3   OH235216   0.767   4.786   4.832 -0.1325 -0.1050 -0.4854
11758TIP3    H135217   0.802   4.872   4.807  1.5048 -0.9663 -1.2480
11758TIP3    H235218   0.677   4.786   4.798  0.5055  0.5655 -2.2649
11759TIP3   OH235219   1.131   6.636   6.008  0.3632 -0.7082 -0.6361
11759TIP3    H135220   1.057   6.637   6.069  0.2950 -0.7096 -0.7180
11759TIP3    H235221   1.207   6.620   6.063  0.2692 -0.9960 -0.5869
11760TIP3   OH235222   7.398   5.837   4.911  0.5526  0.4137  0.0020
11760TIP3    H135223   7.413   5.758   4.962  0.7037 -0.8001 -1.8842
11760TIP3    H235224   7.434   5.817   4.825 -3.7204  0.7293 -1.9852
11761TIP3   OH235225   7.052   5.007   4.516  0.0914  0.0291  0.7834
11761TIP3    H135226   7.143   5.028   4.493  0.7355 -2.3202  0.9546
11761TIP3    H235227   7.017   4.967   4.436 -0.1958 -0.7225  1.2759
11762TIP3   OH235228   7.913   6.067   3.189  0.3386  0.3419 -0.4634
11762TIP3    H135229   7.958   6.059   3.272 -1.3026  0.9034  0.5092
11762TIP3    H235230   7.976   6.035   3.124  1.8681  0.4963  0.9063
11763TIP3   OH235231   4.496   2.465   1.046 -0.0380 -0.5111  0.2997
11763TIP3    H135232   4.542   2.527   1.103  1.0624 -1.4276  0.4047
11763TIP3    H235233   4.417   2.441   1.096  0.4010 -0.5196  0.9931
11764TIP3   OH235234   6.731   5.636   6.650 -0.7756  0.2112 -0.0624
11764TIP3    H135235   6.703   5.698   6.583 -2.1990 -0.3977 -0.0308
11764TIP3    H235236   6.654   5.622   6.704 -0.4115 -1.4794  0.0363
11765TIP3   OH235237   6.873   6.640   4.189 -0.1610 -0.2391  0.1072
11765TIP3    H135238   6.932   6.578   4.233 -1.1320 -0.7487  0.7224
11765TIP3    H235239   6.900   6.639   4.098  1.3238  0.1677  0.5297
11766TIP3   OH235240   8.151   5.331   4.959  0.0341  0.5314  0.2967
11766TIP3    H135241   8.184   5.408   4.912 -1.1841  0.9299  0.0480
11766TIP3    H235242   8.057   5.348   4.969 -0.3871 -1.2595 -0.4055
11767TIP3   OH235243   0.983   5.668   4.105 -0.4119  0.1968  0.2311
11767TIP3    H135244   0.915   5.725   4.141 -0.1860  0.9238 -0.4783
11767TIP3    H235245   1.048   5.728   4.068  0.0476 -0.5109 -0.1273
11768TIP3   OH235246   8.501   5.392   6.187 -0.5980 -0.2158  0.2284
11768TIP3    H135247   8.428   5.453   6.174 -1.6160 -1.2157  1.1593
11768TIP3    H235248   8.532   5.371   6.098 -1.8057 -0.2214 -0.1928
11769TIP3   OH235249   6.665   3.694   6.071  0.0806  0.6310 -0.1455
11769TIP3    H135250   6.654   3.607   6.033  2.9331 -0.5247  1.5555
11769TIP3    H235251   6.650   3.682   6.165  0.1127  2.0483  0.0552
11770TIP3   OH235252   8.014   6.507   4.230 -0.3441  0.6041 -0.6529
11770TIP3    H135253   7.960   6.430   4.210 -0.9538  0.4031  1.5661
11770TIP3    H235254   8.042   6.539   4.145 -1.8258 -0.8396 -1.7345
11771TIP3   OH235255   7.874   6.450   3.979 -0.1068 -0.2956 -0.0702
11771TIP3    H135256   7.930   6.419   3.907  0.4493  0.1154  0.1903
11771TIP3    H235257   7.861   6.372   4.034  0.6346 -0.2655  0.1500
11772TIP3   OH235258   0.032   4.739   5.439 -0.1903  0.3814  0.2215
11772TIP3    H135259   0.012   4.802   5.508  0.3721  1.7591 -0.8307
11772TIP3    H235260   0.022   4.789   5.358  0.7619 -0.7557 -0.6184
11773TIP3   OH235261   8.284   5.103   4.921 -0.0531  0.7204 -0.5523
11773TIP3    H135262   8.283   5.080   4.828  0.3924  3.5146 -1.2920
11773TIP3    H235263   8.247   5.191   4.924  0.0281  0.6885  1.9123
11774TIP3   OH235264   6.810   5.681   6.007  0.1450  0.2034 -0.6691
11774TIP3    H135265   6.872   5.623   6.051  0.2536  0.4449 -0.5019
11774TIP3    H235266   6.814   5.655   5.915  0.7673  0.4619 -0.7170
11775TIP3   OH235267   5.320   6.044   5.574  0.6549  0.1841 -0.2307
11775TIP3    H135268   5.302   6.118   5.516  0.9405  0.1115 -0.4153
11775TIP3    H235269   5.356   5.976   5.516 -0.4369 -0.4203 -0.2073
11776TIP3   OH235270   0.820   7.164   5.788 -0.3735  0.2785  0.1232
11776TIP3    H135271   0.881   7.107   5.741 -0.9809 -1.6554  1.6669
11776TIP3    H235272   0.733   7.138   5.756 -0.7248 -0.4260  1.6299
11777TIP3   OH235273   0.523   4.005   5.762  0.2391 -0.3819  0.1024
11777TIP3    H135274   0.542   3.913   5.779  0.8747 -0.3270 -0.2891
11777TIP3    H235275   0.430   4.007   5.741  0.3709 -1.0323 -0.5551
11778TIP3   OH235276   2.262   7.382   4.592 -0.1595 -0.7986  0.6162
11778TIP3    H135277   2.355   7.388   4.616  0.1370 -1.0996 -0.4440
11778TIP3    H235278   2.242   7.289   4.596 -0.1562 -0.8331 -0.1095
11779TIP3   OH235279   7.367   5.731   1.486 -0.0736 -0.6043 -0.0395
11779TIP3    H135280   7.331   5.696   1.567 -0.8539  1.0953  0.3755
11779TIP3    H235281   7.457   5.698   1.483 -0.3686 -1.5260  0.9820
11780TIP3   OH235282   1.000   4.530   5.721  0.2835 -0.3523 -0.1326
11780TIP3    H135283   1.007   4.464   5.790 -1.7138 -1.7443 -1.2107
11780TIP3    H235284   0.931   4.497   5.664  1.5736  1.0216 -2.5479
11781TIP3   OH235285   7.909   4.916   3.080 -0.1771  0.2559  0.3565
11781TIP3    H135286   7.880   4.842   3.134 -2.5018 -1.1500 -2.6458
11781TIP3    H235287   7.968   4.877   3.016 -0.4913  1.1898 -0.5076
11782TIP3   OH235288   6.842   4.505   6.437 -0.4475  0.5357 -0.3474
11782TIP3    H135289   6.915   4.564   6.417 -0.5721  0.5901 -0.6518
11782TIP3    H235290   6.879   4.417   6.428 -0.2200  0.5633  0.2663
11783TIP3   OH235291   6.569   6.399   3.478 -0.0356  0.0123  0.3678
11783TIP3    H135292   6.638   6.465   3.486 -2.2321  2.2250  2.0459
11783TIP3    H235293   6.549   6.374   3.569 -1.4647 -0.5609 -0.0835
11784TIP3   OH235294   0.409   3.363   3.484  0.3454 -0.2907 -0.0420
11784TIP3    H135295   0.476   3.404   3.539 -1.5777  1.5880  0.9997
11784TIP3    H235296   0.399   3.423   3.410 -2.0805  0.9191  1.1947
11785TIP3   OH235297   8.445   5.618   3.850 -0.0362 -0.0379  0.5870
11785TIP3    H135298   8.440   5.592   3.758 -2.4097  0.3526  0.5733
11785TIP3    H235299   8.521   5.676   3.855  0.9001 -1.1148 -0.8442
11786TIP3   OH235300   7.260   3.707   5.421  0.3237  0.2710  0.0444
11786TIP3    H135301   7.238   3.799   5.434 -0.6635  0.0554 -0.0785
11786TIP3    H235302   7.265   3.696   5.326 -0.1520  0.0652  0.0408
11787TIP3   OH235303   6.608   5.790   3.799  0.2171 -0.1799 -0.0848
11787TIP3    H135304   6.558   5.708   3.792  0.2995 -0.1483 -1.0717
11787TIP3    H235305   6.698   5.765   3.777 -0.1925  0.6389 -2.7880
11788TIP3   OH235306   7.930   5.298   3.946  0.1121 -0.0733 -0.2271
11788TIP3    H135307   7.890   5.339   4.022  3.3368  1.2385  0.8141
11788TIP3    H235308   7.952   5.371   3.888  1.5688 -0.7041 -0.4858
11789TIP3   OH235309   6.640   2.336   0.277  0.7954  0.4362  0.7100
11789TIP3    H135310   6.653   2.280   0.353  1.8236 -0.5994 -0.2172
11789TIP3    H235311   6.671   2.422   0.306 -0.0704  0.3803  1.8810
11790TIP3   OH235312   0.584   4.812   3.265 -0.0196 -0.0766  0.2552
11790TIP3    H135313   0.522   4.884   3.260 -1.2676 -1.0292  1.5552
11790TIP3    H235314   0.558   4.763   3.343  0.2400 -2.4439 -1.0791
11791TIP3   OH235315   0.207   6.181   6.296  0.3663  0.3954  0.2605
11791TIP3    H135316   0.187   6.245   6.363  1.0340  0.4826  0.3837
11791TIP3    H235317   0.137   6.190   6.232  0.1112  0.8002  0.5956
11792TIP3   OH235318   1.541   6.893   2.721  0.1943  0.7165  0.4095
11792TIP3    H135319   1.618   6.936   2.760  0.1622 -0.0360  1.3329
11792TIP3    H235320   1.476   6.963   2.716  0.8640  1.3061 -0.1637
11793TIP3   OH235321   5.599   2.148   0.503  0.1270 -0.0015 -0.3867
11793TIP3    H135322   5.551   2.080   0.455  0.6579  0.3363 -1.3914
11793TIP3    H235323   5.570   2.137   0.594 -0.3451 -1.0994 -0.6582
11794TIP3   OH235324   0.590   7.049   5.649  0.0765 -0.0753  0.5822
11794TIP3    H135325   0.513   7.003   5.683 -0.4937  0.8877  0.6016
11794TIP3    H235326   0.633   6.985   5.592 -0.8242 -0.5669  0.4503
11795TIP3   OH235327   1.076   6.070   5.154  0.1214 -0.1479 -0.2369
11795TIP3    H135328   1.020   6.147   5.159  2.4298  1.5015  1.0128
11795TIP3    H235329   1.114   6.061   5.241  2.1934 -0.9040 -1.1627
11796TIP3   OH235330   5.343   2.508   0.559  0.0807 -0.1039 -0.0190
11796TIP3    H135331   5.293   2.430   0.538  0.0047  0.4927 -2.2589
11796TIP3    H235332   5.361   2.548   0.473 -1.1317  3.0806  1.1382
11797TIP3   OH235333   6.808   2.196   0.011 -0.4245  0.2627 -0.5357
11797TIP3    H135334   6.885   2.153   0.050 -0.7412  0.2783  0.1129
11797TIP3    H235335   6.754   2.221   0.086 -0.1179  2.0370 -0.8725
11798TIP3   OH235336   8.004   6.053   6.205 -0.3819 -0.2512 -0.7633
11798TIP3    H135337   7.971   5.977   6.254 -0.1571 -0.4177 -0.8684
11798TIP3    H235338   7.990   6.031   6.113 -0.7861  0.0558 -0.7763
11799TIP3   OH235339   7.149   6.874   3.984 -0.4290 -0.5053 -1.3029
11799TIP3    H135340   7.232   6.832   4.006 -0.5038 -0.2330 -0.4981
11799TIP3    H235341   7.084   6.805   3.996 -0.5002 -0.2819 -0.4244
11800TIP3   OH235342   7.939   6.561   6.236  0.1102 -0.1452  0.0137
11800TIP3    H135343   7.857   6.599   6.266  0.1268 -0.9689  1.1096
11800TIP3    H235344   7.914   6.498   6.168  0.1037  2.0221 -2.0478
11801TIP3   OH235345   0.267   5.957   2.793  0.0059 -0.3337 -0.3564
11801TIP3    H135346   0.241   5.908   2.871  0.0713 -1.2795 -0.9336
11801TIP3    H235347   0.189   6.009   2.771  0.2171  0.4975  0.7502
11802TIP3   OH235348   7.749   7.923   5.689  0.0589  0.2492 -0.6367
11802TIP3    H135349   7.789   7.844   5.654 -0.6854 -0.6075  0.3930
11802TIP3    H235350   7.691   7.954   5.619  2.2575  1.3279 -2.0079
11803TIP3   OH235351   7.655   5.789   5.642  0.0910  0.0971  1.1210
11803TIP3    H135352   7.614   5.875   5.655 -0.5879  0.0757 -0.6575
11803TIP3    H235353   7.589   5.739   5.593  0.2246 -1.6626  2.6969
11804TIP3   OH235354   7.984   5.562   3.839 -0.5927 -0.1296 -0.1509
11804TIP3    H135355   8.069   5.584   3.801 -0.6392 -0.3232 -0.3644
11804TIP3    H235356   7.921   5.600   3.779 -0.6611 -0.1855 -0.1136
11805TIP3   OH235357   0.065   6.048   5.470 -0.2555 -0.1341  0.2319
11805TIP3    H135358   0.006   6.118   5.495 -0.5714 -0.3358  0.0623
11805TIP3    H235359   0.138   6.092   5.428 -0.6399  0.0692 -0.2295
11806TIP3   OH235360   2.496   4.779   5.210  0.5057  0.0263  0.7023
11806TIP3    H135361   2.564   4.725   5.251  1.4525  0.7860  0.1777
11806TIP3    H235362   2.495   4.860   5.262  0.0227  0.0276  0.6912
11807TIP3   OH235363   6.486   3.869   4.402  0.3051 -0.2325 -0.4156
11807TIP3    H135364   6.469   3.961   4.422  2.7032  0.4015 -1.0809
11807TIP3    H235365   6.513   3.832   4.485 -1.1109 -0.4705 -0.0457
11808TIP3   OH235366   6.298   5.856   6.823  0.7099 -0.2950 -0.1120
11808TIP3    H135367   6.285   5.891   6.911  1.4086 -0.9260  0.2488
11808TIP3    H235368   6.330   5.931   6.772  1.0674 -0.1190  0.3667
11809TIP3   OH235369   7.949   6.388   2.498 -0.1220 -0.4137  0.7259
11809TIP3    H135370   7.873   6.442   2.519  0.8018  0.3737  2.1648
11809TIP3    H235371   7.917   6.298   2.503 -1.7204 -0.0529 -1.8574
11810TIP3   OH235372   7.031   5.437   4.098 -0.2882 -0.1217  0.5539
11810TIP3    H135373   7.023   5.349   4.134  0.8702 -0.1460  0.7516
11810TIP3    H235374   7.050   5.493   4.173  2.7560 -0.2637 -0.0636
11811TIP3   OH235375   7.847   4.097   4.057  0.4758 -0.0311  0.2995
11811TIP3    H135376   7.842   4.024   3.995 -0.7747 -0.2120  0.6011
11811TIP3    H235377   7.759   4.102   4.095  0.9089  0.8268  1.2023
11812TIP3   OH235378   5.528   3.062   0.409 -0.1153  0.1625  0.2660
11812TIP3    H135379   5.503   2.990   0.352 -2.2520  1.5986 -0.6999
11812TIP3    H235380   5.499   3.034   0.496 -1.8256  0.2507 -0.2621
11813TIP3   OH235381   0.232   5.478   6.045 -0.0891 -0.0128  0.4338
11813TIP3    H135382   0.199   5.394   6.013 -0.4867 -0.1653  1.2302
11813TIP3    H235383   0.210   5.540   5.976 -0.7545 -0.3731  0.3174
11814TIP3   OH235384   8.183   4.420   6.483  0.1966 -0.2232  0.2334
11814TIP3    H135385   8.196   4.501   6.435  2.4374  1.3047  3.2930
11814TIP3    H235386   8.093   4.426   6.515 -0.2223  0.2248 -0.9803
11815TIP3   OH235387   5.981   3.717   4.124 -0.3233  0.3661  0.1494
11815TIP3    H135388   5.908   3.655   4.123 -0.8683  1.0019 -0.1933
11815TIP3    H235389   6.015   3.712   4.213 -0.3209 -0.4726  0.1005
11816TIP3   OH235390   5.896   3.981   4.050  0.4093 -0.0773  0.4842
11816TIP3    H135391   5.929   3.894   4.070  2.4819  0.8540  1.2558
11816TIP3    H235392   5.974   4.034   4.035 -0.8538  1.3932 -1.1441
11817TIP3   OH235393   6.540   3.685   5.181  0.2914  0.2743  0.7661
11817TIP3    H135394   6.508   3.616   5.240 -1.2965  0.3200 -0.0111
11817TIP3    H235395   6.564   3.639   5.101  0.7504  0.4273  0.8172
11818TIP3   OH235396   7.048   6.073   4.307  0.4003  0.1830 -0.1962
11818TIP3    H135397   7.053   6.050   4.215  0.9451 -0.8895  0.0961
11818TIP3    H235398   6.961   6.044   4.335  0.2152  0.5555 -0.3753
11819TIP3   OH235399   7.234   4.210   5.915 -0.1643 -0.6785 -0.1501
11819TIP3    H135400   7.259   4.195   6.006  1.0306  1.1601 -0.1369
11819TIP3    H235401   7.299   4.163   5.864 -0.2112 -0.8393 -0.0609
11820TIP3   OH235402   5.862   5.760   4.838 -0.0560  0.0775 -0.0683
11820TIP3    H135403   5.790   5.707   4.873 -1.1140  2.0095  0.8074
11820TIP3    H235404   5.827   5.798   4.757 -0.1776  1.3038  0.5427
11821TIP3   OH235405   6.723   6.542   5.305  0.0667 -0.1967 -0.2412
11821TIP3    H135406   6.659   6.471   5.318  0.2838 -0.3127  0.1996
11821TIP3    H235407   6.727   6.587   5.389  0.6194 -0.2349 -0.2458
11822TIP3   OH235408   8.407   5.611   5.693  0.0521 -0.4394 -0.2328
11822TIP3    H135409   8.488   5.661   5.693 -0.9768  1.2889  0.1573
11822TIP3    H235410   8.434   5.520   5.702  1.9797  0.0292 -1.0734
11823TIP3   OH235411   0.052   3.575   3.503 -0.5631 -0.5045  0.2709
11823TIP3    H135412   0.066   3.530   3.420 -1.2385 -2.2732  1.1013
11823TIP3    H235413  -0.037   3.611   3.496 -1.5504 -2.6650  1.1040
11824TIP3   OH235414   7.033   4.650   6.101  0.0715 -0.7139 -0.0476
11824TIP3    H135415   7.057   4.725   6.046  0.9618 -0.8973  0.0766
11824TIP3    H235416   6.957   4.680   6.151 -0.4761 -0.4009 -1.0655
11825TIP3   OH235417   8.264   6.127   3.565  0.0062  1.0017  0.2055
11825TIP3    H135418   8.338   6.097   3.512 -0.4015  2.0872 -1.0127
11825TIP3    H235419   8.305   6.177   3.636  0.5217  0.1229  0.5388
11826TIP3   OH235420   7.766   5.765   4.843 -0.0432  0.5927 -0.0467
11826TIP3    H135421   7.725   5.679   4.830  0.0886  0.7386 -1.4731
11826TIP3    H235422   7.843   5.763   4.786  1.5150  0.6235  1.9983
11827TIP3   OH235423   6.557   4.443   5.877 -0.2159  0.3747  0.0280
11827TIP3    H135424   6.472   4.447   5.832 -0.1313  1.2793 -0.0661
11827TIP3    H235425   6.534   4.444   5.970 -0.2386  4.4948  0.0944
11828TIP3   OH235426   6.259   2.640   3.715 -0.1026 -0.4222 -0.0368
11828TIP3    H135427   6.187   2.593   3.756 -0.1676 -0.1912  0.1173
11828TIP3    H235428   6.252   2.619   3.622  0.6916 -1.8259  0.2011
11829TIP3   OH235429   1.123   2.632   5.053  0.4921  0.2607 -0.2977
11829TIP3    H135430   1.143   2.650   4.961  1.3119  0.1221 -0.1540
11829TIP3    H235431   1.134   2.537   5.062  0.7895  0.3232  0.0268
11830TIP3   OH235432   7.973   3.456   3.934 -0.1364 -0.4892  0.0286
11830TIP3    H135433   7.880   3.448   3.952  0.1404 -0.9881  1.3338
11830TIP3    H235434   7.998   3.372   3.895  0.0422 -0.9064  1.0198
11831TIP3   OH235435   7.803   7.129   3.024 -0.2628 -0.7516  0.1950
11831TIP3    H135436   7.883   7.105   3.072  0.7145  0.5284 -0.7533
11831TIP3    H235437   7.751   7.177   3.088 -0.1313 -1.2995  0.7217
11832TIP3   OH235438   0.277   4.829   4.974 -0.5309  0.1784 -0.1275
11832TIP3    H135439   0.248   4.916   4.949 -1.4424  0.7571  2.7854
11832TIP3    H235440   0.206   4.771   4.946  0.1887  0.2973 -2.2892
11833TIP3   OH235441   0.397   7.584   0.142  0.4107 -0.0293 -0.3493
11833TIP3    H135442   0.406   7.624   0.228  0.8188 -0.5478 -0.1483
11833TIP3    H235443   0.324   7.630   0.101 -1.0686 -1.1092  1.0169
11834TIP3   OH235444   7.729   7.625   2.870  0.9124  0.4026  0.3159
11834TIP3    H135445   7.685   7.541   2.888  2.0909 -0.3099 -0.0683
11834TIP3    H235446   7.811   7.620   2.920  0.0353  2.2259  2.0134
11835TIP3   OH235447   0.584   6.083   4.025  0.1901 -0.2405  0.4746
11835TIP3    H135448   0.548   5.996   4.009  2.3694 -1.1385  0.3243
11835TIP3    H235449   0.512   6.131   4.066 -1.2499 -1.8960 -0.0448
11836TIP3   OH235450   1.627   6.564   5.562 -0.4866  0.0550  0.2786
11836TIP3    H135451   1.573   6.635   5.598  0.4991  1.3554 -0.7276
11836TIP3    H235452   1.715   6.601   5.560  0.3357 -1.8369  1.3431
11837TIP3   OH235453   1.154   4.791   5.738 -0.1830  0.7030  0.3766
11837TIP3    H135454   1.090   4.721   5.753  0.6518 -0.0573  0.4051
11837TIP3    H235455   1.152   4.842   5.819  0.7735 -0.5564  1.2120
11838TIP3   OH235456   0.986   5.436   3.085  0.1870  0.5683 -0.5901
11838TIP3    H135457   0.928   5.438   3.009 -1.4024  0.2645  0.5679
11838TIP3    H235458   0.930   5.403   3.156  2.7716 -3.4330 -0.2717
11839TIP3   OH235459   1.616   6.210   3.634  0.2384 -0.2449 -0.4224
11839TIP3    H135460   1.626   6.209   3.729  0.0227 -2.1473 -0.3983
11839TIP3    H235461   1.552   6.141   3.615 -2.3084  2.3553 -1.7025
11840TIP3   OH235462   6.194   5.243   6.015  0.2222 -0.0155  0.0853
11840TIP3    H135463   6.149   5.188   6.079  0.8800  1.8388  2.2267
11840TIP3    H235464   6.283   5.252   6.050  0.9257  0.1231 -1.6833
11841TIP3   OH235465   5.754   7.537   3.289  0.1282 -0.2882  0.0251
11841TIP3    H135466   5.806   7.563   3.213  0.5513 -1.5331 -0.1155
11841TIP3    H235467   5.710   7.617   3.316  1.6196  0.6405 -0.2507
11842TIP3   OH235468   7.981   7.033   3.185  0.0544 -0.1478  0.4181
11842TIP3    H135469   7.927   7.011   3.261 -0.2290 -1.8573 -0.2515
11842TIP3    H235470   8.070   7.008   3.211 -0.0983 -1.0794  0.0643
11843TIP3   OH235471   8.331   6.001   5.866  0.3334  0.2215 -0.6036
11843TIP3    H135472   8.400   5.983   5.930  1.2110  1.0727 -1.2947
11843TIP3    H235473   8.300   6.089   5.888  1.3304  0.9246 -1.9454
11844TIP3   OH235474   6.037   6.715   6.495  0.4224  0.1426 -0.3560
11844TIP3    H135475   5.979   6.791   6.499 -0.4567 -0.5765  1.6202
11844TIP3    H235476   6.096   6.733   6.423 -0.3852  2.2667 -0.5207
11845TIP3   OH235477   7.662   4.718   5.410  0.5946  0.1375  0.2003
11845TIP3    H135478   7.585   4.678   5.369  0.5908 -1.5302  1.7722
11845TIP3    H235479   7.626   4.779   5.474  0.5853 -0.2747  0.5871
11846TIP3   OH235480   7.017   7.405   2.804 -0.5811  0.2209 -0.4204
11846TIP3    H135481   6.972   7.487   2.824 -1.0974  0.2069 -1.5287
11846TIP3    H235482   6.967   7.366   2.733  1.3450  0.3398 -1.8623
11847TIP3   OH235483   7.287   5.463   6.463 -0.7830 -0.4093  0.3120
11847TIP3    H135484   7.272   5.471   6.557  1.7296  1.1849  0.6185
11847TIP3    H235485   7.333   5.380   6.453  0.3272  0.1532  0.6868
11848TIP3   OH235486   0.143   7.564   4.058 -0.8898 -0.5349  0.4046
11848TIP3    H135487   0.151   7.493   4.122 -1.9720 -0.7263  0.3468
11848TIP3    H235488   0.222   7.558   4.005 -1.6596 -2.6298 -0.5346
11849TIP3   OH235489   3.123   1.204   0.456  0.7104 -0.0271 -0.2681
11849TIP3    H135490   3.191   1.244   0.509 -1.7386  1.5286  1.7966
11849TIP3    H235491   3.081   1.277   0.411 -0.9719 -0.7021  0.1552
11850TIP3   OH235492   8.200   5.600   3.642 -0.1986 -0.1459  0.0755
11850TIP3    H135493   8.221   5.602   3.549 -1.3410 -1.2105 -0.2022
11850TIP3    H235494   8.217   5.510   3.669  2.3632  0.6762  1.4408
11851TIP3   OH235495   0.284   1.136   3.347  0.5969 -0.0927  0.1629
11851TIP3    H135496   0.350   1.204   3.331  0.7212 -0.6142 -1.6670
11851TIP3    H235497   0.205   1.170   3.304 -0.6945  1.0688  3.3459
11852TIP3   OH235498   8.362   5.447   3.186  0.7845  0.0322 -0.2494
11852TIP3    H135499   8.294   5.463   3.252  0.9287 -1.0470  0.1670
11852TIP3    H235500   8.324   5.481   3.105 -0.1110 -0.2228  0.0544
11853TIP3   OH235501   7.693   5.486   5.935 -0.3047  0.6582  0.4007
11853TIP3    H135502   7.658   5.575   5.938 -0.5249  0.6217 -0.8338
11853TIP3    H235503   7.784   5.494   5.965 -0.6256  1.1363  1.2470
11854TIP3   OH235504   6.528   4.365   6.150  0.7554 -0.2955  0.3326
11854TIP3    H135505   6.553   4.284   6.195 -0.6826 -1.1575 -0.3673
11854TIP3    H235506   6.443   4.388   6.188  0.5987  0.2207 -0.3187
11855TIP3   OH235507   7.684   5.829   4.339 -0.2679 -0.2164  0.5499
11855TIP3    H135508   7.680   5.741   4.377 -0.8430 -0.3234  0.2415
11855TIP3    H235509   7.778   5.845   4.326 -0.1971 -1.0233  0.0445
11856TIP3   OH235510   8.354   5.072   4.220  0.1641  0.4510 -1.0367
11856TIP3    H135511   8.266   5.035   4.219  0.1609  0.4686 -1.5189
11856TIP3    H235512   8.344   5.160   4.184  0.3838  0.4403 -1.1238
11857TIP3   OH235513   7.478   5.256   6.468 -0.0609  0.0905  0.4971
11857TIP3    H135514   7.538   5.209   6.411 -1.2961  0.7653 -1.4054
11857TIP3    H235515   7.497   5.222   6.556  0.4712 -2.4593 -0.5526
11858TIP3   OH235516   5.099   1.070   1.273 -0.3681  0.7979 -0.0390
11858TIP3    H135517   5.049   1.026   1.204 -1.3925  0.6559  0.7686
11858TIP3    H235518   5.175   1.106   1.229 -0.4932 -0.1538 -1.0681
11859TIP3   OH235519   0.014   6.332   4.567 -0.2418  0.0224  0.1875
11859TIP3    H135520   0.002   6.280   4.488 -0.1443 -0.5904  0.5661
11859TIP3    H235521   0.061   6.411   4.538  1.9074 -1.2713 -0.0105
11860TIP3   OH235522   7.864   5.105   5.267 -0.1752  0.0753  0.2863
11860TIP3    H135523   7.842   5.012   5.257  0.8413 -0.2273  0.7991
11860TIP3    H235524   7.871   5.118   5.361 -2.2328  1.1458  0.3140
11861TIP3   OH235525   1.491   6.000   5.896 -0.4859  0.1306  0.3483
11861TIP3    H135526   1.577   6.041   5.906  0.0127 -0.7210 -0.4060
11861TIP3    H235527   1.481   5.945   5.974 -0.7917  1.0031  0.9392
11862TIP3   OH235528   7.753   6.283   2.960 -0.4840  0.2662  0.1208
11862TIP3    H135529   7.749   6.361   2.905  0.3856  0.4132  0.2526
11862TIP3    H235530   7.671   6.237   2.943 -0.9688  1.1691 -0.0170
11863TIP3   OH235531   6.798   5.659   3.424 -0.4115  0.1496 -0.1054
11863TIP3    H135532   6.808   5.720   3.497 -0.7196 -0.2515  0.2656
11863TIP3    H235533   6.883   5.662   3.379 -0.7176  1.5699 -0.6466
11864TIP3   OH235534   4.709   0.565   6.683  0.4326  0.5068  0.2060
11864TIP3    H135535   4.615   0.570   6.700  0.3066 -0.2232 -0.2576
11864TIP3    H235536   4.723   0.622   6.607  0.4972  1.2829  0.8042
11865TIP3   OH235537   8.469   3.788   5.635  0.6413 -0.2548 -0.0395
11865TIP3    H135538   8.407   3.768   5.565  1.0946 -0.8526 -0.2675
11865TIP3    H235539   8.432   3.866   5.678  1.2345  1.1343 -2.0087
11866TIP3   OH235540   6.436   4.218   6.544  0.4666 -0.2769 -0.0117
11866TIP3    H135541   6.516   4.229   6.494  1.3958 -0.1112  1.4880
11866TIP3    H235542   6.407   4.129   6.522 -0.4156  0.5974 -2.6057
11867TIP3   OH235543   6.443   6.105   3.015 -0.4179  0.0321  0.9566
11867TIP3    H135544   6.509   6.067   3.072 -0.9287 -0.8192  0.9949
11867TIP3    H235545   6.486   6.111   2.929 -0.2146 -0.3152  1.0327
11868TIP3   OH235546   0.098   6.395   6.416  0.7045 -0.3508  0.1224
11868TIP3    H135547   0.036   6.449   6.367  0.2684  0.3812  1.4619
11868TIP3    H235548   0.157   6.458   6.458  1.5779 -0.9972 -0.1302
11869TIP3   OH235549   7.854   4.783   4.025  0.0908  0.3587  0.1215
11869TIP3    H135550   7.876   4.817   3.939  0.6399  0.8482  0.4496
11869TIP3    H235551   7.791   4.712   4.008 -1.0446  1.5043 -0.5701
11870TIP3   OH235552   8.476   5.811   3.381  0.2112  0.0759  0.3012
11870TIP3    H135553   8.384   5.812   3.353  0.4546 -0.2896 -0.5237
11870TIP3    H235554   8.515   5.884   3.334  0.5054 -0.2148  0.0942
11871TIP3   OH235555   1.519   7.598   0.141 -0.9092 -0.2964  0.3348
11871TIP3    H135556   1.521   7.600   0.237 -1.3258  0.2622  0.3321
11871TIP3    H235557   1.590   7.656   0.115 -0.0760 -1.3142  0.3018
11872TIP3   OH235558   7.760   3.654   2.554  0.4821  0.2197 -0.0409
11872TIP3    H135559   7.814   3.643   2.632 -0.1478 -1.3736  0.1889
11872TIP3    H235560   7.676   3.687   2.587  0.0819 -0.8347  0.0024
11873TIP3   OH235561   0.341   4.295   5.169 -0.5685  0.2338  0.5806
11873TIP3    H135562   0.301   4.236   5.233 -0.4999  1.1067  1.4540
11873TIP3    H235563   0.371   4.369   5.222  3.1602 -0.8584  0.0895
11874TIP3   OH235564   8.016   6.254   4.494  0.4781  0.3973  0.1516
11874TIP3    H135565   8.108   6.274   4.508  0.1408  0.1698  3.0403
11874TIP3    H235566   8.016   6.176   4.438  2.0383  0.5860 -0.1131
11875TIP3   OH235567   7.684   6.026   5.902  0.0765 -0.4761  0.1524
11875TIP3    H135568   7.757   6.087   5.902  0.3402 -0.7880 -0.7392
11875TIP3    H235569   7.625   6.060   5.835  0.2603 -1.2521 -0.3969
11876TIP3   OH235570   4.540   1.957   1.889  0.2767 -0.2165  0.1207
11876TIP3    H135571   4.598   1.938   1.815  1.1794  1.7659  0.2623
11876TIP3    H235572   4.600   1.982   1.960 -0.7257  1.8457  0.2769
11877TIP3   OH235573  -0.004   4.135   6.239  0.0411  0.2096  0.1728
11877TIP3    H135574   0.033   4.128   6.151 -1.0534 -2.4369 -0.1193
11877TIP3    H235575   0.072   4.137   6.297  0.7283 -2.6487 -0.5719
11878TIP3   OH235576   1.814   6.134   6.452  0.0059  0.2194  0.0062
11878TIP3    H135577   1.743   6.082   6.490  1.6027 -1.7726  0.3223
11878TIP3    H235578   1.889   6.118   6.508  1.3448  0.3996 -1.6942
11879TIP3   OH235579   0.302   6.769   4.880  0.1493 -0.3366  0.2212
11879TIP3    H135580   0.216   6.740   4.849  0.6526 -0.4265 -1.1175
11879TIP3    H235581   0.356   6.772   4.801  0.4367  3.0655  0.4481
11880TIP3   OH235582   8.031   6.044   3.446 -0.5083 -0.4436  0.1385
11880TIP3    H135583   7.970   6.000   3.506 -0.1958 -0.3704  0.5099
11880TIP3    H235584   8.100   6.077   3.503  1.2337 -2.7609 -0.5615
11881TIP3   OH235585   6.911   5.696   6.337 -0.0418 -0.0673 -0.0820
11881TIP3    H135586   6.913   5.614   6.287 -0.8667  1.2545 -2.3491
11881TIP3    H235587   6.818   5.710   6.356  0.2458 -0.4339  1.6491
11882TIP3   OH235588   7.942   4.669   4.701 -0.3123  0.2926 -0.1269
11882TIP3    H135589   7.993   4.746   4.727  0.8485 -0.4008 -0.2751
11882TIP3    H235590   7.904   4.692   4.616 -0.8845  1.1055  0.3402
11883TIP3   OH235591   8.191   5.244   3.948 -0.3474  0.0711 -0.3662
11883TIP3    H135592   8.097   5.235   3.931 -0.2377 -0.3827 -0.7544
11883TIP3    H235593   8.200   5.329   3.991 -0.8397  0.5224 -1.1395
11884TIP3   OH235594   0.536   5.633   5.873 -0.6524 -0.2973  0.4304
11884TIP3    H135595   0.470   5.679   5.822 -0.1180 -0.7656 -0.6884
11884TIP3    H235596   0.486   5.568   5.923 -0.8124 -2.3541 -2.3036
11885TIP3   OH235597   6.178   6.811   4.278  0.0920 -0.5775 -0.3402
11885TIP3    H135598   6.244   6.818   4.209  0.3232 -0.7773 -0.1423
11885TIP3    H235599   6.177   6.898   4.318 -1.1705  0.0081 -1.6061
11886TIP3   OH235600   7.735   5.763   6.242 -0.0826 -0.3961 -0.3974
11886TIP3    H135601   7.756   5.761   6.149  0.8984  0.1051 -0.1961
11886TIP3    H235602   7.645   5.731   6.248 -0.0814 -0.5949 -1.4964
11887TIP3   OH235603   4.869   1.129   1.588 -0.0679  0.5015  0.2420
11887TIP3    H135604   4.860   1.222   1.568 -0.2056  0.6493  0.9968
11887TIP3    H235605   4.864   1.086   1.503  0.1147  1.1915 -0.1226
11888TIP3   OH235606   0.826   3.839   4.854 -0.2702 -0.2534  0.0244
11888TIP3    H135607   0.804   3.816   4.944 -0.6355 -0.1886 -0.0460
11888TIP3    H235608   0.792   3.928   4.843  0.6466  0.1171  0.1274
11889TIP3   OH235609   5.032   0.999   0.687 -0.4658  0.5261  0.2432
11889TIP3    H135610   5.103   1.022   0.747  0.5072  2.0565 -1.4219
11889TIP3    H235611   4.984   0.929   0.731  1.8555 -0.2826  1.5819
11890TIP3   OH235612   8.268   6.225   4.622 -0.4133 -0.0427  0.0370
11890TIP3    H135613   8.258   6.242   4.716  0.7410 -1.7761  0.4960
11890TIP3    H235614   8.345   6.276   4.597  0.8575 -1.6494  0.6170
11891TIP3   OH235615   7.697   3.599   6.678 -0.2345 -0.4968 -0.4056
11891TIP3    H135616   7.740   3.518   6.651 -2.4980 -1.5544 -0.9346
11891TIP3    H235617   7.605   3.586   6.656 -1.2327  0.8193  2.7256
11892TIP3   OH235618   1.567   5.550   5.899 -0.1600 -0.3147  0.7409
11892TIP3    H135619   1.541   5.601   5.975 -0.9131 -1.4777  1.2917
11892TIP3    H235620   1.647   5.591   5.868  0.5751 -0.2895  2.6241
11893TIP3   OH235621   6.078   6.701   5.125  0.5106  0.1406 -0.3820
11893TIP3    H135622   6.116   6.618   5.095  1.8329  1.1149 -1.4718
11893TIP3    H235623   6.008   6.675   5.184  2.0643 -1.7468  0.6918
11894TIP3   OH235624   1.257   6.065   3.324  0.1850 -0.0634 -0.2669
11894TIP3    H135625   1.171   6.099   3.302  0.1907  0.4170  0.4549
11894TIP3    H235626   1.318   6.134   3.299  0.3116 -0.1388 -0.1694
11895TIP3   OH235627   5.300   5.567   4.204  0.0403 -0.3459 -0.7392
11895TIP3    H135628   5.216   5.612   4.197  0.0340 -0.2953 -0.3593
11895TIP3    H235629   5.338   5.573   4.117  1.6983  3.5989  0.1651
11896TIP3   OH235630   7.144   5.838   6.518 -0.3620  0.0458 -0.4777
11896TIP3    H135631   7.153   5.924   6.559  2.8458 -0.0215 -0.9274
11896TIP3    H235632   7.103   5.783   6.585 -0.7488  1.4597  0.4576
11897TIP3   OH235633   7.240   5.597   2.764 -0.1436 -0.2744 -0.3591
11897TIP3    H135634   7.164   5.654   2.769  0.6550  0.9309 -1.6273
11897TIP3    H235635   7.313   5.655   2.744  1.0360 -1.4787  0.3151
11898TIP3   OH235636   6.539   4.429   3.355 -0.3911 -0.3502 -0.1015
11898TIP3    H135637   6.491   4.444   3.436  1.0678 -0.0586  0.7219
11898TIP3    H235638   6.475   4.445   3.286 -0.9823  1.8311  0.9339
11899TIP3   OH235639   0.153   3.432   5.484 -0.6970  0.8325  0.4820
11899TIP3    H135640   0.133   3.455   5.393 -1.1620  1.5647  0.7617
11899TIP3    H235641   0.211   3.357   5.478 -0.4932  1.0592 -0.4296
11900TIP3   OH235642   4.841   6.162   5.277  0.4792 -0.1772  0.2878
11900TIP3    H135643   4.877   6.083   5.236  0.9544 -0.6648  1.6088
11900TIP3    H235644   4.764   6.131   5.325  1.4596 -0.0986  1.9401
11901TIP3   OH235645   4.106   0.246   0.032 -0.1377  0.4448 -0.2637
11901TIP3    H135646   4.056   0.270   0.110 -1.1002  0.1319 -0.7747
11901TIP3    H235647   4.110   0.150   0.035 -0.9200  0.3771 -1.0367
11902TIP3   OH235648   7.045   5.180   5.937 -0.5665  0.2788 -0.4202
11902TIP3    H135649   7.112   5.248   5.932  0.4413 -0.8278 -2.6133
11902TIP3    H235650   6.964   5.225   5.912 -0.4135  1.3090  0.8958
11903TIP3   OH235651   8.400   6.757   5.604 -0.1672  0.3000 -0.1319
11903TIP3    H135652   8.381   6.710   5.523 -1.7447 -1.2832  1.1264
11903TIP3    H235653   8.444   6.693   5.659  1.1892  1.4611  0.1913
11904TIP3   OH235654   6.821   2.641   6.730 -0.1615  0.2635  0.3574
11904TIP3    H135655   6.879   2.715   6.716  0.9051 -0.4878  0.7075
11904TIP3    H235656   6.833   2.618   6.822  1.2803 -1.7533 -0.2685
11905TIP3   OH235657   6.775   5.937   6.080 -0.3853 -0.5635  0.1005
11905TIP3    H135658   6.792   5.846   6.055  2.0081  0.4093 -2.0347
11905TIP3    H235659   6.712   5.969   6.015 -1.0669 -0.5945  0.7285
11906TIP3   OH235660   2.920   6.206   0.072  0.0749 -0.1567 -0.0256
11906TIP3    H135661   2.957   6.141   0.012  1.4084 -1.3921  2.0844
11906TIP3    H235662   2.981   6.280   0.067  0.5628 -0.5308  0.2910
11907TIP3   OH235663   5.281   6.680   5.986  0.0842 -0.1611  0.5301
11907TIP3    H135664   5.303   6.587   5.991 -1.5662 -0.5610  0.4809
11907TIP3    H235665   5.358   6.724   6.022  1.5217 -1.4534 -0.8905
11908TIP3   OH235666   6.305   7.277   2.577 -0.4228  0.0393 -0.5508
11908TIP3    H135667   6.274   7.359   2.539  0.7306 -0.4790 -2.7177
11908TIP3    H235668   6.397   7.294   2.599 -0.7569 -0.0382  0.9242
11909TIP3   OH235669   6.052   8.015   4.315 -0.3695  0.0169 -0.4480
11909TIP3    H135670   5.986   8.057   4.259  0.1669  0.8591 -0.4583
11909TIP3    H235671   6.067   7.930   4.274 -0.8386  0.1567 -0.9260
11910TIP3   OH235672   1.183   5.348   3.951 -0.0690 -0.1529 -0.2135
11910TIP3    H135673   1.269   5.314   3.977  0.3179  0.0053 -1.2719
11910TIP3    H235674   1.179   5.333   3.857 -1.2530 -0.2518 -0.1537
11911TIP3   OH235675   4.789   3.085   1.456 -0.5704 -0.1486 -0.2969
11911TIP3    H135676   4.863   3.024   1.454 -2.0071 -1.9035 -1.5300
11911TIP3    H235677   4.793   3.124   1.543  1.2364 -0.9356 -0.0008
11912TIP3   OH235678   7.422   6.468   5.266  0.3976 -0.2152 -0.4555
11912TIP3    H135679   7.422   6.379   5.302  0.1918 -0.2987 -0.6616
11912TIP3    H235680   7.503   6.473   5.215  0.7157 -0.0803  0.0581
11913TIP3   OH235681   7.551   5.018   4.545  0.2438  0.2762  0.6326
11913TIP3    H135682   7.537   5.078   4.472  0.0844 -0.4742  0.0463
11913TIP3    H235683   7.641   4.988   4.535  0.3259  0.4104  0.9300
11914TIP3   OH235684   6.999   7.173   2.974 -0.3270 -0.1431 -0.4701
11914TIP3    H135685   6.989   7.195   3.066  1.7884  0.4284 -0.3651
11914TIP3    H235686   6.993   7.256   2.928 -3.5290 -0.6505 -1.0740
11915TIP3   OH235687   7.084   6.443   6.489  0.1498  1.1258 -0.2853
11915TIP3    H135688   7.116   6.532   6.505 -1.0020  2.0365 -2.7878
11915TIP3    H235689   7.158   6.399   6.446  0.8414  0.7328  1.2593
11916TIP3   OH235690   7.822   4.577   6.876 -0.0474 -0.6008 -0.2385
11916TIP3    H135691   7.765   4.640   6.920  0.4011  0.4446 -1.1156
11916TIP3    H235692   7.808   4.494   6.922  0.9251  0.6040  2.3320
11917TIP3   OH235693   8.112   4.418   4.760  0.0678 -0.0923  0.3288
11917TIP3    H135694   8.111   4.395   4.853 -1.9529 -0.9090  0.1135
11917TIP3    H235695   8.061   4.498   4.754 -1.6468 -1.2153 -0.3638
11918TIP3   OH235696   8.385   5.253   5.150 -0.0271 -0.4267 -0.4707
11918TIP3    H135697   8.480   5.254   5.159 -0.0957  0.5591  0.1831
11918TIP3    H235698   8.369   5.198   5.073  1.0268 -1.2383 -0.1255
11919TIP3   OH235699   5.981   5.271   5.772 -0.3602 -0.4462 -0.5120
11919TIP3    H135700   6.001   5.200   5.711  0.3472  0.2541 -1.1170
11919TIP3    H235701   6.016   5.241   5.856  0.6945 -0.4659 -0.9469
11920TIP3   OH235702   8.018   5.856   5.469  0.0263  0.0715  0.3210
11920TIP3    H135703   8.048   5.790   5.407 -1.0071  0.7645 -0.9429
11920TIP3    H235704   8.091   5.918   5.476 -0.2956  0.6315 -1.1285
11921TIP3   OH235705   7.518   5.228   2.779 -0.0467 -0.0904  0.4900
11921TIP3    H135706   7.441   5.242   2.724 -0.2618 -2.7531  0.0699
11921TIP3    H235707   7.586   5.198   2.719  0.4105 -0.7343  1.3162
11922TIP3   OH235708   7.183   4.310   3.515  0.1955  0.0015  0.7286
11922TIP3    H135709   7.211   4.401   3.512 -1.0773  0.4397  1.7373
11922TIP3    H235710   7.195   4.278   3.425 -0.1291  1.4038  0.1674
11923TIP3   OH235711   7.137   4.129   5.171  0.4829 -0.1543  0.0203
11923TIP3    H135712   7.165   4.121   5.262 -0.1402  1.0597  0.3289
11923TIP3    H235713   7.046   4.158   5.176  0.2039 -0.8032 -0.9898
11924TIP3   OH235714   7.764   3.297   5.353  0.2048 -0.1215  0.0165
11924TIP3    H135715   7.830   3.362   5.378 -0.6105  0.1787  1.4689
11924TIP3    H235716   7.703   3.296   5.427 -1.2649 -0.5915 -1.1733
11925TIP3   OH235717   7.717   5.328   3.719  0.0516 -0.2462 -0.2842
11925TIP3    H135718   7.629   5.363   3.733 -0.0565 -0.4817 -0.3701
11925TIP3    H235719   7.743   5.293   3.804  0.4197  0.6288 -0.0370
11926TIP3   OH235720   7.716   6.870   3.336 -0.3252 -0.4499 -0.1503
11926TIP3    H135721   7.673   6.892   3.254 -0.1756  0.6959  0.0577
11926TIP3    H235722   7.679   6.932   3.400  1.2931  0.2836  0.1130
11927TIP3   OH235723   0.306   3.094   5.087  0.4150  0.3871  0.6052
11927TIP3    H135724   0.222   3.122   5.124  0.7381 -1.2766  2.7000
11927TIP3    H235725   0.282   3.044   5.009 -0.4398  1.3611  0.2321
11928TIP3   OH235726   7.950   3.991   6.689 -0.1484 -0.3687  0.2693
11928TIP3    H135727   8.030   3.975   6.638 -0.3767  0.4912 -0.3657
11928TIP3    H235728   7.887   3.928   6.654  0.8673 -2.6293  2.2961
11929TIP3   OH235729   7.319   5.775   2.378 -0.3148  0.4120 -0.0390
11929TIP3    H135730   7.405   5.792   2.340 -0.4289 -0.9283 -0.9216
11929TIP3    H235731   7.260   5.771   2.302 -0.9626  0.1994  0.4749
11930TIP3   OH235732   0.145   6.954   6.860  0.2999  0.5124  0.2650
11930TIP3    H135733   0.220   6.935   6.917  0.0549  1.1820  0.8216
11930TIP3    H235734   0.156   6.896   6.786  0.0560 -1.1324  1.4980
11931TIP3   OH235735   1.568   6.673   6.274 -0.1517 -0.2634  0.0936
11931TIP3    H135736   1.528   6.724   6.345 -1.1313 -1.9505  0.7833
11931TIP3    H235737   1.570   6.583   6.307  1.3829 -0.7270 -1.1762
11932TIP3   OH235738   0.932   6.625   5.610  0.5000  0.9306 -0.4209
11932TIP3    H135739   0.877   6.625   5.532  1.2257  2.9002 -0.9486
11932TIP3    H235740   0.881   6.672   5.675  0.2836  0.0849  0.0317
11933TIP3   OH235741   8.247   5.569   6.446 -0.4713 -0.2489 -0.5261
11933TIP3    H135742   8.187   5.525   6.507  1.2624 -1.3648  0.4133
11933TIP3    H235743   8.239   5.662   6.469  1.9505 -0.8448  3.1520
11934TIP3   OH235744   0.187   6.357   5.166  0.0659 -0.4397 -0.1470
11934TIP3    H135745   0.276   6.391   5.152 -0.1314 -0.1495 -0.7300
11934TIP3    H235746   0.181   6.344   5.261  0.0001  1.5781  0.1543
11935TIP3   OH235747   1.376   6.369   5.494 -0.0858  0.2342 -0.5283
11935TIP3    H135748   1.441   6.354   5.562  0.2081 -3.7133 -1.5516
11935TIP3    H235749   1.423   6.413   5.424  0.7803 -0.0183 -0.1051
11936TIP3   OH235750   2.089   3.895   5.686 -0.2641 -0.1389 -0.0112
11936TIP3    H135751   2.104   3.828   5.753 -0.1563  0.6758  0.7732
11936TIP3    H235752   2.005   3.934   5.710  0.9670  1.8842  1.1124
11937TIP3   OH235753   0.179   4.635   6.685 -0.0740 -0.1335 -0.1927
11937TIP3    H135754   0.218   4.723   6.682 -0.3836 -0.0470 -2.0466
11937TIP3    H235755   0.095   4.644   6.641  0.7723 -1.7849 -2.1983
11938TIP3   OH235756   0.964   7.521   6.705  0.1921  0.4604  0.5863
11938TIP3    H135757   0.987   7.496   6.616 -0.7559 -0.5105  0.6013
11938TIP3    H235758   0.937   7.612   6.699 -0.6468  0.1628 -0.2587
11939TIP3   OH235759   1.393   6.013   5.633 -0.2621 -0.1527 -0.2517
11939TIP3    H135760   1.425   6.000   5.722 -1.7126 -1.5854  0.0772
11939TIP3    H235761   1.466   6.054   5.587  0.5721  0.4292  1.5398
11940TIP3   OH235762   1.629   4.664   4.426  0.2898  0.3678  0.2663
11940TIP3    H135763   1.686   4.640   4.500  1.7064  0.5929 -0.7458
11940TIP3    H235764   1.545   4.623   4.447  1.7266 -2.7584  0.2048
11941TIP3   OH235765   2.457   7.086   5.899 -0.1188 -0.0992  0.3674
11941TIP3    H135766   2.434   7.174   5.870 -1.8867 -0.9541 -0.8985
11941TIP3    H235767   2.539   7.067   5.852 -1.2821 -0.2445 -1.6712
11942TIP3   OH235768   7.136   1.828   0.891  0.0738 -0.6023 -0.1296
11942TIP3    H135769   7.059   1.773   0.906 -0.6810  0.6609  0.7246
11942TIP3    H235770   7.144   1.880   0.972  0.7117  0.6057 -0.9555
11943TIP3   OH235771   0.890   3.447   0.782 -0.1272  0.6329  0.1396
11943TIP3    H135772   0.947   3.489   0.717  0.2968 -0.5554 -0.2610
11943TIP3    H235773   0.805   3.440   0.739 -0.3115  1.4489  0.3590
11944TIP3   OH235774   0.573   6.016   5.563 -0.1758 -0.0778  0.4647
11944TIP3    H135775   0.566   5.981   5.475 -0.1567 -1.6826  1.0829
11944TIP3    H235776   0.572   6.111   5.552  0.4140 -0.2725 -1.2977
11945TIP3   OH235777   0.820   5.373   6.620 -0.1687 -0.2214 -0.4426
11945TIP3    H135778   0.874   5.321   6.679 -0.1991 -1.2556 -1.3093
11945TIP3    H235779   0.875   5.448   6.597  0.4374 -0.6386 -0.3599
11946TIP3   OH235780   2.282   0.950   5.855 -0.1409 -0.1924  0.4359
11946TIP3    H135781   2.214   0.885   5.835  0.6164 -0.8866  0.0892
11946TIP3    H235782   2.273   0.966   5.949  1.0559 -2.4349  0.9781
11947TIP3   OH235783   1.699   6.982   5.203  0.3715 -0.2143  0.1178
11947TIP3    H135784   1.655   6.903   5.236 -1.0552 -0.5385 -2.4811
11947TIP3    H235785   1.632   7.050   5.206  1.4672  0.8370  1.8976
11948TIP3   OH235786   7.436   6.447   4.707 -0.2224 -0.5480 -0.0361
11948TIP3    H135787   7.530   6.469   4.708 -0.0412 -1.2279 -1.5930
11948TIP3    H235788   7.433   6.357   4.674 -1.3711 -0.8379  0.8436
11949TIP3   OH235789   0.718   6.440   5.222 -0.2120  0.2011 -0.8728
11949TIP3    H135790   0.789   6.503   5.211  0.0354  0.4866  2.0772
11949TIP3    H235791   0.755   6.357   5.190 -0.0035  1.1580 -3.2572
11950TIP3   OH235792   7.986   1.474   0.646 -0.3374  0.4948  0.4358
11950TIP3    H135793   8.032   1.414   0.704 -1.2620 -0.1509  0.5225
11950TIP3    H235794   7.934   1.417   0.589  0.4713  1.1294 -0.9497
11951TIP3   OH235795   0.210   4.559   5.329  0.1746 -0.2103  0.1861
11951TIP3    H135796   0.258   4.583   5.250 -1.0429  0.1680 -0.4625
11951TIP3    H235797   0.132   4.615   5.328  0.0841 -0.2780  1.6003
11952TIP3   OH235798   1.194   4.931   4.480  0.0574  0.4438 -0.0547
11952TIP3    H135799   1.279   4.951   4.440 -0.2125  0.9216 -0.3992
11952TIP3    H235800   1.212   4.927   4.574  0.4235  0.7865 -0.1073
11953TIP3   OH235801   2.655   5.475   5.957  0.6281 -0.1165  0.0740
11953TIP3    H135802   2.713   5.495   5.883 -0.4399 -0.3532 -0.8359
11953TIP3    H235803   2.602   5.554   5.968 -0.2141 -0.6124 -0.3620
11954TIP3   OH235804   1.617   5.143   5.459  0.3582 -0.4018 -0.1306
11954TIP3    H135805   1.651   5.055   5.442  0.4747 -0.1984 -0.9540
11954TIP3    H235806   1.639   5.193   5.381  1.6549  0.7779  0.9551
11955TIP3   OH235807   0.585   3.274   1.032  0.3019  0.7721  0.2848
11955TIP3    H135808   0.653   3.298   1.095 -0.5081  1.5687  0.8575
11955TIP3    H235809   0.574   3.352   0.978 -0.8088  0.9533  0.7685
11956TIP3   OH235810   0.549   6.380   6.630  0.1314 -0.1254 -0.1947
11956TIP3    H135811   0.548   6.446   6.560 -2.4747  0.6556  0.5417
11956TIP3    H235812   0.571   6.429   6.709 -0.5173 -0.3688  0.1385
11957TIP3   OH235813   8.232   2.501   0.746 -0.5107 -0.5985  0.1602
11957TIP3    H135814   8.309   2.521   0.691 -0.7167 -0.6954 -0.1683
11957TIP3    H235815   8.203   2.415   0.714 -1.8772  0.2710 -0.9885
11958TIP3   OH235816   2.107   4.940   6.517  0.6220  0.4154 -0.3701
11958TIP3    H135817   2.144   4.905   6.598 -2.2090  1.0919  1.2914
11958TIP3    H235818   2.071   4.865   6.472  0.0567  0.3627  0.1709
11959TIP3   OH235819   7.862   2.533   0.502  1.0055  0.5116  0.2301
11959TIP3    H135820   7.826   2.510   0.587 -0.5362 -0.2529 -0.5942
11959TIP3    H235821   7.905   2.453   0.472 -0.2707  0.1113 -0.5925
11960TIP3   OH235822   2.497   6.435   6.143  0.0690  1.0713 -0.0796
11960TIP3    H135823   2.584   6.465   6.170  0.8642 -1.5882  0.3672
11960TIP3    H235824   2.440   6.455   6.218  0.6450  1.1867  0.3267
11961TIP3   OH235825   5.775   0.650   0.292 -0.0188  0.2663  0.1874
11961TIP3    H135826   5.686   0.632   0.321 -0.3592  1.5530  0.0039
11961TIP3    H235827   5.788   0.592   0.217 -0.0253 -1.2722  1.3717
11962TIP3   OH235828   7.299   2.674   0.793  0.2290 -0.3317 -0.7888
11962TIP3    H135829   7.257   2.593   0.765  0.4769 -0.1273 -1.7797
11962TIP3    H235830   7.388   2.647   0.816  1.1314  0.0561 -3.6292
11963TIP3   OH235831   1.821   4.677   6.588 -0.1829 -0.0975  0.5609
11963TIP3    H135832   1.732   4.678   6.625  0.0163  0.2045  1.0234
11963TIP3    H235833   1.813   4.729   6.508 -0.3055  0.3802  0.8777
11964TIP3   OH235834   6.976   2.588   0.511 -0.1610  0.2440 -0.3586
11964TIP3    H135835   6.945   2.590   0.602  0.9181  0.8864  0.0016
11964TIP3    H235836   7.025   2.506   0.504 -0.5259  0.0307 -0.4669
11965TIP3   OH235837   0.018   5.902   6.734  0.3313 -0.2673 -0.3441
11965TIP3    H135838   0.011   5.913   6.639  1.5456  0.9992 -0.3001
11965TIP3    H235839   0.105   5.865   6.748  0.9886  1.4988  0.4019
11966TIP3   OH235840   1.060   5.908   4.951 -0.8012 -0.2769  0.1986
11966TIP3    H135841   0.971   5.929   4.922 -0.8281  0.7472  0.9893
11966TIP3    H235842   1.075   5.965   5.026  0.5572 -0.3796  0.0288
11967TIP3   OH235843   7.583   2.004   0.454 -0.8141 -0.4182  0.4708
11967TIP3    H135844   7.634   1.999   0.373  1.1938  0.7375  1.6465
11967TIP3    H235845   7.615   1.932   0.508 -0.6050  0.1521  1.1138
11968TIP3   OH235846   3.319   6.898   6.544  0.3486 -0.0912 -0.1959
11968TIP3    H135847   3.357   6.868   6.462  0.5221  0.1182 -0.1943
11968TIP3    H235848   3.391   6.943   6.588 -0.1711  1.2429 -0.6684
11969TIP3   OH235849   3.633   4.918   5.349 -0.2286 -0.3283  0.2366
11969TIP3    H135850   3.648   4.846   5.287  1.1727 -1.2949  1.6617
11969TIP3    H235851   3.547   4.898   5.388 -0.5634 -0.3668 -0.5127
11970TIP3   OH235852   5.885   1.039   0.108  0.0212 -0.0838  0.0564
11970TIP3    H135853   5.962   0.995   0.143 -0.2885  0.4462  1.4174
11970TIP3    H235854   5.813   1.012   0.166 -1.0550 -1.4598 -1.8406
11971TIP3   OH235855   0.485   5.233   5.281 -0.2743  0.4060  0.1649
11971TIP3    H135856   0.468   5.202   5.192  0.6057  0.4428 -0.0237
11971TIP3    H235857   0.552   5.301   5.270 -0.6277  0.8575  0.7904
11972TIP3   OH235858   1.010   4.610   6.283 -0.4157 -0.4035 -0.1088
11972TIP3    H135859   1.012   4.662   6.203  1.7506  0.8458  0.7281
11972TIP3    H235860   1.095   4.567   6.287 -0.6846 -0.8425  1.2936
11973TIP3   OH235861   3.737   1.546   6.009  0.7080 -0.0074  0.0981
11973TIP3    H135862   3.683   1.549   5.930  0.3474 -0.7930  0.3096
11973TIP3    H235863   3.826   1.564   5.978  0.5779 -0.3749 -0.4957
11974TIP3   OH235864   0.355   4.947   4.489  0.0409 -0.1986  0.7915
11974TIP3    H135865   0.365   4.899   4.407  1.0861  0.4843  0.4985
11974TIP3    H235866   0.423   5.015   4.484 -1.7092  1.5916  0.9824
11975TIP3   OH235867   7.474   6.353   6.044  0.4394 -1.1140  0.0907
11975TIP3    H135868   7.451   6.302   6.122 -0.7610 -0.5931  0.0857
11975TIP3    H235869   7.449   6.443   6.066  2.4191 -0.5283  0.0487
11976TIP3   OH235870   6.531   3.737   3.433  0.2189  0.0191 -0.4640
11976TIP3    H135871   6.594   3.669   3.457 -1.4551 -1.0837  0.9277
11976TIP3    H235872   6.522   3.789   3.513 -0.8344  0.0023 -0.5747
11977TIP3   OH235873   7.997   5.257   6.773  0.2482 -0.4749  0.0536
11977TIP3    H135874   7.918   5.273   6.721 -1.3809 -2.3339  1.8604
11977TIP3    H235875   8.058   5.217   6.712 -0.6270 -0.1458 -1.0759
11978TIP3   OH235876   1.354   3.876   4.081 -0.2400  0.0936 -0.1104
11978TIP3    H135877   1.314   3.808   4.027 -0.5071 -0.5429  0.8720
11978TIP3    H235878   1.353   3.954   4.026 -1.4896 -0.2827 -0.6354
11979TIP3   OH235879   2.038   6.458   6.240  0.3287 -0.8015  0.1284
11979TIP3    H135880   2.074   6.450   6.329 -1.4894  0.0579  0.9642
11979TIP3    H235881   1.979   6.384   6.231  1.2061 -1.4054 -0.7196
11980TIP3   OH235882   1.289   6.295   6.527 -0.5409  0.3565 -0.3519
11980TIP3    H135883   1.232   6.364   6.559  1.5250  1.7567  0.4618
11980TIP3    H235884   1.299   6.235   6.601 -1.3902 -0.1941 -0.6779
11981TIP3   OH235885   0.261   1.824   0.221  0.7756  0.4256  0.5077
11981TIP3    H135886   0.285   1.762   0.290 -0.6699  0.6257  1.2009
11981TIP3    H235887   0.320   1.803   0.149  2.2375  0.1426  1.7586
11982TIP3   OH235888   7.886   5.702   4.048  0.1538  0.0724  0.8504
11982TIP3    H135889   7.933   5.655   3.979 -1.8697  0.8528 -1.1193
11982TIP3    H235890   7.952   5.716   4.116  1.6122 -2.7218  0.1001
11983TIP3   OH235891   0.373   5.868   4.239 -0.0487 -0.7907 -0.1332
11983TIP3    H135892   0.422   5.856   4.158  1.0621 -0.4186  0.4739
11983TIP3    H235893   0.429   5.829   4.307 -1.6715 -2.5271  0.2545
11984TIP3   OH235894   1.773   5.486   6.667  0.3337 -0.2184 -0.3199
11984TIP3    H135895   1.707   5.553   6.683  1.4628  0.8190  0.0635
11984TIP3    H235896   1.845   5.533   6.624  0.0240 -1.6975 -2.5326
11985TIP3   OH235897   1.470   6.745   5.723  0.2771  0.0714 -0.3924
11985TIP3    H135898   1.393   6.689   5.714  2.1231 -2.4185 -1.2328
11985TIP3    H235899   1.454   6.796   5.802 -2.5135  0.0870 -0.9227
11986TIP3   OH235900   0.984   6.089   6.697  0.1146  0.5964 -0.1196
11986TIP3    H135901   0.912   6.058   6.751 -0.2949  1.3779 -0.2124
11986TIP3    H235902   1.030   6.152   6.752  0.7357  0.1044 -0.0620
11987TIP3   OH235903   6.720   2.142   0.483  0.1657  0.1598 -0.1231
11987TIP3    H135904   6.681   2.154   0.570  1.1317 -1.8479  0.6187
11987TIP3    H235905   6.789   2.077   0.496  1.6598  1.2937 -2.0273
11988TIP3   OH235906   0.470   4.952   5.165 -0.6466  0.0562 -0.4047
11988TIP3    H135907   0.500   4.914   5.247 -0.4289  0.9147 -0.0834
11988TIP3    H235908   0.391   4.902   5.143  0.1188 -1.1623 -0.4490
11989TIP3   OH235909   1.520   6.271   6.234  0.0991  0.2799 -0.1598
11989TIP3    H135910   1.493   6.327   6.161  0.8579  0.7578 -0.0804
11989TIP3    H235911   1.443   6.217   6.253  0.3330 -0.7665 -2.1605
11990TIP3   OH235912   0.097   5.811   5.620 -0.3236 -0.0725  0.6422
11990TIP3    H135913   0.049   5.890   5.596 -0.2667  0.2591  1.6265
11990TIP3    H235914   0.169   5.806   5.558 -0.0733  0.8829  0.8561
11991TIP3   OH235915   7.543   1.867   0.892  0.0599 -0.3937 -0.5662
11991TIP3    H135916   7.604   1.883   0.964 -0.8262 -1.0626  0.3543
11991TIP3    H235917   7.491   1.793   0.921 -2.3851  1.2750 -0.5492
11992TIP3   OH235918   3.656   7.763   0.048  0.0366 -0.2491 -0.4956
11992TIP3    H135919   3.571   7.770   0.004 -0.2292 -0.9242 -0.0815
11992TIP3    H235920   3.647   7.819   0.125  0.3672  0.6118 -1.0706
11993TIP3   OH235921   8.035   5.277   4.392 -0.4738  0.4340 -0.1491
11993TIP3    H135922   8.113   5.297   4.444 -0.8894 -0.0271  0.6577
11993TIP3    H235923   8.043   5.184   4.372 -0.7352  0.4236 -0.2072
11994TIP3   OH235924   0.873   5.463   3.789 -0.3597  0.1058  0.3745
11994TIP3    H135925   0.880   5.367   3.797 -3.3225 -0.2567 -0.7548
11994TIP3    H235926   0.847   5.492   3.875 -0.7638 -0.2483  0.3725
11995TIP3   OH235927   0.811   7.767   6.768  0.9008  0.0023 -0.6093
11995TIP3    H135928   0.765   7.810   6.840 -0.9754 -0.1393 -1.6997
11995TIP3    H235929   0.874   7.833   6.738  0.2615  0.8178 -0.1924
11996TIP3   OH235930   5.330   0.410   0.277  0.2534  0.2785 -0.1610
11996TIP3    H135931   5.300   0.351   0.346 -0.8168  1.2382  0.2236
11996TIP3    H235932   5.376   0.354   0.215 -2.8723 -1.3641 -1.0831
11997TIP3   OH235933   5.679   0.938   0.280 -0.2341 -0.0369  0.0590
11997TIP3    H135934   5.753   0.878   0.292  0.5055  0.6865 -0.7297
11997TIP3    H235935   5.604   0.892   0.317  0.7601 -0.4521  1.5899
11998TIP3   OH235936   4.161   1.387   5.481 -0.5451 -0.4942  0.0913
11998TIP3    H135937   4.201   1.449   5.542  0.8701 -0.6998 -0.6228
11998TIP3    H235938   4.108   1.441   5.423 -1.7398 -0.2714  1.3449
11999TIP3   OH235939   2.164   6.077   6.135  0.1984 -0.4535 -0.1352
11999TIP3    H135940   2.213   6.040   6.062  1.3804 -0.4037  0.6249
11999TIP3    H235941   2.203   6.038   6.213 -0.2664  0.3976  0.5337
12000TIP3   OH235942   7.837   1.598   1.030 -0.0753 -0.7655  0.6069
12000TIP3    H135943   7.866   1.684   1.062  0.6708 -0.5177 -0.7008
12000TIP3    H235944   7.778   1.618   0.958 -2.1902 -1.3164  2.1229
12001TIP3   OH235945   8.518   5.329   2.807  0.9362  0.0764  0.4070
12001TIP3    H135946   8.513   5.281   2.890  0.5719 -0.0328  0.3222
12001TIP3    H235947   8.428   5.357   2.790  0.9985  0.0321  0.0056
12002TIP3   OH235948   1.544   7.025   6.432  0.0055 -0.0444  0.1064
12002TIP3    H135949   1.462   7.065   6.401 -1.6176 -1.1736  2.8257
12002TIP3    H235950   1.577   7.086   6.498 -0.0312 -0.8663  0.8928
12003TIP3   OH235951   8.223   3.772   6.210  0.0258  0.4373  0.7683
12003TIP3    H135952   8.319   3.777   6.211  0.0070  0.9107  0.5569
12003TIP3    H235953   8.197   3.840   6.148 -0.5351  1.8294  2.4946
12004TIP3   OH235954   1.844   4.856   6.391 -0.2358  0.5155  0.0371
12004TIP3    H135955   1.790   4.798   6.338 -0.5248  0.8333 -0.0193
12004TIP3    H235956   1.875   4.923   6.330  2.6139 -1.2798 -0.5652
12005TIP3   OH235957   0.821   1.280   1.062 -0.3217 -0.5467  0.0157
12005TIP3    H135958   0.902   1.327   1.047 -0.1293 -0.7616  0.3815
12005TIP3    H235959   0.848   1.196   1.098 -0.6845 -0.7747 -0.2377
12006TIP3   OH235960   1.102   4.839   6.867 -0.1376 -0.6238 -0.3666
12006TIP3    H135961   1.133   4.776   6.801 -0.9414 -0.2714 -1.0738
12006TIP3    H235962   1.182   4.882   6.898  0.3265 -1.3750 -0.5042
12007TIP3   OH235963   8.308   3.719   6.545 -0.0852  0.0446  0.2506
12007TIP3    H135964   8.359   3.775   6.488 -1.0664 -0.1033 -0.8009
12007TIP3    H235965   8.319   3.631   6.509 -0.1895 -0.1436  0.6703
12008TIP3   OH235966   2.640   4.929   6.321 -0.0549  0.1110 -0.1839
12008TIP3    H135967   2.667   5.012   6.284 -0.2410  0.6768  0.9266
12008TIP3    H235968   2.562   4.950   6.373  0.2010 -0.6567  0.5244
12009TIP3   OH235969   3.859   4.510   6.308  0.3358  0.5361 -1.0701
12009TIP3    H135970   3.836   4.489   6.217  0.3426  0.1462 -0.9828
12009TIP3    H235971   3.915   4.438   6.335 -0.3924  0.1952 -0.4618
12010TIP3   OH235972   2.778   7.829   1.292 -0.2433  0.5143 -0.0571
12010TIP3    H135973   2.773   7.839   1.197  0.6795  0.6114 -0.0959
12010TIP3    H235974   2.829   7.750   1.306 -0.8834  0.1648  0.3611
12011TIP3   OH235975   3.928   0.545   0.259 -0.3826 -0.2368 -0.1802
12011TIP3    H135976   4.020   0.553   0.284 -0.6531  0.8037  0.5406
12011TIP3    H235977   3.910   0.625   0.209 -0.9501 -0.3252 -0.1192
12012TIP3   OH235978   0.593   2.875   0.201 -0.1462 -0.2355 -0.1292
12012TIP3    H135979   0.498   2.880   0.193 -0.2813 -1.2723  0.7998
12012TIP3    H235980   0.622   2.831   0.121 -0.5200 -0.6804 -0.0195
12013TIP3   OH235981   0.068   3.744   0.610  0.4101 -0.3183  0.1780
12013TIP3    H135982   0.100   3.821   0.563 -0.4875  0.8137  1.3824
12013TIP3    H235983   0.116   3.744   0.692  0.6103 -1.2250  0.0729
12014TIP3   OH235984   0.716   2.287   0.954  0.0131  0.0780  0.3291
12014TIP3    H135985   0.805   2.316   0.973  0.1550  0.3685 -0.7813
12014TIP3    H235986   0.712   2.198   0.991  0.9928 -0.2250 -0.2681
12015TIP3   OH235987   1.282   6.115   5.386 -0.2609 -0.2026  0.0957
12015TIP3    H135988   1.297   6.199   5.431 -1.9206  0.0725  0.1829
12015TIP3    H235989   1.334   6.122   5.306 -0.0405  0.7401  0.3037
12016TIP3   OH235990   1.758   6.410   4.615  0.1089 -0.4941  0.3573
12016TIP3    H135991   1.814   6.366   4.551  1.5859  0.8614  0.6943
12016TIP3    H235992   1.804   6.491   4.635 -2.3039  0.9534  0.1744
12017TIP3   OH235993   2.729   6.311   5.954 -0.4557  0.1596 -0.4780
12017TIP3    H135994   2.771   6.384   6.000  0.0058 -0.5449  0.2318
12017TIP3    H235995   2.636   6.321   5.975 -0.6123  1.4377 -1.6597
12018TIP3   OH235996   7.526   3.400   0.222  0.7454  0.1938  0.2774
12018TIP3    H135997   7.523   3.305   0.237  0.4287  0.5489  2.6832
12018TIP3    H235998   7.436   3.423   0.200  0.5285  0.1266  1.0728
12019TIP3   OH235999   2.719   6.098   5.109  0.1126 -0.2599  0.0735
12019TIP3    H136000   2.755   6.054   5.186 -1.1904  0.3109  1.0262
12019TIP3    H236001   2.693   6.027   5.050  0.7394 -0.7031  0.3285
12020TIP3   OH236002   2.111   5.633   4.881 -0.1093  0.4920  0.1309
12020TIP3    H136003   2.139   5.546   4.854  0.5069  0.2361  1.5257
12020TIP3    H236004   2.025   5.645   4.839  0.7850  0.1222 -1.8405
12021TIP3   OH236005   2.018   5.813   6.068  0.1670 -0.1068  0.0323
12021TIP3    H136006   2.042   5.747   6.133 -0.1707 -1.7441 -1.4582
12021TIP3    H236007   1.976   5.883   6.119 -2.1060 -2.3408  1.3413
12022TIP3   OH236008   0.804   0.143   0.973  0.7177 -0.0151 -0.6457
12022TIP3    H136009   0.829   0.065   0.923  0.3330  1.5455 -3.3844
12022TIP3    H236010   0.764   0.201   0.908 -0.5764  1.7666  1.6785
12023TIP3   OH236011   0.346   3.203   1.414  0.8088 -0.6263 -0.1947
12023TIP3    H136012   0.274   3.230   1.356  0.6390 -0.3433  0.1471
12023TIP3    H236013   0.373   3.283   1.458  0.5445 -0.9513  0.5632
12024TIP3   OH236014   1.129   5.640   6.051 -0.5112  0.4420  0.4109
12024TIP3    H136015   1.088   5.725   6.068  0.4792  0.6564  1.8790
12024TIP3    H236016   1.163   5.613   6.136 -2.3272 -2.2607  0.3675
12025TIP3   OH236017   2.061   6.141   4.868  0.1708 -0.5123 -0.1814
12025TIP3    H136018   2.019   6.162   4.951 -0.4513 -2.2972 -0.0218
12025TIP3    H236019   2.126   6.075   4.890  1.0949  0.1646 -0.8695
12026TIP3   OH236020   1.101   5.667   4.759  0.0190 -0.2580 -0.0850
12026TIP3    H136021   1.040   5.692   4.829 -0.3534 -1.5410  0.0606
12026TIP3    H236022   1.131   5.750   4.723  0.3815  0.4359  1.7497
12027TIP3   OH236023   6.712   2.594   0.381  0.1394  0.1424  0.2231
12027TIP3    H136024   6.802   2.626   0.373  0.5710 -1.2740 -0.8033
12027TIP3    H236025   6.701   2.575   0.474  0.9584  0.1545  0.3279
12028TIP3   OH236026   1.632   1.655   0.178  0.3000 -0.0991  0.3187
12028TIP3    H136027   1.712   1.658   0.231  0.1075 -0.6714  0.6477
12028TIP3    H236028   1.574   1.719   0.219  0.7590  0.6542 -0.2020
12029TIP3   OH236029   4.238   5.489   6.726  0.5168 -0.0797 -0.1355
12029TIP3    H136030   4.300   5.473   6.797  1.0173  1.1801 -0.2838
12029TIP3    H236031   4.206   5.578   6.742  1.4498  0.6282 -2.1065
12030TIP3   OH236032   0.722   1.602   0.390  0.0177 -0.3120 -0.0344
12030TIP3    H136033   0.658   1.536   0.416 -0.0553  1.1500  3.9935
12030TIP3    H236034   0.805   1.568   0.422  0.5234 -0.0415 -1.0542
12031TIP3   OH236035   3.297   5.100   5.760 -0.1715  0.4295 -0.0199
12031TIP3    H136036   3.241   5.130   5.832  0.4042 -0.8863  0.9989
12031TIP3    H236037   3.253   5.021   5.728  0.5516 -0.0273  0.1080
12032TIP3   OH236038   5.517   0.103   6.800 -0.1965  0.5860 -0.1623
12032TIP3    H136039   5.443   0.051   6.832  0.2072  0.4531  0.5828
12032TIP3    H236040   5.508   0.187   6.845  0.2702  0.4621  0.1696
12033TIP3   OH236041   1.469   5.114   5.833 -0.2872  0.0884  0.3176
12033TIP3    H136042   1.520   5.120   5.913 -0.6429 -1.0957  0.6328
12033TIP3    H236043   1.385   5.155   5.855 -0.2022  0.2252  0.3884
12034TIP3   OH236044   2.050   6.648   4.942  0.2233 -0.0065 -0.3573
12034TIP3    H136045   1.999   6.568   4.953 -0.8951  0.6349 -0.8197
12034TIP3    H236046   2.015   6.709   5.007 -0.1717  0.7141 -1.2365
12035TIP3   OH236047   1.634   7.794   6.131  0.5224  0.4260 -0.2668
12035TIP3    H136048   1.694   7.864   6.106  0.3723  0.5921 -0.1576
12035TIP3    H236049   1.586   7.828   6.206 -0.6678  0.8184 -1.1847
12036TIP3   OH236050   7.219   4.283   3.250 -0.3374  0.4589  0.2231
12036TIP3    H136051   7.291   4.255   3.194 -0.3052 -3.0781  1.9166
12036TIP3    H236052   7.151   4.311   3.189  1.1736  0.5169 -1.4732
12037TIP3   OH236053   1.371   4.784   4.613 -0.4971  0.0257 -1.0416
12037TIP3    H136054   1.402   4.788   4.703 -0.4846 -0.1731 -1.0376
12037TIP3    H236055   1.337   4.695   4.603  0.5240 -0.3058 -1.5747
12038TIP3   OH236056   0.830   4.825   4.460  0.2574  0.1854  0.7499
12038TIP3    H136057   0.825   4.921   4.463  0.4591  0.1887  1.0076
12038TIP3    H236058   0.922   4.806   4.478  0.2740 -0.0445  0.4074
12039TIP3   OH236059   3.533   4.898   4.992 -0.2746 -0.5880  0.8252
12039TIP3    H136060   3.570   4.979   5.028  0.8047 -0.4667 -0.5018
12039TIP3    H236061   3.549   4.905   4.897 -3.0334 -0.9035  0.3106
12040TIP3   OH236062   5.594   0.104   0.491 -0.2618  0.6285 -0.5431
12040TIP3    H136063   5.666   0.054   0.454  0.7415  1.1303  0.6962
12040TIP3    H236064   5.565   0.160   0.419  0.4465  0.2749 -1.1116
12041TIP3   OH236065   6.901   2.104   0.982 -0.3634 -0.3361 -0.0210
12041TIP3    H136066   6.883   2.010   0.976 -1.6240 -0.1124  0.1199
12041TIP3    H236067   6.880   2.127   1.072  0.7237 -0.0744  0.1666
12042TIP3   OH236068   2.389   6.119   5.918  0.5058 -0.0661  0.7068
12042TIP3    H136069   2.374   6.212   5.936 -0.2482 -0.4715  2.3127
12042TIP3    H236070   2.345   6.103   5.835  0.4995  0.9805  0.5027
12043TIP3   OH236071   5.643   1.465   0.272 -0.5105  0.1500  0.4500
12043TIP3    H136072   5.591   1.388   0.292 -0.7993 -0.1442 -1.4002
12043TIP3    H236073   5.579   1.531   0.243  0.0044  0.1911 -0.6210
12044TIP3   OH236074   1.212   7.553   5.138 -0.4523  0.2782 -0.2200
12044TIP3    H136075   1.300   7.521   5.155 -0.6224  0.9889  2.2476
12044TIP3    H236076   1.197   7.535   5.046  1.7186 -1.1754 -0.3211
12045TIP3   OH236077   1.066   2.861   0.068  0.1746 -0.1390 -0.0689
12045TIP3    H136078   1.032   2.948   0.046  1.2941  0.0874 -0.8919
12045TIP3    H236079   1.152   2.856   0.026 -0.5800 -2.2858 -1.4543
12046TIP3   OH236080   1.563   6.887   6.055 -0.9004  0.1101 -0.2548
12046TIP3    H136081   1.588   6.968   6.099 -0.2851  0.2057 -0.7752
12046TIP3    H236082   1.558   6.822   6.125  5.3750 -1.0355 -0.6444
12047TIP3   OH236083   3.492   5.251   5.975  0.3276  0.1966  0.4254
12047TIP3    H136084   3.405   5.226   6.005  0.8723 -0.1361  1.7724
12047TIP3    H236085   3.476   5.305   5.898 -1.1868  1.9871  1.9121
12048TIP3   OH236086   4.599   6.515   6.368 -0.0442  0.1103  0.6226
12048TIP3    H136087   4.530   6.577   6.393  0.5073  1.2974 -0.7473
12048TIP3    H236088   4.679   6.553   6.403  0.1458 -0.4453  0.8003
12049TIP3   OH236089   1.985   6.083   5.670 -0.3090 -0.1207 -0.0718
12049TIP3    H136090   2.065   6.105   5.718  0.1315  0.7077 -1.1445
12049TIP3    H236091   1.992   5.990   5.651  0.7552  0.0964 -0.7794
12050TIP3   OH236092   2.346   5.973   6.326  0.5204 -0.2541  1.0042
12050TIP3    H136093   2.392   5.889   6.321 -0.5513 -0.8363  0.6979
12050TIP3    H236094   2.313   5.977   6.416  0.1392 -0.4008  0.8730
12051TIP3   OH236095   2.369   4.975   5.746  0.0617 -0.5877  0.4701
12051TIP3    H136096   2.305   5.045   5.756 -1.3345 -1.7414 -0.2690
12051TIP3    H236097   2.347   4.934   5.663  1.6951 -1.0795  0.2671
12052TIP3   OH236098   2.758   7.348   5.632 -0.5459  0.6750  0.2802
12052TIP3    H136099   2.714   7.414   5.579 -0.1789  0.3274 -0.4677
12052TIP3    H236100   2.834   7.393   5.668 -0.7267  0.8786  0.4047
12053TIP3   OH236101   1.812   6.733   5.701 -0.0812 -0.5177  0.3051
12053TIP3    H136102   1.787   6.684   5.779  0.2876  0.4034  1.0267
12053TIP3    H236103   1.898   6.770   5.723 -0.8116  1.3057  0.1964
12054TIP3   OH236104   3.186   3.515   5.639  0.5204 -0.2175  0.1626
12054TIP3    H136105   3.148   3.468   5.565 -2.3761  0.3668  1.2259
12054TIP3    H236106   3.115   3.570   5.672  3.0380  2.9343  0.6207
12055TIP3   OH236107   5.885   6.841   6.864 -0.1317  0.1894  0.5118
12055TIP3    H136108   5.924   6.906   6.805  2.1445 -1.7003 -0.1650
12055TIP3    H236109   5.844   6.777   6.805  1.2813 -1.1769  0.9614
12056TIP3   OH236110   0.839   0.662   1.523  0.4481 -0.2595  0.0456
12056TIP3    H136111   0.829   0.637   1.615 -3.0244 -3.5633 -1.0588
12056TIP3    H236112   0.790   0.744   1.515  2.0174  0.8412  1.3855
12057TIP3   OH236113   5.297   5.640   5.161 -0.2397  0.0614  0.3158
12057TIP3    H136114   5.362   5.696   5.119  0.1668 -0.1298  0.6897
12057TIP3    H236115   5.235   5.701   5.201  0.5677  0.2538  1.2982
12058TIP3   OH236116   2.514   3.122   5.982  0.1908 -0.0710 -0.6622
12058TIP3    H136117   2.573   3.135   5.909 -1.0960  1.0815 -1.5198
12058TIP3    H236118   2.461   3.202   5.985 -1.5150 -1.1890 -0.1121
12059TIP3   OH236119   3.072   7.124   6.377  0.5588  0.3496 -0.2070
12059TIP3    H136120   3.155   7.144   6.333  0.0174  0.0055 -1.3994
12059TIP3    H236121   3.022   7.073   6.312  0.1704 -1.0808  1.1795
12060TIP3   OH236122   2.050   1.737   0.601 -0.2203  0.2543  0.0439
12060TIP3    H136123   1.998   1.705   0.674  1.0181  0.4333  1.0181
12060TIP3    H236124   2.041   1.670   0.534 -0.6597 -0.3197  0.6707
12061TIP3   OH236125   8.266   0.738   0.327  0.2593  0.2112  0.1311
12061TIP3    H136126   8.351   0.708   0.359  0.0847 -0.9676 -0.4440
12061TIP3    H236127   8.204   0.709   0.394  0.2835  0.7700  0.3885
12062TIP3   OH236128   4.751   3.550   6.014  0.0291 -0.2050 -0.3343
12062TIP3    H136129   4.817   3.558   6.083  1.1725 -1.2186 -1.2794
12062TIP3    H236130   4.800   3.563   5.932 -0.8953 -1.1291 -1.0590
12063TIP3   OH236131   8.244   2.365   0.050  0.0730  0.2880 -0.7113
12063TIP3    H136132   8.230   2.447   0.001  1.0726 -0.7819 -2.8812
12063TIP3    H236133   8.338   2.365   0.070 -0.1159  0.1516  0.1758
12064TIP3   OH236134   3.208   3.220   5.780  0.3129  0.0266  0.2907
12064TIP3    H136135   3.118   3.216   5.813  0.3177 -0.2995  0.2641
12064TIP3    H236136   3.228   3.314   5.777  0.1032  0.0836  0.6479
12065TIP3   OH236137   2.010   3.142   2.204  0.3917 -0.0816 -0.7117
12065TIP3    H136138   1.923   3.182   2.200  0.3762 -0.0046  0.2845
12065TIP3    H236139   2.052   3.184   2.279  0.5421 -1.5863  0.0679
12066TIP3   OH236140   8.265   5.521   5.192  0.4214  0.4506 -0.5261
12066TIP3    H136141   8.237   5.557   5.108  0.6710  1.9157 -0.0057
12066TIP3    H236142   8.289   5.431   5.173  0.5713  0.7962 -2.0454
12067TIP3   OH236143   0.735   7.263   6.298 -0.1561  0.4756  0.2658
12067TIP3    H136144   0.688   7.233   6.376  1.9218 -1.0748  0.9980
12067TIP3    H236145   0.724   7.192   6.234  0.0409  0.6955 -0.0127
12068TIP3   OH236146   2.837   6.534   6.078 -0.1447  0.3100 -0.1840
12068TIP3    H136147   2.914   6.560   6.129  2.1757  1.0184 -3.8134
12068TIP3    H236148   2.804   6.617   6.042 -0.5330 -0.3408 -1.3571
12069TIP3   OH236149   4.425   5.301   5.188  0.4807  0.6032  0.1102
12069TIP3    H136150   4.404   5.333   5.100  0.1731  1.7849  0.6121
12069TIP3    H236151   4.367   5.225   5.200 -0.9659  1.6818  0.0913
12070TIP3   OH236152   8.217   4.922   6.411 -0.3468 -0.3289 -0.1789
12070TIP3    H136153   8.175   4.994   6.457 -1.4589 -1.4711  0.6428
12070TIP3    H236154   8.307   4.952   6.397 -0.3753  0.6317  1.4832
12071TIP3   OH236155   1.059   7.888   5.777 -0.0651  0.3607 -0.1992
12071TIP3    H136156   0.983   7.867   5.723  0.6285 -0.1601 -1.0091
12071TIP3    H236157   1.115   7.810   5.770  0.5060  0.7074  0.4311
12072TIP3   OH236158   1.307   7.633   5.842  0.1220 -0.1538 -0.3505
12072TIP3    H136159   1.249   7.557   5.849  1.3483 -1.0231  0.9134
12072TIP3    H236160   1.383   7.601   5.794  1.7297 -0.4699  2.2730
12073TIP3   OH236161   2.994   6.830   3.377  0.0763 -0.1562  0.0810
12073TIP3    H136162   3.004   6.916   3.417  1.3511 -0.8432  1.2648
12073TIP3    H236163   2.947   6.778   3.442 -1.1056 -0.2503 -0.8162
12074TIP3   OH236164   0.173   5.720   5.881 -0.3314  0.5451 -0.1608
12074TIP3    H136165   0.186   5.774   5.803 -0.3353 -0.0432 -0.5739
12074TIP3    H236166   0.169   5.783   5.953  4.7909  0.8986  0.0330
12075TIP3   OH236167   2.041   7.762   3.802  0.0640 -0.0031  0.3516
12075TIP3    H136168   2.071   7.671   3.800  0.0248 -0.0020 -0.9883
12075TIP3    H236169   2.039   7.788   3.710  0.8134  1.5975  0.7753
12076TIP3   OH236170   4.031   5.591   5.234 -0.1015 -0.0834  0.9324
12076TIP3    H136171   4.082   5.659   5.190 -0.2895  0.3328  1.3445
12076TIP3    H236172   4.007   5.530   5.165 -1.7716  1.4126  0.1399
12077TIP3   OH236173   3.022   3.709   6.095  0.3282  0.2101 -0.1649
12077TIP3    H136174   2.955   3.769   6.061  0.5646  0.1204 -0.8048
12077TIP3    H236175   3.102   3.736   6.050  0.3963 -0.7206 -0.6089
12078TIP3   OH236176   3.326   5.388   6.674 -0.3401  0.0192 -0.3313
12078TIP3    H136177   3.269   5.463   6.664  0.2857  0.7357  1.3596
12078TIP3    H236178   3.283   5.333   6.739  0.9692  0.6604  1.0979
12079TIP3   OH236179   1.131   4.377   5.135  0.0758 -0.2434  0.0965
12079TIP3    H136180   1.199   4.313   5.157 -1.8347 -1.8137  1.5060
12079TIP3    H236181   1.075   4.333   5.072  0.7914  1.3449 -1.7053
12080TIP3   OH236182   0.106   2.916   0.968  0.3159 -0.3003 -0.3654
12080TIP3    H136183   0.050   2.993   0.969  0.3525 -0.2687 -0.8439
12080TIP3    H236184   0.122   2.897   1.061  1.6823  1.2502 -0.2531
12081TIP3   OH236185   2.725   5.407   6.714  0.8698 -0.3238  0.3995
12081TIP3    H136186   2.796   5.437   6.770  1.2509  0.3722 -0.4400
12081TIP3    H236187   2.656   5.382   6.775  0.5639  2.1894  1.1500
12082TIP3   OH236188   5.640   5.885   5.832 -0.2473 -0.2677 -0.0864
12082TIP3    H136189   5.670   5.896   5.741  0.1344  1.1411  0.1980
12082TIP3    H236190   5.552   5.925   5.833 -0.6461 -1.1355 -0.0548
12083TIP3   OH236191   1.961   6.362   5.852  0.2901  0.0531 -0.2935
12083TIP3    H136192   1.916   6.435   5.893  1.3505 -0.3048  1.5683
12083TIP3    H236193   1.897   6.291   5.852  0.0145  0.2989  0.0428
12084TIP3   OH236194   3.639   0.175   4.964 -0.3529 -0.1040  0.3173
12084TIP3    H136195   3.589   0.253   4.939  0.1880  0.1631  0.0487
12084TIP3    H236196   3.618   0.162   5.056 -3.6842 -2.0979 -0.6587
12085TIP3   OH236197   2.163   7.707   5.474 -0.0708 -0.7258  0.1463
12085TIP3    H136198   2.147   7.644   5.544  1.3122 -0.3653  0.7942
12085TIP3    H236199   2.192   7.786   5.518  0.8551 -0.5030 -0.8316
12086TIP3   OH236200   6.109   1.576   0.659 -0.0310  0.5222  0.2385
12086TIP3    H136201   6.100   1.527   0.577 -2.2955  0.2396  0.6086
12086TIP3    H236202   6.084   1.666   0.636 -0.9520  0.3808  0.6688
12087TIP3   OH236203   2.738   7.626   5.521 -0.2653 -0.7717 -0.1610
12087TIP3    H136204   2.662   7.673   5.553  0.4027  1.0943 -1.1795
12087TIP3    H236205   2.795   7.617   5.597 -0.4530 -0.0026  0.0756
12088TIP3   OH236206   7.535   0.514   0.251 -1.1467  0.7266  0.0169
12088TIP3    H136207   7.513   0.576   0.321 -0.6690 -1.0498  1.7814
12088TIP3    H236208   7.611   0.553   0.207 -1.3774  1.7999  0.5612
12089TIP3   OH236209   3.879   7.580   5.946  0.5123 -0.5742 -0.2811
12089TIP3    H136210   3.846   7.630   6.021 -0.6308  0.5550 -1.4994
12089TIP3    H236211   3.973   7.569   5.964  0.1831 -0.6280  1.4745
12090TIP3   OH236212   3.673   6.488   4.789 -0.2171  0.2438 -0.1178
12090TIP3    H136213   3.596   6.447   4.827 -0.2242  0.5393  0.1884
12090TIP3    H236214   3.709   6.422   4.729 -0.1961 -0.2200  0.4094
12091TIP3   OH236215   7.291   1.201   1.238 -0.3134 -0.0320 -0.1653
12091TIP3    H136216   7.290   1.105   1.247  0.5592  0.0457  0.8169
12091TIP3    H236217   7.219   1.230   1.295  0.5000 -0.0041  0.8583
12092TIP3   OH236218   1.467   4.265   4.833 -0.3438 -0.2498 -0.0654
12092TIP3    H136219   1.453   4.358   4.851 -1.7179 -0.1274 -1.6455
12092TIP3    H236220   1.460   4.258   4.737 -1.5229 -2.1703  0.1442
12093TIP3   OH236221   0.107   3.965   0.438 -0.1953  0.8850  0.3027
12093TIP3    H136222   0.179   4.019   0.468 -0.0477  1.3537 -0.8716
12093TIP3    H236223   0.135   3.933   0.352 -0.5148 -0.6033  0.7258
12094TIP3   OH236224   3.153   7.301   6.024 -0.0052  0.4788  0.5256
12094TIP3    H136225   3.157   7.253   6.106  0.7534  1.4586  1.0823
12094TIP3    H236226   3.236   7.350   6.021  0.8245 -0.9829 -1.7249
12095TIP3   OH236227   5.838  -0.004   6.774 -0.3851  0.0940  0.1287
12095TIP3    H136228   5.796  -0.009   6.687  0.9373  1.4428 -0.6115
12095TIP3    H236229   5.791   0.067   6.818 -0.7157 -0.2499  0.3366
12096TIP3   OH236230   0.318   5.833   5.421  0.0120  0.1390 -0.3710
12096TIP3    H136231   0.337   5.840   5.327  0.9454  0.0257 -0.1923
12096TIP3    H236232   0.295   5.922   5.448  2.5157  0.7432 -0.1181
12097TIP3   OH236233   0.471   3.432   1.617 -0.1541  0.1147  0.4298
12097TIP3    H136234   0.508   3.479   1.542  0.0836 -0.9910 -0.1518
12097TIP3    H236235   0.377   3.448   1.611 -0.1609 -0.1491 -0.2397
12098TIP3   OH236236   1.076   7.197   6.270  0.1376  0.0135  0.1788
12098TIP3    H136237   1.062   7.278   6.320 -0.8822 -0.9087  1.4172
12098TIP3    H236238   1.049   7.219   6.181  1.4619  1.5240  0.1086
12099TIP3   OH236239   1.111   1.330   1.701 -0.9498 -0.2511  0.0176
12099TIP3    H136240   1.189   1.349   1.649 -0.4617 -4.0990 -0.8649
12099TIP3    H236241   1.144   1.317   1.790 -0.9656  0.6706  0.1605
12100TIP3   OH236242   6.768   1.590   1.397  0.1261  0.2612  0.0330
12100TIP3    H136243   6.710   1.535   1.345 -1.5101  1.1743  0.8543
12100TIP3    H236244   6.790   1.538   1.473 -0.5339  0.3296  0.2718
12101TIP3   OH236245   4.056   6.781   6.585  0.4970  0.3737  0.3269
12101TIP3    H136246   3.969   6.781   6.546  0.9567 -0.0558 -0.7009
12101TIP3    H236247   4.116   6.767   6.512  1.2269 -2.7705  1.4165
12102TIP3   OH236248   7.525   2.408   2.891 -0.0770  0.1775 -0.1457
12102TIP3    H136249   7.588   2.360   2.837 -0.2318  0.0670 -0.2292
12102TIP3    H236250   7.469   2.339   2.928  0.8225  0.1427  1.1786
12103TIP3   OH236251   4.708   7.106   5.657 -0.3880 -0.1297 -0.6477
12103TIP3    H136252   4.644   7.173   5.632 -1.2634 -0.2095  1.3229
12103TIP3    H236253   4.655   7.029   5.678  0.3256 -0.2135  0.9402
12104TIP3   OH236254   2.834   7.016   5.844  0.5174  0.0792 -0.4806
12104TIP3    H136255   2.780   7.031   5.766  1.2679 -0.5400 -1.1208
12104TIP3    H236256   2.796   7.074   5.910 -1.3219 -0.8011 -0.7314
12105TIP3   OH236257   0.897   4.359   6.329 -0.1536  1.0329 -0.3302
12105TIP3    H136258   0.901   4.304   6.251 -0.6313  1.5026 -0.6874
12105TIP3    H236259   0.931   4.443   6.301 -0.1394  1.1443  0.0169
12106TIP3   OH236260   2.836   6.114   4.441 -0.2705  0.4901 -0.3132
12106TIP3    H136261   2.890   6.181   4.400 -0.6556  0.3007 -1.1335
12106TIP3    H236262   2.756   6.160   4.467 -0.4411  0.3925 -0.6726
12107TIP3   OH236263   7.455   2.408   0.151  1.0399 -0.0909 -0.2899
12107TIP3    H136264   7.545   2.417   0.119  0.8487  0.9487 -0.5666
12107TIP3    H236265   7.463   2.377   0.241  1.6939  0.5593 -0.1238
12108TIP3   OH236266   5.449   5.452   5.037  0.0108  0.2594  0.1263
12108TIP3    H136267   5.398   5.503   5.100 -1.9998 -0.4586 -0.8602
12108TIP3    H236268   5.495   5.517   4.984  1.5244  0.8756  2.1508
12109TIP3   OH236269   2.786   2.955   0.912  0.1111  0.0687  0.4235
12109TIP3    H136270   2.870   2.998   0.895  0.4274 -1.1359 -1.1807
12109TIP3    H236271   2.732   2.978   0.837  0.2420 -2.1583 -0.4105
12110TIP3   OH236272   0.401   3.526   0.750 -0.3690  0.5463  0.1841
12110TIP3    H136273   0.444   3.441   0.745 -0.9651  0.2285  0.3450
12110TIP3    H236274   0.345   3.530   0.672  0.0595  1.0166 -0.1037
12111TIP3   OH236275   1.043   6.169   3.225  0.1924  0.1316  0.3664
12111TIP3    H136276   0.985   6.162   3.150  0.7150  2.3480 -0.2660
12111TIP3    H236277   1.008   6.241   3.277  1.4480  0.4487  0.8042
12112TIP3   OH236278   7.873   1.117   0.383 -0.0430  0.6747  0.0923
12112TIP3    H136279   7.952   1.157   0.345 -0.1503  1.4581  0.6959
12112TIP3    H236280   7.861   1.036   0.332  0.9128  0.7559 -0.2757
12113TIP3   OH236281   1.955   5.300   5.313  0.2419 -0.0922  0.0973
12113TIP3    H136282   1.948   5.248   5.392 -1.2585 -0.5431 -0.3185
12113TIP3    H236283   1.923   5.387   5.338 -1.6407 -0.6253 -0.3564
12114TIP3   OH236284   4.209   6.228   5.777 -0.6826 -0.0091  0.3997
12114TIP3    H136285   4.279   6.247   5.839  0.4710  0.8750 -1.1244
12114TIP3    H236286   4.246   6.161   5.719 -1.6727 -0.6951  0.5661
12115TIP3   OH236287   2.513   5.144   4.747  0.7684  0.0190 -0.6941
12115TIP3    H136288   2.459   5.156   4.825 -0.4398  0.3688 -1.5690
12115TIP3    H236289   2.603   5.153   4.778  0.2752  0.6629  0.5608
12116TIP3   OH236290   1.329   5.132   6.498 -0.2580 -0.5151 -0.6226
12116TIP3    H136291   1.344   5.160   6.588 -0.4123  0.9571 -1.0495
12116TIP3    H236292   1.415   5.106   6.466 -0.1521 -0.7384 -0.1673
12117TIP3   OH236293   2.902   5.399   4.868  0.1352  0.0480 -0.0421
12117TIP3    H136294   2.817   5.443   4.871  0.2659  0.2289  1.1529
12117TIP3    H236295   2.954   5.453   4.808 -0.2564  0.5385  0.0532
12118TIP3   OH236296   3.297   7.905   5.604  0.0574  0.2855  0.5431
12118TIP3    H136297   3.236   7.837   5.573  0.1406  0.0999  0.7910
12118TIP3    H236298   3.378   7.886   5.557 -0.3272  1.0693 -0.4684
12119TIP3   OH236299   2.851   7.033   6.240  0.3412  0.3812  0.5075
12119TIP3    H136300   2.826   7.078   6.159 -0.4301  0.7673  0.9543
12119TIP3    H236301   2.860   6.941   6.215 -0.4699  0.4078  0.1049
12120TIP3   OH236302   1.923   4.690   0.234 -0.3007  0.1438  0.4059
12120TIP3    H136303   1.857   4.636   0.278 -0.0399 -1.0195 -0.6193
12120TIP3    H236304   1.915   4.667   0.142 -1.0501  2.8024 -0.2271
12121TIP3   OH236305   1.739   7.607   6.378  0.0655  0.1960 -0.1703
12121TIP3    H136306   1.760   7.680   6.321 -0.3052 -0.0082 -0.5723
12121TIP3    H236307   1.752   7.641   6.467 -0.5408  0.8880 -0.3391
12122TIP3   OH236308   3.103   6.312   5.858  0.1258  0.2084 -0.7895
12122TIP3    H136309   3.153   6.248   5.808  1.1571  1.1284 -0.9384
12122TIP3    H236310   3.135   6.302   5.948 -1.0557 -0.7866 -0.4609
12123TIP3   OH236311   6.605   7.323   0.952 -0.0306 -0.0774  0.1608
12123TIP3    H136312   6.561   7.311   1.036 -0.2366  0.3703  0.1206
12123TIP3    H236313   6.600   7.237   0.910  1.6327 -0.7699  1.3410
12124TIP3   OH236314   0.695   2.406   1.412 -0.0631 -0.0809  0.2094
12124TIP3    H136315   0.691   2.469   1.484 -2.2341 -1.0177  0.9695
12124TIP3    H236316   0.631   2.438   1.349  0.1113 -0.5540 -0.2154
12125TIP3   OH236317   1.416   7.262   5.619 -0.5480 -0.1882  0.1281
12125TIP3    H136318   1.463   7.197   5.672  1.4891  0.0165 -1.3831
12125TIP3    H236319   1.441   7.346   5.657 -1.2472 -0.1562  0.5338
12126TIP3   OH236320   1.707   6.681   5.223  0.0722 -0.1771 -0.0803
12126TIP3    H136321   1.749   6.732   5.154 -0.7004 -0.4264 -0.7476
12126TIP3    H236322   1.778   6.656   5.281  0.8819 -0.8401 -1.3407
12127TIP3   OH236323   4.693   5.938   5.924 -0.5534 -0.4579 -0.0851
12127TIP3    H136324   4.729   5.970   6.007 -0.2140 -1.0301 -0.0121
12127TIP3    H236325   4.692   6.015   5.867  2.2463 -0.7806 -0.5930
12128TIP3   OH236326   1.162   7.778   6.790  0.3408 -0.4863 -0.5298
12128TIP3    H136327   1.103   7.757   6.718 -1.1191 -1.6291  0.9728
12128TIP3    H236328   1.182   7.871   6.778 -4.1237  0.7273  0.5899
12129TIP3   OH236329   2.579   1.287   0.025 -1.0754 -0.0782 -0.1640
12129TIP3    H136330   2.567   1.269   0.119 -0.4594  0.0603 -0.0570
12129TIP3    H236331   2.551   1.378   0.015 -3.5506 -0.8442 -0.5831
12130TIP3   OH236332   2.318   6.825   5.803  0.2503 -0.3058  0.1247
12130TIP3    H136333   2.382   6.756   5.818 -0.0187 -0.7652 -0.8043
12130TIP3    H236334   2.364   6.907   5.824  1.2482 -0.6008 -0.8752
12131TIP3   OH236335   3.915   6.198   5.727  0.4072 -0.7128 -0.2963
12131TIP3    H136336   4.009   6.204   5.743  0.3026 -1.7522  0.7802
12131TIP3    H236337   3.906   6.121   5.671  0.2721 -0.1175 -1.0989
12132TIP3   OH236338   0.601   1.144   0.557  0.3978  0.7812 -0.4323
12132TIP3    H136339   0.514   1.133   0.594  0.5420  0.1840 -0.2631
12132TIP3    H236340   0.661   1.117   0.627  0.6584 -0.6557 -1.1742
12133TIP3   OH236341   2.222   5.902   4.835 -0.4483  0.1670 -0.2355
12133TIP3    H136342   2.180   5.828   4.879  0.3413  0.1716  0.5403
12133TIP3    H236343   2.232   5.875   4.744 -0.6442 -0.4696 -0.0650
12134TIP3   OH236344   5.339   5.648   6.619 -0.0033  0.2856  0.0900
12134TIP3    H136345   5.367   5.657   6.528 -1.0110 -1.0342 -0.3679
12134TIP3    H236346   5.323   5.555   6.631  4.2464 -0.2325  2.8971
12135TIP3   OH236347   1.804   5.936   4.648  0.6710  0.2533  0.5238
12135TIP3    H136348   1.841   5.967   4.566 -1.8749 -0.4514 -0.9360
12135TIP3    H236349   1.769   6.015   4.690 -1.3559  0.1240 -0.8581
12136TIP3   OH236350   3.763   6.291   6.251  0.4325 -0.2882 -0.3903
12136TIP3    H136351   3.815   6.297   6.171  0.2553  0.1436 -0.4719
12136TIP3    H236352   3.796   6.362   6.306  1.7616 -1.6519  0.6248
12137TIP3   OH236353   1.999   1.657   1.030 -0.0715  0.3375  0.1641
12137TIP3    H136354   1.938   1.694   0.965  0.2524  0.4255 -0.0911
12137TIP3    H236355   1.944   1.639   1.106 -1.0237 -2.5281 -1.1467
12138TIP3   OH236356   8.483   2.128   0.842  0.3290 -0.1231 -0.0198
12138TIP3    H136357   8.551   2.061   0.841  1.3006  0.8668 -0.1072
12138TIP3    H236358   8.438   2.118   0.757  0.0518 -1.0711  0.2282
12139TIP3   OH236359   3.459   0.007   6.519 -0.3770  0.2722 -0.0433
12139TIP3    H136360   3.467   0.071   6.590  1.1016 -0.4556  0.4685
12139TIP3    H236361   3.366  -0.014   6.515 -0.2605 -0.9373  2.8000
12140TIP3   OH236362   2.435   5.299   3.139 -0.1098  0.1978  0.0869
12140TIP3    H136363   2.366   5.265   3.081  0.1223 -0.7889  0.3831
12140TIP3    H236364   2.478   5.367   3.087 -0.5527  0.0116 -0.5370
12141TIP3   OH236365   3.692   1.453   5.195  0.5821 -0.2776  0.0859
12141TIP3    H136366   3.609   1.409   5.174  1.6976 -3.1690  1.5219
12141TIP3    H236367   3.666   1.542   5.218 -2.2288 -1.3635  1.3153
12142TIP3   OH236368   2.959   1.066   6.687  0.7347 -0.2248  0.3619
12142TIP3    H136369   3.005   1.085   6.769 -0.2049  3.3070  0.1876
12142TIP3    H236370   2.995   1.129   6.625 -1.5040 -0.0324 -0.7994
12143TIP3   OH236371   1.435   6.383   2.489  0.0380  0.0791 -0.6536
12143TIP3    H136372   1.408   6.292   2.503  1.9635 -0.5611 -0.9134
12143TIP3    H236373   1.366   6.420   2.434 -0.9576 -1.1285 -0.2433
12144TIP3   OH236374   1.409   4.182   6.455 -0.0003  0.2471 -0.8101
12144TIP3    H136375   1.327   4.164   6.501  0.4155 -0.6477 -0.3961
12144TIP3    H236376   1.383   4.228   6.376 -0.8395  0.6582 -0.3034
12145TIP3   OH236377   4.444   7.443   6.655  0.6879  0.2472 -0.0074
12145TIP3    H136378   4.436   7.488   6.571  1.6508 -0.1146 -0.2943
12145TIP3    H236379   4.404   7.357   6.639  1.1762  0.0532 -0.1975
12146TIP3   OH236380   4.100   0.250   5.682 -0.4587  0.2643 -0.2435
12146TIP3    H136381   4.177   0.196   5.669 -0.4333  0.1534  0.3517
12146TIP3    H236382   4.075   0.279   5.594  1.4027  1.8878 -0.2766
12147TIP3   OH236383   3.327   6.438   6.298  0.3166 -0.4409 -0.8437
12147TIP3    H136384   3.255   6.417   6.358  0.2491 -0.0022 -0.7678
12147TIP3    H236385   3.333   6.362   6.240  1.9056 -1.9171  1.1807
12148TIP3   OH236386   5.670   4.783   4.443 -0.2181 -0.1405  0.0346
12148TIP3    H136387   5.645   4.696   4.476 -0.7428 -0.6993 -1.7277
12148TIP3    H236388   5.603   4.842   4.478 -0.8563 -0.7411 -0.1449
12149TIP3   OH236389   4.544   1.923   6.673 -0.0549 -0.0018  0.5485
12149TIP3    H136390   4.598   1.941   6.597  1.0721 -1.0936  1.0671
12149TIP3    H236391   4.552   2.002   6.727  0.5806  0.0738  0.3547
12150TIP3   OH236392   2.852   7.670   6.637  0.3665  0.3207 -0.3395
12150TIP3    H136393   2.834   7.700   6.726 -2.1519 -1.0570 -0.3515
12150TIP3    H236394   2.846   7.749   6.583 -2.2523  0.5152  0.1762
12151TIP3   OH236395   2.167   6.424   6.496  0.7809 -0.2838 -0.4729
12151TIP3    H136396   2.258   6.446   6.477  1.0967 -1.4250 -0.3356
12151TIP3    H236397   2.172   6.365   6.571 -0.0094 -1.1054 -1.0546
12152TIP3   OH236398   2.211   5.328   5.925 -0.7001  0.4048  0.0130
12152TIP3    H136399   2.165   5.270   5.864 -1.2401  0.2209  0.5817
12152TIP3    H236400   2.298   5.289   5.934 -0.8569  0.0307 -0.0865
12153TIP3   OH236401   1.382   4.012   1.163 -0.5106  0.1432 -0.0101
12153TIP3    H136402   1.326   4.089   1.150 -0.1216  0.5027  0.4412
12153TIP3    H236403   1.341   3.944   1.110 -1.0818  0.5517 -0.0997
12154TIP3   OH236404   2.045   3.673   5.836  0.2737 -0.2877 -0.3788
12154TIP3    H136405   1.966   3.622   5.820 -0.3871  0.6267 -0.0301
12154TIP3    H236406   2.063   3.659   5.929  0.3904 -0.3033 -0.4042
12155TIP3   OH236407   3.915   6.920   6.286 -0.4152  0.0383 -0.5787
12155TIP3    H136408   3.894   6.973   6.364 -0.7091  1.0655 -1.3341
12155TIP3    H236409   3.858   6.956   6.218  1.1118  0.3456 -1.7241
12156TIP3   OH236410   3.369   5.298   6.399 -0.1484 -0.0620 -0.2998
12156TIP3    H136411   3.320   5.334   6.473 -1.3598 -1.0532 -0.5987
12156TIP3    H236412   3.461   5.306   6.425 -0.5395  0.0511  1.1065
12157TIP3   OH236413   1.788   7.806   4.868  0.5584  0.5726 -0.4578
12157TIP3    H136414   1.880   7.793   4.889  0.4688  1.9030  0.8414
12157TIP3    H236415   1.780   7.899   4.850 -0.5279  0.4735 -0.5417
12158TIP3   OH236416   2.125   6.848   6.125 -0.6921  0.1311  0.0531
12158TIP3    H136417   2.184   6.923   6.133 -0.2966  0.2854 -3.6112
12158TIP3    H236418   2.038   6.887   6.122 -0.4259  0.5886 -2.9259
12159TIP3   OH236419   6.492   3.968   1.059 -0.0178 -1.1242 -0.2285
12159TIP3    H136420   6.481   3.876   1.032  0.8311 -1.0382 -0.8623
12159TIP3    H236421   6.460   3.969   1.149 -1.0593 -1.8154 -0.5646
12160TIP3   OH236422   3.959   4.561   5.073  0.1730 -0.0247  0.0041
12160TIP3    H136423   4.040   4.542   5.026  0.5136 -0.1490  0.6354
12160TIP3    H236424   3.982   4.553   5.165 -1.0325 -2.0306  0.1689
12161TIP3   OH236425   6.647   0.668   6.464  0.7985  0.2048 -0.0833
12161TIP3    H136426   6.685   0.695   6.548 -0.8506 -2.8031  1.7310
12161TIP3    H236427   6.556   0.695   6.470 -0.0520 -2.6123  0.3894
12162TIP3   OH236428   2.528   6.022   4.567  0.3480  1.0416  0.4845
12162TIP3    H136429   2.567   5.943   4.528  1.9394  2.3269 -0.5973
12162TIP3    H236430   2.437   6.020   4.538  0.2142 -0.7083  0.9648
12163TIP3   OH236431   3.769   5.502   5.718  0.2375  0.0097  1.0033
12163TIP3    H136432   3.761   5.414   5.681  0.1216 -0.0047  1.0633
12163TIP3    H236433   3.862   5.510   5.741  0.2040 -0.1798  1.2058
12164TIP3   OH236434   3.923   1.042   5.603  0.4230 -0.0264  0.3979
12164TIP3    H136435   4.015   1.057   5.582 -0.3616  0.4349 -3.1160
12164TIP3    H236436   3.878   1.118   5.565 -1.6362 -1.5492 -0.2828
12165TIP3   OH236437   1.836   5.623   6.320  0.1073 -0.0353 -0.6008
12165TIP3    H136438   1.773   5.560   6.355  1.6394 -0.3526  1.6804
12165TIP3    H236439   1.856   5.591   6.232 -2.1150 -0.4711 -0.9878
12166TIP3   OH236440   1.166   5.946   4.671 -0.6238  0.1958 -0.4998
12166TIP3    H136441   1.111   5.935   4.593 -2.5649 -2.0679  1.1054
12166TIP3    H236442   1.104   5.959   4.742  1.0819  0.8579  0.8839
12167TIP3   OH236443   1.460   2.445   0.742  0.5410 -0.1813  0.3492
12167TIP3    H136444   1.447   2.536   0.768  0.7553  0.5810 -2.0599
12167TIP3    H236445   1.414   2.394   0.809 -2.2156  1.8288  0.0675
12168TIP3   OH236446   3.613   5.724   6.898  0.1025 -0.3420 -0.2085
12168TIP3    H136447   3.523   5.741   6.926  0.3601 -1.1165  1.1058
12168TIP3    H236448   3.609   5.639   6.854  0.1400 -0.2557 -0.3782
12169TIP3   OH236449   4.225   5.965   6.420 -0.0576 -0.1870  0.0765
12169TIP3    H136450   4.180   5.888   6.455 -1.1349  1.5440  2.7176
12169TIP3    H236451   4.316   5.954   6.447 -0.1194 -0.7595  0.0569
12170TIP3   OH236452   8.323   2.398   0.427 -0.1189 -0.8281 -0.6450
12170TIP3    H136453   8.402   2.351   0.400 -0.1052 -0.6866 -0.8581
12170TIP3    H236454   8.353   2.461   0.492  0.2718  0.4992 -2.0624
12171TIP3   OH236455   0.798   5.282   3.248  0.0015 -0.1384 -0.5057
12171TIP3    H136456   0.807   5.199   3.294 -0.4613 -0.7932 -1.5746
12171TIP3    H236457   0.784   5.346   3.317  4.3003 -0.2802  0.6801
12172TIP3   OH236458   3.322   6.149   5.038  0.2200  0.4116  0.4585
12172TIP3    H136459   3.284   6.074   5.084 -0.7813  0.9733  0.5629
12172TIP3    H236460   3.282   6.148   4.952  0.3779  0.6907  0.3811
12173TIP3   OH236461   1.540   7.500   5.735 -0.2866  0.0471  0.4140
12173TIP3    H136462   1.579   7.457   5.811 -0.5073  0.8861  1.0085
12173TIP3    H236463   1.599   7.573   5.716  0.1989 -0.6202 -0.7177
12174TIP3   OH236464   0.345   2.202   1.414  0.2783  0.4020  0.2039
12174TIP3    H136465   0.396   2.250   1.349  0.2109 -0.1067 -0.2214
12174TIP3    H236466   0.343   2.112   1.382 -1.0092  0.4472  0.1386
12175TIP3   OH236467   2.212   6.533   5.434 -0.7191 -0.1903  0.2600
12175TIP3    H136468   2.197   6.482   5.514  0.4196  1.2843  1.4438
12175TIP3    H236469   2.228   6.622   5.466  0.4249  0.2721 -1.5786
12176TIP3   OH236470   1.691   5.358   6.062  0.4847  0.0221  0.4473
12176TIP3    H136471   1.649   5.414   5.997 -0.1678  0.4739  1.2380
12176TIP3    H236472   1.641   5.374   6.142  1.4444 -0.3181  1.1189
12177TIP3   OH236473   0.741   0.450   2.553 -0.0498 -0.6117  0.3969
12177TIP3    H136474   0.693   0.394   2.615  1.1249 -0.3177  1.5931
12177TIP3    H236475   0.712   0.420   2.467 -2.3855 -0.4354  1.0823
12178TIP3   OH236476   5.287   6.561   6.454  0.3302 -0.6086 -0.5510
12178TIP3    H136477   5.248   6.491   6.403  0.3855 -1.3357  0.3868
12178TIP3    H236478   5.368   6.524   6.488 -0.5456 -0.7558  1.4909
12179TIP3   OH236479   3.343   7.202   6.283 -0.8654  0.3296 -0.2256
12179TIP3    H136480   3.425   7.156   6.302 -2.1985 -2.0896 -0.1043
12179TIP3    H236481   3.346   7.280   6.339  1.3551  0.3118 -0.2663
12180TIP3   OH236482   2.086   6.325   5.336  0.0318  0.7886  0.0773
12180TIP3    H136483   2.158   6.262   5.327 -0.2245  0.8223 -2.5204
12180TIP3    H236484   2.124   6.398   5.385  1.0873 -0.2207  0.7911
12181TIP3   OH236485   7.361   2.095   0.946 -0.0497  0.8768 -0.3371
12181TIP3    H136486   7.410   2.012   0.950 -2.8531 -0.8340 -0.7069
12181TIP3    H236487   7.384   2.132   0.860 -0.2662 -0.4660 -0.9883
12182TIP3   OH236488   3.529   7.903   5.440 -0.2384 -0.2359  0.0867
12182TIP3    H136489   3.611   7.948   5.462 -0.2968  0.3379 -0.8104
12182TIP3    H236490   3.525   7.908   5.344 -1.4436 -0.0392  0.1455
12183TIP3   OH236491   3.728   5.300   6.181  0.4859 -0.1178 -0.0159
12183TIP3    H136492   3.655   5.302   6.119 -0.1906  1.8826  0.8150
12183TIP3    H236493   3.741   5.207   6.200 -2.1125 -0.4821  0.1559
12184TIP3   OH236494   3.819   4.725   6.801  0.2721  0.6223 -0.2557
12184TIP3    H136495   3.740   4.767   6.768  1.0204  1.1536 -1.3981
12184TIP3    H236496   3.838   4.656   6.738  0.3861  0.0909  0.3488
12185TIP3   OH236497   1.493   5.617   5.553 -0.1700 -0.2122 -0.4750
12185TIP3    H136498   1.571   5.625   5.608  0.2297 -0.3605 -1.0103
12185TIP3    H236499   1.506   5.534   5.506 -1.2874 -0.9055  0.4240
12186TIP3   OH236500   7.234   1.151   0.329 -0.4667 -0.2428  0.5325
12186TIP3    H136501   7.194   1.212   0.391  1.7338 -1.1780  2.9272
12186TIP3    H236502   7.168   1.082   0.319 -0.1705 -0.9484  3.1780
12187TIP3   OH236503   4.100   7.493   6.664  0.0862 -0.2219  0.3682
12187TIP3    H136504   4.043   7.427   6.625 -0.1504 -0.1236  0.5434
12187TIP3    H236505   4.167   7.509   6.598 -0.2856 -0.0927  0.0188
12188TIP3   OH236506   2.866   6.092   6.056  0.2392 -0.4314 -0.0128
12188TIP3    H136507   2.792   6.033   6.072  1.6764 -2.1779  0.3541
12188TIP3    H236508   2.827   6.167   6.012 -2.2804  0.1280  2.9410
12189TIP3   OH236509   0.565   4.885   5.916  0.3327  0.1888 -0.1102
12189TIP3    H136510   0.631   4.816   5.920 -0.5432 -0.5941  1.5992
12189TIP3    H236511   0.614   4.966   5.927  1.0097 -0.4000  1.3496
12190TIP3   OH236512   2.213   4.155   5.763  0.1652 -0.2631  0.3350
12190TIP3    H136513   2.298   4.155   5.719  0.5237 -2.1888  0.9701
12190TIP3    H236514   2.186   4.063   5.762 -1.3791  0.1703  1.1379
12191TIP3   OH236515   1.636   0.448   0.167 -0.2480  0.0110  0.3945
12191TIP3    H136516   1.679   0.431   0.251 -0.4981 -0.0929  0.5048
12191TIP3    H236517   1.706   0.451   0.103 -0.2426 -1.8993  0.2993
12192TIP3   OH236518   0.927   2.410   2.774  0.3111 -0.3606  0.2744
12192TIP3    H136519   0.962   2.488   2.816 -0.6773  1.0280 -1.4096
12192TIP3    H236520   1.005   2.360   2.748  1.0021  0.8740 -0.0853
12193TIP3   OH236521   6.148   3.862   1.060  0.4088  0.4737  0.2399
12193TIP3    H136522   6.218   3.798   1.042  1.3774  1.0068  2.0330
12193TIP3    H236523   6.155   3.880   1.153 -1.6450  1.1414  0.2779
12194TIP3   OH236524   8.328   3.105   0.580 -0.2812 -0.3086  0.3956
12194TIP3    H136525   8.420   3.095   0.605 -0.1853 -1.9927 -0.5172
12194TIP3    H236526   8.283   3.123   0.662  1.0105  1.8063  0.6848
12195TIP3   OH236527   3.033   4.926   6.315  0.4335  0.4199 -0.2560
12195TIP3    H136528   2.955   4.904   6.264  1.0831 -1.7685 -0.3660
12195TIP3    H236529   3.000   4.971   6.392 -1.0735 -1.6237  0.3326
12196TIP3   OH236530   2.950   7.567   5.724 -0.2469 -0.1620  0.2743
12196TIP3    H136531   3.016   7.599   5.662 -1.3087  0.4085 -0.5908
12196TIP3    H236532   2.985   7.591   5.810  0.2245  1.0071 -0.2184
12197TIP3   OH236533   5.298   0.598   5.554  0.5268  0.2535 -0.4740
12197TIP3    H136534   5.267   0.688   5.559  0.5117  0.2757 -0.9773
12197TIP3    H236535   5.393   0.605   5.554  0.5227  0.3462 -1.9092
12198TIP3   OH236536   1.611   7.342   6.400  0.4113  0.4822  0.1921
12198TIP3    H136537   1.556   7.323   6.323  0.7115  1.0213 -0.1590
12198TIP3    H236538   1.640   7.432   6.387  1.1890  0.2799  0.4924
12199TIP3   OH236539   1.011   5.155   5.612 -0.0175 -0.0723  0.1908
12199TIP3    H136540   1.049   5.139   5.699  0.2309  1.1993  0.3211
12199TIP3    H236541   0.920   5.180   5.630 -0.2978 -0.9546  0.0118
12200TIP3   OH236542   3.062   6.765   5.637 -0.2124  0.8033  0.2271
12200TIP3    H136543   3.074   6.823   5.712  1.7515 -0.9635  1.3395
12200TIP3    H236544   3.037   6.681   5.675 -1.9702  0.5842 -1.2962
12201TIP3   OH236545   1.840   7.459   4.734  0.3992 -0.0529 -0.3867
12201TIP3    H136546   1.831   7.551   4.711 -2.1059 -0.4099 -0.9937
12201TIP3    H236547   1.853   7.414   4.651 -0.1240 -0.4306 -0.2691
12202TIP3   OH236548   6.217   0.484   6.144  0.2727  0.5190  0.2819
12202TIP3    H136549   6.217   0.571   6.104  1.3863  0.7675  0.7920
12202TIP3    H236550   6.273   0.432   6.086 -1.8468 -0.3510 -1.0277
12203TIP3   OH236551   1.618   7.400   3.556  0.5258 -0.2274 -0.4968
12203TIP3    H136552   1.675   7.470   3.589  1.5036  0.0822 -2.7334
12203TIP3    H236553   1.664   7.366   3.479 -2.8310  0.8302 -3.0972
12204TIP3   OH236554   5.070   7.649   6.570  0.0290  0.1390  0.4274
12204TIP3    H136555   5.033   7.619   6.653  0.2094 -2.1899 -0.2796
12204TIP3    H236556   4.996   7.649   6.509  0.4719 -1.0891 -0.1284
12205TIP3   OH236557   0.771   3.785   0.808 -0.0217 -0.0938  0.2809
12205TIP3    H136558   0.724   3.808   0.888  0.0538  0.9818  0.0239
12205TIP3    H236559   0.847   3.735   0.838 -1.4245 -2.0377  0.6855
12206TIP3   OH236560   2.154   4.680   0.683  0.7723  0.1833  0.2913
12206TIP3    H136561   2.115   4.767   0.676 -0.7552 -0.5859 -1.3026
12206TIP3    H236562   2.204   4.670   0.602 -1.3525 -1.4626 -0.8690
12207TIP3   OH236563   3.156   6.500   4.816  0.2255  0.0519 -0.2491
12207TIP3    H136564   3.085   6.472   4.759  0.0712  0.4265 -0.2399
12207TIP3    H236565   3.115   6.516   4.900  0.5198 -0.8909  0.0799
12208TIP3   OH236566   0.563   6.128   6.042 -0.4848 -0.1144  0.7833
12208TIP3    H136567   0.650   6.093   6.023 -0.0292  0.8105  1.0780
12208TIP3    H236568   0.546   6.190   5.971 -1.2881 -0.9474  0.2491
12209TIP3   OH236569   5.884   0.073   5.008 -0.1125 -0.4194 -0.9793
12209TIP3    H136570   5.965   0.102   4.965 -1.0552 -0.8653 -3.1303
12209TIP3    H236571   5.913   0.041   5.093  1.6353  1.8894 -0.6518
12210TIP3   OH236572   3.258   4.749   5.016  0.2652 -0.3070  0.3145
12210TIP3    H136573   3.214   4.787   4.941 -1.0973 -1.4047  0.5397
12210TIP3    H236574   3.346   4.787   5.014  1.0466 -2.0955 -3.1873
12211TIP3   OH236575   1.729   7.253   5.580 -0.2241 -0.1004  0.0577
12211TIP3    H136576   1.671   7.236   5.654 -0.1567 -1.0248 -0.1029
12211TIP3    H236577   1.723   7.175   5.525 -2.5123  1.6946 -2.4351
12212TIP3   OH236578   0.840   3.746   0.506 -0.1603 -0.1784  0.2700
12212TIP3    H136579   0.753   3.762   0.542 -0.9237 -1.2534 -1.0255
12212TIP3    H236580   0.876   3.676   0.561  0.5612  1.3824  1.8253
12213TIP3   OH236581   2.945   4.722   5.611  0.3689 -0.0547 -0.2798
12213TIP3    H136582   2.943   4.763   5.525  1.0253 -1.7888 -1.1582
12213TIP3    H236583   2.902   4.637   5.597 -0.7090  0.1871  1.4050
12214TIP3   OH236584   2.734   6.785   5.962 -0.2254  0.2587  0.1475
12214TIP3    H136585   2.779   6.835   5.893  1.3537 -0.6687  0.4650
12214TIP3    H236586   2.696   6.710   5.916  1.8840 -1.0233  0.4405
12215TIP3   OH236587   3.103   6.930   5.840 -0.2985  0.1161 -0.4132
12215TIP3    H136588   3.152   6.971   5.912 -0.2577  0.7962 -0.8208
12215TIP3    H236589   3.027   6.988   5.827  0.7700  1.1474 -2.2847
12216TIP3   OH236590   4.719   7.455   6.317 -0.3116  0.5495  0.0953
12216TIP3    H136591   4.731   7.360   6.320  2.5279  0.8198 -1.1655
12216TIP3    H236592   4.659   7.469   6.244 -0.0268 -0.2522 -0.3097
12217TIP3   OH236593   6.878   1.414   0.706  0.7625  0.0849  0.5287
12217TIP3    H136594   6.823   1.492   0.715  1.8689  0.9177  0.1125
12217TIP3    H236595   6.921   1.407   0.791  0.2581 -0.3869  0.7474
12218TIP3   OH236596   1.274   4.557   6.374  0.0073 -0.0539  0.7872
12218TIP3    H136597   1.335   4.502   6.422 -0.1211 -0.7161  0.2086
12218TIP3    H236598   1.306   4.646   6.386  0.3033 -0.2709  1.6106
12219TIP3   OH236599   8.316   1.253   0.374  0.0071 -0.5187  0.1819
12219TIP3    H136600   8.273   1.332   0.406  1.0786  0.3003 -0.3801
12219TIP3    H236601   8.329   1.199   0.452  0.9479  0.6734  0.8619
12220TIP3   OH236602   3.102   6.352   6.436 -0.0583 -0.3332 -0.0892
12220TIP3    H136603   3.043   6.277   6.439  1.1831 -1.3219  0.1027
12220TIP3    H236604   3.082   6.402   6.515 -0.2712 -0.9295  0.2335
12221TIP3   OH236605   2.680   4.962   0.164  0.0116  0.4434  0.3587
12221TIP3    H136606   2.679   4.906   0.086 -0.7388 -1.3480  1.6185
12221TIP3    H236607   2.762   5.010   0.158 -0.8280  1.6494 -2.4309
12222TIP3   OH236608   4.905   4.810   6.755  0.1848  0.0044 -1.1591
12222TIP3    H136609   4.994   4.845   6.769 -0.1257  0.5417 -0.4969
12222TIP3    H236610   4.884   4.835   6.665  0.7615 -0.2555 -1.3723
12223TIP3   OH236611   1.602   5.702   6.702 -0.2844  0.8268 -0.0990
12223TIP3    H136612   1.527   5.704   6.761  1.3714  1.4565  2.0546
12223TIP3    H236613   1.671   5.749   6.749  2.3687 -2.1977 -0.7435
12224TIP3   OH236614   3.636   7.478   5.872 -0.2208 -0.2168  0.0918
12224TIP3    H136615   3.724   7.514   5.865 -0.0879 -0.6395 -0.5248
12224TIP3    H236616   3.631   7.440   5.959 -0.8229  2.4807  1.2721
12225TIP3   OH236617   0.760   7.833   6.354  0.1538 -0.2929  0.1104
12225TIP3    H136618   0.820   7.888   6.304 -0.1078 -0.8724 -0.8662
12225TIP3    H236619   0.712   7.894   6.410 -0.6250  0.5799 -1.4477
12226TIP3   OH236620   0.144   3.837   0.203 -0.1016 -0.3952 -0.2227
12226TIP3    H136621   0.227   3.797   0.230 -0.7633  0.9416  4.1950
12226TIP3    H236622   0.169   3.904   0.139  1.8784 -1.9595 -1.1371
12227TIP3   OH236623   1.315   7.734   6.431  0.6405  0.0379  0.0010
12227TIP3    H136624   1.325   7.696   6.344 -0.3124 -1.9042  0.7107
12227TIP3    H236625   1.304   7.659   6.489 -0.5527  1.3678  1.5526
12228TIP3   OH236626   4.401   5.515   6.506 -0.2594 -0.3075  0.1725
12228TIP3    H136627   4.356   5.491   6.588 -0.1955  0.4547  0.4389
12228TIP3    H236628   4.349   5.588   6.471 -1.5043 -1.9692 -1.5623
12229TIP3   OH236629   1.024   1.997   0.994 -0.1733  0.2235  0.2237
12229TIP3    H136630   1.048   2.060   0.926 -0.8003 -0.7382 -0.8999
12229TIP3    H236631   1.097   1.936   0.997 -0.7412 -0.5236 -0.5702
12230TIP3   OH236632   4.262   5.187   5.455 -0.5419  0.2190  0.6655
12230TIP3    H136633   4.338   5.152   5.409 -0.6903  0.7356  0.0236
12230TIP3    H236634   4.236   5.116   5.514  0.7978  0.2676  1.3375
12231TIP3   OH236635   4.581   0.616   5.309 -0.4668  0.4631  0.1697
12231TIP3    H136636   4.561   0.524   5.293 -0.8779  0.2945  1.5627
12231TIP3    H236637   4.616   0.618   5.398 -2.1107  1.8813  0.8133
12232TIP3   OH236638   8.226   4.214   1.117 -0.2297  0.5961 -0.0237
12232TIP3    H136639   8.234   4.198   1.023  0.3817 -1.9576  0.4247
12232TIP3    H236640   8.303   4.266   1.139  0.2531  0.1833 -0.7256
12233TIP3   OH236641   4.280   7.436   6.881 -0.1892 -1.2819 -0.7317
12233TIP3    H136642   4.338   7.442   6.805 -0.3628  3.2980 -0.6546
12233TIP3    H236643   4.195   7.466   6.848 -0.7435 -1.1456  0.7990
12234TIP3   OH236644   1.335   0.555   0.489 -0.2203 -0.4109  0.0790
12234TIP3    H136645   1.278   0.543   0.565  1.2246  0.0858  1.2849
12234TIP3    H236646   1.421   0.525   0.519  0.4016 -0.0706 -1.3196
12235TIP3   OH236647   2.782   5.377   6.283 -0.7977  0.4888  0.3149
12235TIP3    H136648   2.872   5.363   6.255 -1.7481  0.1656 -2.7063
12235TIP3    H236649   2.771   5.319   6.359  1.8178  1.3027  1.3429
12236TIP3   OH236650   0.735   7.026   6.155 -0.0601  0.9431 -0.2571
12236TIP3    H136651   0.799   7.042   6.086 -0.1585  0.3198 -0.4960
12236TIP3    H236652   0.657   6.995   6.108  0.3265 -0.8225  0.2343
12237TIP3   OH236653   0.141   3.322   1.830  0.0044  0.3399  0.1332
12237TIP3    H136654   0.182   3.366   1.756 -1.5236  0.0938 -0.8772
12237TIP3    H236655   0.126   3.233   1.800  1.2719 -0.3683  1.4859
12238TIP3   OH236656   8.340   1.100   0.600 -0.2076  0.2267  0.5360
12238TIP3    H136657   8.402   1.032   0.627  0.7942  0.9339  0.0538
12238TIP3    H236658   8.294   1.124   0.680 -0.1966 -0.6450  0.8093
12239TIP3   OH236659   2.275   7.408   6.003 -0.2327  0.3255 -0.3632
12239TIP3    H136660   2.283   7.497   6.040 -2.5077  0.0629  0.8565
12239TIP3    H236661   2.205   7.368   6.054 -0.1210 -1.7399 -1.8039
12240TIP3   OH236662   2.909   4.688   4.556 -0.9086  0.4314 -0.1141
12240TIP3    H136663   2.848   4.759   4.535 -0.8116  0.4424 -0.3622
12240TIP3    H236664   2.894   4.623   4.488  0.3723  1.0561 -1.0093
12241TIP3   OH236665   4.269   5.622   5.827  0.8507 -0.5117  0.1974
12241TIP3    H136666   4.235   5.584   5.909 -0.9263  1.4848  0.4127
12241TIP3    H236667   4.240   5.561   5.759 -1.6106  0.1574  0.5887
12242TIP3   OH236668   1.638   4.712   6.246  0.4544  0.0170  0.3052
12242TIP3    H136669   1.553   4.745   6.273  0.4120  1.1578 -1.1421
12242TIP3    H236670   1.644   4.625   6.284 -2.0534 -0.7394 -0.9627
12243TIP3   OH236671   3.748   5.145   5.252 -0.8126  0.6817 -0.2214
12243TIP3    H136672   3.700   5.088   5.313 -0.7712 -0.8392 -1.5888
12243TIP3    H236673   3.841   5.128   5.272 -0.7856 -0.4458 -1.2525
12244TIP3   OH236674   3.428   5.768   5.030 -0.4252  1.3057 -0.3326
12244TIP3    H136675   3.415   5.784   5.123 -2.1116  0.1479 -0.3418
12244TIP3    H236676   3.486   5.838   5.001 -0.7323  2.2822  1.3715
12245TIP3   OH236677   3.190   3.468   6.294  0.1121  0.5705  0.2826
12245TIP3    H136678   3.160   3.451   6.383 -1.6200 -1.3388 -0.6305
12245TIP3    H236679   3.139   3.544   6.266 -0.4493  0.2218  0.3682
12246TIP3   OH236680   3.022   6.064   5.740  0.2630 -0.2162 -0.0327
12246TIP3    H136681   3.069   6.002   5.795 -0.0654 -1.4074 -1.0862
12246TIP3    H236682   2.930   6.038   5.748 -0.1076  1.3655  1.0806
12247TIP3   OH236683   7.242   6.192   6.411 -0.1974  0.0005  0.1682
12247TIP3    H136684   7.229   6.146   6.494 -0.1805  1.2621  0.8827
12247TIP3    H236685   7.336   6.187   6.395 -0.4563 -2.1498 -0.9160
12248TIP3   OH236686   0.987   4.379   6.604 -0.7803  0.2682 -0.2289
12248TIP3    H136687   0.946   4.308   6.653 -2.4865  0.1575 -1.7835
12248TIP3    H236688   0.995   4.345   6.515  1.4345  0.8205 -0.2798
12249TIP3   OH236689   0.696   6.389   6.129  0.8052  0.1941 -0.0002
12249TIP3    H136690   0.638   6.367   6.056 -0.9142  1.5547  0.9418
12249TIP3    H236691   0.723   6.304   6.164  1.4232 -0.4832 -2.0144
12250TIP3   OH236692   0.849   7.779   5.599 -0.0073  0.1227  0.1079
12250TIP3    H136693   0.782   7.841   5.628 -1.6628 -2.1820  1.4161
12250TIP3    H236694   0.877   7.811   5.514 -2.5606  1.3405 -0.3143
12251TIP3   OH236695   1.836   7.982   5.580 -0.3054 -0.2641 -0.2620
12251TIP3    H136696   1.847   7.893   5.613  1.6564 -0.6352 -1.8256
12251TIP3    H236697   1.866   8.038   5.652 -1.4196 -0.8466  0.6715
12252TIP3   OH236698   7.712   2.408   0.043  0.6004 -0.1604  0.5746
12252TIP3    H136699   7.686   2.326   0.000  0.9020  0.1409 -0.1861
12252TIP3    H236700   7.807   2.409   0.039  0.5598  0.6934 -0.2841
12253TIP3   OH236701   1.274   4.590   5.460  0.2006 -0.2249  0.2478
12253TIP3    H136702   1.223   4.620   5.385  0.1571  1.0153  0.7707
12253TIP3    H236703   1.211   4.542   5.514 -0.2459  0.6219  0.4960
12254TIP3   OH236704   0.561   6.341   5.876  0.1650  0.0880 -0.4088
12254TIP3    H136705   0.638   6.311   5.828  1.1255 -0.6267  1.4821
12254TIP3    H236706   0.506   6.384   5.811  1.0433 -1.5381 -2.2518
12255TIP3   OH236707   1.442   4.399   0.348 -0.2862 -0.6649 -0.5324
12255TIP3    H136708   1.507   4.380   0.415 -0.8460  0.0863  0.2236
12255TIP3    H236709   1.486   4.461   0.289 -0.1955 -0.4237 -0.2120
12256TIP3   OH236710   5.411   6.132   6.060  0.0329  0.2004  0.2032
12256TIP3    H136711   5.316   6.139   6.069  0.0478  2.1360 -0.9176
12256TIP3    H236712   5.424   6.083   5.979 -0.0096 -0.0470  0.3460
12257TIP3   OH236713   2.589   7.043   5.405  0.4606  0.2014  0.3832
12257TIP3    H136714   2.543   7.059   5.323 -1.6169  1.6797  1.7951
12257TIP3    H236715   2.682   7.047   5.382 -0.0985  1.1366 -1.7842
12258TIP3   OH236716   4.150   7.681   4.838  0.2870  0.9166 -0.0752
12258TIP3    H136717   4.106   7.669   4.923 -0.4679 -1.5171 -0.7601
12258TIP3    H236718   4.243   7.671   4.858  0.2493  2.0958  0.7381
12259TIP3   OH236719   3.355   7.335   6.906 -0.2734  0.1384  0.5373
12259TIP3    H136720   3.274   7.328   6.957 -1.4508  1.3367 -1.0712
12259TIP3    H236721   3.405   7.257   6.929 -1.2913  0.0409  2.5767
12260TIP3   OH236722   4.914   6.968   5.283  0.2098 -0.3918 -0.3049
12260TIP3    H136723   4.840   6.999   5.232 -0.7648 -1.3309  0.5160
12260TIP3    H236724   4.909   7.016   5.365  0.9495  0.0756 -0.5246
12261TIP3   OH236725   3.592   6.558   6.052 -0.8733  0.7187 -0.3732
12261TIP3    H136726   3.643   6.477   6.046 -1.6741  0.1786 -0.0311
12261TIP3    H236727   3.646   6.624   6.008 -0.3982 -0.0897 -1.0099
12262TIP3   OH236728   8.064   0.226   5.818  0.7437 -0.3176 -0.5236
12262TIP3    H136729   8.117   0.189   5.889  1.5837  0.2179 -0.8646
12262TIP3    H236730   8.033   0.150   5.769  0.8271 -0.6522 -0.0607
12263TIP3   OH236731   6.513   0.363   3.651 -0.5319 -0.2860 -0.4762
12263TIP3    H136732   6.505   0.313   3.732  0.3839 -0.1620 -0.3004
12263TIP3    H236733   6.558   0.443   3.677 -0.8919  0.0790 -0.9770
12264TIP3   OH236734   5.520   5.456   5.933 -0.1663  0.0785  0.1133
12264TIP3    H136735   5.426   5.439   5.934  0.0912 -1.5188 -1.2502
12264TIP3    H236736   5.528   5.547   5.905 -1.3328  0.4931  1.0854
12265TIP3   OH236737   5.811   1.334   5.027  0.3233  0.7737  0.4620
12265TIP3    H136738   5.814   1.242   5.053  1.1028  0.8782  0.7739
12265TIP3    H236739   5.722   1.363   5.048  0.1188  0.1302  0.4855
12266TIP3   OH236740   5.044   7.456   6.892  0.4129 -0.0729  0.2182
12266TIP3    H136741   4.982   7.463   6.964  0.7356 -1.4146  0.6407
12266TIP3    H236742   5.025   7.371   6.852  0.7772  0.2975 -0.7799
12267TIP3   OH236743   6.058   5.576   5.135 -0.2037  0.2953  0.3689
12267TIP3    H136744   6.031   5.506   5.076 -0.1200  0.3210  0.3003
12267TIP3    H236745   6.001   5.566   5.211 -1.1446  1.0204 -0.2385
12268TIP3   OH236746   2.834   7.402   4.509 -0.4318  0.0695 -0.7349
12268TIP3    H136747   2.854   7.395   4.416  1.5088 -0.1548 -0.3099
12268TIP3    H236748   2.810   7.494   4.522  0.8013  0.4551 -1.1645
12269TIP3   OH236749   6.624   0.198   5.920  0.2060 -0.3452 -0.1925
12269TIP3    H136750   6.636   0.174   6.011  1.2220 -0.6042 -0.3819
12269TIP3    H236751   6.540   0.160   5.895 -0.0137 -0.3825  0.5900
12270TIP3   OH236752   5.263   5.421   5.836 -0.2310 -0.4283 -0.0284
12270TIP3    H136753   5.290   5.504   5.797 -0.9323 -0.2234 -0.0903
12270TIP3    H236754   5.275   5.356   5.766 -0.3242 -0.2664 -0.1943
12271TIP3   OH236755   4.285   6.443   2.960  0.0149  0.3396 -0.1916
12271TIP3    H136756   4.318   6.357   2.932  0.6751  0.6497 -0.3668
12271TIP3    H236757   4.234   6.424   3.039  0.1852 -0.2102 -0.2124
12272TIP3   OH236758   2.120   3.091   0.063  0.3263 -0.1847 -0.0861
12272TIP3    H136759   2.092   3.139  -0.016 -1.5198 -1.9027 -0.5127
12272TIP3    H236760   2.168   3.016   0.029 -0.1286 -0.7169  0.4404
12273TIP3   OH236761   4.452   6.202   3.879 -0.4318  0.0613  0.7053
12273TIP3    H136762   4.383   6.264   3.902 -0.0653  0.9371 -0.4858
12273TIP3    H236763   4.513   6.253   3.824  1.0096 -0.7636  1.5076
12274TIP3   OH236764   5.866   6.803   4.936  0.0253 -0.2520  0.1031
12274TIP3    H136765   5.869   6.898   4.942  0.5868 -0.2409 -0.2613
12274TIP3    H236766   5.942   6.774   4.988  0.0779 -0.4844 -0.1053
12275TIP3   OH236767   6.194   0.739   6.029 -0.1438  0.1832  0.7725
12275TIP3    H136768   6.196   0.758   6.123  0.7952 -1.4799  1.1188
12275TIP3    H236769   6.101   0.737   6.006 -0.3359  1.8471  1.3996
12276TIP3   OH236770   2.405   6.801   4.606  0.2970  0.1563  0.1639
12276TIP3    H136771   2.456   6.879   4.628  0.8650 -0.2290  0.1947
12276TIP3    H236772   2.327   6.836   4.562  1.8574  0.5957 -2.3282
12277TIP3   OH236773   2.904   6.170   4.852 -0.6258  0.3805 -1.0298
12277TIP3    H136774   2.875   6.251   4.894 -1.4689 -0.8779  0.8873
12277TIP3    H236775   2.823   6.131   4.819 -0.2420  0.1919 -1.7543
12278TIP3   OH236776   6.567   7.162   4.049  0.1737 -0.4887  0.2214
12278TIP3    H136777   6.526   7.145   4.134  0.2862  0.8125  0.5402
12278TIP3    H236778   6.493   7.171   3.989  0.0228  0.7623  0.5919
12279TIP3   OH236779   3.247   5.807   4.466 -0.3744 -0.6474  0.2663
12279TIP3    H136780   3.288   5.882   4.424  1.5542 -2.2763 -0.8375
12279TIP3    H236781   3.174   5.844   4.517  0.2428  1.8755 -0.6488
12280TIP3   OH236782   5.915   7.921   4.986  0.0150  0.0484  0.0771
12280TIP3    H136783   5.865   7.911   4.905  0.0671 -1.8813  0.2486
12280TIP3    H236784   5.957   7.836   4.998  0.9303  0.6908  1.5243
12281TIP3   OH236785   3.895   7.478   3.386 -0.0206  0.2663 -0.0089
12281TIP3    H136786   3.869   7.540   3.318 -0.4042 -0.6186 -0.6818
12281TIP3    H236787   3.905   7.395   3.340 -1.5133 -0.6292  1.2268
12282TIP3   OH236788   3.800   5.558   6.130  0.0900  0.3352  0.3712
12282TIP3    H136789   3.793   5.470   6.166 -1.7869  0.2647 -0.1245
12282TIP3    H236790   3.790   5.547   6.036  0.4854  1.0098  0.2416
12283TIP3   OH236791   7.043   0.056   4.286 -0.1801  0.0957 -0.3451
12283TIP3    H136792   7.131   0.018   4.276  0.8010  1.8840  1.0594
12283TIP3    H236793   7.037   0.075   4.380 -1.0673  2.3516 -0.8464
12284TIP3   OH236794   1.332   1.970   0.832  1.0505  0.2637 -0.0740
12284TIP3    H136795   1.276   1.908   0.786  0.9240 -0.6133  1.2395
12284TIP3    H236796   1.346   2.041   0.770 -0.4948 -0.1093 -0.8496
12285TIP3   OH236797   7.867   0.116   4.259  0.6503  0.6429  0.3927
12285TIP3    H136798   7.923   0.193   4.255  2.4386 -0.6852 -1.0542
12285TIP3    H236799   7.785   0.143   4.216  1.9463  1.2119 -1.8112
12286TIP3   OH236800   5.973   1.203   4.671  0.2466 -0.3060 -0.2428
12286TIP3    H136801   5.901   1.252   4.710 -0.6047 -0.3771 -1.7074
12286TIP3    H236802   5.972   1.227   4.579  2.6364  0.3347 -0.1340
12287TIP3   OH236803   3.650   6.048   5.514 -0.0397  0.0234  0.0579
12287TIP3    H136804   3.742   6.026   5.503 -0.5861 -1.6170 -1.4723
12287TIP3    H236805   3.635   6.123   5.457  0.4918  0.7368  0.8413
12288TIP3   OH236806   2.869   7.058   5.333 -0.0889 -0.0401  0.6972
12288TIP3    H136807   2.924   7.101   5.399  1.4533 -0.1630 -0.5014
12288TIP3    H236808   2.854   7.125   5.267 -1.6073  0.0672  1.1189
12289TIP3   OH236809   4.967   7.730   4.429  0.2876  0.2912 -0.3488
12289TIP3    H136810   5.051   7.687   4.442 -0.5625 -1.7444 -1.3558
12289TIP3    H236811   4.912   7.696   4.499 -0.0206  0.7211 -0.3847
12290TIP3   OH236812   5.471   6.339   4.429  0.1387  0.0635  0.1231
12290TIP3    H136813   5.565   6.330   4.418  0.0610  1.2213 -1.7335
12290TIP3    H236814   5.458   6.341   4.524  1.9601 -0.1779  0.3988
12291TIP3   OH236815   4.506   7.200   5.934  0.1079  0.0214 -0.0942
12291TIP3    H136816   4.448   7.195   5.858 -0.3153 -0.5192  0.2575
12291TIP3    H236817   4.524   7.108   5.956 -0.7390  0.1534  1.1906
12292TIP3   OH236818   6.474   1.458   3.092  0.0740  0.2971 -0.0165
12292TIP3    H136819   6.555   1.416   3.119 -0.4547 -0.0846  0.9742
12292TIP3    H236820   6.450   1.413   3.011  1.1189  0.7710 -0.6086
12293TIP3   OH236821   3.768   7.069   5.539  0.3979 -0.3003  0.0673
12293TIP3    H136822   3.783   7.048   5.631  1.8648 -1.0552 -0.3225
12293TIP3    H236823   3.769   6.984   5.495 -0.2863  0.0560 -0.6539
12294TIP3   OH236824   1.942   1.553   0.269  0.0322 -0.5604 -0.0649
12294TIP3    H136825   2.023   1.547   0.321  1.4886  3.1656 -1.6908
12294TIP3    H236826   1.963   1.510   0.186  0.2745  0.2126 -0.4052
12295TIP3   OH236827   6.951   1.659   6.044  0.3256  0.1503  0.5694
12295TIP3    H136828   6.898   1.580   6.052  0.1168  0.3303  0.9961
12295TIP3    H236829   6.986   1.673   6.132  0.2934  0.5758  0.5157
12296TIP3   OH236830   7.184   1.730   4.342  0.0332 -0.0915 -0.1138
12296TIP3    H136831   7.196   1.648   4.389  1.2694  1.2341  1.9885
12296TIP3    H236832   7.250   1.729   4.272 -1.5692 -1.9159 -1.6397
12297TIP3   OH236833   5.957   0.305   4.144  0.2887  0.3236  0.5565
12297TIP3    H136834   5.942   0.255   4.064 -0.1132  1.7089 -0.2581
12297TIP3    H236835   6.046   0.284   4.170  0.0484 -0.9775  0.3595
12298TIP3   OH236836   3.502   5.152   3.876  0.2739  0.2262 -0.8719
12298TIP3    H136837   3.448   5.106   3.811  0.0791 -1.4300  0.4156
12298TIP3    H236838   3.493   5.245   3.854 -1.8803 -0.1345 -1.6281
12299TIP3   OH236839   7.343   2.658   0.075 -0.1406 -0.0893  0.1614
12299TIP3    H136840   7.438   2.673   0.070 -0.5680  2.3007 -1.3598
12299TIP3    H236841   7.334   2.581   0.131  2.6679  0.0644  0.8792
12300TIP3   OH236842   6.915   1.613   6.472 -0.1198 -0.1758  0.7564
12300TIP3    H136843   6.956   1.678   6.529 -0.4869  2.0950 -1.5098
12300TIP3    H236844   6.984   1.585   6.413 -0.4079 -0.5824  0.6084
12301TIP3   OH236845   3.718   7.077   3.366 -0.3349 -0.6429 -0.2971
12301TIP3    H136846   3.731   7.167   3.394 -0.6818 -0.8310  0.4823
12301TIP3    H236847   3.624   7.061   3.378  0.1586 -1.9720  2.2247
12302TIP3   OH236848   3.354   6.197   5.768  0.5295 -0.0768  0.1414
12302TIP3    H136849   3.345   6.161   5.680  0.1168 -0.3008  0.2715
12302TIP3    H236850   3.445   6.226   5.773  0.9945 -1.5136  0.1888
12303TIP3   OH236851   5.203   7.465   3.660  0.1430  0.0999 -0.9052
12303TIP3    H136852   5.277   7.459   3.599  0.0516 -1.0331 -0.9063
12303TIP3    H236853   5.126   7.456   3.604  0.0179  0.6190 -0.8174
12304TIP3   OH236854   2.246   7.681   4.564 -0.4443 -0.0385  0.2026
12304TIP3    H136855   2.207   7.615   4.622 -0.7794  1.3504  1.6016
12304TIP3    H236856   2.191   7.758   4.574  0.3255  0.6741 -0.9022
12305TIP3   OH236857   2.514   1.821   0.188  0.2539  0.5608 -0.2899
12305TIP3    H136858   2.566   1.806   0.109 -0.1003  0.6314 -0.5391
12305TIP3    H236859   2.551   1.901   0.226  0.0003  0.8921 -0.7361
12306TIP3   OH236860   4.626   0.890   6.231  0.6670  0.6498 -0.2976
12306TIP3    H136861   4.673   0.932   6.303  2.4125 -0.8019 -0.5397
12306TIP3    H236862   4.543   0.863   6.268  1.4615  0.1227  1.1214
12307TIP3   OH236863   2.649   3.580   5.471 -0.0247  0.1127 -0.2089
12307TIP3    H136864   2.627   3.560   5.380 -1.3672  0.3255  0.0548
12307TIP3    H236865   2.682   3.669   5.469  0.1373  0.0451 -0.5237
12308TIP3   OH236866   5.469   6.814   4.822 -0.1029  0.2358 -0.8678
12308TIP3    H136867   5.498   6.785   4.908  0.8232  0.1614 -1.2039
12308TIP3    H236868   5.407   6.885   4.840  0.1133  0.2446 -0.1464
12309TIP3   OH236869   5.784   7.694   6.849  0.0574 -0.3141  0.0508
12309TIP3    H136870   5.796   7.628   6.781  1.7012 -2.6280  2.4522
12309TIP3    H236871   5.727   7.651   6.913  0.2535  1.0106  1.1306
12310TIP3   OH236872   6.822   0.036   5.519  0.4002  0.1606 -0.0862
12310TIP3    H136873   6.826   0.070   5.608 -1.2714  1.2219 -0.4072
12310TIP3    H236874   6.862  -0.051   5.525  3.4930  1.5624  1.0196
12311TIP3   OH236875   5.184   3.546   5.544  0.0675 -0.3775  0.2676
12311TIP3    H136876   5.220   3.516   5.628 -1.2010 -1.1220  0.5628
12311TIP3    H236877   5.236   3.501   5.478 -1.4039 -2.8240  0.7027
12312TIP3   OH236878   4.789   7.666   5.276 -0.1567 -0.6231 -0.2934
12312TIP3    H136879   4.776   7.582   5.320  1.6930  0.0395  1.6258
12312TIP3    H236880   4.848   7.715   5.335 -1.4883  2.1551 -1.1708
12313TIP3   OH236881   6.919   6.264   6.654 -0.0444  0.5310  0.6630
12313TIP3    H136882   6.976   6.303   6.588 -0.2810  0.7132  0.5667
12313TIP3    H236883   6.840   6.240   6.606  0.7002 -1.4867  0.4103
12314TIP3   OH236884   6.926   0.038   4.832 -0.0911  0.3543 -0.3328
12314TIP3    H136885   6.866  -0.005   4.894 -0.9241 -0.0621 -1.4197
12314TIP3    H236886   6.868   0.087   4.774  0.7698  1.6993 -0.0596
12315TIP3   OH236887   1.954   3.867   1.779 -0.1039  0.1686 -0.5219
12315TIP3    H136888   1.909   3.796   1.733 -0.2729 -1.7278  2.4366
12315TIP3    H236889   1.886   3.908   1.832  0.8327 -0.1893  0.9839
12316TIP3   OH236890   1.938   2.182   0.995  0.0109 -0.0982  0.4291
12316TIP3    H136891   1.993   2.131   1.055  1.3089 -0.9120 -1.4191
12316TIP3    H236892   1.989   2.260   0.976  0.0212 -0.3000 -0.3750
12317TIP3   OH236893   5.382   6.430   6.027 -0.1716  0.1815 -0.1813
12317TIP3    H136894   5.317   6.366   5.998  0.3680  0.5950 -2.4185
12317TIP3    H236895   5.451   6.379   6.069 -0.4051 -0.5653 -0.7080
12318TIP3   OH236896   1.861   6.639   6.664 -0.3862  0.0282  0.1234
12318TIP3    H136897   1.916   6.570   6.627 -0.3290  0.1378  0.0021
12318TIP3    H236898   1.773   6.601   6.666 -0.1816 -0.4216  1.0204
12319TIP3   OH236899   2.166   6.692   4.234 -0.4859 -0.3359  0.0219
12319TIP3    H136900   2.235   6.635   4.268 -0.7593 -1.7816 -1.7902
12319TIP3    H236901   2.085   6.652   4.263 -0.6510 -0.3744 -0.4875
12320TIP3   OH236902   4.609   7.974   5.767  0.1166 -0.8579  1.0086
12320TIP3    H136903   4.544   7.999   5.832  1.1913 -1.3617  2.2842
12320TIP3    H236904   4.593   8.033   5.693 -0.5957  0.2369  2.0356
12321TIP3   OH236905   2.765   1.559   0.164  0.0489  0.2800 -0.5712
12321TIP3    H136906   2.766   1.652   0.188 -0.7344  0.0787  0.3028
12321TIP3    H236907   2.688   1.549   0.108 -2.2007 -0.5463  2.4904
12322TIP3   OH236908   4.661   4.657   6.786 -0.4611 -0.1518 -0.0385
12322TIP3    H136909   4.753   4.678   6.769 -0.5329 -2.1369 -3.2628
12322TIP3    H236910   4.663   4.571   6.826 -0.8561  0.3333  1.0258
12323TIP3   OH236911   1.253   5.861   5.923 -0.1580 -0.0837  0.1770
12323TIP3    H136912   1.269   5.768   5.939  1.3296  0.4230  1.8465
12323TIP3    H236913   1.330   5.891   5.874  0.4709  0.7211  1.6075
12324TIP3   OH236914   3.105   7.249   4.056  0.4113  0.2655 -0.6711
12324TIP3    H136915   3.132   7.305   3.983 -0.6556 -0.8710 -1.9845
12324TIP3    H236916   3.097   7.162   4.016  2.8349 -1.0181  1.4715
12325TIP3   OH236917   4.327   2.914   1.411 -0.0290 -0.0829  0.1420
12325TIP3    H136918   4.342   2.923   1.317 -0.2074 -1.2288 -0.0073
12325TIP3    H236919   4.415   2.904   1.449  0.0497  0.4846  0.1111
12326TIP3   OH236920   5.126   0.006   4.189  0.3752  0.0244 -0.3229
12326TIP3    H136921   5.109   0.100   4.193 -0.3011 -0.0367 -1.5191
12326TIP3    H236922   5.111  -0.018   4.097 -1.1306 -1.5526  0.2933
12327TIP3   OH236923   8.246   1.116   5.926  0.1492 -0.7514 -0.1038
12327TIP3    H136924   8.192   1.103   5.848  1.2211  0.0370 -0.9785
12327TIP3    H236925   8.336   1.107   5.895  0.5797 -0.4673  1.0522
12328TIP3   OH236926   3.960   6.654   6.302  0.9142 -0.4901 -0.1685
12328TIP3    H136927   4.022   6.636   6.231 -0.1196  0.0511 -1.2191
12328TIP3    H236928   3.942   6.748   6.295  0.5435 -0.5038  0.5971
12329TIP3   OH236929   4.316   7.873   6.000  0.1868 -0.6883  0.6049
12329TIP3    H136930   4.294   7.807   5.934 -0.3215  0.4922 -0.4373
12329TIP3    H236931   4.233   7.893   6.043 -0.2104  1.3233 -1.0314
12330TIP3   OH236932   4.378   7.201   6.244 -0.2037 -0.6071  0.0437
12330TIP3    H136933   4.308   7.195   6.179 -2.3671  0.2532  2.1938
12330TIP3    H236934   4.428   7.279   6.219 -1.5855  0.2621 -0.0693
12331TIP3   OH236935   5.606   6.948   5.499  0.2037  0.0759 -0.4323
12331TIP3    H136936   5.556   6.934   5.579 -0.2026 -2.3153 -1.0580
12331TIP3    H236937   5.685   6.894   5.511 -0.6744 -1.6961 -2.3336
12332TIP3   OH236938   3.807   5.667   4.232 -0.1828 -0.4128  0.1707
12332TIP3    H136939   3.810   5.651   4.326  0.2763  1.3183  0.4531
12332TIP3    H236940   3.730   5.723   4.219 -1.3818 -2.1968 -0.7398
12333TIP3   OH236941   4.162   7.300   6.045 -0.4490  0.3591 -0.2945
12333TIP3    H136942   4.121   7.385   6.030 -1.3391  0.0478  0.3518
12333TIP3    H236943   4.138   7.277   6.135  1.8633  0.5694  0.4273
12334TIP3   OH236944   4.733   6.113   4.848  0.4121  0.2056 -0.3643
12334TIP3    H136945   4.669   6.042   4.850  2.0104 -1.2891  1.9189
12334TIP3    H236946   4.771   6.109   4.760  2.2722 -3.5563  0.4794
12335TIP3   OH236947   4.033   5.453   5.821  0.0211  0.7047 -0.3627
12335TIP3    H136948   4.059   5.457   5.914 -1.1639 -0.1460  0.0119
12335TIP3    H236949   4.080   5.376   5.787  0.0679  0.7232 -0.3409
12336TIP3   OH236950   5.453   5.790   4.665 -0.4662 -0.1509 -0.2998
12336TIP3    H136951   5.366   5.822   4.641 -0.5388  0.5099  0.7854
12336TIP3    H236952   5.490   5.757   4.583 -1.7715 -0.5274 -0.7478
12337TIP3   OH236953   1.493   5.460   0.425 -0.0439 -0.0760 -0.5286
12337TIP3    H136954   1.465   5.528   0.364 -2.1473  0.6427  1.1349
12337TIP3    H236955   1.526   5.508   0.501 -0.3602 -0.9143  0.1469
12338TIP3   OH236956   4.977   7.467   3.476 -0.3625 -0.7918  0.0155
12338TIP3    H136957   4.959   7.554   3.441  1.6664  0.2085  1.3640
12338TIP3    H236958   4.914   7.457   3.547 -2.1762 -1.4233 -1.6299
12339TIP3   OH236959   0.521   1.820   0.026 -0.0437 -0.1267  0.2752
12339TIP3    H136960   0.556   1.904   0.056 -0.8900  0.0395  0.8064
12339TIP3    H236961   0.497   1.835  -0.065 -0.5034  0.3009  0.4680
12340TIP3   OH236962   7.212   5.720   5.943 -0.0875 -0.2229  0.0277
12340TIP3    H136963   7.137   5.781   5.946 -0.3579 -0.5872  0.8894
12340TIP3    H236964   7.238   5.719   5.851 -0.9445  0.1575 -0.2300
12341TIP3   OH236965   6.569   2.028   6.638 -0.2693  0.4443 -0.4186
12341TIP3    H136966   6.486   2.075   6.630  0.0233  1.0936  0.3289
12341TIP3    H236967   6.636   2.096   6.636  0.3971 -0.2023 -3.0627
12342TIP3   OH236968   5.252   5.281   3.493  0.0293 -0.5030  0.3887
12342TIP3    H136969   5.194   5.244   3.426 -1.3075  0.7454  0.8350
12342TIP3    H236970   5.285   5.362   3.455 -1.0670  0.4297  1.3993
12343TIP3   OH236971   3.904   7.157   6.885 -0.1399 -0.4739  0.3273
12343TIP3    H136972   3.889   7.233   6.828 -0.3844  0.1762  1.2416
12343TIP3    H236973   3.833   7.097   6.863  0.8786 -1.0680 -1.4224
12344TIP3   OH236974   3.602   7.180   6.374 -0.2940  0.2131  0.1016
12344TIP3    H136975   3.641   7.235   6.442 -0.7980 -1.2126  1.5607
12344TIP3    H236976   3.568   7.104   6.420 -1.8385 -0.1657 -1.5809
12345TIP3   OH236977   5.049   5.365   6.040  0.0674  0.0651  0.1254
12345TIP3    H136978   5.083   5.365   6.129 -0.8911  0.7984  0.5008
12345TIP3    H236979   5.124   5.388   5.985  0.5389  0.1223  0.7950
12346TIP3   OH236980   6.286   1.408   3.834  0.1544  0.3040 -0.3179
12346TIP3    H136981   6.348   1.438   3.767 -1.0600  0.8440 -1.2171
12346TIP3    H236982   6.221   1.357   3.785 -0.3337  0.0867  0.5518
12347TIP3   OH236983   1.987   6.475   5.603 -0.2637 -0.2712 -0.1942
12347TIP3    H136984   1.989   6.420   5.681 -1.1627 -0.3866 -0.2489
12347TIP3    H236985   1.944   6.555   5.631  0.7236  0.2807 -0.2060
12348TIP3   OH236986   3.881   7.328   3.997 -0.2259  0.1136  0.4176
12348TIP3    H136987   3.825   7.317   4.074 -3.4376 -0.7179 -1.8998
12348TIP3    H236988   3.834   7.393   3.944  1.3093 -0.2066 -1.3644
12349TIP3   OH236989   3.589   7.499   6.425  0.2880 -0.2297 -0.3387
12349TIP3    H136990   3.497   7.475   6.421  0.3745 -0.3683 -1.4742
12349TIP3    H236991   3.623   7.451   6.501 -0.2624 -1.2394 -0.7197
12350TIP3   OH236992   2.497   7.533   5.668 -0.6025 -0.4799 -0.5425
12350TIP3    H136993   2.519   7.623   5.643 -1.1964 -0.4195 -0.8585
12350TIP3    H236994   2.467   7.492   5.587  0.3017 -1.1698 -0.5406
12351TIP3   OH236995   4.941   7.118   5.510  0.3779 -0.0660 -0.3745
12351TIP3    H136996   4.872   7.125   5.576  0.6909  0.3059 -0.0838
12351TIP3    H236997   5.023   7.125   5.560  0.6581 -1.7304 -0.5674
12352TIP3   OH236998   4.597   4.948   4.810 -0.2682 -0.2318 -0.9563
12352TIP3    H136999   4.589   4.927   4.903 -1.7482 -0.7031 -1.1692
12352TIP3    H237000   4.551   4.877   4.765 -0.6744  0.6468 -1.9673
12353TIP3   OH237001   4.811   8.044   6.767 -0.0268  0.2815 -0.2084
12353TIP3    H137002   4.870   7.991   6.820  1.0115 -0.5775 -2.1475
12353TIP3    H237003   4.725   8.003   6.777  0.7669 -1.8048 -1.6766
12354TIP3   OH237004   7.415   0.213   3.386 -0.2435  0.1503 -0.4144
12354TIP3    H137005   7.393   0.128   3.424 -0.2649 -0.1188 -1.0343
12354TIP3    H237006   7.331   0.255   3.370 -0.2446  0.0355 -0.6972
12355TIP3   OH237007   4.676   5.796   5.383 -0.4753 -0.5896  0.0357
12355TIP3    H137008   4.768   5.785   5.360 -0.6172 -1.1153 -0.2874
12355TIP3    H237009   4.632   5.721   5.343 -1.3870  0.8623 -1.7734
12356TIP3   OH237010   7.189   6.271   5.497 -0.5609  0.4378 -0.1866
12356TIP3    H137011   7.150   6.298   5.581 -0.8810 -1.3066  0.2457
12356TIP3    H237012   7.271   6.320   5.491 -0.9444  1.2100  0.7410
12357TIP3   OH237013   5.060   6.872   5.078  0.3199  0.4623  0.2507
12357TIP3    H137014   4.993   6.926   5.119  1.3143  0.9345  1.2797
12357TIP3    H237015   5.012   6.804   5.032 -0.8066 -0.2200  2.3947
12358TIP3   OH237016   3.635   6.539   5.731  0.4161  0.3636 -0.1371
12358TIP3    H137017   3.620   6.473   5.664 -0.1016  1.5564 -1.2083
12358TIP3    H237018   3.548   6.560   5.765  0.5271  0.8240 -0.1235
12359TIP3   OH237019   8.455   3.444   0.827 -0.3637  0.7447 -0.2466
12359TIP3    H137020   8.421   3.533   0.835 -0.9555  0.7987 -3.0587
12359TIP3    H237021   8.454   3.426   0.733 -0.0041 -2.1393  0.2701
12360TIP3   OH237022   3.658   6.192   5.273  0.5611  0.4266  0.2159
12360TIP3    H137023   3.577   6.217   5.228  0.6972 -0.7491 -0.6759
12360TIP3    H237024   3.712   6.272   5.270  0.0846  0.7273 -0.6148
12361TIP3   OH237025   6.818   7.500   5.396 -0.0424  0.4501 -0.1894
12361TIP3    H137026   6.800   7.594   5.391  0.5425  0.5641 -0.1832
12361TIP3    H237027   6.896   7.493   5.451 -0.7334 -0.1201  0.7544
12362TIP3   OH237028   4.288   6.784   5.480  0.4253 -0.1858  0.4839
12362TIP3    H137029   4.212   6.779   5.422  0.3557 -1.1985  0.6607
12362TIP3    H237030   4.252   6.776   5.568  0.5696  1.0071  0.6566
12363TIP3   OH237031   3.775   7.590   3.617 -0.5046  0.2004 -0.3244
12363TIP3    H137032   3.836   7.547   3.557 -0.8935 -1.3089  0.3300
12363TIP3    H237033   3.765   7.528   3.689 -0.9791  1.4700  0.7213
12364TIP3   OH237034   1.546   1.466   1.352 -0.3441 -0.1458  0.0913
12364TIP3    H137035   1.606   1.540   1.363 -0.1346 -0.2655 -0.2723
12364TIP3    H237036   1.460   1.507   1.347 -0.0738  0.2168 -1.9935
12365TIP3   OH237037   4.226   3.790   5.406 -0.0119 -0.0482  0.3079
12365TIP3    H137038   4.187   3.747   5.329  0.6589  0.6258 -0.4232
12365TIP3    H237039   4.180   3.752   5.481 -0.5889 -0.8093 -0.4224
12366TIP3   OH237040   4.399   6.830   6.512 -0.1734  0.1987 -0.3157
12366TIP3    H137041   4.328   6.827   6.448 -0.3932 -1.7928 -0.0099
12366TIP3    H237042   4.474   6.864   6.464 -0.6299 -0.2580 -1.3578
12367TIP3   OH237043   4.018   5.294   6.165 -0.2463  0.5063 -0.1650
12367TIP3    H137044   3.933   5.277   6.125  0.4527 -2.8404 -0.4310
12367TIP3    H237045   4.003   5.283   6.259 -0.2190  0.3489 -0.1779
12368TIP3   OH237046   4.581   6.936   6.363  0.2145 -0.1114  0.6871
12368TIP3    H137047   4.657   6.897   6.320  0.9930  0.6433  1.3475
12368TIP3    H237048   4.544   6.996   6.298 -0.6107 -1.4603 -0.1048
12369TIP3   OH237049   1.725   1.890   0.608 -0.5770  0.0661 -0.2045
12369TIP3    H137050   1.645   1.914   0.561 -1.1560  0.8656  1.1715
12369TIP3    H237051   1.747   1.967   0.659 -2.4268 -2.1483  4.2505
12370TIP3   OH237052   6.968   5.987   5.459 -0.8299  0.0825  0.8238
12370TIP3    H137053   6.905   5.992   5.387 -0.3105  1.0510  0.4317
12370TIP3    H237054   6.913   5.984   5.538 -1.3846  0.0798  0.4452
12371TIP3   OH237055   3.100   7.486   6.792  0.0109 -0.0823 -0.6488
12371TIP3    H137056   3.186   7.452   6.819 -0.3059  1.0225  1.8826
12371TIP3    H237057   3.117   7.577   6.767 -0.6811  0.6698  1.5225
12372TIP3   OH237058   3.248   5.787   3.440 -0.3216  0.4450  0.7117
12372TIP3    H137059   3.333   5.769   3.399 -0.0437  0.9481  1.0664
12372TIP3    H237060   3.256   5.751   3.529 -1.8242 -3.0389 -0.4598
12373TIP3   OH237061   4.068   6.044   3.424  0.2330  0.4455 -0.0527
12373TIP3    H137062   4.016   6.033   3.504 -1.3741 -2.8137 -1.4777
12373TIP3    H237063   4.005   6.043   3.353  1.7866  1.9261 -1.5158
12374TIP3   OH237064   6.807   7.581   0.904 -0.3217  0.7822 -0.5178
12374TIP3    H137065   6.819   7.662   0.953 -2.4876  1.1582 -0.5361
12374TIP3    H237066   6.764   7.522   0.966  1.6938 -0.5355 -0.3455
12375TIP3   OH237067   1.557   7.298   5.922  0.0508  0.2866 -0.0413
12375TIP3    H137068   1.467   7.268   5.934  0.3827 -0.3622  0.8096
12375TIP3    H237069   1.602   7.275   6.003  1.1573  0.0086 -0.7213
12376TIP3   OH237070   2.653   7.552   5.259  0.5328  0.0543  0.3375
12376TIP3    H137071   2.688   7.565   5.347  2.4306  0.6588 -0.4737
12376TIP3    H237072   2.617   7.638   5.235 -0.1428 -0.1564  0.5792
12377TIP3   OH237073   6.583   0.112   6.198 -0.0807 -0.1257  0.0611
12377TIP3    H137074   6.661   0.138   6.246  0.5884  0.4095 -1.2733
12377TIP3    H237075   6.595   0.018   6.182 -0.3364 -0.3185  0.9744
12378TIP3   OH237076   3.812   7.822   4.363  0.1371  0.4833  0.2519
12378TIP3    H137077   3.728   7.809   4.406 -0.0831  0.8726 -0.0517
12378TIP3    H237078   3.802   7.782   4.277  0.5900 -0.3304  0.5791
12379TIP3   OH237079   7.119   1.489   6.620  0.1973  0.3025 -0.1220
12379TIP3    H137080   7.080   1.525   6.700  3.5685  1.3567  1.1715
12379TIP3    H237081   7.157   1.405   6.648  1.9710  0.9860 -0.3768
12380TIP3   OH237082   5.362   4.835   6.324 -0.1609 -0.1886 -0.3842
12380TIP3    H137083   5.427   4.841   6.394  0.5842 -0.6202 -1.0311
12380TIP3    H237084   5.384   4.907   6.265 -0.2304 -0.3831 -0.6441
12381TIP3   OH237085   3.068   6.785   6.560 -0.0471 -0.9701 -0.8672
12381TIP3    H137086   3.149   6.836   6.565 -0.0110 -0.9145 -1.8669
12381TIP3    H237087   3.007   6.832   6.617  1.0190 -1.7924  0.9975
12382TIP3   OH237088   6.793   0.023   4.168 -0.3083  0.4403 -0.2047
12382TIP3    H137089   6.751   0.100   4.206 -0.6985 -0.3786  1.0665
12382TIP3    H237090   6.883   0.026   4.201 -0.1614  0.6577 -0.6220
12383TIP3   OH237091   3.923   6.403   6.443 -0.0789 -0.1951 -0.1770
12383TIP3    H137092   3.997   6.364   6.396  1.1099  0.4121  1.1668
12383TIP3    H237093   3.923   6.495   6.415  1.1368  0.3698  1.5792
12384TIP3   OH237094   5.119   6.608   3.857 -0.3386  0.3067 -0.3661
12384TIP3    H137095   5.093   6.570   3.774 -0.2523  0.4660 -0.4662
12384TIP3    H237096   5.203   6.650   3.839  0.6845 -1.4003  0.2788
12385TIP3   OH237097   6.740   7.393   5.152 -0.5223 -0.2154  0.0428
12385TIP3    H137098   6.769   7.446   5.226 -0.9253  0.7718 -0.5055
12385TIP3    H237099   6.646   7.378   5.169 -0.6163  0.0181 -0.2716
12386TIP3   OH237100   4.734   7.053   5.095  0.1668  0.6694  0.0489
12386TIP3    H137101   4.732   7.031   5.002 -0.6158  0.7161  0.0541
12386TIP3    H237102   4.757   7.146   5.097 -0.6929  0.8905 -0.1346
12387TIP3   OH237103   4.420   5.745   3.044  0.0695 -0.4391  0.1591
12387TIP3    H137104   4.394   5.655   3.062 -0.0311 -0.5376 -0.4913
12387TIP3    H237105   4.360   5.798   3.097  0.2459 -0.7552  0.6815
12388TIP3   OH237106   5.267   6.989   4.946  0.8697 -0.2194  0.6118
12388TIP3    H137107   5.188   6.948   4.981  1.2971 -0.0431  1.8081
12388TIP3    H237108   5.328   6.990   5.019  2.0770 -0.5755 -0.3718
12389TIP3   OH237109   4.590   6.189   5.776 -0.2772 -0.1173  0.1632
12389TIP3    H137110   4.532   6.145   5.714  1.2082 -0.0348 -1.2972
12389TIP3    H237111   4.621   6.267   5.730  0.7698 -0.0032  1.0281
12390TIP3   OH237112   3.592   2.998   0.574  0.2322  0.2269 -0.0877
12390TIP3    H137113   3.536   3.073   0.556 -0.8531 -0.5062  0.1856
12390TIP3    H237114   3.576   2.939   0.500  0.9383  0.1836 -0.2075
12391TIP3   OH237115   4.988   7.208   2.226 -0.1926  0.0089  0.6613
12391TIP3    H137116   5.059   7.248   2.276 -1.7138  2.7578  0.7544
12391TIP3    H237117   5.031   7.167   2.151  1.6519  0.0878  1.6568
12392TIP3   OH237118   4.755   6.484   4.860 -0.1058  0.1053  0.2531
12392TIP3    H137119   4.688   6.424   4.893  0.2941 -0.8741 -0.6757
12392TIP3    H237120   4.738   6.490   4.766  0.8718  0.1443  0.0665
12393TIP3   OH237121   5.058   6.212   4.903  0.4961 -0.5349 -0.3005
12393TIP3    H137122   5.087   6.249   4.820  1.7407 -0.5580  0.1089
12393TIP3    H237123   4.967   6.187   4.888  0.8564 -0.9836 -1.7994
12394TIP3   OH237124   4.346   7.546   6.419 -0.0987 -0.2680 -0.1830
12394TIP3    H137125   4.310   7.528   6.332 -0.2292  0.1475 -0.2210
12394TIP3    H237126   4.381   7.635   6.412 -1.9170  0.5388  0.7577
12395TIP3   OH237127   6.541   7.682   6.724  0.6080  0.1234 -0.1955
12395TIP3    H137128   6.497   7.606   6.763 -0.4388  0.5030 -0.6125
12395TIP3    H237129   6.523   7.754   6.784  0.3409  0.3603 -0.5544
12396TIP3   OH237130   0.041   0.396   5.321  0.2993  0.0319 -0.2342
12396TIP3    H137131   0.085   0.429   5.242  0.5715 -0.2685 -0.2083
12396TIP3    H237132  -0.052   0.415   5.306  0.4703  0.9828 -0.1340
12397TIP3   OH237133   5.381   6.157   3.027 -0.5422 -0.0042 -0.3917
12397TIP3    H137134   5.320   6.087   3.051 -2.1995  0.5435 -2.7813
12397TIP3    H237135   5.336   6.238   3.051 -0.3917  0.3684 -1.3286
12398TIP3   OH237136   1.601   3.028   0.405 -0.4330  0.4136  0.1839
12398TIP3    H137137   1.568   3.040   0.494  2.2339 -0.4712  1.3178
12398TIP3    H237138   1.664   3.099   0.393 -0.3784  0.2007 -0.8088
12399TIP3   OH237139   7.628   1.417   5.626 -0.2880 -0.1034  0.0042
12399TIP3    H137140   7.666   1.504   5.636 -0.0887 -0.1259 -0.5161
12399TIP3    H237141   7.624   1.381   5.715 -0.7080  0.5745  0.2592
12400TIP3   OH237142   6.509   5.433   5.342 -0.2317 -0.2749 -0.0638
12400TIP3    H137143   6.564   5.502   5.381 -1.6315  0.2449  1.0103
12400TIP3    H237144   6.431   5.479   5.313 -0.2538 -1.0773 -1.2811
12401TIP3   OH237145   1.918   3.707   0.140 -0.2058  0.2488 -0.3879
12401TIP3    H137146   1.842   3.735   0.090  0.5203 -0.2788 -1.8205
12401TIP3    H237147   1.921   3.612   0.128  0.2319  0.1726  0.3014
12402TIP3   OH237148   2.923   5.172   5.583 -0.2088  0.2079  0.1066
12402TIP3    H137149   2.841   5.191   5.628 -0.8386  0.8664 -1.2536
12402TIP3    H237150   2.952   5.088   5.618 -0.2119  1.1312  2.3481
12403TIP3   OH237151   3.965   7.297   6.535  0.1404 -0.3903 -0.1221
12403TIP3    H137152   3.994   7.207   6.553  0.1659 -0.2125  0.7077
12403TIP3    H237153   3.871   7.296   6.552 -0.0341 -0.4999 -1.0551
12404TIP3   OH237154   8.243   1.479   0.534  0.3645  0.3480 -0.5451
12404TIP3    H137155   8.281   1.449   0.617 -0.2928  1.5804  0.2310
12404TIP3    H237156   8.149   1.463   0.544  0.2293  0.9332 -0.8658
12405TIP3   OH237157   4.218   1.810   4.484  0.1919  0.6748  0.4497
12405TIP3    H137158   4.268   1.891   4.473  0.3154  0.6682  0.9230
12405TIP3    H237159   4.283   1.745   4.510  0.2757  0.1291 -1.1156
12406TIP3   OH237160   2.226   5.499   4.465 -0.0269 -0.2298  0.2988
12406TIP3    H137161   2.260   5.451   4.390  0.7299  0.0518  0.4553
12406TIP3    H237162   2.145   5.540   4.433  0.6625  0.4749 -0.5648
12407TIP3   OH237163   3.019   5.645   5.981 -0.1643 -0.1082  0.1506
12407TIP3    H137164   3.096   5.611   6.026  0.1016  0.5737  0.2302
12407TIP3    H237165   3.030   5.740   5.984 -0.3496 -0.0348 -0.9921
12408TIP3   OH237166   4.421   7.482   5.660 -0.0625  0.3485 -0.0521
12408TIP3    H137167   4.437   7.391   5.636  0.7732  0.1668  1.1264
12408TIP3    H237168   4.482   7.533   5.606 -0.2552  0.1804 -0.4278
12409TIP3   OH237169   5.193   5.874   5.278  0.2056 -0.2800 -0.3530
12409TIP3    H137170   5.278   5.889   5.318  0.2735  2.0596 -1.3158
12409TIP3    H237171   5.176   5.952   5.225 -2.5033 -0.7298 -0.2495
12410TIP3   OH237172   2.376   7.895   3.266 -0.3840  0.0775  0.1187
12410TIP3    H137173   2.293   7.940   3.275 -0.7761 -0.6214  0.0458
12410TIP3    H237174   2.429   7.928   3.339 -0.4850  1.0205 -0.2312
12411TIP3   OH237175   5.646   6.462   5.766  0.0634  0.2995  0.0506
12411TIP3    H137176   5.699   6.541   5.779  1.4081 -0.5127 -0.3438
12411TIP3    H237177   5.615   6.440   5.854  0.3527  0.8029  0.2854
12412TIP3   OH237178   5.351   7.116   5.393 -0.5696  0.0464 -0.4269
12412TIP3    H137179   5.295   7.039   5.382  0.3560 -0.4644 -1.6293
12412TIP3    H237180   5.357   7.128   5.488 -4.0161  1.0827 -0.2550
12413TIP3   OH237181   3.721   6.825   5.394  0.5399 -0.0704 -0.2856
12413TIP3    H137182   3.744   6.792   5.307 -0.9820  0.2029 -0.7957
12413TIP3    H237183   3.643   6.775   5.419 -1.0179  2.2055 -0.5068
12414TIP3   OH237184   3.906   6.394   6.039 -0.0609  0.1512  0.7055
12414TIP3    H137185   3.989   6.428   6.073 -0.5355  0.6853  1.3545
12414TIP3    H237186   3.891   6.443   5.959 -1.2727  2.2627  2.1924
12415TIP3   OH237187   7.019   6.185   5.247  0.1750 -0.0772  0.5665
12415TIP3    H137188   7.029   6.280   5.239  0.6607 -0.1838 -0.1584
12415TIP3    H237189   7.001   6.156   5.158 -3.7183 -0.2573  1.3329
12416TIP3   OH237190   4.887   6.495   6.066  0.5094  0.0117  0.3309
12416TIP3    H137191   4.930   6.472   5.984  0.6144  1.4651 -0.0416
12416TIP3    H237192   4.895   6.590   6.071 -4.1519  0.5289 -0.5617
12417TIP3   OH237193   2.979   3.357   0.272  0.0784 -0.5076  0.2806
12417TIP3    H137194   2.968   3.412   0.349 -0.9334 -1.2695  0.7064
12417TIP3    H237195   3.071   3.366   0.248  0.4774 -0.5171  1.7768
12418TIP3   OH237196   7.389   0.918   6.280  0.1119 -0.0837  0.2225
12418TIP3    H137197   7.445   0.929   6.203  1.9773  0.9875  1.7132
12418TIP3    H237198   7.448   0.927   6.355 -1.6543 -1.2655  1.7946
12419TIP3   OH237199   6.012   6.782   4.685  0.1561 -0.0895  0.0467
12419TIP3    H137200   5.981   6.771   4.774  0.1358  1.3423  0.2358
12419TIP3    H237201   5.944   6.834   4.642  0.7479  0.2937 -0.4461
12420TIP3   OH237202   4.782   6.818   5.491  0.1040 -0.2309 -0.0432
12420TIP3    H137203   4.690   6.845   5.491  0.9307  2.6779  1.1186
12420TIP3    H237204   4.814   6.842   5.404  0.1768  0.1828  0.0989
12421TIP3   OH237205   4.107   6.164   3.772 -0.5083 -0.3944  0.3206
12421TIP3    H137206   4.051   6.199   3.841  1.5448  1.7111  0.9817
12421TIP3    H237207   4.170   6.110   3.819 -0.8736 -1.3045 -0.2342
12422TIP3   OH237208   4.640   6.068   5.411 -0.3926 -0.1238 -0.1261
12422TIP3    H137209   4.645   5.973   5.405 -0.8757 -0.1088 -0.8260
12422TIP3    H237210   4.559   6.085   5.459 -1.8011 -0.0200 -2.4361
12423TIP3   OH237211   5.044   5.368   4.954  0.0491  0.1534  0.3764
12423TIP3    H137212   5.134   5.341   4.974  0.3844  0.1229 -1.1551
12423TIP3    H237213   5.012   5.302   4.893 -0.3757  1.2131 -0.5414
12424TIP3   OH237214   4.492   1.939   0.322 -0.1863  0.2966 -0.2681
12424TIP3    H137215   4.479   1.951   0.228 -0.4413  1.1921 -0.1263
12424TIP3    H237216   4.571   1.990   0.342  0.2750 -0.4771 -0.1271
12425TIP3   OH237217   5.926   6.494   5.259  0.2072 -0.2383  0.5929
12425TIP3    H137218   5.879   6.494   5.342 -1.2134 -2.5858 -0.1475
12425TIP3    H237219   5.857   6.494   5.193  1.3174  0.3492 -0.5810
12426TIP3   OH237220   1.880   2.817   0.894  0.5723 -0.0089 -0.0962
12426TIP3    H137221   1.968   2.852   0.878  0.8904 -0.3790  0.7914
12426TIP3    H237222   1.893   2.722   0.900  0.1040 -0.0666  0.0024
12427TIP3   OH237223   1.703   5.283   5.195 -0.5634  0.0774  0.0812
12427TIP3    H137224   1.796   5.284   5.215 -0.2471 -0.7206 -1.2490
12427TIP3    H237225   1.684   5.371   5.162 -0.5536  0.6084  1.4673
12428TIP3   OH237226   3.183   1.815   1.599 -0.3365  0.2696 -0.3958
12428TIP3    H137227   3.161   1.745   1.661 -1.0335  0.6259 -0.2415
12428TIP3    H237228   3.135   1.792   1.520  0.2309  0.0374 -0.6794
12429TIP3   OH237229   4.659   6.304   5.084  0.4089  0.2402  0.3633
12429TIP3    H137230   4.688   6.261   5.165  2.3031  0.0802 -0.3950
12429TIP3    H237231   4.690   6.247   5.014 -0.2589  0.9604 -0.5358
12430TIP3   OH237232   2.968   4.962   5.784  0.3177 -0.1269 -0.5080
12430TIP3    H137233   2.929   4.877   5.764 -1.7427 -0.1505  3.2077
12430TIP3    H237234   3.007   4.950   5.871 -0.0960  2.7368  0.1110
12431TIP3   OH237235   5.135   7.248   4.524 -0.4111 -0.4877  0.2668
12431TIP3    H137236   5.047   7.225   4.492  0.5647  0.5305 -3.3837
12431TIP3    H237237   5.190   7.174   4.497  0.2365 -0.1090  0.5470
12432TIP3   OH237238   4.188   6.515   6.691 -0.2041  0.1407  0.0234
12432TIP3    H137239   4.102   6.554   6.682 -0.7279 -0.9939 -0.0569
12432TIP3    H237240   4.206   6.476   6.605 -0.1623 -0.7048  0.4101
12433TIP3   OH237241   4.584   7.430   6.921  0.0743 -0.6175  0.7462
12433TIP3    H137242   4.557   7.466   6.837  0.1407 -2.3853 -0.0444
12433TIP3    H237243   4.512   7.373   6.947 -0.4121  0.7017  2.4011
12434TIP3   OH237244   6.563   0.123   5.417  0.2574  0.0011  0.3039
12434TIP3    H137245   6.650   0.092   5.443 -0.4766 -2.4076  0.0085
12434TIP3    H237246   6.527   0.163   5.496  1.7059  1.1860  0.3730
12435TIP3   OH237247   3.724   7.014   6.119  0.1991  0.3732  0.2613
12435TIP3    H137248   3.685   6.989   6.035  1.0457 -1.0520  0.2756
12435TIP3    H237249   3.735   7.109   6.113  0.0134  0.3146 -1.1416
12436TIP3   OH237250   6.718   1.091   6.440  0.2114  0.5690 -0.6548
12436TIP3    H137251   6.659   1.103   6.514 -1.1921  0.9271 -1.8164
12436TIP3    H237252   6.780   1.164   6.445  1.8766 -0.9483  1.7594
12437TIP3   OH237253   5.982   6.101   5.655  0.3814  0.2638  0.7922
12437TIP3    H137254   6.060   6.071   5.703  0.1654 -1.1038  0.3004
12437TIP3    H237255   5.935   6.156   5.718  1.9717  1.4761  0.9524
12438TIP3   OH237256   3.334   6.647   4.661 -0.0297 -0.6456 -0.1469
12438TIP3    H137257   3.269   6.624   4.728  0.1923 -0.3059  0.1879
12438TIP3    H237258   3.287   6.637   4.578 -0.7803  0.4879  0.1325
12439TIP3   OH237259   2.135   7.887   4.822 -0.3085  0.4289 -0.2338
12439TIP3    H137260   2.115   7.926   4.907  0.1705 -0.0262  0.0919
12439TIP3    H237261   2.159   7.796   4.842  0.4658  0.5017 -0.7828
12440TIP3   OH237262   2.867   5.233   0.371 -0.2169 -0.2121  0.3238
12440TIP3    H137263   2.893   5.199   0.285 -0.6341 -1.5447  0.7126
12440TIP3    H237264   2.939   5.210   0.429 -1.1279 -1.7404  0.8883
12441TIP3   OH237265   6.229   0.601   6.772 -0.5308 -0.4358 -0.1735
12441TIP3    H137266   6.270   0.611   6.858  0.8001  0.7244 -0.9185
12441TIP3    H237267   6.161   0.667   6.769  0.8006  0.9301 -0.7889
12442TIP3   OH237268   2.490   7.337   3.883 -0.6334  0.3569 -0.3338
12442TIP3    H137269   2.510   7.243   3.878 -1.3450  0.0094  2.4539
12442TIP3    H237270   2.575   7.380   3.877 -0.2593 -0.4777 -1.1726
12443TIP3   OH237271   3.162   7.376   3.800 -0.6361 -0.0639  0.1249
12443TIP3    H137272   3.245   7.424   3.799 -0.7966  0.3304  2.0704
12443TIP3    H237273   3.114   7.409   3.724  0.3432  0.8900 -0.0968
12444TIP3   OH237274   3.865   1.260   6.100  0.4301 -0.0115  0.3850
12444TIP3    H137275   3.840   1.347   6.129 -0.8296 -0.0940 -0.4402
12444TIP3    H237276   3.946   1.274   6.050  0.7680  0.5426  1.0771
12445TIP3   OH237277   3.671   7.473   3.900 -0.6513  0.1013  0.3535
12445TIP3    H137278   3.662   7.565   3.925 -0.1053  0.0852  0.6143
12445TIP3    H237279   3.581   7.443   3.888 -0.8504  0.5614  0.6601
12446TIP3   OH237280   7.201   6.107   4.541  0.3574  0.4283 -0.1093
12446TIP3    H137281   7.142   6.091   4.466 -0.3591  0.0455  0.5290
12446TIP3    H237282   7.143   6.108   4.617  1.3801 -1.7934  0.7432
12447TIP3   OH237283   5.458   5.814   6.866 -0.4187 -0.4469  0.0234
12447TIP3    H137284   5.532   5.833   6.809 -0.2239 -2.5256 -0.4778
12447TIP3    H237285   5.388   5.790   6.806 -0.6672 -1.1816  0.5999
12448TIP3   OH237286   7.025   5.955   5.899  0.1061 -0.1085  0.0798
12448TIP3    H137287   6.954   5.908   5.855 -0.5444  3.4075 -2.8557
12448TIP3    H237288   6.986   6.038   5.925  2.5335  0.9203  0.5621
12449TIP3   OH237289   4.335   6.968   4.723  0.2401  0.4828 -0.0226
12449TIP3    H137290   4.373   6.901   4.780  0.5760  0.4973 -0.2276
12449TIP3    H237291   4.244   6.941   4.711 -0.1247  1.0384  1.3656
12450TIP3   OH237292   4.345   7.065   0.306 -0.5656 -0.1809  0.1977
12450TIP3    H137293   4.423   7.080   0.254 -0.1412 -0.3342  0.7857
12450TIP3    H237294   4.297   7.148   0.302 -0.5669 -0.2125 -0.4780
12451TIP3   OH237295   5.068   5.567   5.574  0.3278 -0.0711  0.2741
12451TIP3    H137296   5.037   5.623   5.504 -1.7812 -1.1376  0.3021
12451TIP3    H237297   5.163   5.574   5.571  0.1664  1.8250 -1.0673
12452TIP3   OH237298   2.209   0.488   0.690  0.6676 -0.2163 -0.7318
12452TIP3    H137299   2.276   0.444   0.637  0.9060  0.7725 -1.2621
12452TIP3    H237300   2.256   0.558   0.734 -0.1650  0.9440 -1.6767
12453TIP3   OH237301   7.305   6.794   4.249  0.2650 -0.0178 -0.0267
12453TIP3    H137302   7.274   6.792   4.340  0.5163  0.2223  0.0640
12453TIP3    H237303   7.378   6.732   4.247  0.1216 -0.1862 -0.1188
12454TIP3   OH237304   4.788   0.380   4.998  0.4070  0.3574  0.5960
12454TIP3    H137305   4.879   0.351   4.994  0.9225  1.4908  2.9516
12454TIP3    H237306   4.789   0.451   5.062 -1.8881  1.4077 -0.4779
12455TIP3   OH237307   1.502   4.170   5.828 -0.1663 -0.0957 -0.9539
12455TIP3    H137308   1.534   4.080   5.821 -0.2231 -0.2120  0.2229
12455TIP3    H237309   1.416   4.162   5.869  0.5571  0.6096  0.7483
12456TIP3   OH237310   2.550   6.798   4.999 -0.0450  0.0803  0.1117
12456TIP3    H137311   2.571   6.751   5.080  1.5251 -0.6597 -0.6924
12456TIP3    H237312   2.487   6.741   4.954  0.7559 -0.5902 -0.1881
12457TIP3   OH237313   3.860   6.303   3.141 -0.0942  0.4694 -0.4184
12457TIP3    H137314   3.875   6.216   3.178  1.7153 -0.9782 -4.2753
12457TIP3    H237315   3.767   6.302   3.116 -0.7790  0.6960  1.9211
12458TIP3   OH237316   4.972   7.927   4.045  0.4119 -0.0343 -0.0148
12458TIP3    H137317   4.947   7.844   4.085 -2.0540  0.9799  0.6724
12458TIP3    H237318   4.986   7.986   4.120 -1.2488  1.0509 -0.5092
12459TIP3   OH237319   2.441   0.990   0.143  0.1563  0.4115 -0.1460
12459TIP3    H137320   2.442   0.963   0.051 -1.2839  0.5039 -0.2002
12459TIP3    H237321   2.388   1.070   0.144 -1.6881 -0.8019  1.0814
12460TIP3   OH237322   1.964   1.332   0.082  0.3063 -0.0470  0.0648
12460TIP3    H137323   1.957   1.278   0.004  0.4985  0.9603 -0.6684
12460TIP3    H237324   1.917   1.284   0.150 -0.3808 -0.6475 -0.8280
12461TIP3   OH237325   2.988   6.794   6.275  0.2182 -0.2296  0.3418
12461TIP3    H137326   3.039   6.721   6.241  0.4395  0.5954 -1.1582
12461TIP3    H237327   3.022   6.808   6.364  0.8965 -1.2656  0.2491
12462TIP3   OH237328   5.165   2.608   1.364  0.4229 -0.5089  0.0592
12462TIP3    H137329   5.183   2.697   1.393  0.2556 -0.6786  0.7091
12462TIP3    H237330   5.081   2.586   1.406  0.3404 -0.8797 -0.2988
12463TIP3   OH237331   2.575   5.667   3.781  0.1833 -0.4292 -0.1971
12463TIP3    H137332   2.646   5.643   3.841 -0.6301 -0.3653  0.7901
12463TIP3    H237333   2.619   5.720   3.714  0.5551  2.4764  2.2030
12464TIP3   OH237334   3.602   3.838  -0.010  0.7390 -0.2043 -0.4627
12464TIP3    H137335   3.577   3.929   0.010  0.1202  0.2097 -2.9955
12464TIP3    H237336   3.553   3.786   0.054  0.9591  1.2276  0.9018
12465TIP3   OH237337   6.929   7.028   4.725 -0.4567  0.0089 -0.0899
12465TIP3    H137338   7.020   7.046   4.702  0.2372 -1.1252  1.6626
12465TIP3    H237339   6.905   7.098   4.785  0.5197 -1.7944  2.4748
12466TIP3   OH237340   6.447   6.861   4.969  0.3173  0.0861 -0.4041
12466TIP3    H137341   6.449   6.826   5.058  0.9700  1.9827  0.3698
12466TIP3    H237342   6.356   6.887   4.955  0.0485 -0.9683 -0.5901
12467TIP3   OH237343   4.373   6.307   5.095  0.6474  0.8087  0.6064
12467TIP3    H137344   4.467   6.300   5.107  0.5808 -1.0856  0.1725
12467TIP3    H237345   4.359   6.397   5.066  2.5748  0.4603 -1.5481
12468TIP3   OH237346   3.594   6.402   5.487 -0.7492 -0.4487  0.0873
12468TIP3    H137347   3.519   6.343   5.497 -0.7612 -0.5858 -0.8293
12468TIP3    H237348   3.567   6.466   5.421  0.4920 -1.4124 -1.3979
12469TIP3   OH237349   5.572   7.149   3.510 -0.0495  0.5257 -0.3053
12469TIP3    H137350   5.614   7.079   3.559 -1.9961  1.3633  2.7302
12469TIP3    H237351   5.589   7.129   3.419  1.7243 -2.4001  0.6185
12470TIP3   OH237352   2.718   6.794   4.684  0.2698 -0.1071 -0.5138
12470TIP3    H137353   2.727   6.844   4.765  0.1734 -0.2766 -0.3992
12470TIP3    H237354   2.807   6.786   4.651  0.4383 -0.9765  0.1396
12471TIP3   OH237355   6.826   6.541   5.062  0.3183  0.2682  0.3066
12471TIP3    H137356   6.912   6.515   5.095  1.2649  1.0572 -1.4395
12471TIP3    H237357   6.769   6.541   5.139  1.9155 -0.1133  1.5093
12472TIP3   OH237358   1.364   7.402   0.476 -0.5265 -0.1399 -0.3512
12472TIP3    H137359   1.349   7.404   0.570 -1.0618 -2.0174 -0.3739
12472TIP3    H237360   1.451   7.441   0.465 -0.5144  0.2186  0.8984
12473TIP3   OH237361   7.799   7.486   5.935  0.1475  0.3331  0.2672
12473TIP3    H137362   7.724   7.427   5.922  0.6077  0.1272 -1.6388
12473TIP3    H237363   7.760   7.574   5.936 -0.3550  0.1148  1.5286
12474TIP3   OH237364   6.187   6.356   4.502  0.3189  0.6605 -0.0433
12474TIP3    H137365   6.185   6.450   4.485  1.0894  0.8384  0.8441
12474TIP3    H237366   6.272   6.327   4.470 -0.0891  0.1757 -0.7190
12475TIP3   OH237367   7.183   7.125   4.649  0.2978 -0.0243  1.6860
12475TIP3    H137368   7.224   7.205   4.616 -0.0538  0.0455  1.4140
12475TIP3    H237369   7.218   7.114   4.737  0.4670  0.3443  1.6638
12476TIP3   OH237370   4.263   7.663   5.786  0.1625 -0.1595 -0.0394
12476TIP3    H137371   4.314   7.592   5.748  0.1127 -0.0151 -0.3808
12476TIP3    H237372   4.198   7.685   5.719 -0.8709 -0.8820  0.7071
12477TIP3   OH237373   8.458   6.628   6.328  0.3177 -0.0367 -0.1870
12477TIP3    H137374   8.517   6.701   6.345 -0.6728  0.8007 -0.3517
12477TIP3    H237375   8.372   6.668   6.318 -0.3918 -1.3167  0.6808
12478TIP3   OH237376   6.583   6.355   4.785  0.3605 -0.6240 -0.0129
12478TIP3    H137377   6.511   6.350   4.848  0.7145 -0.1898  0.4245
12478TIP3    H237378   6.614   6.445   4.791  1.7288 -1.1216  0.6861
12479TIP3   OH237379   6.347   7.839   5.845  0.2297 -0.1915 -0.1425
12479TIP3    H137380   6.286   7.907   5.877 -1.2877 -0.9263 -1.4311
12479TIP3    H237381   6.318   7.759   5.889  0.1833 -0.5651 -0.8481
12480TIP3   OH237382   7.694   5.947   6.508  0.1431  0.5958 -0.0624
12480TIP3    H137383   7.725   6.031   6.474  0.4133  0.1846 -0.8335
12480TIP3    H237384   7.669   5.897   6.430 -1.2308  0.4301  0.4626
12481TIP3   OH237385   7.955   5.410   5.698  0.1709  0.0840 -0.3818
12481TIP3    H137386   7.935   5.502   5.711  0.7108  0.2513 -0.6949
12481TIP3    H237387   8.017   5.389   5.768 -1.2839 -0.5046  0.7591
12482TIP3   OH237388   5.646   7.339   5.468  0.5330  0.0463  0.0942
12482TIP3    H137389   5.654   7.259   5.519  1.1016 -0.2627 -0.4741
12482TIP3    H237390   5.645   7.310   5.377  4.6096  0.8690 -0.3264
12483TIP3   OH237391   8.067   6.145   5.699  0.5306  0.5760 -0.2516
12483TIP3    H137392   8.063   6.214   5.634 -2.3396 -0.3213 -1.0933
12483TIP3    H237393   8.125   6.079   5.661  2.0669  1.8057 -0.1002
12484TIP3   OH237394   5.115   3.463   0.897 -0.0652 -0.5686  0.1699
12484TIP3    H137395   5.055   3.534   0.920  1.1061  1.3787 -2.4809
12484TIP3    H237396   5.141   3.425   0.981 -2.5309  0.6106  1.5116
12485TIP3   OH237397   6.864   6.428   5.588 -0.3772  0.3837 -0.2651
12485TIP3    H137398   6.919   6.372   5.533 -0.8160  0.4735 -0.8016
12485TIP3    H237399   6.777   6.386   5.584 -0.5082  0.6291  0.0171
12486TIP3   OH237400   6.089   7.792   4.665  0.3371  0.1797  0.5047
12486TIP3    H137401   6.133   7.878   4.668 -0.5974  0.6791 -0.1295
12486TIP3    H237402   6.003   7.808   4.702 -0.1111 -0.3277 -0.3112
12487TIP3   OH237403   7.215   7.430   6.043  0.1106  0.2484 -0.1016
12487TIP3    H137404   7.293   7.375   6.041 -0.1812 -0.2792  1.9594
12487TIP3    H237405   7.248   7.519   6.044  0.6103  0.1261 -2.0907
12488TIP3   OH237406   7.449   5.414   4.535  0.0616 -0.8610 -0.5526
12488TIP3    H137407   7.355   5.401   4.532  0.2626 -2.5688  0.0965
12488TIP3    H237408   7.484   5.350   4.473  0.6586  1.4871 -2.7254
12489TIP3   OH237409   3.006   3.074   0.349  0.6724 -1.0201 -0.4964
12489TIP3    H137410   3.071   3.021   0.303  0.2774 -0.7077 -1.4323
12489TIP3    H237411   2.999   3.154   0.297  0.2750 -0.6258  0.1533
12490TIP3   OH237412   2.024   0.163   3.119  0.0517 -0.8105 -0.4944
12490TIP3    H137413   2.076   0.210   3.184 -1.1281  0.6321 -0.5821
12490TIP3    H237414   2.061   0.074   3.119  1.3141 -0.3043  0.7443
12491TIP3   OH237415   1.392   4.683   0.762 -0.2759 -0.3385 -0.5310
12491TIP3    H137416   1.311   4.698   0.714 -0.5492  1.2017  0.3937
12491TIP3    H237417   1.369   4.622   0.832 -0.2904 -1.0801 -1.1686
12492TIP3   OH237418   6.287   6.941   3.513 -0.4028  0.1178  0.2699
12492TIP3    H137419   6.335   6.862   3.539  1.3698  0.9070 -0.5251
12492TIP3    H237420   6.245   6.971   3.593  1.4799  0.1218  1.2933
12493TIP3   OH237421   1.381   0.162   4.368  0.2734  0.3077  0.3270
12493TIP3    H137422   1.316   0.093   4.386 -0.1507  0.9912  1.4588
12493TIP3    H237423   1.462   0.129   4.406  0.5635 -0.4518 -0.9005
12494TIP3   OH237424   5.657   7.967   6.939  0.2021 -0.5672 -0.5425
12494TIP3    H137425   5.728   7.954   6.877  1.7355  0.3208  0.9714
12494TIP3    H237426   5.653   7.886   6.990  0.4683 -0.4275 -0.2978
12495TIP3   OH237427   3.451   2.723   0.757  0.1368  0.1163  0.1233
12495TIP3    H137428   3.434   2.779   0.681 -1.1770  0.1749  0.4408
12495TIP3    H237429   3.408   2.769   0.830  0.7971 -0.2865  0.7682
12496TIP3   OH237430   7.068   7.028   6.250 -0.3021 -0.0295 -0.7381
12496TIP3    H137431   7.032   7.031   6.339  2.0259  0.2021  0.2253
12496TIP3    H237432   6.994   7.053   6.194 -1.0464  2.7055  1.3512
12497TIP3   OH237433   6.294   5.157   3.690 -0.2407  0.0230  0.3232
12497TIP3    H137434   6.284   5.083   3.750 -0.3918  0.0249  0.3003
12497TIP3    H237435   6.219   5.214   3.710  0.6464  0.8616  1.3220
12498TIP3   OH237436   7.033   6.868   3.025  0.1774  0.0450 -0.1574
12498TIP3    H137437   7.032   6.830   2.938  0.5200  0.8120 -0.4967
12498TIP3    H237438   6.940   6.875   3.049  0.0869 -0.2367 -0.4260
12499TIP3   OH237439   6.789   7.406   6.328 -0.3079  0.1144  0.3281
12499TIP3    H137440   6.815   7.406   6.236 -0.1723 -0.4359  0.3624
12499TIP3    H237441   6.872   7.406   6.376 -0.3622 -0.7412  0.4412
12500TIP3   OH237442   4.614   2.268   0.119 -0.1787  0.0248  0.8052
12500TIP3    H137443   4.574   2.334   0.176 -1.6688  0.2799 -0.4868
12500TIP3    H237444   4.544   2.203   0.106  0.6990 -0.8908  0.6362
12501TIP3   OH237445   4.875   7.583   4.641  0.1020 -0.0436 -0.0431
12501TIP3    H137446   4.959   7.537   4.650  0.1231 -0.0439 -0.2613
12501TIP3    H237447   4.856   7.614   4.730  1.6690  2.3283 -0.4771
12502TIP3   OH237448   6.922   7.911   4.362  0.2607 -0.2805 -0.3546
12502TIP3    H137449   6.934   7.853   4.287 -0.7109 -0.6314 -0.2442
12502TIP3    H237450   6.880   7.856   4.429  2.4761 -0.3906  0.9929
12503TIP3   OH237451   3.759   1.691   1.250  0.1465  0.0144 -0.3621
12503TIP3    H137452   3.806   1.702   1.167  1.5486 -0.3642  0.3672
12503TIP3    H237453   3.814   1.734   1.315  1.0123 -3.0085  0.9881
12504TIP3   OH237454   8.510   7.067   6.086  0.4819 -0.0095 -0.0462
12504TIP3    H137455   8.444   7.129   6.117  0.7599  0.2910 -0.0404
12504TIP3    H237456   8.473   6.981   6.103 -0.6724  0.1448 -1.6873
12505TIP3   OH237457   7.021   6.403   5.971  0.3159 -0.4217  0.0472
12505TIP3    H137458   6.953   6.421   6.037 -0.1934 -0.8459 -0.3568
12505TIP3    H237459   7.071   6.330   6.008 -0.0865 -0.7850 -0.1178
12506TIP3   OH237460   6.612   6.243   2.016  0.3165  0.2591  0.1293
12506TIP3    H137461   6.620   6.149   2.003  1.1167  0.4512 -0.7970
12506TIP3    H237462   6.699   6.270   2.047 -0.4469  0.4057  2.2000
12507TIP3   OH237463   4.115   7.557   5.094 -0.4076  0.3901 -0.1500
12507TIP3    H137464   4.140   7.469   5.121 -0.5402 -0.3818 -2.3880
12507TIP3    H237465   4.173   7.616   5.142  1.1872 -1.0357 -0.2982
12508TIP3   OH237466   7.829   7.485   6.195  0.1724 -0.4750 -0.5326
12508TIP3    H137467   7.839   7.456   6.105  0.9559  0.5370 -0.7783
12508TIP3    H237468   7.748   7.536   6.195 -0.0835 -0.8804 -0.5559
12509TIP3   OH237469   3.380   4.252   0.223  0.7850  0.1107  0.0396
12509TIP3    H137470   3.387   4.256   0.319  1.3450  0.1262 -0.0040
12509TIP3    H237471   3.469   4.261   0.192  0.5838  0.2664 -0.4950
12510TIP3   OH237472   5.185   7.340   2.361 -0.2100 -0.2929  0.2054
12510TIP3    H137473   5.257   7.402   2.368 -0.7149  0.2996  0.2148
12510TIP3    H237474   5.207   7.270   2.421  1.5458 -1.2966 -1.5690
12511TIP3   OH237475   6.214   0.207   5.226  0.5118  0.4781  0.4635
12511TIP3    H137476   6.247   0.121   5.252  1.5638  0.7557  0.0568
12511TIP3    H237477   6.198   0.199   5.132 -3.0763 -0.4511  1.0526
12512TIP3   OH237478   7.839   6.266   5.820 -0.2170 -0.3376  0.5355
12512TIP3    H137479   7.803   6.294   5.735 -0.4256 -0.4710  0.5795
12512TIP3    H237480   7.914   6.212   5.796  0.7169  0.9614  0.4597
12513TIP3   OH237481   5.309   6.507   4.217 -0.4600 -0.8209 -0.1790
12513TIP3    H137482   5.307   6.598   4.247  0.7762 -0.4291 -1.2620
12513TIP3    H237483   5.348   6.459   4.290 -0.9585 -0.4581  0.3308
12514TIP3   OH237484   7.520   6.989   4.234 -0.2202 -0.4331  0.3720
12514TIP3    H137485   7.530   6.914   4.177 -0.0270 -0.6393  0.6734
12514TIP3    H237486   7.442   6.970   4.287  0.1035 -0.6439  0.7801
12515TIP3   OH237487   0.739   0.823   4.964 -0.3687  0.2039  0.5000
12515TIP3    H137488   0.746   0.919   4.968 -2.0793  0.3398  0.5627
12515TIP3    H237489   0.665   0.802   5.021 -1.0840 -0.9935 -0.8351
12516TIP3   OH237490   1.742   1.484   5.315  0.4800 -0.3843  0.4748
12516TIP3    H137491   1.817   1.519   5.363  0.2515  1.2459 -0.3448
12516TIP3    H237492   1.781   1.428   5.248  1.0255  1.1943 -0.5530
12517TIP3   OH237493   4.103   6.853   4.678 -0.0395  0.3393  0.4420
12517TIP3    H137494   4.039   6.911   4.637  1.7295  2.3561  0.4375
12517TIP3    H237495   4.101   6.774   4.624 -0.6732  1.3709 -1.1029
12518TIP3   OH237496   5.418   5.943   4.274 -0.0441 -0.6810 -0.3332
12518TIP3    H137497   5.386   5.908   4.358  0.7560  0.4878  0.4856
12518TIP3    H237498   5.495   5.890   4.254 -0.3310 -1.0696 -0.4119
12519TIP3   OH237499   3.306   3.541   0.413  0.0509  0.0667 -0.0842
12519TIP3    H137500   3.270   3.513   0.497 -0.2883  0.3038 -0.1507
12519TIP3    H237501   3.401   3.545   0.427  0.1411 -1.5888 -0.2224
12520TIP3   OH237502   4.526   5.267   0.647 -0.4287  0.0312  0.3322
12520TIP3    H137503   4.562   5.180   0.666  0.4433  0.4532  0.6103
12520TIP3    H237504   4.581   5.327   0.696  1.9410  1.1688 -3.4982
12521TIP3   OH237505   7.596   7.274   5.891  1.4780  0.6024  0.1264
12521TIP3    H137506   7.508   7.240   5.907  2.4552 -1.2234  1.7615
12521TIP3    H237507   7.581   7.354   5.839 -0.9697 -1.1073 -1.9580
12522TIP3   OH237508   8.252   0.627   4.425 -0.4712 -0.1098 -0.2540
12522TIP3    H137509   8.321   0.649   4.362 -0.1921 -2.2968 -0.7436
12522TIP3    H237510   8.220   0.712   4.455  1.3547  0.9538 -1.1945
12523TIP3   OH237511   5.786   6.606   4.795 -0.0968  0.8788 -0.1853
12523TIP3    H137512   5.824   6.669   4.856  1.4161  0.8844 -1.1139
12523TIP3    H237513   5.861   6.565   4.752 -1.1020 -0.3278 -0.8392
12524TIP3   OH237514   5.699   6.716   4.000  0.3663 -0.1599  0.1092
12524TIP3    H137515   5.741   6.717   3.914 -0.3393 -0.9944 -0.2525
12524TIP3    H237516   5.770   6.738   4.061  0.4872  2.2149 -0.8186
12525TIP3   OH237517   6.957   7.409   6.115  0.0214  0.0909  0.0657
12525TIP3    H137518   6.960   7.499   6.149 -1.2748  0.7423 -1.4783
12525TIP3    H237519   7.047   7.392   6.087  0.3108  0.8575  0.4896
12526TIP3   OH237520   7.510   7.654   4.097  0.0846 -0.1445  0.0268
12526TIP3    H137521   7.539   7.631   4.185  1.7991 -1.0035 -0.7495
12526TIP3    H237522   7.547   7.586   4.041  1.0070  1.7019 -1.6525
12527TIP3   OH237523   7.923   5.876   3.686  0.5387  0.1886  0.3460
12527TIP3    H137524   7.896   5.790   3.653  1.6262  0.3407 -1.0064
12527TIP3    H237525   7.842   5.916   3.718 -0.2322 -0.7462 -0.3820
12528TIP3   OH237526   5.633   7.294   6.788 -0.6194 -0.3674  0.3255
12528TIP3    H137527   5.610   7.333   6.704  1.2030  0.4677  0.1846
12528TIP3    H237528   5.654   7.203   6.768 -1.0720 -0.4033  0.0191
12529TIP3   OH237529   6.281   7.131   4.952 -0.4425  0.2690 -0.5915
12529TIP3    H137530   6.315   7.072   4.884  0.7536 -2.0324  1.9023
12529TIP3    H237531   6.196   7.093   4.976 -0.8462  1.0502 -0.7927
12530TIP3   OH237532   5.212   6.667   5.469 -0.5450 -0.9034  0.1726
12530TIP3    H137533   5.118   6.665   5.487 -0.4323 -1.8671  0.7029
12530TIP3    H237534   5.231   6.758   5.447 -1.6711 -0.7833 -0.2996
12531TIP3   OH237535   6.396   6.572   5.429  0.5493 -0.4703  0.2166
12531TIP3    H137536   6.439   6.494   5.393  1.1124 -0.1400  0.1657
12531TIP3    H237537   6.465   6.615   5.480  0.5166  0.5243 -0.5754
12532TIP3   OH237538   7.895   6.077   3.928 -0.3321  0.1813  0.9980
12532TIP3    H137539   7.929   5.992   3.956  0.5052  0.2374  0.1879
12532TIP3    H237540   7.968   6.138   3.944 -0.3109  0.4331 -0.0426
12533TIP3   OH237541   5.812   4.906   3.986  0.4616 -0.2885  0.6076
12533TIP3    H137542   5.749   4.969   3.952  0.4346 -1.3986 -1.4426
12533TIP3    H237543   5.765   4.860   4.055 -0.2052  0.4837  0.6715
12534TIP3   OH237544   6.345   7.292   5.905 -0.0928  0.1826  0.1339
12534TIP3    H137545   6.294   7.371   5.922  1.3784  1.4495 -1.1910
12534TIP3    H237546   6.360   7.292   5.810 -0.0219 -1.6576  0.1158
12535TIP3   OH237547   4.391   7.039   5.393  0.0466 -0.0679  0.4258
12535TIP3    H137548   4.351   6.971   5.448 -1.1305 -1.9601 -2.6649
12535TIP3    H237549   4.459   6.994   5.344  0.3835  1.3399 -0.4352
12536TIP3   OH237550   6.745   7.032   4.526  0.9207 -0.0392 -0.2849
12536TIP3    H137551   6.656   7.046   4.559  1.0699  1.3524 -0.4360
12536TIP3    H237552   6.799   7.023   4.605  0.3881 -2.6746 -0.2029
12537TIP3   OH237553   5.563   5.688   4.910  0.5060 -0.0735  0.4384
12537TIP3    H137554   5.526   5.712   4.825  1.3233 -0.1365  0.0609
12537TIP3    H237555   5.533   5.757   4.970 -0.3272 -0.1953  0.1666
12538TIP3   OH237556   5.887   7.185   5.569 -0.2849 -0.1630  0.1254
12538TIP3    H137557   5.927   7.192   5.482  0.6086  1.4216  0.6575
12538TIP3    H237558   5.948   7.130   5.619 -0.6875 -0.8889 -0.1657
12539TIP3   OH237559   7.828   7.450   5.558 -0.6431  0.2130 -0.1883
12539TIP3    H137560   7.829   7.370   5.611  0.5907 -0.2410 -0.8711
12539TIP3    H237561   7.771   7.429   5.484  0.6467 -0.4785 -1.0074
12540TIP3   OH237562   5.827   5.521   5.281  0.5194  0.1084  0.2824
12540TIP3    H137563   5.818   5.514   5.376  0.9251 -0.4566  0.2808
12540TIP3    H237564   5.794   5.437   5.247  1.4387 -0.1392 -0.0047
12541TIP3   OH237565   5.283   6.823   6.461 -0.3442 -0.1086  0.1300
12541TIP3    H137566   5.303   6.730   6.449  1.6017  0.2729  0.2508
12541TIP3    H237567   5.310   6.864   6.379 -1.6619  0.2832 -0.1094
12542TIP3   OH237568   0.018   0.843   5.485  0.0736 -0.3348  0.3913
12542TIP3    H137569   0.051   0.783   5.418  0.5637 -1.7506  1.8553
12542TIP3    H237570   0.059   0.927   5.465 -0.7270 -0.4249 -1.7752
12543TIP3   OH237571   8.074   6.938   5.339  0.1721  0.0153 -0.8382
12543TIP3    H137572   8.027   7.003   5.287  1.2043 -0.1447 -2.0123
12543TIP3    H237573   8.006   6.885   5.380 -0.6738  0.3002 -1.8527
12544TIP3   OH237574   6.331   7.147   3.917  0.1529  0.0926 -0.5269
12544TIP3    H137575   6.287   7.111   3.839 -0.6003  0.3581 -0.2262
12544TIP3    H237576   6.260   7.181   3.971  0.7657  0.8415 -0.1956
12545TIP3   OH237577   2.267   1.204   0.082  0.1791  0.0337  0.0107
12545TIP3    H137578   2.263   1.202  -0.014  0.9990 -1.0588 -0.0099
12545TIP3    H237579   2.304   1.289   0.103  1.6571 -0.4281 -0.7125
12546TIP3   OH237580   1.055   0.195   4.969  0.6026 -0.1515 -0.3141
12546TIP3    H137581   0.968   0.196   4.930  0.0641 -0.4908  0.8640
12546TIP3    H237582   1.071   0.285   4.997  1.0827  0.1425 -1.4873
12547TIP3   OH237583   5.529   5.152   4.328 -0.3483  0.6809 -0.4949
12547TIP3    H137584   5.575   5.175   4.248  1.8322 -0.2080  0.4582
12547TIP3    H237585   5.594   5.164   4.397 -1.9347  0.6046  1.0424
12548TIP3   OH237586   8.143   1.463   3.629 -0.2011  0.2679 -0.4470
12548TIP3    H137587   8.085   1.452   3.554 -1.5374  0.0965  0.5961
12548TIP3    H237588   8.188   1.378   3.637  0.4981  0.5322 -1.4977
12549TIP3   OH237589   8.406   0.310   6.110  0.1003  0.0177 -0.7579
12549TIP3    H137590   8.408   0.404   6.130  0.4140 -0.5147  1.7528
12549TIP3    H237591   8.318   0.282   6.132  0.5596 -0.6555  0.2181
12550TIP3   OH237592   4.788   7.315   5.057 -0.2429  0.3498 -0.3440
12550TIP3    H137593   4.784   7.372   5.135 -0.1423  2.0322 -1.5325
12550TIP3    H237594   4.699   7.313   5.024 -0.0166  0.8450 -1.0075
12551TIP3   OH237595   5.798   7.986   5.362 -0.3089 -0.8160  0.0321
12551TIP3    H137596   5.845   7.910   5.327  1.3947  0.6649 -0.9709
12551TIP3    H237597   5.769   8.034   5.284  0.2093  0.5235  0.6518
12552TIP3   OH237598   6.891   4.708   4.883  0.0971 -0.0772  0.0149
12552TIP3    H137599   6.931   4.785   4.842 -0.1651  0.6387  1.0958
12552TIP3    H237600   6.892   4.641   4.814 -2.5236  1.8319 -1.9419
12553TIP3   OH237601   5.969   7.885   6.917  0.2331 -0.0460 -0.3840
12553TIP3    H137602   5.915   7.824   6.867  1.2378 -0.1771 -1.3215
12553TIP3    H237603   6.053   7.841   6.926  1.5519  1.8692 -2.5937
12554TIP3   OH237604   7.039   6.088   4.990 -0.1078 -0.2420 -0.5903
12554TIP3    H137605   7.123   6.055   4.957 -1.0309 -2.0097 -1.2732
12554TIP3    H237606   7.002   6.137   4.917  0.1503  0.1792 -0.4357
12555TIP3   OH237607   0.815   1.365   4.886  0.2792 -0.2379  0.2944
12555TIP3    H137608   0.895   1.375   4.938  0.4511  0.7239 -0.1525
12555TIP3    H237609   0.838   1.398   4.799 -0.8737  0.8784  0.4032
12556TIP3   OH237610   1.355   0.241   4.111 -0.2603 -0.4148  0.8046
12556TIP3    H137611   1.359   0.226   4.205  0.4009  1.5326  1.1145
12556TIP3    H237612   1.369   0.336   4.101 -3.2771 -0.1188 -1.0746
12557TIP3   OH237613   3.899   6.034   3.647 -0.7612 -0.3788 -0.6800
12557TIP3    H137614   3.902   5.973   3.721 -1.3667 -0.8907 -1.0823
12557TIP3    H237615   3.963   6.101   3.670 -1.8734  0.1600  0.9161
12558TIP3   OH237616   3.195   5.635   4.134  0.3489  0.5202 -0.5270
12558TIP3    H137617   3.138   5.568   4.095  1.8787 -0.4279 -1.1766
12558TIP3    H237618   3.255   5.586   4.189  0.1848  1.5739  0.6152
12559TIP3   OH237619   6.264   6.941   4.745 -0.2675  0.2224  0.0838
12559TIP3    H137620   6.264   6.846   4.732  0.0351  0.3044 -0.5260
12559TIP3    H237621   6.171   6.966   4.742 -0.3843 -0.1251  0.7871
12560TIP3   OH237622   2.213   3.708   0.443  0.1053  0.6322  0.1231
12560TIP3    H137623   2.296   3.752   0.422  0.9608 -0.9179  0.2105
12560TIP3    H237624   2.201   3.645   0.372 -0.0265 -0.4728  1.1266
12561TIP3   OH237625   2.933   4.760   0.855  0.8106 -0.5375  0.1029
12561TIP3    H137626   2.976   4.840   0.887 -0.6597  0.3134  0.0117
12561TIP3    H237627   2.847   4.762   0.897  0.5636 -1.7866 -0.3479
12562TIP3   OH237628   5.715   7.814   3.255 -0.1506  0.1986 -0.0118
12562TIP3    H137629   5.751   7.890   3.300 -0.5384  0.4958 -0.2106
12562TIP3    H237630   5.647   7.849   3.197 -1.2432 -0.4257  0.8634
12563TIP3   OH237631   6.067   6.978   5.052  0.2738  0.3720  0.0183
12563TIP3    H137632   6.055   6.891   5.090  0.8246 -0.2051 -1.1079
12563TIP3    H237633   5.989   7.027   5.079 -0.5837 -0.8096 -0.2903
12564TIP3   OH237634   2.068   0.674   4.265  0.1364 -0.4792 -0.2107
12564TIP3    H137635   2.058   0.722   4.183 -3.0089 -1.6382 -0.5630
12564TIP3    H237636   2.068   0.582   4.240  0.1272 -0.8179  0.9830
12565TIP3   OH237637   4.466   5.950   6.620  0.1913 -0.6390 -0.1482
12565TIP3    H137638   4.499   6.040   6.613  0.7331 -0.8515 -0.2990
12565TIP3    H237639   4.408   5.952   6.697 -1.0040  0.2138 -1.0432
12566TIP3   OH237640   1.320   0.462   5.505  0.2016  0.2913 -0.1888
12566TIP3    H137641   1.341   0.528   5.571 -0.4420 -0.8081  1.1217
12566TIP3    H237642   1.400   0.412   5.494  0.6182  1.1234 -1.0066
12567TIP3   OH237643   6.037   5.383   6.392 -0.2052  0.4629  0.9734
12567TIP3    H137644   6.012   5.293   6.371 -0.8948  0.8541  0.0810
12567TIP3    H237645   6.039   5.386   6.488 -0.6995 -0.3559  1.0117
12568TIP3   OH237646   0.144   0.532   5.080 -0.0635 -0.0292 -0.2183
12568TIP3    H137647   0.235   0.562   5.084 -0.1596  0.1531  0.6152
12568TIP3    H237648   0.137   0.489   4.995  1.2216 -1.3793  0.3395
12569TIP3   OH237649   7.110   5.401   6.800 -0.2241  0.2454 -0.0197
12569TIP3    H137650   7.071   5.423   6.884 -0.8239 -1.3606  0.1227
12569TIP3    H237651   7.203   5.389   6.818 -0.4527 -0.7012  0.5274
12570TIP3   OH237652   7.895   0.359   5.057  0.8369 -0.0205 -0.3919
12570TIP3    H137653   7.967   0.412   5.024  1.2504 -1.0987 -1.2478
12570TIP3    H237654   7.934   0.306   5.126  0.5064  0.4875  0.1997
12571TIP3   OH237655   5.418   7.871   5.728 -0.7280  0.5138  0.4895
12571TIP3    H137656   5.358   7.813   5.681 -1.2346  0.2004  1.4959
12571TIP3    H237657   5.475   7.907   5.661 -0.1504 -1.4623 -0.1170
12572TIP3   OH237658   7.062   5.391   3.445 -0.3156 -0.4320 -0.4312
12572TIP3    H137659   7.105   5.475   3.464 -0.6503 -0.4139  0.2719
12572TIP3    H237660   7.035   5.398   3.353 -1.1194  0.5774 -0.1234
12573TIP3   OH237661   3.612   7.202   3.030 -0.0814 -0.6377  0.0489
12573TIP3    H137662   3.611   7.166   3.119 -1.8443 -0.6719  0.0365
12573TIP3    H237663   3.558   7.281   3.035  0.0234 -0.4972 -0.9307
12574TIP3   OH237664   0.098   6.493   3.563  0.3082 -0.5344 -0.0852
12574TIP3    H137665   0.043   6.429   3.517 -0.4108  0.8160 -1.1242
12574TIP3    H237666   0.037   6.538   3.622  0.7379 -0.5296  0.3543
12575TIP3   OH237667   1.642   3.805   0.029 -0.2238 -0.1315 -0.1104
12575TIP3    H137668   1.624   3.898   0.042 -0.7689 -0.2893  0.2529
12575TIP3    H237669   1.566   3.760   0.065  0.1293 -0.7282 -0.0979
12576TIP3   OH237670   2.527   0.608   6.172 -0.4100 -0.5642 -0.2526
12576TIP3    H137671   2.490   0.627   6.086 -0.0085  0.8345 -0.1348
12576TIP3    H237672   2.453   0.578   6.224 -1.2491  1.3796 -0.2713
12577TIP3   OH237673   5.651   7.303   4.594  0.2711  0.0702 -0.0646
12577TIP3    H137674   5.607   7.288   4.510  1.0953 -0.8537 -0.3417
12577TIP3    H237675   5.719   7.367   4.573 -1.8907  2.7134  0.6845
12578TIP3   OH237676   6.154   6.359   5.770 -0.4666  0.3445 -0.3877
12578TIP3    H137677   6.122   6.446   5.794 -3.6329 -0.6348 -0.8193
12578TIP3    H237678   6.154   6.359   5.674 -0.1131 -0.0048 -0.3883
12579TIP3   OH237679   7.201   3.911   0.296  0.4139  0.2317  0.1289
12579TIP3    H137680   7.197   3.839   0.234 -0.3780 -0.1334  0.5902
12579TIP3    H237681   7.174   3.873   0.379 -0.3362  1.1332  0.3093
12580TIP3   OH237682   7.488   6.709   3.402 -0.3657  0.4550 -0.3795
12580TIP3    H137683   7.569   6.759   3.414  0.2387 -0.2815 -1.3089
12580TIP3    H237684   7.435   6.731   3.478 -0.9064  3.9668 -1.6640
12581TIP3   OH237685   5.298   7.024   4.490  0.0461 -0.1724  0.5987
12581TIP3    H137686   5.250   7.011   4.572  1.3936 -1.8771  1.1506
12581TIP3    H237687   5.255   6.965   4.428 -0.7514  0.8587  0.1670
12582TIP3   OH237688   3.818   6.171   4.913  0.8307 -0.3135  0.2421
12582TIP3    H137689   3.887   6.138   4.971  2.1374 -0.7199 -1.5128
12582TIP3    H237690   3.815   6.265   4.932  0.6515 -0.5635  1.5538
12583TIP3   OH237691   3.791   0.740   5.293 -0.0191  0.1573  0.0801
12583TIP3    H137692   3.729   0.699   5.233 -0.2347  2.1862 -1.1207
12583TIP3    H237693   3.740   0.806   5.339  0.8224  0.5709  0.4287
12584TIP3   OH237694   6.542   6.543   6.232  0.0084  0.2495 -0.0745
12584TIP3    H137695   6.517   6.546   6.324  0.3968 -3.4891  0.2051
12584TIP3    H237696   6.460   6.538   6.184 -0.1209 -1.4125  0.2916
12585TIP3   OH237697   7.111   6.813   4.935 -0.5626 -0.5360 -0.1768
12585TIP3    H137698   7.085   6.738   4.880 -1.3742 -1.3597  1.3115
12585TIP3    H237699   7.183   6.779   4.988 -0.5285 -0.0627  0.0757
12586TIP3   OH237700   0.379   1.339   5.616  0.0244 -0.2571  0.1574
12586TIP3    H137701   0.407   1.275   5.551 -2.6501  0.2945 -1.5970
12586TIP3    H237702   0.394   1.424   5.575  0.7881  0.1888  1.3220
12587TIP3   OH237703   8.273   0.718   5.983 -0.4750 -0.4828  0.3867
12587TIP3    H137704   8.242   0.629   6.000 -1.2436 -0.5016 -1.0635
12587TIP3    H237705   8.322   0.711   5.902 -2.0924  0.7507 -0.7271
12588TIP3   OH237706   5.589   7.811   6.599 -0.1326  0.0793  0.0400
12588TIP3    H137707   5.552   7.862   6.528 -1.3033  0.5176  0.9524
12588TIP3    H237708   5.654   7.869   6.640 -1.9440  1.1142  1.5032
12589TIP3   OH237709   7.364   1.272   4.278 -0.5936 -0.0543 -0.1225
12589TIP3    H137710   7.367   1.342   4.343  0.4268 -1.0182  0.8968
12589TIP3    H237711   7.273   1.241   4.281 -0.1944 -1.0820  1.9301
12590TIP3   OH237712   5.834   7.537   5.114 -0.2576  0.6762 -0.0408
12590TIP3    H137713   5.884   7.510   5.191  0.3141 -1.3342 -1.0859
12590TIP3    H237714   5.894   7.594   5.066  0.7706 -1.0918 -0.8891
12591TIP3   OH237715   0.437   0.734   6.665  0.0286  0.1895  0.1059
12591TIP3    H137716   0.370   0.777   6.718  1.1890  0.1375  1.6314
12591TIP3    H237717   0.387   0.692   6.594 -1.7218 -1.1329  2.0493
12592TIP3   OH237718   6.689   5.904   6.558 -0.4783  0.0543 -0.1706
12592TIP3    H137719   6.718   5.973   6.618  1.4680 -1.7091  0.9899
12592TIP3    H237720   6.652   5.951   6.484  0.1267  2.3339  0.9151
12593TIP3   OH237721   5.519   6.548   4.725  0.1423  0.0693 -0.6085
12593TIP3    H137722   5.613   6.544   4.744  0.2145  0.8956 -0.7805
12593TIP3    H237723   5.493   6.637   4.747 -1.1845 -0.9141  2.0133
12594TIP3   OH237724   6.467   7.626   4.002  0.2959  0.4495  0.7737
12594TIP3    H137725   6.472   7.707   3.951  0.5178  1.7052  2.7303
12594TIP3    H237726   6.479   7.556   3.938 -2.1521  1.8666 -1.3099
12595TIP3   OH237727   0.244   6.910   6.434 -0.0551  0.7079 -0.3938
12595TIP3    H137728   0.193   6.848   6.486 -1.0310  1.7433 -0.0886
12595TIP3    H237729   0.291   6.963   6.498  0.0766  0.8678 -0.6193
12596TIP3   OH237730   5.832   2.731   0.191  0.4313  0.2015  0.2389
12596TIP3    H137731   5.825   2.639   0.166 -0.7895  0.4999 -0.5805
12596TIP3    H237732   5.897   2.767   0.131  1.0055 -0.1620  0.6470
12597TIP3   OH237733   2.290   5.011   0.466 -0.1657  0.2899  0.5527
12597TIP3    H137734   2.210   4.975   0.426 -0.4554  0.5601  0.8857
12597TIP3    H237735   2.332   5.059   0.395  0.2210 -0.7059  0.1075
12598TIP3   OH237736   2.811   2.288   1.315  0.3099  0.4610  0.2756
12598TIP3    H137737   2.850   2.208   1.282  0.2899  0.3415  0.5450
12598TIP3    H237738   2.738   2.259   1.369  0.4242  0.6541  0.5339
12599TIP3   OH237739   5.460   4.758   5.840 -0.0362  0.4833 -0.2242
12599TIP3    H137740   5.493   4.788   5.756 -0.5567  0.1689 -0.5415
12599TIP3    H237741   5.372   4.726   5.821 -0.7246  1.7857  0.7104
12600TIP3   OH237742   7.085   6.984   2.563  0.2014 -0.5699  0.0300
12600TIP3    H137743   7.039   7.013   2.642  1.7911  0.5586  0.5477
12600TIP3    H237744   7.038   6.905   2.537 -2.7535  1.1459 -0.0868
12601TIP3   OH237745   0.102   0.881   1.242 -0.1124 -0.3752 -0.3501
12601TIP3    H137746   0.133   0.954   1.295  2.3461 -1.0455 -0.8133
12601TIP3    H237747   0.059   0.822   1.305  1.1168 -0.2629  0.5973
12602TIP3   OH237748   2.513   1.546   0.019 -0.0987 -0.6202  0.6127
12602TIP3    H137749   2.520   1.613  -0.049 -1.0286  0.7403  1.8332
12602TIP3    H237750   2.420   1.543   0.041 -0.0056 -1.9996  0.9114
12603TIP3   OH237751   4.685   6.925   6.834 -0.4855 -0.1689  0.0989
12603TIP3    H137752   4.729   6.887   6.758 -0.5348  0.8629 -0.4500
12603TIP3    H237753   4.605   6.964   6.799  0.2583  1.6835  0.4239
12604TIP3   OH237754   4.830   6.545   5.772 -0.7152 -0.4345 -0.3883
12604TIP3    H137755   4.855   6.472   5.715 -0.2538 -1.2606  0.8601
12604TIP3    H237756   4.754   6.513   5.819 -0.2196 -0.2893  0.5181
12605TIP3   OH237757   7.850   5.737   6.656 -0.4079  0.3688 -0.4076
12605TIP3    H137758   7.770   5.685   6.670  0.5627 -1.2988 -0.8616
12605TIP3    H237759   7.824   5.805   6.595 -1.6619  0.2656 -0.0029
12606TIP3   OH237760   7.446   7.344   5.590  0.3761 -0.3476 -0.4342
12606TIP3    H137761   7.497   7.406   5.642  0.5857 -1.2803  0.4986
12606TIP3    H237762   7.362   7.336   5.635  0.8522 -1.7705  0.2506
12607TIP3   OH237763   2.705   3.780   1.214 -0.3746  0.2755  0.0543
12607TIP3    H137764   2.801   3.775   1.214 -0.3863 -0.2735  1.5057
12607TIP3    H237765   2.681   3.777   1.122  1.0108  0.3282 -0.3209
12608TIP3   OH237766   6.725   5.700   4.351  0.1663  0.2773  0.1613
12608TIP3    H137767   6.801   5.656   4.312 -0.9052 -0.7424 -0.8267
12608TIP3    H237768   6.712   5.657   4.435  0.2818 -0.0108  0.0315
12609TIP3   OH237769   5.011   1.673   0.573 -0.1646 -0.1753  0.1766
12609TIP3    H137770   4.941   1.646   0.514  0.3673 -1.9499  0.3401
12609TIP3    H237771   5.050   1.592   0.604  0.9889  0.7661  1.2766
12610TIP3   OH237772   5.108   2.238   1.581  0.3698  0.3559 -0.0947
12610TIP3    H137773   5.131   2.176   1.512 -0.1223  0.8417 -0.6990
12610TIP3    H237774   5.014   2.253   1.570 -0.3011 -1.6663  2.3973
12611TIP3   OH237775   2.539   4.836   0.358 -0.3529 -0.1820 -0.5199
12611TIP3    H137776   2.583   4.837   0.273 -0.4367 -0.7565 -0.5699
12611TIP3    H237777   2.507   4.925   0.369  1.5247  0.4691 -0.1273
12612TIP3   OH237778   3.866   3.257   0.402  0.6333 -0.1802  0.6973
12612TIP3    H137779   3.898   3.168   0.390  0.8253 -0.0199  0.0344
12612TIP3    H237780   3.883   3.276   0.495  0.7032 -0.7815  0.8092
12613TIP3   OH237781   7.142   6.207   6.121  0.1196  0.0671  0.3291
12613TIP3    H137782   7.133   6.164   6.207  1.3606  1.4795  1.1930
12613TIP3    H237783   7.204   6.152   6.073  0.9928  0.3897  1.0852
12614TIP3   OH237784   7.680   4.984   6.768  0.0882 -0.2680 -0.2159
12614TIP3    H137785   7.613   5.039   6.726  1.1937  0.1285 -1.5001
12614TIP3    H237786   7.660   4.989   6.861  0.4178  2.6936 -0.2566
12615TIP3   OH237787   5.955   7.759   4.206  0.0632  0.3232  0.5039
12615TIP3    H137788   5.980   7.697   4.275  0.5774 -1.2217 -1.0291
12615TIP3    H237789   6.032   7.762   4.148 -1.4135 -0.5899 -1.5419
12616TIP3   OH237790   5.908   5.643   4.097 -0.4564  0.8123 -0.3335
12616TIP3    H137791   5.912   5.654   4.002 -0.7460 -0.7227 -0.5401
12616TIP3    H237792   5.997   5.661   4.127  0.6447 -2.5392 -1.3589
12617TIP3   OH237793   4.742   6.545   2.618 -0.1570 -0.3852 -0.1618
12617TIP3    H137794   4.711   6.598   2.544 -0.9031 -1.0173 -0.3150
12617TIP3    H237795   4.675   6.477   2.628  0.4974 -0.9589  0.3938
12618TIP3   OH237796   4.352   7.503   4.598 -0.2145  0.2540 -0.1228
12618TIP3    H137797   4.288   7.573   4.584 -1.5735 -0.7209  1.0667
12618TIP3    H237798   4.304   7.422   4.580  1.0784 -0.4368 -0.5538
12619TIP3   OH237799   8.281   0.386   4.528  0.2391  0.5427 -0.5869
12619TIP3    H137800   8.278   0.476   4.497 -3.4969  0.6509 -0.2030
12619TIP3    H237801   8.263   0.333   4.451  1.1168  0.1908 -0.5566
12620TIP3   OH237802   1.492   0.540   6.564  0.3102  0.1231 -0.6977
12620TIP3    H137803   1.474   0.543   6.470  1.0335  1.0817 -0.8153
12620TIP3    H237804   1.575   0.586   6.574 -0.6617  1.6691  0.6256
12621TIP3   OH237805   4.634   0.918   0.022  0.0258 -0.2608  0.5548
12621TIP3    H137806   4.603   0.921  -0.068  2.0625 -2.1733 -0.2546
12621TIP3    H237807   4.610   1.003   0.059 -1.6911  0.1629 -1.4844
12622TIP3   OH237808   8.044   6.749   4.356 -0.1957  0.0477 -0.2579
12622TIP3    H137809   8.064   6.729   4.447  0.7517 -0.4790 -0.5725
12622TIP3    H237810   8.023   6.664   4.317 -1.6166  0.3993 -0.2983
12623TIP3   OH237811   6.937   5.972   4.050 -0.1464 -0.4455 -0.5561
12623TIP3    H137812   6.843   5.982   4.068  0.0632 -1.3117  1.1121
12623TIP3    H237813   6.945   5.885   4.011  0.0807 -0.7555  0.1802
12624TIP3   OH237814   0.507   6.189   6.445 -0.2863  0.0811  0.3580
12624TIP3    H137815   0.461   6.222   6.368  1.6576  0.8098 -0.5315
12624TIP3    H237816   0.496   6.258   6.511  0.0474  0.5464 -0.0669
12625TIP3   OH237817   7.501   6.597   4.235  0.0381  1.0020 -0.0712
12625TIP3    H137818   7.577   6.583   4.292 -0.0750  0.1151 -0.1214
12625TIP3    H237819   7.486   6.511   4.194 -0.8472  1.2322 -0.2401
12626TIP3   OH237820   5.660   6.086   1.735 -0.3591 -0.3664  0.1996
12626TIP3    H137821   5.684   6.144   1.663 -0.7116  0.6071  0.8552
12626TIP3    H237822   5.639   6.003   1.693  0.4509 -0.1194 -0.7216
12627TIP3   OH237823   6.688   7.282   1.896  0.0519 -0.0763  0.1683
12627TIP3    H137824   6.674   7.376   1.901  0.9757  0.0094  1.5867
12627TIP3    H237825   6.666   7.250   1.983  1.6326 -0.8972  0.2789
12628TIP3   OH237826   6.578   6.826   6.255  0.0384 -0.1719 -0.4197
12628TIP3    H137827   6.582   6.734   6.227  0.9995 -1.3058  3.0988
12628TIP3    H237828   6.597   6.822   6.349 -0.2370  3.6262 -0.1558
12629TIP3   OH237829   7.563   0.290   5.828 -0.1749  0.4315  0.2142
12629TIP3    H137830   7.485   0.248   5.791 -0.7529 -0.0470  1.9194
12629TIP3    H237831   7.602   0.222   5.883  0.7272  1.1000  0.4060
12630TIP3   OH237832   0.041   7.330   5.712  0.3512  0.8319  0.0591
12630TIP3    H137833   0.087   7.257   5.753  0.3767  1.7525  1.6985
12630TIP3    H237834   0.014   7.295   5.627 -0.1118 -1.2609  1.0194
12631TIP3   OH237835   7.216   6.367   3.217  1.0944  0.2701 -0.1812
12631TIP3    H137836   7.212   6.279   3.179 -1.0217  0.0305  0.5475
12631TIP3    H237837   7.221   6.426   3.142 -0.0310 -0.3527 -0.7485
12632TIP3   OH237838   6.127   5.744   4.932  0.7299  0.3076  0.1011
12632TIP3    H137839   6.106   5.681   5.001  1.4585  0.0051  0.0448
12632TIP3    H237840   6.042   5.772   4.898  0.2767  1.8166  2.3428
12633TIP3   OH237841   4.738   1.454   0.863 -0.3326  0.0159  0.1401
12633TIP3    H137842   4.651   1.454   0.823  0.4735  1.4862 -1.6882
12633TIP3    H237843   4.730   1.515   0.937 -1.3543 -1.3297  1.1553
12634TIP3   OH237844   7.195   5.822   5.682  0.4865  0.5151 -0.5627
12634TIP3    H137845   7.139   5.897   5.701 -1.1935 -0.6994 -0.6223
12634TIP3    H237846   7.257   5.855   5.616 -1.1541  1.4587 -1.6876
12635TIP3   OH237847   0.399   1.080   6.060  0.5511  0.6521  0.3348
12635TIP3    H137848   0.376   1.166   6.024  1.3245 -0.0268 -1.8179
12635TIP3    H237849   0.326   1.024   6.036  1.0846  0.1825 -0.1737
12636TIP3   OH237850   5.513   1.590   0.836  0.2243  0.3447 -0.2035
12636TIP3    H137851   5.482   1.637   0.913  0.9560  0.8359 -0.2013
12636TIP3    H237852   5.601   1.626   0.820  0.9313 -1.2435  0.0007
12637TIP3   OH237853   6.200   7.483   4.089  0.2898 -0.8629  0.3810
12637TIP3    H137854   6.292   7.502   4.071  0.5941 -1.0775  1.6113
12637TIP3    H237855   6.203   7.418   4.159 -0.7943 -0.1364  1.1174
12638TIP3   OH237856   5.498   6.825   6.111  0.2914 -0.6987  0.1704
12638TIP3    H137857   5.549   6.758   6.157 -0.5899  0.0915  2.3416
12638TIP3    H237858   5.564   6.873   6.060  1.4819 -0.8349  1.5367
12639TIP3   OH237859   7.072   6.735   6.605  0.4513  0.4594 -0.2954
12639TIP3    H137860   7.067   6.831   6.609  1.7747  0.5465 -0.3166
12639TIP3    H237861   7.116   6.710   6.687 -3.1359 -0.4334  1.4517
12640TIP3   OH237862   3.847   1.169   0.823  0.0663  0.6402  0.2126
12640TIP3    H137863   3.889   1.094   0.780 -0.5345  1.2607 -1.4732
12640TIP3    H237864   3.888   1.171   0.910 -0.1696 -1.8563  0.4372
12641TIP3   OH237865   7.059   4.670   3.082 -0.4700  0.0105 -0.2050
12641TIP3    H137866   7.004   4.600   3.046 -0.9394 -0.3913  1.2579
12641TIP3    H237867   6.997   4.726   3.129 -0.2412  1.9682 -2.2118
12642TIP3   OH237868   6.885   5.122   2.685  0.1238 -0.0766  0.7452
12642TIP3    H137869   6.892   5.119   2.780 -0.3468 -0.6533  0.7676
12642TIP3    H237870   6.949   5.057   2.654 -1.1300 -1.3484  0.7515
12643TIP3   OH237871   5.103   6.910   4.744 -0.4220  0.1904 -0.9269
12643TIP3    H137872   5.115   6.821   4.710 -0.7864  0.3268 -1.4319
12643TIP3    H237873   5.188   6.934   4.781 -0.3700 -0.4343 -0.6249
12644TIP3   OH237874   5.765   6.694   6.665 -0.2208 -0.6088  0.0204
12644TIP3    H137875   5.670   6.680   6.666  0.1484 -4.4629 -3.2264
12644TIP3    H237876   5.783   6.732   6.579  1.1982  0.1868  0.6487
12645TIP3   OH237877   3.545   7.704   4.434  0.4339 -0.2960  0.1858
12645TIP3    H137878   3.499   7.748   4.505  2.0331  0.3723  0.8311
12645TIP3    H237879   3.601   7.640   4.478  0.7473 -0.5193 -0.5305
12646TIP3   OH237880   8.139   7.089   4.064  0.1753  0.3208  0.1796
12646TIP3    H137881   8.230   7.119   4.072  1.5242 -4.0479  2.4291
12646TIP3    H237882   8.094   7.130   4.137  1.0601  0.0790  0.8718
12647TIP3   OH237883   6.655   0.461   6.690 -0.0425 -0.1303  0.7129
12647TIP3    H137884   6.658   0.537   6.749  1.6833  0.0975  0.3877
12647TIP3    H237885   6.581   0.478   6.632  1.0516  1.9833 -0.1603
12648TIP3   OH237886   5.868   7.974   6.018 -0.3178  0.7318  0.3809
12648TIP3    H137887   5.846   7.964   5.925  0.7934 -0.3191  0.2010
12648TIP3    H237888   5.785   7.969   6.064 -0.6139 -1.8448 -0.3489
12649TIP3   OH237889   7.763   5.772   5.942  0.9738  0.4093  0.2388
12649TIP3    H137890   7.738   5.864   5.947  0.6966  0.4406 -1.5822
12649TIP3    H237891   7.819   5.766   5.864  1.7667 -0.7908  0.8707
12650TIP3   OH237892   7.674   0.148   6.474 -0.7165 -0.2497 -0.5776
12650TIP3    H137893   7.626   0.087   6.417 -1.7846 -0.9694  1.0490
12650TIP3    H237894   7.651   0.121   6.563  0.9170  0.8628  0.2148
12651TIP3   OH237895   6.681   5.779   5.126  0.0601  0.5613  0.5637
12651TIP3    H137896   6.763   5.763   5.079  0.0199  0.0876  0.6610
12651TIP3    H237897   6.706   5.836   5.199 -0.1662  2.7992 -1.0568
12652TIP3   OH237898   0.229   0.836   5.212 -0.1320  0.7873  0.1182
12652TIP3    H137899   0.265   0.908   5.264 -0.1237  0.9167 -0.0655
12652TIP3    H237900   0.233   0.868   5.122  0.9634  0.1046 -0.0839
12653TIP3   OH237901   4.877   7.133   5.871 -0.1529 -0.1932 -0.2129
12653TIP3    H137902   4.835   7.100   5.792 -2.2005  0.8586  0.4160
12653TIP3    H237903   4.844   7.077   5.941 -1.3665  1.3190  0.4451
12654TIP3   OH237904   5.537   6.944   5.222  0.1665  0.5681 -0.0335
12654TIP3    H137905   5.535   6.928   5.316 -4.2066  1.7125  0.1562
12654TIP3    H237906   5.526   7.039   5.214 -0.9128  0.3065 -1.7420
12655TIP3   OH237907   7.294   1.140   4.731  0.1815  0.5641  0.1758
12655TIP3    H137908   7.376   1.186   4.718 -0.0417  0.8384 -0.2651
12655TIP3    H237909   7.317   1.065   4.787  0.9228  0.0524 -0.7972
12656TIP3   OH237910   7.205   7.545   4.706  0.3343 -0.4076 -0.2714
12656TIP3    H137911   7.281   7.490   4.723  0.5306 -0.7846 -2.2801
12656TIP3    H237912   7.228   7.594   4.627 -0.8144  0.7896  0.1144
12657TIP3   OH237913   7.082   5.712   3.093  0.1199  0.2723  0.2341
12657TIP3    H137914   7.161   5.721   3.146 -0.6399 -0.7294  1.5651
12657TIP3    H237915   7.040   5.633   3.125 -0.2760 -0.4673 -2.0181
12658TIP3   OH237916   6.606   6.057   5.844  0.2946  0.5122 -0.1160
12658TIP3    H137917   6.529   6.080   5.895  0.5516  1.2890 -0.0730
12658TIP3    H237918   6.580   5.978   5.796  0.0840 -0.2809  1.2653
12659TIP3   OH237919   7.734   7.223   5.026 -0.5607 -0.0249  0.0213
12659TIP3    H137920   7.705   7.307   4.989  0.4879 -0.3129 -1.5287
12659TIP3    H237921   7.665   7.162   5.003 -0.6101  0.1073 -0.1877
12660TIP3   OH237922   7.337   6.084   4.183  0.0350  0.3676 -0.2770
12660TIP3    H137923   7.262   6.027   4.200  0.2832 -0.3692 -1.5696
12660TIP3    H237924   7.412   6.025   4.177  0.3291  0.8485 -1.4369
12661TIP3   OH237925   2.620   4.133   2.148  0.4364  0.2320 -0.2375
12661TIP3    H137926   2.639   4.223   2.174  1.3911 -0.0040 -0.1218
12661TIP3    H237927   2.604   4.087   2.231 -1.9960  0.7120 -0.3819
12662TIP3   OH237928   6.001   5.773   6.458 -0.0247 -0.2716 -0.6884
12662TIP3    H137929   5.961   5.703   6.405  0.6703  1.1371 -3.1500
12662TIP3    H237930   6.086   5.788   6.417  0.8703  0.3466  1.3354
12663TIP3   OH237931   0.974   0.165   4.549 -0.3087  0.0803 -1.0490
12663TIP3    H137932   0.919   0.220   4.605  1.1556  0.2617  0.2218
12663TIP3    H237933   1.063   0.180   4.579  0.3613 -1.0263 -2.4039
12664TIP3   OH237934   2.928   1.781   1.377  0.2264 -0.2767 -0.3568
12664TIP3    H137935   2.869   1.791   1.452 -0.0254  1.1060 -0.7198
12664TIP3    H237936   2.911   1.692   1.345 -1.4971  0.0185 -0.3063
12665TIP3   OH237937   6.191   7.051   2.974 -0.0586 -0.2101  0.4957
12665TIP3    H137938   6.116   7.084   3.022 -0.3166 -1.4484  0.9868
12665TIP3    H237939   6.253   7.024   3.043 -0.2701 -1.6381  0.1415
12666TIP3   OH237940   5.472   0.144   4.888  0.0285 -0.3103  0.1371
12666TIP3    H137941   5.556   0.100   4.872  0.1140 -0.6708  1.5156
12666TIP3    H237942   5.492   0.212   4.952 -0.5192  0.3486 -0.3854
12667TIP3   OH237943   5.818   5.820   6.146 -0.3879 -0.0457 -0.0588
12667TIP3    H137944   5.849   5.741   6.190  0.5019  1.5780  2.3776
12667TIP3    H237945   5.723   5.819   6.159 -0.2484 -0.1361  1.0588
12668TIP3   OH237946   7.459   5.923   3.455  0.3189 -0.0769 -0.8526
12668TIP3    H137947   7.396   5.917   3.383 -0.5475  0.2255 -0.1127
12668TIP3    H237948   7.544   5.929   3.410 -0.1348 -0.8138 -1.8394
12669TIP3   OH237949   7.380   0.587   2.748  0.2202  0.6183  0.0396
12669TIP3    H137950   7.473   0.605   2.731  0.7256 -1.7758  0.0460
12669TIP3    H237951   7.349   0.546   2.667 -0.0892 -1.1664  1.0368
12670TIP3   OH237952   0.567   1.067   4.818  0.2893 -0.8471 -0.3736
12670TIP3    H137953   0.565   1.029   4.730 -0.6896  0.0170 -0.7294
12670TIP3    H237954   0.533   1.156   4.807  0.4934 -0.6111  0.8224
12671TIP3   OH237955   1.747   2.084   0.819  0.2569  0.2913 -0.1621
12671TIP3    H137956   1.691   2.029   0.873 -0.1753  1.1328  0.2423
12671TIP3    H237957   1.808   2.124   0.881  0.5351  0.3218 -0.4534
12672TIP3   OH237958   3.554   2.436   0.057 -0.5362  0.1424  0.2122
12672TIP3    H137959   3.466   2.449   0.021  1.0149  1.2462 -3.3200
12672TIP3    H237960   3.597   2.521   0.047  1.8729 -1.1652 -0.8247
12673TIP3   OH237961   1.109   0.311   3.482  0.6187 -0.1767 -0.9153
12673TIP3    H137962   1.091   0.358   3.401  0.5688 -1.3241 -1.5836
12673TIP3    H237963   1.097   0.376   3.551 -0.0817  0.6181 -1.7765
12674TIP3   OH237964   7.476   5.916   6.082  0.0411  0.0003 -0.3820
12674TIP3    H137965   7.478   5.827   6.116  2.6416  0.1248 -0.1236
12674TIP3    H237966   7.561   5.927   6.038 -0.4618  2.1580 -0.8768
12675TIP3   OH237967   1.460   7.291   4.435 -0.7257 -0.2233  0.0208
12675TIP3    H137968   1.510   7.271   4.514 -1.8529  0.4344  0.9062
12675TIP3    H237969   1.501   7.238   4.367  0.2733 -0.7700  1.0337
12676TIP3   OH237970   6.394   5.879   3.642 -0.2645 -0.1917 -0.2067
12676TIP3    H137971   6.441   5.898   3.723 -0.7411 -0.5414  0.1545
12676TIP3    H237972   6.309   5.845   3.670 -0.8638  0.7553 -0.8586
12677TIP3   OH237973   6.636   6.289   6.223 -0.0315 -0.4179 -0.0340
12677TIP3    H137974   6.700   6.304   6.153 -1.0063  0.3804 -0.7745
12677TIP3    H237975   6.584   6.370   6.225 -0.4048 -0.6744  1.2098
12678TIP3   OH237976   5.558   2.125   0.117 -0.6432 -0.3177  0.0574
12678TIP3    H137977   5.653   2.129   0.113 -0.6602 -0.7279 -1.2038
12678TIP3    H237978   5.537   2.033   0.100 -1.3142  0.1115 -1.6364
12679TIP3   OH237979   0.793   6.562   1.779 -0.9274 -0.0977 -0.8433
12679TIP3    H137980   0.846   6.549   1.700  2.1727 -3.1052  1.5727
12679TIP3    H237981   0.839   6.630   1.828 -1.3842 -0.0562 -0.4748
12680TIP3   OH237982   7.317   7.714   3.618  0.1461 -0.1186 -0.0579
12680TIP3    H137983   7.389   7.730   3.680 -0.3453  0.2099  0.4325
12680TIP3    H237984   7.262   7.650   3.662 -0.5673  0.6231  0.1408
12681TIP3   OH237985   2.686   0.828   5.298 -0.1899 -0.0267  0.0396
12681TIP3    H137986   2.674   0.878   5.217 -0.2542 -1.0524 -0.6022
12681TIP3    H237987   2.657   0.739   5.275  0.8854 -0.5926  0.8640
12682TIP3   OH237988   7.413   4.977   2.922 -0.1190 -0.6088 -0.2179
12682TIP3    H137989   7.498   5.017   2.905 -0.8102  1.6414  1.2849
12682TIP3    H237990   7.416   4.893   2.876  2.2486  0.1811 -1.6152
12683TIP3   OH237991   6.827   7.069   4.089 -0.9099 -0.4786 -0.1936
12683TIP3    H137992   6.885   7.101   4.157 -0.5322  1.5200 -1.4193
12683TIP3    H237993   6.741   7.102   4.113 -0.9355 -0.5291 -0.2143
12684TIP3   OH237994   2.090   0.052   5.311 -0.1468  0.1112  0.3253
12684TIP3    H137995   2.038   0.002   5.373 -0.0403  0.2060  0.4926
12684TIP3    H237996   2.051   0.140   5.312 -0.0820  0.1398  0.3317
12685TIP3   OH237997   3.621   4.202   0.995  0.7577 -0.1412 -0.2745
12685TIP3    H137998   3.622   4.206   1.091  2.1822  1.0151 -0.3197
12685TIP3    H237999   3.532   4.176   0.973  0.0808  0.7836  1.3236
12686TIP3   OH238000   7.761   6.283   3.259  0.1045 -0.0537  0.0494
12686TIP3    H138001   7.725   6.294   3.170 -1.3427 -0.3809  0.5752
12686TIP3    H238002   7.808   6.200   3.256 -1.8198 -1.1815  0.1656
12687TIP3   OH238003   7.609   4.726   6.726 -0.8638 -0.1209 -0.7759
12687TIP3    H138004   7.694   4.711   6.685 -0.7487 -0.8108 -0.3000
12687TIP3    H238005   7.609   4.818   6.750  0.3574 -0.4517  0.5693
12688TIP3   OH238006   7.380   6.005   2.786 -0.5859 -0.2399 -0.2227
12688TIP3    H138007   7.327   6.015   2.707  0.8456  0.9340 -1.0712
12688TIP3    H238008   7.440   5.933   2.765 -0.4336 -0.1582 -0.0702
12689TIP3   OH238009   7.333   6.307   4.386 -0.1364  0.2720  0.0605
12689TIP3    H138010   7.294   6.256   4.456  0.0097  1.8382  1.3024
12689TIP3    H238011   7.340   6.245   4.313 -0.8514 -1.2070  1.2103
12690TIP3   OH238012   8.300   5.944   4.865 -0.5072 -0.5241  0.0095
12690TIP3    H138013   8.267   5.925   4.777 -0.8473  0.3976 -0.0707
12690TIP3    H238014   8.243   6.014   4.897  0.3642 -0.0381  0.4995
12691TIP3   OH238015   6.993   5.671   4.290 -0.7189  0.5662  0.3206
12691TIP3    H138016   7.006   5.710   4.377  0.9140 -1.1087  0.8689
12691TIP3    H238017   7.057   5.716   4.235 -0.1052 -0.0179  0.5420
12692TIP3   OH238018   1.002   2.619   2.934 -0.3978  0.2320  0.6107
12692TIP3    H138019   1.061   2.669   2.991 -0.5002  1.8463 -0.6796
12692TIP3    H238020   0.917   2.624   2.978 -0.9034  3.0590 -0.5445
12693TIP3   OH238021   6.338   7.017   3.223 -0.0393 -0.4803 -0.6368
12693TIP3    H138022   6.296   7.037   3.306  0.2428  3.2812 -1.3382
12693TIP3    H238023   6.411   6.960   3.246  0.6646  1.3591  1.8348
12694TIP3   OH238024   3.727   0.767   6.257  0.5411 -0.3436  0.1517
12694TIP3    H138025   3.655   0.734   6.204 -0.5232  1.0505  0.7042
12694TIP3    H238026   3.723   0.862   6.247  2.1972 -0.2459  0.3303
12695TIP3   OH238027   0.941   6.687   4.790  0.2188  0.2744 -1.2354
12695TIP3    H138028   0.984   6.727   4.866 -0.2011 -0.0380 -0.8303
12695TIP3    H238029   0.853   6.724   4.790  0.4989  0.9458 -2.0931
12696TIP3   OH238030   0.677   0.045   3.728 -0.1833  0.0501 -0.0161
12696TIP3    H138031   0.731   0.121   3.751 -0.0829  0.3572 -1.2306
12696TIP3    H238032   0.727  -0.030   3.761  0.7117  0.3738 -0.6031
12697TIP3   OH238033   2.898   0.138   5.993  0.3041 -0.1965  0.2185
12697TIP3    H138034   2.904   0.174   5.904  0.1429  0.8803  0.6392
12697TIP3    H238035   2.820   0.083   5.991 -1.1347  1.7735  0.3519
12698TIP3   OH238036   5.695   7.338   6.521 -0.1160  0.1970  0.4673
12698TIP3    H138037   5.639   7.403   6.479  0.2872  0.5791  0.5141
12698TIP3    H238038   5.780   7.381   6.529  0.2828 -0.5025  0.0747
12699TIP3   OH238039   7.483   5.812   5.201 -0.2654  0.4474  0.2516
12699TIP3    H138040   7.408   5.873   5.196 -0.2922  0.3922 -0.0563
12699TIP3    H238041   7.449   5.730   5.166 -0.2787  0.2055  0.8314
12700TIP3   OH238042   1.142  -0.031   6.782 -0.1902 -0.1993  0.1260
12700TIP3    H138043   1.119   0.054   6.821 -3.3371 -0.3692 -1.1942
12700TIP3    H238044   1.181  -0.009   6.698 -0.3236 -0.0411  0.1054
12701TIP3   OH238045   7.653   6.784   4.473  0.4318 -0.2178  0.0243
12701TIP3    H138046   7.593   6.858   4.471  1.7098  0.8883  1.0163
12701TIP3    H238047   7.698   6.792   4.558 -0.8450 -3.3052  1.0394
12702TIP3   OH238048   3.086   0.483   5.841 -0.1622  0.0475 -0.0995
12702TIP3    H138049   3.072   0.393   5.810  0.4445 -0.1390  0.1594
12702TIP3    H238050   3.013   0.499   5.901 -0.3201 -0.2462 -0.2115
12703TIP3   OH238051   7.205   7.655   2.657 -0.1972 -0.1799 -0.3472
12703TIP3    H138052   7.270   7.665   2.727 -0.0562  0.1197 -0.5234
12703TIP3    H238053   7.252   7.609   2.588  0.1831  1.1292 -0.9689
12704TIP3   OH238054   0.718   6.962   5.224  0.0221  0.1281 -0.4922
12704TIP3    H138055   0.754   6.946   5.137 -1.3510 -1.1358 -0.8559
12704TIP3    H238056   0.625   6.983   5.208 -0.8912 -2.6971  0.8104
12705TIP3   OH238057   6.418   6.492   4.354 -0.4521  0.4335  0.1116
12705TIP3    H138058   6.400   6.548   4.430  0.2208  1.0062 -0.1534
12705TIP3    H238059   6.512   6.479   4.355 -0.3815  0.7959 -0.8708
12706TIP3   OH238060   8.005   5.773   6.307 -0.0706  0.4902  0.3145
12706TIP3    H138061   8.038   5.762   6.218  1.5866 -0.4143  1.0101
12706TIP3    H238062   7.911   5.756   6.300  0.4249 -2.1433 -0.8468
12707TIP3   OH238063   6.941   7.169   4.413 -0.3898 -0.0360 -0.5863
12707TIP3    H138064   6.889   7.103   4.458  0.0170 -1.0204 -1.5233
12707TIP3    H238065   6.975   7.226   4.482 -2.5318  0.4973  0.0431
12708TIP3   OH238066   1.398   1.065   1.960 -0.0031  0.0330 -0.2307
12708TIP3    H138067   1.384   1.011   1.883  0.2946  2.0024 -1.7074
12708TIP3    H238068   1.320   1.122   1.965 -0.4351 -0.6648  1.4328
12709TIP3   OH238069   0.575   6.728   5.757 -0.6872 -0.3218 -0.5828
12709TIP3    H138070   0.509   6.683   5.810 -0.4641 -0.6273 -0.5666
12709TIP3    H238071   0.655   6.723   5.808 -0.4563 -0.6712 -0.9747
12710TIP3   OH238072   6.411   6.583   5.868 -0.3908 -0.0720  0.6689
12710TIP3    H138073   6.380   6.624   5.787 -0.6759 -0.3040  0.6604
12710TIP3    H238074   6.462   6.651   5.912 -0.7238  0.2353  0.5771
12711TIP3   OH238075   7.476   7.935   5.824 -0.4661  0.1821 -0.3687
12711TIP3    H138076   7.467   7.925   5.729 -1.4347 -0.3783 -0.2285
12711TIP3    H238077   7.459   8.028   5.840 -0.5426  0.2305 -0.7223
12712TIP3   OH238078   2.799   1.510   0.528  0.3037  0.0220 -0.2421
12712TIP3    H138079   2.797   1.460   0.609  0.3217 -0.8835 -0.7903
12712TIP3    H238080   2.727   1.474   0.476  0.2104  0.6827 -0.5773
12713TIP3   OH238081   6.230   6.877   0.372  0.6340 -0.4568 -0.2873
12713TIP3    H138082   6.237   6.869   0.277 -1.3568  0.5190 -0.5469
12713TIP3    H238083   6.294   6.945   0.395  0.2727  0.1629 -1.0841
12714TIP3   OH238084   7.049   7.988   1.126  0.3141 -0.1646  0.1473
12714TIP3    H138085   7.144   7.974   1.119  0.4931  0.3714  1.3872
12714TIP3    H238086   7.039   8.045   1.203 -0.8141  1.8841 -1.4765
12715TIP3   OH238087   0.215   6.474   5.933  0.2473 -0.0142 -0.1246
12715TIP3    H138088   0.156   6.502   6.003  0.7309 -0.2724  0.3908
12715TIP3    H238089   0.262   6.554   5.908  1.5597 -0.3096  1.2819
12716TIP3   OH238090   7.674   6.502   5.116  0.3856  0.7712 -0.2521
12716TIP3    H138091   7.627   6.462   5.044  0.5731  0.5875 -0.2737
12716TIP3    H238092   7.751   6.541   5.076 -0.8361  2.9399 -0.5308
12717TIP3   OH238093   2.356   5.895   3.948 -0.6504  0.0888 -0.6506
12717TIP3    H138094   2.327   5.943   3.871 -1.5624 -0.1387 -0.4558
12717TIP3    H238095   2.294   5.822   3.957  0.0093 -0.4378 -0.2555
12718TIP3   OH238096   1.045   6.905   4.551 -0.0380 -0.1101  0.4448
12718TIP3    H138097   0.983   6.977   4.539 -1.9220 -1.3436  2.3228
12718TIP3    H238098   1.076   6.915   4.641  1.0812 -0.6286  0.1338
12719TIP3   OH238099   7.124   6.885   5.590  0.3994  0.0360  0.0038
12719TIP3    H138100   7.061   6.914   5.657  0.6286  1.6137 -0.4378
12719TIP3    H238101   7.074   6.825   5.536 -0.6733  1.0424 -0.1598
12720TIP3   OH238102   0.089   7.466   5.169 -0.2419 -0.0299  0.5105
12720TIP3    H138103   0.011   7.479   5.224 -0.6003 -0.5570  0.1311
12720TIP3    H238104   0.096   7.371   5.159 -2.8710  0.1077 -4.1411
12721TIP3   OH238105   7.637   6.582   5.642 -0.5261 -0.8096  0.2967
12721TIP3    H138106   7.671   6.562   5.555 -0.8688  2.2354 -0.5840
12721TIP3    H238107   7.543   6.566   5.636 -0.4210 -1.4812  0.3913
12722TIP3   OH238108   0.220   0.196   3.116  0.2578 -0.0802 -0.0664
12722TIP3    H138109   0.188   0.273   3.068  1.5693 -1.0861 -2.7070
12722TIP3    H238110   0.151   0.131   3.107 -0.8593  0.7579  2.1828
12723TIP3   OH238111   7.675   6.626   4.013  0.5251  0.2049 -0.0795
12723TIP3    H138112   7.715   6.658   4.094  0.7366  1.1020 -0.5230
12723TIP3    H238113   7.740   6.568   3.974  0.8428  0.5897 -0.1212
12724TIP3   OH238114   7.379   7.704   4.911 -0.1519  0.1707 -0.5268
12724TIP3    H138115   7.327   7.661   4.843  0.1362 -0.3508 -0.4221
12724TIP3    H238116   7.431   7.769   4.863  2.0126 -1.9860 -1.2174
12725TIP3   OH238117   4.532   2.197   1.069  0.2667  0.4429  0.7410
12725TIP3    H138118   4.560   2.184   1.159  4.6577  0.6363 -0.4704
12725TIP3    H238119   4.498   2.287   1.067  1.5355  0.9595  1.8990
12726TIP3   OH238120   7.473   6.120   2.330  0.1835  0.7024  0.3412
12726TIP3    H138121   7.500   6.033   2.302  0.5715  1.3172 -1.2238
12726TIP3    H238122   7.389   6.135   2.287 -1.5207 -0.1696  3.1802
12727TIP3   OH238123   6.955   6.763   4.695 -0.3466  0.0289  0.2046
12727TIP3    H138124   7.009   6.794   4.622 -1.0588  1.2545  0.1800
12727TIP3    H238125   6.917   6.843   4.732 -0.3889 -0.6328  1.6009
12728TIP3   OH238126   0.758   7.420   4.279  0.3108  0.2931 -0.3984
12728TIP3    H138127   0.698   7.480   4.325  0.3240  0.4332 -0.5636
12728TIP3    H238128   0.708   7.389   4.203  0.2550 -0.0153 -0.2359
12729TIP3   OH238129   5.493   7.215   2.749 -0.2811 -0.2918  0.2220
12729TIP3    H138130   5.583   7.246   2.760 -1.2214  1.8633  2.1292
12729TIP3    H238131   5.470   7.176   2.833 -1.2780 -0.3767 -0.0834
12730TIP3   OH238132   0.267   7.002   6.193 -0.3869 -0.2458  0.2106
12730TIP3    H138133   0.190   7.054   6.170  0.5597  0.5061 -1.4323
12730TIP3    H238134   0.252   6.974   6.283 -3.0819 -1.0608 -0.4345
12731TIP3   OH238135   7.884   5.651   3.167 -0.5592  0.0852  0.0663
12731TIP3    H138136   7.973   5.671   3.139 -0.0371  0.3404  1.8480
12731TIP3    H238137   7.849   5.596   3.097  1.0751 -0.2162 -0.5438
12732TIP3   OH238138   3.445   0.030   5.357 -0.0236 -0.4433 -0.3931
12732TIP3    H138139   3.354   0.027   5.389 -0.1048 -2.1071 -0.7108
12732TIP3    H238140   3.441  -0.015   5.273  0.5798  2.0252 -1.7687
12733TIP3   OH238141   7.658   7.086   3.482  0.3311  0.5658  0.4027
12733TIP3    H138142   7.576   7.124   3.512 -0.0563 -1.1104  1.5045
12733TIP3    H238143   7.721   7.108   3.550  0.0028 -1.1227  1.2737
12734TIP3   OH238144   6.869   7.061   3.343 -0.4687  0.0846 -0.1476
12734TIP3    H138145   6.899   7.081   3.431  0.2565  1.3361 -0.6583
12734TIP3    H238146   6.922   7.117   3.286 -2.9632  1.4833 -1.1773
12735TIP3   OH238147   0.922   0.540   3.231 -0.7516 -0.6017  0.6292
12735TIP3    H138148   0.955   0.601   3.165 -0.8952 -0.1987  0.9347
12735TIP3    H238149   0.986   0.468   3.231  0.5762  0.5634  1.8174
12736TIP3   OH238150   1.099   5.146   4.905 -0.2914 -0.2426 -0.3760
12736TIP3    H138151   1.107   5.235   4.939  1.4808  0.0525 -1.4815
12736TIP3    H238152   1.109   5.090   4.982 -2.6516  0.5217  0.5171
12737TIP3   OH238153   3.031   0.683   5.019  0.0659 -0.3333 -0.2290
12737TIP3    H138154   3.101   0.618   5.019  0.1332 -0.2642 -1.0532
12737TIP3    H238155   3.052   0.741   5.092  0.2970 -0.9254  0.1779
12738TIP3   OH238156   5.952   6.520   4.121  0.0123 -0.4594 -0.2911
12738TIP3    H138157   5.947   6.486   4.032 -0.0429  1.1725 -0.9353
12738TIP3    H238158   6.045   6.513   4.144 -0.0114 -1.1076 -0.3799
12739TIP3   OH238159   0.179   7.211   5.281 -0.6294 -1.3630  0.6877
12739TIP3    H138160   0.221   7.193   5.196  1.6101  2.2938  0.9201
12739TIP3    H238161   0.253   7.222   5.341 -2.1554 -1.6021  2.6331
12740TIP3   OH238162   1.867   0.242   3.879 -0.9280  0.2469  0.6274
12740TIP3    H138163   1.911   0.207   3.956 -0.5413 -1.4866 -0.3654
12740TIP3    H238164   1.791   0.185   3.866 -0.2468 -0.3169 -1.0499
12741TIP3   OH238165   7.801   6.953   4.725  0.0706 -0.1434 -0.5586
12741TIP3    H138166   7.719   6.998   4.706  1.1189  2.2791  0.4997
12741TIP3    H238167   7.786   6.913   4.811  0.2987  1.1023  0.0739
12742TIP3   OH238168   6.491   5.980   3.371  0.0612 -0.2897 -0.1916
12742TIP3    H138169   6.467   5.933   3.450  1.0160  0.6686  0.6872
12742TIP3    H238170   6.431   6.054   3.367  0.3458 -0.0493 -0.0770
12743TIP3   OH238171   7.981   6.314   5.075 -0.2778 -1.2160  0.0311
12743TIP3    H138172   7.961   6.329   4.982  2.1363  0.0243 -0.3251
12743TIP3    H238173   7.907   6.262   5.107 -1.3843 -1.2653 -2.4655
12744TIP3   OH238174   0.741   0.097   6.928  0.0112 -0.3975  0.1446
12744TIP3    H138175   0.792   0.154   6.985 -0.2072 -1.0746  1.0317
12744TIP3    H238176   0.665   0.151   6.903  0.3209  0.0465  0.1545
12745TIP3   OH238177   4.540   3.589   6.784 -0.0958  0.0912 -0.1057
12745TIP3    H138178   4.535   3.493   6.786  1.0096  0.0259 -0.3047
12745TIP3    H238179   4.570   3.610   6.696 -0.9099  0.6616 -0.2556
12746TIP3   OH238180   2.245   0.501   4.765 -0.2862  0.2527 -0.1469
12746TIP3    H138181   2.240   0.520   4.859  0.5145  0.3803 -0.1311
12746TIP3    H238182   2.249   0.586   4.722  1.8835  0.1718 -0.1488
12747TIP3   OH238183   7.517   7.432   3.557  0.2612  0.1210  0.3190
12747TIP3    H138184   7.461   7.355   3.552  0.9569 -0.4203  0.6168
12747TIP3    H238185   7.486   7.490   3.487 -1.1292  0.1592  0.9543
12748TIP3   OH238186   2.318   0.957   4.839 -0.0266 -0.4498 -0.3700
12748TIP3    H138187   2.285   1.046   4.852  1.9153  0.1100  0.9233
12748TIP3    H238188   2.366   0.962   4.757 -0.8219 -0.5861 -0.8494
12749TIP3   OH238189   7.714   4.893   6.200 -0.9152 -0.3722  0.2887
12749TIP3    H138190   7.774   4.832   6.242  0.2202  0.2686 -0.4049
12749TIP3    H238191   7.684   4.847   6.122  0.1333  0.0563 -0.3668
12750TIP3   OH238192   7.502   7.091   2.733  0.0293  0.2562 -0.0639
12750TIP3    H138193   7.424   7.085   2.789  0.1909 -1.0643  0.0299
12750TIP3    H238194   7.519   7.001   2.706  2.0730  0.3947  0.6623
12751TIP3   OH238195   4.793   7.045   3.816 -0.0785 -0.1767 -0.6031
12751TIP3    H138196   4.858   7.114   3.828 -1.0065  0.5809  0.1220
12751TIP3    H238197   4.781   7.038   3.721 -1.7505  2.3445 -0.6187
12752TIP3   OH238198   8.223   7.289   4.938  0.4535  0.1701  0.8215
12752TIP3    H138199   8.237   7.382   4.921  0.5482 -0.1391 -0.8828
12752TIP3    H238200   8.210   7.284   5.033 -0.2545  2.0047  0.8521
12753TIP3   OH238201   0.331   7.677   2.291 -0.5421  0.5374  0.3036
12753TIP3    H138202   0.386   7.683   2.213  1.1353  0.1626  1.4565
12753TIP3    H238203   0.333   7.585   2.316 -1.1857  0.6302  0.7235
12754TIP3   OH238204   0.266   7.105   3.645  0.5094 -0.2631  0.2607
12754TIP3    H138205   0.331   7.116   3.715  0.3408  0.9609  0.2441
12754TIP3    H238206   0.304   7.150   3.570  1.2043 -2.5420 -0.8102
12755TIP3   OH238207   0.118   6.170   4.748  0.1218 -0.2290 -0.1620
12755TIP3    H138208   0.051   6.138   4.808  0.1331  0.5718  0.2847
12755TIP3    H238209   0.075   6.239   4.698  0.2999 -0.4520 -0.6221
12756TIP3   OH238210   8.144   7.507   5.780  0.1564  0.3551  0.5589
12756TIP3    H138211   8.070   7.556   5.815 -1.0646 -0.4233 -0.8572
12756TIP3    H238212   8.139   7.422   5.824 -3.1425 -1.7026 -3.4648
12757TIP3   OH238213   5.948   4.973   4.914 -0.7450  0.0099 -0.4670
12757TIP3    H138214   5.938   5.009   4.826 -2.7024 -1.7805 -1.0098
12757TIP3    H238215   6.035   4.933   4.914 -0.7550 -0.0206 -1.5778
12758TIP3   OH238216   8.175   5.008   5.445  0.5895 -0.4277  0.2087
12758TIP3    H138217   8.148   5.036   5.357 -1.6534 -0.0043  0.9790
12758TIP3    H238218   8.260   5.049   5.459 -0.0296  1.3221 -0.9399
12759TIP3   OH238219   8.130   0.986   3.092  0.0215 -0.0828  0.1552
12759TIP3    H138220   8.127   1.061   3.032  0.0738 -1.4706 -1.6184
12759TIP3    H238221   8.066   0.925   3.057  1.0137 -1.4793  0.7596
12760TIP3   OH238222   7.331   7.452   2.532 -0.0457  0.4458  0.2215
12760TIP3    H138223   7.256   7.392   2.542  0.1149  0.2793  0.4408
12760TIP3    H238224   7.391   7.426   2.602  1.4614 -1.2451 -1.6631
12761TIP3   OH238225   7.703   7.272   2.087 -0.3598  0.3345  0.6950
12761TIP3    H138226   7.691   7.298   1.996 -0.9905 -0.0622  0.6548
12761TIP3    H238227   7.622   7.226   2.109 -0.8215  1.6805  1.9018
12762TIP3   OH238228   0.108   6.829   3.512  0.0888 -0.1628  0.1538
12762TIP3    H138229   0.127   6.740   3.540 -0.4487 -0.7219 -1.2112
12762TIP3    H238230   0.083   6.820   3.420  0.3790  1.4384 -0.0888
12763TIP3   OH238231   6.447   7.780   3.186  0.0494  0.0553  0.0009
12763TIP3    H138232   6.371   7.751   3.236  0.0647 -1.8592 -1.0394
12763TIP3    H238233   6.455   7.716   3.115  2.7370  0.1178  0.2118
12764TIP3   OH238234   7.527   7.379   2.715 -0.4559 -0.3781  0.4881
12764TIP3    H138235   7.515   7.284   2.703 -1.5344 -0.3717  1.3716
12764TIP3    H238236   7.617   7.389   2.744 -0.9092 -1.3284  2.2686
12765TIP3   OH238237   3.574   6.866   3.755 -0.8635 -0.5132 -0.0833
12765TIP3    H138238   3.592   6.957   3.779 -0.9894 -0.4763 -0.1295
12765TIP3    H238239   3.653   6.837   3.708 -1.3217 -0.0461 -1.1522
12766TIP3   OH238240   5.703   6.586   3.491  0.2081 -0.5708 -0.3587
12766TIP3    H138241   5.733   6.521   3.555 -1.4473  0.4127  1.5019
12766TIP3    H238242   5.781   6.637   3.470  0.4885  0.0972  2.1278
12767TIP3   OH238243   6.832   4.676   4.436  0.2451  0.2871  0.0899
12767TIP3    H138244   6.809   4.598   4.385 -1.1204  3.3473 -4.3623
12767TIP3    H238245   6.924   4.691   4.417  0.5357 -0.2624  1.0322
12768TIP3   OH238246   6.471   5.600   6.747  0.3480 -0.2891 -0.7865
12768TIP3    H138247   6.437   5.648   6.822  0.6538 -0.8770 -0.2659
12768TIP3    H238248   6.397   5.591   6.688 -0.4357 -1.6275  0.3742
12769TIP3   OH238249   6.414   4.322   2.938  0.2458 -0.1525  0.1271
12769TIP3    H138250   6.345   4.306   2.874  2.0420 -0.2140 -1.8611
12769TIP3    H238251   6.455   4.237   2.952  0.2490 -0.0277  0.9226
12770TIP3   OH238252   5.249   7.126   5.687 -0.1345  0.2765 -0.0678
12770TIP3    H138253   5.223   7.060   5.752  1.2099 -0.0319  0.1553
12770TIP3    H238254   5.303   7.188   5.736 -0.5696  1.0143 -0.5056
12771TIP3   OH238255   0.208   1.291   4.957 -0.1353  0.5212  0.2557
12771TIP3    H138256   0.298   1.311   4.931 -0.9683  0.7330 -2.5911
12771TIP3    H238257   0.155   1.361   4.918 -1.7853 -0.8132  0.0364
12772TIP3   OH238258   0.800   1.028   3.336  0.2076 -0.5190  0.0201
12772TIP3    H138259   0.752   1.085   3.277 -0.5001 -1.8740 -0.7493
12772TIP3    H238260   0.865   1.084   3.377 -0.9643  0.9834 -0.1565
12773TIP3   OH238261   6.771   6.962   6.101 -1.2154 -0.0729 -0.2921
12773TIP3    H138262   6.728   7.040   6.067  0.3730  1.2963  0.7953
12773TIP3    H238263   6.709   6.927   6.166 -2.2967 -0.2245 -1.3764
12774TIP3   OH238264   6.704   7.511   4.596  0.0204 -0.0316 -0.1230
12774TIP3    H138265   6.732   7.602   4.603 -0.0975 -0.0880  1.1493
12774TIP3    H238266   6.785   7.462   4.581  0.1526  0.2200 -0.2349
12775TIP3   OH238267   5.774   6.164   3.970 -0.5264 -0.0665  0.1783
12775TIP3    H138268   5.852   6.219   3.965 -0.1914 -0.4512  1.0441
12775TIP3    H238269   5.790   6.093   3.907 -0.3515  0.0635  0.0774
12776TIP3   OH238270   2.057   0.226   2.644  0.3995 -0.0259 -0.2366
12776TIP3    H138271   2.039   0.163   2.574  0.0063 -1.7623  1.3702
12776TIP3    H238272   2.007   0.193   2.719  1.7143  1.1440  1.1918
12777TIP3   OH238273   2.944   0.383   6.791 -0.1764 -0.5586  0.0040
12777TIP3    H138274   3.013   0.450   6.790 -0.4044 -0.2780  1.4118
12777TIP3    H238275   2.913   0.378   6.701 -0.0224  1.1066 -0.1464
12778TIP3   OH238276   0.386   7.162   2.511 -0.4792 -0.5302 -0.5380
12778TIP3    H138277   0.303   7.115   2.502 -0.5729 -0.3543 -0.5876
12778TIP3    H238278   0.375   7.240   2.457 -0.0963 -0.7546 -0.9406
12779TIP3   OH238279   7.124   6.343   3.481 -0.3586  0.0387  0.1793
12779TIP3    H138280   7.197   6.371   3.536  0.7993  0.6926 -1.6417
12779TIP3    H238281   7.156   6.354   3.391 -2.5373 -0.0876 -0.6399
12780TIP3   OH238282   4.942   6.603   5.457 -0.2016 -0.4383 -0.2410
12780TIP3    H138283   4.918   6.596   5.365  0.1296  1.0536 -0.4515
12780TIP3    H238284   4.886   6.673   5.491  0.2389 -0.4375  0.4956
12781TIP3   OH238285   2.576   0.256   4.320 -0.1269 -0.2195 -0.1341
12781TIP3    H138286   2.585   0.163   4.302 -0.0758 -0.3874  0.7564
12781TIP3    H238287   2.652   0.278   4.374  0.6811  0.6632 -1.6175
12782TIP3   OH238288   6.646   6.807   6.523  0.6261  0.5915 -0.2658
12782TIP3    H138289   6.713   6.741   6.505 -0.0584 -0.3653  0.6689
12782TIP3    H238290   6.652   6.822   6.617 -0.9212 -0.0106 -0.0574
12783TIP3   OH238291   6.019   7.348   4.699  0.3018 -0.4716  0.3415
12783TIP3    H138292   5.957   7.362   4.770  0.2630 -0.1378  0.2424
12783TIP3    H238293   6.068   7.430   4.693  0.2241 -0.4557 -0.0916
12784TIP3   OH238294   7.103   7.336   2.466  0.2137 -0.1510 -0.0235
12784TIP3    H138295   7.017   7.333   2.509 -0.0428  2.8152 -0.1818
12784TIP3    H238296   7.104   7.260   2.408 -2.7333  0.2954 -0.7375
12785TIP3   OH238297   3.660   0.350   6.542 -0.1412  0.6393  0.3224
12785TIP3    H138298   3.752   0.325   6.541 -0.5268 -0.9075  1.2529
12785TIP3    H238299   3.654   0.421   6.478  1.2066 -0.9624 -1.6654
12786TIP3   OH238300   4.118   3.723   1.058 -0.1534  0.1825 -0.4221
12786TIP3    H138301   4.167   3.715   0.976 -1.0987 -1.0813 -0.8667
12786TIP3    H238302   4.117   3.817   1.075  0.4201  0.4226 -1.6362
12787TIP3   OH238303   2.763   1.040   5.099 -0.2172 -0.4414 -0.2768
12787TIP3    H138304   2.855   1.018   5.112  0.4338  2.3974  0.3984
12787TIP3    H238305   2.760   1.083   5.014 -0.3336  2.2257  1.0118
12788TIP3   OH238306   7.931   5.551   2.183  0.0655  0.5374 -0.1643
12788TIP3    H138307   7.942   5.456   2.185  1.8703  0.7485  2.2422
12788TIP3    H238308   8.014   5.584   2.150 -0.7383  1.2855 -1.4902
12789TIP3   OH238309   6.618   7.193   6.405 -0.2164  0.0566  0.2321
12789TIP3    H138310   6.666   7.266   6.365 -0.8371 -0.3155 -1.2282
12789TIP3    H238311   6.680   7.154   6.466  1.1990 -0.1228 -1.2869
12790TIP3   OH238312   6.137   4.233   6.813 -0.5511 -0.7593  0.0859
12790TIP3    H138313   6.146   4.138   6.823 -0.9790 -0.7663  0.4273
12790TIP3    H238314   6.227   4.266   6.814 -0.5079 -0.8743  2.7635
12791TIP3   OH238315   8.291   6.672   4.809  0.1245  0.0821  0.3290
12791TIP3    H138316   8.371   6.653   4.858 -0.7834 -0.9447  1.4338
12791TIP3    H238317   8.255   6.750   4.853  1.7557  2.0473 -1.6963
12792TIP3   OH238318   0.661   5.508   4.228 -0.2458  0.4222  0.3970
12792TIP3    H138319   0.691   5.598   4.219  1.8180 -0.3279 -0.7991
12792TIP3    H238320   0.718   5.458   4.169  0.1081 -1.9467  2.6115
12793TIP3   OH238321   7.794   5.421   4.155 -0.6841  0.4861  0.3327
12793TIP3    H138322   7.742   5.495   4.123 -2.1081 -1.2017 -1.3534
12793TIP3    H238323   7.732   5.365   4.201  0.2631  0.0184  1.0517
12794TIP3   OH238324   7.356   6.747   3.644 -0.3241  0.3137  0.0581
12794TIP3    H138325   7.384   6.764   3.734  0.2454 -0.0346 -0.0463
12794TIP3    H238326   7.305   6.824   3.619  0.6826  1.0347  0.2131
12795TIP3   OH238327   2.244   0.012   3.473  0.0809 -0.5119 -0.1857
12795TIP3    H138328   2.183  -0.048   3.514 -1.2610  1.3735  0.6599
12795TIP3    H238329   2.220   0.098   3.508  2.8329  0.3496 -0.2724
12796TIP3   OH238330   1.717   0.605   4.463 -0.0720 -0.0022  0.5118
12796TIP3    H138331   1.797   0.658   4.463  0.3681 -0.6257  3.0388
12796TIP3    H238332   1.647   0.668   4.446  0.7342  0.9153  0.5116
12797TIP3   OH238333   7.312   7.823   3.955  0.0473  0.1041 -0.2570
12797TIP3    H138334   7.356   7.752   4.002  0.0928  0.6075  0.4740
12797TIP3    H238335   7.231   7.784   3.923 -0.4805  0.0143  1.1210
12798TIP3   OH238336   7.791   7.079   2.602 -0.4366 -0.3489  0.1514
12798TIP3    H138337   7.729   7.133   2.651  0.6034  0.4563  0.6171
12798TIP3    H238338   7.809   7.130   2.523  0.9036  0.2300  0.8076
12799TIP3   OH238339   6.327   6.462   3.326 -0.2101  0.0708  0.1438
12799TIP3    H138340   6.399   6.430   3.380  0.6256  3.5907  1.2946
12799TIP3    H238341   6.348   6.433   3.237  2.4895  0.7644  0.5130
12800TIP3   OH238342   8.228   7.361   2.291  0.2592  0.1516 -0.0798
12800TIP3    H138343   8.155   7.399   2.243  1.4019  0.3216 -1.6970
12800TIP3    H238344   8.228   7.408   2.375 -3.6457 -2.2706  1.4144
12801TIP3   OH238345   7.284   6.312   4.051 -0.0296  0.0787 -0.0929
12801TIP3    H138346   7.303   6.231   4.098 -1.2484 -0.5312 -0.6496
12801TIP3    H238347   7.354   6.319   3.986 -0.6424 -1.1686 -0.8800
12802TIP3   OH238348   6.891   7.749   3.343 -0.2439 -0.3411  0.7813
12802TIP3    H138349   6.805   7.759   3.383 -0.3810  1.4329  0.1079
12802TIP3    H238350   6.951   7.793   3.403 -0.0949  0.1499  0.2826
12803TIP3   OH238351   7.820   0.288   3.646 -0.3191  0.3816 -0.2213
12803TIP3    H138352   7.777   0.338   3.576 -2.0406  0.3735  0.8144
12803TIP3    H238353   7.775   0.204   3.647 -0.4404  0.4567  1.0553
12804TIP3   OH238354   4.830   1.388   4.799 -0.1047 -0.4233 -0.0280
12804TIP3    H138355   4.742   1.384   4.835  0.3337 -2.5998  0.8718
12804TIP3    H238356   4.888   1.385   4.875  0.7851  4.1064 -0.3805
12805TIP3   OH238357   2.226   7.268   6.670 -0.4178  0.1499  0.0974
12805TIP3    H138358   2.223   7.181   6.631 -1.5813  0.3007 -0.1521
12805TIP3    H238359   2.150   7.314   6.635 -1.2750  0.4258  2.2269
12806TIP3   OH238360   0.486   3.308   2.866 -0.1771 -0.4548  0.1947
12806TIP3    H138361   0.439   3.225   2.860 -0.3041 -0.3431 -0.4082
12806TIP3    H238362   0.566   3.287   2.914 -0.7980 -0.6552  1.1645
12807TIP3   OH238363   2.377   5.532   6.201 -0.7829 -0.4754 -0.2225
12807TIP3    H138364   2.424   5.571   6.275 -0.2996  0.0039 -0.7803
12807TIP3    H238365   2.392   5.438   6.210  1.0718 -0.2570 -0.9292
12808TIP3   OH238366   1.639   6.280   5.585 -0.2218  0.1319  0.0582
12808TIP3    H138367   1.711   6.241   5.536  0.6515  0.3383  1.1668
12808TIP3    H238368   1.666   6.370   5.600 -0.4574  0.0690  0.9271
12809TIP3   OH238369   1.076   6.052   6.048 -0.0965  0.7254 -0.5094
12809TIP3    H138370   1.153   6.014   6.007 -0.5471  1.4316 -2.0587
12809TIP3    H238371   1.060   5.998   6.125  1.3048 -0.0760 -0.7713
12810TIP3   OH238372   0.900   7.690   4.726 -0.3593  0.5405  0.8734
12810TIP3    H138373   0.976   7.678   4.668 -1.6728 -0.4137 -0.7122
12810TIP3    H238374   0.849   7.760   4.685 -1.7253 -0.7126  0.3962
12811TIP3   OH238375   7.938   2.945   1.012 -0.0531 -0.2915 -0.1052
12811TIP3    H138376   7.905   2.896   1.088 -0.1600  1.2238  0.8375
12811TIP3    H238377   7.946   3.035   1.043  0.5779  0.2146 -1.6966
12812TIP3   OH238378   3.395   0.696   6.809  0.2630 -0.0039  0.3288
12812TIP3    H138379   3.466   0.736   6.859 -0.8263  2.1807  0.1851
12812TIP3    H238380   3.391   0.747   6.728 -1.3302 -0.2443  0.2417
12813TIP3   OH238381   0.971   7.749   4.068 -0.0141  0.0059  0.2334
12813TIP3    H138382   0.936   7.784   4.150  1.7680 -1.8839  1.8657
12813TIP3    H238383   0.898   7.700   4.030 -0.6013  0.1353  1.1796
12814TIP3   OH238384   8.344   1.700   6.238 -0.3128  0.4273  0.0344
12814TIP3    H138385   8.252   1.677   6.245 -0.2936  0.5401  0.7401
12814TIP3    H238386   8.366   1.737   6.324  0.5930 -0.3732  0.1575
12815TIP3   OH238387   6.037   4.493   0.745 -0.2689  0.2047 -0.0294
12815TIP3    H138388   6.107   4.473   0.683 -0.7079  0.4252 -0.5931
12815TIP3    H238389   5.980   4.554   0.699 -2.5561 -2.3722 -0.7670
12816TIP3   OH238390   0.333   7.527   5.237 -0.1886 -0.1131 -0.1149
12816TIP3    H138391   0.329   7.571   5.322  2.5247  1.7537 -0.8829
12816TIP3    H238392   0.242   7.512   5.213 -1.0560  1.4970  2.0307
12817TIP3   OH238393   6.478   1.719   0.719 -0.1719 -0.1450 -0.2394
12817TIP3    H138394   6.426   1.779   0.772 -1.7275 -1.0127 -0.7481
12817TIP3    H238395   6.417   1.688   0.651  0.4490 -2.6518  0.2932
12818TIP3   OH238396   2.587   7.395   6.412 -0.5051 -0.7268 -0.6853
12818TIP3    H138397   2.578   7.390   6.507  0.8523  0.0567 -0.5043
12818TIP3    H238398   2.670   7.351   6.393 -0.2068  0.1143 -1.3920
12819TIP3   OH238399   0.633   7.628   6.620  0.2002 -0.2189  0.3307
12819TIP3    H138400   0.697   7.688   6.658 -0.7947  0.7138  0.5758
12819TIP3    H238401   0.644   7.636   6.526 -2.4438  3.2429  0.2057
12820TIP3   OH238402   1.590   7.092   5.763  0.1653 -0.2788  0.2847
12820TIP3    H138403   1.590   7.162   5.828  4.0301  1.1578 -1.1495
12820TIP3    H238404   1.611   7.013   5.812  2.3800  0.6849  0.9237
12821TIP3   OH238405   4.163   0.102   6.883 -1.3717  0.1791 -0.3614
12821TIP3    H138406   4.246   0.061   6.905 -2.0835 -0.8343  0.4755
12821TIP3    H238407   4.120   0.115   6.967 -2.3240  0.1431 -0.8356
12822TIP3   OH238408   5.964   2.631   1.406 -0.0758  0.4974 -0.1310
12822TIP3    H138409   5.875   2.660   1.424 -0.8448 -0.5613 -2.0553
12822TIP3    H238410   6.005   2.706   1.362 -0.8443  0.1092 -1.5660
12823TIP3   OH238411   6.313   4.364   0.381  0.1160 -0.2172 -0.3180
12823TIP3    H138412   6.347   4.284   0.423 -0.6989 -0.5466 -0.2774
12823TIP3    H238413   6.334   4.434   0.444  2.0671 -0.1742 -0.9670
12824TIP3   OH238414   4.349   0.143   5.778 -0.2589  0.2856  0.0165
12824TIP3    H138415   4.323   0.084   5.849  0.2559 -0.7145 -0.6006
12824TIP3    H238416   4.433   0.107   5.747 -0.1190  1.1396 -0.6073
12825TIP3   OH238417   6.526   1.928   0.220 -0.1272  0.4659  0.0989
12825TIP3    H138418   6.620   1.939   0.236  0.1348 -2.1351  0.4943
12825TIP3    H238419   6.521   1.869   0.145 -1.4691  2.9241 -1.8126
12826TIP3   OH238420   4.878   0.358   6.440  0.7628  0.3230 -0.1239
12826TIP3    H138421   4.902   0.436   6.389  1.2565 -0.8951 -1.8232
12826TIP3    H238422   4.794   0.380   6.479  0.2211  1.2211 -1.7291
12827TIP3   OH238423   1.546   6.864   6.860 -0.0604  0.1294  0.2483
12827TIP3    H138424   1.602   6.818   6.922  0.6618  1.0369  0.2756
12827TIP3    H238425   1.459   6.862   6.899  0.5943  1.6779  1.8442
12828TIP3   OH238426   1.298   5.105   4.698  0.6653  0.3005 -0.8475
12828TIP3    H138427   1.364   5.171   4.719  1.6434 -1.0647  0.4668
12828TIP3    H238428   1.223   5.127   4.752  0.5212  1.0973 -1.3745
12829TIP3   OH238429   4.690   0.201   6.651 -0.2017  0.2183 -0.3607
12829TIP3    H138430   4.672   0.171   6.740  0.9413  0.4065 -0.0492
12829TIP3    H238431   4.651   0.288   6.647  0.6381  0.6327  0.3043
12830TIP3   OH238432   7.263   2.410   0.699 -0.2524  0.0730 -0.1201
12830TIP3    H138433   7.197   2.351   0.738  0.1254  0.0794  0.5436
12830TIP3    H238434   7.316   2.353   0.644  1.1972 -0.5794  1.8682
12831TIP3   OH238435   3.884   1.338   4.683 -0.0660  0.3558  0.0650
12831TIP3    H138436   3.934   1.349   4.602  0.8291 -1.3549  0.3542
12831TIP3    H238437   3.909   1.251   4.714 -0.9291  0.7198  1.8178
12832TIP3   OH238438   4.182   0.666   4.548  0.0696  0.1614 -0.1305
12832TIP3    H138439   4.098   0.622   4.560 -0.7209  1.7055  0.0301
12832TIP3    H238440   4.160   0.752   4.513  1.5027  1.0220  1.0224
12833TIP3   OH238441   8.312   4.369   0.099  0.0127 -0.0162 -0.2479
12833TIP3    H138442   8.236   4.414   0.135  0.9179  1.2908  0.0736
12833TIP3    H238443   8.379   4.376   0.168  0.4470 -1.0899 -0.5467
12834TIP3   OH238444   3.342   1.291   2.890  0.0246 -0.1707 -0.1913
12834TIP3    H138445   3.261   1.334   2.919 -0.0948 -0.8562  0.4996
12834TIP3    H238446   3.362   1.228   2.959  0.7366 -0.5365 -0.7265
12835TIP3   OH238447   7.961   3.576   0.425  0.2595  0.2037  0.1764
12835TIP3    H138448   7.896   3.584   0.355 -0.0037 -1.4426  0.1926
12835TIP3    H238449   7.908   3.569   0.505  0.3520 -2.7491  0.0318
12836TIP3   OH238450   5.394   4.872   0.411  0.2322 -0.4761  0.5466
12836TIP3    H138451   5.430   4.862   0.499  1.4924  1.2354  0.2636
12836TIP3    H238452   5.312   4.919   0.425  0.6446  0.1857  0.7905
12837TIP3   OH238453   2.843   0.552   5.954  0.6941  0.2448 -0.5014
12837TIP3    H138454   2.821   0.527   5.864  0.7748  0.6827 -0.6410
12837TIP3    H238455   2.816   0.643   5.961  2.0897  0.6696 -0.5591
12838TIP3   OH238456   7.055   1.152   5.132 -0.6906 -0.2070  0.6173
12838TIP3    H138457   7.065   1.215   5.061 -2.8044 -0.5065 -0.0022
12838TIP3    H238458   7.058   1.066   5.089  0.2439 -0.4752  1.1978
12839TIP3   OH238459   2.602   7.665   4.203  0.2294 -0.3720 -0.0821
12839TIP3    H138460   2.606   7.572   4.178  2.0310 -1.1839  3.0420
12839TIP3    H238461   2.531   7.669   4.267  1.0925  0.1549  0.8339
12840TIP3   OH238462   4.175   0.798   5.536  0.9302 -0.4595 -0.3764
12840TIP3    H138463   4.172   0.861   5.465 -0.7629 -0.1959 -0.0948
12840TIP3    H238464   4.171   0.851   5.616  0.0543 -0.8913 -0.1269
12841TIP3   OH238465   4.995   0.859   6.488 -0.1296 -0.1109  0.0711
12841TIP3    H138466   4.999   0.788   6.553 -1.0545  0.2545  0.5280
12841TIP3    H238467   4.963   0.817   6.409  0.6997 -0.4933 -0.0738
12842TIP3   OH238468   2.972   6.567   5.811 -0.2172  0.3593  0.2330
12842TIP3    H138469   3.043   6.503   5.820 -0.6170 -0.4014 -1.8541
12842TIP3    H238470   2.903   6.536   5.870  0.2732 -0.1553  0.5388
12843TIP3   OH238471   1.252   7.832   5.163 -0.3598 -0.1306 -0.6340
12843TIP3    H138472   1.232   7.850   5.071 -0.7662  0.0041 -0.5212
12843TIP3    H238473   1.236   7.738   5.172  1.0113 -0.4066 -1.0347
12844TIP3   OH238474   0.420   6.471   5.447  0.4340 -0.4318  0.2883
12844TIP3    H138475   0.446   6.491   5.357  0.1522 -1.0213  0.0733
12844TIP3    H238476   0.327   6.449   5.440 -0.2219  1.8787  1.0732
12845TIP3   OH238477   2.402   6.714   0.366  0.3722  0.1822  0.7370
12845TIP3    H138478   2.493   6.721   0.392  0.7458 -0.7887 -0.2628
12845TIP3    H238479   2.392   6.623   0.337 -1.1334  0.0205  1.6834
12846TIP3   OH238480   5.113   3.878   0.879  0.8039 -0.2955 -0.4979
12846TIP3    H138481   5.051   3.809   0.900  1.5520 -1.6462 -2.6248
12846TIP3    H238482   5.101   3.895   0.786  1.1282  1.9761 -0.1704
12847TIP3   OH238483   6.821   3.148   0.646  0.2425  0.7425 -0.3924
12847TIP3    H138484   6.746   3.149   0.586 -0.0435  0.4444 -0.0465
12847TIP3    H238485   6.872   3.071   0.619  0.0796  0.5701 -0.2165
12848TIP3   OH238486   6.032   1.656   5.650 -0.0257 -0.0647 -0.1002
12848TIP3    H138487   6.083   1.634   5.572  0.5551  1.8697 -0.2807
12848TIP3    H238488   5.997   1.744   5.632 -1.2462 -0.2815  1.1274
12849TIP3   OH238489   1.305   6.971   4.791 -0.3158 -0.2510 -0.9952
12849TIP3    H138490   1.342   6.973   4.880 -0.4488  2.2608 -0.9569
12849TIP3    H238491   1.304   6.879   4.768  0.1680 -0.9134  1.4445
12850TIP3   OH238492   0.853   2.812   0.695 -0.2318  0.2396 -0.2284
12850TIP3    H138493   0.829   2.719   0.699 -0.6839  0.4039  0.9656
12850TIP3    H238494   0.830   2.838   0.606  3.9835 -1.8836 -2.0785
12851TIP3   OH238495   3.971   1.089   6.510 -0.1288 -0.1208 -0.0565
12851TIP3    H138496   3.880   1.065   6.493 -0.0296 -1.6010  1.3817
12851TIP3    H238497   3.989   1.158   6.446 -1.5005 -1.5029 -2.0466
12852TIP3   OH238498   2.379   7.488   4.886 -0.3420  0.4144  0.5534
12852TIP3    H138499   2.426   7.559   4.931  0.6805 -0.7185  1.3079
12852TIP3    H238500   2.434   7.411   4.899 -0.7823 -0.2575 -1.3953
12853TIP3   OH238501   1.107   5.857   6.542  1.0197  0.3236 -0.0699
12853TIP3    H138502   1.072   5.802   6.612  0.2148 -1.3649 -1.7597
12853TIP3    H238503   1.053   5.936   6.544 -1.0329 -1.0355 -0.7686
12854TIP3   OH238504   4.658   0.114   4.960 -0.2491 -0.2282 -0.1215
12854TIP3    H138505   4.714   0.183   4.995  0.1029 -1.2282  1.3137
12854TIP3    H238506   4.586   0.107   5.022  0.4168 -2.0765  0.4889
12855TIP3   OH238507   7.564   1.671   0.373 -0.3378  0.0990 -0.6010
12855TIP3    H138508   7.638   1.631   0.328  0.4080 -1.4082  1.8904
12855TIP3    H238509   7.603   1.731   0.436 -1.1932 -0.9589  0.9707
12856TIP3   OH238510   4.210   0.849   6.110 -0.3018 -0.1800 -0.1713
12856TIP3    H138511   4.146   0.878   6.174 -0.9177 -0.0591 -0.8408
12856TIP3    H238512   4.217   0.755   6.124  1.8259  0.2528  2.1188
12857TIP3   OH238513   2.470   0.910   2.364 -0.1947  0.1131 -0.3057
12857TIP3    H138514   2.536   0.889   2.429  0.4442  0.7447 -0.7390
12857TIP3    H238515   2.393   0.935   2.415  0.3622  0.7914  0.2185
12858TIP3   OH238516   2.408   7.116   6.302  0.7689  0.1982 -0.0419
12858TIP3    H138517   2.462   7.193   6.315 -0.7727  0.9008  2.6751
12858TIP3    H238518   2.465   7.053   6.257  2.1749  2.7122 -1.9042
12859TIP3   OH238519   5.073   0.560   3.729 -0.0954  0.3422 -0.2454
12859TIP3    H138520   5.060   0.627   3.796 -1.1418  1.7194 -1.8106
12859TIP3    H238521   4.998   0.500   3.741  1.0470 -0.8273  1.4058
12860TIP3   OH238522   2.107   7.517   6.356  0.5475  0.3912  0.3617
12860TIP3    H138523   2.048   7.459   6.404 -0.3454  1.2387  0.3020
12860TIP3    H238524   2.097   7.490   6.264  0.6693  0.1734  0.4105
12861TIP3   OH238525   2.413   1.311   5.497 -0.0121  0.2726  0.5872
12861TIP3    H138526   2.384   1.401   5.479 -0.7868  0.2068  1.4458
12861TIP3    H238527   2.459   1.318   5.581  0.6549  0.0071  0.2471
12862TIP3   OH238528   0.082   7.857   6.281 -0.3160 -0.2816 -0.2757
12862TIP3    H138529   0.167   7.821   6.306  0.1625  0.9203 -0.1475
12862TIP3    H238530   0.034   7.782   6.247  0.9329 -0.9031 -0.7143
12863TIP3   OH238531   4.306   5.151   6.148  0.9084  0.3787 -0.1029
12863TIP3    H138532   4.241   5.213   6.115  1.5647  0.2046 -1.7856
12863TIP3    H238533   4.387   5.202   6.155  1.1990 -0.0251 -0.4779
12864TIP3   OH238534   5.294   0.411   2.609  0.2665 -0.1430  0.1825
12864TIP3    H138535   5.378   0.451   2.584 -0.2772  0.3026 -0.9968
12864TIP3    H238536   5.318   0.340   2.668  1.5631 -0.7189 -0.9897
12865TIP3   OH238537   1.970   7.820   4.571 -0.6138  0.3109  0.6736
12865TIP3    H138538   1.916   7.744   4.594 -0.3041 -0.1392 -0.0846
12865TIP3    H238539   2.011   7.846   4.654 -0.0298 -0.8971  0.7688
12866TIP3   OH238540   3.801  -0.009   6.886  0.3344  0.0090  0.0983
12866TIP3    H138541   3.777  -0.020   6.978  0.1599 -0.4805 -0.0061
12866TIP3    H238542   3.826   0.083   6.879  1.4439 -0.2190  0.8919
12867TIP3   OH238543   6.524   3.397   0.140  0.2618  0.1581  0.0494
12867TIP3    H138544   6.480   3.418   0.058  0.2164  0.3695  0.1271
12867TIP3    H238545   6.467   3.333   0.182  0.4247 -0.1583 -0.2127
12868TIP3   OH238546   1.427   5.836   4.621 -0.2420  0.0152 -0.3585
12868TIP3    H138547   1.433   5.829   4.526 -0.4249 -1.9328 -0.2410
12868TIP3    H238548   1.344   5.880   4.637 -0.6823 -0.5617 -1.0617
12869TIP3   OH238549   4.144   6.542   6.121 -0.5348  0.3935  0.2033
12869TIP3    H138550   4.174   6.618   6.071  1.5618 -0.2617  0.4289
12869TIP3    H238551   4.224   6.503   6.156 -1.8031 -0.3218  2.4294
12870TIP3   OH238552   8.115   3.325   0.223 -0.2314  0.4759  0.1054
12870TIP3    H138553   8.036   3.289   0.183  0.1703 -1.4952  1.0346
12870TIP3    H238554   8.088   3.411   0.256 -1.0286  1.3641 -2.6981
12871TIP3   OH238555   1.186   6.937   6.124 -0.2336 -0.4834 -0.0938
12871TIP3    H138556   1.181   6.850   6.163 -0.2258  0.3646  1.8977
12871TIP3    H238557   1.158   6.996   6.194  0.6827  1.2000 -1.0954
12872TIP3   OH238558   3.304   6.233   6.046 -0.0712 -0.3486 -0.1069
12872TIP3    H138559   3.317   6.166   6.114 -1.8100  0.1718  0.7655
12872TIP3    H238560   3.324   6.189   5.964 -0.2276 -1.6538  0.5507
12873TIP3   OH238561   7.196   4.888   0.109 -0.7077 -0.1832 -0.5732
12873TIP3    H138562   7.284   4.927   0.108 -0.2687 -1.1269  0.2089
12873TIP3    H238563   7.212   4.794   0.103 -1.7474 -0.2775 -2.0593
12874TIP3   OH238564   1.892   5.518   1.131 -0.4770  0.0544  0.1385
12874TIP3    H138565   1.850   5.602   1.147  0.6280  0.7281 -0.4526
12874TIP3    H238566   1.957   5.536   1.063  0.0576 -1.1815  0.3091
12875TIP3   OH238567   2.385   6.576   5.897  0.0014  0.3453  0.0673
12875TIP3    H138568   2.460   6.550   5.950 -0.7279  1.7714  1.8482
12875TIP3    H238569   2.318   6.510   5.915  0.4218 -0.2575 -0.5867
12876TIP3   OH238570   2.757   6.518   5.552 -0.5074 -0.0219 -0.1245
12876TIP3    H138571   2.787   6.498   5.464 -1.7961 -2.0905 -0.1372
12876TIP3    H238572   2.807   6.458   5.608 -0.0337  0.9509  0.5118
12877TIP3   OH238573   7.462   3.830   1.262 -0.4877  0.5346 -0.7242
12877TIP3    H138574   7.453   3.858   1.353 -0.8942  0.6641 -0.8019
12877TIP3    H238575   7.541   3.776   1.261 -0.0395  1.1752 -0.4462
12878TIP3   OH238576   6.362   7.160   6.462 -0.2088 -0.7880  0.5267
12878TIP3    H138577   6.457   7.173   6.462 -0.2370 -0.4518  3.1923
12878TIP3    H238578   6.327   7.238   6.419  0.7461 -1.3649 -1.3573
12879TIP3   OH238579   5.685   3.630   0.369 -0.0104  0.1333 -0.6649
12879TIP3    H138580   5.721   3.625   0.280  1.0957 -0.8898 -0.1662
12879TIP3    H238581   5.613   3.693   0.362  0.3315  0.3709 -2.1978
12880TIP3   OH238582   0.596   6.316   5.596  0.6211  0.0315 -0.1995
12880TIP3    H138583   0.526   6.357   5.545 -0.0149 -0.6108  0.1452
12880TIP3    H238584   0.675   6.331   5.544  0.0090 -0.4873 -1.3133
12881TIP3   OH238585   3.107   7.838   6.429 -0.6304 -0.0265  0.6734
12881TIP3    H138586   3.161   7.915   6.444 -2.2208  1.4835 -1.0702
12881TIP3    H238587   3.162   7.764   6.454  1.5612  1.5783  0.6761
12882TIP3   OH238588   3.356   0.502   6.509  0.0106  0.3348 -0.1658
12882TIP3    H138589   3.438   0.550   6.499 -0.3838  0.8256 -1.1026
12882TIP3    H238590   3.348   0.451   6.428 -0.6015  0.2874 -0.0811
12883TIP3   OH238591   3.722   1.013   6.120  0.0300  0.2367 -0.0277
12883TIP3    H138592   3.749   0.950   6.053 -1.2170  0.7763 -1.0682
12883TIP3    H238593   3.754   1.097   6.088 -1.9315  0.7343 -0.7779
12884TIP3   OH238594   1.389   7.547   6.611  0.6234 -0.0356 -0.0390
12884TIP3    H138595   1.431   7.477   6.561  2.8935 -0.4127  2.2992
12884TIP3    H238596   1.326   7.502   6.668  1.3212 -0.0804  0.7031
12885TIP3   OH238597   4.576   1.273   5.186 -0.1465 -0.4223  0.5081
12885TIP3    H138598   4.618   1.188   5.198  1.3471  0.2010 -0.2570
12885TIP3    H238599   4.495   1.266   5.237  0.3244 -2.0253  1.0862
12886TIP3   OH238600   0.116   6.794   4.672 -0.1608  0.2504  0.5960
12886TIP3    H138601   0.165   6.761   4.597  0.3850  0.6083  0.7856
12886TIP3    H238602   0.026   6.766   4.658 -0.2259  1.0477 -0.6265
12887TIP3   OH238603   4.534   1.322   5.683 -0.2644  0.1344 -0.2848
12887TIP3    H138604   4.617   1.347   5.723 -0.5893  1.3440 -0.3454
12887TIP3    H238605   4.527   1.377   5.605 -1.1910  0.1587 -0.1969
12888TIP3   OH238606   3.158   7.685   5.228 -0.7866 -0.0227 -0.4417
12888TIP3    H138607   3.237   7.640   5.197 -0.3557  1.9611 -2.3077
12888TIP3    H238608   3.091   7.665   5.162 -0.0836  3.5577 -2.3624
12889TIP3   OH238609   3.559   0.247   5.207 -0.1102  0.2425 -0.2498
12889TIP3    H138610   3.522   0.177   5.260 -1.4595 -0.3141 -1.8646
12889TIP3    H238611   3.501   0.322   5.222 -0.7382 -0.0332 -1.1914
12890TIP3   OH238612   2.743   7.186   6.042 -0.2252 -0.3223 -0.2804
12890TIP3    H138613   2.656   7.224   6.033 -0.1028  0.1484  0.4822
12890TIP3    H238614   2.803   7.261   6.035  0.2123 -0.8531 -2.5160
12891TIP3   OH238615   0.930   6.524   6.210 -0.2445 -0.2977 -0.1099
12891TIP3    H138616   0.966   6.435   6.213  0.7337  0.0310 -1.7218
12891TIP3    H238617   0.837   6.511   6.189 -0.2013 -0.9447  0.0743
12892TIP3   OH238618   5.099   1.961   5.322  0.0817 -0.2015  0.0258
12892TIP3    H138619   5.176   1.988   5.271 -0.2032  2.5435  0.9828
12892TIP3    H238620   5.027   1.962   5.259  0.2594  0.3198 -0.1711
12893TIP3   OH238621   5.111   0.031   4.652 -0.0823  0.4466 -0.1146
12893TIP3    H138622   5.074  -0.024   4.722 -0.0505  0.6266  0.0449
12893TIP3    H238623   5.150   0.105   4.698  1.2305 -0.1699 -0.2303
12894TIP3   OH238624   7.396   2.504   1.855  0.3895  0.0136 -0.1935
12894TIP3    H138625   7.458   2.530   1.787  1.8781 -0.5386  0.9118
12894TIP3    H238626   7.447   2.449   1.914 -1.1020 -0.2470  0.8870
12895TIP3   OH238627   4.290   0.523   5.505  0.3033  0.1038  0.0223
12895TIP3    H138628   4.344   0.514   5.584  0.0566  0.7854  0.2770
12895TIP3    H238629   4.324   0.457   5.445 -0.2861 -1.2441  1.1313
12896TIP3   OH238630   4.159   2.186   5.844 -0.2387 -0.4384 -0.0047
12896TIP3    H138631   4.134   2.208   5.934 -0.5442  1.3677 -0.5138
12896TIP3    H238632   4.075   2.176   5.799 -0.0763 -0.4150 -0.3066
12897TIP3   OH238633   3.223   7.993   4.497 -0.1202 -0.2230  0.0233
12897TIP3    H138634   3.169   7.916   4.479 -1.8686  0.6787  1.2552
12897TIP3    H238635   3.255   8.021   4.411  0.4533 -2.2372 -0.4464
12898TIP3   OH238636   5.172   0.535   5.037  0.4321 -0.1997  0.5519
12898TIP3    H138637   5.189   0.572   5.124  0.5950  2.4856 -0.5634
12898TIP3    H238638   5.106   0.467   5.053 -0.5931  1.1898  2.6088
12899TIP3   OH238639   5.722   0.226   4.267  0.2051  0.5027 -0.7200
12899TIP3    H138640   5.801   0.265   4.229  0.8212 -1.2344 -1.2780
12899TIP3    H238641   5.683   0.177   4.194 -0.8756  0.5701 -0.1927
12900TIP3   OH238642   1.596   7.137   6.667 -0.7827 -0.0757 -0.1611
12900TIP3    H138643   1.580   7.047   6.696 -2.3394  0.3697  0.3892
12900TIP3    H238644   1.517   7.185   6.690 -0.9415  0.9166 -2.6058
12901TIP3   OH238645   2.487   0.958   6.515  0.1331  0.0802 -0.3540
12901TIP3    H138646   2.498   0.871   6.476  1.0898 -0.8044  1.7527
12901TIP3    H238647   2.574   0.980   6.549 -0.6979  0.6383  1.5206
12902TIP3   OH238648   5.723   0.711   4.942 -0.0370  0.2179  0.7697
12902TIP3    H138649   5.676   0.698   5.024  0.4631  0.0058  1.0225
12902TIP3    H238650   5.811   0.676   4.958 -0.3260 -1.0692 -0.2744
12903TIP3   OH238651   0.046   4.666   0.368 -0.3828 -0.0397  0.6145
12903TIP3    H138652   0.052   4.571   0.367  3.3652  0.1270 -0.1835
12903TIP3    H238653   0.065   4.690   0.459  0.6632 -0.0059  0.3990
12904TIP3   OH238654   1.529   6.721   3.679  0.1165  0.3141  0.6293
12904TIP3    H138655   1.437   6.695   3.672 -0.2657  1.2725  1.9221
12904TIP3    H238656   1.569   6.692   3.596 -1.3443 -0.1020  0.0627
12905TIP3   OH238657   1.454   7.997   4.324  1.1240 -0.4782 -0.0792
12905TIP3    H138658   1.513   7.997   4.249  0.0264  0.1394 -0.9621
12905TIP3    H238659   1.373   8.037   4.291  0.7402  0.1013  1.5153
12906TIP3   OH238660   3.733   0.753   4.483  0.2563 -0.0236  0.3863
12906TIP3    H138661   3.670   0.769   4.553 -0.2376  2.0823 -0.4967
12906TIP3    H238662   3.776   0.838   4.471 -0.1895 -0.1664 -2.3605
12907TIP3   OH238663   8.260   6.118   6.323  0.2953  0.3312 -0.0423
12907TIP3    H138664   8.200   6.112   6.248  0.6258  0.1497 -0.2914
12907TIP3    H238665   8.214   6.073   6.394 -0.0344  0.5376 -0.1247
12908TIP3   OH238666   3.798   0.963   5.836 -0.1527  0.3267 -0.4645
12908TIP3    H138667   3.861   0.993   5.770 -1.5769  3.5649 -0.4539
12908TIP3    H238668   3.715   1.003   5.810 -1.1090  0.2871  2.3425
12909TIP3   OH238669   3.796   0.354   5.297 -0.0026 -0.3996  0.7562
12909TIP3    H138670   3.804   0.385   5.207 -2.3376  0.0318  0.6703
12909TIP3    H238671   3.714   0.305   5.299 -0.1556 -0.1196  2.7391
12910TIP3   OH238672   6.978   4.575   0.034  0.1336 -0.4216  0.4190
12910TIP3    H138673   6.973   4.666   0.004 -0.4231 -0.2237  1.1002
12910TIP3    H238674   6.887   4.549   0.048  0.2593 -1.2836 -0.3634
12911TIP3   OH238675   1.510   7.262   4.142 -0.1296 -0.4086  0.0878
12911TIP3    H138676   1.525   7.338   4.086 -0.8294 -0.6902 -0.4850
12911TIP3    H238677   1.416   7.245   4.136 -0.0977 -0.8780  0.7861
12912TIP3   OH238678   4.184   2.975   0.247 -0.6842 -0.3310  0.1083
12912TIP3    H138679   4.214   3.036   0.179 -1.7257  1.8554  1.5621
12912TIP3    H238680   4.263   2.929   0.273 -0.4170 -1.9922 -3.2873
12913TIP3   OH238681   6.425   0.379   4.153 -0.1108 -0.2445  0.1343
12913TIP3    H138682   6.365   0.309   4.179 -0.4581 -0.0538 -0.1584
12913TIP3    H238683   6.441   0.428   4.233 -1.4206  0.5271 -0.0569
12914TIP3   OH238684   1.511   7.451   5.156 -0.0321  0.3212  0.0041
12914TIP3    H138685   1.595   7.438   5.112 -0.7588  1.7850 -1.8726
12914TIP3    H238686   1.512   7.543   5.182 -1.7756  0.8387 -1.6450
12915TIP3   OH238687   1.988   3.043   5.829  0.1240 -0.4920  0.0816
12915TIP3    H138688   1.916   3.072   5.885  0.8381  0.5217  0.4773
12915TIP3    H238689   1.950   3.043   5.741 -1.0849 -2.3646  0.5721
12916TIP3   OH238690   6.886   5.132   0.352  0.2619 -0.1107 -0.1484
12916TIP3    H138691   6.967   5.130   0.301  0.1472 -0.5161 -0.3121
12916TIP3    H238692   6.819   5.099   0.292  0.4030 -2.1235  0.7654
12917TIP3   OH238693   2.417   6.227   5.019  0.2206 -0.3624 -0.4708
12917TIP3    H138694   2.349   6.191   4.962 -1.2982  1.1965  0.2812
12917TIP3    H238695   2.497   6.181   4.994 -1.1737 -2.4626 -1.1715
12918TIP3   OH238696   3.873   2.217   5.277 -1.0548  0.1195 -0.2220
12918TIP3    H138697   3.883   2.183   5.189  2.5667  0.3823 -0.0149
12918TIP3    H238698   3.874   2.312   5.267 -1.4412  0.1560  0.0464
12919TIP3   OH238699   6.010   0.416   5.211 -0.5632 -0.6686  0.8545
12919TIP3    H138700   6.096   0.454   5.231  0.0841 -2.3257  1.2931
12919TIP3    H238701   6.018   0.324   5.237 -1.7535 -1.3635 -1.1350
12920TIP3   OH238702   0.107   7.718   5.013 -0.1430  1.2747 -0.6576
12920TIP3    H138703   0.200   7.734   5.000  0.4869 -0.8395  1.0731
12920TIP3    H238704   0.103   7.640   5.069 -2.9527  0.5717 -1.7514
12921TIP3   OH238705   2.443   0.692   5.855  0.2588 -0.3545  0.1600
12921TIP3    H138706   2.416   0.779   5.825 -1.2381 -1.4379 -1.7369
12921TIP3    H238707   2.531   0.705   5.892  0.7136  1.6587 -1.5876
12922TIP3   OH238708   4.076   0.040   5.898 -0.1482  0.4024  0.4398
12922TIP3    H138709   4.083   0.128   5.861 -0.4518  0.2807  0.0895
12922TIP3    H238710   4.006  -0.002   5.848 -0.2580  0.0852  0.8562
12923TIP3   OH238711   1.426   4.133   0.291  0.5022  0.3137 -0.0651
12923TIP3    H138712   1.454   4.216   0.330  0.5251 -0.0978  0.8245
12923TIP3    H238713   1.336   4.121   0.322  0.4721  0.0469 -0.2528
12924TIP3   OH238714   2.970   7.560   5.067 -0.0887 -0.0762 -0.4150
12924TIP3    H138715   3.006   7.485   5.019  1.7609  0.5778 -0.1049
12924TIP3    H238716   2.878   7.564   5.040  0.1435 -1.5883 -1.5170
12925TIP3   OH238717   2.869   5.540   5.754 -0.1378 -0.1206 -0.3547
12925TIP3    H138718   2.929   5.592   5.700  0.3246 -0.0009  0.2648
12925TIP3    H238719   2.865   5.588   5.837  0.6172 -1.2984  0.3705
12926TIP3   OH238720   5.501   0.860   6.840  0.2284 -0.0272  0.0780
12926TIP3    H138721   5.596   0.849   6.837  0.0296 -1.8913  0.2994
12926TIP3    H238722   5.466   0.771   6.834 -1.5029  0.6331  0.1267
12927TIP3   OH238723   3.687   7.552   4.619 -0.0453  0.2304 -0.1065
12927TIP3    H138724   3.603   7.514   4.646 -0.3050 -0.1048 -1.3597
12927TIP3    H238725   3.735   7.564   4.701 -0.9811 -0.3700  0.5427
12928TIP3   OH238726   7.097   0.394   6.699  0.2903  0.1913  0.0012
12928TIP3    H138727   7.018   0.365   6.654 -0.3687  1.4944  0.2789
12928TIP3    H238728   7.162   0.326   6.682 -1.0987 -1.2312  0.3377
12929TIP3   OH238729   1.985   5.304   6.118  0.1375 -0.3437 -0.0177
12929TIP3    H138730   2.046   5.329   6.048  0.2130 -1.5316 -0.3887
12929TIP3    H238731   1.899   5.333   6.087  0.4201  0.7975  0.2389
12930TIP3   OH238732   7.458   4.143  -0.026  0.5191 -0.1377  0.5491
12930TIP3    H138733   7.408   4.224  -0.014 -1.1427 -1.0209 -0.1982
12930TIP3    H238734   7.464   4.106   0.062  1.5161  0.9129  0.9369
12931TIP3   OH238735   4.634   1.035   6.481  0.3233 -0.4415  0.0051
12931TIP3    H138736   4.542   1.014   6.494  0.4719 -1.7524 -0.9946
12931TIP3    H238737   4.680   0.977   6.542  0.4114  1.4332  1.7664
12932TIP3   OH238738   2.231   0.724   6.131 -0.1013  0.1119 -0.3021
12932TIP3    H138739   2.283   0.804   6.141  2.4647 -1.6723  1.1756
12932TIP3    H238740   2.234   0.683   6.217 -0.8284 -1.9187 -1.2217
12933TIP3   OH238741   2.905   7.400   6.099  0.6422 -0.6158 -0.2836
12933TIP3    H138742   2.996   7.371   6.097  1.0543  0.3315  2.1981
12933TIP3    H238743   2.907   7.480   6.152 -1.1102  1.4614 -3.2228
12934TIP3   OH238744   8.385   7.025   5.638  0.2711  0.1023 -0.0824
12934TIP3    H138745   8.461   7.014   5.695  0.5916 -0.8310 -0.6903
12934TIP3    H238746   8.364   6.937   5.607  0.1483  0.6098 -1.4652
12935TIP3   OH238747   8.091   4.453   0.236 -0.4580 -0.1373 -0.3018
12935TIP3    H138748   8.098   4.391   0.309  1.6269 -0.4231 -0.7298
12935TIP3    H238749   7.997   4.473   0.231 -0.6011  0.1000  2.6250
12936TIP3   OH238750   1.647   5.657   4.620  0.0219 -0.2311  0.8615
12936TIP3    H138751   1.709   5.730   4.619  1.6736 -1.6087 -0.4433
12936TIP3    H238752   1.561   5.698   4.618  0.9324  1.6650 -1.7285
12937TIP3   OH238753   6.110   0.093   5.989 -0.0620 -0.6574 -0.4394
12937TIP3    H138754   6.137   0.010   5.951  1.9235 -1.0183  1.5936
12937TIP3    H238755   6.053   0.068   6.062 -0.3970 -0.1919 -0.5444
12938TIP3   OH238756   2.221   5.591   5.831  0.4287 -0.2111 -0.3774
12938TIP3    H138757   2.214   5.518   5.892  0.1721  0.8511  0.8995
12938TIP3    H238758   2.309   5.627   5.847  0.8816 -0.7565 -1.5997
12939TIP3   OH238759   5.438   0.193   3.820  0.8356 -0.0390 -0.3033
12939TIP3    H138760   5.460   0.254   3.750 -0.7790  1.1796  0.2254
12939TIP3    H238761   5.368   0.139   3.784  1.0483 -0.4129 -0.1577
12940TIP3   OH238762   1.814   7.772   4.285  0.3215  0.2577  0.6055
12940TIP3    H138763   1.748   7.725   4.235  0.1306  0.3970  0.7276
12940TIP3    H238764   1.818   7.728   4.369  0.6510  0.0164  0.4658
12941TIP3   OH238765   1.994   7.567   5.046 -0.6634 -0.3954  0.4886
12941TIP3    H138766   2.037   7.489   5.080  2.1940  0.8637 -0.0690
12941TIP3    H238767   1.968   7.617   5.123 -1.1375 -1.1943  0.8421
12942TIP3   OH238768   1.787   6.547   5.946 -0.4326  0.0194  0.1857
12942TIP3    H138769   1.787   6.618   6.011 -0.6657  1.2358 -1.1281
12942TIP3    H238770   1.707   6.498   5.964  0.1874 -0.4763  1.6949
12943TIP3   OH238771   3.617   2.601   4.915  0.8596  0.0549  0.1771
12943TIP3    H138772   3.588   2.666   4.980  0.4204  0.4344 -0.3973
12943TIP3    H238773   3.558   2.614   4.841  1.5109 -0.2333 -0.3871
12944TIP3   OH238774   6.904   0.677   5.386  0.1017 -0.1377 -0.8392
12944TIP3    H138775   6.936   0.631   5.309  0.3207 -1.0657 -0.2119
12944TIP3    H238776   6.976   0.669   5.449  0.1237  1.0424 -0.7141
12945TIP3   OH238777   4.276   4.582   1.645  0.3713 -0.4728  0.4030
12945TIP3    H138778   4.223   4.507   1.672  0.8948 -1.1956 -0.5785
12945TIP3    H238779   4.239   4.656   1.695  1.1010 -1.7154  2.8439
12946TIP3   OH238780   5.083   1.539   5.385  0.7771  0.6288 -0.6958
12946TIP3    H138781   5.149   1.477   5.353  0.1642 -0.8718  0.8349
12946TIP3    H238782   5.001   1.489   5.383  0.6133  0.6475  2.5862
12947TIP3   OH238783   2.466   7.408   6.664 -0.3872  0.1813  0.2496
12947TIP3    H138784   2.439   7.494   6.699 -2.0722 -0.0721 -0.3645
12947TIP3    H238785   2.385   7.357   6.662  0.1119 -0.5621 -1.8743
12948TIP3   OH238786   2.566   6.016   3.596 -0.6626  0.3082 -0.3241
12948TIP3    H138787   2.585   6.002   3.689 -0.6503  0.1655 -0.3480
12948TIP3    H238788   2.624   6.087   3.570 -0.8165  0.4937 -0.1698
12949TIP3   OH238789   6.957   1.572   5.452  0.1658 -0.3430  0.5055
12949TIP3    H138790   6.940   1.508   5.521  0.8687 -0.7940  0.2705
12949TIP3    H238791   7.010   1.525   5.388 -1.7377 -0.3982 -1.0977
12950TIP3   OH238792   7.030   3.599   1.401  0.0317 -0.3273 -0.4904
12950TIP3    H138793   7.125   3.609   1.411  0.2064 -2.1569  0.0345
12950TIP3    H238794   7.001   3.679   1.358  1.9160 -0.0162 -1.2275
12951TIP3   OH238795   4.277   1.104   6.020 -0.1049 -0.0544  0.3047
12951TIP3    H138796   4.259   1.016   6.051  0.5316 -0.4400 -0.4111
12951TIP3    H238797   4.298   1.093   5.927 -3.2095  1.2057 -0.6262
12952TIP3   OH238798   6.265   0.981   5.145  0.3829  0.0961 -0.0638
12952TIP3    H138799   6.334   0.984   5.212  0.1097  2.4566  0.1546
12952TIP3    H238800   6.228   1.069   5.145 -1.6898 -0.7489 -1.1952
12953TIP3   OH238801   3.753   7.558   4.208 -0.2961  0.4564  0.0544
12953TIP3    H138802   3.799   7.639   4.188  0.3277  0.2837  0.7975
12953TIP3    H238803   3.790   7.528   4.290 -3.6786  1.7822  2.1723
12954TIP3   OH238804   7.527   3.492   0.829 -0.2387 -0.3293 -0.0534
12954TIP3    H138805   7.470   3.418   0.850  0.2050 -1.0902 -1.4463
12954TIP3    H238806   7.578   3.462   0.754  1.0851  0.8164  0.3693
12955TIP3   OH238807   4.920   0.808   6.235  0.9181 -0.4476 -0.2481
12955TIP3    H138808   4.894   0.884   6.183  3.5861  0.9735  0.4147
12955TIP3    H238809   4.964   0.750   6.172  0.8504 -0.4157 -0.3242
12956TIP3   OH238810   0.450   1.039   6.338  0.4897 -0.4898  0.1933
12956TIP3    H138811   0.443   1.072   6.248  0.9048 -1.5719 -0.2446
12956TIP3    H238812   0.359   1.030   6.367  0.3500 -0.3791 -0.2056
12957TIP3   OH238813   4.931   3.273   5.035 -0.6068 -0.3158  0.2058
12957TIP3    H138814   4.904   3.235   5.118 -0.0934  0.0693  0.5598
12957TIP3    H238815   4.936   3.199   4.974  0.0688 -0.7648  0.7986
12958TIP3   OH238816   6.119   2.618   0.644 -0.7270 -0.5241  0.0428
12958TIP3    H138817   6.039   2.666   0.626  0.9609  1.7369 -1.7301
12958TIP3    H238818   6.160   2.664   0.717 -1.1176 -1.8054  1.0955
12959TIP3   OH238819   7.238   2.591   0.330 -0.0453  0.2008  0.1227
12959TIP3    H138820   7.321   2.597   0.379  0.5621 -0.6698 -0.7716
12959TIP3    H238821   7.175   2.557   0.394  0.6785 -0.6850  0.3817
12960TIP3   OH238822   2.158   6.878   4.508 -0.4833 -0.1887 -0.3600
12960TIP3    H138823   2.166   6.855   4.415  0.2381 -0.6491 -0.1852
12960TIP3    H238824   2.087   6.823   4.541  0.5301 -1.4045 -0.1926
12961TIP3   OH238825   5.566   1.656   3.570 -0.3108  0.2694  0.0778
12961TIP3    H138826   5.572   1.617   3.483  3.4411 -1.2928  0.9509
12961TIP3    H238827   5.550   1.582   3.629 -2.0350  1.2089  0.8198
12962TIP3   OH238828   3.440   7.218   5.768  0.2360 -0.1563 -0.2615
12962TIP3    H138829   3.345   7.222   5.782  0.3437 -1.1159  0.8109
12962TIP3    H238830   3.476   7.278   5.834  0.4085 -0.2641 -0.2587
12963TIP3   OH238831   1.602   5.120   6.489 -0.7577 -0.5156 -0.3515
12963TIP3    H138832   1.645   5.116   6.404  0.9419 -0.6427  0.4823
12963TIP3    H238833   1.588   5.213   6.504  0.7126 -0.3383  0.0586
12964TIP3   OH238834   2.061   6.709   5.816 -0.2325  0.2390  0.0771
12964TIP3    H138835   2.107   6.625   5.817 -1.8417 -0.6639  1.2484
12964TIP3    H238836   2.131   6.774   5.815  1.0382 -1.0950 -1.8973
12965TIP3   OH238837   8.297   2.893   0.431 -0.5003  0.7815  0.1469
12965TIP3    H138838   8.343   2.913   0.512  0.1995 -0.5212  0.0826
12965TIP3    H238839   8.214   2.855   0.459 -0.6230  1.1129  0.2450
12966TIP3   OH238840   1.808   6.465   4.960 -0.4253 -0.3154  0.3415
12966TIP3    H138841   1.736   6.525   4.978 -0.1561 -0.1278  0.8117
12966TIP3    H238842   1.814   6.462   4.864 -1.2822 -0.6102  0.2985
12967TIP3   OH238843   0.956   6.976   5.633  0.8776  0.6951  0.0689
12967TIP3    H138844   1.039   6.932   5.615  0.0163 -0.1840 -1.9577
12967TIP3    H238845   0.934   7.019   5.550 -1.6575 -0.7569 -0.0826
12968TIP3   OH238846   0.900   7.316   5.189 -0.4967 -0.6469  0.2414
12968TIP3    H138847   0.956   7.391   5.207 -1.1739 -0.7515  3.1024
12968TIP3    H238848   0.815   7.354   5.169 -0.4369 -0.5934  0.0915
12969TIP3   OH238849   2.028   7.746   6.096 -0.2167  0.0737 -0.1368
12969TIP3    H138850   1.986   7.677   6.045  0.1830  0.3538 -0.8503
12969TIP3    H238851   2.117   7.715   6.110  0.0578  0.5783 -0.7282
12970TIP3   OH238852   4.968   0.818   6.884  0.4192 -0.3948 -0.1382
12970TIP3    H138853   5.016   0.900   6.895  0.1398 -0.1392 -0.7722
12970TIP3    H238854   4.878   0.845   6.865 -0.1213 -0.8712  1.6212
12971TIP3   OH238855   0.310   4.075   1.706  0.0825  0.4977  0.3198
12971TIP3    H138856   0.217   4.078   1.729  0.1317  0.5731  0.5076
12971TIP3    H238857   0.352   4.135   1.767  0.0877  1.4280 -0.5884
12972TIP3   OH238858   2.077   8.039   6.073 -0.0350  0.1679  0.3980
12972TIP3    H138859   2.079   8.036   6.169 -1.6999 -2.0802  0.4034
12972TIP3    H238860   2.073   7.947   6.046  1.6661  0.7201 -1.8823
12973TIP3   OH238861   4.806   7.402   5.327  0.0549 -0.0259 -0.0689
12973TIP3    H138862   4.848   7.380   5.410 -1.6105 -0.9641  0.5475
12973TIP3    H238863   4.715   7.375   5.338 -0.8403  2.3636 -1.2161
12974TIP3   OH238864   3.924   7.547   4.435  0.0546 -0.1264 -0.2191
12974TIP3    H138865   3.862   7.607   4.478  1.9021  1.2175  0.6478
12974TIP3    H238866   4.010   7.574   4.468  0.9512 -3.1797  0.0878
12975TIP3   OH238867   7.707   6.303   3.554  0.0799  0.3552  0.1531
12975TIP3    H138868   7.708   6.314   3.458  1.0953 -1.3025 -0.0415
12975TIP3    H238869   7.622   6.264   3.572  0.1579  0.0417 -0.1491
12976TIP3   OH238870   7.464   0.744   4.249  0.0839 -0.0301  0.7199
12976TIP3    H138871   7.489   0.816   4.191 -1.4616  0.8459  1.1190
12976TIP3    H238872   7.495   0.772   4.336  2.0472 -1.1620  0.4034
12977TIP3   OH238873   4.362   2.485   5.271 -0.0621 -0.2192  0.1481
12977TIP3    H138874   4.334   2.408   5.321  0.9895 -1.6711 -1.4458
12977TIP3    H238875   4.342   2.559   5.328 -0.3217 -1.7295  2.0692
12978TIP3   OH238876   6.324   0.770   3.812  0.3271  0.4854  0.2040
12978TIP3    H138877   6.290   0.729   3.733 -1.6735 -0.2103  1.3800
12978TIP3    H238878   6.343   0.697   3.871 -0.1171  1.0815  1.1000
12979TIP3   OH238879   2.857   7.892   5.880 -0.0199  0.3367  0.2864
12979TIP3    H138880   2.934   7.837   5.895 -0.0647  0.0762 -0.4273
12979TIP3    H238881   2.791   7.856   5.940  1.5554  3.0370  3.8517
12980TIP3   OH238882   7.394   4.890   0.570  0.1711  0.1029 -0.0685
12980TIP3    H138883   7.340   4.965   0.544 -0.0267 -0.2481 -0.6778
12980TIP3    H238884   7.332   4.817   0.576  0.5219 -0.2193 -0.3901
12981TIP3   OH238885   7.963   1.168   5.423 -0.0922  0.3867 -0.1672
12981TIP3    H138886   7.987   1.083   5.385 -1.5018  0.2734 -0.8798
12981TIP3    H238887   7.946   1.224   5.347  1.6060  1.5518  0.3006
12982TIP3   OH238888   0.111   5.479   0.242  0.4333 -0.5194  0.2791
12982TIP3    H138889   0.015   5.483   0.244  0.4307 -0.8626  1.1134
12982TIP3    H238890   0.137   5.492   0.333  1.2328  0.6763 -0.1075
12983TIP3   OH238891   3.721   7.186   4.297 -0.0225 -0.0023 -0.4802
12983TIP3    H138892   3.654   7.206   4.362  1.1461 -1.6439  1.2766
12983TIP3    H238893   3.674   7.141   4.227 -0.8320 -0.6749  0.4889
12984TIP3   OH238894   3.498   7.904   4.880 -0.0842 -0.1994  0.0803
12984TIP3    H138895   3.589   7.914   4.852 -0.2134  2.1469  0.3796
12984TIP3    H238896   3.455   7.862   4.806  0.5276  1.8650 -1.5206
12985TIP3   OH238897   5.624   0.835   6.427 -0.1488  0.6887  0.0669
12985TIP3    H138898   5.567   0.909   6.446 -2.1588 -0.3331 -1.7844
12985TIP3    H238899   5.583   0.790   6.353  0.5188 -2.7763  1.6699
12986TIP3   OH238900   3.259   4.586   0.177 -0.0354 -0.4680  0.1210
12986TIP3    H138901   3.207   4.524   0.227  0.3458  0.1657  1.3157
12986TIP3    H238902   3.294   4.647   0.242  0.7157  0.1876 -0.8733
12987TIP3   OH238903   0.019   0.421   6.628 -0.3956 -0.1443  0.1790
12987TIP3    H138904   0.058   0.368   6.559  1.3587  1.7415 -0.3401
12987TIP3    H238905   0.057   0.387   6.709  1.2739  0.7512 -0.2098
12988TIP3   OH238906   5.577   0.768   3.896 -0.6477 -0.3974 -0.1251
12988TIP3    H138907   5.536   0.743   3.979 -0.1478  0.2041  0.3106
12988TIP3    H238908   5.564   0.692   3.839 -1.3109 -0.6783  0.3836
12989TIP3   OH238909   4.486   6.717   6.106  0.4948  0.4468  0.0665
12989TIP3    H138910   4.537   6.644   6.071  0.9194  0.6465  0.2705
12989TIP3    H238911   4.541   6.794   6.094  1.2386  0.3370  2.3566
12990TIP3   OH238912   4.331   2.226   4.750  0.0533 -0.3641 -0.1136
12990TIP3    H138913   4.257   2.173   4.780 -0.2425  0.3391  0.4139
12990TIP3    H238914   4.295   2.280   4.679  0.8327 -2.2640 -1.9886
12991TIP3   OH238915   6.658   1.253   4.218  0.3753 -0.3500  0.5286
12991TIP3    H138916   6.586   1.301   4.258  0.1248 -0.4298  0.1726
12991TIP3    H238917   6.617   1.175   4.180  0.7975 -0.8987  1.1967
12992TIP3   OH238918   6.901   0.667   5.991  0.7509 -0.0227 -0.0415
12992TIP3    H138919   6.825   0.685   6.046  0.6098  1.0802 -0.5769
12992TIP3    H238920   6.976   0.687   6.046  0.6095  1.1542 -0.2655
12993TIP3   OH238921   2.316   7.698   6.124 -0.0659 -0.4658  0.4102
12993TIP3    H138922   2.342   7.787   6.147 -1.0563 -0.1815  0.4814
12993TIP3    H238923   2.363   7.643   6.185  0.3253  0.0337  0.5659
12994TIP3   OH238924   5.543   0.181   5.873  0.2447  0.1780  0.7968
12994TIP3    H138925   5.634   0.195   5.902  0.7326 -1.0957 -0.0608
12994TIP3    H238926   5.545   0.096   5.829 -1.4755 -0.0831  1.1722
12995TIP3   OH238927   4.543   7.472   6.076  0.6188  0.2292 -0.0617
12995TIP3    H138928   4.536   7.557   6.033  1.2882 -0.4746 -1.6243
12995TIP3    H238929   4.478   7.418   6.031  0.2822 -0.1105  0.8388
12996TIP3   OH238930   6.902   0.396   4.427  0.4165  0.4348 -0.1272
12996TIP3    H138931   6.954   0.445   4.363 -0.2601 -0.6750 -1.5454
12996TIP3    H238932   6.890   0.457   4.499 -1.1387  2.7287 -2.2178
12997TIP3   OH238933   0.155   1.937   5.797 -0.1412  0.0850  0.2148
12997TIP3    H138934   0.241   1.916   5.761 -0.5646  0.1709 -0.8445
12997TIP3    H238935   0.163   2.026   5.830  0.1623  0.1072  0.0761
12998TIP3   OH238936   0.799   0.464   5.251  0.2517 -0.9524 -0.3925
12998TIP3    H138937   0.784   0.520   5.327 -0.1192 -1.7709  0.1446
12998TIP3    H238938   0.892   0.473   5.232 -0.3646  2.3811 -2.3290
12999TIP3   OH238939   4.680   7.991   3.693 -0.3269  0.1616 -0.3980
12999TIP3    H138940   4.593   8.004   3.730  0.6508 -0.3545  2.1563
12999TIP3    H238941   4.739   8.029   3.757  1.4378 -0.9582 -1.3272
13000TIP3   OH238942   3.259   6.857   6.862 -0.5420 -0.8727 -0.6389
13000TIP3    H138943   3.286   6.904   6.783  0.5294 -1.0516 -0.3878
13000TIP3    H238944   3.245   6.767   6.832  0.8836 -1.1720 -0.4290
13001TIP3   OH238945   4.271   6.989   4.426  0.0498  0.5623  0.2458
13001TIP3    H138946   4.296   6.936   4.501  0.3745 -2.0995 -1.6887
13001TIP3    H238947   4.354   7.016   4.386 -0.0944 -0.8509 -1.0608
13002TIP3   OH238948   5.942  -0.015   3.119 -0.3789 -0.1938 -0.0544
13002TIP3    H138949   6.030   0.018   3.101  0.2521 -1.0018  1.4733
13002TIP3    H238950   5.885   0.037   3.062  0.9809  0.9687 -0.3899
13003TIP3   OH238951   0.923   0.600   5.477 -0.1244 -0.1379 -0.1770
13003TIP3    H138952   0.924   0.675   5.537  0.4927 -0.3062  0.0316
13003TIP3    H238953   0.941   0.524   5.533 -2.5394 -0.6744 -0.0889
13004TIP3   OH238954   6.323   1.287   5.637  0.0865  0.0509  0.2964
13004TIP3    H138955   6.287   1.240   5.713  2.0580  0.2432  1.3916
13004TIP3    H238956   6.336   1.376   5.668 -2.1275  0.9597 -1.2969
13005TIP3   OH238957   3.515   7.705   5.773 -0.1814 -0.7446 -0.0648
13005TIP3    H138958   3.558   7.630   5.813 -1.1661 -2.0470 -1.3999
13005TIP3    H238959   3.489   7.674   5.686 -1.7028  0.7451 -0.1647
13006TIP3   OH238960   7.707   0.516   5.888  0.3137  0.1025  0.6628
13006TIP3    H138961   7.663   0.432   5.874  0.0544  0.0088  2.0273
13006TIP3    H238962   7.637   0.581   5.878  0.7924  0.2914 -1.8997
13007TIP3   OH238963   7.349   1.408   6.300 -0.3333  0.2731  0.4638
13007TIP3    H138964   7.401   1.368   6.230 -1.0019  1.5434 -0.7883
13007TIP3    H238965   7.404   1.401   6.378  2.0326  2.1781 -0.9646
13008TIP3   OH238966   6.038   0.810   3.569  0.0927  0.2943  0.4189
13008TIP3    H138967   6.090   0.886   3.595  1.2648 -0.0041 -0.9701
13008TIP3    H238968   6.016   0.766   3.652 -0.7421  2.2276  1.2382
13009TIP3   OH238969   6.314   1.823   6.202 -0.1116 -0.0175 -0.3359
13009TIP3    H138970   6.359   1.907   6.192 -2.0766  1.0487 -0.4562
13009TIP3    H238971   6.312   1.786   6.114 -1.3806  0.9545 -0.7346
13010TIP3   OH238972   4.022   5.187   5.277  0.2573  0.1843 -0.3205
13010TIP3    H138973   4.025   5.263   5.219  0.6698  0.6388  0.2933
13010TIP3    H238974   4.107   5.186   5.321 -0.4834  0.5377  1.1574
13011TIP3   OH238975   3.130   0.066   4.140  0.0641 -0.7691 -0.0298
13011TIP3    H138976   3.041   0.078   4.174 -0.5715 -1.6413 -1.3885
13011TIP3    H238977   3.126   0.098   4.050  1.5972  0.9140  0.4685
13012TIP3   OH238978   0.672   1.634   5.666 -0.6528  0.1180  0.1394
13012TIP3    H138979   0.688   1.559   5.608  2.3402 -0.6568  1.8323
13012TIP3    H238980   0.676   1.710   5.609  4.4027 -0.4599 -0.5295
13013TIP3   OH238981   6.520   7.819   5.462 -0.1619 -0.3124 -0.2727
13013TIP3    H138982   6.611   7.790   5.465  0.0419  0.2642 -0.7662
13013TIP3    H238983   6.511   7.879   5.537  0.1162  0.3403 -0.7563
13014TIP3   OH238984   5.243   1.011   5.152  0.7913 -0.1320 -0.1298
13014TIP3    H138985   5.268   0.963   5.232  0.4836  1.4544  0.9406
13014TIP3    H238986   5.307   1.081   5.145 -0.0576  0.6221 -0.4518
13015TIP3   OH238987   3.652   7.430   5.590 -0.2421 -0.0681  0.2550
13015TIP3    H138988   3.700   7.351   5.567  0.9682  0.3833  1.1866
13015TIP3    H238989   3.648   7.429   5.686 -2.4915 -0.3188  0.1933
13016TIP3   OH238990   4.852   7.418   6.581 -0.4231 -0.2782  0.1433
13016TIP3    H138991   4.757   7.422   6.581 -0.3854  1.1238 -0.2774
13016TIP3    H238992   4.875   7.393   6.491 -0.3720  0.7204 -0.1320
13017TIP3   OH238993   2.648   7.973   2.936  0.4794 -0.0997  0.1147
13017TIP3    H138994   2.677   7.932   2.855  0.1651  0.7671 -0.4443
13017TIP3    H238995   2.558   7.940   2.948  0.5378 -0.2541  0.1375
13018TIP3   OH238996   2.360   7.138   4.338 -0.7870  0.2274  0.3511
13018TIP3    H138997   2.327   7.206   4.280  1.0360  0.1217 -0.8338
13018TIP3    H238998   2.356   7.058   4.286  2.4549  0.4083 -0.3012
13019TIP3   OH238999   7.341   3.977   6.668  0.2212 -0.1118  0.1349
13019TIP3    H139000   7.428   3.940   6.674  0.5774  0.5884 -0.6655
13019TIP3    H239001   7.336   4.038   6.742  0.1532 -0.6614  0.5892
13020TIP3   OH239002   7.550   0.756   4.871 -0.7172  0.1986  0.2039
13020TIP3    H139003   7.457   0.772   4.882 -0.2460  2.4242  1.1310
13020TIP3    H239004   7.556   0.699   4.794 -2.9378 -1.5365  1.2684
13021TIP3   OH239005   3.359   6.459   5.677 -0.3025 -0.4173 -0.0089
13021TIP3    H139006   3.335   6.371   5.649 -0.2556 -0.5905  0.4960
13021TIP3    H239007   3.329   6.464   5.767  1.5467 -0.6134  0.6323
13022TIP3   OH239008   0.135   4.186   0.093  0.4797  0.5575 -0.5284
13022TIP3    H139009   0.052   4.151   0.126  0.3876  0.3076 -1.0139
13022TIP3    H239010   0.176   4.227   0.169  1.0580 -1.5082  0.3371
13023TIP3   OH239011   5.190   7.864   4.753 -0.6475 -0.1780 -0.0729
13023TIP3    H139012   5.262   7.920   4.725 -2.1152  1.4109 -0.7606
13023TIP3    H239013   5.229   7.777   4.759  1.0199  0.4154 -1.6983
13024TIP3   OH239014   3.745   7.664   5.091  0.1661  0.0107  0.3001
13024TIP3    H139015   3.656   7.630   5.076  0.0687  1.0836 -1.6409
13024TIP3    H239016   3.747   7.683   5.185 -1.2063 -1.2942  0.6200
13025TIP3   OH239017   5.998   0.208   5.424 -0.1825 -0.1600 -0.2379
13025TIP3    H139018   6.017   0.213   5.517  1.1686  0.3106 -0.5214
13025TIP3    H239019   6.072   0.160   5.387 -1.0363 -0.9360 -0.9865
13026TIP3   OH239020   4.224   0.579   6.235  0.0435  0.2842  0.1929
13026TIP3    H139021   4.137   0.615   6.253 -0.3581 -0.5481 -0.0508
13026TIP3    H239022   4.207   0.497   6.189  0.9829  0.5634 -0.6635
13027TIP3   OH239023   0.120   0.197   5.517  0.0832 -0.5002 -0.3866
13027TIP3    H139024   0.135   0.119   5.464  1.8284  0.4946 -1.3926
13027TIP3    H239025   0.076   0.259   5.459  1.8341  0.5254 -0.6644
13028TIP3   OH239026  -0.011   1.209   6.239  0.4373  0.0585  0.3558
13028TIP3    H139027   0.078   1.227   6.211  0.7200  1.1918  1.9142
13028TIP3    H239028  -0.063   1.281   6.202  0.3113 -0.1156  0.1915
13029TIP3   OH239029   5.114   7.989   5.960 -0.6926 -0.3127 -0.3518
13029TIP3    H139030   5.144   7.900   5.944 -0.1270  0.0617 -1.4064
13029TIP3    H239031   5.148   8.010   6.047  1.7620 -0.0709 -1.3179
13030TIP3   OH239032   3.321   6.970   5.010 -0.7196  0.4578 -0.1005
13030TIP3    H139033   3.382   7.043   5.017 -1.1539  0.8530 -0.3412
13030TIP3    H239034   3.269   6.974   5.090 -1.0216  0.6760 -0.3023
13031TIP3   OH239035   3.638   7.321   3.444 -0.2976 -0.0977 -0.5731
13031TIP3    H139036   3.705   7.318   3.513 -0.6202 -2.5254 -0.3330
13031TIP3    H239037   3.562   7.361   3.487 -0.2505 -0.8866  0.2654
13032TIP3   OH239038   3.253   6.598   3.517  0.0740 -0.2432 -0.4615
13032TIP3    H139039   3.324   6.660   3.504  0.0497  0.3716  2.0893
13032TIP3    H239040   3.175   6.642   3.482  0.3613  0.4620 -0.2042
13033TIP3   OH239041   0.149   0.106   5.781 -0.0526 -0.6164 -0.5761
13033TIP3    H139042   0.064   0.128   5.818  0.6613  1.3201  0.0019
13033TIP3    H239043   0.136   0.110   5.686 -0.1528  1.7216 -0.4976
13034TIP3   OH239044   7.656   0.424   6.209 -0.0020  0.1782  0.0433
13034TIP3    H139045   7.592   0.355   6.226  0.7881 -0.0595  2.1441
13034TIP3    H239046   7.734   0.377   6.179 -0.0459  0.2857 -0.2376
13035TIP3   OH239047   2.401   7.584   4.364 -0.3862 -0.1086  0.3523
13035TIP3    H139048   2.402   7.499   4.406  0.2353 -1.0583 -1.5353
13035TIP3    H239049   2.348   7.639   4.422  0.2955 -1.4040  2.2447
13036TIP3   OH239050   6.626   0.584   5.264  0.8707 -0.7648 -0.4659
13036TIP3    H139051   6.615   0.594   5.358  2.7854 -0.8242 -0.2196
13036TIP3    H239052   6.619   0.673   5.229  1.2888 -0.6050 -0.1409
13037TIP3   OH239053   6.243   0.632   3.543  0.4993  0.2644  0.4492
13037TIP3    H139054   6.206   0.718   3.523  0.6107  0.0580 -0.7123
13037TIP3    H239055   6.168   0.576   3.560  0.4593  0.7877  2.0835
13038TIP3   OH239056   6.778   1.092   3.841 -0.3020  0.1537  0.6775
13038TIP3    H139057   6.747   1.183   3.841 -0.6651  0.0252 -0.2631
13038TIP3    H239058   6.699   1.040   3.828  0.0948 -0.2390 -0.1645
13039TIP3   OH239059   4.027   7.870   3.300  0.3296  0.1502 -0.1996
13039TIP3    H139060   3.933   7.871   3.278  0.1932 -2.1263  0.1638
13039TIP3    H239061   4.038   7.944   3.359 -1.2679  0.3859 -0.1519
13040TIP3   OH239062   4.583   0.018   6.037  0.3090  0.5807 -0.0910
13040TIP3    H139063   4.577   0.053   5.948 -0.5369  1.6995  0.3956
13040TIP3    H239064   4.673   0.038   6.064 -0.1227  2.2217  0.1245
13041TIP3   OH239065   5.727   7.937   2.438 -0.0846  0.1351  0.1174
13041TIP3    H139066   5.730   7.843   2.423 -1.1241  0.2807 -1.0993
13041TIP3    H239067   5.803   7.972   2.392 -0.5878  0.0575 -0.7763
13042TIP3   OH239068   6.864   0.329   5.087 -0.1228  0.1270  0.1301
13042TIP3    H139069   6.863   0.333   5.183  0.2559 -0.1681  0.1466
13042TIP3    H239070   6.773   0.315   5.063 -0.4541  1.7505  0.3803
13043TIP3   OH239071   5.985   0.330   6.886 -0.0592  0.2075 -0.1719
13043TIP3    H139072   5.949   0.405   6.839  0.1071 -0.4540 -1.3693
13043TIP3    H239073   5.909   0.285   6.922 -0.3868 -0.7184 -1.9833
13044TIP3   OH239074   7.543   4.168   1.452 -0.6922  0.3882 -0.0444
13044TIP3    H139075   7.471   4.111   1.478  1.9515 -3.4810 -0.6843
13044TIP3    H239076   7.570   4.135   1.366  3.3295  0.0527  1.2089
13045TIP3   OH239077   5.939   2.200   5.608 -0.3478  0.0466 -0.0883
13045TIP3    H139078   6.020   2.199   5.658 -0.2753  0.1485 -0.2030
13045TIP3    H239079   5.966   2.225   5.519 -0.3304 -1.1950 -0.4361
13046TIP3   OH239080   3.609   7.296   6.134  0.1540  0.2511  0.3314
13046TIP3    H139081   3.602   7.256   6.220  0.5177  0.9835  0.7080
13046TIP3    H239082   3.688   7.351   6.139 -0.6103  1.3931 -0.0151
13047TIP3   OH239083   1.282   1.236   6.041  0.3086  0.1440 -0.2311
13047TIP3    H139084   1.326   1.157   6.011 -1.1626 -0.2164 -1.5223
13047TIP3    H239085   1.341   1.273   6.107  1.7885 -1.1269 -0.8087
13048TIP3   OH239086   1.430   0.447   4.413 -0.4976  0.6930  0.0394
13048TIP3    H139087   1.504   0.438   4.472  0.7482 -2.2635 -1.8529
13048TIP3    H239088   1.391   0.360   4.410 -1.9834  1.3826 -1.6039
13049TIP3   OH239089   5.150   1.094   3.725 -1.1687  0.1297  0.0682
13049TIP3    H139090   5.167   1.178   3.768 -2.1378  0.3173  0.0920
13049TIP3    H239091   5.162   1.112   3.631 -2.4219  0.5665 -0.0195
13050TIP3   OH239092   4.013   6.477   2.183  0.0472  0.1015  0.0442
13050TIP3    H139093   3.992   6.391   2.148  1.1878 -0.8762  1.6735
13050TIP3    H239094   4.096   6.501   2.142  0.9771 -0.6874  1.4297
13051TIP3   OH239095   0.367   0.747   5.970 -0.1575  0.6909 -0.1666
13051TIP3    H139096   0.332   0.823   5.925  2.0893  1.1591 -1.1696
13051TIP3    H239097   0.461   0.763   5.977  0.2689 -1.6761  0.1899
13052TIP3   OH239098   5.754   1.168   2.085  0.1330  0.0982 -0.4035
13052TIP3    H139099   5.830   1.117   2.057  0.5607  0.6019 -0.1712
13052TIP3    H239100   5.679   1.124   2.045  0.3572 -1.5423  0.9128
13053TIP3   OH239101   2.946   7.863   5.519  0.0620  0.2697 -0.3123
13053TIP3    H139102   2.997   7.791   5.481 -0.6745 -0.1091 -0.5757
13053TIP3    H239103   2.865   7.823   5.549 -0.0645  0.8705  0.1586
13054TIP3   OH239104   5.308   0.017   1.923  0.7092  0.0195  0.5474
13054TIP3    H139105   5.265   0.093   1.882  0.8600  0.4176  1.1231
13054TIP3    H239106   5.345  -0.032   1.849 -1.3011 -0.6995 -0.0305
13055TIP3   OH239107   2.996   7.746   4.590  0.1808 -0.3595 -0.1405
13055TIP3    H139108   2.918   7.694   4.570  0.5125 -1.2235  0.7675
13055TIP3    H239109   2.965   7.815   4.648 -0.1136 -0.0327 -0.6857
13056TIP3   OH239110   2.811   1.131   5.926 -0.6109  0.3059  0.3023
13056TIP3    H139111   2.744   1.126   5.994  0.0608 -0.3829  0.9194
13056TIP3    H239112   2.832   1.224   5.919 -1.4889  0.5008  0.2403
13057TIP3   OH239113   4.712   7.422   5.863  0.1231 -0.1206  0.2491
13057TIP3    H139114   4.653   7.419   5.939 -0.5465 -1.2570 -0.3058
13057TIP3    H239115   4.720   7.330   5.836  0.1719  0.2995 -1.1923
13058TIP3   OH239116   7.163   1.942   4.024  0.1280 -0.1790 -0.6094
13058TIP3    H139117   7.135   2.031   4.047  1.1108 -0.3226  1.2814
13058TIP3    H239118   7.116   1.922   3.943 -2.7213  0.7760  0.7414
13059TIP3   OH239119   4.414   6.551   5.810 -0.1324 -0.3391 -0.1160
13059TIP3    H139120   4.484   6.508   5.859 -0.8681  0.6693  1.8953
13059TIP3    H239121   4.460   6.602   5.743  1.2154  1.5677  2.1558
13060TIP3   OH239122   1.593   6.053   0.375 -0.3393 -0.3704 -0.0701
13060TIP3    H139123   1.531   6.084   0.308  1.0712  3.6397  0.3480
13060TIP3    H239124   1.543   6.055   0.457 -0.0799  1.5131  0.0519
13061TIP3   OH239125   5.422   0.455   4.954 -0.0512 -0.2056 -0.7229
13061TIP3    H139126   5.355   0.498   5.006  1.4522 -0.3491  1.4225
13061TIP3    H239127   5.456   0.524   4.897  1.0390  1.0617  1.3644
13062TIP3   OH239128   4.178   0.809   6.863  0.1217  0.5101 -0.4582
13062TIP3    H139129   4.153   0.885   6.811  0.1759 -0.8893 -2.5816
13062TIP3    H239130   4.235   0.845   6.931 -4.2419  3.1392  2.0269
13063TIP3   OH239131   7.518   0.038   5.220 -0.0480 -0.3643  0.2708
13063TIP3    H139132   7.551  -0.027   5.158 -0.6983 -0.6446  0.2112
13063TIP3    H239133   7.535   0.122   5.177 -1.4165 -0.5928 -0.7567
13064TIP3   OH239134   5.818   2.728   5.262  0.0496 -0.7074  0.1896
13064TIP3    H139135   5.862   2.654   5.220  0.5128  1.0053 -2.4946
13064TIP3    H239136   5.725   2.710   5.250  0.1706 -0.3111 -1.5536
13065TIP3   OH239137   1.514   4.049   0.038 -0.7907 -0.0779 -0.0491
13065TIP3    H139138   1.441   4.006  -0.006 -1.4400 -0.1062  1.0111
13065TIP3    H239139   1.477   4.078   0.122  0.3423  0.1578  0.3835
13066TIP3   OH239140   7.132   0.383   6.362 -0.2014 -0.8468 -0.5853
13066TIP3    H139141   7.060   0.321   6.352 -0.5052 -0.9819  2.2967
13066TIP3    H239142   7.091   0.465   6.387  0.7924 -1.8928  5.0602
13067TIP3   OH239143   3.021   1.061   5.576 -0.3425  0.2639 -0.3189
13067TIP3    H139144   3.020   0.973   5.538  1.0200 -0.3170  0.9408
13067TIP3    H239145   2.947   1.106   5.534  0.0582 -0.8946 -2.3194
13068TIP3   OH239146   5.473   1.955   4.288  0.1150  0.2815  0.3708
13068TIP3    H139147   5.393   2.008   4.286 -1.0925 -1.4834 -0.8907
13068TIP3    H239148   5.456   1.888   4.354  0.1392 -0.6529 -0.5401
13069TIP3   OH239149   6.196   7.538   4.653 -0.3056 -1.0181 -0.1928
13069TIP3    H139150   6.289   7.551   4.632  0.1790 -1.4917  1.5140
13069TIP3    H239151   6.162   7.626   4.664  0.6587 -0.8835  1.9826
13070TIP3   OH239152   6.533   0.948   3.827  0.5878 -0.1683 -0.5313
13070TIP3    H139153   6.457   0.891   3.814  0.6276 -0.5071  0.6149
13070TIP3    H239154   6.598   0.892   3.870  1.5736  0.0604 -1.6861
13071TIP3   OH239155   6.824   1.821   5.447 -0.1585  0.1657  0.0442
13071TIP3    H139156   6.773   1.781   5.376  2.9279  2.1669 -3.4528
13071TIP3    H239157   6.905   1.770   5.451  0.4478  1.1645  0.9225
13072TIP3   OH239158   4.016   7.233   5.041 -0.2342 -0.2729  0.4967
13072TIP3    H139159   4.070   7.162   5.005 -3.0098 -1.3335 -1.7370
13072TIP3    H239160   4.051   7.313   5.000 -0.7289 -1.0148 -1.4072
13073TIP3   OH239161   4.186   0.124   4.677  0.3103 -0.8222  0.4873
13073TIP3    H139162   4.256   0.139   4.613  0.8022 -2.3121  0.6515
13073TIP3    H239163   4.164   0.031   4.666 -0.6097 -0.7245  1.4692
13074TIP3   OH239164   2.041   4.472   0.855  0.1980  0.1363 -0.0236
13074TIP3    H139165   2.129   4.435   0.851  0.0790 -0.1311 -0.1911
13074TIP3    H239166   2.042   4.545   0.794  0.4368  0.4180  0.3145
13075TIP3   OH239167   3.327   6.490   5.969 -0.2827  0.4298  0.1914
13075TIP3    H139168   3.338   6.404   6.011 -2.1607  1.5539  3.1446
13075TIP3    H239169   3.408   6.537   5.990  0.6507 -0.4949 -1.2305
13076TIP3   OH239170   5.974   0.656   5.034  0.7342  0.1401  0.0240
13076TIP3    H139171   6.018   0.713   5.097 -0.0280 -1.5672  2.1804
13076TIP3    H239172   5.995   0.567   5.064 -1.0308 -0.7028 -1.1476
13077TIP3   OH239173   8.265   4.708   0.250 -0.1129 -0.1454 -0.0640
13077TIP3    H139174   8.230   4.621   0.233 -0.4779  0.2310 -1.3110
13077TIP3    H239175   8.196   4.768   0.221  1.7256  0.6265 -3.0307
13078TIP3   OH239176   7.369   1.768   4.134  0.2549  0.2182  0.6756
13078TIP3    H139177   7.415   1.824   4.197 -0.4772  3.5850 -1.5894
13078TIP3    H239178   7.311   1.829   4.087  0.6745 -2.1425 -3.1087
13079TIP3   OH239179   8.118   1.745   5.338 -0.2465  0.3591 -0.2143
13079TIP3    H139180   8.200   1.756   5.290  1.0045 -1.2762  1.5152
13079TIP3    H239181   8.124   1.807   5.410  0.7060 -1.6935  1.5077
13080TIP3   OH239182   7.273   0.308   5.679  0.3667 -0.2419 -0.3984
13080TIP3    H139183   7.234   0.349   5.757  1.4542 -1.5501  0.8594
13080TIP3    H239184   7.198   0.282   5.626 -0.4155 -0.2520  0.6855
13081TIP3   OH239185   8.147   1.341   6.091 -0.0337 -0.1804 -0.2238
13081TIP3    H139186   8.167   1.292   6.011  0.0245 -0.5891  0.0386
13081TIP3    H239187   8.053   1.333   6.101 -0.0453 -0.0967 -0.2726
13082TIP3   OH239188   1.283   5.215   0.724  0.1279  0.1549  0.4538
13082TIP3    H139189   1.237   5.299   0.725 -0.9135 -0.3453 -1.3623
13082TIP3    H239190   1.366   5.234   0.679  0.0818  0.3072  0.4316
13083TIP3   OH239191   8.490   4.641   0.049 -0.2290  0.2914 -0.1583
13083TIP3    H139192   8.463   4.551   0.031  0.8577  0.0502 -0.5748
13083TIP3    H239193   8.542   4.666  -0.027 -0.8603  1.4112 -0.2211
13084TIP3   OH239194   2.864   6.797   5.465 -0.7623  0.0375  0.2336
13084TIP3    H139195   2.943   6.785   5.518 -0.1430 -1.2598 -0.9662
13084TIP3    H239196   2.867   6.890   5.441 -0.9140  0.5861  2.2186
13085TIP3   OH239197   7.522   2.634   4.784  0.2686 -0.0231 -0.5806
13085TIP3    H139198   7.452   2.632   4.719  0.5099 -0.0517 -0.8408
13085TIP3    H239199   7.479   2.611   4.867  0.3135 -1.8422 -1.0455
13086TIP3   OH239200   3.325   2.343   1.192  0.3881 -0.5649 -0.3857
13086TIP3    H139201   3.242   2.297   1.204 -0.0016  0.4274  0.8791
13086TIP3    H239202   3.301   2.426   1.150  0.6358  0.0352  0.6393
13087TIP3   OH239203   7.881   1.204   3.549 -0.2686 -0.1924 -0.4220
13087TIP3    H139204   7.795   1.226   3.585  0.5917 -0.6371  1.9972
13087TIP3    H239205   7.862   1.153   3.470 -2.2553 -1.9006  1.0989
13088TIP3   OH239206   4.520   7.806   5.192 -0.3538  0.0590  0.2196
13088TIP3    H139207   4.611   7.778   5.190 -0.4885 -0.4658  0.9400
13088TIP3    H239208   4.522   7.893   5.232 -0.3077 -0.6218  1.7586
13089TIP3   OH239209   6.716   7.178   4.902 -0.0408  0.2179 -0.5741
13089TIP3    H139210   6.730   7.128   4.983 -2.5069  0.2481 -0.0936
13089TIP3    H239211   6.711   7.111   4.833  1.1870  0.1327 -0.5937
13090TIP3   OH239212   6.950   1.751   4.127 -0.1843 -0.2946 -0.7361
13090TIP3    H139213   6.989   1.802   4.198 -1.2439  0.4601 -0.6924
13090TIP3    H239214   7.019   1.690   4.101  0.2556 -0.5019  0.8578
13091TIP3   OH239215   3.117   6.835   4.116  0.5266 -0.1824 -0.3641
13091TIP3    H139216   3.051   6.864   4.052 -1.1776 -0.6730  1.1445
13091TIP3    H239217   3.133   6.912   4.171  0.9026 -0.1953 -0.4514
13092TIP3   OH239218   4.247   7.720   5.252 -0.2236  0.1281 -0.0085
13092TIP3    H139219   4.221   7.800   5.296  1.2277  0.0909  0.9666
13092TIP3    H239220   4.336   7.738   5.221 -0.8251 -0.2257 -1.9879
13093TIP3   OH239221   2.660   6.572   5.796 -0.2976 -0.0230 -0.3890
13093TIP3    H139222   2.690   6.571   5.705 -1.1507 -0.8389 -0.6774
13093TIP3    H239223   2.564   6.574   5.789 -0.3466  0.8906  0.4922
13094TIP3   OH239224   8.481   1.114   5.788 -0.1840  0.3315 -0.1364
13094TIP3    H139225   8.419   1.114   5.716 -0.2377 -1.4454 -0.1245
13094TIP3    H239226   8.543   1.183   5.767 -1.0430  0.8117 -1.1365
13095TIP3   OH239227   2.374   7.415   3.623 -0.2941 -0.3663  0.2486
13095TIP3    H139228   2.429   7.338   3.608 -0.3285 -0.4069  0.3309
13095TIP3    H239229   2.380   7.432   3.717 -2.3817 -1.8726  0.7093
13096TIP3   OH239230   5.529   0.143   4.534 -0.2084  0.1506 -0.4209
13096TIP3    H139231   5.447   0.191   4.527 -0.2096  0.0456 -1.1757
13096TIP3    H239232   5.511   0.059   4.492  0.0366 -0.1912  0.1622
13097TIP3   OH239233   2.892   7.427   1.138 -0.2238 -0.2663 -0.1827
13097TIP3    H139234   2.840   7.351   1.110 -0.1451 -0.1578 -0.6233
13097TIP3    H239235   2.983   7.400   1.127 -0.1990  0.1000 -0.9061
13098TIP3   OH239236   7.766   0.254   2.963 -0.0087  0.4343 -0.5546
13098TIP3    H139237   7.715   0.301   3.028 -1.6344 -0.1050 -1.4226
13098TIP3    H239238   7.800   0.177   3.009 -0.8748  0.2313 -0.2521
13099TIP3   OH239239   2.980   6.843   4.600  0.7349  0.0346 -0.7924
13099TIP3    H139240   3.000   6.901   4.674  0.2407 -0.0572 -0.5808
13099TIP3    H239241   3.064   6.806   4.574  0.8254 -0.4329  0.1438
13100TIP3   OH239242   7.795   2.152   0.310  0.2392 -0.0111  0.4235
13100TIP3    H139243   7.790   2.247   0.319 -2.1094  0.0238 -1.0090
13100TIP3    H239244   7.824   2.122   0.396 -0.5844  1.8882  1.3932
13101TIP3   OH239245   4.225   7.906   6.446 -0.4924 -0.0627  0.2991
13101TIP3    H139246   4.311   7.875   6.472 -0.4326  0.0686  0.2612
13101TIP3    H239247   4.217   7.993   6.487 -0.7670 -0.2435  0.6344
13102TIP3   OH239248   2.999   7.008   3.952  0.7313  0.2608  0.1915
13102TIP3    H139249   2.924   7.021   4.009 -0.5090 -0.1636 -1.3017
13102TIP3    H239250   2.964   6.960   3.877  2.3588  0.6424 -0.8439
13103TIP3   OH239251   5.889   0.012   6.143 -0.0317 -0.3402  0.2938
13103TIP3    H139252   5.818   0.075   6.158 -0.2088 -0.2457 -0.9357
13103TIP3    H239253   5.882  -0.049   6.216 -1.4353 -0.3695  0.1444
13104TIP3   OH239254   0.709   3.128   0.060 -0.1578 -0.3652 -0.0015
13104TIP3    H139255   0.692   3.070   0.134 -0.3595  1.1039  1.1298
13104TIP3    H239256   0.770   3.193   0.094 -1.4520  1.2361 -0.6492
13105TIP3   OH239257   6.467   2.059   6.115  0.1083  0.4362  0.2989
13105TIP3    H139258   6.520   2.061   6.195  1.6903  1.8264 -0.7224
13105TIP3    H239259   6.431   2.148   6.108 -0.8617  0.0229  0.0162
13106TIP3   OH239260   4.788   7.528   5.601 -0.0954  0.6333 -0.1685
13106TIP3    H139261   4.732   7.596   5.562  1.4428  2.1513  0.1738
13106TIP3    H239262   4.745   7.506   5.683 -1.8726 -0.5578 -1.3846
13107TIP3   OH239263   5.215   1.328   5.277  0.2111 -0.3330 -0.1957
13107TIP3    H139264   5.268   1.317   5.198  0.8663 -1.5987  0.4028
13107TIP3    H239265   5.277   1.354   5.345 -0.4048  1.0969 -0.1660
13108TIP3   OH239266   8.035   0.305   5.533  0.1610  0.4225  0.7329
13108TIP3    H139267   8.028   0.271   5.622  0.6687 -2.1151 -0.1543
13108TIP3    H239268   7.944   0.324   5.507 -0.0115  0.8773  1.6574
13109TIP3   OH239269   2.593   5.958   5.957 -0.1234  0.5924 -0.0079
13109TIP3    H139270   2.523   6.023   5.951  0.3259  1.6263  4.5123
13109TIP3    H239271   2.553   5.883   6.002  1.3614  0.8109  1.7238
13110TIP3   OH239272   3.063   3.035   0.904 -0.5793  0.0226 -0.0181
13110TIP3    H139273   3.059   3.108   0.965  1.0718 -0.4173  0.6380
13110TIP3    H239274   3.038   3.073   0.820 -2.1045  0.7966  0.7739
13111TIP3   OH239275   5.941   0.049   3.401  0.7514  0.3502 -0.5190
13111TIP3    H139276   5.860   0.075   3.445 -0.0444 -1.2784 -0.9973
13111TIP3    H239277   5.928   0.073   3.309  0.2740 -1.0882 -0.8422
13112TIP3   OH239278   1.993   6.661   4.468 -0.2921 -0.6914 -0.2141
13112TIP3    H139279   2.008   6.585   4.524 -1.4847  0.0993  1.1973
13112TIP3    H239280   1.929   6.631   4.403  2.6454 -2.2459 -2.5223
13113TIP3   OH239281   1.424   4.649   0.172  0.2117 -0.6096 -0.0364
13113TIP3    H139282   1.383   4.623   0.254 -0.3141 -0.4847 -0.2533
13113TIP3    H239283   1.375   4.600   0.105 -1.3212  1.5213 -0.5219
13114TIP3   OH239284   5.694   0.320   6.413  0.1250 -0.1302 -0.3167
13114TIP3    H139285   5.761   0.329   6.480 -1.3129 -1.5759  1.4012
13114TIP3    H239286   5.619   0.369   6.447 -0.1390  0.3493 -1.5643
13115TIP3   OH239287   4.065   7.046   4.230  0.5662  0.3050 -0.2624
13115TIP3    H139288   3.985   7.069   4.277  1.7409  2.4027  0.7974
13115TIP3    H239289   4.121   7.007   4.297  0.5566 -0.8796 -0.9355
13116TIP3   OH239290   7.667   0.117   3.868  0.1211  0.1633 -0.2399
13116TIP3    H139291   7.730   0.066   3.917 -0.0803  0.4824  0.3537
13116TIP3    H239292   7.680   0.207   3.897  0.3438  0.4267 -1.1400
13117TIP3   OH239293   3.670   7.777   6.486 -0.4574  0.0302  0.6372
13117TIP3    H139294   3.599   7.808   6.543 -2.2290 -0.1225 -1.3944
13117TIP3    H239295   3.664   7.682   6.490 -0.2907  0.0173  0.5747
13118TIP3   OH239296   7.091   0.172   5.172  0.9438 -0.1473 -0.0426
13118TIP3    H139297   7.123   0.136   5.090  1.9592 -1.2141  0.7897
13118TIP3    H239298   7.010   0.218   5.149 -0.4553 -3.0326 -1.1492
13119TIP3   OH239299   3.865   5.736   6.773  0.2036  0.0747 -0.1164
13119TIP3    H139300   3.802   5.769   6.709  0.7463  0.8837 -0.2471
13119TIP3    H239301   3.811   5.694   6.840 -0.4088 -0.1606 -0.7493
13120TIP3   OH239302   2.544   6.557   4.502 -0.4265  0.1386  0.1022
13120TIP3    H139303   2.593   6.507   4.568  1.5122  1.7416 -0.0596
13120TIP3    H239304   2.524   6.640   4.545 -1.0904  0.3443 -0.5914
13121TIP3   OH239305   4.313   7.235   6.557  0.5277 -0.2009  0.1337
13121TIP3    H139306   4.343   7.236   6.466  0.6144  2.3244  0.1490
13121TIP3    H239307   4.235   7.179   6.556 -0.6641  1.4182 -1.9266
13122TIP3   OH239308   8.481   1.295   4.577  0.2522 -0.5356 -0.6662
13122TIP3    H139309   8.531   1.268   4.500 -0.5619  0.0083 -1.4006
13122TIP3    H239310   8.414   1.354   4.542 -0.2020 -0.3858  0.4458
13123TIP3   OH239311   1.678   0.393   4.645 -0.1010 -0.1381  0.4790
13123TIP3    H139312   1.697   0.486   4.634  0.1745 -0.2657 -0.1473
13123TIP3    H239313   1.758   0.356   4.681 -0.2152 -0.1295  0.7408
13124TIP3   OH239314   0.691   0.960   5.361  0.2304 -0.3277 -0.5342
13124TIP3    H139315   0.663   0.882   5.314  0.5592 -1.3342  0.8983
13124TIP3    H239316   0.753   1.003   5.302 -1.2916 -0.1960 -2.0639
13125TIP3   OH239317   2.269   0.619   3.910  0.8974  0.0310  0.1085
13125TIP3    H139318   2.270   0.571   3.993 -0.8613 -1.6990 -0.8518
13125TIP3    H239319   2.350   0.593   3.866  0.9417 -0.4693  0.4869
13126TIP3   OH239320   7.024   7.615   4.889 -0.6315 -0.3932  0.2732
13126TIP3    H139321   7.098   7.592   4.832 -0.6246  0.5285 -0.1114
13126TIP3    H239322   6.996   7.532   4.927 -0.1802 -0.9280 -0.5348
13127TIP3   OH239323   3.531   7.408   4.966 -0.3294 -0.1540 -0.5095
13127TIP3    H139324   3.595   7.390   4.897  0.3050 -1.2483  0.3367
13127TIP3    H239325   3.517   7.323   5.008 -0.2737  0.5969  1.0671
13128TIP3   OH239326   6.691   0.778   6.154  0.6637  0.2867 -0.2686
13128TIP3    H139327   6.655   0.859   6.189 -1.0421 -1.1166  1.3059
13128TIP3    H239328   6.727   0.733   6.230  1.6941 -0.3873 -1.1484
13129TIP3   OH239329   1.429   0.670   5.996 -0.6204 -0.1405  0.0079
13129TIP3    H139330   1.450   0.745   5.941  0.9833 -0.3103  0.3747
13129TIP3    H239331   1.339   0.685   6.023 -0.2215  1.8115  0.3103
13130TIP3   OH239332   8.218   1.209   4.994  0.5546  0.2743 -0.3221
13130TIP3    H139333   8.243   1.153   5.068  0.3605  1.5785  0.7684
13130TIP3    H239334   8.246   1.297   5.021 -0.9413  1.0098 -1.1337
13131TIP3   OH239335   5.782   5.840   4.584  0.1105 -0.3838 -0.2688
13131TIP3    H139336   5.706   5.896   4.567  0.1131 -0.6660 -1.2673
13131TIP3    H239337   5.857   5.890   4.551  0.2909 -0.3454  0.1963
13132TIP3   OH239338   2.086   2.380   0.891  0.5963  0.3816  0.0059
13132TIP3    H139339   2.040   2.353   0.812  1.0060  0.1235 -0.1467
13132TIP3    H239340   2.175   2.399   0.862  0.7194  0.3929  0.3841
13133TIP3   OH239341   4.032   7.733   5.620 -0.1807  0.1789 -0.5846
13133TIP3    H139342   4.027   7.686   5.537  1.6344 -0.3295 -0.4272
13133TIP3    H239343   3.979   7.682   5.680 -0.3222 -0.2417 -1.0668
13134TIP3   OH239344   1.674   1.957   3.894 -0.0672 -0.0466 -0.1152
13134TIP3    H139345   1.716   1.982   3.976  0.5180 -0.1978 -0.3609
13134TIP3    H239346   1.747   1.930   3.838 -0.2286  2.2279 -1.4686
13135TIP3   OH239347   0.787   0.644   4.713  0.5055  0.0909 -0.2201
13135TIP3    H139348   0.782   0.704   4.787 -0.5937 -0.7309  0.3689
13135TIP3    H239349   0.769   0.699   4.637 -1.3759  0.3576  0.3929
13136TIP3   OH239350   7.142   0.425   5.890 -0.0065 -0.2205 -0.4341
13136TIP3    H139351   7.082   0.500   5.894 -1.5799 -1.4999  0.5082
13136TIP3    H239352   7.095   0.354   5.934  1.6255 -1.6639 -0.9603
13137TIP3   OH239353   7.283   7.810   3.103  0.4127 -0.7930  0.2771
13137TIP3    H139354   7.263   7.880   3.166  3.2307  0.9719 -0.7017
13137TIP3    H239355   7.369   7.778   3.128  0.5525 -1.6799 -1.2588
13138TIP3   OH239356   7.113   2.713   4.186 -0.7710 -0.5804  0.3601
13138TIP3    H139357   7.123   2.742   4.277  0.8692  0.8264 -0.2531
13138TIP3    H239358   7.174   2.640   4.177 -3.6947 -3.2708  1.4279
13139TIP3   OH239359   0.359   1.353   5.968  0.0853 -0.0580 -0.0633
13139TIP3    H139360   0.271   1.374   5.998 -0.6691  0.8144 -2.7574
13139TIP3    H239361   0.375   1.414   5.896  3.0143 -0.0006  0.5751
13140TIP3   OH239362   6.453   7.162   5.168 -0.0381 -0.2129 -0.0884
13140TIP3    H139363   6.530   7.125   5.126  1.5512  2.4841  0.3283
13140TIP3    H239364   6.381   7.144   5.107  1.5783  0.4953 -2.2677
13141TIP3   OH239365   7.249   7.336   3.192  0.2499 -0.1001 -0.2049
13141TIP3    H139366   7.280   7.390   3.265 -1.4898  0.3114  0.2594
13141TIP3    H239367   7.272   7.387   3.114 -0.1649  0.6840  0.1761
13142TIP3   OH239368   5.128   7.765   3.890  0.5598 -0.5798 -0.0060
13142TIP3    H139369   5.086   7.845   3.922  0.1162 -0.3920 -1.0129
13142TIP3    H239370   5.217   7.769   3.924  0.7029  0.6064 -0.4694
13143TIP3   OH239371   5.840   6.250   5.810 -0.6169  0.0341  0.3063
13143TIP3    H139372   5.769   6.263   5.872 -0.7963  0.2938  0.0480
13143TIP3    H239373   5.851   6.336   5.768 -1.0977 -0.3840 -0.6663
13144TIP3   OH239374   6.724   7.041   5.142 -0.5099 -0.3057 -0.5696
13144TIP3    H139375   6.724   6.946   5.153 -0.5271 -0.3462 -0.9400
13144TIP3    H239376   6.779   7.073   5.214 -1.2379 -0.5314  0.0925
13145TIP3   OH239377   1.066   0.948   3.679 -0.2118 -0.1332 -0.7080
13145TIP3    H139378   0.971   0.947   3.692  0.0660  0.9897  1.5504
13145TIP3    H239379   1.084   1.036   3.645  0.0751 -0.1597 -0.6235
13146TIP3   OH239380   1.403   0.111   3.879 -0.3663 -0.0737 -0.0398
13146TIP3    H139381   1.337   0.042   3.868  0.9534 -1.7194  1.7587
13146TIP3    H239382   1.386   0.146   3.966  0.2404  0.4438 -0.1282
13147TIP3   OH239383   2.826   3.467   0.082  0.8780 -0.4038 -0.3052
13147TIP3    H139384   2.871   3.418   0.151  0.6895  0.0825  0.1604
13147TIP3    H239385   2.805   3.400   0.016  1.0515 -0.8683  0.1047
13148TIP3   OH239386   0.763   0.935   1.565  0.3983 -0.6035  0.4054
13148TIP3    H139387   0.854   0.944   1.593 -0.2386  1.6861  1.8974
13148TIP3    H239388   0.713   0.990   1.626 -1.7352 -0.1897 -1.6184
13149TIP3   OH239389   8.087   2.472   3.198 -0.0160  0.5659  0.4430
13149TIP3    H139390   8.140   2.444   3.273  0.3585  0.7710  0.2589
13149TIP3    H239391   8.002   2.493   3.236  0.4515  1.5716  0.9629
13150TIP3   OH239392   0.759   0.364   4.657 -0.4366  0.0086  0.3785
13150TIP3    H139393   0.772   0.453   4.687 -0.0991 -0.3341  1.2556
13150TIP3    H239394   0.685   0.370   4.595 -0.0714  0.9627  0.0330
13151TIP3   OH239395   8.016   1.931   4.260 -0.1369 -0.0036 -0.1201
13151TIP3    H139396   7.930   1.921   4.219  0.0259 -1.1880 -0.1939
13151TIP3    H239397   8.064   1.990   4.201 -1.0114  0.9585  0.1131
13152TIP3   OH239398   1.498   1.562   5.490 -0.1996  0.1892  0.2480
13152TIP3    H139399   1.578   1.611   5.509  1.1183 -1.5338 -0.7321
13152TIP3    H239400   1.515   1.473   5.522 -1.9052 -0.0840  0.4782
13153TIP3   OH239401   6.952   0.863   2.881  0.4937 -0.2825  0.1481
13153TIP3    H139402   6.934   0.863   2.787  0.1889  1.6788  0.1866
13153TIP3    H239403   7.031   0.810   2.890 -0.8305 -2.5145 -0.9137
13154TIP3   OH239404   6.217   7.645   6.405 -0.2257 -0.0047 -0.6128
13154TIP3    H139405   6.288   7.698   6.442  0.3621  0.0061 -1.7424
13154TIP3    H239406   6.162   7.707   6.359 -0.2136 -0.2049 -0.8985
13155TIP3   OH239407   3.384   7.573   3.892  0.0879 -0.6191 -0.2569
13155TIP3    H139408   3.398   7.574   3.798  2.0237 -1.9614 -0.0210
13155TIP3    H239409   3.334   7.652   3.910  0.1396 -0.0821 -2.3418
13156TIP3   OH239410   7.529   0.654   6.092 -0.3576  0.2678 -0.1040
13156TIP3    H139411   7.566   0.571   6.122  0.5147 -0.3268 -2.6526
13156TIP3    H239412   7.580   0.721   6.136 -0.5851 -0.5522  1.4170
13157TIP3   OH239413   6.105   7.764   5.471  0.1975  0.9082  0.1884
13157TIP3    H139414   6.057   7.827   5.525 -0.1585  1.5457 -0.8450
13157TIP3    H239415   6.045   7.690   5.462  0.1160  0.9495  0.3715
13158TIP3   OH239416   3.049   7.628   6.231  0.2809 -0.8966 -0.3684
13158TIP3    H139417   3.045   7.567   6.305  1.5850 -2.1024 -1.2927
13158TIP3    H239418   3.036   7.714   6.271  0.7589 -1.5592  1.2465
13159TIP3   OH239419   2.002   4.992   0.021 -0.0143 -0.8243  0.6816
13159TIP3    H139420   2.053   4.947   0.089  0.3504 -0.5396  0.5969
13159TIP3    H239421   2.047   4.971  -0.060  0.4733  0.1335  0.6987
13160TIP3   OH239422   5.899   7.557   3.056 -0.2830  0.6333  0.4715
13160TIP3    H139423   5.982   7.511   3.063 -1.1689 -0.9214  0.9735
13160TIP3    H239424   5.913   7.621   2.986  0.7484 -0.9275 -0.7894
13161TIP3   OH239425   4.075   6.352   4.980  0.2300 -0.3935 -0.3154
13161TIP3    H139426   4.117   6.393   5.055  2.9825 -0.9093 -1.5355
13161TIP3    H239427   4.066   6.260   5.004  0.8921 -0.5130 -0.5335
13162TIP3   OH239428   8.057   0.675   4.005 -0.0087  0.3725  0.1361
13162TIP3    H139429   8.061   0.753   4.061 -0.5300  0.8029 -0.4197
13162TIP3    H239430   7.995   0.617   4.048  0.5801  0.1516  0.6920
13163TIP3   OH239431   5.501   7.847   4.992  0.1226  0.1118  0.0771
13163TIP3    H139432   5.538   7.760   5.009  1.3052  0.2293 -1.7290
13163TIP3    H239433   5.421   7.849   5.043  0.5947 -1.6771  0.9397
13164TIP3   OH239434   6.921   2.184   4.184 -0.6202 -0.4294  0.3018
13164TIP3    H139435   6.914   2.183   4.088  0.6152  0.0984  0.1983
13164TIP3    H239436   6.986   2.252   4.202  0.7600 -2.0208  1.4176
13165TIP3   OH239437   6.965   6.978   1.799 -0.7785  0.5418  0.4196
13165TIP3    H139438   6.956   7.072   1.813 -1.4916  0.2618  2.0279
13165TIP3    H239439   6.876   6.944   1.809 -0.2805 -0.4784  1.5156
13166TIP3   OH239440   3.425   7.437   4.660 -0.6232  0.4053  0.0685
13166TIP3    H139441   3.398   7.446   4.752  0.3543  0.0611  0.3983
13166TIP3    H239442   3.344   7.450   4.610 -0.9193  2.0235  0.9041
13167TIP3   OH239443   6.161   7.018   6.338 -0.1862  0.2392 -0.0426
13167TIP3    H139444   6.212   6.965   6.277 -0.5358 -0.8018  0.5526
13167TIP3    H239445   6.227   7.062   6.392  0.1107  0.6352 -0.7226
13168TIP3   OH239446   7.432   0.826   2.461  0.7209  0.0234 -0.1225
13168TIP3    H139447   7.367   0.887   2.497 -0.3251 -0.6542 -0.8124
13168TIP3    H239448   7.453   0.863   2.375  0.4272 -0.3355 -0.3505
13169TIP3   OH239449   6.653   2.645   3.855 -0.3301  0.1416  0.3811
13169TIP3    H139450   6.573   2.597   3.873 -0.4812  0.8982  1.8004
13169TIP3    H239451   6.723   2.587   3.883 -0.3500 -0.6622 -1.1823
13170TIP3   OH239452   6.456   7.778   6.474  0.3805 -0.1652  0.5240
13170TIP3    H139453   6.512   7.741   6.406  0.9802 -1.8763  1.9119
13170TIP3    H239454   6.487   7.738   6.555 -2.3774 -0.6066  1.4065
13171TIP3   OH239455   1.423   1.679   5.239 -0.7281 -0.1017 -0.4348
13171TIP3    H139456   1.428   1.761   5.288 -1.4912  0.2464 -0.9136
13171TIP3    H239457   1.458   1.613   5.298 -2.1564  0.2135  0.8038
13172TIP3   OH239458   8.254   0.584   3.850  0.1278 -0.2937 -0.2665
13172TIP3    H139459   8.293   0.658   3.804 -0.2381  0.1704  0.1692
13172TIP3    H239460   8.199   0.624   3.917 -1.1767 -0.9441 -0.9363
13173TIP3   OH239461   5.253   7.748   6.158 -0.6738  0.6524  0.3214
13173TIP3    H139462   5.211   7.796   6.230 -2.5227  1.1798 -1.0507
13173TIP3    H239463   5.218   7.659   6.166 -0.0140  0.4342  0.7458
13174TIP3   OH239464   8.061   7.689   6.855 -0.1113  0.1602  0.0349
13174TIP3    H139465   8.143   7.680   6.807  0.1190  0.6048  0.3324
13174TIP3    H239466   8.027   7.775   6.829 -0.9366 -0.3923 -0.7671
13175TIP3   OH239467   7.160   1.287   3.934  0.4116 -0.5959  0.1089
13175TIP3    H139468   7.150   1.241   3.850 -0.4291  1.6123 -1.0269
13175TIP3    H239469   7.253   1.311   3.936 -0.0627  1.4533 -1.3344
13176TIP3   OH239470   0.382   0.807   4.213 -0.7132  0.1405 -0.4210
13176TIP3    H139471   0.368   0.900   4.229 -1.2874 -0.4233  2.6867
13176TIP3    H239472   0.464   0.803   4.164 -0.1886  2.2292  0.2430
13177TIP3   OH239473   4.582   4.679   0.254 -0.7486  0.2593 -0.2981
13177TIP3    H139474   4.504   4.704   0.304  0.0161  2.6349 -0.2197
13177TIP3    H239475   4.653   4.684   0.317 -0.4928 -1.7610 -0.4114
13178TIP3   OH239476   6.484   7.601   5.118 -0.2618  0.1261  0.3395
13178TIP3    H139477   6.434   7.563   5.191 -0.3596  0.1502  0.2853
13178TIP3    H239478   6.488   7.694   5.138 -1.3637  0.3237 -0.3244
13179TIP3   OH239479   4.192   7.008   5.041 -0.4475  0.2830  0.2732
13179TIP3    H139480   4.188   6.913   5.043  1.8041  0.1608 -0.0412
13179TIP3    H239481   4.160   7.035   5.127  0.9765 -0.8596  1.1828
13180TIP3   OH239482   7.583   6.917   5.465  0.2350  0.5969 -0.3403
13180TIP3    H139483   7.518   6.850   5.484 -0.1721  0.6975 -1.3486
13180TIP3    H239484   7.534   6.999   5.465  0.4282  0.7169 -0.6760
13181TIP3   OH239485   7.732   7.613   5.248 -0.5667  0.5136  0.2122
13181TIP3    H139486   7.645   7.637   5.216  0.2689  0.1566 -2.5403
13181TIP3    H239487   7.772   7.695   5.276 -2.0082  0.5845  2.1173
13182TIP3   OH239488   6.906   7.501   3.951 -0.0369 -0.2033  0.4529
13182TIP3    H139489   6.930   7.450   4.028  1.7046  0.1100  0.1619
13182TIP3    H239490   6.845   7.567   3.983 -0.2716 -0.8410  1.3326
13183TIP3   OH239491   5.537   1.498   3.338 -0.5460  0.1673  0.4432
13183TIP3    H139492   5.487   1.438   3.284  0.1509 -0.8782  0.9313
13183TIP3    H239493   5.623   1.504   3.295 -0.8401  1.3742  0.0081
13184TIP3   OH239494   7.717   1.708   4.022  0.3259  0.4542 -0.1073
13184TIP3    H139495   7.739   1.761   3.945 -4.1744 -0.3146 -2.0372
13184TIP3    H239496   7.683   1.771   4.086  0.4362  0.6034 -0.1950
13185TIP3   OH239497   8.417   1.177   5.517  0.0350  0.1779  0.4062
13185TIP3    H139498   8.448   1.263   5.542  1.9492 -0.6512  0.9917
13185TIP3    H239499   8.495   1.132   5.482 -1.1284 -0.9780 -0.7943
13186TIP3   OH239500   8.171   7.547   4.142  0.3027 -0.2167  0.0077
13186TIP3    H139501   8.195   7.595   4.222 -0.5008 -0.4931  0.4235
13186TIP3    H239502   8.091   7.499   4.166  1.3296 -2.1155 -0.2610
13187TIP3   OH239503   6.868   7.930   3.930  0.4052 -0.2300  0.2360
13187TIP3    H139504   6.914   7.879   3.996 -0.3513 -0.4812  0.5836
13187TIP3    H239505   6.868   7.875   3.852  3.1683  0.9509 -0.6430
13188TIP3   OH239506   5.957   7.774   2.889 -0.0910  0.1424 -0.1846
13188TIP3    H139507   5.971   7.825   2.969 -0.3953 -0.1145  0.0310
13188TIP3    H239508   6.021   7.810   2.826 -1.1168  1.6025 -0.4156
13189TIP3   OH239509   7.544   1.067   4.863  0.7184  0.2629 -0.0295
13189TIP3    H139510   7.557   0.997   4.926 -0.8311 -0.3528 -0.3545
13189TIP3    H239511   7.569   1.029   4.779  2.3351  0.9330  0.1364
13190TIP3   OH239512   0.596   0.735   5.207 -0.4352 -0.5583  0.1420
13190TIP3    H139513   0.518   0.697   5.247 -0.5594 -0.4534  0.0049
13190TIP3    H239514   0.658   0.663   5.200 -0.8908 -0.8850 -0.6718
13191TIP3   OH239515   8.234   1.064   1.728  0.3322  0.6100  0.3611
13191TIP3    H139516   8.330   1.064   1.724  0.2679 -0.2881 -1.6829
13191TIP3    H239517   8.210   0.972   1.734 -0.5017  0.4923 -3.4342
13192TIP3   OH239518   7.102   0.575   3.900 -0.4910  0.2409 -0.0990
13192TIP3    H139519   7.037   0.517   3.860 -0.2437  0.2986 -0.5853
13192TIP3    H239520   7.054   0.656   3.918 -0.7171  0.0531  0.1464
13193TIP3   OH239521   2.650   1.373   5.055  0.1935 -0.0538 -0.2896
13193TIP3    H139522   2.668   1.459   5.017  0.0843  1.0499  2.0971
13193TIP3    H239523   2.647   1.314   4.979 -0.3362  2.1205 -2.0172
13194TIP3   OH239524   5.866   7.466   5.909  0.8635 -0.9151 -0.5555
13194TIP3    H139525   5.928   7.538   5.903  0.7196 -0.7432 -0.0144
13194TIP3    H239526   5.802   7.494   5.975  1.3184 -1.9093  0.3181
13195TIP3   OH239527   3.018   7.894   4.172  0.0783 -0.5015  0.1788
13195TIP3    H139528   2.952   7.866   4.235  0.1309  1.4581  1.1434
13195TIP3    H239529   2.976   7.964   4.122  0.7227 -0.6808 -0.6336
13196TIP3   OH239530   4.340   6.976   2.802  0.6170  0.3823 -0.4491
13196TIP3    H139531   4.340   6.884   2.829  2.4718  0.5644  0.2560
13196TIP3    H239532   4.250   7.005   2.816  0.1933 -1.1213  0.0521
13197TIP3   OH239533   7.491   7.623   5.129  0.3519  0.1741  0.0591
13197TIP3    H139534   7.418   7.618   5.191  0.2673  0.9322  0.0290
13197TIP3    H239535   7.455   7.669   5.054  0.6820 -0.0326 -0.2251
13198TIP3   OH239536   7.035   6.763   3.658  0.3730  0.0559 -0.0266
13198TIP3    H139537   7.087   6.836   3.691  2.0390 -0.7561 -0.8281
13198TIP3    H239538   7.059   6.755   3.566 -0.0760 -1.2608 -0.0443
13199TIP3   OH239539   5.923   7.434   6.684  0.5272  0.3442  0.4464
13199TIP3    H139540   5.892   7.346   6.706 -0.5573  0.0160 -2.2434
13199TIP3    H239541   6.015   7.434   6.710  0.3502 -1.3502  1.1136
13200TIP3   OH239542   5.027   6.287   4.292 -0.5220 -0.0291 -0.1200
13200TIP3    H139543   5.024   6.352   4.222 -0.1715 -0.6950 -0.7495
13200TIP3    H239544   5.101   6.232   4.271 -0.9153 -0.7382  0.3351
13201TIP3   OH239545   0.269   0.196   3.612  0.0328  0.1327  0.3452
13201TIP3    H139546   0.184   0.227   3.581  0.2105 -0.6766 -1.0195
13201TIP3    H239547   0.325   0.199   3.534  0.8079 -0.8788  0.8501
13202TIP3   OH239548   0.395   1.330   3.810 -0.0412  0.3475  0.0535
13202TIP3    H139549   0.359   1.320   3.898 -0.5298  1.8642  0.0333
13202TIP3    H239550   0.325   1.301   3.752  0.3389 -0.8074  0.1617
13203TIP3   OH239551   0.186   0.355   2.896  0.5826  0.9350 -0.2601
13203TIP3    H139552   0.276   0.388   2.899  0.4277  1.4689 -1.5881
13203TIP3    H239553   0.140   0.414   2.837 -0.9038  1.2673  1.1984
13204TIP3   OH239554   7.045   0.957   4.742  0.3236  0.0877 -0.4035
13204TIP3    H139555   6.983   1.029   4.752 -0.0980 -0.2182 -0.8079
13204TIP3    H239556   7.018   0.893   4.809  1.2782  0.7102  0.5911
13205TIP3   OH239557   7.516   6.852   6.166 -0.4725 -0.1655 -0.0308
13205TIP3    H139558   7.455   6.901   6.222  0.0245 -0.2585  0.6052
13205TIP3    H239559   7.523   6.904   6.086  0.5115  1.1281  0.8748
13206TIP3   OH239560   5.771   7.059   4.753  0.9114 -0.2759 -0.6383
13206TIP3    H139561   5.774   7.140   4.702 -1.7257 -0.6239 -1.4217
13206TIP3    H239562   5.679   7.036   4.756  1.4488 -2.3942  0.9884
13207TIP3   OH239563   5.819   7.919   4.449  0.6398  0.1492  0.0772
13207TIP3    H139564   5.758   7.912   4.376 -1.1012  0.4963  1.4682
13207TIP3    H239565   5.894   7.965   4.413 -0.0742  0.0668 -1.5645
13208TIP3   OH239566   6.511   1.489   3.667 -0.5694  0.1669  0.2665
13208TIP3    H139567   6.563   1.513   3.591  0.6868 -0.0904  1.0106
13208TIP3    H239568   6.567   1.512   3.742 -1.4937 -0.2128  1.0856
13209TIP3   OH239569   3.795   6.846   4.860  0.4266 -0.3701  0.0383
13209TIP3    H139570   3.700   6.850   4.852  0.3588  1.5874  1.3857
13209TIP3    H239571   3.828   6.876   4.776 -0.1817  2.6883  0.8489
13210TIP3   OH239572   7.555   7.744   3.770 -0.2011 -0.2606 -0.2645
13210TIP3    H139573   7.608   7.783   3.701  2.2449 -1.3829  0.9194
13210TIP3    H239574   7.580   7.652   3.771 -0.1862 -0.2808  2.0536
13211TIP3   OH239575   5.519   7.693   6.127  0.6524 -0.1892 -0.7064
13211TIP3    H139576   5.577   7.769   6.131  0.0311  0.3884 -2.0387
13211TIP3    H239577   5.433   7.730   6.110  0.2076 -1.1502 -0.5733
13212TIP3   OH239578   6.037   7.091   4.705  0.7254  0.2445 -0.0717
13212TIP3    H139579   5.943   7.076   4.717  0.6815  0.0659 -0.6006
13212TIP3    H239580   6.048   7.185   4.716  0.2105  0.5093 -1.6653
13213TIP3   OH239581   7.465   7.026   4.769 -0.0931  0.1924 -0.5106
13213TIP3    H139582   7.408   7.076   4.827 -0.9937  0.0177 -1.2395
13213TIP3    H239583   7.488   6.947   4.818  0.3098  0.7185  0.1535
13214TIP3   OH239584   2.523   0.165   5.000 -0.6565 -0.5438 -0.0295
13214TIP3    H139585   2.539   0.118   4.919 -1.6353  0.1743 -0.6420
13214TIP3    H239586   2.437   0.205   4.989 -0.1793  0.7369  0.7855
13215TIP3   OH239587   5.749   7.828   4.048  0.1071  0.2293  0.2258
13215TIP3    H139588   5.684   7.831   4.118 -0.6460  0.8620 -0.4790
13215TIP3    H239589   5.833   7.819   4.093 -0.4558 -0.4815  1.1508
13216TIP3   OH239590   2.911   5.132   0.128  0.1544  0.0949  0.7704
13216TIP3    H139591   2.881   5.190   0.058  0.0590  1.2243  1.7491
13216TIP3    H239592   2.996   5.100   0.097  0.0122  0.4068  0.0397
13217TIP3   OH239593   5.274   7.657   5.557 -0.1955  0.0661  0.7563
13217TIP3    H139594   5.288   7.575   5.510  0.3972  0.2536  0.5933
13217TIP3    H239595   5.282   7.725   5.490 -0.7754  0.2484  0.8752
13218TIP3   OH239596   6.509   7.093   5.421 -0.0409 -0.7300 -0.2700
13218TIP3    H139597   6.463   7.122   5.342 -0.4912  0.0970  0.2914
13218TIP3    H239598   6.577   7.158   5.435  0.5946 -1.3468 -0.4604
13219TIP3   OH239599   4.088   4.815   0.249 -0.4253 -0.0617 -0.4040
13219TIP3    H139600   4.151   4.871   0.204 -2.3161  1.1609 -1.5954
13219TIP3    H239601   4.117   4.816   0.341  0.7653  1.2203 -0.7694
13220TIP3   OH239602   3.496   7.160   5.124  0.4487 -0.3168  0.2528
13220TIP3    H139603   3.449   7.109   5.190  0.8866  0.7348  1.3771
13220TIP3    H239604   3.587   7.159   5.153  0.6321  0.2117 -0.2947
13221TIP3   OH239605   4.504   5.637   1.437  0.2799 -0.0049 -0.1962
13221TIP3    H139606   4.474   5.682   1.358  0.0735 -0.2225 -0.2414
13221TIP3    H239607   4.509   5.706   1.503 -2.0408 -0.2657  0.2965
13222TIP3   OH239608   5.807   7.212   4.321  0.3796  0.5206 -0.3937
13222TIP3    H139609   5.824   7.126   4.360  0.7456  1.1712  0.9031
13222TIP3    H239610   5.715   7.230   4.342  0.3324  0.4819 -0.5724
13223TIP3   OH239611   4.408   7.333   3.415  0.7981 -0.0694  0.1174
13223TIP3    H139612   4.320   7.359   3.387  0.6591 -1.0957 -0.4128
13223TIP3    H239613   4.461   7.412   3.403  0.2185  0.2030 -0.7269
13224TIP3   OH239614   8.045   7.002   2.734 -0.2732 -0.2843 -0.3273
13224TIP3    H139615   7.968   7.017   2.678 -0.3371 -0.3821 -0.2638
13224TIP3    H239616   8.014   6.944   2.803 -0.4299  0.5746  0.3337
13225TIP3   OH239617   7.076   6.207   3.861 -0.0206 -0.2728  0.2667
13225TIP3    H139618   7.020   6.145   3.908 -0.0269 -0.7625 -0.3791
13225TIP3    H239619   7.129   6.248   3.930 -2.7222  1.8712  1.1781
13226TIP3   OH239620   0.593   0.729   2.896  0.1803 -0.3865 -0.0868
13226TIP3    H139621   0.656   0.758   2.961 -0.3039  0.9918 -0.2181
13226TIP3    H239622   0.515   0.706   2.946  0.0884 -0.1246 -0.1112
13227TIP3   OH239623   1.588   0.779   2.719 -0.1058  0.2883  0.0189
13227TIP3    H139624   1.625   0.787   2.807  0.5568 -4.3703  0.2944
13227TIP3    H239625   1.660   0.747   2.665 -1.5866 -1.0652 -1.2356
13228TIP3   OH239626   0.264   1.881   6.182  0.1864  0.4227  0.1712
13228TIP3    H139627   0.311   1.914   6.106 -0.3508 -0.2231 -0.4546
13228TIP3    H239628   0.328   1.829   6.230  0.7408  1.4862  0.5873
13229TIP3   OH239629   3.741   7.186   5.254  0.5958  0.7155  0.2446
13229TIP3    H139630   3.796   7.139   5.317  1.7544  0.9521 -0.5727
13229TIP3    H239631   3.803   7.223   5.191 -0.4442  1.7168 -0.2063
13230TIP3   OH239632   1.595   0.063   5.429  0.2749  0.1726 -0.7124
13230TIP3    H139633   1.502   0.044   5.436  0.3914  0.1732  0.9879
13230TIP3    H239634   1.600   0.137   5.369 -0.9395  1.0864  0.2889
13231TIP3   OH239635   0.753   0.712   3.809  0.2018  0.2129  0.2976
13231TIP3    H139636   0.770   0.763   3.730 -0.3212  0.2645  0.2154
13231TIP3    H239637   0.685   0.650   3.782  1.3728 -1.0401  0.1822
13232TIP3   OH239638   7.999   1.334   2.615  0.2208  0.3705 -0.2048
13232TIP3    H139639   8.086   1.310   2.645 -0.3535 -1.5183  0.0158
13232TIP3    H239640   7.987   1.285   2.534 -0.8486  0.1965  0.0478
13233TIP3   OH239641   6.038   7.204   5.325 -0.1544  0.0189  0.1196
13233TIP3    H139642   6.108   7.270   5.318 -0.6067  0.7997  2.3126
13233TIP3    H239643   5.982   7.220   5.249 -0.5429  2.5647  0.8714
13234TIP3   OH239644   4.838   6.695   6.398  0.0793 -0.0144  0.1275
13234TIP3    H139645   4.914   6.636   6.402  1.4352  1.7175  0.2474
13234TIP3    H239646   4.846   6.738   6.313 -0.6973  0.2959  0.2085
13235TIP3   OH239647   0.654   2.358   3.725  0.4852  0.6965  0.5905
13235TIP3    H139648   0.590   2.425   3.700  1.6298  1.1793 -1.1294
13235TIP3    H239649   0.700   2.397   3.799  0.4552  1.3822  0.2570
13236TIP3   OH239650   6.289   0.642   2.785 -0.2107 -0.6628  0.4777
13236TIP3    H139651   6.262   0.561   2.741 -0.1525  0.3400 -1.4465
13236TIP3    H239652   6.221   0.658   2.850 -1.3618 -1.1167 -0.6005
13237TIP3   OH239653   7.831   6.649   5.976 -0.3320 -0.8849 -0.0201
13237TIP3    H139654   7.795   6.561   5.988  0.8161 -1.2519  0.8347
13237TIP3    H239655   7.898   6.656   6.044  0.8586 -0.0382 -1.2765
13238TIP3   OH239656   4.582   2.913   0.162  0.1033 -0.5394  0.5024
13238TIP3    H139657   4.594   3.003   0.189  0.1754 -0.9206  1.7575
13238TIP3    H239658   4.504   2.884   0.208 -0.4251 -0.8599 -0.5716
13239TIP3   OH239659   3.156   7.023   5.279 -0.3825 -0.3348 -0.6096
13239TIP3    H139660   3.216   6.984   5.342 -0.8663 -0.5514 -0.2800
13239TIP3    H239661   3.114   7.095   5.326 -0.4467 -0.2374 -0.8122
13240TIP3   OH239662   6.664   7.737   6.041 -1.4675  0.0461  0.4232
13240TIP3    H139663   6.632   7.814   6.088 -2.1497 -0.7401  1.2873
13240TIP3    H239664   6.759   7.744   6.044 -1.5313  1.0629  0.1312
13241TIP3   OH239665   0.817   0.140   4.835 -0.3954 -0.3263 -0.6369
13241TIP3    H139666   0.796   0.219   4.785  2.0227 -0.4313 -1.9019
13241TIP3    H239667   0.732   0.103   4.859 -1.5640  1.4994 -1.8719
13242TIP3   OH239668   3.566   7.017   4.122  0.1052  0.2482 -0.0380
13242TIP3    H139669   3.527   6.930   4.114  0.4143  0.2574 -1.6966
13242TIP3    H239670   3.492   7.077   4.115  0.1691  0.1968 -1.1301
13243TIP3   OH239671   4.983   7.053   3.086  0.5481 -0.2027  0.1090
13243TIP3    H139672   5.014   7.085   3.170  0.4327  1.3391 -0.4142
13243TIP3    H239673   5.062   7.044   3.033  0.6919 -1.7581  0.5465
13244TIP3   OH239674   7.371   6.119   5.027  0.1946 -0.4664  0.1262
13244TIP3    H139675   7.429   6.173   4.974  1.0184 -0.8760  0.5887
13244TIP3    H239676   7.375   6.032   4.986  0.2357 -0.5964  0.4025
13245TIP3   OH239677   4.517   7.068   4.343  0.1528 -0.3067 -0.1096
13245TIP3    H139678   4.568   7.122   4.283 -2.3303 -0.7763 -2.7684
13245TIP3    H239679   4.564   7.073   4.426  3.3486  0.8835 -1.9104
13246TIP3   OH239680   6.621   7.436   4.853  0.3373  0.4688  0.1504
13246TIP3    H139681   6.653   7.440   4.763 -3.2827  0.2597 -1.2303
13246TIP3    H239682   6.658   7.355   4.889  1.7838  0.5434 -1.1260
13247TIP3   OH239683   3.787   7.924   3.171 -0.2083  0.3189  0.7230
13247TIP3    H139684   3.701   7.965   3.164  0.0199  0.6870  0.0507
13247TIP3    H239685   3.849   7.992   3.143  0.1772 -0.4448 -0.3116
13248TIP3   OH239686   0.138   0.811   3.070 -0.3529 -0.4038  0.9560
13248TIP3    H139687   0.074   0.741   3.063 -1.1907  0.3039  1.3840
13248TIP3    H239688   0.090   0.890   3.043  0.3432  0.1281  1.2546
13249TIP3   OH239689   5.997   7.688   5.839  0.0545 -0.1691  0.0708
13249TIP3    H139690   6.023   7.751   5.906 -0.0779 -0.8436  0.7650
13249TIP3    H239691   5.914   7.721   5.805 -1.7577 -1.7474  2.8195
13250TIP3   OH239692   8.000   0.228   4.757 -0.1406  0.1069 -1.0758
13250TIP3    H139693   7.964   0.225   4.669  1.3716 -0.5897 -1.6932
13250TIP3    H239694   8.015   0.321   4.773 -1.2032  0.3075 -1.2147
13251TIP3   OH239695   0.146   0.094   6.330  0.2585  0.5152 -0.2059
13251TIP3    H139696   0.132   0.188   6.342  1.5690  0.7195 -0.2176
13251TIP3    H239697   0.241   0.083   6.335  0.1030 -0.8308 -0.0626
13252TIP3   OH239698   6.117   7.041   4.407  0.3023  0.4288 -0.5997
13252TIP3    H139699   6.028   7.008   4.415 -0.3662  1.8659 -1.6846
13252TIP3    H239700   6.125   7.106   4.476  0.1408  1.0330 -1.1378
13253TIP3   OH239701   6.486   7.415   3.501  0.5806 -0.1777 -0.0464
13253TIP3    H139702   6.535   7.343   3.460 -0.6747  0.0875 -2.0951
13253TIP3    H239703   6.396   7.401   3.472  0.0842  1.3776  0.7534
13254TIP3   OH239704   2.602   0.576   5.273 -0.1568  0.3257  0.8318
13254TIP3    H139705   2.529   0.623   5.232 -0.8710 -0.0897  1.6216
13254TIP3    H239706   2.569   0.487   5.286  0.7703 -0.0747  0.4675
13255TIP3   OH239707   1.775   4.049   1.877  0.2382  0.1244 -0.0010
13255TIP3    H139708   1.797   4.141   1.892 -0.6697  0.4044 -0.3339
13255TIP3    H239709   1.700   4.033   1.934 -0.5952  0.0376 -1.1088
13256TIP3   OH239710   0.737   0.786   4.499 -0.2835  0.5503 -0.6117
13256TIP3    H139711   0.696   0.752   4.420  1.9559 -1.3651 -1.0122
13256TIP3    H239712   0.808   0.842   4.467  1.3098 -1.0667 -0.0413
13257TIP3   OH239713   6.558   6.747   2.572 -0.9969 -0.1336 -0.4945
13257TIP3    H139714   6.622   6.743   2.644 -2.0884 -0.4890  0.4644
13257TIP3    H239715   6.497   6.816   2.597 -1.8237 -0.7707 -0.7135
13258TIP3   OH239716   0.863   0.660   2.419 -0.1346 -0.1676  0.3587
13258TIP3    H139717   0.870   0.740   2.471 -0.3427 -1.2508  2.1211
13258TIP3    H239718   0.852   0.591   2.485  0.9820 -1.7491 -1.0968
13259TIP3   OH239719   4.189   7.162   3.058  0.1249 -0.1185 -0.7883
13259TIP3    H139720   4.278   7.130   3.073  0.4236  0.0035 -2.1953
13259TIP3    H239721   4.133   7.104   3.111  0.8906 -1.2834 -1.2320
13260TIP3   OH239722   5.670   7.927   3.813 -0.3102  0.2592  0.0156
13260TIP3    H139723   5.697   7.887   3.895 -0.1106 -1.4957 -0.8834
13260TIP3    H239724   5.752   7.952   3.770 -0.4193  1.3177  0.4095
13261TIP3   OH239725   6.625   7.269   2.163 -0.1160 -0.0862  0.4344
13261TIP3    H139726   6.591   7.346   2.210  1.4213  0.0283  1.4127
13261TIP3    H239727   6.691   7.233   2.222  0.3714 -1.1847 -0.7619
13262TIP3   OH239728   3.261   0.424   2.997  0.5441 -0.5701  0.8095
13262TIP3    H139729   3.294   0.374   2.922  0.3732 -2.1801  1.7844
13262TIP3    H239730   3.223   0.358   3.055 -2.7918  1.0344  0.5712
13263TIP3   OH239731   7.873   6.803   5.488 -0.1255 -0.2282 -0.5829
13263TIP3    H139732   7.787   6.844   5.487  0.2861  0.6388 -0.1968
13263TIP3    H239733   7.874   6.751   5.568 -0.5298 -0.7767 -0.9217
13264TIP3   OH239734   5.612   7.024   3.976 -0.2673  0.0613 -0.6758
13264TIP3    H139735   5.571   6.972   4.045  1.1388  1.8359  1.5460
13264TIP3    H239736   5.538   7.066   3.931 -1.0603  1.7726  2.1023
13265TIP3   OH239737   0.346   0.816   1.078  0.0758 -0.1063  0.0404
13265TIP3    H139738   0.309   0.854   0.998  2.8342  0.8640 -0.8440
13265TIP3    H239739   0.284   0.839   1.146 -1.6238  0.2811 -1.6004
13266TIP3   OH239740   8.244   6.449   4.384  0.0310  0.0959  0.1086
13266TIP3    H139741   8.256   6.354   4.384  2.4849  0.3751 -1.6551
13266TIP3    H239742   8.173   6.463   4.321  0.0065 -0.5223 -0.0106
13267TIP3   OH239743   7.411   7.180   3.506  0.2492  0.2086 -0.4355
13267TIP3    H139744   7.363   7.103   3.475 -0.7120  1.1741 -1.3978
13267TIP3    H239745   7.345   7.231   3.553  0.7234  0.7952 -0.4111
13268TIP3   OH239746   0.181   1.036   3.628 -0.6090 -0.1233  0.5936
13268TIP3    H139747   0.091   1.004   3.630 -0.7634  0.4147  2.4683
13268TIP3    H239748   0.172   1.129   3.609 -0.4906  0.0796  1.5282
13269TIP3   OH239749   6.325   6.666   4.784 -0.2965 -0.2548 -0.6266
13269TIP3    H139750   6.343   6.689   4.875  1.0275 -2.0068 -0.4152
13269TIP3    H239751   6.292   6.576   4.788 -2.1442  0.3652 -1.7121
13270TIP3   OH239752   2.696   2.326   1.020 -0.1650 -0.0047  0.5199
13270TIP3    H139753   2.790   2.322   1.001 -0.1830  0.3442  0.3522
13270TIP3    H239754   2.690   2.315   1.115  0.0843  0.5746  0.6041
13271TIP3   OH239755   8.308   0.177   5.557 -0.4452 -0.2648  0.1733
13271TIP3    H139756   8.326   0.201   5.648 -3.6355  0.2183  0.7442
13271TIP3    H239757   8.245   0.243   5.528 -0.6636 -1.3540 -1.8762
13272TIP3   OH239758   1.901   0.803   4.440 -0.1761  0.0367 -0.4574
13272TIP3    H139759   1.869   0.882   4.395  0.6589 -0.5554 -2.1314
13272TIP3    H239760   1.982   0.780   4.394 -0.6505 -2.0760 -0.2865
13273TIP3   OH239761   6.576   6.957   4.757 -0.2244 -0.6350  0.5291
13273TIP3    H139762   6.508   6.984   4.695  0.3912 -2.1880 -0.8623
13273TIP3    H239763   6.527   6.922   4.831 -0.9739 -1.3032 -0.2650
13274TIP3   OH239764   8.313   7.084   2.328  0.0786 -0.5580 -0.0669
13274TIP3    H139765   8.290   7.177   2.323  0.2514 -0.4726  0.6403
13274TIP3    H239766   8.327   7.058   2.237 -2.0740 -0.4268 -0.4559
13275TIP3   OH239767   0.732   0.582   1.241 -0.3813 -0.4691  0.2041
13275TIP3    H139768   0.758   0.588   1.333 -0.4272 -1.9975  0.3237
13275TIP3    H239769   0.745   0.490   1.218 -2.0302 -0.4667 -0.8305
13276TIP3   OH239770   8.343   6.437   4.013  0.4071 -0.0754  0.5132
13276TIP3    H139771   8.298   6.376   3.956  1.0120 -0.1166  0.0725
13276TIP3    H239772   8.281   6.508   4.027 -0.1022 -0.5403  0.6018
13277TIP3   OH239773   6.104   2.286   6.447  0.2982 -0.6180 -0.3311
13277TIP3    H139774   6.025   2.293   6.393 -0.5656  1.3437  1.0903
13277TIP3    H239775   6.108   2.194   6.472 -2.8694 -0.3550  1.4399
13278TIP3   OH239776   7.589   4.922   0.335 -0.4376 -0.1151 -0.1579
13278TIP3    H139777   7.539   4.938   0.415  1.2251 -1.7250  1.2286
13278TIP3    H239778   7.653   4.993   0.332  0.2428 -0.6853  0.5678
13279TIP3   OH239779   5.524   5.121   1.049 -0.0289 -0.0337 -0.4468
13279TIP3    H139780   5.432   5.125   1.074 -0.2038 -0.0494 -1.0634
13279TIP3    H239781   5.537   5.030   1.020  0.2409 -0.0954 -0.1336
13280TIP3   OH239782   6.266   6.320   1.396 -0.7043 -1.0592 -0.5055
13280TIP3    H139783   6.310   6.328   1.311 -2.6251 -0.7517 -1.4823
13280TIP3    H239784   6.293   6.234   1.429  2.1747 -0.0861 -0.1711
13281TIP3   OH239785   5.186   0.885   6.274  0.5117  0.3373 -0.0403
13281TIP3    H139786   5.128   0.910   6.346 -0.7854 -2.3745 -0.0845
13281TIP3    H239787   5.128   0.845   6.209  2.2386 -1.1964 -0.6709
13282TIP3   OH239788   7.471   3.994   0.228 -0.2863 -0.1341 -0.1932
13282TIP3    H139789   7.387   3.963   0.262 -0.9001  0.3546 -1.2382
13282TIP3    H239790   7.497   4.064   0.288 -0.8481  0.0151 -0.1166
13283TIP3   OH239791   0.482   4.727   2.260 -0.2160  0.7946 -0.1251
13283TIP3    H139792   0.465   4.754   2.350  0.5764  0.3673  0.1536
13283TIP3    H239793   0.551   4.660   2.267 -0.2822  0.6264 -1.0262
13284TIP3   OH239794   0.549   3.244   0.738 -0.3342  0.5778  0.2705
13284TIP3    H139795   0.623   3.204   0.691 -0.4145  0.9301 -0.1616
13284TIP3    H239796   0.567   3.227   0.830 -0.5772 -0.8276  0.0756
13285TIP3   OH239797   7.642   4.450   1.490  0.3022 -0.0538 -0.2829
13285TIP3    H139798   7.596   4.452   1.574  0.3217 -1.8502 -0.2132
13285TIP3    H239799   7.616   4.366   1.450  1.5398  0.0591 -1.3508
13286TIP3   OH239800   6.343   5.333   0.401 -0.3852 -0.2324  0.4727
13286TIP3    H139801   6.401   5.340   0.476 -0.8329 -0.8213  0.8835
13286TIP3    H239802   6.302   5.420   0.393 -0.2005 -0.1179  0.7976
13287TIP3   OH239803   0.346   7.385   0.367 -0.4982 -0.0061  0.3195
13287TIP3    H139804   0.406   7.447   0.410 -1.8526  1.6160 -0.0892
13287TIP3    H239805   0.323   7.428   0.284 -1.1765 -1.2282 -0.1321
13288TIP3   OH239806   1.463   4.941   3.558 -0.2985 -0.4292 -0.0909
13288TIP3    H139807   1.458   4.997   3.635 -1.0759 -0.2654 -0.2553
13288TIP3    H239808   1.550   4.901   3.562  0.2263  0.7244  0.0624
13289TIP3   OH239809   0.583   3.802   2.886  0.6063 -0.6743  0.1208
13289TIP3    H139810   0.577   3.842   2.800 -0.3372  0.1615  0.5733
13289TIP3    H239811   0.651   3.735   2.877  0.8540 -0.2516 -1.1319
13290TIP3   OH239812   5.196   1.003   6.614  0.6374  0.1975 -0.2496
13290TIP3    H139813   5.118   0.972   6.569  0.6978  0.7594 -0.7567
13290TIP3    H239814   5.176   0.993   6.707 -0.3163  0.9914 -0.3560
13291TIP3   OH239815   1.902   7.497   2.590  0.5850 -0.2794 -0.4611
13291TIP3    H139816   1.834   7.454   2.642  2.0676 -0.9726  0.9661
13291TIP3    H239817   1.895   7.590   2.613  0.6894 -0.4718  0.3984
13292TIP3   OH239818   0.377   6.031   1.504  0.1659 -0.5315 -0.1775
13292TIP3    H139819   0.420   6.103   1.551 -1.6192  0.7155 -0.4218
13292TIP3    H239820   0.331   5.982   1.572  0.3973 -0.7460 -0.1740
13293TIP3   OH239821   0.251   6.378   0.218 -0.8194 -0.3884  0.0651
13293TIP3    H139822   0.331   6.349   0.262  0.1420 -1.9194 -2.6038
13293TIP3    H239823   0.230   6.462   0.260  1.1796 -0.8161  2.0135
13294TIP3   OH239824   7.469   0.824   6.807  0.8411 -0.0775 -0.1615
13294TIP3    H139825   7.515   0.901   6.841 -0.2717  0.5369 -0.0131
13294TIP3    H239826   7.377   0.838   6.832  0.1914 -0.2117 -2.3198
13295TIP3   OH239827   0.985   6.293   0.015  0.1998 -0.2302  0.2410
13295TIP3    H139828   1.057   6.355   0.029  0.5582 -0.4968 -0.4055
13295TIP3    H239829   1.026   6.219  -0.029 -1.0335  1.0092 -3.1801
13296TIP3   OH239830   0.756   3.118   0.630 -0.3398 -0.3926 -0.1633
13296TIP3    H139831   0.848   3.141   0.619  0.0459 -0.4926  2.4901
13296TIP3    H239832   0.749   3.030   0.592  0.4729 -0.0715 -1.0820
13297TIP3   OH239833   5.684   1.236   6.454  0.1422 -0.4584  0.0027
13297TIP3    H139834   5.729   1.173   6.398  0.3366 -1.0782  0.8512
13297TIP3    H239835   5.597   1.198   6.467 -0.3275  0.2844 -0.8742
13298TIP3   OH239836   7.863   6.998   2.002 -0.7467 -0.0362 -0.1844
13298TIP3    H139837   7.781   6.977   1.959 -1.4255  0.4319  0.8532
13298TIP3    H239838   7.858   6.954   2.087  0.5625 -0.9390 -0.5522
13299TIP3   OH239839   6.242   0.200   6.800  0.0483  0.0345  0.0802
13299TIP3    H139840   6.320   0.244   6.835 -0.5295  1.2191 -0.0784
13299TIP3    H239841   6.171   0.264   6.813 -0.5604 -0.3297 -1.3546
13300TIP3   OH239842   1.127   5.000   0.766  0.2789 -0.1371 -0.0665
13300TIP3    H139843   1.187   5.074   0.776 -0.1001 -0.1535  2.8898
13300TIP3    H239844   1.042   5.034   0.793  0.1223 -1.6404  1.4483
13301TIP3   OH239845   2.209   6.363   5.963 -0.4039 -0.6959  0.4750
13301TIP3    H139846   2.117   6.363   5.937 -0.5345  0.6105  0.9276
13301TIP3    H239847   2.209   6.324   6.051 -0.4609 -1.2143  0.2431
13302TIP3   OH239848   6.677   2.183   5.996  0.5149  0.0473 -0.3867
13302TIP3    H139849   6.595   2.149   6.032  1.4834 -2.9763 -0.8422
13302TIP3    H239850   6.651   2.261   5.946 -1.8869 -0.1359  0.5186
13303TIP3   OH239851   6.942   6.093   2.138  0.1969 -0.7262  0.3090
13303TIP3    H139852   6.916   6.176   2.098  1.0387 -0.0929  1.0550
13303TIP3    H239853   6.872   6.074   2.200  0.5805  0.0391  0.9919
13304TIP3   OH239854   0.340   5.371   3.880 -0.5443  0.1048 -0.3793
13304TIP3    H139855   0.341   5.276   3.892 -0.2606  0.0708 -0.6460
13304TIP3    H239856   0.344   5.383   3.785  0.4539  0.3856 -0.3163
13305TIP3   OH239857   7.505   6.617   0.101 -0.0486 -0.0365  0.3668
13305TIP3    H139858   7.473   6.698   0.140  0.2805  0.8097 -1.0877
13305TIP3    H239859   7.475   6.620   0.010 -0.1424 -1.6113  0.3277
13306TIP3   OH239860   4.103   0.547   3.939 -0.4186  0.1694  0.9675
13306TIP3    H139861   4.113   0.627   3.888  1.0261 -1.2697 -1.1252
13306TIP3    H239862   4.170   0.552   4.007  0.7679  0.0068 -0.1793
13307TIP3   OH239863   0.101   4.506   0.773 -0.2359 -0.3119 -0.0351
13307TIP3    H139864   0.166   4.546   0.831  1.1437  1.4891 -2.7324
13307TIP3    H239865   0.033   4.572   0.764 -0.6668 -0.7641 -0.1475
13308TIP3   OH239866   2.294   4.651   0.331  0.6733  0.9951 -0.4600
13308TIP3    H139867   2.214   4.656   0.278 -0.3694  0.1817  1.0033
13308TIP3    H239868   2.333   4.738   0.324  0.3514  1.0303 -2.2195
13309TIP3   OH239869   1.941   3.634   2.498 -0.2516  0.0211 -0.3430
13309TIP3    H139870   1.931   3.552   2.546  0.7861  0.7224  1.1262
13309TIP3    H239871   2.025   3.624   2.452  0.1873  0.5022  0.3493
13310TIP3   OH239872   0.687   4.029   0.673  0.7247 -0.3195  0.2795
13310TIP3    H139873   0.714   3.943   0.706 -0.4910 -0.5433  0.6995
13310TIP3    H239874   0.751   4.090   0.712  1.2907 -0.9661  0.3774
13311TIP3   OH239875   1.970   4.714   2.561 -0.1284 -0.0406  0.2008
13311TIP3    H139876   1.902   4.660   2.519  0.2711  0.2392 -0.8247
13311TIP3    H239877   2.052   4.675   2.532  0.1590  0.5795  0.1769
13312TIP3   OH239878   8.099   2.700   0.178 -0.1708  0.4572  0.1712
13312TIP3    H139879   8.149   2.646   0.240 -2.9362 -2.0840  0.2822
13312TIP3    H239880   8.123   2.665   0.092 -1.2346 -0.3322  0.1898
13313TIP3   OH239881   1.657   4.666   0.693  0.3609  0.1682 -0.0810
13313TIP3    H139882   1.562   4.653   0.697  0.3519  0.2118 -0.1406
13313TIP3    H239883   1.670   4.759   0.714  0.6745 -0.5959  3.4368
13314TIP3   OH239884   1.070   6.862   0.404 -0.0255  0.4382 -0.0421
13314TIP3    H139885   1.028   6.800   0.464  0.0326  0.7785  0.3526
13314TIP3    H239886   1.163   6.859   0.427  0.1545 -0.2473 -0.8576
13315TIP3   OH239887   7.583   6.175   0.701  0.1885 -0.6148  0.4224
13315TIP3    H139888   7.543   6.088   0.711  2.0922 -1.5858 -0.2879
13315TIP3    H239889   7.677   6.158   0.696  0.4606  1.2935 -1.7809
13316TIP3   OH239890   6.074   5.417   1.835  0.7229 -0.0268  0.1293
13316TIP3    H139891   6.069   5.402   1.741  1.6099  0.5363 -0.0124
13316TIP3    H239892   5.993   5.380   1.870  0.2564  0.0356 -0.8857
13317TIP3   OH239893   7.167   3.235   3.560 -0.1446  0.3075 -0.4216
13317TIP3    H139894   7.085   3.188   3.575 -0.2479  0.2897 -1.0262
13317TIP3    H239895   7.148   3.293   3.485  0.5400 -0.0504 -0.8791
13318TIP3   OH239896   2.271   3.369   2.092  0.2954  0.1758 -0.2513
13318TIP3    H139897   2.226   3.306   2.148  0.0706  0.4253 -0.1495
13318TIP3    H239898   2.350   3.392   2.142  0.4224 -0.0872 -0.3271
13319TIP3   OH239899   8.032   6.611   0.461  0.8982  1.0104  0.1199
13319TIP3    H139900   8.117   6.648   0.437  1.2025 -0.2366 -0.7736
13319TIP3    H239901   7.984   6.606   0.378  0.8843 -0.6235  0.2009
13320TIP3   OH239902   7.950   5.452   0.692 -0.3019 -0.1474 -0.9967
13320TIP3    H139903   7.988   5.495   0.615 -2.5859  0.8220 -1.6362
13320TIP3    H239904   8.009   5.474   0.764  1.5153 -0.5282 -2.3316
13321TIP3   OH239905   1.694   6.203   2.083  0.5841 -0.2290 -0.0498
13321TIP3    H139906   1.716   6.190   2.175  0.2395 -0.3105  0.0177
13321TIP3    H239907   1.700   6.298   2.070  1.0754 -0.2577 -0.0542
13322TIP3   OH239908   2.359   4.474   1.316  0.0242  0.1666  0.6342
13322TIP3    H139909   2.322   4.562   1.324  0.4602  0.2852  1.3556
13322TIP3    H239910   2.453   4.486   1.323  0.0242 -0.4785  1.8192
13323TIP3   OH239911   0.425   5.365   1.114 -0.4052  0.1988  0.0609
13323TIP3    H139912   0.385   5.323   1.191 -1.3938  0.6081 -0.2163
13323TIP3    H239913   0.516   5.338   1.117 -0.2573  0.8153  1.8003
13324TIP3   OH239914   7.510   5.288   0.670 -0.2046 -0.1864  0.5341
13324TIP3    H139915   7.491   5.303   0.762  0.2280 -0.9378  0.7541
13324TIP3    H239916   7.580   5.350   0.649 -1.5315  1.2174  0.2398
13325TIP3   OH239917   8.522   6.188   2.690  0.5219 -0.3275 -0.1354
13325TIP3    H139918   8.483   6.187   2.778  0.4177 -0.1298 -0.1798
13325TIP3    H239919   8.455   6.150   2.634 -0.1831  1.3020 -0.4509
13326TIP3   OH239920   7.911   7.354   2.511 -0.5655 -0.3288  0.4266
13326TIP3    H139921   7.977   7.287   2.495  0.4594  0.7965 -0.1987
13326TIP3    H239922   7.887   7.342   2.603 -0.1299 -1.3093  0.4226
13327TIP3   OH239923   0.268   4.228   1.051  0.5405  0.5001 -0.4289
13327TIP3    H139924   0.234   4.228   0.961  0.6589  1.8408 -0.4814
13327TIP3    H239925   0.203   4.178   1.100  0.8186 -0.8392 -1.3752
13328TIP3   OH239926   1.691   0.120   0.461  0.0021 -0.3334 -0.4046
13328TIP3    H139927   1.735   0.036   0.476  1.0788  0.3687  0.3579
13328TIP3    H239928   1.620   0.098   0.400  1.4373 -1.4506 -1.7103
13329TIP3   OH239929   6.172   0.919   5.599  0.0385  0.1976 -0.1258
13329TIP3    H139930   6.164   0.985   5.669 -0.3959  0.3905 -0.3565
13329TIP3    H239931   6.089   0.872   5.602  0.9334 -1.3700  1.0669
13330TIP3   OH239932   6.291   4.456   0.704  0.1011 -1.0990  0.4184
13330TIP3    H139933   6.361   4.521   0.706  0.4993 -1.5210  0.4702
13330TIP3    H239934   6.230   4.484   0.772 -0.1112 -0.3587 -0.0833
13331TIP3   OH239935   7.635   6.169   1.494  0.2443 -0.0264 -0.3279
13331TIP3    H139936   7.660   6.141   1.406  2.1487 -0.4349  0.3276
13331TIP3    H239937   7.678   6.107   1.552  1.2233  1.8406  0.9937
13332TIP3   OH239938   7.448   5.271   1.259  0.1147  0.3544 -0.6141
13332TIP3    H139939   7.525   5.320   1.287  0.2012 -0.3878  0.4839
13332TIP3    H239940   7.381   5.338   1.242  0.1441  0.8631  1.1181
13333TIP3   OH239941   0.361   4.868   1.088 -0.0986 -0.1014 -0.1479
13333TIP3    H139942   0.455   4.870   1.102 -0.2420  0.3116  0.7588
13333TIP3    H239943   0.323   4.877   1.175 -0.9861  2.0988 -0.7181
13334TIP3   OH239944   0.682   3.545   1.317  0.1720  0.1862 -0.0986
13334TIP3    H139945   0.773   3.560   1.289 -0.4930  0.2154 -2.3440
13334TIP3    H239946   0.676   3.450   1.327 -0.1278 -0.0533 -2.1942
13335TIP3   OH239947   0.055   4.535   1.140 -0.3647 -0.3365 -0.2469
13335TIP3    H139948  -0.009   4.585   1.190 -0.8319 -0.9342 -0.2447
13335TIP3    H239949   0.030   4.549   1.049  0.1569  0.3105 -0.2903
13336TIP3   OH239950   6.849   1.285   6.815 -0.2450 -0.3113 -0.2123
13336TIP3    H139951   6.804   1.322   6.739 -2.0727  0.5124  1.2147
13336TIP3    H239952   6.906   1.356   6.846 -1.0257  0.0754  0.3666
13337TIP3   OH239953   0.740   7.091   2.019 -0.1131  0.1369 -0.0489
13337TIP3    H139954   0.683   7.158   1.981 -1.0871  0.1136  1.3085
13337TIP3    H239955   0.828   7.114   1.990 -0.5365  1.5578 -0.2433
13338TIP3   OH239956   1.250   5.983   1.291 -0.4583 -0.0929 -0.1713
13338TIP3    H139957   1.240   5.912   1.228  0.3607  0.0382 -0.4641
13338TIP3    H239958   1.345   5.987   1.308 -0.6535 -0.0118  0.9326
13339TIP3   OH239959   1.372   5.208   1.915  0.2664 -0.6082 -0.3368
13339TIP3    H139960   1.347   5.281   1.971  0.4417 -0.4922 -0.4099
13339TIP3    H239961   1.377   5.246   1.827 -0.6788 -0.9307 -0.5427
13340TIP3   OH239962   0.757   5.625   0.727  0.1954  0.0098 -0.0166
13340TIP3    H139963   0.726   5.593   0.643  0.5698  1.3677 -0.6915
13340TIP3    H239964   0.792   5.713   0.708  0.2779  0.3331  1.5463
13341TIP3   OH239965   7.984   4.421   2.142  0.3991  0.2124 -0.0352
13341TIP3    H139966   7.924   4.384   2.078 -0.2511 -2.1002  1.8413
13341TIP3    H239967   8.063   4.366   2.136  0.5704  0.3674  0.6913
13342TIP3   OH239968   4.486   0.347   5.639 -0.2137  0.2852  0.7699
13342TIP3    H139969   4.515   0.286   5.571 -2.7868  2.4061 -2.4023
13342TIP3    H239970   4.434   0.294   5.699 -0.4026 -1.0923 -0.5863
13343TIP3   OH239971   1.574   7.379   1.849 -0.3002  0.5276 -0.0057
13343TIP3    H139972   1.655   7.369   1.898 -1.1841 -0.5524  1.2829
13343TIP3    H239973   1.567   7.300   1.796 -1.0899  0.0223  0.8139
13344TIP3   OH239974   1.160   4.650   0.980  0.3050 -0.0424  0.0094
13344TIP3    H139975   1.113   4.569   0.999  0.0917  0.1016  0.1027
13344TIP3    H239976   1.106   4.719   1.019  1.3786  0.0052  1.4487
13345TIP3   OH239977   1.601   5.876   2.650  0.0016  0.2117 -0.1272
13345TIP3    H139978   1.584   5.879   2.556 -1.3620  2.2764  0.1587
13345TIP3    H239979   1.514   5.884   2.690  0.4509 -1.6776  1.3251
13346TIP3   OH239980   2.395   4.866   1.674 -0.4860 -0.5250 -0.4485
13346TIP3    H139981   2.312   4.870   1.722 -1.0993 -0.4387 -1.4990
13346TIP3    H239982   2.430   4.955   1.679  0.3411 -0.9137  1.3430
13347TIP3   OH239983   2.135   6.776   1.966  0.4245 -0.0430 -0.2956
13347TIP3    H139984   2.101   6.714   1.902  2.5036 -0.1233 -1.3740
13347TIP3    H239985   2.198   6.829   1.918 -0.3137  2.0130  0.9499
13348TIP3   OH239986   0.449   7.182   1.837 -0.7661  0.2245 -0.4057
13348TIP3    H139987   0.539   7.189   1.804 -0.4400 -0.4812  0.3132
13348TIP3    H239988   0.409   7.113   1.784 -1.1830  1.1908 -1.3648
13349TIP3   OH239989   6.763   4.492   1.918  0.8492  0.3016 -0.1645
13349TIP3    H139990   6.852   4.483   1.883  1.2643 -0.9885  1.1598
13349TIP3    H239991   6.767   4.450   2.004 -0.3638  2.6817  1.1077
13350TIP3   OH239992   0.449   5.414   3.421  0.2263  0.3947  0.3710
13350TIP3    H139993   0.484   5.337   3.376  0.7774 -0.6672  2.5518
13350TIP3    H239994   0.444   5.482   3.353 -1.2263 -1.8310 -1.8207
13351TIP3   OH239995   6.944   5.929   1.906 -0.7872  0.5235 -0.0300
13351TIP3    H139996   6.947   5.969   1.993  2.4419  0.2538  0.0662
13351TIP3    H239997   6.983   5.994   1.849 -1.3274  0.0190 -0.9786
13352TIP3   OH239998   7.705   5.491   0.642 -0.0040 -0.1729  0.4463
13352TIP3    H139999   7.709   5.521   0.550 -0.1894  0.2012  0.5559
13352TIP3    H240000   7.790   5.450   0.658 -0.8177 -2.3157 -0.5942
13353TIP3   OH240001   1.638   6.536   0.238 -0.2965 -0.2360  0.2071
13353TIP3    H140002   1.710   6.592   0.208 -0.7691 -0.1340 -0.7690
13353TIP3    H240003   1.563   6.594   0.244 -0.1562 -0.2085  1.8777
13354TIP3   OH240004   7.836   4.703   1.710 -0.4257  0.5180 -0.3115
13354TIP3    H140005   7.885   4.655   1.643  0.0684  0.7584 -0.1216
13354TIP3    H240006   7.762   4.742   1.663 -0.6483 -0.1638 -0.5261
13355TIP3   OH240007   1.992   5.183   2.019  0.1209  0.2924 -0.2856
13355TIP3    H140008   2.039   5.263   1.994 -0.4044  0.7752  0.2415
13355TIP3    H240009   1.947   5.156   1.940  1.8294 -0.5614 -0.9848
13356TIP3   OH240010   7.093   2.669   6.364 -0.6576  0.0998  0.1994
13356TIP3    H140011   7.038   2.608   6.314  1.9575 -1.5869 -0.7136
13356TIP3    H240012   7.127   2.617   6.437 -0.2856  1.1310  0.7779
13357TIP3   OH240013   6.991   3.702   6.859 -0.1398  0.4466 -0.1187
13357TIP3    H140014   7.012   3.647   6.935 -1.2835  1.4918  0.9869
13357TIP3    H240015   7.076   3.727   6.824  0.3970 -0.8248  0.2592
13358TIP3   OH240016   3.226   6.740   0.047  0.0707 -0.2616 -0.7963
13358TIP3    H140017   3.311   6.780   0.064  0.6642 -1.5187 -0.7811
13358TIP3    H240018   3.231   6.654   0.088 -1.4967 -0.0461 -0.1087
13359TIP3   OH240019   6.678   7.318   6.845 -0.1506  0.8670  0.2997
13359TIP3    H140020   6.678   7.233   6.889  0.9657  1.0325  0.6248
13359TIP3    H240021   6.585   7.341   6.839 -0.6020 -1.2656 -1.5393
13360TIP3   OH240022   1.903   4.730   2.231 -0.1670  0.3978  0.2269
13360TIP3    H140023   1.965   4.799   2.258 -0.7233  2.2297 -2.9720
13360TIP3    H240024   1.959   4.662   2.193  0.0674  1.1428 -0.7919
13361TIP3   OH240025   7.669   5.177   2.274 -0.0713  0.3774 -0.0092
13361TIP3    H140026   7.616   5.188   2.353 -0.7528 -0.4490 -0.3422
13361TIP3    H240027   7.609   5.198   2.202  0.3682  0.5164 -0.3362
13362TIP3   OH240028   7.798   1.023   6.490  0.1084 -0.5129  0.3980
13362TIP3    H140029   7.852   1.028   6.411 -1.1945  0.1992 -0.4655
13362TIP3    H240030   7.817   1.104   6.537 -0.4688 -0.0819 -0.0943
13363TIP3   OH240031   1.939   4.851   1.040 -0.5503 -0.1406 -0.2996
13363TIP3    H140032   1.893   4.769   1.023  1.2916 -0.9619 -1.5418
13363TIP3    H240033   1.896   4.915   0.984 -1.8386 -0.3089  0.4863
13364TIP3   OH240034   2.285   1.681   6.558 -0.5312 -0.0408 -0.4724
13364TIP3    H140035   2.356   1.626   6.591 -0.4732 -0.2857 -0.9849
13364TIP3    H240036   2.276   1.656   6.466 -1.4897 -0.2364 -0.3380
13365TIP3   OH240037   0.640   4.288   2.765  0.6454 -0.0057  0.4188
13365TIP3    H140038   0.595   4.248   2.839 -0.7480 -0.0862 -0.4395
13365TIP3    H240039   0.702   4.349   2.804 -0.0928 -0.0198  1.6474
13366TIP3   OH240040   0.082   5.190   1.388  0.0721  0.6544  0.2636
13366TIP3    H140041  -0.007   5.227   1.389 -0.1808  0.0351  0.8451
13366TIP3    H240042   0.075   5.108   1.436  0.5134 -0.4787 -1.5766
13367TIP3   OH240043   1.491   4.911   0.963 -0.1927  0.1225  0.9251
13367TIP3    H140044   1.421   4.899   0.898  0.9611 -0.0604 -0.3152
13367TIP3    H240045   1.478   4.840   1.025  1.2062 -2.3085 -1.4427
13368TIP3   OH240046   7.863   3.898   5.612 -0.2747  0.6319  0.6337
13368TIP3    H140047   7.867   3.984   5.571 -0.3941  0.3605  0.0492
13368TIP3    H240048   7.832   3.915   5.701  2.2619  1.4859  1.3947
13369TIP3   OH240049   2.309   5.224   0.041 -0.1719  0.1032  0.4749
13369TIP3    H140050   2.227   5.269   0.022 -0.3890 -0.7298 -0.5665
13369TIP3    H240051   2.366   5.244  -0.033  0.4419  0.3576  1.0053
13370TIP3   OH240052   5.454   8.003   5.969 -0.0497 -0.1415 -0.0667
13370TIP3    H140053   5.443   7.940   5.898 -0.9694  0.9488 -0.9049
13370TIP3    H240054   5.395   7.971   6.038 -0.7810 -0.0047 -0.6260
13371TIP3   OH240055   1.135   3.718   1.401  0.3316  0.6821  0.4947
13371TIP3    H140056   1.205   3.781   1.417  1.6817 -0.8694  0.7577
13371TIP3    H240057   1.121   3.675   1.485  0.5297 -0.4885 -0.0534
13372TIP3   OH240058   1.138   5.663   0.187  0.6096  0.1571 -0.3367
13372TIP3    H140059   1.095   5.688   0.106  0.2586  0.1169 -0.1612
13372TIP3    H240060   1.103   5.576   0.208  1.6236 -0.3722 -0.8011
13373TIP3   OH240061   1.614   7.149   1.110  0.2110  0.3963  0.3362
13373TIP3    H140062   1.646   7.060   1.095  1.5165  1.0910 -1.1572
13373TIP3    H240063   1.608   7.157   1.205  0.1128 -1.2807  0.4751
13374TIP3   OH240064   0.269   4.815   1.340 -0.1545 -0.8493  0.2936
13374TIP3    H140065   0.353   4.793   1.380  0.3667 -0.3360 -0.4943
13374TIP3    H240066   0.227   4.874   1.403 -0.3746 -1.9112  1.1498
13375TIP3   OH240067   8.102   7.645   1.882 -0.0871 -0.2364  0.1918
13375TIP3    H140068   8.110   7.645   1.787 -1.2202 -1.7424  0.0786
13375TIP3    H240069   8.132   7.732   1.909  1.0552 -0.1041 -1.4641
13376TIP3   OH240070   5.981   0.094   2.120 -0.2596  0.1970 -0.0342
13376TIP3    H140071   6.020   0.060   2.039  0.3796 -2.0268  1.1583
13376TIP3    H240072   5.996   0.189   2.116  0.4303  0.0267 -2.1544
13377TIP3   OH240073   2.062   5.281   0.360  0.7279  1.0388 -0.1328
13377TIP3    H140074   2.081   5.307   0.270  1.7409  2.1340  0.3889
13377TIP3    H240075   2.035   5.361   0.404 -0.0790  0.4504  0.4642
13378TIP3   OH240076   1.806   6.416   0.946 -0.3823 -0.5315 -0.2804
13378TIP3    H140077   1.729   6.366   0.973  1.0616 -1.8703  1.5017
13378TIP3    H240078   1.870   6.349   0.921  0.2186  0.5716 -1.8092
13379TIP3   OH240079   5.518   3.788   6.565 -0.4848  0.6092  0.2667
13379TIP3    H140080   5.440   3.735   6.581 -1.2988  1.3890 -0.9874
13379TIP3    H240081   5.499   3.872   6.605  0.6490  0.0930  1.9228
13380TIP3   OH240082   7.206   0.120   1.334 -0.3541  0.2360  0.7466
13380TIP3    H140083   7.282   0.076   1.295 -0.7311  1.7019 -1.7089
13380TIP3    H240084   7.227   0.213   1.327 -0.7305  0.5529  3.5108
13381TIP3   OH240085   2.001   5.396   6.789  0.7391 -0.1521  0.4554
13381TIP3    H140086   1.928   5.438   6.743  1.2479  1.0764  0.7399
13381TIP3    H240087   2.028   5.325   6.730 -0.3755 -0.3338  0.1374
13382TIP3   OH240088   5.653   4.386   1.136  0.2149 -0.0207  0.3435
13382TIP3    H140089   5.722   4.330   1.101 -0.8844 -1.1550 -0.0479
13382TIP3    H240090   5.596   4.404   1.061 -0.3248  0.2664  0.8155
13383TIP3   OH240091   6.813   5.901   1.237  0.2585 -0.1105 -0.2377
13383TIP3    H140092   6.772   5.987   1.232  3.3624  1.4039 -1.1602
13383TIP3    H240093   6.825   5.875   1.145  0.5645 -0.9078  0.0224
13384TIP3   OH240094   1.207   2.276   1.263  0.1333  0.2011 -0.2487
13384TIP3    H140095   1.205   2.348   1.327 -0.2888 -0.8394  0.9209
13384TIP3    H240096   1.280   2.222   1.290 -0.2566 -0.4276 -0.4486
13385TIP3   OH240097   7.864   1.596   2.555  0.4236  0.2357 -0.0043
13385TIP3    H140098   7.882   1.503   2.545 -0.8580  0.1826 -2.0206
13385TIP3    H240099   7.883   1.634   2.469 -1.2915  1.4353  0.1180
13386TIP3   OH240100   0.364   0.164   0.758 -0.3217  0.4080  0.3941
13386TIP3    H140101   0.282   0.211   0.747  0.2103  1.2460 -0.0430
13386TIP3    H240102   0.354   0.117   0.841 -1.7439 -0.5750 -0.3046
13387TIP3   OH240103   5.153   7.621   2.219 -0.1015 -0.1194  0.3652
13387TIP3    H140104   5.187   7.543   2.174 -2.7264 -0.7711 -0.5690
13387TIP3    H240105   5.215   7.635   2.291  1.0399 -2.4125 -0.0959
13388TIP3   OH240106   4.757   6.908   3.044  0.0815  0.3213  0.0902
13388TIP3    H140107   4.840   6.956   3.042  0.5957 -0.5016  1.6131
13388TIP3    H240108   4.771   6.833   2.986 -0.0338  0.8643 -0.6512
13389TIP3   OH240109   6.812   6.644   2.091  0.4864 -0.4201  0.4501
13389TIP3    H140110   6.720   6.657   2.068  0.5268 -0.3517  0.3234
13389TIP3    H240111   6.836   6.724   2.139  0.3818 -0.5959  0.7982
13390TIP3   OH240112   6.511   5.151   0.124  0.2224  0.0617 -0.1278
13390TIP3    H140113   6.532   5.069   0.168  0.1518  0.7491  1.2023
13390TIP3    H240114   6.565   5.217   0.167  0.4534  0.6888 -1.3462
13391TIP3   OH240115   6.322   7.687   1.823 -0.3447  0.2941  0.2714
13391TIP3    H140116   6.339   7.686   1.729  0.2179  0.1314  0.3753
13391TIP3    H240117   6.243   7.741   1.833 -1.2133 -0.8253 -0.4245
13392TIP3   OH240118   8.320   0.677   0.723 -0.2244  0.1722  0.0672
13392TIP3    H140119   8.292   0.586   0.719  0.1789 -0.0621  1.8576
13392TIP3    H240120   8.239   0.727   0.715 -0.2918 -0.2850 -2.3861
13393TIP3   OH240121   1.116   6.038   2.185  0.4503  0.1699  0.3671
13393TIP3    H140122   1.078   5.951   2.173 -2.6463  1.5170 -0.2030
13393TIP3    H240123   1.122   6.049   2.280 -1.7365  0.3590  0.5030
13394TIP3   OH240124   2.744   0.642   0.562 -0.4003 -0.1047  0.3509
13394TIP3    H140125   2.816   0.629   0.499 -0.1852  0.0722  0.5605
13394TIP3    H240126   2.666   0.617   0.513 -0.1741 -0.5199  0.1906
13395TIP3   OH240127   1.599   1.262   0.138 -0.3665 -0.4514 -0.3415
13395TIP3    H140128   1.553   1.178   0.138 -1.2253  0.0001  1.1277
13395TIP3    H240129   1.590   1.294   0.227 -1.0667  1.7602 -1.1647
13396TIP3   OH240130   5.369   4.864   6.857 -0.6309 -0.2177 -1.3464
13396TIP3    H140131   5.302   4.891   6.795  0.6722 -0.0979 -2.7284
13396TIP3    H240132   5.407   4.785   6.818 -1.7777 -1.8373  0.7409
13397TIP3   OH240133   6.222   7.659   0.158  0.1420 -0.1315 -0.1938
13397TIP3    H140134   6.209   7.727   0.225 -1.7501 -0.1508 -0.5216
13397TIP3    H240135   6.317   7.652   0.149  0.3845  1.0653  1.2831
13398TIP3   OH240136   5.351   4.861   2.081 -0.1494 -0.1354  0.3533
13398TIP3    H140137   5.265   4.846   2.041 -0.5109 -0.1604  1.1391
13398TIP3    H240138   5.412   4.859   2.007 -1.1305  2.6174 -0.5915
13399TIP3   OH240139   6.094   5.272   0.060  0.3164 -0.0493  0.1261
13399TIP3    H140140   6.140   5.189   0.060 -0.5104 -0.5173  2.1511
13399TIP3    H240141   6.056   5.278  -0.028 -0.6828 -2.3977  0.3700
13400TIP3   OH240142   6.563   5.103   0.408  0.0640 -0.0784  0.7460
13400TIP3    H140143   6.516   5.024   0.434 -0.5483 -0.1988 -0.6510
13400TIP3    H240144   6.513   5.175   0.447 -1.0975 -0.2250 -0.4372
13401TIP3   OH240145   7.421   5.550   1.127 -0.2055 -0.2290  0.0071
13401TIP3    H140146   7.414   5.637   1.087  1.2368  0.0034  0.2181
13401TIP3    H240147   7.340   5.539   1.176 -0.6792  0.7325 -0.5512
13402TIP3   OH240148   5.333   6.704   0.681  0.4441  0.0684  0.3862
13402TIP3    H140149   5.421   6.670   0.696  0.3404 -0.6135 -0.5432
13402TIP3    H240150   5.277   6.648   0.734  0.6613  1.1180  1.7564
13403TIP3   OH240151   4.880   7.563   2.351  0.4414  0.0259  0.8438
13403TIP3    H140152   4.962   7.522   2.322  0.6966  0.4255  1.0009
13403TIP3    H240153   4.893   7.656   2.335 -0.0701  0.0684  0.6627
13404TIP3   OH240154   6.794   6.209   1.000  0.1011  0.5762 -0.5288
13404TIP3    H140155   6.867   6.156   0.970  0.3845  0.9103 -0.4305
13404TIP3    H240156   6.767   6.169   1.083 -0.9995 -0.6416 -1.4604
13405TIP3   OH240157   6.440   7.823   2.305  0.1977 -0.2043  0.0098
13405TIP3    H140158   6.351   7.810   2.337  0.0251 -0.9595 -0.7631
13405TIP3    H240159   6.430   7.844   2.212  0.7245  1.4177  0.3067
13406TIP3   OH240160   1.664   2.266   0.617 -0.7510 -0.3624  0.1861
13406TIP3    H140161   1.603   2.336   0.641 -0.1577  0.0310  0.5442
13406TIP3    H240162   1.673   2.214   0.696  0.2126  0.2004  0.4476
13407TIP3   OH240163   8.139   0.066   1.059 -0.7215  0.3040  0.2425
13407TIP3    H140164   8.202   0.137   1.065  0.5019 -0.5867 -1.8627
13407TIP3    H240165   8.127   0.038   1.150  1.5594  0.7674  0.7172
13408TIP3   OH240166   8.173   7.890   0.094 -0.0127 -0.2228 -0.0451
13408TIP3    H140167   8.161   7.971   0.143  0.1957 -0.0337 -0.3082
13408TIP3    H240168   8.119   7.826   0.141 -0.6611  0.2087 -0.1848
13409TIP3   OH240169   5.513   7.918   0.377  0.1724 -0.0344 -0.3484
13409TIP3    H140170   5.606   7.932   0.393  0.0304  1.7801 -0.9490
13409TIP3    H240171   5.509   7.868   0.296  0.6837 -2.8337  1.2946
13410TIP3   OH240172   0.541   1.265   0.175  0.6367  0.0753 -0.0203
13410TIP3    H140173   0.520   1.333   0.239 -0.0203  0.5842 -0.7732
13410TIP3    H240174   0.623   1.294   0.135  0.2213  0.5779 -0.5289
13411TIP3   OH240175   5.489   7.135   1.932  0.2386  0.0539  0.4670
13411TIP3    H140176   5.516   7.043   1.928 -0.1953 -0.0294 -0.7673
13411TIP3    H240177   5.571   7.184   1.927  0.2504 -0.2082 -2.5823
13412TIP3   OH240178   5.671   7.009   2.489 -0.4226 -0.2419 -0.2264
13412TIP3    H140179   5.617   7.023   2.411 -0.6370 -0.0006 -0.0389
13412TIP3    H240180   5.753   7.055   2.469 -0.2559 -0.6807 -0.5462
13413TIP3   OH240181   5.377   6.989   1.319 -0.3259 -0.8224 -0.0615
13413TIP3    H140182   5.416   6.960   1.402  1.0873 -1.3158 -0.8909
13413TIP3    H240183   5.431   6.949   1.251 -1.2087 -0.0632 -1.2361
13414TIP3   OH240184   3.923   7.157   2.317  0.1230  0.0497  0.0292
13414TIP3    H140185   3.831   7.175   2.294  0.3272  0.6990 -0.2729
13414TIP3    H240186   3.922   7.066   2.348 -0.2882 -0.6452 -1.9220
13415TIP3   OH240187   6.503   4.376   1.958 -0.0338 -0.2351 -0.3480
13415TIP3    H140188   6.577   4.384   2.019 -1.2527 -0.1127  1.1698
13415TIP3    H240189   6.531   4.421   1.879  1.1087  0.7435  0.6001
13416TIP3   OH240190   0.486   2.006   0.464 -0.7409  0.5865  0.3220
13416TIP3    H140191   0.440   2.088   0.480 -0.6616  0.3204  1.9912
13416TIP3    H240192   0.542   2.024   0.388 -1.9212  1.5679 -0.3243
13417TIP3   OH240193   3.664   5.185   6.800 -0.5003  0.5726  0.4452
13417TIP3    H140194   3.722   5.135   6.857 -1.0317  0.7468  1.1341
13417TIP3    H240195   3.592   5.125   6.781  0.5561 -0.1371 -1.5258
13418TIP3   OH240196   5.374   4.275   1.420  0.2286  0.7868 -0.1696
13418TIP3    H140197   5.381   4.233   1.334  0.8147  0.1785  0.1703
13418TIP3    H240198   5.342   4.205   1.478  0.2220  1.0868  0.1920
13419TIP3   OH240199   7.872   7.394   1.573  0.2951  0.0795 -0.1006
13419TIP3    H140200   7.837   7.327   1.515  0.6601 -0.0847 -0.1325
13419TIP3    H240201   7.866   7.355   1.661  1.3619 -0.3633 -0.2164
13420TIP3   OH240202   2.226   3.546   6.611  0.0065  0.9588 -0.1248
13420TIP3    H140203   2.146   3.585   6.646  0.9678  1.8371  1.1560
13420TIP3    H240204   2.232   3.461   6.654 -0.7978  0.4271 -1.0470
13421TIP3   OH240205   5.822   6.373   1.738 -0.4188  0.3790 -0.1131
13421TIP3    H140206   5.876   6.407   1.810 -1.5541  0.0736  0.9081
13421TIP3    H240207   5.774   6.450   1.706  0.4700  0.6176 -0.9093
13422TIP3   OH240208   3.828   7.166   0.004 -0.2058  0.5792  0.0694
13422TIP3    H140209   3.848   7.135   0.092  0.1714  0.4185 -0.0710
13422TIP3    H240210   3.743   7.209   0.012 -0.6613 -0.3505  0.2978
13423TIP3   OH240211   1.879   6.401   0.432  0.1086 -0.3216 -0.1129
13423TIP3    H140212   1.913   6.404   0.342  1.0581 -2.0519  0.1744
13423TIP3    H240213   1.935   6.338   0.477 -0.6747  0.1606  1.5789
13424TIP3   OH240214   5.282   5.416   2.588  0.2590  0.2153 -0.0068
13424TIP3    H140215   5.306   5.390   2.677 -1.1105  0.0553  0.3318
13424TIP3    H240216   5.225   5.492   2.600 -1.3125 -0.8375 -0.6465
13425TIP3   OH240217   2.905   2.198   5.863  0.1319  0.2325  0.6407
13425TIP3    H140218   2.913   2.148   5.781  2.2837 -0.3866  1.1949
13425TIP3    H240219   2.889   2.132   5.930  0.2905  0.5452  0.9917
13426TIP3   OH240220   5.266   5.323   1.787  0.2254 -0.2182  0.7620
13426TIP3    H140221   5.251   5.283   1.701  0.7239 -0.8735  0.9760
13426TIP3    H240222   5.215   5.269   1.848  1.1137 -0.6973  1.0897
13427TIP3   OH240223   5.730   6.640   0.061  0.0648  0.1619  0.1729
13427TIP3    H140224   5.644   6.681   0.057  0.3266  0.6988 -0.0640
13427TIP3    H240225   5.712   6.548   0.082 -0.6825 -0.1373 -1.6847
13428TIP3   OH240226   2.663   2.055   6.793 -0.2548  0.6021 -0.4966
13428TIP3    H140227   2.743   2.014   6.761 -0.3370 -0.1212  0.2007
13428TIP3    H240228   2.689   2.098   6.875 -0.7223 -0.1782  0.0594
13429TIP3   OH240229   0.060   0.906   2.203  0.2608 -0.1249  0.1052
13429TIP3    H140230  -0.024   0.865   2.181 -0.9325  2.3742 -0.1216
13429TIP3    H240231   0.107   0.912   2.120  0.7447 -1.6537  0.2554
13430TIP3   OH240232   3.095   2.641   6.799  0.2433 -0.1259 -0.3243
13430TIP3    H140233   3.025   2.664   6.860 -0.0570  1.2783 -1.1671
13430TIP3    H240234   3.156   2.588   6.851  1.0018  2.6637  1.7834
13431TIP3   OH240235   7.747   7.782   0.426 -0.5127  0.1299  0.2845
13431TIP3    H140236   7.743   7.728   0.505 -0.2321 -1.9564 -1.0958
13431TIP3    H240237   7.656   7.797   0.402 -0.5914 -0.0741  0.4534
13432TIP3   OH240238   4.810   7.281   3.015  0.1350 -0.4384 -0.0854
13432TIP3    H140239   4.841   7.191   3.027 -1.0135 -0.6277  1.6343
13432TIP3    H240240   4.848   7.308   2.932  0.8292 -2.3762 -0.4337
13433TIP3   OH240241   1.001   7.823   0.847 -0.1113  0.0722 -0.4309
13433TIP3    H140242   1.079   7.768   0.850  0.4866  0.9336  0.0721
13433TIP3    H240243   0.934   7.772   0.893 -0.3108 -1.3610 -2.2294
13434TIP3   OH240244   7.537   5.649  -0.004  0.0619  0.0380 -0.3578
13434TIP3    H140245   7.459   5.653  -0.060 -0.6311 -1.8395  0.4480
13434TIP3    H240246   7.504   5.629   0.083  1.4269 -0.4799  0.0539
13435TIP3   OH240247   8.036   6.331   1.522 -0.3574 -0.2608  0.0458
13435TIP3    H140248   7.951   6.374   1.517 -0.1692  0.1257  0.1556
13435TIP3    H240249   8.094   6.385   1.469 -0.2566 -0.7115 -0.3089
13436TIP3   OH240250   3.534   1.518   5.800  0.1744  0.3379 -0.1201
13436TIP3    H140251   3.582   1.495   5.721  0.2157 -1.6261  0.4550
13436TIP3    H240252   3.453   1.467   5.795  0.9445 -1.1376  1.9263
13437TIP3   OH240253   5.118   4.388   1.252  0.0230 -0.1606  0.2832
13437TIP3    H140254   5.214   4.385   1.259 -0.0327  0.6947  1.6361
13437TIP3    H240255   5.089   4.313   1.303 -0.0166 -0.6843 -0.5066
13438TIP3   OH240256   6.265   7.304   1.620  0.4157  0.2296  0.2481
13438TIP3    H140257   6.226   7.223   1.651  2.3956 -0.5892  0.6985
13438TIP3    H240258   6.201   7.372   1.640 -1.3201 -1.2403 -0.2709
13439TIP3   OH240259   7.221   7.772   0.854 -0.1134  0.2239 -0.3916
13439TIP3    H140260   7.153   7.713   0.884 -0.0647 -0.5489 -1.7492
13439TIP3    H240261   7.256   7.731   0.775  0.7939  1.4291 -0.6426
13440TIP3   OH240262   2.847   4.412   3.388  0.5943 -0.6325  0.1919
13440TIP3    H140263   2.911   4.443   3.452 -0.9957  2.3175  0.4703
13440TIP3    H240264   2.762   4.433   3.427 -0.4240  0.7289 -2.5939
13441TIP3   OH240265   6.760   3.964   1.794  0.4022  0.7023  0.4711
13441TIP3    H140266   6.734   3.920   1.874 -0.6848  0.2206 -0.1423
13441TIP3    H240267   6.816   3.901   1.748 -2.1198 -0.5512 -0.9750
13442TIP3   OH240268   7.611   1.139   2.491  0.0849  0.3952  0.2626
13442TIP3    H140269   7.599   1.121   2.585 -1.5355  1.0796  0.2096
13442TIP3    H240270   7.522   1.153   2.458  0.7583  1.6547 -1.0818
13443TIP3   OH240271   6.223   7.708   0.864 -0.4155 -0.1446 -0.1344
13443TIP3    H140272   6.259   7.703   0.775 -0.9361 -0.7538 -0.3231
13443TIP3    H240273   6.299   7.701   0.921 -0.0134  0.8672 -0.5356
13444TIP3   OH240274   5.475   7.459   2.543 -0.5767 -0.1084  0.1750
13444TIP3    H140275   5.527   7.514   2.601 -1.1975  1.8709 -1.0967
13444TIP3    H240276   5.515   7.373   2.549  2.9018  1.3703 -0.8046
13445TIP3   OH240277   5.293   6.529   2.780 -0.7985  0.3616  0.5151
13445TIP3    H140278   5.208   6.489   2.763 -0.8467  0.7632 -0.2292
13445TIP3    H240279   5.289   6.555   2.872 -0.4136 -2.1613  1.2614
13446TIP3   OH240280   7.854   7.151   0.138 -0.2088 -0.0297 -0.0627
13446TIP3    H140281   7.950   7.154   0.139 -0.1689 -0.3123  3.2845
13446TIP3    H240282   7.833   7.075   0.085  1.4972 -0.9229  0.5037
13447TIP3   OH240283   6.416   7.073   0.761  0.2021  0.1894 -0.3610
13447TIP3    H140284   6.401   7.018   0.838 -2.2720  1.1696 -0.0691
13447TIP3    H240285   6.395   7.162   0.792 -1.0779  0.5624 -2.2023
13448TIP3   OH240286   7.568   7.386   0.495  0.0156  0.1412 -0.2801
13448TIP3    H140287   7.591   7.365   0.404 -0.8961 -1.7034 -0.1181
13448TIP3    H240288   7.528   7.306   0.528 -1.2930  1.3938  1.2203
13449TIP3   OH240289   1.861   7.608   0.571  0.0383  0.1617 -0.0648
13449TIP3    H140290   1.936   7.622   0.512  0.0499  0.1835 -0.0449
13449TIP3    H240291   1.804   7.547   0.523  0.1865 -0.0489  0.0239
13450TIP3   OH240292   7.967   7.471   0.513 -0.4394  0.8233  0.0273
13450TIP3    H140293   7.972   7.453   0.419  0.5710  0.8213  0.0815
13450TIP3    H240294   8.058   7.479   0.541 -0.7671  2.0500  0.7695
13451TIP3   OH240295   6.802   7.500   3.039 -0.2282  0.2391 -0.5472
13451TIP3    H140296   6.778   7.436   3.106 -1.8987  2.0684  0.6328
13451TIP3    H240297   6.878   7.545   3.074 -0.7493  0.7996 -0.1335
13452TIP3   OH240298   1.709   0.006   0.172  0.3809  0.1012  0.5885
13452TIP3    H140299   1.769   0.012   0.098 -1.3938  0.9578 -0.8159
13452TIP3    H240300   1.638   0.067   0.151 -1.2266 -1.2130  1.9806
13453TIP3   OH240301   8.187   5.449   0.046 -0.5253 -0.5153 -0.0731
13453TIP3    H140302   8.197   5.512   0.118 -0.9818 -1.1502  0.5554
13453TIP3    H240303   8.254   5.474  -0.017  0.6299 -0.6463  1.0813
13454TIP3   OH240304   1.087   1.327   2.381 -0.1402 -0.2093 -0.3943
13454TIP3    H140305   1.062   1.392   2.446 -2.3968 -1.2727 -0.1515
13454TIP3    H240306   1.060   1.365   2.297  2.1939  0.8839 -0.6900
13455TIP3   OH240307   1.096   4.391   0.887  0.3038  0.5890  0.6152
13455TIP3    H140308   1.135   4.386   0.799 -0.4741  0.5580  0.2700
13455TIP3    H240309   1.006   4.420   0.872 -0.3012 -0.8961  1.2718
13456TIP3   OH240310   6.199   5.084   1.516 -0.1737  0.2613  0.1235
13456TIP3    H140311   6.161   5.021   1.577  0.4702 -0.2807 -0.0342
13456TIP3    H240312   6.218   5.033   1.438  0.3436  0.6546 -0.0105
13457TIP3   OH240313   5.302   7.166   1.141  0.1362  0.0715  0.2695
13457TIP3    H140314   5.319   7.115   1.220 -0.1630  0.6171  0.6922
13457TIP3    H240315   5.313   7.104   1.069  0.4386 -0.4204  0.7394
13458TIP3   OH240316   1.554   6.025   1.301 -0.3524  0.1669  0.4490
13458TIP3    H140317   1.575   6.046   1.210 -1.6320 -1.6300 -0.2782
13458TIP3    H240318   1.639   6.022   1.345  0.3714 -0.1613 -0.9474
13459TIP3   OH240319   6.752   6.913   3.115  0.2534 -0.2864  0.1088
13459TIP3    H140320   6.685   6.863   3.160 -0.5503  0.4396 -0.2673
13459TIP3    H240321   6.774   6.985   3.174 -0.0760  0.0911 -0.2255
13460TIP3   OH240322   8.072   6.090   1.752  0.3433  0.2277 -0.3943
13460TIP3    H140323   8.137   6.050   1.810 -0.4477 -0.4082  0.0653
13460TIP3    H240324   8.117   6.165   1.714  0.7451  0.8976  1.3523
13461TIP3   OH240325   1.572   5.178   0.979  0.9118  0.2045 -0.0053
13461TIP3    H140326   1.555   5.225   1.061  0.8844  0.4323 -0.1402
13461TIP3    H240327   1.550   5.087   0.998 -0.9483  0.5740 -0.3335
13462TIP3   OH240328   2.313   0.596   2.050  0.2741  0.6354  0.9083
13462TIP3    H140329   2.382   0.642   2.098  0.5013  0.0860  1.1026
13462TIP3    H240330   2.358   0.524   2.006  0.1052  1.2276 -0.2759
13463TIP3   OH240331   1.010   6.570   1.229 -0.3278  0.4780  0.4676
13463TIP3    H140332   0.995   6.653   1.184  0.2337 -0.5212 -1.6240
13463TIP3    H240333   1.105   6.558   1.226 -0.3777 -0.0770  1.0676
13464TIP3   OH240334   7.453   5.201   2.450 -0.5708  0.5314  0.0128
13464TIP3    H140335   7.409   5.283   2.472 -3.0206 -0.7013 -0.1103
13464TIP3    H240336   7.385   5.148   2.408  1.5192 -0.7640 -1.8697
13465TIP3   OH240337   5.946   6.416   0.736  0.7535  0.5417  0.5457
13465TIP3    H140338   6.006   6.480   0.698  0.9072  0.2032  0.2143
13465TIP3    H240339   5.878   6.405   0.669 -0.0030  1.3677  1.1640
13466TIP3   OH240340   5.688   7.968   1.493  0.1116  0.8157 -0.5225
13466TIP3    H140341   5.647   8.003   1.414  0.3405  1.8302 -0.1928
13466TIP3    H240342   5.782   7.980   1.478  0.5564 -3.9058 -2.4515
13467TIP3   OH240343   5.818   3.027   6.854  0.1130 -0.4046  0.0146
13467TIP3    H140344   5.804   2.959   6.920 -2.3862  0.2886  0.2322
13467TIP3    H240345   5.827   3.108   6.904 -2.4374  0.2264 -0.4602
13468TIP3   OH240346   7.183   5.905   0.531  0.0227 -0.7925 -0.9603
13468TIP3    H140347   7.130   5.892   0.453  1.5199 -2.9501 -1.6489
13468TIP3    H240348   7.270   5.874   0.507  0.5677 -1.2634  1.4653
13469TIP3   OH240349   0.144   5.351   0.769  0.5185  0.3570  0.5740
13469TIP3    H140350   0.120   5.407   0.842 -0.1043 -0.1826  0.7926
13469TIP3    H240351   0.227   5.312   0.794  1.4414  1.9321 -0.0064
13470TIP3   OH240352   7.634   5.617   1.464 -0.5423  0.5400  0.1677
13470TIP3    H140353   7.725   5.643   1.479 -0.0506 -1.1878  0.3609
13470TIP3    H240354   7.639   5.546   1.400 -1.7775  0.5743  0.0110
13471TIP3   OH240355   1.280   7.453   2.613  0.3475 -0.2548 -0.2660
13471TIP3    H140356   1.187   7.467   2.595  0.2181  1.0765  1.3366
13471TIP3    H240357   1.293   7.488   2.701  1.9310 -2.2943  0.3557
13472TIP3   OH240358   2.259   6.344   0.756 -0.0785  0.0106  0.6029
13472TIP3    H140359   2.173   6.321   0.790 -1.1579  1.4956 -1.0634
13472TIP3    H240360   2.245   6.363   0.663  1.7713  1.6207  0.6036
13473TIP3   OH240361   1.028   6.602   0.573  0.2851  0.3225 -0.6665
13473TIP3    H140362   0.939   6.636   0.583  0.0951 -0.0532 -1.0623
13473TIP3    H240363   1.029   6.522   0.625 -0.2237 -0.7633 -2.2623
13474TIP3   OH240364   0.663   7.946   0.837 -0.3493 -0.5885  0.3317
13474TIP3    H140365   0.699   8.024   0.880  1.6860 -1.0647 -0.4335
13474TIP3    H240366   0.587   7.922   0.889 -0.2102  1.1361  1.3499
13475TIP3   OH240367   6.034   3.085   6.726  0.0964  0.4440  0.2813
13475TIP3    H140368   6.037   3.149   6.797 -0.4759  2.0876 -1.1156
13475TIP3    H240369   5.955   3.033   6.743  0.7251 -0.0817  1.5913
13476TIP3   OH240370   1.630   5.420   2.269 -0.0141 -0.3818  0.3658
13476TIP3    H140371   1.720   5.394   2.287  0.5986  1.0091 -0.6407
13476TIP3    H240372   1.597   5.452   2.353 -0.1474 -2.4816  1.1487
13477TIP3   OH240373   0.452   7.530   1.738 -0.7555 -0.3747  0.0538
13477TIP3    H140374   0.544   7.558   1.739 -0.5443 -1.0727  0.9765
13477TIP3    H240375   0.408   7.596   1.684  0.3381 -0.2045 -0.6629
13478TIP3   OH240376   0.253   7.067   2.069  0.2721  0.6017  0.1160
13478TIP3    H140377   0.279   7.025   1.987 -0.1736 -0.0496  0.3021
13478TIP3    H240378   0.206   7.146   2.042 -0.4868  0.0274 -0.2724
13479TIP3   OH240379   7.202   7.613   1.796  0.2511  0.4109 -0.1213
13479TIP3    H140380   7.210   7.517   1.800 -0.7668  0.2112 -2.3567
13479TIP3    H240381   7.185   7.639   1.886  0.8482 -1.4829  0.5705
13480TIP3   OH240382   7.334   7.910   1.234 -0.1017 -0.1457 -0.4736
13480TIP3    H140383   7.331   7.977   1.167 -1.9745  0.3586  0.0841
13480TIP3    H240384   7.421   7.870   1.225  1.1542  2.5172 -0.6268
13481TIP3   OH240385   5.906   6.038   0.979 -0.2972 -0.5138  0.4471
13481TIP3    H140386   5.878   5.966   1.035  0.0558 -0.1712  1.0655
13481TIP3    H240387   5.827   6.091   0.967 -0.9100 -1.7245 -1.1412
13482TIP3   OH240388   7.164   6.041   1.730  0.3413 -0.4569  0.6890
13482TIP3    H140389   7.245   6.014   1.687 -0.1770 -1.1459  0.1105
13482TIP3    H240390   7.178   6.132   1.753  1.5774 -0.8011  1.3173
13483TIP3   OH240391   6.631   7.944   1.770  0.0558 -0.0790  0.3362
13483TIP3    H140392   6.579   7.875   1.728 -2.1261  1.2018  0.8265
13483TIP3    H240393   6.694   7.897   1.824 -1.6064 -1.7034  0.9193
13484TIP3   OH240394   1.914   0.894   0.659 -0.7536 -0.4498  0.1881
13484TIP3    H140395   1.852   0.844   0.606 -2.0794 -0.0031  1.2726
13484TIP3    H240396   1.917   0.980   0.618 -0.2870 -0.6960 -0.2951
13485TIP3   OH240397   2.809   2.728   2.624  0.3933 -0.2827  0.2231
13485TIP3    H140398   2.903   2.725   2.604  0.6206  2.1661  0.7049
13485TIP3    H240399   2.800   2.681   2.707  1.3735  0.3268  0.6885
13486TIP3   OH240400   0.988   6.298   1.125 -0.2511  0.5248 -0.4749
13486TIP3    H140401   1.019   6.384   1.154  0.0120  0.5391 -0.7885
13486TIP3    H240402   1.060   6.263   1.073 -0.3073  0.0540 -0.2359
13487TIP3   OH240403   7.458   7.467   1.869 -0.4714  0.1068 -0.3001
13487TIP3    H140404   7.366   7.478   1.845 -0.5512 -2.0799 -1.1306
13487TIP3    H240405   7.492   7.403   1.806  1.4181  0.2853  0.4872
13488TIP3   OH240406   6.692   3.250   6.517  0.2941  0.2585 -0.2873
13488TIP3    H140407   6.762   3.249   6.582  0.9200  0.1804 -0.9601
13488TIP3    H240408   6.621   3.200   6.557  1.4388 -1.5695 -0.4987
13489TIP3   OH240409   4.681   7.026   3.560 -0.4158 -0.3101 -0.0349
13489TIP3    H140410   4.716   7.079   3.488  4.3446 -0.4592  1.9762
13489TIP3    H240411   4.630   6.957   3.517  0.9317  0.5604 -3.1659
13490TIP3   OH240412   3.332   0.400   2.084  0.0582 -0.1724  0.0576
13490TIP3    H140413   3.413   0.350   2.078  0.0377 -0.1159 -0.6447
13490TIP3    H240414   3.269   0.339   2.123  0.4847 -0.1551  0.7804
13491TIP3   OH240415   2.055   0.805   2.819 -0.0404  0.2409 -0.3420
13491TIP3    H140416   2.094   0.885   2.785 -1.0261  1.5641  1.5753
13491TIP3    H240417   2.116   0.736   2.794  1.2685  1.7017 -1.2381
13492TIP3   OH240418   7.547   7.130   0.630 -0.1679 -0.0134  0.2999
13492TIP3    H140419   7.600   7.102   0.705 -0.5479 -0.7330  0.3120
13492TIP3    H240420   7.576   7.073   0.559 -2.0226 -1.5020  0.7040
13493TIP3   OH240421   5.700   1.690   5.482  0.3577  0.0566 -0.2368
13493TIP3    H140422   5.666   1.658   5.566 -0.2060  1.3757  0.0629
13493TIP3    H240423   5.724   1.611   5.434 -0.2409 -0.7634  0.7756
13494TIP3   OH240424   7.654   6.454   0.813  0.6261  0.1111 -0.3456
13494TIP3    H140425   7.731   6.405   0.843 -0.4325 -0.8761  0.8515
13494TIP3    H240426   7.611   6.394   0.752 -0.3323 -0.2090  0.6349
13495TIP3   OH240427   4.231   0.494   1.713  0.0601  0.2154 -0.2190
13495TIP3    H140428   4.306   0.525   1.661  0.9134  0.7660  1.2860
13495TIP3    H240429   4.270   0.432   1.775 -1.2071 -1.7330 -1.3121
13496TIP3   OH240430   7.108   6.364   0.478 -0.3440  0.0228 -0.2367
13496TIP3    H140431   7.197   6.343   0.507 -0.3900 -0.6516 -0.5825
13496TIP3    H240432   7.056   6.364   0.558 -0.5020 -1.9704 -0.3282
13497TIP3   OH240433   0.776   6.398   2.795  0.4880 -0.0023  0.3389
13497TIP3    H140434   0.764   6.360   2.882  1.4893  1.0664  0.9623
13497TIP3    H240435   0.781   6.323   2.736 -0.4391 -0.7314  1.1641
13498TIP3   OH240436   8.363   7.375   0.225 -0.2972 -0.0842 -0.0921
13498TIP3    H140437   8.323   7.350   0.308  0.8758  0.7005  0.7097
13498TIP3    H240438   8.407   7.295   0.194 -0.0368 -0.1484  0.4419
13499TIP3   OH240439   0.416   7.425   0.746  0.2665  0.3061  0.4362
13499TIP3    H140440   0.456   7.382   0.822 -1.2837 -3.6967 -0.8418
13499TIP3    H240441   0.323   7.426   0.766 -0.0269  0.2908 -0.8741
13500TIP3   OH240442   7.301   7.070   1.247  0.2459 -0.1686 -0.1488
13500TIP3    H140443   7.394   7.080   1.224  0.2936  1.2290  0.5778
13500TIP3    H240444   7.274   6.989   1.204  1.6337 -0.2392 -0.9141
13501TIP3   OH240445   8.386   6.101   0.697  0.2853 -0.2158 -0.6630
13501TIP3    H140446   8.415   6.188   0.723 -1.2892 -0.0227  0.5294
13501TIP3    H240447   8.466   6.050   0.690  0.9481  0.2896  2.5535
13502TIP3   OH240448   6.807   5.643   2.791 -0.5010 -0.5608 -0.2645
13502TIP3    H140449   6.885   5.698   2.802 -1.6492  1.1862 -0.6834
13502TIP3    H240450   6.799   5.632   2.696 -0.2856 -1.4714 -0.1841
13503TIP3   OH240451   6.897   2.375   6.671  0.1181  0.2485  0.2768
13503TIP3    H140452   6.962   2.366   6.740 -0.5710  2.3914  1.2414
13503TIP3    H240453   6.853   2.458   6.689  0.3642  1.2090 -3.1225
13504TIP3   OH240454   6.128   5.024   1.000 -0.3890 -0.2245 -0.1650
13504TIP3    H140455   6.099   4.974   0.924 -1.9460  0.7834 -0.2573
13504TIP3    H240456   6.079   5.106   0.995 -0.0917  0.0884  1.6161
13505TIP3   OH240457   3.568   0.477   3.088  0.1964  0.0373  0.5613
13505TIP3    H140458   3.510   0.406   3.059 -0.8137  1.4395 -0.9750
13505TIP3    H240459   3.540   0.496   3.178  1.2246 -2.2412  1.3834
13506TIP3   OH240460   0.983   6.081   1.304 -0.4769  0.6082 -0.8160
13506TIP3    H140461   1.072   6.058   1.332 -1.2983  0.9336  2.1810
13506TIP3    H240462   0.995   6.157   1.248  1.0407  1.3702  0.5147
13507TIP3   OH240463   0.358   6.728   2.604 -0.1286  0.3768  0.0340
13507TIP3    H140464   0.408   6.649   2.583 -1.1367 -0.2998  0.1238
13507TIP3    H240465   0.418   6.780   2.658  0.5093 -0.3802  0.0790
13508TIP3   OH240466   1.388   4.701   1.116  0.1869 -0.0416 -0.1181
13508TIP3    H140467   1.400   4.622   1.169  1.7251  0.4106  0.2250
13508TIP3    H240468   1.309   4.683   1.065  0.3552 -1.6890  0.1605
13509TIP3   OH240469   7.962   7.623   3.053  0.2162  0.3167  0.1813
13509TIP3    H140470   8.029   7.555   3.053 -0.5620 -0.4577  0.7135
13509TIP3    H240471   7.970   7.665   3.138  0.6170  0.8232 -0.1014
13510TIP3   OH240472   1.559   5.401   0.764  0.3677  0.1966  0.2789
13510TIP3    H140473   1.601   5.458   0.829 -1.3033  1.4671  0.2806
13510TIP3    H240474   1.525   5.328   0.815  3.1752 -1.2422  0.1813
13511TIP3   OH240475   2.474   0.417   1.868 -0.1860  0.1823 -0.1121
13511TIP3    H140476   2.471   0.485   1.801  1.0843  0.1303 -0.2252
13511TIP3    H240477   2.557   0.432   1.914 -0.3558 -0.6901  0.4896
13512TIP3   OH240478   5.233   2.548   6.810 -0.9678 -0.1448 -0.0381
13512TIP3    H140479   5.312   2.578   6.766 -2.2774  1.7930 -1.1525
13512TIP3    H240480   5.230   2.600   6.891 -0.7693 -0.6894  0.3236
13513TIP3   OH240481   8.424   7.246   0.808 -0.0473  0.0562  0.0028
13513TIP3    H140482   8.423   7.309   0.736 -0.3666  1.2905  1.0505
13513TIP3    H240483   8.332   7.229   0.826  0.0283 -0.1857  0.1571
13514TIP3   OH240484   6.230   5.433   0.977  0.1666  0.5031 -0.2834
13514TIP3    H140485   6.274   5.465   0.898  0.2805 -0.2899 -0.5455
13514TIP3    H240486   6.239   5.338   0.973  2.0847  0.5585  1.8284
13515TIP3   OH240487   7.657   5.452   1.250 -0.6322  0.0112 -0.5857
13515TIP3    H140488   7.744   5.482   1.222 -0.6092  1.8362  1.3017
13515TIP3    H240489   7.597   5.495   1.189 -0.2613 -0.5549 -1.3535
13516TIP3   OH240490   7.635   7.301   0.975  0.0252 -0.0436 -0.0501
13516TIP3    H140491   7.559   7.344   0.938  0.1804  1.0897  0.9245
13516TIP3    H240492   7.665   7.359   1.045  1.5128 -0.6909 -0.1139
13517TIP3   OH240493   6.747   4.841   2.419  0.0212 -0.4832 -0.3347
13517TIP3    H140494   6.820   4.842   2.481 -0.3028 -1.1182  0.0658
13517TIP3    H240495   6.785   4.808   2.337  0.5976  0.9815 -0.6723
13518TIP3   OH240496   1.452   5.271   1.197  0.3185  0.0590 -0.6085
13518TIP3    H140497   1.393   5.315   1.259  0.3414  1.3182 -1.4500
13518TIP3    H240498   1.419   5.182   1.191  0.2302 -0.0375  1.0999
13519TIP3   OH240499   0.782   7.303   1.438  0.1360 -0.8237 -0.1860
13519TIP3    H140500   0.747   7.355   1.366  0.7296  0.5201  0.4913
13519TIP3    H240501   0.872   7.284   1.413  1.3044  2.1657  1.5089
13520TIP3   OH240502   5.789   3.882   6.775 -0.3899 -0.1411 -0.0093
13520TIP3    H140503   5.828   3.847   6.695  1.4792 -0.1757  0.8762
13520TIP3    H240504   5.733   3.954   6.745  0.1687 -0.2468 -1.3531
13521TIP3   OH240505   3.287   0.119   1.450  0.2985  0.0179 -0.6535
13521TIP3    H140506   3.221   0.186   1.434  0.4078 -0.0227 -1.2720
13521TIP3    H240507   3.283   0.104   1.545 -2.8289 -2.3168 -1.0881
13522TIP3   OH240508   2.454   0.374   0.567 -0.4391 -0.6321 -0.3433
13522TIP3    H140509   2.477   0.295   0.518  0.1201 -0.5293 -0.2456
13522TIP3    H240510   2.475   0.446   0.507 -0.8897 -0.5490 -0.4089
13523TIP3   OH240511   5.568   4.875   0.973 -0.0634  0.1865  0.4272
13523TIP3    H140512   5.602   4.852   1.060  1.2902  1.2420  0.1792
13523TIP3    H240513   5.600   4.805   0.916  1.1834  0.8377  0.3129
13524TIP3   OH240514   6.577   7.359   2.622  0.7256 -0.1477  0.2265
13524TIP3    H140515   6.551   7.375   2.713  0.9079  0.0014  0.2529
13524TIP3    H240516   6.566   7.444   2.578 -0.1690 -0.4219 -0.0873
13525TIP3   OH240517   6.886   3.797   1.257 -0.0911 -0.2928  0.0754
13525TIP3    H140518   6.855   3.732   1.194 -1.2403 -1.3714  1.7201
13525TIP3    H240519   6.807   3.831   1.297  0.4812  2.2678 -0.8491
13526TIP3   OH240520   3.935   0.306   1.858 -0.3903  0.0427  0.1261
13526TIP3    H140521   3.962   0.270   1.773 -0.3504 -1.1068  0.6209
13526TIP3    H240522   3.991   0.383   1.869 -0.0409 -0.0861 -0.6684
13527TIP3   OH240523   3.505   0.623   0.299  0.1966 -0.6817  0.1002
13527TIP3    H140524   3.583   0.659   0.259  0.6071 -0.7996  0.7856
13527TIP3    H240525   3.522   0.529   0.306  0.7516 -0.4716  1.8964
13528TIP3   OH240526   8.009   4.773   0.131 -0.2283 -0.0403 -0.6005
13528TIP3    H140527   7.930   4.734   0.094 -1.0639  0.2308  0.8849
13528TIP3    H240528   8.018   4.857   0.086 -0.0775 -0.6206 -1.6679
13529TIP3   OH240529   1.756   0.181   0.724  0.5431 -0.1561  0.8833
13529TIP3    H140530   1.802   0.098   0.740  0.9474 -0.3542 -1.1589
13529TIP3    H240531   1.728   0.175   0.633  0.0531  1.7136  0.9013
13530TIP3   OH240532   0.969   6.892   1.116  0.3667  0.4456  0.3676
13530TIP3    H140533   0.888   6.893   1.064  0.5820  1.4258  0.0316
13530TIP3    H240534   0.955   6.960   1.182  1.3111  1.3208 -0.3200
13531TIP3   OH240535   3.429   3.579   6.766 -0.3164  0.3693 -0.1055
13531TIP3    H140536   3.478   3.523   6.826 -0.2005 -0.3554 -0.8760
13531TIP3    H240537   3.416   3.525   6.687 -2.7863  0.3290  0.2661
13532TIP3   OH240538   0.464   7.395   3.216 -0.2301  0.0579 -0.5740
13532TIP3    H140539   0.417   7.328   3.266 -1.1587  0.0878 -1.4082
13532TIP3    H240540   0.553   7.392   3.251 -0.4946 -0.9802  0.0290
13533TIP3   OH240541   2.412   0.883   3.161 -0.3609  0.8444 -0.1743
13533TIP3    H140542   2.422   0.851   3.250 -0.7586 -0.0155 -0.4273
13533TIP3    H240543   2.407   0.803   3.108  0.2531  1.3524 -1.0000
13534TIP3   OH240544   8.284   7.719   0.868 -0.1304 -0.2788  0.0269
13534TIP3    H140545   8.281   7.640   0.922  0.3764  0.2415  0.8318
13534TIP3    H240546   8.219   7.777   0.907 -0.1949 -0.1313 -0.2969
13535TIP3   OH240547   0.660   7.032   1.316 -0.1830 -0.2362  0.1283
13535TIP3    H140548   0.668   6.991   1.402  1.5996 -0.9460 -0.3305
13535TIP3    H240549   0.746   7.071   1.301  0.1788 -1.8036 -2.1341
13536TIP3   OH240550   3.208   2.014   1.804 -0.1133 -0.0982  0.9946
13536TIP3    H140551   3.145   1.977   1.865  1.1234 -1.3093  1.5899
13536TIP3    H240552   3.212   1.950   1.732  0.1358  0.1540  0.7817
13537TIP3   OH240553   6.281   2.964   6.345 -0.6437  0.3636  0.0219
13537TIP3    H140554   6.366   2.939   6.309 -1.1766 -0.2115 -0.8765
13537TIP3    H240555   6.285   3.059   6.353 -0.5133  0.5232 -1.6178
13538TIP3   OH240556   3.968   0.464   3.198 -0.1974 -0.4823 -0.3819
13538TIP3    H140557   3.939   0.467   3.107 -0.4447 -0.7763 -0.3146
13538TIP3    H240558   3.957   0.372   3.223 -1.3817 -0.1434  0.3526
13539TIP3   OH240559   2.208   0.229   0.742 -0.2580  0.0872  0.1587
13539TIP3    H140560   2.142   0.218   0.673 -0.6996  2.1221  0.2264
13539TIP3    H240561   2.176   0.303   0.794  1.4981  0.3481  0.8965
13540TIP3   OH240562   4.531   2.157   6.837  0.2633 -0.7455 -0.6405
13540TIP3    H140563   4.455   2.202   6.801 -0.6167 -1.0581  0.7745
13540TIP3    H240564   4.532   2.183   6.929  2.3714 -0.0834 -0.8417
13541TIP3   OH240565   2.853   0.938   1.507  0.1882 -0.2003 -0.3481
13541TIP3    H140566   2.837   0.995   1.582 -0.2213 -0.8716  0.0867
13541TIP3    H240567   2.933   0.971   1.467 -0.0932  0.7296 -0.1576
13542TIP3   OH240568   6.162   7.210   0.285 -0.6542 -0.0736 -0.3103
13542TIP3    H140569   6.241   7.231   0.335  0.0760 -0.0184 -1.4774
13542TIP3    H240570   6.128   7.131   0.326  0.0852 -0.1873  0.0968
13543TIP3   OH240571   7.274   6.751   3.026 -0.0693  0.1672 -0.0690
13543TIP3    H140572   7.225   6.669   3.028 -0.6553  0.3826 -3.2266
13543TIP3    H240573   7.209   6.818   3.048  0.2118 -0.0984  1.6441
13544TIP3   OH240574   1.335   6.078   1.651  0.3905 -0.0074 -0.4334
13544TIP3    H140575   1.406   6.016   1.635  0.4384  0.3922 -1.8560
13544TIP3    H240576   1.354   6.153   1.595 -0.5700  0.5736 -0.0116
13545TIP3   OH240577   5.351   4.448   6.728 -0.2269  0.1051  0.0811
13545TIP3    H140578   5.330   4.356   6.741 -0.3867 -0.0521 -1.2178
13545TIP3    H240579   5.279   4.482   6.676  0.2554  0.7604 -0.1591
13546TIP3   OH240580   6.033   2.755   6.863  0.2559 -0.3580 -0.2617
13546TIP3    H140581   6.068   2.677   6.821 -0.3154 -0.5213 -0.4334
13546TIP3    H240582   6.102   2.783   6.924  0.6321 -0.7452 -0.5141
13547TIP3   OH240583   1.000   6.344   1.896  0.7751 -0.4320  0.0600
13547TIP3    H140584   0.942   6.339   1.972 -0.4841 -1.3220 -0.9401
13547TIP3    H240585   1.081   6.302   1.924  0.0494 -1.4225  0.6716
13548TIP3   OH240586   0.188   3.483   1.589 -0.0461  0.5419  0.2521
13548TIP3    H140587   0.165   3.566   1.630  1.2430  0.3410  1.4438
13548TIP3    H240588   0.136   3.479   1.509 -0.6309  2.1727  0.5511
13549TIP3   OH240589   5.287   6.917   0.517 -0.1185 -0.1346  0.2290
13549TIP3    H140590   5.292   6.856   0.590 -0.3919  0.1078  0.4500
13549TIP3    H240591   5.378   6.946   0.504 -0.2444  0.7719  1.2791
13550TIP3   OH240592   7.345   7.632   0.626 -0.6542  0.4733  0.3197
13550TIP3    H140593   7.370   7.607   0.537  1.0261  2.9061  0.0602
13550TIP3    H240594   7.343   7.549   0.674  1.3760 -0.5648 -1.3038
13551TIP3   OH240595   0.338   5.998   1.854  0.2432 -0.1968  0.1688
13551TIP3    H140596   0.377   6.042   1.929 -0.2497  0.0968  0.2537
13551TIP3    H240597   0.376   5.910   1.855  0.1833 -0.2140  0.8028
13552TIP3   OH240598   8.340   6.993   1.074 -0.8016  0.0694 -0.0917
13552TIP3    H140599   8.344   7.085   1.047 -1.1084  0.1767  0.2396
13552TIP3    H240600   8.251   6.966   1.054 -0.3496 -0.5125 -1.3582
13553TIP3   OH240601   3.583   0.381   0.425 -0.0241 -0.0454  0.8784
13553TIP3    H140602   3.598   0.305   0.369 -1.9282 -0.3467  0.7284
13553TIP3    H240603   3.500   0.361   0.470  0.7685  0.8019  2.7775
13554TIP3   OH240604   5.204   5.145   0.455 -0.1184  0.0459  0.1338
13554TIP3    H140605   5.176   5.143   0.363  1.9526  1.0750 -0.5510
13554TIP3    H240606   5.275   5.208   0.457  1.8178 -2.1118  1.9074
13555TIP3   OH240607   0.178   7.926   1.788  0.1038 -0.5593 -0.6568
13555TIP3    H140608   0.218   7.947   1.704 -0.0562 -0.4689 -0.7124
13555TIP3    H240609   0.228   7.852   1.822  0.5880 -0.1749 -0.5286
13556TIP3   OH240610   1.359   1.425   1.601  0.2895 -0.0350 -0.4796
13556TIP3    H140611   1.432   1.364   1.593  1.1215  0.9885 -0.8325
13556TIP3    H240612   1.384   1.499   1.546  0.3690  1.6515  1.7446
13557TIP3   OH240613   1.659   8.007   0.259  0.0323  0.4038  0.0371
13557TIP3    H140614   1.574   8.050   0.250 -0.4428 -0.9573 -2.8077
13557TIP3    H240615   1.659   7.971   0.347 -2.5661 -0.0347 -0.1011
13558TIP3   OH240616   0.157   0.625   1.689 -0.0289 -0.0336  0.0558
13558TIP3    H140617   0.210   0.581   1.756 -0.7664  1.4384  1.6781
13558TIP3    H240618   0.067   0.615   1.720 -0.8699 -3.5128 -3.2725
13559TIP3   OH240619   5.783   1.459   2.359  0.5932  0.3701 -0.6022
13559TIP3    H140620   5.729   1.451   2.437  0.3345 -1.4433 -0.9499
13559TIP3    H240621   5.867   1.491   2.391  0.7998 -1.2889  0.5620
13560TIP3   OH240622   4.287   5.137   3.413  0.2125 -0.1903  0.3031
13560TIP3    H140623   4.265   5.082   3.489  0.1490 -1.3872 -0.5726
13560TIP3    H240624   4.229   5.107   3.344  0.8616  0.3220 -0.4730
13561TIP3   OH240625   1.686   0.873   2.306  0.4461 -0.1213  0.1030
13561TIP3    H140626   1.659   0.930   2.235 -0.8420  0.7558  1.2795
13561TIP3    H240627   1.612   0.814   2.320  0.5414 -0.0552  0.9458
13562TIP3   OH240628   0.140   6.409   2.255  0.0710 -0.0898 -0.8484
13562TIP3    H140629   0.129   6.317   2.276 -1.5705  0.0482 -1.0047
13562TIP3    H240630   0.096   6.455   2.327 -0.1249  0.5288 -1.3583
13563TIP3   OH240631   5.184   2.346   5.756  0.1683  0.2307 -1.0330
13563TIP3    H140632   5.203   2.383   5.842 -0.6381  1.2564 -1.2842
13563TIP3    H240633   5.225   2.260   5.757  1.3124  0.7736 -0.1105
13564TIP3   OH240634   6.017   6.144   2.193 -0.0876 -0.3718 -0.0964
13564TIP3    H140635   5.971   6.107   2.269  0.5226 -0.3076  0.3059
13564TIP3    H240636   6.103   6.169   2.226 -0.5209  1.5006 -0.3490
13565TIP3   OH240637   6.119   4.002   6.629 -0.6677 -0.2362 -0.2404
13565TIP3    H140638   6.108   4.092   6.601  1.2538  0.4895  1.2484
13565TIP3    H240639   6.204   3.976   6.594 -0.8410 -1.1933  0.0356
13566TIP3   OH240640   7.052   6.851   0.685  0.1430  0.1844  0.1628
13566TIP3    H140641   6.979   6.895   0.641 -0.8828  0.2233  1.8609
13566TIP3    H240642   7.094   6.921   0.736  0.3630 -0.1812  0.4827
13567TIP3   OH240643   8.469   7.968   2.866  0.3916  0.5533  0.1817
13567TIP3    H140644   8.518   7.897   2.825  0.4926 -0.5042  2.0683
13567TIP3    H240645   8.432   7.929   2.946 -1.6398  1.9456 -0.0399
13568TIP3   OH240646   1.425   7.897   1.232 -0.2968 -0.4488 -0.0403
13568TIP3    H140647   1.489   7.834   1.265 -0.9555 -1.8770 -1.4018
13568TIP3    H240648   1.466   7.983   1.247  0.5043 -1.1629  2.0590
13569TIP3   OH240649   2.847   1.327   0.722 -0.0528  0.1383 -0.3631
13569TIP3    H140650   2.843   1.240   0.682 -2.6937  0.0472  0.0452
13569TIP3    H240651   2.827   1.311   0.814 -2.5057  1.4205 -0.6632
13570TIP3   OH240652   7.564   7.965   0.816  0.6782 -0.0044 -0.8132
13570TIP3    H140653   7.654   7.996   0.810  1.3379 -2.1614 -2.6019
13570TIP3    H240654   7.571   7.879   0.857 -0.8832  1.0333  1.7583
13571TIP3   OH240655   0.965   0.813   2.644  0.1798  0.0264 -0.3139
13571TIP3    H140656   1.052   0.786   2.673 -0.7001 -1.2254  1.1683
13571TIP3    H240657   0.924   0.852   2.721 -1.3399 -1.2741 -0.4485
13572TIP3   OH240658   0.473   7.663   0.633  0.3134 -0.3484  0.0845
13572TIP3    H140659   0.564   7.675   0.659  0.1232  1.1526  0.1393
13572TIP3    H240660   0.441   7.593   0.690  1.0551  0.0558  1.0296
13573TIP3   OH240661   2.425   0.551   2.739  0.9280  0.4234 -0.3372
13573TIP3    H140662   2.423   0.596   2.655  0.2545  0.4781 -0.2895
13573TIP3    H240663   2.334   0.528   2.756  1.1855 -0.4300 -0.0797
13574TIP3   OH240664   8.387   6.494   0.437 -0.0150  0.1758  0.1186
13574TIP3    H140665   8.364   6.436   0.364 -0.1805 -0.0094  0.3171
13574TIP3    H240666   8.325   6.472   0.506  2.1783 -1.9984  1.5134
13575TIP3   OH240667   0.928   6.748   2.202  0.3327 -0.5999 -0.6019
13575TIP3    H140668   0.859   6.681   2.198  0.2248 -0.5024 -0.3759
13575TIP3    H240669   0.887   6.822   2.247  0.3974 -0.3145 -1.0057
13576TIP3   OH240670   2.609   6.661   0.547 -0.4885  0.3935  0.0120
13576TIP3    H140671   2.703   6.676   0.554 -0.7261  1.0633  2.0918
13576TIP3    H240672   2.597   6.570   0.572 -0.4799  0.5190  0.4656
13577TIP3   OH240673   3.521   0.071   0.567  0.2958 -0.2160  0.0276
13577TIP3    H140674   3.480   0.014   0.632 -0.4518  0.9986  0.6448
13577TIP3    H240675   3.547   0.013   0.496 -1.3424 -1.1884  0.2136
13578TIP3   OH240676   4.186   0.586   0.376  0.0922  0.3121  0.1451
13578TIP3    H140677   4.214   0.501   0.342  1.9084  0.6992  0.6229
13578TIP3    H240678   4.238   0.650   0.327 -0.8617  1.1319  0.1752
13579TIP3   OH240679   6.512   1.078   6.645  0.1893  0.2682 -0.3810
13579TIP3    H140680   6.527   1.050   6.735  1.0333  0.4911 -0.4516
13579TIP3    H240681   6.420   1.106   6.644  0.3662  0.9095  0.5820
13580TIP3   OH240682   0.418   6.127   3.204 -0.1283 -0.2161 -0.0141
13580TIP3    H140683   0.451   6.195   3.262  1.1221  0.6279 -1.6602
13580TIP3    H240684   0.402   6.172   3.121 -1.0239 -1.5721 -0.6030
13581TIP3   OH240685   4.273   5.974   3.908 -0.2228  0.3872  0.0925
13581TIP3    H140686   4.334   6.024   3.855 -0.4104 -0.3986 -0.8775
13581TIP3    H240687   4.319   5.960   3.991  0.4530  0.7838 -0.2134
13582TIP3   OH240688   8.350   6.460   2.734  0.0488  0.2576 -0.3061
13582TIP3    H140689   8.392   6.417   2.659  0.2132 -1.3144  0.6727
13582TIP3    H240690   8.365   6.401   2.807  2.4591  3.1431  1.6526
13583TIP3   OH240691   0.815   5.266   2.373  0.1919 -0.7624 -0.3944
13583TIP3    H140692   0.809   5.240   2.464  0.8390  2.5202  0.6574
13583TIP3    H240693   0.878   5.205   2.335  0.3968 -1.7606  1.4891
13584TIP3   OH240694   0.788   6.152   1.012  0.4249  0.4039  0.1845
13584TIP3    H140695   0.858   6.199   1.058  2.1230 -0.8982 -0.9728
13584TIP3    H240696   0.768   6.207   0.936 -0.3783  1.1727  0.9530
13585TIP3   OH240697   0.883   5.020  -0.017  0.4958 -0.7482  0.3570
13585TIP3    H140698   0.966   4.979   0.008  0.3304 -0.5914  1.1663
13585TIP3    H240699   0.866   5.084   0.052  0.6937  0.6037 -0.8217
13586TIP3   OH240700   7.205   5.565   0.088  0.3391  0.7083  0.9414
13586TIP3    H140701   7.115   5.582   0.117 -0.2739  0.0064 -0.4993
13586TIP3    H240702   7.212   5.610   0.004  1.1525  0.2974  0.7839
13587TIP3   OH240703   7.532   6.411   1.238 -0.2420 -0.0032  0.2327
13587TIP3    H140704   7.500   6.360   1.313  0.0429 -0.3672  0.1057
13587TIP3    H240705   7.533   6.501   1.270  1.0955 -0.3069  1.0909
13588TIP3   OH240706   0.331   6.633   3.571 -0.1432  0.2654  0.1519
13588TIP3    H140707   0.257   6.572   3.579 -0.7124  0.8634 -0.4806
13588TIP3    H240708   0.322   6.691   3.647  0.1111 -0.1320  0.4847
13589TIP3   OH240709   4.896   3.692   6.934  0.4323 -0.1857 -0.1911
13589TIP3    H140710   4.877   3.616   6.879 -0.2973  0.6393 -1.0848
13589TIP3    H240711   4.933   3.757   6.874  0.6560  0.3268  0.4890
13590TIP3   OH240712   0.322   6.468   1.711 -0.3897  0.0234 -0.3002
13590TIP3    H140713   0.340   6.547   1.762  1.2380 -1.8315  2.1136
13590TIP3    H240714   0.321   6.498   1.620  1.4552  2.6132  0.4761
13591TIP3   OH240715   7.746   7.135   0.802  0.5274 -0.4219 -0.1289
13591TIP3    H140716   7.826   7.178   0.773  0.7589  0.3413  1.5869
13591TIP3    H240717   7.706   7.196   0.864 -0.6988 -1.3731  0.0544
13592TIP3   OH240718   0.107   7.033   0.352 -0.2843  0.1940 -0.6943
13592TIP3    H140719   0.151   6.950   0.372 -0.3805 -0.5478 -3.3217
13592TIP3    H240720   0.085   7.070   0.437 -1.1573 -2.9771  0.5345
13593TIP3   OH240721   6.717   7.055   0.726  0.2802 -0.7345  0.2889
13593TIP3    H140722   6.628   7.060   0.690 -0.6064 -0.8650  2.3408
13593TIP3    H240723   6.708   6.997   0.802  1.9007  0.1308  1.1614
13594TIP3   OH240724   7.359   6.927   2.498  0.2762 -0.4096  0.9978
13594TIP3    H140725   7.273   6.966   2.514  1.7232  3.2255  0.4052
13594TIP3    H240726   7.376   6.874   2.575 -1.2119  1.2818  2.5526
13595TIP3   OH240727   3.218   1.120   0.852 -0.6036  0.7696  0.2344
13595TIP3    H140728   3.267   1.174   0.789 -1.4556  1.7588  0.4042
13595TIP3    H240729   3.228   1.031   0.819  0.1414  1.1166 -0.5149
13596TIP3   OH240730   0.230   0.678   2.321 -0.0233  0.2461  0.2199
13596TIP3    H140731   0.173   0.739   2.274  0.9267 -0.6764 -2.2329
13596TIP3    H240732   0.278   0.733   2.383  0.4266  1.9132 -1.5660
13597TIP3   OH240733   2.979   2.322   1.953  0.1068  0.1002 -0.3826
13597TIP3    H140734   2.964   2.380   1.878 -0.1820 -2.0121 -2.0274
13597TIP3    H240735   3.074   2.311   1.955  0.1451  0.4622 -0.2020
13598TIP3   OH240736   2.718   1.761   2.235  0.5482 -0.0063 -0.3192
13598TIP3    H140737   2.774   1.685   2.218  0.7217  0.9659 -4.5110
13598TIP3    H240738   2.645   1.752   2.174  0.6426  3.2196 -1.0115
13599TIP3   OH240739   1.078   0.171   1.709 -0.0883  0.5003 -0.8439
13599TIP3    H140740   1.025   0.093   1.725  1.0702 -0.7706 -3.0176
13599TIP3    H240741   1.016   0.244   1.711 -1.2283 -0.4753  0.9101
13600TIP3   OH240742   2.474   1.180   1.979 -0.1821 -0.2893 -0.1152
13600TIP3    H140743   2.456   1.170   2.073  1.1837  0.5789  0.2611
13600TIP3    H240744   2.549   1.240   1.976 -0.6807  0.2530 -1.7969
13601TIP3   OH240745   3.971   6.063   4.153  0.1611 -0.0105  0.2795
13601TIP3    H140746   4.005   6.129   4.092 -1.5490  0.3330 -0.3172
13601TIP3    H240747   3.903   6.109   4.202  2.4345  0.1561  3.4799
13602TIP3   OH240748   3.464   7.946   1.808  0.2656 -0.0274  0.1570
13602TIP3    H140749   3.464   7.852   1.790 -1.5536 -0.1390  0.6421
13602TIP3    H240750   3.482   7.987   1.723  1.4099 -0.8129  0.0139
13603TIP3   OH240751   6.259   5.830   2.906  0.2591  0.1182  0.2701
13603TIP3    H140752   6.351   5.834   2.879  0.7336 -2.0373  1.4937
13603TIP3    H240753   6.251   5.896   2.974  0.6682  0.9769 -0.5072
13604TIP3   OH240754   0.732   6.856   3.403 -0.2500 -0.0023 -0.0580
13604TIP3    H140755   0.783   6.916   3.457 -1.0339 -0.6262  1.4149
13604TIP3    H240756   0.745   6.887   3.314  1.4496  0.7686  0.4348
13605TIP3   OH240757   2.687   7.895   1.037 -0.8451 -0.3615  0.0297
13605TIP3    H140758   2.602   7.931   1.063 -1.2807 -0.3128 -1.4417
13605TIP3    H240759   2.666   7.820   0.982  0.0656 -0.5816 -0.0287
13606TIP3   OH240760   1.399   4.944   1.543 -0.1094  0.2600  0.3136
13606TIP3    H140761   1.396   4.951   1.447 -1.5020 -0.5176  0.2813
13606TIP3    H240762   1.350   5.019   1.574 -1.2225 -0.4706  0.3587
13607TIP3   OH240763   4.332   2.449   6.414 -0.0243  0.2930 -0.6805
13607TIP3    H140764   4.374   2.365   6.433 -1.4088 -0.0908  0.8686
13607TIP3    H240765   4.380   2.512   6.467 -0.0698  0.1981 -0.5255
13608TIP3   OH240766   7.387   5.975   1.335  0.0774 -0.4856  0.1490
13608TIP3    H140767   7.342   5.901   1.375  0.9333  0.0709  2.2106
13608TIP3    H240768   7.479   5.964   1.360  0.6383 -0.0767 -1.6455
13609TIP3   OH240769   1.366   5.593   1.996  0.3551 -0.0831  0.1766
13609TIP3    H140770   1.295   5.605   1.933  0.2632  0.8455  0.4521
13609TIP3    H240771   1.328   5.538   2.065  0.1159 -0.1489 -0.0061
13610TIP3   OH240772   6.492   5.740   2.232  0.1046  0.4441  0.4512
13610TIP3    H140773   6.529   5.677   2.170 -0.1824 -0.1653  0.9036
13610TIP3    H240774   6.399   5.719   2.236 -0.0701  1.1517  0.3067
13611TIP3   OH240775   1.580   1.408   2.074 -0.2336  0.0034 -0.1813
13611TIP3    H140776   1.611   1.471   2.138 -0.9872 -0.0332  0.2308
13611TIP3    H240777   1.491   1.437   2.054 -0.2899 -0.4532 -0.6041
13612TIP3   OH240778   5.415   6.279   1.195  0.5069  0.8439 -0.0513
13612TIP3    H140779   5.477   6.208   1.213  0.2194  0.7641  0.6534
13612TIP3    H240780   5.333   6.249   1.235  0.2130  1.2875 -0.3200
13613TIP3   OH240781   5.506   6.924   1.594  0.1014  0.1420 -0.3268
13613TIP3    H140782   5.533   6.835   1.618  0.0812  0.2040 -0.0702
13613TIP3    H240783   5.431   6.941   1.651 -1.3215 -0.5313 -1.9322
13614TIP3   OH240784   7.670   0.221   0.282 -0.6403 -0.3258 -0.6880
13614TIP3    H140785   7.671   0.286   0.211 -1.1740  0.8025  0.3210
13614TIP3    H240786   7.586   0.177   0.273 -0.8556  0.0543 -0.5464
13615TIP3   OH240787   1.689   0.682   0.811  0.1277 -0.0347  0.2849
13615TIP3    H140788   1.729   0.598   0.831  0.9663  0.1081 -0.7492
13615TIP3    H240789   1.690   0.729   0.894  3.1273  0.3725  0.0788
13616TIP3   OH240790   1.757   0.391   0.402  0.4995  0.6153 -0.0637
13616TIP3    H140791   1.743   0.433   0.487  0.5268  0.1157  0.1908
13616TIP3    H240792   1.744   0.297   0.419  1.0858  0.4528 -0.4820
13617TIP3   OH240793   3.269   0.550   1.559 -0.5211 -0.4530  0.1040
13617TIP3    H140794   3.292   0.497   1.634 -0.1751 -0.6441 -0.1383
13617TIP3    H240795   3.332   0.526   1.491 -1.0145 -0.5011 -0.3435
13618TIP3   OH240796   4.840   0.263   2.569  0.4438 -0.3541 -0.3732
13618TIP3    H140797   4.872   0.233   2.654 -0.4852  0.3265  0.2420
13618TIP3    H240798   4.917   0.267   2.514  0.9127 -1.7489  0.1541
13619TIP3   OH240799   5.923   5.141   6.354  0.3781 -0.7334  0.3448
13619TIP3    H140800   5.904   5.067   6.411 -0.6604  0.3292  1.3993
13619TIP3    H240801   5.961   5.102   6.276 -1.6205 -2.5119  0.2298
13620TIP3   OH240802   3.867   1.145   2.166 -0.1952 -0.3799  0.0840
13620TIP3    H140803   3.818   1.187   2.095  0.9390  0.2272 -0.3437
13620TIP3    H240804   3.918   1.077   2.122  1.3922  0.7549  0.1464
13621TIP3   OH240805   6.371   1.350   0.365 -0.2031  0.8345 -0.3194
13621TIP3    H140806   6.409   1.300   0.293  0.3365  0.9109 -0.0837
13621TIP3    H240807   6.399   1.440   0.349  1.3080  0.5859  0.9187
13622TIP3   OH240808   2.020   6.680   1.408  0.9717 -0.1159  0.5007
13622TIP3    H140809   1.951   6.613   1.401  1.2225 -0.1504 -2.1375
13622TIP3    H240810   2.100   6.631   1.421  1.0071 -0.2725 -0.3066
13623TIP3   OH240811   7.725   7.510   3.696 -0.0667 -1.0907  0.1671
13623TIP3    H140812   7.649   7.471   3.652  0.2730 -1.0977 -0.4203
13623TIP3    H240813   7.801   7.470   3.653  0.3039  0.7227 -0.8989
13624TIP3   OH240814   4.308   0.328   0.478  0.1180  0.4532  0.2499
13624TIP3    H140815   4.230   0.319   0.532  0.9609  1.2234  1.6362
13624TIP3    H240816   4.379   0.344   0.541  1.2971  0.2852 -1.0149
13625TIP3   OH240817   2.706   1.788   1.807 -0.5859  0.0096  0.3848
13625TIP3    H140818   2.732   1.840   1.883  0.3383 -0.6199  0.5033
13625TIP3    H240819   2.741   1.701   1.824 -1.5872 -0.4926 -0.1100
13626TIP3   OH240820   5.803   3.818   6.484  0.1748 -0.0330  0.1039
13626TIP3    H140821   5.715   3.816   6.520  0.6062  1.4084  1.2956
13626TIP3    H240822   5.812   3.907   6.449  1.1809 -0.1541  0.0488
13627TIP3   OH240823   2.951   5.934   1.861  0.1050  0.3969 -0.3135
13627TIP3    H140824   3.028   5.951   1.915  0.8757 -1.1169 -0.9133
13627TIP3    H240825   2.882   5.911   1.924 -0.4906  3.7729  0.3863
13628TIP3   OH240826   7.825   6.496   1.470 -0.0597  0.3968 -0.2373
13628TIP3    H140827   7.737   6.515   1.436  0.6745 -0.2122 -2.5463
13628TIP3    H240828   7.866   6.582   1.480 -0.2784  0.5924 -0.9704
13629TIP3   OH240829   7.936   6.790   0.662 -0.2515 -0.4335  0.3612
13629TIP3    H140830   7.893   6.731   0.600 -0.2641 -0.2050  0.1552
13629TIP3    H240831   8.025   6.755   0.670 -0.0393 -0.0411 -0.3226
13630TIP3   OH240832   6.146   2.128   6.860  0.3908 -0.4450  0.0780
13630TIP3    H140833   6.208   2.165   6.923  0.2567 -0.1113  0.0181
13630TIP3    H240834   6.099   2.061   6.909  0.2470 -0.1462  0.3486
13631TIP3   OH240835   7.755   4.263   6.440  0.1426 -0.0595 -0.2493
13631TIP3    H140836   7.757   4.177   6.482  0.4259  0.4518  0.7928
13631TIP3    H240837   7.723   4.246   6.351  1.1445 -1.3768 -0.3693
13632TIP3   OH240838   5.347   3.202   0.986 -0.7041  0.2339 -0.1343
13632TIP3    H140839   5.385   3.286   0.960  0.6811 -0.4847 -0.4864
13632TIP3    H240840   5.267   3.195   0.933 -0.5840  1.1099 -0.4507
13633TIP3   OH240841   6.526   4.072   5.188  0.2752 -0.3616  0.1052
13633TIP3    H140842   6.450   4.017   5.207  0.7984 -1.5907 -1.2929
13633TIP3    H240843   6.488   4.157   5.166 -0.6403 -0.6619  0.4920
13634TIP3   OH240844   2.583   6.805   3.611 -0.0025  0.6219 -0.1208
13634TIP3    H140845   2.559   6.883   3.662 -1.1277 -0.5994  1.2487
13634TIP3    H240846   2.612   6.741   3.676 -4.2295 -2.0005 -0.6279
13635TIP3   OH240847   6.448   0.110   1.953  0.0526  0.3274  0.4231
13635TIP3    H140848   6.529   0.059   1.955  1.4313  2.3303 -1.8481
13635TIP3    H240849   6.392   0.063   1.891  1.3738  1.5831 -1.7743
13636TIP3   OH240850   4.141   0.219   1.629 -0.4728 -0.1980  0.1953
13636TIP3    H140851   4.090   0.217   1.549  0.9315  0.4502 -0.7424
13636TIP3    H240852   4.167   0.310   1.639  1.7908 -0.7416 -0.2240
13637TIP3   OH240853   0.615   3.674   6.220 -0.0671 -0.1363  0.1603
13637TIP3    H140854   0.592   3.603   6.280 -0.8600  0.0834  0.1210
13637TIP3    H240855   0.609   3.754   6.273 -1.6982  0.1541 -0.4450
13638TIP3   OH240856   5.901   0.099   1.404 -0.4113 -0.3474 -0.0621
13638TIP3    H140857   5.951   0.095   1.322 -0.3617 -0.6323 -0.0211
13638TIP3    H240858   5.882   0.007   1.425 -2.0733 -0.1819 -0.7532
13639TIP3   OH240859   1.086   3.462   5.585 -0.1355  0.2839 -0.7352
13639TIP3    H140860   1.139   3.483   5.662 -0.5350  3.3451 -1.2305
13639TIP3    H240861   1.122   3.517   5.515 -0.4587 -1.6601 -2.4868
13640TIP3   OH240862   3.412   1.433   0.253 -0.2960  0.0909  0.3000
13640TIP3    H140863   3.378   1.347   0.227 -0.7834  0.4923 -0.3865
13640TIP3    H240864   3.499   1.438   0.213 -1.1188  0.7863 -1.4362
13641TIP3   OH240865   8.231   0.998   6.171 -0.2575 -0.2663 -0.6473
13641TIP3    H140866   8.213   1.039   6.086 -1.2852 -0.4151 -0.5009
13641TIP3    H240867   8.324   1.017   6.187 -1.1189  3.5944  0.2650
13642TIP3   OH240868   5.206   1.601   0.923  0.1129 -0.2179  0.1430
13642TIP3    H140869   5.190   1.620   1.015 -0.1908 -1.5244  0.3678
13642TIP3    H240870   5.286   1.650   0.902  1.3456 -1.5292  1.6573
13643TIP3   OH240871   8.500   6.471   0.724 -0.0770 -0.4097 -0.0761
13643TIP3    H140872   8.414   6.492   0.759  0.4163 -0.0022  0.8986
13643TIP3    H240873   8.498   6.506   0.634 -0.2192  1.4064  0.6063
13644TIP3   OH240874   7.225   5.036   6.253 -0.2694 -0.0940 -0.2730
13644TIP3    H140875   7.234   4.973   6.182  0.9787 -0.1979 -0.0459
13644TIP3    H240876   7.270   5.114   6.222 -0.3293  0.0957  0.1129
13645TIP3   OH240877   2.546   7.687   1.724 -0.2983  0.2300 -0.4541
13645TIP3    H140878   2.589   7.685   1.809 -0.0812  0.3736 -0.5594
13645TIP3    H240879   2.559   7.777   1.693  2.4143 -0.6536 -2.0611
13646TIP3   OH240880   0.687   2.065   6.534  0.0577  0.0126 -0.5879
13646TIP3    H140881   0.661   2.009   6.606 -0.0336 -0.2843 -0.8484
13646TIP3    H240882   0.633   2.036   6.460  2.0073 -1.4708 -1.4801
13647TIP3   OH240883   1.109   8.020   1.421  0.1953 -0.3229 -0.3929
13647TIP3    H140884   1.139   7.960   1.489 -1.7547 -0.9957 -0.1026
13647TIP3    H240885   1.129   7.975   1.338  0.1333 -0.6900 -0.2088
13648TIP3   OH240886   0.632   4.147   6.016  0.1526 -0.2834 -0.1960
13648TIP3    H140887   0.559   4.209   6.007  0.9180  0.5110 -1.1293
13648TIP3    H240888   0.619   4.084   5.946  1.1239  0.6737 -1.2596
13649TIP3   OH240889   1.781   7.315   2.007 -0.7381  0.2887 -0.4170
13649TIP3    H140890   1.819   7.242   1.958  0.5751  1.3695 -1.0276
13649TIP3    H240891   1.765   7.278   2.094  2.4170 -0.0416  0.1011
13650TIP3   OH240892   5.261   1.148   1.490 -0.7461 -0.2375  0.4549
13650TIP3    H140893   5.268   1.067   1.541  0.3217 -1.5180 -1.6305
13650TIP3    H240894   5.214   1.122   1.410  0.3888  1.0077 -0.6427
13651TIP3   OH240895   4.143   0.480   2.121 -0.2930 -0.1137  0.4118
13651TIP3    H140896   4.101   0.513   2.041  0.2700 -1.6528 -0.5575
13651TIP3    H240897   4.117   0.541   2.189 -0.3291  1.5526 -1.0686
13652TIP3   OH240898   1.796   7.338   0.940  0.3434  0.3213  0.4193
13652TIP3    H140899   1.755   7.321   1.025 -0.8806 -0.8443 -0.3966
13652TIP3    H240900   1.847   7.259   0.922  3.1071  1.7619  1.4503
13653TIP3   OH240901   7.667   6.711   0.574 -0.5983  0.0827  0.2238
13653TIP3    H140902   7.653   6.723   0.668 -1.7128 -0.8094  0.1865
13653TIP3    H240903   7.616   6.633   0.553 -1.3733  0.9956 -1.3473
13654TIP3   OH240904   7.635   4.118   6.235  0.4262 -0.2661 -0.8771
13654TIP3    H140905   7.609   4.158   6.152  1.0003 -0.7243 -1.2764
13654TIP3    H240906   7.630   4.024   6.219  0.0922 -0.3607 -0.2515
13655TIP3   OH240907   7.290   7.495   1.418 -0.4849 -0.0299  0.5216
13655TIP3    H140908   7.275   7.498   1.323 -2.2551  0.1699  0.7859
13655TIP3    H240909   7.359   7.559   1.434 -0.2787  0.0416 -0.6205
13656TIP3   OH240910   7.482   7.646   0.098 -0.2699 -0.6179 -0.0086
13656TIP3    H140911   7.573   7.653   0.069 -0.3456 -0.6528 -0.2511
13656TIP3    H240912   7.434   7.614   0.022 -0.5423 -0.2772  0.0167
13657TIP3   OH240913   5.101   0.613   2.673  1.1105  0.0131  0.0029
13657TIP3    H140914   5.128   0.528   2.638 -1.1328 -1.1913  1.1393
13657TIP3    H240915   5.147   0.620   2.756 -1.0486 -1.4767  1.3474
13658TIP3   OH240916   4.150   0.012   1.786 -0.7250 -0.0884  0.4423
13658TIP3    H140917   4.169   0.087   1.731  0.5398  0.5204  1.6654
13658TIP3    H240918   4.199  -0.060   1.746 -0.9530  0.0227 -0.0356
13659TIP3   OH240919   8.108   3.680   6.703  0.0480 -0.6263  0.5148
13659TIP3    H140920   8.039   3.641   6.649 -1.7572  2.2272  0.6371
13659TIP3    H240921   8.172   3.712   6.639 -1.5935  1.8399  0.0234
13660TIP3   OH240922   1.765   7.121   0.069  0.0972  0.3144  0.1834
13660TIP3    H140923   1.824   7.195   0.053 -1.9229  1.9864  0.1964
13660TIP3    H240924   1.823   7.050   0.098  1.8720  2.5486  2.3570
13661TIP3   OH240925   5.627   1.744   0.040  0.3903  0.0453 -0.3195
13661TIP3    H140926   5.647   1.816  -0.020  0.8824  1.0969  1.0835
13661TIP3    H240927   5.692   1.676   0.019  1.1224  0.7620 -0.3932
13662TIP3   OH240928   7.953   7.347   0.815 -0.3288 -0.1175 -0.0669
13662TIP3    H140929   7.947   7.373   0.723 -0.8764  0.5049  0.1348
13662TIP3    H240930   7.926   7.425   0.864 -3.7476 -1.5789  0.5292
13663TIP3   OH240931   1.016   4.183   1.411 -0.2777  0.3221  0.4815
13663TIP3    H140932   1.070   4.186   1.490  0.9439 -0.9908 -0.2858
13663TIP3    H240933   1.029   4.095   1.376 -2.2616  0.2685 -0.1893
13664TIP3   OH240934   3.620   1.176   1.972  0.5549 -0.2616  0.0583
13664TIP3    H140935   3.604   1.084   1.993  0.8733 -0.2656  0.2793
13664TIP3    H240936   3.561   1.194   1.899  2.4645 -1.4430 -1.8697
13665TIP3   OH240937   1.415   6.083   0.840  0.0377  0.0394  0.6164
13665TIP3    H140938   1.412   5.990   0.815 -2.6439 -0.9512  4.1271
13665TIP3    H240939   1.499   6.093   0.885 -0.2372 -1.0658  1.4092
13666TIP3   OH240940   0.961   5.402   2.657 -0.4389  0.2278 -0.2770
13666TIP3    H140941   1.045   5.409   2.703 -0.1313 -0.5878 -0.6977
13666TIP3    H240942   0.977   5.442   2.572 -0.9075  1.4191  0.1872
13667TIP3   OH240943   8.282   4.248   6.037  0.1951  0.6268 -0.5456
13667TIP3    H140944   8.377   4.242   6.048 -0.0308 -2.1643  0.1523
13667TIP3    H240945   8.253   4.158   6.026 -2.4309  1.4272 -0.5575
13668TIP3   OH240946   5.961   3.358   6.262  0.3337 -0.2512  0.6872
13668TIP3    H140947   5.904   3.358   6.339 -0.5513 -1.7575  0.0427
13668TIP3    H240948   5.934   3.282   6.211  1.1109  0.5520 -0.9827
13669TIP3   OH240949   7.195   5.129   6.847  0.0382  0.0106 -0.0774
13669TIP3    H140950   7.227   5.123   6.936 -0.0402  0.5762 -0.0066
13669TIP3    H240951   7.130   5.200   6.850  0.2469  0.2298 -0.6381
13670TIP3   OH240952   0.670   6.592   2.201  0.4825 -0.3514 -0.2036
13670TIP3    H140953   0.610   6.559   2.134 -1.0823  0.1391  0.9187
13670TIP3    H240954   0.645   6.543   2.280  1.1097  0.3521  0.4256
13671TIP3   OH240955   4.246   0.583   2.532 -0.5922 -0.3719  0.2915
13671TIP3    H140956   4.273   0.494   2.511 -0.7466 -0.5008  0.6301
13671TIP3    H240957   4.327   0.628   2.556 -0.1417  0.2807 -2.2955
13672TIP3   OH240958   1.002   6.832   3.796  0.1209 -0.1066 -0.0030
13672TIP3    H140959   1.030   6.747   3.763 -1.1996  0.2124 -2.0678
13672TIP3    H240960   0.918   6.814   3.839  1.6730 -0.4595  2.9223
13673TIP3   OH240961   7.592   7.734   1.072 -1.3383 -0.4065  0.0710
13673TIP3    H140962   7.612   7.698   0.986 -1.1782  0.6600 -0.3494
13673TIP3    H240963   7.532   7.671   1.111 -1.5477 -0.8128 -0.8901
13674TIP3   OH240964   0.540   5.980   1.037 -0.0218 -0.1988 -0.1274
13674TIP3    H140965   0.580   5.899   1.005  0.2633 -0.7594  1.6138
13674TIP3    H240966   0.609   6.046   1.029  0.6425 -0.7476  1.0894
13675TIP3   OH240967   2.139   6.658   2.337  0.5354  0.1261 -0.0186
13675TIP3    H140968   2.195   6.611   2.399  0.2164  1.8506  1.6522
13675TIP3    H240969   2.050   6.644   2.369  0.3699  1.0387 -0.0622
13676TIP3   OH240970   5.366   0.463   0.721 -0.5167 -0.5594 -0.1573
13676TIP3    H140971   5.440   0.458   0.660 -0.0790 -4.0762  0.5372
13676TIP3    H240972   5.405   0.449   0.807 -1.0609  4.8220  1.1813
13677TIP3   OH240973   5.674   1.789   6.957  0.4592  1.1386  0.2338
13677TIP3    H140974   5.677   1.849   6.883  0.3959  0.8086 -0.0365
13677TIP3    H240975   5.645   1.706   6.920 -0.8807  1.3177  0.8721
13678TIP3   OH240976   0.856   6.698   2.832  0.6913  0.1635 -0.0654
13678TIP3    H140977   0.838   6.612   2.869  0.4858  0.0135 -0.5092
13678TIP3    H240978   0.837   6.689   2.739  0.3537  0.7789 -0.0655
13679TIP3   OH240979   7.337   3.519   6.690  0.0532  0.2235 -0.0493
13679TIP3    H140980   7.334   3.462   6.767 -1.3691 -0.5506 -0.6629
13679TIP3    H240981   7.278   3.591   6.711  2.1194  1.7123  0.8731
13680TIP3   OH240982   1.490   6.788   1.820 -0.0007  0.6010  0.2269
13680TIP3    H140983   1.520   6.874   1.849  0.6371  0.9798 -1.4831
13680TIP3    H240984   1.530   6.727   1.882  1.0659  1.4102  0.3535
13681TIP3   OH240985   3.370   6.487   0.132 -0.0497  0.7387  0.2892
13681TIP3    H140986   3.436   6.484   0.201 -1.2255 -1.4603  1.3797
13681TIP3    H240987   3.419   6.490   0.050  1.3668  2.5831  1.1759
13682TIP3   OH240988   2.216   6.703   1.122  0.1204  0.1312  0.6127
13682TIP3    H140989   2.208   6.681   1.215  0.9163  0.1293  0.6815
13682TIP3    H240990   2.310   6.711   1.107  0.0592 -0.8629 -0.4183
13683TIP3   OH240991   5.415   2.069   2.864  0.3986  0.1932 -0.0497
13683TIP3    H140992   5.386   2.157   2.889 -0.3701  0.4099 -1.6559
13683TIP3    H240993   5.388   2.013   2.937  0.6501  1.2434  0.8563
13684TIP3   OH240994   6.767   2.631   6.445 -0.1561  0.3892 -0.0842
13684TIP3    H140995   6.680   2.608   6.413  0.0059  0.8428 -0.8773
13684TIP3    H240996   6.752   2.669   6.531 -0.6658 -0.2388  0.1109
13685TIP3   OH240997   7.526   2.354   5.570 -0.0727  0.0812  0.0934
13685TIP3    H140998   7.591   2.384   5.633 -0.8539  0.7291  0.5937
13685TIP3    H240999   7.493   2.272   5.607  0.6083 -0.3628 -0.2702
13686TIP3   OH241000   8.390   5.346   6.469  0.0634  0.7806 -0.3039
13686TIP3    H141001   8.464   5.338   6.409 -0.1616 -0.0305 -0.4736
13686TIP3    H241002   8.334   5.413   6.430 -0.0914  0.2403 -1.0178
13687TIP3   OH241003   2.143   7.666   2.814  0.5211 -0.1326 -0.1212
13687TIP3    H141004   2.104   7.604   2.875 -0.2449  0.0873 -0.3790
13687TIP3    H241005   2.070   7.694   2.758  1.2186 -0.3611 -1.1555
13688TIP3   OH241006   6.920   1.201   1.076 -0.5003  1.0091  0.5482
13688TIP3    H141007   6.972   1.163   1.005  0.3935  0.8434  1.2785
13688TIP3    H241008   6.829   1.185   1.050 -0.1764  0.6693 -0.4018
13689TIP3   OH241009   7.772   3.370   6.536 -0.6651 -0.0399 -0.3658
13689TIP3    H141010   7.792   3.293   6.589 -0.4727  0.2877  0.0467
13689TIP3    H241011   7.702   3.342   6.477 -0.5367 -0.5514 -0.2726
13690TIP3   OH241012   4.714   0.398   0.313 -0.2651 -0.4008 -0.1354
13690TIP3    H141013   4.756   0.470   0.361  0.1670 -0.4596 -0.4226
13690TIP3    H241014   4.645   0.441   0.262 -0.2541 -0.2411 -0.0175
13691TIP3   OH241015   3.538   5.912   0.560  0.8296 -0.2195 -0.4357
13691TIP3    H141016   3.607   5.859   0.521  0.9967 -1.2944  1.2756
13691TIP3    H241017   3.549   5.900   0.654 -1.1771  0.2379 -0.1240
13692TIP3   OH241018   0.933   7.595   0.270  0.3098 -0.0605 -0.2640
13692TIP3    H141019   1.020   7.594   0.310  0.1113 -0.5817  0.1615
13692TIP3    H241020   0.883   7.530   0.319 -0.5581  0.8029  0.0246
13693TIP3   OH241021   0.427   5.959   0.541 -0.1673  0.5300  0.4428
13693TIP3    H141022   0.470   5.920   0.617  0.8637  0.6331 -0.0842
13693TIP3    H241023   0.447   5.900   0.469  1.1061  1.8311 -0.2899
13694TIP3   OH241024   6.709   4.306   5.687 -0.1958  0.6461 -0.1835
13694TIP3    H141025   6.636   4.345   5.735  0.3867  0.6729  0.6847
13694TIP3    H241026   6.772   4.377   5.677 -0.0681  0.4887 -0.4989
13695TIP3   OH241027   7.342   3.066   6.340 -0.1517 -0.2552 -0.3161
13695TIP3    H141028   7.400   3.013   6.285  2.0040  3.1431 -1.4567
13695TIP3    H241029   7.274   3.096   6.279  0.3989  0.8490 -0.3828
13696TIP3   OH241030   6.888   3.896   5.737 -0.2247  0.3055 -0.4570
13696TIP3    H141031   6.946   3.970   5.716  0.0550  0.1640 -0.1995
13696TIP3    H241032   6.894   3.888   5.832 -0.0765 -0.1926 -0.5044
13697TIP3   OH241033   6.274   1.854   0.869 -0.0651 -0.4495 -0.3457
13697TIP3    H141034   6.208   1.921   0.854 -0.4635 -0.5612  0.8445
13697TIP3    H241035   6.307   1.872   0.957 -1.4931 -2.9149  0.7504
13698TIP3   OH241036   8.192   4.133   6.286  0.0830 -0.8233  0.5892
13698TIP3    H141037   8.190   4.178   6.201  0.0199 -0.4218  0.7974
13698TIP3    H241038   8.285   4.126   6.307  0.0975 -0.8911  0.5011
13699TIP3   OH241039   5.409   1.197   1.792  0.5693  0.0518 -0.0555
13699TIP3    H141040   5.323   1.240   1.798  0.0090 -0.9128 -1.1141
13699TIP3    H241041   5.472   1.268   1.800 -0.3152  0.6782  1.5929
13700TIP3   OH241042   0.088   2.189   5.135  0.0218 -0.3150  0.3065
13700TIP3    H141043   0.090   2.284   5.148 -0.5426 -0.3597  0.7991
13700TIP3    H241044   0.171   2.168   5.094  0.5412  0.2787  1.0301
13701TIP3   OH241045   7.585   3.911   6.571  0.5156 -0.1177  0.3357
13701TIP3    H141046   7.553   3.837   6.519 -1.7795  0.7418  0.4943
13701TIP3    H241047   7.680   3.896   6.577  0.2878 -2.2689 -0.8407
13702TIP3   OH241048   2.937   6.750   0.017  0.3015  0.2910 -0.0745
13702TIP3    H141049   2.961   6.681   0.078 -0.6280  0.5480  0.5930
13702TIP3    H241050   2.842   6.759   0.026  0.4260  1.7637 -0.0218
13703TIP3   OH241051   1.436   6.712   1.117  0.3034 -0.1616  0.4206
13703TIP3    H141052   1.518   6.696   1.165 -0.5489 -0.7577  1.7050
13703TIP3    H241053   1.463   6.723   1.026  1.6235 -2.1344  0.5584
13704TIP3   OH241054   2.751   0.652   2.350 -0.2751 -0.6586 -0.2314
13704TIP3    H141055   2.775   0.727   2.404  3.2661 -1.2680 -0.8341
13704TIP3    H241056   2.747   0.579   2.412  1.5390 -0.9375 -0.4304
13705TIP3   OH241057   2.019   7.246   0.633  0.0475  0.3804  0.6784
13705TIP3    H141058   2.104   7.287   0.652 -0.3740  0.3410  2.7751
13705TIP3    H241059   2.034   7.153   0.648  0.5255 -0.0623 -2.3277
13706TIP3   OH241060   5.746   1.429   0.884 -0.1183  0.0818 -0.0367
13706TIP3    H141061   5.792   1.505   0.851  0.8680 -0.9733 -1.1377
13706TIP3    H241062   5.705   1.459   0.965 -2.6674  2.7170 -2.2235
13707TIP3   OH241063   5.718   2.017   0.900 -0.1775  0.2151  0.1532
13707TIP3    H141064   5.812   2.033   0.910 -0.2404  1.0614 -0.5637
13707TIP3    H241065   5.683   2.025   0.988  0.1049  2.0414  0.1129
13708TIP3   OH241066   4.957   1.289   0.818  0.1576 -0.1618  0.2322
13708TIP3    H141067   4.882   1.328   0.863  0.9612  0.4376  1.0884
13708TIP3    H241068   4.965   1.202   0.856 -1.6750 -1.1944 -1.7179
13709TIP3   OH241069   6.980   0.979   0.067  0.5555 -0.6656  0.4846
13709TIP3    H141070   7.056   0.923   0.058  0.7954 -0.3645  0.6084
13709TIP3    H241071   6.981   1.007   0.158  1.8274  1.4801 -0.1492
13710TIP3   OH241072   6.790   3.454   5.496 -0.1255 -0.4878 -0.0172
13710TIP3    H141073   6.825   3.537   5.529  2.3836 -1.8631  0.8819
13710TIP3    H241074   6.743   3.417   5.571  1.1414 -1.1640  0.4614
13711TIP3   OH241075   2.785   7.387   0.803  0.2086  0.1428  0.2818
13711TIP3    H141076   2.796   7.474   0.841 -1.3011  1.0047 -1.1863
13711TIP3    H241077   2.871   7.346   0.812  0.9798  1.8288  0.8687
13712TIP3   OH241078   3.255   7.662   1.557 -0.1208 -0.4490  0.1464
13712TIP3    H141079   3.213   7.651   1.642  0.0939 -2.0641  0.0722
13712TIP3    H241080   3.263   7.572   1.523  1.3726  0.0173 -0.7942
13713TIP3   OH241081   0.483   4.540   1.486  0.4107 -0.8602 -0.1425
13713TIP3    H141082   0.502   4.499   1.402 -1.5820 -2.2738  0.0454
13713TIP3    H241083   0.548   4.504   1.546  2.1151  0.4818 -1.1403
13714TIP3   OH241084   0.111   4.986   5.779 -0.6377 -0.0385 -1.2981
13714TIP3    H141085   0.083   5.054   5.840 -0.3893 -1.0583 -0.0445
13714TIP3    H241086   0.030   4.941   5.755 -0.4169 -1.3596  0.3699
13715TIP3   OH241087   1.433   5.770   0.946  0.1360 -0.2067  0.0095
13715TIP3    H141088   1.527   5.785   0.935 -0.0181  0.1371 -0.8451
13715TIP3    H241089   1.409   5.714   0.872 -0.8313  1.7949 -1.2364
13716TIP3   OH241090   3.095   2.466   0.159  0.4310 -0.1082 -0.6295
13716TIP3    H141091   3.115   2.540   0.217  0.7288 -0.6391 -0.0536
13716TIP3    H241092   3.030   2.415   0.207  1.0033 -0.7854 -0.5641
13717TIP3   OH241093   8.093   6.698   1.126  0.1771  0.1528  0.1311
13717TIP3    H141094   8.186   6.696   1.146  0.1317 -0.3562  0.2898
13717TIP3    H241095   8.084   6.644   1.047 -0.1104 -0.5484  0.6399
13718TIP3   OH241096   5.695   4.639   5.395  0.2807  0.2507 -0.1732
13718TIP3    H141097   5.720   4.695   5.322  1.3606  0.2390  0.1798
13718TIP3    H241098   5.649   4.566   5.354  1.9485 -0.3754 -0.9578
13719TIP3   OH241099   6.462   5.623   6.132  0.9663 -0.8869 -0.2435
13719TIP3    H141100   6.497   5.570   6.060 -0.8939 -1.9248 -0.4192
13719TIP3    H241101   6.416   5.560   6.187 -1.4178  0.5806 -0.5212
13720TIP3   OH241102   5.722   3.710   5.107 -0.0512  0.0911 -0.5916
13720TIP3    H141103   5.791   3.646   5.088 -0.7435 -0.0331 -2.7813
13720TIP3    H241104   5.756   3.793   5.073  0.1970  0.6055  0.8745
13721TIP3   OH241105   5.942   0.733   0.868  0.3338 -0.2489 -0.5605
13721TIP3    H141106   5.934   0.659   0.928 -0.8826  0.2883 -0.0601
13721TIP3    H241107   5.877   0.796   0.898  1.1319  0.8941 -1.1900
13722TIP3   OH241108   0.358   7.576   0.990 -0.1015 -0.3090  1.2432
13722TIP3    H141109   0.416   7.506   1.020 -1.0759 -0.8070  1.9899
13722TIP3    H241110   0.282   7.530   0.953 -0.5785  0.3523  1.3915
13723TIP3   OH241111   2.950   0.144   3.254  0.2916 -0.3885 -0.2576
13723TIP3    H141112   2.887   0.211   3.280  0.8564  0.2007 -0.3863
13723TIP3    H241113   2.913   0.062   3.288  0.3277  0.1772  1.1954
13724TIP3   OH241114   0.411   6.680   1.882 -0.2261 -0.3355 -0.1145
13724TIP3    H141115   0.401   6.622   1.957 -1.6125 -0.7763 -0.6219
13724TIP3    H241116   0.506   6.690   1.871 -0.0180 -0.4835  1.5113
13725TIP3   OH241117   8.023   1.418   4.166 -0.0506 -0.3268 -0.1555
13725TIP3    H141118   8.007   1.406   4.072 -0.6596 -1.7696  0.1240
13725TIP3    H241119   8.116   1.397   4.177  0.0867  0.1039 -0.4736
13726TIP3   OH241120   6.823   1.109   0.830  0.6196  0.3080 -0.2423
13726TIP3    H141121   6.872   1.139   0.753 -0.3458 -0.7061 -1.2678
13726TIP3    H241122   6.736   1.147   0.818  0.4456  0.0740  0.3071
13727TIP3   OH241123   0.147   5.986   0.755 -0.2961  0.0202 -0.0028
13727TIP3    H141124   0.159   6.015   0.846 -0.2017 -1.1983  0.3869
13727TIP3    H241125   0.217   6.029   0.707  0.8884 -0.9099  0.8672
13728TIP3   OH241126   7.249   6.588   0.666  0.1923 -0.2116 -0.1271
13728TIP3    H141127   7.334   6.548   0.646  0.5314  1.0193 -1.1948
13728TIP3    H241128   7.238   6.656   0.600 -0.4259  1.4131  1.6011
13729TIP3   OH241129   0.123   7.736   1.376 -0.3399 -0.0571  0.2537
13729TIP3    H141130   0.173   7.806   1.333 -1.3438  1.7165  1.9189
13729TIP3    H241131   0.034   7.745   1.341 -1.2378  1.5849  2.8078
13730TIP3   OH241132   1.732   7.494   1.494  0.3051 -0.7324 -0.1127
13730TIP3    H141133   1.818   7.513   1.531 -0.0863  0.8051  0.0491
13730TIP3    H241134   1.750   7.461   1.406  1.0670 -0.5923 -0.0128
13731TIP3   OH241135   5.869   0.534   1.048  0.3147 -0.4896  0.0285
13731TIP3    H141136   5.776   0.555   1.054  0.5461  0.2323  1.4891
13731TIP3    H241137   5.892   0.504   1.136  1.5357 -0.3484 -0.2346
13732TIP3   OH241138   6.685   6.108   6.738 -0.0581 -0.6997 -0.2218
13732TIP3    H141139   6.752   6.175   6.752  1.5240 -2.0006 -1.3637
13732TIP3    H241140   6.605   6.146   6.775  1.5587  0.3629  2.3500
13733TIP3   OH241141   6.959   0.325   1.649 -0.2314 -0.2445 -0.3422
13733TIP3    H141142   7.045   0.283   1.656 -0.8467 -1.1206  2.8289
13733TIP3    H241143   6.960   0.368   1.564  3.3744 -0.2160 -0.3513
13734TIP3   OH241144   1.010   4.303   5.880 -0.2525 -0.0789  0.3340
13734TIP3    H141145   0.959   4.275   5.955  0.1734  1.4578  1.2238
13734TIP3    H241146   1.098   4.267   5.896 -0.2660 -0.0978  0.3656
13735TIP3   OH241147   4.854   0.507   2.112  0.5374 -0.5523  0.8948
13735TIP3    H141148   4.764   0.493   2.082  0.8009 -0.8664  0.2532
13735TIP3    H241149   4.849   0.586   2.166  0.1649  0.4041 -0.5092
13736TIP3   OH241150   0.206   5.500   4.331  0.2718  0.9230 -0.1951
13736TIP3    H141151   0.185   5.467   4.243 -1.0613  0.8392  0.1466
13736TIP3    H241152   0.144   5.455   4.389  3.1098 -1.3222  1.2058
13737TIP3   OH241153   4.742   2.194   0.866 -0.1127 -0.0890 -0.5860
13737TIP3    H141154   4.777   2.107   0.884  0.0902  0.0436 -0.3293
13737TIP3    H241155   4.690   2.215   0.944 -1.2933 -0.5505 -1.2441
13738TIP3   OH241156   1.056   6.038   1.636 -0.2664  0.2053  0.2525
13738TIP3    H141157   1.149   6.057   1.647  0.3959 -1.0693 -2.6126
13738TIP3    H241158   1.023   6.111   1.583 -0.5648 -0.1169 -0.0049
13739TIP3   OH241159   7.138   2.821   5.838 -0.3036  0.8371 -0.1212
13739TIP3    H141160   7.194   2.751   5.803 -0.2738  1.0149 -0.4356
13739TIP3    H241161   7.115   2.792   5.926 -0.0011  0.5974 -0.1197
13740TIP3   OH241162   3.208   7.237   0.148 -0.3294  0.6364  0.5249
13740TIP3    H141163   3.282   7.287   0.183 -0.2384  0.0560  1.1816
13740TIP3    H241164   3.150   7.226   0.223 -0.5419  0.1106  0.2843
13741TIP3   OH241165   0.841   7.694   3.410 -0.6561 -0.7700 -0.1739
13741TIP3    H141166   0.906   7.732   3.352 -1.0095  0.2567  0.0912
13741TIP3    H241167   0.828   7.604   3.378  1.4360 -1.2318  0.2394
13742TIP3   OH241168   7.693   5.587   1.753 -0.4168  0.0270  0.1604
13742TIP3    H141169   7.675   5.634   1.672  0.3702 -0.4852 -0.3103
13742TIP3    H241170   7.764   5.635   1.794 -0.1205 -0.3138  0.0465
13743TIP3   OH241171   8.404   3.479   5.578 -0.0054  0.2355  0.0796
13743TIP3    H141172   8.396   3.574   5.589  1.3701  0.5923 -1.7460
13743TIP3    H241173   8.497   3.464   5.561 -0.2220 -1.4328  0.2855
13744TIP3   OH241174   0.366   6.652   0.668  0.0577 -0.3644 -0.3160
13744TIP3    H141175   0.325   6.649   0.582  0.7400  0.5313 -0.6838
13744TIP3    H241176   0.325   6.727   0.711  1.6909  0.8946 -0.9018
13745TIP3   OH241177   7.267   3.865   6.012  0.2612  0.0438 -0.7203
13745TIP3    H141178   7.216   3.842   5.934 -0.5553 -3.2791  0.7213
13745TIP3    H241179   7.203   3.905   6.071 -0.1496 -1.7446  0.0662
13746TIP3   OH241180   0.891   5.142   0.259  0.4430  0.2452 -0.2673
13746TIP3    H141181   0.884   5.052   0.290 -0.7613  0.0166 -1.1716
13746TIP3    H241182   0.868   5.196   0.335  1.1021 -0.1914  0.2560
13747TIP3   OH241183   0.579   3.766   6.588  0.1141  0.1006  0.0496
13747TIP3    H141184   0.558   3.819   6.665  0.9956 -0.4572  0.6869
13747TIP3    H241185   0.624   3.827   6.529 -2.4255  1.0710 -0.9499
13748TIP3   OH241186   7.669   7.481   1.209  0.5630  0.4904 -0.2635
13748TIP3    H141187   7.612   7.451   1.280  0.4667  0.0560 -0.5190
13748TIP3    H241188   7.689   7.572   1.230  0.3182  0.4419  0.1806
13749TIP3   OH241189   1.723   6.475   1.579  0.2306 -0.3086 -0.2511
13749TIP3    H141190   1.708   6.445   1.669 -0.9461  0.5254 -0.1550
13749TIP3    H241191   1.693   6.566   1.580 -2.2223 -1.0647 -2.1426
13750TIP3   OH241192   8.197   0.531   0.147  0.1629  0.0697  0.3220
13750TIP3    H141193   8.209   0.597   0.215  0.6283 -0.4834  0.7811
13750TIP3    H241194   8.265   0.466   0.165  1.0575  0.5213 -1.3903
13751TIP3   OH241195   6.437   4.991   5.485  0.2487 -0.3962  0.0200
13751TIP3    H141196   6.363   4.943   5.523 -0.7706  2.2939  1.5549
13751TIP3    H241197   6.419   4.992   5.391 -0.1572 -2.2570  0.0632
13752TIP3   OH241198   0.113   7.651   0.393  0.0784  0.2312  0.2339
13752TIP3    H141199   0.098   7.669   0.486  0.3789  0.1795  0.2924
13752TIP3    H241200   0.049   7.706   0.348  0.3967  0.7841  0.4475
13753TIP3   OH241201   1.947   6.199   6.853 -0.1562  0.7207  0.0205
13753TIP3    H141202   1.967   6.141   6.780  0.8898  1.7971 -0.5548
13753TIP3    H241203   1.873   6.252   6.822 -2.0623 -1.2563  1.0744
13754TIP3   OH241204   0.479   6.223   0.390  0.3321  0.4885 -0.3016
13754TIP3    H141205   0.462   6.146   0.443  1.8198 -1.2037 -2.1985
13754TIP3    H241206   0.532   6.280   0.446 -1.3563  0.4820  1.3542
13755TIP3   OH241207   2.282   7.295   0.477  0.5769 -0.3091  0.2669
13755TIP3    H141208   2.267   7.206   0.444 -2.5012  1.2741 -2.9001
13755TIP3    H241209   2.364   7.322   0.436 -1.3271  0.2715 -3.3049
13756TIP3   OH241210   0.902   7.636   1.086 -0.0930 -0.4477 -0.0998
13756TIP3    H141211   0.898   7.730   1.102  0.2443 -0.2207 -1.3181
13756TIP3    H241212   0.995   7.614   1.092 -0.1050 -0.5952 -0.4580
13757TIP3   OH241213   6.815   3.466   5.944 -0.1499 -0.2499 -0.2836
13757TIP3    H141214   6.799   3.383   5.990  0.0602 -0.7638 -1.1328
13757TIP3    H241215   6.886   3.446   5.883  0.3713  0.7371 -0.0133
13758TIP3   OH241216   1.476   7.032   1.996  0.4428  0.0220  0.3254
13758TIP3    H141217   1.461   7.123   2.024  0.4129 -0.4582  1.8857
13758TIP3    H241218   1.422   6.979   2.055  2.2464 -1.1789  0.9326
13759TIP3   OH241219   0.898   5.214   2.087  0.6078 -0.0601  0.3550
13759TIP3    H141220   0.936   5.267   2.018 -1.1973 -2.4465 -2.6147
13759TIP3    H241221   0.804   5.218   2.072  0.3756 -3.5137  0.3692
13760TIP3   OH241222   0.245   1.995   4.655 -0.0939  0.0028 -0.0487
13760TIP3    H141223   0.149   1.989   4.652  0.0076 -1.9309 -0.5526
13760TIP3    H241224   0.275   1.913   4.615  1.7798  0.7809 -0.2780
13761TIP3   OH241225   6.981   3.966   6.950 -0.3431 -0.2253  0.4242
13761TIP3    H141226   6.908   3.971   6.888  1.5545  0.5705 -1.8705
13761TIP3    H241227   7.019   3.879   6.937  0.6128  0.2710 -0.2534
13762TIP3   OH241228   3.109   7.051   1.782  0.2967  0.0526 -0.3495
13762TIP3    H141229   3.121   6.970   1.831 -1.3278  2.2708  3.9310
13762TIP3    H241230   3.184   7.105   1.807  1.8731 -0.3109 -3.8801
13763TIP3   OH241231   0.466   5.571   0.931  0.4023 -0.0486 -0.0577
13763TIP3    H141232   0.457   5.490   0.981  1.0775  0.2666  0.5787
13763TIP3    H241233   0.383   5.580   0.884  0.2464 -0.9952  0.0334
13764TIP3   OH241234   0.552   3.001   6.774  0.1633 -0.7750 -0.1940
13764TIP3    H141235   0.592   2.972   6.856  1.0777 -2.6467 -1.2527
13764TIP3    H241236   0.576   3.093   6.767 -1.2737 -0.1464  2.3903
13765TIP3   OH241237   0.596   5.626   6.832  0.0740  0.0668  0.6774
13765TIP3    H141238   0.512   5.583   6.816  0.4577 -0.4393  0.0157
13765TIP3    H241239   0.632   5.643   6.745  0.0043  1.5941  0.9292
13766TIP3   OH241240   8.226   4.748   6.822 -0.1366  0.2491 -0.3285
13766TIP3    H141241   8.197   4.772   6.910  1.8793  0.5889  0.2615
13766TIP3    H241242   8.150   4.765   6.766 -0.9762  1.4015  1.1393
13767TIP3   OH241243   6.107   0.109   0.294 -0.3541 -0.4989 -0.1601
13767TIP3    H141244   6.105   0.123   0.389 -0.8968 -0.8939 -0.1146
13767TIP3    H241245   6.175   0.168   0.263 -0.0762 -0.4687  0.4963
13768TIP3   OH241246   3.881   1.263   0.543  0.1503  0.5886 -0.2854
13768TIP3    H141247   3.834   1.342   0.516 -0.6391  0.1528 -0.1979
13768TIP3    H241248   3.855   1.251   0.635 -1.6819 -1.1835 -1.0291
13769TIP3   OH241249   8.265   2.198   6.282 -0.1588 -0.6704 -0.6625
13769TIP3    H141250   8.318   2.173   6.206  0.8907  1.5565 -0.6787
13769TIP3    H241251   8.256   2.117   6.332  0.4847 -1.8049 -2.3453
13770TIP3   OH241252   1.377   5.622   4.829 -0.4277  0.3455 -0.0792
13770TIP3    H141253   1.308   5.632   4.895 -1.0003 -0.9932 -0.4520
13770TIP3    H241254   1.331   5.594   4.750  0.3573  1.0998 -0.8062
13771TIP3   OH241255   8.221   5.207   6.957 -0.1865  0.1231 -0.8724
13771TIP3    H141256   8.163   5.237   6.886  0.7559 -0.9845 -2.1391
13771TIP3    H241257   8.274   5.138   6.917  0.1185 -0.7730  1.0334
13772TIP3   OH241258   6.059   1.307   0.539  0.3829  0.1907  0.2330
13772TIP3    H141259   6.058   1.211   0.543  0.2086  0.1906  0.1821
13772TIP3    H241260   5.979   1.334   0.584  0.2359  0.3014 -0.0941
13773TIP3   OH241261   0.816   1.139   5.567  0.3006  0.3835 -0.2781
13773TIP3    H141262   0.797   1.209   5.504 -0.5215 -0.4174 -0.9317
13773TIP3    H241263   0.889   1.172   5.619  1.7539  0.5785 -2.4196
13774TIP3   OH241264   1.886   6.679   0.143  0.2076  0.2674  0.9690
13774TIP3    H141265   1.977   6.706   0.132 -0.1802  1.0286 -0.4830
13774TIP3    H241266   1.868   6.622   0.068 -0.9596  1.3339  0.4262
13775TIP3   OH241267   0.359   2.331   6.168 -0.4355  0.0521 -0.4416
13775TIP3    H141268   0.357   2.417   6.126  0.3101  0.0095 -0.5711
13775TIP3    H241269   0.448   2.299   6.152 -1.2456 -1.5155 -1.9363
13776TIP3   OH241270   0.952   2.313   5.373  0.0445 -0.7795 -0.5269
13776TIP3    H141271   0.914   2.380   5.316 -1.5039 -0.6386  0.6441
13776TIP3    H241272   0.894   2.238   5.363 -0.7212 -0.4733  1.4871
13777TIP3   OH241273   6.471   0.858   0.016 -0.5240  0.0420  0.5445
13777TIP3    H141274   6.406   0.810   0.068  0.6878 -1.0547  1.0925
13777TIP3    H241275   6.546   0.866   0.075  0.4793 -0.2841 -0.6902
13778TIP3   OH241276   2.268   2.562   6.230 -0.3265 -0.2303  0.0457
13778TIP3    H141277   2.344   2.620   6.221 -1.9519  1.9782  0.3484
13778TIP3    H241278   2.271   2.532   6.321 -0.6352  1.0491  0.4925
13779TIP3   OH241279   4.046   7.701   0.237  0.3783 -0.5607 -0.0140
13779TIP3    H141280   4.130   7.670   0.205  0.7452  0.1099  0.2841
13779TIP3    H241281   4.068   7.759   0.310 -0.2250  1.2630 -1.2439
13780TIP3   OH241282   1.116   3.242   6.341  0.2295 -0.4859 -0.3573
13780TIP3    H141283   1.191   3.186   6.323  1.5248  0.3360  2.2716
13780TIP3    H241284   1.112   3.247   6.436 -2.0063  1.0569 -0.4906
13781TIP3   OH241285   2.476   3.283   6.789 -0.0923 -0.0517  0.0880
13781TIP3    H141286   2.499   3.190   6.784 -0.8746 -0.4026  2.2537
13781TIP3    H241287   2.394   3.290   6.740  0.5271 -0.2788 -1.0054
13782TIP3   OH241288   2.232   3.836   5.279 -0.0942  0.0757  0.1635
13782TIP3    H141289   2.281   3.783   5.216  1.1627  0.0758  1.1216
13782TIP3    H241290   2.177   3.773   5.325 -1.4265  0.1462 -1.2762
13783TIP3   OH241291   2.536   2.472   4.769  0.0688  0.1390 -0.0593
13783TIP3    H141292   2.600   2.408   4.738  0.2114 -0.6604  1.8188
13783TIP3    H241293   2.576   2.509   4.847 -1.9623 -0.7404  1.4404
13784TIP3   OH241294   5.940   1.824   0.169 -0.0321 -0.3660 -0.2699
13784TIP3    H141295   5.976   1.801   0.083 -0.7830 -0.3475 -0.5914
13784TIP3    H241296   5.904   1.742   0.203  0.9198 -0.5397  0.3586
13785TIP3   OH241297   1.192   3.145   4.466  0.3326 -0.0187 -0.2814
13785TIP3    H141298   1.109   3.147   4.513  0.4511  4.3457 -0.0727
13785TIP3    H241299   1.253   3.103   4.526 -1.1981 -1.2408  0.4416
13786TIP3   OH241300   4.579   1.322   0.498  0.6887 -0.3402 -0.3816
13786TIP3    H141301   4.659   1.269   0.492  0.5092 -0.6680  0.0556
13786TIP3    H241302   4.562   1.349   0.408  3.0136  2.3307 -0.0830
13787TIP3   OH241303   6.855   0.255   1.106  0.7088  0.3537  0.0774
13787TIP3    H141304   6.856   0.348   1.130 -1.5616  0.9241 -1.9046
13787TIP3    H241305   6.848   0.209   1.189 -0.1026  2.0134  0.9506
13788TIP3   OH241306   5.907   2.289   5.970 -0.2601 -0.3830  0.5958
13788TIP3    H141307   5.866   2.375   5.984  0.1180 -0.2146  0.6877
13788TIP3    H241308   5.887   2.267   5.879  1.0912  0.5969  0.0337
13789TIP3   OH241309   5.218   1.089   0.508 -0.4425  0.0856 -0.1282
13789TIP3    H141310   5.180   1.150   0.445  0.4468 -0.2187 -0.9834
13789TIP3    H241311   5.143   1.046   0.548 -1.0948  1.9542  0.7153
13790TIP3   OH241312   6.022   1.021   0.491  0.4633 -0.4576  0.0494
13790TIP3    H141313   6.039   0.989   0.580  2.1916 -1.8561 -0.7475
13790TIP3    H241314   5.931   0.997   0.474  0.1425 -0.2552  1.3951
13791TIP3   OH241315   7.246   3.121   4.888  0.0134 -0.2658 -0.5110
13791TIP3    H141316   7.190   3.044   4.894  0.1014 -0.2865  0.0483
13791TIP3    H241317   7.246   3.143   4.795 -1.2958  0.0109 -0.4576
13792TIP3   OH241318   1.204   3.011   3.612  0.3777 -0.2336  0.2097
13792TIP3    H141319   1.119   3.005   3.568  0.2971  1.4397  0.1048
13792TIP3    H241320   1.263   2.957   3.558 -0.5477 -1.1499  0.1115
13793TIP3   OH241321   1.092   4.597   6.732 -0.3170 -0.9862  0.3959
13793TIP3    H141322   1.025   4.603   6.801 -2.2369 -0.1865 -1.4772
13793TIP3    H241323   1.075   4.512   6.690  1.1125 -1.6604  1.1407
13794TIP3   OH241324   1.747   3.611   5.853 -0.4628  0.8218  0.6534
13794TIP3    H141325   1.774   3.519   5.859 -0.1875  0.8985  0.5669
13794TIP3    H241326   1.684   3.622   5.925 -1.5042  0.2110 -0.1471
13795TIP3   OH241327   0.491   5.137   4.967 -0.3925  0.4840  0.2131
13795TIP3    H141328   0.502   5.062   5.025 -1.2098  1.9647  2.3693
13795TIP3    H241329   0.580   5.172   4.955 -0.3201  0.7337  1.4017
13796TIP3   OH241330   4.855   0.629   0.390  0.0572 -0.0853 -0.1070
13796TIP3    H141331   4.949   0.645   0.394  0.3402 -2.0023  1.0818
13796TIP3    H241332   4.827   0.673   0.310  1.7079  1.7235  0.2725
13797TIP3   OH241333   0.569   4.720   4.498 -0.6670 -0.6806 -0.3023
13797TIP3    H141334   0.545   4.793   4.554  0.6106 -1.0904  0.8232
13797TIP3    H241335   0.665   4.719   4.499 -0.6509 -1.6051 -1.2954
13798TIP3   OH241336   7.414   5.442   6.808  0.3174  0.7031  0.1226
13798TIP3    H141337   7.443   5.479   6.891 -0.4897 -0.4820  0.9573
13798TIP3    H241338   7.470   5.366   6.794  1.0662  1.4433 -0.8865
13799TIP3   OH241339   0.810   1.421   6.570 -0.1137 -0.0346  0.1580
13799TIP3    H141340   0.744   1.481   6.605 -0.2572  0.1212 -0.3706
13799TIP3    H241341   0.855   1.387   6.647 -2.1953 -1.7562  0.6280
13800TIP3   OH241342   8.446   6.163   0.255  0.6878  0.6042  0.7407
13800TIP3    H141343   8.505   6.149   0.330  1.4394  1.5258  0.3340
13800TIP3    H241344   8.505   6.171   0.180 -0.1265 -1.7721 -0.2024
13801TIP3   OH241345   7.214   1.401   0.069  0.2841  0.2808 -0.2878
13801TIP3    H141346   7.261   1.395   0.152 -0.3499 -2.8813 -0.1292
13801TIP3    H241347   7.276   1.369   0.004  0.5397  2.1222 -0.9983
13802TIP3   OH241348   0.315   5.914   6.830  0.1201  0.0069  0.3510
13802TIP3    H141349   0.347   5.899   6.741  0.0380 -0.1691  0.3515
13802TIP3    H241350   0.392   5.945   6.878 -0.0916  1.2251 -0.0644
13803TIP3   OH241351   6.275   1.641   4.674 -0.0993 -0.0054  0.5833
13803TIP3    H141352   6.304   1.550   4.668  0.7680  0.3647 -1.6007
13803TIP3    H241353   6.323   1.676   4.749 -0.4932 -1.3426  1.4880
13804TIP3   OH241354   3.185   7.863   0.172 -0.3414 -0.9873 -0.1160
13804TIP3    H141355   3.192   7.944   0.222  1.0114 -0.6922 -0.7370
13804TIP3    H241356   3.116   7.880   0.108  0.6799  0.1194 -0.9767
13805TIP3   OH241357   1.563   3.701   1.623 -0.7886  0.2739  0.4206
13805TIP3    H141358   1.499   3.730   1.689  0.3221  0.4751  1.4323
13805TIP3    H241359   1.574   3.777   1.566 -1.5594  0.1931  0.1670
13806TIP3   OH241360   0.059   2.810   1.953  0.0639  0.0779 -0.4523
13806TIP3    H141361  -0.030   2.843   1.966 -1.0047 -2.1053 -1.8807
13806TIP3    H241362   0.091   2.793   2.041  0.0847  3.3356  0.2296
13807TIP3   OH241363   1.042   0.612   2.205 -0.2524 -0.7876  0.5405
13807TIP3    H141364   0.974   0.654   2.258  0.7554  1.2073  0.2939
13807TIP3    H241365   1.053   0.526   2.245 -1.2252 -0.2256  2.0764
13808TIP3   OH241366   0.965   2.598   1.436  0.1564 -0.1247 -0.2608
13808TIP3    H141367   0.901   2.542   1.479  0.8872 -1.5660 -1.0275
13808TIP3    H241368   0.932   2.608   1.347  0.1726  0.4563 -0.2069
13809TIP3   OH241369   8.379   0.444   2.281 -0.0943 -0.1260 -0.1237
13809TIP3    H141370   8.361   0.522   2.229 -0.9099 -0.0658  0.2401
13809TIP3    H241371   8.449   0.398   2.233  1.0111  1.2698  0.1348
13810TIP3   OH241372   7.731   1.378   2.730  0.4303  0.5015 -0.0599
13810TIP3    H141373   7.748   1.389   2.637  0.5765  1.1512  0.0436
13810TIP3    H241374   7.722   1.283   2.742  0.4464  0.4178 -0.7249
13811TIP3   OH241375   3.687   7.634   2.651  0.1908 -0.3005 -0.2125
13811TIP3    H141376   3.734   7.715   2.631 -0.0844 -0.1543 -0.2688
13811TIP3    H241377   3.681   7.632   2.746 -2.6248  1.3662 -0.3273
13812TIP3   OH241378   7.337   1.922   1.232 -0.1022 -0.3267 -0.1282
13812TIP3    H141379   7.367   2.008   1.260 -0.2378 -0.5464  0.7070
13812TIP3    H241380   7.275   1.895   1.299 -2.0572  0.0545 -1.7334
13813TIP3   OH241381   8.111   1.249   0.789 -0.6869 -0.0664  0.0351
13813TIP3    H141382   8.037   1.246   0.849  1.0242  1.8148  2.3434
13813TIP3    H241383   8.151   1.163   0.796 -0.5237  0.1187  1.6143
13814TIP3   OH241384   0.940   2.509   0.702 -0.5061 -0.1535 -0.4246
13814TIP3    H141385   1.018   2.554   0.736  0.3265 -1.1294 -1.0330
13814TIP3    H241386   0.962   2.416   0.708 -0.9661 -0.3816 -2.1580
13815TIP3   OH241387   7.344   0.671   1.433  0.1423 -0.1061  0.0511
13815TIP3    H141388   7.387   0.754   1.454 -2.5377  1.2408  0.4027
13815TIP3    H241389   7.292   0.651   1.510 -2.6199  0.1387 -1.7064
13816TIP3   OH241390   0.933   1.455   0.558  0.2109  0.0741  0.0466
13816TIP3    H141391   0.928   1.360   0.561  0.7456  0.0040 -1.0279
13816TIP3    H241392   1.027   1.474   0.566  0.2614  0.4380 -1.2264
13817TIP3   OH241393   7.193   0.759   2.899 -0.0318 -0.0682  0.0002
13817TIP3    H141394   7.236   0.712   2.826 -1.0641 -0.6899 -0.2184
13817TIP3    H241395   7.263   0.811   2.938  1.1185 -1.6739  0.1377
13818TIP3   OH241396   7.415   0.898   0.914  0.4413  0.3075 -0.2484
13818TIP3    H141397   7.418   0.848   0.995  1.8216  1.6301  0.5368
13818TIP3    H241398   7.468   0.847   0.853  1.2557  0.4574  0.3360
13819TIP3   OH241399   6.312   0.293   0.199  0.6195  0.2716  0.1155
13819TIP3    H141400   6.344   0.359   0.138 -1.5215  0.6033 -0.7039
13819TIP3    H241401   6.297   0.341   0.281 -0.8050  0.7947 -0.4394
13820TIP3   OH241402   0.189   5.166   6.231  0.2224  0.1257  0.8982
13820TIP3    H141403   0.168   5.252   6.195  1.7958 -0.1892 -0.8148
13820TIP3    H241404   0.284   5.166   6.240  0.3574 -1.8476 -0.2403
13821TIP3   OH241405   5.392   0.361   1.923  0.1210  0.4705 -0.6061
13821TIP3    H141406   5.460   0.358   1.990  0.0373  1.3990 -0.4766
13821TIP3    H241407   5.435   0.330   1.844  0.3397 -0.1988 -0.2313
13822TIP3   OH241408   5.289   1.465   1.741  0.1250  0.1958 -0.1493
13822TIP3    H141409   5.346   1.536   1.712  1.4910 -0.3762  1.1070
13822TIP3    H241410   5.221   1.461   1.674  1.3289  1.1355 -1.4644
13823TIP3   OH241411   5.867   7.524   0.545  0.1559 -0.5738 -0.1951
13823TIP3    H141412   5.864   7.596   0.608 -1.3230 -0.2570 -0.6098
13823TIP3    H241413   5.951   7.534   0.501  1.5023 -1.1762  2.1497
13824TIP3   OH241414   6.315   1.294   0.624  0.4603  0.2125 -0.1701
13824TIP3    H141415   6.222   1.312   0.612  0.1329 -1.5547 -0.3974
13824TIP3    H241416   6.356   1.325   0.543 -0.0913 -0.1222 -0.5790
13825TIP3   OH241417   5.588   6.670   1.643 -0.1189 -0.2040 -0.4601
13825TIP3    H141418   5.665   6.686   1.589 -0.1913 -2.9322 -1.4379
13825TIP3    H241419   5.566   6.578   1.628 -1.8506 -0.2604  2.0235
13826TIP3   OH241420   6.206   0.762   0.141  0.2610  0.4122  0.0702
13826TIP3    H141421   6.171   0.849   0.158 -0.1022  0.0478  1.2270
13826TIP3    H241422   6.177   0.709   0.216 -0.4670 -0.9708 -1.1542
13827TIP3   OH241423   7.689   1.504   2.972  0.1439  0.6466  0.3523
13827TIP3    H141424   7.725   1.473   2.888 -1.4705 -0.9279  0.2343
13827TIP3    H241425   7.763   1.497   3.033  0.7445 -0.1935 -0.4503
13828TIP3   OH241426   4.176   3.927   6.820  0.2023  0.0798  0.0200
13828TIP3    H141427   4.163   3.882   6.737 -0.9539 -0.1174  0.3003
13828TIP3    H241428   4.102   3.988   6.826 -0.3159 -0.6546  1.3886
13829TIP3   OH241429   0.229   4.016   5.806  0.5606 -0.6964 -0.3310
13829TIP3    H141430   0.196   4.056   5.726  1.5168 -0.4840 -0.6303
13829TIP3    H241431   0.198   4.073   5.876 -0.7406 -1.1838 -0.4979
13830TIP3   OH241432   0.107   0.005   0.822  0.1404 -0.4186  0.1595
13830TIP3    H141433   0.073   0.047   0.743  0.9742 -1.0986 -0.5602
13830TIP3    H241434   0.095   0.071   0.890 -2.2668 -0.5051 -0.1531
13831TIP3   OH241435   4.064   7.329   2.162  0.1260  0.1801 -0.0805
13831TIP3    H141436   4.051   7.279   2.082 -0.4779  1.3434 -0.7324
13831TIP3    H241437   4.027   7.275   2.231  1.1513 -1.0754 -0.5037
13832TIP3   OH241438   7.074   0.773   1.992 -0.1359  0.3264  0.4184
13832TIP3    H141439   7.059   0.857   2.035  0.0701  0.5797  0.0074
13832TIP3    H241440   7.089   0.796   1.900  0.4768 -0.1057  0.4046
13833TIP3   OH241441   7.760   2.204   0.622 -0.1505 -0.1670  0.3382
13833TIP3    H141442   7.671   2.170   0.625  0.0884 -0.8314  0.0910
13833TIP3    H241443   7.814   2.129   0.649  0.5145 -0.4595 -1.7575
13834TIP3   OH241444   0.889   2.623   1.152  0.2783 -0.1207  0.3337
13834TIP3    H141445   0.915   2.554   1.092  0.8545  0.9837 -0.7080
13834TIP3    H241446   0.944   2.698   1.128 -0.7306  0.8759  1.0775
13835TIP3   OH241447   0.460   1.733   0.501  0.0093  0.1466  0.0892
13835TIP3    H141448   0.466   1.823   0.470 -1.1931  0.0042 -0.5675
13835TIP3    H241449   0.546   1.696   0.482  0.3671  1.0252 -0.0328
13836TIP3   OH241450   0.244   0.901   1.645  0.0788 -0.0731 -0.3677
13836TIP3    H141451   0.225   0.807   1.643 -1.5315  0.2234  0.0579
13836TIP3    H241452   0.314   0.910   1.709 -0.0571 -0.9327 -0.0931
13837TIP3   OH241453   8.460   0.901   1.009  0.0446  0.0619  0.2238
13837TIP3    H141454   8.512   0.908   1.089  0.9980  0.6919 -0.4343
13837TIP3    H241455   8.444   0.807   0.999  2.2387 -0.2956 -0.2771
13838TIP3   OH241456   0.601   2.085   0.143 -0.1875 -0.0690  1.1769
13838TIP3    H141457   0.511   2.117   0.132  0.0574  0.5885  1.0755
13838TIP3    H241458   0.654   2.164   0.146  0.6566 -0.5040 -1.1867
13839TIP3   OH241459   1.163   1.786   0.690  0.6174 -0.5332 -0.0641
13839TIP3    H141460   1.100   1.841   0.644  0.2526 -1.4014 -0.6192
13839TIP3    H241461   1.108   1.724   0.739  0.9918  0.3332  1.5054
13840TIP3   OH241462   2.955   4.321   6.674  0.8063  0.2089  0.1536
13840TIP3    H141463   2.968   4.289   6.763  0.0955  1.3728  0.6928
13840TIP3    H241464   2.960   4.243   6.619 -2.1874 -1.0365  1.5465
13841TIP3   OH241465   1.744   2.983   6.116  0.1639  0.2724  0.1984
13841TIP3    H141466   1.668   3.020   6.072  1.7180  1.0453 -1.8817
13841TIP3    H241467   1.707   2.938   6.193 -2.4861 -0.2085 -1.2812
13842TIP3   OH241468   2.018   3.858   0.618  0.5594  0.5429  0.5455
13842TIP3    H141469   2.053   3.825   0.536 -1.1118  1.4698 -0.5716
13842TIP3    H241470   2.073   3.932   0.640  0.8514  0.4502  0.1234
13843TIP3   OH241471   6.676   7.563   0.666 -0.0303  0.2534  0.2026
13843TIP3    H141472   6.689   7.644   0.617 -1.6254  0.8642  0.7347
13843TIP3    H241473   6.732   7.571   0.742  0.6997  0.3376 -0.3407
13844TIP3   OH241474   0.421   0.478   2.274  0.0387  0.0855  0.2191
13844TIP3    H141475   0.413   0.468   2.180 -2.7938 -1.7071  0.5866
13844TIP3    H241476   0.374   0.558   2.294  2.1650  1.4347 -0.0521
13845TIP3   OH241477   2.231   0.892   1.975 -0.1877 -0.3092 -0.5137
13845TIP3    H141478   2.242   0.823   2.041  0.1146  1.3636  1.2438
13845TIP3    H241479   2.317   0.902   1.935 -0.0608 -0.4903 -0.2848
13846TIP3   OH241480   0.390   1.394   3.268 -0.3765 -0.0807 -0.7626
13846TIP3    H141481   0.394   1.480   3.309  0.1747 -1.0865  1.3512
13846TIP3    H241482   0.342   1.408   3.186  0.1923  2.3191 -0.7080
13847TIP3   OH241483   2.277   0.512   2.455 -0.6388  0.6664  0.0481
13847TIP3    H141484   2.233   0.477   2.533 -1.3919 -0.3781 -0.8411
13847TIP3    H241485   2.230   0.593   2.435 -1.0035  0.4812  0.1589
13848TIP3   OH241486   7.779   1.318   0.512  0.4844 -0.0188 -0.4368
13848TIP3    H141487   7.713   1.295   0.577  1.1644 -0.8878 -0.0482
13848TIP3    H241488   7.795   1.237   0.463  0.2504  0.5360 -1.4389
13849TIP3   OH241489   5.408   6.126   6.776 -0.3752 -0.6129  0.7308
13849TIP3    H141490   5.432   6.197   6.836  0.4430 -0.0129 -0.2988
13849TIP3    H241491   5.369   6.060   6.833 -1.5560  0.8259  1.6577
13850TIP3   OH241492   4.310   4.353   6.885 -0.0372  0.3338 -0.1214
13850TIP3    H141493   4.330   4.405   6.962  0.1380  0.5614 -0.3214
13850TIP3    H241494   4.240   4.401   6.841 -1.5133 -0.7882  0.9233
13851TIP3   OH241495   1.319   2.810   2.565 -0.1033  0.2811  0.2646
13851TIP3    H141496   1.298   2.898   2.595 -1.3960  0.0962 -0.0724
13851TIP3    H241497   1.281   2.805   2.477  1.7222  0.0688 -0.5245
13852TIP3   OH241498   0.161   2.528   2.144 -0.4262  0.2758 -0.0970
13852TIP3    H141499   0.231   2.465   2.164  0.8667  1.6093 -0.3062
13852TIP3    H241500   0.197   2.613   2.170 -1.8045  1.0438 -0.6413
13853TIP3   OH241501   0.384   1.067   0.289 -0.0509  0.3473 -0.5831
13853TIP3    H141502   0.464   1.119   0.280 -0.3739  1.1520  1.0115
13853TIP3    H241503   0.313   1.130   0.281 -0.4924 -0.1160 -0.3650
13854TIP3   OH241504   8.196   0.146   0.612 -0.1744 -0.8231 -0.3032
13854TIP3    H141505   8.132   0.105   0.553 -0.5777 -0.6854  0.0419
13854TIP3    H241506   8.200   0.088   0.688  0.4249 -1.0543 -0.5068
13855TIP3   OH241507   1.342   1.462   1.945 -0.4105  0.2197 -0.5734
13855TIP3    H141508   1.293   1.393   1.990  1.4310 -1.6570 -1.3695
13855TIP3    H241509   1.316   1.453   1.853 -0.5576  0.9477 -0.6070
13856TIP3   OH241510   0.987   1.743   1.197  0.9034 -0.1238 -0.4304
13856TIP3    H141511   1.057   1.768   1.137 -0.5099 -0.2688 -2.1884
13856TIP3    H241512   0.910   1.733   1.141 -0.4036 -0.4933  1.3855
13857TIP3   OH241513   2.107   3.357   2.350  0.4346 -0.6397  0.0952
13857TIP3    H141514   2.108   3.453   2.344 -2.1659 -0.5430  0.6085
13857TIP3    H241515   2.143   3.338   2.436 -0.3576 -0.0304  0.5726
13858TIP3   OH241516   1.661   1.340   1.789  0.4815  0.9385 -0.1995
13858TIP3    H141517   1.649   1.427   1.827 -2.7276  1.0608 -1.3644
13858TIP3    H241518   1.614   1.281   1.848 -0.1589  0.4570 -1.1689
13859TIP3   OH241519   1.830   1.663   0.743 -0.0090  0.3155  0.3412
13859TIP3    H141520   1.826   1.745   0.694 -0.8377 -1.5915 -2.9095
13859TIP3    H241521   1.746   1.620   0.726  0.5536 -1.4008  1.6947
13860TIP3   OH241522   2.113   0.604   1.846 -0.0377  0.1086 -0.0634
13860TIP3    H141523   2.129   0.527   1.791  3.3461  2.4082 -2.5052
13860TIP3    H241524   2.178   0.596   1.917  0.2866  0.6860 -0.2964
13861TIP3   OH241525   1.374   1.468   0.811 -0.0781  0.0468 -0.2883
13861TIP3    H141526   1.284   1.446   0.788 -0.1862 -0.5179  0.6585
13861TIP3    H241527   1.398   1.404   0.878  1.9555 -1.5300 -2.4287
13862TIP3   OH241528   0.865   2.667   2.649  0.1209  0.0234 -0.0011
13862TIP3    H141529   0.826   2.725   2.715 -3.0108 -1.1927 -0.6835
13862TIP3    H241530   0.888   2.588   2.696  1.5938  0.6418  0.3509
13863TIP3   OH241531   8.505   0.751   1.458 -0.1523  0.3317  0.2850
13863TIP3    H141532   8.570   0.715   1.519 -0.6250  0.6531  0.9905
13863TIP3    H241533   8.424   0.704   1.479  0.1464 -1.0527 -1.5224
13864TIP3   OH241534   2.687   4.419   2.293  0.0496 -0.1054  0.5559
13864TIP3    H141535   2.768   4.388   2.333  0.0752  0.2116  0.7461
13864TIP3    H241536   2.618   4.382   2.347  0.1045  1.8174  2.0027
13865TIP3   OH241537   0.200   2.967   1.518 -0.2358  0.1984 -0.7920
13865TIP3    H141538   0.272   3.028   1.497 -0.9750  0.6000 -2.2752
13865TIP3    H241539   0.177   2.929   1.433 -2.4750  0.8509 -0.4962
13866TIP3   OH241540   1.378   2.638   1.209  0.3176 -0.4661 -1.0336
13866TIP3    H141541   1.335   2.601   1.287  0.5462 -0.6335 -0.9865
13866TIP3    H241542   1.432   2.709   1.243  0.8500 -0.8972 -0.9675
13867TIP3   OH241543   0.235   2.736   0.321  0.3259 -0.1264  0.1420
13867TIP3    H141544   0.228   2.811   0.262  0.7743  0.0577  0.3161
13867TIP3    H241545   0.147   2.698   0.323  0.2554 -0.0020 -0.4672
13868TIP3   OH241546   7.507   2.538   1.499 -0.6959 -0.3003 -0.3859
13868TIP3    H141547   7.425   2.585   1.511 -0.3513  0.0854  0.5058
13868TIP3    H241548   7.560   2.561   1.576  0.8226  0.6637 -1.6947
13869TIP3   OH241549   4.204   2.829   6.937  0.0161 -0.2306  0.1831
13869TIP3    H141550   4.128   2.819   6.879  2.3117 -1.1606 -2.8362
13869TIP3    H241551   4.254   2.901   6.897  0.7707  0.2949  2.0526
13870TIP3   OH241552   1.924   2.970   2.980 -0.2383  0.2638 -0.2008
13870TIP3    H141553   1.903   3.060   3.006 -0.6680  0.7684 -2.2152
13870TIP3    H241554   1.846   2.920   3.002 -0.4604  0.6143 -0.1894
13871TIP3   OH241555   3.352   6.233   6.573 -0.1349  0.2198 -0.0540
13871TIP3    H141556   3.264   6.272   6.582  0.2607  1.7044 -2.1147
13871TIP3    H241557   3.363   6.221   6.479  1.3095 -1.3522  0.2910
13872TIP3   OH241558   1.586   3.322   2.952 -0.0243  0.1089  0.4409
13872TIP3    H141559   1.539   3.404   2.969  0.4508  0.3833  0.4631
13872TIP3    H241560   1.557   3.296   2.864 -1.1372 -0.3760  0.9490
13873TIP3   OH241561   1.471   5.409   6.579 -0.3344  0.0099  0.5594
13873TIP3    H141562   1.497   5.448   6.663 -0.4492 -1.4762  1.3076
13873TIP3    H241563   1.393   5.457   6.553 -0.3290  0.4416  1.3445
13874TIP3   OH241564   0.135   3.525   2.880 -0.0299 -0.0046  0.5521
13874TIP3    H141565   0.156   3.618   2.879 -0.1972  0.0433 -0.9733
13874TIP3    H241566   0.210   3.483   2.837 -1.1160 -0.2645 -1.1656
13875TIP3   OH241567   1.688   1.712   1.425 -0.2468  0.1754  0.2012
13875TIP3    H141568   1.655   1.781   1.368 -0.9409 -1.0980 -0.9790
13875TIP3    H241569   1.780   1.701   1.399 -0.7873 -0.9737 -1.2761
13876TIP3   OH241570   4.389   6.390   6.218 -0.2352 -0.3424  0.0704
13876TIP3    H141571   4.399   6.310   6.166 -0.7951 -0.5673  0.3108
13876TIP3    H241572   4.476   6.430   6.216  0.3858 -1.6130  1.0368
13877TIP3   OH241573   4.933   7.887   1.189  0.5168 -0.2562  0.3030
13877TIP3    H141574   4.932   7.977   1.223  0.1829 -0.4143  0.7171
13877TIP3    H241575   5.020   7.854   1.211  0.6246 -0.0482  0.1901
13878TIP3   OH241576   0.677   2.805   2.024 -0.0765  0.3588 -0.4078
13878TIP3    H141577   0.723   2.816   1.941  0.5084  2.6844  0.1773
13878TIP3    H241578   0.707   2.721   2.057  0.7694  0.0581 -1.8903
13879TIP3   OH241579   8.130   0.308   2.264 -0.5287 -0.5968 -0.8081
13879TIP3    H141580   8.192   0.375   2.290  0.7265 -2.2552  0.5959
13879TIP3    H241581   8.044   0.345   2.283  0.1681  0.3962  0.4603
13880TIP3   OH241582   6.754   6.765   0.853  0.3800 -0.1258 -0.4006
13880TIP3    H141583   6.775   6.673   0.836  0.4735 -0.2936  0.5863
13880TIP3    H241584   6.688   6.787   0.786  0.2590 -0.9445 -0.5635
13881TIP3   OH241585   1.901   1.155   1.812 -0.1601 -0.0757  1.0261
13881TIP3    H141586   1.946   1.169   1.729 -1.4076 -0.4785  0.2620
13881TIP3    H241587   1.830   1.220   1.811 -1.6129 -1.6263  0.7009
13882TIP3   OH241588   3.618   4.102   5.344 -0.5826  0.1141 -0.3926
13882TIP3    H141589   3.536   4.109   5.297 -0.7722 -1.6545 -0.3500
13882TIP3    H241590   3.603   4.033   5.409  0.6922  0.2932  0.1101
13883TIP3   OH241591   2.367   4.228   6.060  0.5394 -0.3194  0.2012
13883TIP3    H141592   2.305   4.293   6.026  0.5896  0.1037  0.9052
13883TIP3    H241593   2.319   4.146   6.060 -0.3703  0.2012  1.7211
13884TIP3   OH241594   1.576   1.357   3.428  0.0269 -0.5384 -0.2054
13884TIP3    H141595   1.516   1.286   3.452 -0.4217 -0.6692 -1.6602
13884TIP3    H241596   1.634   1.366   3.503 -0.2886 -2.0515  0.2278
13885TIP3   OH241597   3.521   6.634   6.308 -0.2043  0.4140  0.4603
13885TIP3    H141598   3.552   6.623   6.218 -0.3605  1.0760  0.3279
13885TIP3    H241599   3.482   6.549   6.330 -0.8462  0.4913 -0.3600
13886TIP3   OH241600   5.524   7.883   2.168 -0.1513  0.9688 -0.2269
13886TIP3    H141601   5.478   7.871   2.251  0.2950  0.8542  0.0036
13886TIP3    H241602   5.525   7.978   2.155 -0.4112  0.9751 -0.2099
13887TIP3   OH241603   0.637   1.511   2.043  0.7270 -0.0812  0.1848
13887TIP3    H141604   0.550   1.543   2.064 -0.2581 -2.6403  0.1616
13887TIP3    H241605   0.653   1.540   1.953 -0.3134 -0.0696  0.0048
13888TIP3   OH241606   1.157   0.536   0.725 -0.3759  0.0262  0.3475
13888TIP3    H141607   1.211   0.602   0.768  0.1584  0.1757 -0.5504
13888TIP3    H241608   1.068   0.554   0.756 -0.4760  2.1382 -1.0482
13889TIP3   OH241609   1.752   0.971   0.935 -0.3820 -0.6778  0.6672
13889TIP3    H141610   1.700   1.000   0.860  0.0305 -1.9856 -0.1361
13889TIP3    H241611   1.838   1.011   0.920 -0.3421 -0.8160  0.5335
13890TIP3   OH241612   2.274   5.089   2.289  0.2273 -0.0665 -0.3736
13890TIP3    H141613   2.194   5.036   2.295 -0.0316  0.4316  0.8757
13890TIP3    H241614   2.345   5.027   2.302 -0.1019 -0.0078  1.9565
13891TIP3   OH241615   1.648   3.136   0.143 -0.2894 -0.5259  0.0105
13891TIP3    H141616   1.729   3.089   0.123  0.2392 -0.3640  1.6810
13891TIP3    H241617   1.675   3.205   0.204 -1.5630  0.0181 -0.0217
13892TIP3   OH241618   4.462   6.850   0.932  0.3006  0.5043  0.2974
13892TIP3    H141619   4.394   6.796   0.891  1.4486  0.0973 -1.1170
13892TIP3    H241620   4.538   6.839   0.875  1.4782  1.1493  1.7261
13893TIP3   OH241621   2.106   5.205   6.585  0.1839 -0.5945  0.3696
13893TIP3    H141622   2.101   5.258   6.506  1.7314 -0.5095  0.3110
13893TIP3    H241623   2.118   5.115   6.553  0.5372 -0.5933  0.4923
13894TIP3   OH241624   0.351   3.942   2.102 -0.0569 -0.0608 -0.3989
13894TIP3    H141625   0.416   3.895   2.155  1.9212  1.6436 -1.2587
13894TIP3    H241626   0.287   3.974   2.166  2.1603  1.7643  0.9709
13895TIP3   OH241627   6.271   7.996   1.084  0.0463  0.6024 -0.3489
13895TIP3    H141628   6.301   7.905   1.080 -1.9663 -0.0591 -1.0977
13895TIP3    H241629   6.351   8.048   1.081  1.1699 -1.1294 -1.0317
13896TIP3   OH241630   3.630   4.173   4.901 -0.0146 -0.2082  0.7845
13896TIP3    H141631   3.615   4.116   4.976 -0.7127 -0.2238  0.6394
13896TIP3    H241632   3.666   4.253   4.938 -0.9219  0.0115  1.2097
13897TIP3   OH241633   0.740   3.121   1.772 -0.4646  0.6704 -0.7812
13897TIP3    H141634   0.772   3.176   1.700 -0.3453  0.9758 -0.4973
13897TIP3    H241635   0.697   3.182   1.832 -2.7676  0.0905 -1.7927
13898TIP3   OH241636   1.055   4.061   2.480 -0.2710  1.0844  0.1062
13898TIP3    H141637   1.011   4.073   2.564 -0.1206 -0.5590  0.4361
13898TIP3    H241638   1.126   4.125   2.480 -0.3598  1.1812  1.1673
13899TIP3   OH241639   0.824   1.846   1.889  0.3074 -0.0891 -0.3147
13899TIP3    H141640   0.764   1.859   1.962  1.0803 -1.1414  0.5166
13899TIP3    H241641   0.898   1.904   1.909 -0.0552  0.5821 -0.9134
13900TIP3   OH241642   1.188   0.357   0.066  0.4387  0.1366 -0.1134
13900TIP3    H141643   1.212   0.416  -0.005  2.4051  0.3108  0.6451
13900TIP3    H241644   1.243   0.385   0.140 -1.2407 -0.3056  1.3418
13901TIP3   OH241645   5.561   2.055   1.636 -0.0649  0.0545 -0.4337
13901TIP3    H141646   5.525   2.027   1.720  0.7935 -0.0845 -0.1071
13901TIP3    H241647   5.609   2.135   1.656 -0.3591  0.3436 -0.8967
13902TIP3   OH241648   1.410   4.063   2.111 -0.2244  0.2314  0.0691
13902TIP3    H141649   1.413   3.972   2.139  0.7792  0.5967  1.1917
13902TIP3    H241650   1.410   4.058   2.015 -1.8095 -0.9746  0.1121
13903TIP3   OH241651   1.004   2.948   0.881  0.0651 -0.0107  0.1588
13903TIP3    H141652   1.037   3.011   0.817  1.2652 -1.5251 -0.7384
13903TIP3    H241653   0.957   2.883   0.829  1.9148 -1.8143  0.6745
13904TIP3   OH241654   1.285   3.204   2.924  0.4787 -0.4577 -0.1973
13904TIP3    H141655   1.245   3.272   2.870  0.8795 -0.7466 -0.8661
13904TIP3    H241656   1.342   3.252   2.984  2.0028 -0.2780 -1.7317
13905TIP3   OH241657   2.951   5.500   6.886  0.2951 -0.1938  0.2850
13905TIP3    H141658   2.918   5.500   6.976  0.6600 -0.6087  0.4224
13905TIP3    H241659   3.016   5.430   6.885  0.6097  0.1052 -0.1891
13906TIP3   OH241660   7.895   1.031   0.659 -0.3187  0.0096  0.5920
13906TIP3    H141661   7.892   1.081   0.578  2.6348  0.0945  0.4945
13906TIP3    H241662   7.885   0.940   0.632  2.4793 -0.1367 -0.1248
13907TIP3   OH241663   0.948   3.244   2.042 -0.1146  0.1718  0.8210
13907TIP3    H141664   1.006   3.251   2.118 -0.0382 -1.7494  0.9625
13907TIP3    H241665   0.917   3.153   2.043  0.9173 -0.2690 -2.1936
13908TIP3   OH241666   3.446   4.475   1.538  0.0010 -0.5032  0.1199
13908TIP3    H141667   3.355   4.464   1.567  0.1017 -1.2670  0.1566
13908TIP3    H241668   3.449   4.431   1.453  0.0467  0.5491 -0.4280
13909TIP3   OH241669   1.159   4.309   2.464 -0.3606  0.0315  0.2100
13909TIP3    H141670   1.082   4.351   2.502  0.9484  1.3015  1.5100
13909TIP3    H241671   1.226   4.315   2.532  1.0157 -0.7002 -1.0481
13910TIP3   OH241672   0.518   1.422   0.779 -0.6681  0.2355  0.0244
13910TIP3    H141673   0.477   1.507   0.799 -0.4148 -0.0040  1.6218
13910TIP3    H241674   0.551   1.391   0.863 -0.7800 -1.4732 -0.5451
13911TIP3   OH241675   0.677   2.325   2.621 -0.0072  0.2660 -0.1110
13911TIP3    H141676   0.671   2.246   2.568 -0.2518 -1.3092  2.1853
13911TIP3    H241677   0.758   2.367   2.593  0.1251 -0.7817 -1.3476
13912TIP3   OH241678   1.058   1.407   0.941 -0.1148 -0.2452 -0.3854
13912TIP3    H141679   1.082   1.361   0.860  4.0728 -0.8185  1.0635
13912TIP3    H241680   1.049   1.498   0.915  1.2984 -0.4121 -1.4927
13913TIP3   OH241681   5.599   6.953   0.485  0.9079  0.0041 -0.4314
13913TIP3    H141682   5.566   7.042   0.497 -1.1325 -0.8180  0.3300
13913TIP3    H241683   5.579   6.933   0.393 -2.3876 -1.0964  0.4638
13914TIP3   OH241684   8.007   3.193   1.101 -0.4042 -0.2703  0.0538
13914TIP3    H141685   8.098   3.171   1.121 -0.4185  0.2121  0.6555
13914TIP3    H241686   7.982   3.258   1.167 -0.7599  0.6257 -0.9472
13915TIP3   OH241687   6.586   6.413   1.289 -0.3169 -0.6965 -0.1572
13915TIP3    H141688   6.545   6.463   1.360  2.6680  0.3895  0.8605
13915TIP3    H241689   6.597   6.477   1.219  2.4360 -0.1351  0.7220
13916TIP3   OH241690   2.593   3.685   6.605 -0.2385  0.0850 -0.0434
13916TIP3    H141691   2.650   3.701   6.530  0.4919  0.5203  0.6020
13916TIP3    H241692   2.567   3.593   6.597 -1.5058  0.5685 -1.7444
13917TIP3   OH241693   7.429   4.191   0.619  0.4024 -0.1776  0.3186
13917TIP3    H141694   7.383   4.265   0.580 -0.7582 -1.1883 -0.2690
13917TIP3    H241695   7.441   4.129   0.547  3.2411  0.2866  0.3010
13918TIP3   OH241696   2.974   0.722   2.830  0.3179 -0.3130 -0.2993
13918TIP3    H141697   2.879   0.728   2.832  0.2721 -0.6745 -1.2715
13918TIP3    H241698   2.993   0.628   2.825  0.7402 -0.2714  0.4014
13919TIP3   OH241699   0.271   0.265   0.439  0.4651 -0.4142 -0.0467
13919TIP3    H141700   0.311   0.351   0.422  0.9883 -0.8445 -1.0131
13919TIP3    H241701   0.237   0.237   0.354 -0.3171 -0.8628  0.4079
13920TIP3   OH241702   1.094   3.214   0.761 -0.4662 -0.6401 -0.3795
13920TIP3    H141703   1.075   3.305   0.741 -1.2635 -0.3819  1.5304
13920TIP3    H241704   1.188   3.205   0.744 -0.2413  0.7176  0.1026
13921TIP3   OH241705   4.115   7.244   0.340  0.2392 -0.2089 -0.1169
13921TIP3    H141706   4.067   7.181   0.393 -0.3922  0.0885 -0.3300
13921TIP3    H241707   4.098   7.328   0.382  0.2665 -0.0538 -0.4151
13922TIP3   OH241708   6.680   0.757   0.178 -0.0121 -0.4964 -0.1864
13922TIP3    H141709   6.749   0.790   0.236 -0.3169 -0.0755 -0.0686
13922TIP3    H241710   6.717   0.767   0.090  0.6991 -1.7139 -0.0339
13923TIP3   OH241711   0.150   2.409   0.825 -0.3251  0.4866 -0.6975
13923TIP3    H141712   0.077   2.348   0.825 -0.4130  0.5646 -1.9411
13923TIP3    H241713   0.114   2.490   0.862 -1.0522  0.7238 -1.9037
13924TIP3   OH241714   2.385   4.162   6.312  0.1706  0.5027  0.0363
13924TIP3    H141715   2.371   4.185   6.220  0.4536  1.2698  0.1876
13924TIP3    H241716   2.466   4.111   6.311  0.2717  0.6655 -0.1159
13925TIP3   OH241717   2.973   5.004   6.575  0.2694  0.1751  0.1259
13925TIP3    H141718   2.921   5.085   6.578 -0.1230 -0.1027  1.0246
13925TIP3    H241719   3.028   5.009   6.653  0.5628 -0.2263 -0.0556
13926TIP3   OH241720   7.921   2.009   0.702  0.2015  0.5997 -0.2011
13926TIP3    H141721   7.923   1.993   0.797  2.6233  3.0694  0.2109
13926TIP3    H241722   7.932   1.922   0.663 -0.8192 -0.4462  1.7631
13927TIP3   OH241723   3.350   6.699   5.562  0.0767 -0.0163  0.5551
13927TIP3    H141724   3.265   6.731   5.590 -0.6025 -0.1687 -1.2896
13927TIP3    H241725   3.364   6.619   5.612 -0.8156  0.0702  0.9374
13928TIP3   OH241726   2.567   4.719   6.600  0.1259  0.8702  0.3623
13928TIP3    H141727   2.585   4.722   6.693 -2.4379 -2.5408  1.0808
13928TIP3    H241728   2.620   4.646   6.567  2.1946  3.0103 -1.1886
13929TIP3   OH241729   0.304   0.252   1.787  0.0138 -0.2162 -0.0986
13929TIP3    H141730   0.236   0.189   1.812  1.9831 -1.7458  1.5521
13929TIP3    H241731   0.372   0.199   1.747 -0.4214  1.5022 -3.2603
13930TIP3   OH241732   2.200   4.381   5.921 -0.2179  0.3224 -0.4322
13930TIP3    H141733   2.114   4.401   5.959  0.6181  1.4189  0.9022
13930TIP3    H241734   2.185   4.301   5.870 -2.3925  1.3429 -1.4893
13931TIP3   OH241735   7.985   0.383   1.507  0.5431  0.0173  0.2338
13931TIP3    H141736   8.028   0.424   1.432  1.6426 -0.1869  0.7452
13931TIP3    H241737   7.962   0.295   1.476  0.2174  0.2266 -0.1324
13932TIP3   OH241738   2.616   6.101   6.615 -0.3172 -0.5306 -0.0997
13932TIP3    H141739   2.624   6.185   6.569 -1.6271 -0.0780  0.4720
13932TIP3    H241740   2.691   6.100   6.675  0.1037 -0.0888 -0.6090
13933TIP3   OH241741   3.976   4.112   6.868 -0.3541  0.2257  0.0592
13933TIP3    H141742   4.015   4.195   6.895  0.2440  0.1859 -0.6789
13933TIP3    H241743   3.893   4.137   6.827 -1.9667  0.1938  3.1555
13934TIP3   OH241744   4.068   4.960   6.227  0.6800  0.0501 -0.9090
13934TIP3    H141745   4.108   4.887   6.180  2.0075  0.1673 -0.0018
13934TIP3    H241746   4.124   5.035   6.206  1.4783  0.0435  1.0626
13935TIP3   OH241747   2.830   4.782   6.169 -0.4343  0.1287 -0.1502
13935TIP3    H141748   2.764   4.834   6.215  0.3557  0.4797  0.6182
13935TIP3    H241749   2.809   4.691   6.191 -1.6900  0.1332 -1.3176
13936TIP3   OH241750   4.258   5.212   6.728 -0.4971 -0.1428 -0.4774
13936TIP3    H141751   4.214   5.167   6.656  0.8830 -0.0868 -1.3774
13936TIP3    H241752   4.252   5.305   6.706 -1.5923 -0.0095  0.3665
13937TIP3   OH241753   7.216   1.876   0.103 -0.4278  0.5704  0.2521
13937TIP3    H141754   7.261   1.960   0.116 -0.0578  0.2470  1.0906
13937TIP3    H241755   7.272   1.828   0.042 -0.1891  0.5895  0.4544
13938TIP3   OH241756   0.164   2.103   0.543  0.2263 -0.6341 -0.0979
13938TIP3    H141757   0.149   2.025   0.597  1.5389 -1.1594 -0.4733
13938TIP3    H241758   0.227   2.155   0.593  0.6562 -0.6309 -0.6424
13939TIP3   OH241759   3.373   3.180   2.540  0.2195 -0.9112  0.6486
13939TIP3    H141760   3.441   3.202   2.604 -1.2235  0.8647  1.6038
13939TIP3    H241761   3.412   3.202   2.455  0.5013  1.0095  1.2535
13940TIP3   OH241762   3.703   4.273   2.500 -0.5852  0.1374  0.5091
13940TIP3    H141763   3.687   4.178   2.506  1.3824 -0.3611 -1.5336
13940TIP3    H241764   3.776   4.288   2.559 -0.4951  0.2723  0.3629
13941TIP3   OH241765   0.338   1.710   0.913 -0.1976 -0.0121 -0.0550
13941TIP3    H141766   0.409   1.722   0.976  0.1227 -0.1422 -0.3841
13941TIP3    H241767   0.267   1.670   0.963 -0.5022  1.2642  0.5639
13942TIP3   OH241768   8.053   7.987   1.348 -0.0514 -0.3505 -0.4367
13942TIP3    H141769   7.987   8.053   1.371  1.0484 -0.3611  3.0237
13942TIP3    H241770   8.002   7.912   1.316 -1.7674 -0.3925  2.2449
13943TIP3   OH241771   1.934   2.425   3.005  0.2022  0.3016 -0.0588
13943TIP3    H141772   1.988   2.356   2.967  0.0645 -0.1473  0.5517
13943TIP3    H241773   1.881   2.456   2.932 -0.6589 -1.1332 -0.0627
13944TIP3   OH241774   0.271   1.392   1.609 -0.6125 -0.3968  0.0531
13944TIP3    H141775   0.196   1.390   1.668  0.3065 -0.9372  1.2462
13944TIP3    H241776   0.235   1.417   1.524 -2.0403 -0.0838  0.7350
13945TIP3   OH241777   1.527   2.160   2.124 -0.2029 -0.6546 -0.2629
13945TIP3    H141778   1.487   2.103   2.058 -1.2200  0.4009 -0.5685
13945TIP3    H241779   1.485   2.134   2.206 -0.9253 -0.1081 -0.4568
13946TIP3   OH241780   0.110   6.666   0.396 -0.3586 -0.7435  0.2775
13946TIP3    H141781   0.057   6.586   0.392 -0.6922 -0.4944 -0.4615
13946TIP3    H241782   0.130   6.686   0.304 -0.8273  0.3790  0.4088
13947TIP3   OH241783   3.206   4.804   5.658  0.0104  0.3224  0.2161
13947TIP3    H141784   3.112   4.797   5.677 -0.0721  1.9259  0.4233
13947TIP3    H241785   3.248   4.746   5.723 -0.7142  0.8864  1.2005
13948TIP3   OH241786   5.747   7.777   1.132  0.1618 -0.5263  0.0537
13948TIP3    H141787   5.707   7.711   1.075 -0.3166 -1.0576  0.9913
13948TIP3    H241788   5.841   7.767   1.118  0.1259 -1.8648  0.6715
13949TIP3   OH241789   1.460   1.040   2.682  0.5200 -0.2164  0.2094
13949TIP3    H141790   1.537   0.984   2.695  0.5846 -0.2268 -0.2375
13949TIP3    H241791   1.425   1.014   2.597  1.8298  1.9571 -1.0381
13950TIP3   OH241792   6.667   5.529   0.945  0.7567 -0.1307  0.1048
13950TIP3    H141793   6.627   5.614   0.966  2.1120  0.5486  0.0003
13950TIP3    H241794   6.751   5.551   0.905 -0.1866 -1.4719 -2.7534
13951TIP3   OH241795   2.924   6.099   6.457 -0.0049 -0.1620  0.7520
13951TIP3    H141796   2.850   6.159   6.458  0.2848  0.2168 -0.0124
13951TIP3    H241797   2.894   6.023   6.407 -0.0751 -0.2688  0.9559
13952TIP3   OH241798   3.121   6.595   6.164  0.2335  0.6643 -0.0345
13952TIP3    H141799   3.194   6.543   6.198  1.3438  0.9669 -1.8659
13952TIP3    H241800   3.142   6.607   6.072 -1.8664  1.2597 -0.4504
13953TIP3   OH241801   0.764   3.445   2.075 -0.1080  0.2773  0.3897
13953TIP3    H141802   0.833   3.379   2.083  0.4184  0.6879 -0.6909
13953TIP3    H241803   0.706   3.412   2.008  0.6596  1.3344 -0.8214
13954TIP3   OH241804   1.623   0.790   1.084 -0.4687  0.1558  0.3191
13954TIP3    H141805   1.675   0.858   1.042  2.1026 -1.9434 -0.0482
13954TIP3    H241806   1.584   0.832   1.160  0.4284  2.2120 -0.3212
13955TIP3   OH241807   7.352   7.343   0.058  0.1517 -0.0797 -0.2986
13955TIP3    H141808   7.412   7.404   0.100  1.4347 -0.6894 -1.2065
13955TIP3    H241809   7.271   7.349   0.110  1.7152 -0.9081  2.3624
13956TIP3   OH241810   2.700   4.930   5.957 -0.2988 -0.6021 -0.0022
13956TIP3    H141811   2.734   4.939   6.046 -1.8020  0.4908  0.4855
13956TIP3    H241812   2.694   5.020   5.925 -1.5110 -0.8578 -0.5215
13957TIP3   OH241813   2.314   2.627   1.085  0.3519  0.3162  0.5589
13957TIP3    H141814   2.390   2.616   1.028 -1.7655 -0.2830 -2.2674
13957TIP3    H241815   2.351   2.638   1.173  3.7151  1.1258 -0.8793
13958TIP3   OH241816   1.153   1.335   0.689 -0.7369  0.1420  0.1187
13958TIP3    H141817   1.195   1.389   0.621  1.9792  1.8426  3.0263
13958TIP3    H241818   1.189   1.247   0.674  0.5817  0.6984 -0.0768
13959TIP3   OH241819   2.431   3.182   1.118  0.2693  0.0060 -0.0550
13959TIP3    H141820   2.507   3.142   1.159  1.4834  2.7371  0.4752
13959TIP3    H241821   2.356   3.135   1.155  1.5009  0.1924  2.8125
13960TIP3   OH241822   0.681   2.074   3.762  0.1708  0.2721  0.3063
13960TIP3    H141823   0.599   2.035   3.792  0.7671 -1.2444  0.0144
13960TIP3    H241824   0.664   2.168   3.761 -1.0470  0.0782  1.7670
13961TIP3   OH241825   2.618   7.114   5.686  0.1963 -0.2451  0.3011
13961TIP3    H141826   2.586   7.119   5.596 -3.2744  2.2500  1.5569
13961TIP3    H241827   2.644   7.203   5.708 -0.9957 -0.3729  2.4169
13962TIP3   OH241828   0.643   2.432   1.827  0.2684 -0.0263 -0.4978
13962TIP3    H141829   0.595   2.362   1.783  1.4983 -3.0161  2.6442
13962TIP3    H241830   0.576   2.487   1.866 -0.7119  0.0477 -2.2439
13963TIP3   OH241831   7.193   3.732   1.191 -0.1167  0.8653  0.4790
13963TIP3    H141832   7.239   3.810   1.223 -2.4695  2.2906  0.5396
13963TIP3    H241833   7.137   3.765   1.120 -0.6181 -0.9133  0.0232
13964TIP3   OH241834   8.078   1.467   1.339 -0.2089 -0.4416 -0.1111
13964TIP3    H141835   8.087   1.561   1.326 -0.5296 -0.2604  0.9272
13964TIP3    H241836   7.984   1.452   1.342 -0.1570 -0.6914  0.3808
13965TIP3   OH241837   8.226   0.203   1.615 -0.1156 -0.5145  0.5903
13965TIP3    H141838   8.155   0.169   1.561 -0.6574 -1.4564  1.8666
13965TIP3    H241839   8.291   0.235   1.552 -0.9536 -1.1127 -0.6046
13966TIP3   OH241840   0.542   0.988   1.375  0.1003 -0.0297  0.0802
13966TIP3    H141841   0.583   0.966   1.459 -0.1421  1.1056  0.5168
13966TIP3    H241842   0.586   0.932   1.311 -0.7637 -1.9890  1.1745
13967TIP3   OH241843   8.187   7.840   2.205  0.2934  0.0506  0.7546
13967TIP3    H141844   8.217   7.921   2.166 -0.1025  0.1774  0.7151
13967TIP3    H241845   8.113   7.865   2.260 -0.3339 -0.4001  0.1139
13968TIP3   OH241846   1.433   1.310   1.003  0.2798 -0.1721  0.1440
13968TIP3    H141847   1.381   1.314   1.084 -1.0873  0.0506 -0.7335
13968TIP3    H241848   1.482   1.228   1.010 -0.9023 -0.8577  0.5596
13969TIP3   OH241849   2.302   0.467   1.486 -0.2784 -0.3484  0.3056
13969TIP3    H141850   2.262   0.493   1.569 -4.3850 -0.2591 -1.6183
13969TIP3    H241851   2.307   0.548   1.435 -0.3232 -0.9011 -0.5841
13970TIP3   OH241852   3.361   4.217   5.292 -0.1243  0.2505  0.4796
13970TIP3    H141853   3.369   4.257   5.379 -0.9601  1.7588 -0.1107
13970TIP3    H241854   3.315   4.134   5.308 -0.0574  0.4041  1.5092
13971TIP3   OH241855   4.963   6.573   1.801 -0.0026 -0.0385 -0.2488
13971TIP3    H141856   5.029   6.508   1.776 -0.3972 -0.7504  0.4941
13971TIP3    H241857   4.884   6.521   1.816 -1.0087  0.9134 -2.0955
13972TIP3   OH241858   5.753   7.343   2.767  0.1719 -0.2386  0.2108
13972TIP3    H141859   5.708   7.428   2.769  0.0832 -0.2973  1.6364
13972TIP3    H241860   5.846   7.366   2.763  0.0605 -0.1182 -3.1125
13973TIP3   OH241861   4.049   4.845   6.854  0.6559 -0.5016 -0.5474
13973TIP3    H141862   3.975   4.807   6.808 -1.4687  2.8359 -0.1026
13973TIP3    H241863   4.125   4.825   6.799 -0.9139 -1.9388 -2.2595
13974TIP3   OH241864   0.958   2.108   1.571  0.0711 -0.5377 -0.3496
13974TIP3    H141865   1.006   2.039   1.616 -0.4869 -1.4773 -1.1796
13974TIP3    H241866   0.885   2.129   1.629  0.7160 -0.0442  0.2949
13975TIP3   OH241867   6.249   7.057   1.756 -0.0867  0.2770  0.4756
13975TIP3    H141868   6.188   7.101   1.815  0.0410  0.3382  0.5633
13975TIP3    H241869   6.330   7.050   1.807  0.0897  0.5216  0.2329
13976TIP3   OH241870   5.779   7.816   0.145 -0.2227  0.1461 -0.4188
13976TIP3    H141871   5.711   7.854   0.089 -0.0489  1.5684  0.2967
13976TIP3    H241872   5.852   7.798   0.086 -0.4192  0.6656 -0.8253
13977TIP3   OH241873   7.119   3.980   1.625 -0.2221 -0.2267  0.4203
13977TIP3    H141874   7.061   3.914   1.663 -0.5558 -1.1834 -1.6363
13977TIP3    H241875   7.074   4.006   1.544 -0.2884  2.8330  1.3872
13978TIP3   OH241876   7.082   3.095   0.224  0.1391 -0.4403  0.1922
13978TIP3    H141877   7.123   3.009   0.219 -0.8861 -0.8580 -1.7626
13978TIP3    H241878   7.144   3.154   0.181 -0.2026 -0.6298 -0.5654
13979TIP3   OH241879   2.350   4.469   6.708  0.1941  0.1715 -0.1438
13979TIP3    H141880   2.271   4.416   6.717  1.2053 -1.8343 -2.2474
13979TIP3    H241881   2.366   4.472   6.613  3.5800 -0.9910  0.2904
13980TIP3   OH241882   8.475   0.620   1.017 -0.1979 -0.5078  0.4428
13980TIP3    H141883   8.570   0.614   1.007 -0.0737  2.5492 -0.7090
13980TIP3    H241884   8.441   0.599   0.930 -0.7457 -3.5633  1.3259
13981TIP3   OH241885   4.184   3.509   6.854 -0.7031  0.9281 -0.1408
13981TIP3    H141886   4.226   3.573   6.910  1.4924 -0.0358 -0.6374
13981TIP3    H241887   4.173   3.553   6.770 -0.8161  1.2247  0.0303
13982TIP3   OH241888   4.173   5.079   6.959 -0.0580  0.1506  0.2493
13982TIP3    H141889   4.108   5.021   6.920 -0.1926 -0.0383  0.7391
13982TIP3    H241890   4.201   5.137   6.888  1.4584 -1.7367 -0.7186
13983TIP3   OH241891   2.304   3.244   0.452 -0.2217  0.5489  0.1363
13983TIP3    H141892   2.359   3.319   0.476  0.7715 -0.2182  0.2949
13983TIP3    H241893   2.299   3.248   0.356  0.7874  0.1716  0.0554
13984TIP3   OH241894   4.775   4.084   6.931  0.0796 -0.0311 -0.6051
13984TIP3    H141895   4.833   4.055   6.860  1.8935  2.0460 -0.0088
13984TIP3    H241896   4.819   4.055   7.011 -1.1105 -0.8596 -0.2281
13985TIP3   OH241897   3.897   2.070   2.858 -0.5270  0.1984  0.2241
13985TIP3    H141898   3.890   1.975   2.847 -1.9127  0.2563  0.5846
13985TIP3    H241899   3.965   2.081   2.924 -1.5851 -0.6209  1.4696
13986TIP3   OH241900   8.186   7.942   0.368 -0.4687  0.4204  0.1542
13986TIP3    H141901   8.118   7.882   0.339  1.3641 -1.6929  0.0603
13986TIP3    H241902   8.206   7.916   0.458  1.8843 -0.6156 -0.6240
13987TIP3   OH241903   5.016   5.819   6.200 -0.2869 -0.6427  0.1589
13987TIP3    H141904   4.983   5.744   6.151 -0.3542  0.2330 -1.1648
13987TIP3    H241905   4.937   5.864   6.231 -0.2474 -1.0890  0.9130
13988TIP3   OH241906   5.791   6.633   5.505  0.6378 -0.3851  0.0004
13988TIP3    H141907   5.792   6.676   5.420  1.7161 -0.7787 -0.2016
13988TIP3    H241908   5.827   6.697   5.565 -1.8977  0.5932  0.5357
13989TIP3   OH241909   2.914   1.804   0.337  0.0741  0.7372 -0.4447
13989TIP3    H141910   2.994   1.771   0.379  0.1408 -0.4672 -1.5052
13989TIP3    H241911   2.844   1.782   0.399  0.3703  0.3629 -0.2367
13990TIP3   OH241912   7.159   4.372   6.872  0.2303 -0.4081  0.7087
13990TIP3    H141913   7.089   4.334   6.924 -1.3541 -0.6330 -1.5215
13990TIP3    H241914   7.128   4.458   6.847  0.7420 -0.4914 -0.2710
13991TIP3   OH241915   6.448   4.957   6.615  0.1275 -0.2529  0.8362
13991TIP3    H141916   6.481   4.871   6.590 -2.9332 -0.6348 -2.3073
13991TIP3    H241917   6.493   5.018   6.557  0.3366 -0.0326  1.2293
13992TIP3   OH241918   0.812   5.323   0.443  0.6701 -0.8648  0.4027
13992TIP3    H141919   0.903   5.312   0.470  0.9285 -1.2265 -0.6031
13992TIP3    H241920   0.794   5.416   0.457  1.1247 -0.8389  0.8179
13993TIP3   OH241921   1.164   7.287   1.179  0.1242  0.3900 -0.2631
13993TIP3    H141922   1.211   7.207   1.154 -3.0355 -1.2076 -1.4027
13993TIP3    H241923   1.180   7.348   1.108  1.3839  0.2830 -0.0814
13994TIP3   OH241924   3.664   5.040   5.962  0.2850 -0.2776 -0.3291
13994TIP3    H141925   3.699   5.037   6.052  2.4119 -0.4799 -1.1233
13994TIP3    H241926   3.601   5.112   5.964 -0.0775 -0.6059  1.4508
13995TIP3   OH241927   2.641   5.034   6.635 -0.0854  0.2911  1.0648
13995TIP3    H141928   2.645   4.940   6.614  2.0419  0.5768  0.0655
13995TIP3    H241929   2.583   5.039   6.711 -1.5115 -1.6634  0.1319
13996TIP3   OH241930   2.790   1.014   0.850 -0.0266  0.3333 -0.2879
13996TIP3    H141931   2.852   0.989   0.781 -0.3697  1.4773 -1.0184
13996TIP3    H241932   2.704   1.011   0.808 -0.4278 -0.7163  0.5764
13997TIP3   OH241933   8.183   1.719   1.876  0.2880 -0.3897 -0.0054
13997TIP3    H141934   8.114   1.753   1.932 -0.3584  0.3277 -1.2174
13997TIP3    H241935   8.249   1.686   1.937  0.0031  1.1634  1.1892
13998TIP3   OH241936   4.468   4.857   6.103 -0.1950 -0.1035  0.3836
13998TIP3    H141937   4.547   4.894   6.141 -1.0309  2.4527 -0.2350
13998TIP3    H241938   4.402   4.926   6.113 -2.2407 -1.9974  0.5086
13999TIP3   OH241939   2.814   2.929   2.902  0.3781 -0.2872 -0.4587
13999TIP3    H141940   2.778   2.976   2.827 -1.2217  1.4940  1.3651
13999TIP3    H241941   2.817   2.838   2.873 -1.3921  0.1815 -2.2715
14000TIP3   OH241942   0.025   6.956   3.793 -0.1373  0.3115  0.2654
14000TIP3    H141943  -0.064   6.927   3.816 -0.2194  1.1664  1.0681
14000TIP3    H241944   0.056   7.000   3.872  1.0457 -0.0833  0.0217
14001TIP3   OH241945   2.323   2.325   0.430  0.3019 -0.9841 -0.2182
14001TIP3    H141946   2.296   2.292   0.345 -1.5411 -0.6312  0.1863
14001TIP3    H241947   2.244   2.316   0.485 -0.0457  3.1188  0.1727
14002TIP3   OH241948   1.149   1.358   0.244  0.1980  0.6722 -0.7112
14002TIP3    H141949   1.216   1.391   0.185  1.1353 -0.3277 -0.2223
14002TIP3    H241950   1.160   1.263   0.243 -1.2980  0.4809 -0.7266
14003TIP3   OH241951   4.185   5.462   6.039  0.2085 -0.0928  0.6143
14003TIP3    H141952   4.147   5.392   6.092  1.4858 -0.9369  0.4478
14003TIP3    H241953   4.279   5.457   6.057  0.6687 -0.3524 -1.6672
14004TIP3   OH241954   6.995   7.061   6.502 -0.3903 -0.7500 -0.1913
14004TIP3    H141955   6.933   7.123   6.538  0.8885 -0.8402  2.2745
14004TIP3    H241956   7.078   7.109   6.496  0.3225 -1.8381  0.6193
14005TIP3   OH241957   0.830   7.009   2.295  0.2104 -0.5606 -0.4723
14005TIP3    H141958   0.806   7.044   2.209 -0.3256  1.6199  0.5420
14005TIP3    H241959   0.748   6.977   2.331  0.2302 -0.4257 -0.3058
14006TIP3   OH241960   2.327   0.820   0.348  0.5720  0.1955  0.3828
14006TIP3    H141961   2.234   0.802   0.363  0.0597  1.8958 -0.6197
14006TIP3    H241962   2.328   0.882   0.276  2.4200  1.3759  1.3792
14007TIP3   OH241963   2.923   1.676   0.803 -0.9748  0.2205  0.1258
14007TIP3    H141964   2.840   1.658   0.846 -1.3976  0.7895 -0.4345
14007TIP3    H241965   2.975   1.723   0.868 -1.7631  1.4432 -0.1251
14008TIP3   OH241966   2.693   0.725   1.519 -0.8394 -0.4059  0.2747
14008TIP3    H141967   2.646   0.736   1.437  0.3303 -2.5245 -0.7019
14008TIP3    H241968   2.771   0.780   1.510 -0.8232 -0.4642  0.0593
14009TIP3   OH241969   2.301   2.681   0.481 -0.3032  0.3682  0.1636
14009TIP3    H141970   2.356   2.636   0.417 -2.6868  0.2615 -1.8679
14009TIP3    H241971   2.324   2.773   0.472  1.6162  0.0453  1.4172
14010TIP3   OH241972   3.644   6.695   6.551 -0.3890  0.6049  0.5070
14010TIP3    H141973   3.578   6.640   6.594 -0.3740  0.8023  0.7811
14010TIP3    H241974   3.640   6.669   6.459 -1.3569  1.1216  0.4001
14011TIP3   OH241975   2.340   1.844   1.300  0.2679 -0.4087 -0.4816
14011TIP3    H141976   2.305   1.861   1.213  0.1458 -1.8168 -0.7233
14011TIP3    H241977   2.328   1.750   1.313  0.5014 -0.2609  0.9602
14012TIP3   OH241978   3.598   1.063   0.617 -0.0860 -0.5399 -0.1700
14012TIP3    H141979   3.659   0.991   0.599 -3.1102 -3.0079 -0.8064
14012TIP3    H241980   3.582   1.103   0.531 -0.2470 -0.6084 -0.1718
14013TIP3   OH241981   4.954   2.324   0.651  0.7808  0.3101 -0.0871
14013TIP3    H141982   4.918   2.403   0.693  2.0438  0.3916  0.9053
14013TIP3    H241983   5.048   2.330   0.668  0.8709 -1.4612  0.0623
14014TIP3   OH241984   3.627   1.656   2.194 -0.3672  0.1685  1.2937
14014TIP3    H141985   3.642   1.638   2.287  2.0440  0.4834  1.0122
14014TIP3    H241986   3.662   1.579   2.149 -2.4545 -0.4417  0.6696
14015TIP3   OH241987   1.531   1.374   0.397 -0.2692  0.0424 -0.0928
14015TIP3    H141988   1.556   1.443   0.459  3.1586 -0.6709 -0.5749
14015TIP3    H241989   1.533   1.294   0.450  1.9778 -0.4733 -0.8948
14016TIP3   OH241990   3.358   0.387   0.586  0.9486  0.1190  0.1983
14016TIP3    H141991   3.283   0.329   0.573  1.6008 -1.4503  2.9777
14016TIP3    H241992   3.320   0.469   0.617  0.2754 -0.0946 -0.0505
14017TIP3   OH241993   0.654   0.851   1.150 -0.2593  0.1887 -0.5007
14017TIP3    H141994   0.689   0.762   1.157 -1.0921 -0.1084 -0.0582
14017TIP3    H241995   0.568   0.840   1.111 -0.2589  0.8280 -0.6880
14018TIP3   OH241996   2.473   1.028   0.468 -0.0547  0.0527 -0.0172
14018TIP3    H141997   2.445   1.083   0.395  0.4646 -0.0544 -0.2979
14018TIP3    H241998   2.432   0.943   0.450 -0.7403  0.3003  0.3423
14019TIP3   OH241999   2.592   2.197   1.453  0.7008 -0.4160 -0.4847
14019TIP3    H142000   2.570   2.104   1.458 -1.2901  0.1229  1.7090
14019TIP3    H242001   2.633   2.216   1.538 -2.5397  1.5442  0.7268
14020TIP3   OH242002   2.732   0.941   0.444  0.7551  0.1177 -0.2195
14020TIP3    H142003   2.643   0.973   0.433  1.2669  1.3672 -0.9703
14020TIP3    H242004   2.723   0.856   0.486 -0.8504 -0.3782 -1.5206
14021TIP3   OH242005   1.162   2.966   1.319  0.1263 -0.3351  0.2551
14021TIP3    H142006   1.075   3.003   1.333  0.2854  0.7840 -1.5539
14021TIP3    H242007   1.220   3.042   1.319  0.9922 -0.9844  0.4503
14022TIP3   OH242008   6.404   4.360   6.808  0.2252  0.0965  0.1829
14022TIP3    H142009   6.460   4.314   6.746 -0.4820 -1.0240  0.3682
14022TIP3    H242010   6.432   4.452   6.801  1.5424 -0.3213 -0.2884
14023TIP3   OH242011   2.094   2.743   1.986 -0.2467 -0.2114 -0.0509
14023TIP3    H142012   2.138   2.753   2.070  0.0642  2.1822 -0.4511
14023TIP3    H242013   2.043   2.824   1.976  1.0794  0.3439 -2.9006
14024TIP3   OH242014   5.138   3.056   5.442 -0.0129 -0.3195 -0.2908
14024TIP3    H142015   5.085   3.115   5.496  0.5594  0.5889 -0.6969
14024TIP3    H242016   5.094   2.971   5.447 -1.5821  0.4457 -0.7340
14025TIP3   OH242017   4.844   5.192   6.030 -0.0987  0.6224  0.2352
14025TIP3    H142018   4.836   5.227   5.941 -0.5071  0.6380  0.2745
14025TIP3    H242019   4.921   5.236   6.066 -0.4014  1.2206  0.1659
14026TIP3   OH242020   5.457   5.877   5.393 -0.4974  0.3655 -0.1416
14026TIP3    H142021   5.504   5.945   5.344 -1.9152  0.6445 -1.1608
14026TIP3    H242022   5.501   5.796   5.370  0.0663  0.7287 -0.3610
14027TIP3   OH242023   1.325   2.156   0.610 -0.0548  0.3140 -0.2605
14027TIP3    H142024   1.392   2.143   0.543  0.9338  1.2286  0.5256
14027TIP3    H242025   1.255   2.205   0.566  0.3450  0.4332 -0.7596
14028TIP3   OH242026   0.721   0.238   4.259  0.3148  0.2159  0.3264
14028TIP3    H142027   0.732   0.294   4.182 -0.7139 -1.1611 -0.8557
14028TIP3    H242028   0.648   0.278   4.307 -0.0533  0.2141 -0.2263
14029TIP3   OH242029   6.231   5.123   6.379  0.0779 -0.4526  0.5280
14029TIP3    H142030   6.245   5.161   6.466  0.4716 -2.1955  1.2476
14029TIP3    H242031   6.214   5.030   6.396 -1.2818 -0.5365 -1.1581
14030TIP3   OH242032   5.536   5.336   6.427  0.0749  0.1505  0.4665
14030TIP3    H142033   5.551   5.254   6.473  0.0862 -1.6504 -2.6281
14030TIP3    H242034   5.611   5.344   6.367 -1.3183  1.0189 -1.1955
14031TIP3   OH242035   2.538   2.433   1.906 -0.3374  0.0215  0.5844
14031TIP3    H142036   2.605   2.441   1.974  0.7633  0.3927 -0.5166
14031TIP3    H242037   2.510   2.523   1.890  1.4111  0.2436 -1.3937
14032TIP3   OH242038   2.327   1.513   2.262  0.1772  0.6266  0.2790
14032TIP3    H142039   2.316   1.518   2.167  0.3540 -0.0103  0.2237
14032TIP3    H242040   2.333   1.604   2.290  0.9032  0.7942 -0.4072
14033TIP3   OH242041   2.573   4.593   1.674 -0.0813 -0.7972 -0.3436
14033TIP3    H142042   2.539   4.679   1.697 -1.1593 -1.2387 -0.2561
14033TIP3    H242043   2.596   4.600   1.581  1.6013  0.1351  0.1311
14034TIP3   OH242044   1.559   1.565   0.655 -0.3433  0.0168 -0.3399
14034TIP3    H142045   1.500   1.519   0.715  0.7293  1.3500  1.8404
14034TIP3    H242046   1.504   1.631   0.613 -1.1977 -1.1846 -1.1372
14035TIP3   OH242047   2.866   2.737   2.333  0.4216 -0.6651  0.1347
14035TIP3    H142048   2.959   2.728   2.315  0.9536  2.2158  1.0864
14035TIP3    H242049   2.856   2.711   2.425  0.8155  1.5964  0.8629
14036TIP3   OH242050   5.327   4.385   6.049 -0.2292 -0.0120  0.0119
14036TIP3    H142051   5.406   4.421   6.090  0.3058 -1.0073 -0.1257
14036TIP3    H242052   5.346   4.386   5.955 -0.0683 -0.9626  0.0276
14037TIP3   OH242053   2.775   2.310   2.466 -0.0388  0.1456 -0.6083
14037TIP3    H142054   2.710   2.366   2.423 -0.7484  0.5418  0.9458
14037TIP3    H242055   2.847   2.369   2.487  0.0818  0.0594 -0.7781
14038TIP3   OH242056   4.752   3.175   2.006  0.0007  1.0612 -0.1975
14038TIP3    H142057   4.821   3.177   1.939  1.7717 -1.7134  1.4530
14038TIP3    H242058   4.769   3.252   2.059  0.5252  1.5564 -1.0643
14039TIP3   OH242059   4.748   5.178   6.810 -0.2511  0.1442 -0.6342
14039TIP3    H142060   4.727   5.094   6.850  0.0139 -0.0291 -0.8615
14039TIP3    H242061   4.737   5.164   6.716  0.1224  0.2707 -0.6965
14040TIP3   OH242062   1.917   1.643   1.315 -0.0294  0.0480  0.5086
14040TIP3    H142063   1.913   1.549   1.329  0.0333 -0.7136 -3.8739
14040TIP3    H242064   2.007   1.667   1.335  0.5640 -1.2335 -0.6202
14041TIP3   OH242065   7.285   7.021   0.768  0.0233 -0.2557  0.3932
14041TIP3    H142066   7.304   6.948   0.710  3.0419 -0.3571  1.4457
14041TIP3    H242067   7.346   7.090   0.742 -2.2502  1.6738 -0.0698
14042TIP3   OH242068   2.609   0.316   0.814  0.6566 -0.2944  0.0869
14042TIP3    H142069   2.540   0.342   0.753  0.5238  1.4521  0.9450
14042TIP3    H242070   2.613   0.221   0.807  0.9750 -0.1231 -3.0213
14043TIP3   OH242071   2.903   1.185   3.726 -0.1525  0.9221 -0.4269
14043TIP3    H142072   2.942   1.272   3.732 -0.4514  1.0043  0.4240
14043TIP3    H242073   2.840   1.192   3.654  0.0825  1.3105 -0.5970
14044TIP3   OH242074   5.158   5.882   6.730 -0.4023  0.1543 -0.5586
14044TIP3    H142075   5.161   5.809   6.668 -0.1655  0.0446 -0.4187
14044TIP3    H242076   5.126   5.956   6.679 -2.2647 -0.4492 -0.2990
14045TIP3   OH242077   3.875   5.166   6.559 -0.3999  0.2323 -0.0180
14045TIP3    H142078   3.954   5.112   6.559  0.9859  2.1902  0.6282
14045TIP3    H242079   3.855   5.180   6.652 -0.5225  1.1040 -0.1675
14046TIP3   OH242080  -0.026   6.806   0.603  0.3640  0.1475 -0.1858
14046TIP3    H142081   0.025   6.764   0.534  0.6515 -0.9995  0.7069
14046TIP3    H242082   0.022   6.887   0.622 -0.0119  0.7328 -1.6805
14047TIP3   OH242083   5.391   5.954   5.842 -0.5158 -0.3602 -0.3149
14047TIP3    H142084   5.356   6.007   5.770 -0.1858 -1.9730 -1.7177
14047TIP3    H242085   5.316   5.901   5.871 -0.0928 -1.3653 -1.0324
14048TIP3   OH242086   0.533   1.808   1.111  0.4072 -0.5742 -0.1712
14048TIP3    H142087   0.573   1.884   1.069 -1.4612 -0.5473 -1.9901
14048TIP3    H242088   0.490   1.844   1.189  0.7274  0.0091 -0.2579
14049TIP3   OH242089   5.633   7.608   2.744  0.0144  0.3310 -0.2529
14049TIP3    H142090   5.637   7.621   2.838 -0.3778 -0.3644 -0.1344
14049TIP3    H242091   5.619   7.696   2.708 -1.0549  0.4483  0.4195
14050TIP3   OH242092   2.501   0.926   1.101  0.5890 -0.3529 -0.3910
14050TIP3    H142093   2.583   0.954   1.141 -0.8770  1.6911  1.2786
14050TIP3    H242094   2.478   0.995   1.040 -0.3656 -0.4289 -0.1361
14051TIP3   OH242095   4.385   0.608   1.952  0.1491  0.0128 -0.0428
14051TIP3    H142096   4.338   0.649   2.024 -0.3944  1.4849 -1.2177
14051TIP3    H242097   4.331   0.532   1.928  0.0099 -0.1194  0.6625
14052TIP3   OH242098   7.728   1.574   0.757  0.5436  0.2974 -0.5703
14052TIP3    H142099   7.799   1.533   0.707 -1.0374 -1.0079 -1.8196
14052TIP3    H242100   7.662   1.505   0.766 -0.5385  1.4512  0.6464
14053TIP3   OH242101   2.532   3.518   1.550  0.3346  0.4927  0.0039
14053TIP3    H142102   2.547   3.559   1.636  1.4079 -2.3557  1.2590
14053TIP3    H242103   2.511   3.427   1.571 -0.1845 -0.0606 -2.7591
14054TIP3   OH242104   6.243   6.810   6.815 -0.1701 -0.2420  0.1607
14054TIP3    H142105   6.281   6.831   6.729 -1.7077 -0.2526 -0.5323
14054TIP3    H242106   6.250   6.715   6.821  0.9117 -0.1485  0.5185
14055TIP3   OH242107   1.379   0.829   0.511  0.4315 -0.2469  0.1443
14055TIP3    H142108   1.330   0.747   0.511  0.9298 -0.5468 -0.9545
14055TIP3    H242109   1.424   0.831   0.427  2.1314  0.1364  1.0359
14056TIP3   OH242110   1.487   5.549   2.485  0.1366  0.7640  0.0213
14056TIP3    H142111   1.413   5.571   2.542 -1.7233 -0.9462 -1.6799
14056TIP3    H242112   1.563   5.552   2.543 -1.6141 -0.2420  2.4463
14057TIP3   OH242113   5.649   6.331   6.047  0.0037 -0.6318 -0.1799
14057TIP3    H142114   5.600   6.259   6.087  0.3932 -2.0036 -2.0905
14057TIP3    H242115   5.740   6.315   6.074  0.0364 -0.6513 -0.3026
14058TIP3   OH242116   2.889   1.018   0.238  0.0004  0.7643  0.0851
14058TIP3    H142117   2.923   0.938   0.199 -1.2985  0.9176 -1.4330
14058TIP3    H242118   2.841   0.988   0.316  0.3997  0.1866  0.1135
14059TIP3   OH242119   6.995   6.662   0.367 -0.5966 -0.1831  0.6279
14059TIP3    H142120   6.981   6.616   0.450 -0.3978 -1.3847  0.0082
14059TIP3    H242121   6.957   6.604   0.301 -0.4978  0.6308 -0.1519
14060TIP3   OH242122   4.822   4.980   5.662  0.1793 -0.0030  0.0928
14060TIP3    H142123   4.808   5.069   5.694  0.4382 -1.0653  3.3589
14060TIP3    H242124   4.914   4.979   5.635  0.4529  0.4871  0.9648
14061TIP3   OH242125   7.811   7.860   1.168 -0.3860 -0.2707 -0.0302
14061TIP3    H142126   7.723   7.842   1.133 -0.6820 -0.3698  0.7541
14061TIP3    H242127   7.869   7.844   1.094 -0.6320 -4.2238  0.4845
14062TIP3   OH242128   6.330   8.013   1.869 -0.3446  0.6002 -0.0644
14062TIP3    H142129   6.374   7.995   1.952 -0.9945  0.5380  0.2729
14062TIP3    H242130   6.354   7.939   1.813 -2.8757 -1.3116  1.2631
14063TIP3   OH242131   3.758   1.977   0.932  0.0435  0.4665  0.1078
14063TIP3    H142132   3.745   1.882   0.939 -0.8472  0.6117  0.6031
14063TIP3    H242133   3.743   2.009   1.021  2.4482  0.8455  0.3956
14064TIP3   OH242134   2.329   1.521   1.990  0.2383 -0.1941 -0.2602
14064TIP3    H142135   2.340   1.593   1.928  0.8749 -1.3949 -1.5541
14064TIP3    H242136   2.376   1.447   1.951  1.7801 -0.6157  2.2545
14065TIP3   OH242137   0.680   2.894   1.530  0.0517  0.3593 -0.1653
14065TIP3    H142138   0.737   2.947   1.475  1.4455 -0.3112  0.5962
14065TIP3    H242139   0.739   2.853   1.593 -1.2859 -0.3144  0.6742
14066TIP3   OH242140   7.671   2.533   1.264  0.5115 -0.3594 -0.3063
14066TIP3    H142141   7.660   2.533   1.359  1.8202 -0.8985 -0.1398
14066TIP3    H242142   7.619   2.607   1.233  0.2100 -0.0900  0.8437
14067TIP3   OH242143   5.952   7.674   0.905  0.6650  0.5863  0.1955
14067TIP3    H142144   6.042   7.701   0.885  0.6558 -0.9662 -2.1048
14067TIP3    H242145   5.951   7.579   0.893 -1.5258  0.7018 -0.9411
14068TIP3   OH242146   0.990   2.017   2.266  0.1427 -0.2688 -0.0273
14068TIP3    H142147   1.025   2.075   2.334 -2.7290  0.1434  1.2005
14068TIP3    H242148   0.942   1.950   2.315  2.8276 -3.3900 -1.4427
14069TIP3   OH242149   4.064   2.556   0.829 -0.0315 -0.4462 -0.0916
14069TIP3    H142150   4.000   2.618   0.796  0.1583 -0.5759 -0.7084
14069TIP3    H242151   4.012   2.482   0.862 -0.1774 -0.7390 -0.9822
14070TIP3   OH242152   4.956   1.456   1.089  0.1982  0.3206  0.2145
14070TIP3    H142153   5.019   1.390   1.061  0.2277  0.5730 -0.3130
14070TIP3    H242154   4.954   1.448   1.185 -0.6476 -1.2224  0.0966
14071TIP3   OH242155   5.364   1.545   2.117  0.0922  0.3429 -0.1956
14071TIP3    H142156   5.287   1.492   2.134 -0.4097  1.3624  0.7569
14071TIP3    H242157   5.438   1.491   2.146 -0.4221  0.2323  0.9199
14072TIP3   OH242158   4.850   4.940   4.666  0.2354  0.4791 -0.0626
14072TIP3    H142159   4.894   4.984   4.739  0.3254 -0.1498  0.2580
14072TIP3    H242160   4.794   4.874   4.707  1.9450 -1.3771 -0.6439
14073TIP3   OH242161   0.983   7.279   0.844  0.4188 -0.7153  0.4226
14073TIP3    H142162   0.932   7.317   0.772  1.2343 -1.8900 -0.7998
14073TIP3    H242163   1.061   7.242   0.802 -0.8167 -4.6629  1.4003
14074TIP3   OH242164   3.144   0.569   0.657 -0.2997  0.3164  0.1689
14074TIP3    H142165   3.147   0.580   0.752  0.0058 -2.0903  0.4586
14074TIP3    H242166   3.059   0.528   0.640  0.2613 -0.6193 -0.4339
14075TIP3   OH242167   6.133   1.576   5.359 -0.4318 -0.0352 -0.5024
14075TIP3    H142168   6.115   1.568   5.265 -0.8148 -0.8177 -0.3648
14075TIP3    H242169   6.102   1.494   5.397  2.9128 -1.2260 -0.1778
14076TIP3   OH242170   1.794   5.687   5.845 -1.1164 -0.0960 -0.7084
14076TIP3    H142171   1.771   5.739   5.923 -0.7374  0.1693 -0.7743
14076TIP3    H242172   1.878   5.723   5.816 -0.5673 -1.1169 -0.4224
14077TIP3   OH242173   2.991   2.492   1.756  0.4380 -0.1413  0.2882
14077TIP3    H142174   2.927   2.535   1.699  2.1323  2.3723  0.2196
14077TIP3    H242175   3.016   2.413   1.708 -0.2493  0.4947 -1.1607
14078TIP3   OH242176   3.889   5.024   5.785 -0.0082  0.0901  0.5589
14078TIP3    H142177   3.856   4.969   5.714  0.1405  0.8597 -0.1215
14078TIP3    H242178   3.812   5.041   5.839 -0.1882 -0.2454  0.4102
14079TIP3   OH242179   4.075   2.579   1.389 -0.0876 -0.1854 -0.1803
14079TIP3    H142180   3.981   2.559   1.394 -0.3272  0.8515 -0.4145
14079TIP3    H242181   4.115   2.521   1.453 -0.9045 -0.5702 -0.0107
14080TIP3   OH242182   6.780   5.948   4.288 -0.2380  0.2765 -0.4899
14080TIP3    H142183   6.700   5.983   4.329  0.6189 -0.1495  1.6100
14080TIP3    H242184   6.771   5.853   4.297  0.3129  0.2116 -0.6353
14081TIP3   OH242185   3.444   0.817   1.291  0.1115  0.3406  0.4838
14081TIP3    H142186   3.526   0.795   1.245 -0.5387  0.1198 -0.5933
14081TIP3    H242187   3.388   0.741   1.277 -1.2675  1.6170 -1.1477
14082TIP3   OH242188   5.237   3.856   6.764 -0.1213  0.1779 -0.1295
14082TIP3    H142189   5.275   3.895   6.842  1.9071  1.5571 -1.7469
14082TIP3    H242190   5.281   3.772   6.754 -1.8285 -0.9076  1.3007
14083TIP3   OH242191   1.029   0.707   3.016  0.8299  0.0359  0.1660
14083TIP3    H142192   0.976   0.755   2.952 -1.0165 -0.6598  1.1395
14083TIP3    H242193   1.053   0.626   2.971 -1.3354 -0.9270  0.6511
14084TIP3   OH242194   6.145   7.593   0.602 -0.7458 -0.3959 -0.2118
14084TIP3    H142195   6.161   7.564   0.512  0.7542 -0.7699  0.1512
14084TIP3    H242196   6.136   7.512   0.652 -0.4228 -0.2030  0.1623
14085TIP3   OH242197   5.537   6.333   6.885  0.6452 -0.1530  0.2902
14085TIP3    H142198   5.628   6.360   6.871  0.6998 -0.5354 -0.0728
14085TIP3    H242199   5.485   6.408   6.856  0.8178 -0.2243 -0.1970
14086TIP3   OH242200   3.678   4.451   6.037  0.1496 -0.3199 -0.8398
14086TIP3    H142201   3.687   4.522   5.974  2.6369  0.1811  0.0621
14086TIP3    H242202   3.708   4.373   5.989 -0.4619 -0.4054 -1.0979
14087TIP3   OH242203   5.757   5.289   5.176  0.1510  0.4581 -0.0627
14087TIP3    H142204   5.699   5.270   5.103 -0.2200  1.3694 -0.0084
14087TIP3    H242205   5.752   5.211   5.231 -0.6217  0.3221 -0.3188
14088TIP3   OH242206   0.053   0.611   0.243  0.5263  0.1809  0.1882
14088TIP3    H142207   0.099   0.687   0.208  0.8733 -0.0149  0.2149
14088TIP3    H242208   0.025   0.562   0.166  1.1601 -0.1732  0.1829
14089TIP3   OH242209   4.975   4.992   5.310 -0.3387  0.2011  0.1239
14089TIP3    H142210   4.943   4.918   5.362 -2.1055  1.0417  0.2979
14089TIP3    H242211   4.903   5.011   5.249  0.8885  0.5310 -1.2430
14090TIP3   OH242212   4.219   3.259   6.747  0.4549  0.3256  0.3660
14090TIP3    H142213   4.190   3.342   6.784  0.0564  1.2831 -2.0152
14090TIP3    H242214   4.291   3.283   6.688 -1.9466 -0.5194 -3.0613
14091TIP3   OH242215   6.093   6.699   5.822 -0.1221  0.3849 -0.3590
14091TIP3    H142216   6.090   6.747   5.905  0.0743 -2.5789  1.4043
14091TIP3    H242217   6.178   6.723   5.784 -0.1263  1.5900  0.3469
14092TIP3   OH242218   2.541   2.478   0.489 -0.3246  0.0497 -0.6940
14092TIP3    H142219   2.465   2.424   0.468  0.9983 -1.8644 -0.6686
14092TIP3    H242220   2.541   2.546   0.421 -1.5250 -0.4600 -1.2248
14093TIP3   OH242221   7.893   4.458   6.585  0.1388 -0.1454 -0.0606
14093TIP3    H142222   7.861   4.383   6.535  0.9948 -1.3238  1.1189
14093TIP3    H242223   7.835   4.463   6.661  0.0627  0.4120 -0.1536
14094TIP3   OH242224   0.042   0.556   2.749 -0.2822  0.2299  0.0123
14094TIP3    H142225  -0.006   0.582   2.828 -0.0595  3.9394 -0.9875
14094TIP3    H242226  -0.027   0.534   2.686 -0.6258  2.2771 -0.3587
14095TIP3   OH242227   3.212   2.894   1.205 -0.2098 -0.2602 -0.6109
14095TIP3    H142228   3.260   2.927   1.281 -0.4046 -0.8040 -0.2503
14095TIP3    H242229   3.121   2.917   1.222 -0.3883 -1.2465 -0.2171
14096TIP3   OH242230   8.387   7.663   1.206 -0.1294 -0.5214  0.6485
14096TIP3    H142231   8.381   7.633   1.296  0.5260  0.0501  0.8871
14096TIP3    H242232   8.364   7.587   1.153  0.9433 -1.2704  1.2537
14097TIP3   OH242233   1.836   1.031   2.512 -0.5967  0.2548  0.3074
14097TIP3    H142234   1.849   0.962   2.577  0.9923 -1.0461 -1.3126
14097TIP3    H242235   1.800   0.986   2.436 -0.2203  1.3418 -0.5326
14098TIP3   OH242236   6.225   3.046   5.283 -0.5412 -0.3907 -0.1808
14098TIP3    H142237   6.312   3.008   5.295 -0.8354 -0.8824  0.4166
14098TIP3    H242238   6.170   2.973   5.257 -0.5637  0.1112 -1.5919
14099TIP3   OH242239   0.960   1.012   0.022 -0.1253  1.0276 -0.1588
14099TIP3    H142240   0.979   1.003   0.115 -1.8054 -0.1690  0.0958
14099TIP3    H242241   0.988   0.928  -0.016 -0.0854  1.2453 -0.6200
14100TIP3   OH242242   5.051   6.406   5.627  0.2735  0.1646  0.7550
14100TIP3    H142243   5.143   6.391   5.605  0.4071  0.0845  1.3804
14100TIP3    H242244   5.035   6.497   5.602  0.4428  0.0895  0.3722
14101TIP3   OH242245   7.247   6.659   6.800  0.3105  0.0078 -0.4775
14101TIP3    H142246   7.277   6.573   6.832  1.4938  0.9179  0.9512
14101TIP3    H242247   7.321   6.718   6.818 -0.3317  1.2480 -1.8225
14102TIP3   OH242248   1.450   2.145   1.389 -0.2453 -0.3440 -0.0082
14102TIP3    H142249   1.492   2.090   1.323 -0.5011 -0.9314  0.3114
14102TIP3    H242250   1.513   2.214   1.407 -1.2639  1.4128 -2.8607
14103TIP3   OH242251   2.711   1.240   1.432  0.2572 -0.1216 -0.3405
14103TIP3    H142252   2.800   1.264   1.403  0.4054  0.5535  0.6513
14103TIP3    H242253   2.696   1.295   1.509 -0.3214 -1.5628  0.5826
14104TIP3   OH242254   1.519   2.780   1.848  0.4116  0.1980  0.3275
14104TIP3    H142255   1.509   2.734   1.764  0.3789 -0.0985  0.4933
14104TIP3    H242256   1.475   2.724   1.911  0.1012  0.6133  0.4814
14105TIP3   OH242257   5.237   4.869   4.806 -0.2534 -0.2533 -0.6234
14105TIP3    H142258   5.237   4.904   4.895  0.5703  1.4551 -1.2693
14105TIP3    H242259   5.324   4.831   4.795 -0.2034 -0.0887 -0.8200
14106TIP3   OH242260   5.193   6.727   6.727  0.2506 -0.0417  0.2022
14106TIP3    H142261   5.210   6.782   6.650 -3.0565  0.1794 -0.4164
14106TIP3    H242262   5.156   6.647   6.691 -1.1704  0.0035  1.5475
14107TIP3   OH242263   4.811   4.363   6.696 -0.0319  0.3391  0.4101
14107TIP3    H142264   4.835   4.317   6.616  0.4494  1.9255 -0.3788
14107TIP3    H242265   4.715   4.365   6.695 -0.0416 -0.2312  0.2160
14108TIP3   OH242266   4.118   4.307   5.246  0.0977  0.4327 -0.0510
14108TIP3    H142267   4.064   4.243   5.293  0.0374  0.4010 -0.1641
14108TIP3    H242268   4.121   4.383   5.305 -1.8594  1.2626 -0.9733
14109TIP3   OH242269   7.879   3.477   2.383  0.2109 -0.3400 -0.2788
14109TIP3    H142270   7.833   3.393   2.392 -1.5834  0.3626 -2.3476
14109TIP3    H242271   7.831   3.537   2.440  0.8936 -0.4766  0.4476
14110TIP3   OH242272   4.031   0.699   0.031  0.3597 -0.5724  0.1704
14110TIP3    H142273   4.105   0.700  -0.029  1.5666 -1.7024  1.5878
14110TIP3    H242274   3.976   0.626   0.001 -0.8640  1.0462 -1.6395
14111TIP3   OH242275   4.170   0.671   0.627 -0.2040  0.3138  0.1191
14111TIP3    H142276   4.181   0.654   0.533 -2.5836  0.0960 -0.1527
14111TIP3    H242277   4.108   0.603   0.656  1.5699 -0.4809  2.1493
14112TIP3   OH242278   0.988   0.942   0.845  0.0368 -0.0405 -0.0442
14112TIP3    H142279   0.947   0.856   0.851 -1.2537  0.5845  0.3625
14112TIP3    H242280   0.986   0.976   0.934  3.2064 -0.7743  0.3405
14113TIP3   OH242281   1.558   0.495   0.633 -0.0792  0.3181  0.1514
14113TIP3    H142282   1.522   0.441   0.704 -1.4211  0.5466 -0.3401
14113TIP3    H242283   1.603   0.566   0.678 -0.4080  0.1255  0.7930
14114TIP3   OH242284   1.590   0.918   0.675 -0.0749  0.0705  0.6426
14114TIP3    H142285   1.552   0.886   0.593 -0.3831  0.2358  0.7212
14114TIP3    H242286   1.656   0.853   0.698  1.8528  1.3275 -1.1278
14115TIP3   OH242287   8.227   6.917   0.155  0.0634  0.0388 -0.3896
14115TIP3    H142288   8.281   6.882   0.226  1.9358 -1.9252 -2.6917
14115TIP3    H242289   8.145   6.869   0.162 -0.2644  0.8318  1.2728
14116TIP3   OH242290   7.191   5.536   5.342  0.3542  0.5431  0.3945
14116TIP3    H142291   7.168   5.487   5.421 -0.3485 -0.6679 -0.5491
14116TIP3    H242292   7.280   5.509   5.321 -0.6945 -1.8162 -1.2005
14117TIP3   OH242293   1.275   7.271   2.280  0.4650  0.1788 -0.0842
14117TIP3    H142294   1.206   7.323   2.238  0.5485 -0.2509 -0.7547
14117TIP3    H242295   1.339   7.255   2.210  0.8757 -0.0698  0.3476
14118TIP3   OH242296   2.463   1.117   2.997 -0.0792  0.1166 -0.1546
14118TIP3    H142297   2.511   1.085   2.921 -1.4157  0.0845 -0.9897
14118TIP3    H242298   2.454   1.040   3.054  1.6127  0.3245  0.4237
14119TIP3   OH242299   3.389   1.273   1.483  0.2193 -0.4069 -0.0550
14119TIP3    H142300   3.405   1.367   1.479  3.0381 -0.8326 -0.0796
14119TIP3    H242301   3.384   1.246   1.391 -0.9727 -0.2407 -0.0464
14120TIP3   OH242302   1.820   2.497   2.117 -0.7925 -0.4721 -0.1767
14120TIP3    H142303   1.829   2.416   2.067  0.3253 -1.9914  2.3971
14120TIP3    H242304   1.908   2.516   2.149 -1.5577  0.1531  1.6297
14121TIP3   OH242305   2.466   0.877   1.852 -0.8431 -0.0758  0.4715
14121TIP3    H142306   2.560   0.864   1.867 -0.6243  0.8939  0.0340
14121TIP3    H242307   2.463   0.942   1.781 -1.8474 -0.1731  0.4225
14122TIP3   OH242308   4.123   2.229   1.697 -0.6481 -0.3219 -0.6330
14122TIP3    H142309   4.162   2.165   1.757 -0.8186  0.3729  0.2336
14122TIP3    H242310   4.062   2.279   1.751 -0.7254  0.3907 -1.3580
14123TIP3   OH242311   0.909   0.371   0.117 -0.2044  0.0522  0.0199
14123TIP3    H142312   1.002   0.365   0.141 -0.1961 -1.5909 -0.4126
14123TIP3    H242313   0.906   0.446   0.057  0.6880  0.6676  0.7130
14124TIP3   OH242314   2.217   0.924   1.190  0.2337  0.5942  0.3794
14124TIP3    H142315   2.178   0.979   1.122 -1.6642 -1.2346 -0.0626
14124TIP3    H242316   2.281   0.870   1.143  0.0709  0.4564  0.3142
14125TIP3   OH242317   3.256   0.967   0.408  0.4648 -0.1532  0.1086
14125TIP3    H142318   3.326   0.969   0.343 -0.6643  0.7379 -1.1125
14125TIP3    H242319   3.217   1.054   0.404 -1.3613 -0.9515  0.0392
14126TIP3   OH242320   4.255   0.435   1.270 -0.1379  0.0460 -0.0613
14126TIP3    H142321   4.172   0.410   1.310  0.8783 -0.9906  1.4693
14126TIP3    H242322   4.321   0.415   1.337  1.3483  0.7982 -1.2653
14127TIP3   OH242323   1.656   2.195   2.837 -0.2460  0.0608  0.2323
14127TIP3    H142324   1.715   2.213   2.910  0.5511  1.0289 -0.6281
14127TIP3    H242325   1.707   2.140   2.777 -0.3853  0.4618 -0.2620
14128TIP3   OH242326   4.548   4.635   6.360  0.0236 -0.0358  0.5167
14128TIP3    H142327   4.557   4.719   6.315  0.1708 -0.1632  0.3011
14128TIP3    H242328   4.628   4.587   6.336  0.7000  0.3568  1.9181
14129TIP3   OH242329   2.025   4.557   2.997 -0.0116 -0.3927 -0.4746
14129TIP3    H142330   2.047   4.650   3.000  1.0935 -0.6782  0.5380
14129TIP3    H242331   2.107   4.514   2.973  0.1449 -1.3319  1.7106
14130TIP3   OH242332   1.892   0.411   0.031 -0.4237 -0.1288 -0.3034
14130TIP3    H142333   1.901   0.318   0.054 -0.0093  0.3241  1.4674
14130TIP3    H242334   1.980   0.446   0.040 -0.7981  0.6901  0.2150
14131TIP3   OH242335   6.781   5.892   5.647 -0.5706  0.2238 -0.1636
14131TIP3    H142336   6.701   5.865   5.692 -0.1310  0.6576  0.9015
14131TIP3    H242337   6.820   5.811   5.617 -0.3560 -0.1619  1.1353
14132TIP3   OH242338   1.364   0.733   1.842  0.2162 -0.4406  0.5093
14132TIP3    H142339   1.283   0.738   1.893 -0.7661  0.6471 -1.1294
14132TIP3    H242340   1.335   0.734   1.751  2.2135  2.8732 -0.1524
14133TIP3   OH242341   1.234   1.060   0.681  0.0189  0.0091 -0.4728
14133TIP3    H142342   1.310   1.013   0.646  0.1812 -0.5501  0.5848
14133TIP3    H242343   1.183   0.992   0.726  0.1571  0.7906  0.9157
14134TIP3   OH242344   1.692   5.581   0.910 -0.0663  0.4027 -0.3184
14134TIP3    H142345   1.744   5.642   0.859 -0.6373  0.4930 -0.8024
14134TIP3    H242346   1.748   5.555   0.982  0.3045  1.2278 -0.3101
14135TIP3   OH242347   2.836   4.758   2.346 -0.5919  0.2065 -0.1965
14135TIP3    H142348   2.896   4.694   2.308 -1.0614  0.4554 -1.3848
14135TIP3    H242349   2.891   4.835   2.364 -0.2503 -0.1275  0.2103
14136TIP3   OH242350   3.343   0.411   1.773 -0.3364 -0.1002  0.2537
14136TIP3    H142351   3.269   0.351   1.761  0.3644 -1.3960  2.2329
14136TIP3    H242352   3.349   0.424   1.867  1.4961  0.6083  0.0590
14137TIP3   OH242353   6.963   4.293   6.236 -0.0296 -0.0568 -0.0106
14137TIP3    H142354   6.918   4.271   6.154 -1.9990  2.9985  0.1876
14137TIP3    H242355   7.030   4.356   6.209 -0.5015  0.7462  0.7069
14138TIP3   OH242356   6.489   3.607   5.601  0.4953 -0.4545  0.2313
14138TIP3    H142357   6.555   3.655   5.652 -0.0533  0.6904 -0.1067
14138TIP3    H242358   6.475   3.526   5.650  0.3976  0.3755  1.5978
14139TIP3   OH242359   4.647   5.560   5.178  0.1816  0.0752 -0.1409
14139TIP3    H142360   4.585   5.590   5.111 -0.6316 -1.3251 -0.0526
14139TIP3    H242361   4.591   5.539   5.254  1.1142  1.8979  1.0894
14140TIP3   OH242362   2.432   2.357   1.297  0.2021  0.3613 -0.4586
14140TIP3    H142363   2.453   2.268   1.325  0.9542  0.8365  0.5129
14140TIP3    H242364   2.365   2.346   1.229 -1.5537 -0.8320  1.3990
14141TIP3   OH242365   3.478   1.907   1.015  0.3857 -0.3802 -0.0150
14141TIP3    H142366   3.553   1.944   1.060 -0.1511 -0.4279  0.9504
14141TIP3    H242367   3.504   1.817   0.993  1.0013 -0.0412 -0.6666
14142TIP3   OH242368   4.472   0.989   2.832  0.2489 -0.2394  0.8545
14142TIP3    H142369   4.521   0.946   2.762  0.3949 -0.0997  0.8709
14142TIP3    H242370   4.520   0.968   2.911  0.4225  0.1031  0.8415
14143TIP3   OH242371   5.096   5.247   6.712  0.1527  0.4460 -0.0974
14143TIP3    H142372   5.028   5.307   6.682 -0.5664 -0.6117 -0.5921
14143TIP3    H242373   5.170   5.263   6.653 -0.7222 -0.5379 -1.4765
14144TIP3   OH242374   3.137   2.494   2.293  0.3784 -0.2259  0.0426
14144TIP3    H142375   3.150   2.576   2.245  1.0158  0.1501  0.8526
14144TIP3    H242376   3.225   2.457   2.301  0.1506 -0.7563  0.1055
14145TIP3   OH242377   7.025   7.392   6.453 -0.1716  0.0869  0.4521
14145TIP3    H142378   7.073   7.474   6.438  0.2798  0.2141  2.4599
14145TIP3    H242379   7.091   7.324   6.440 -0.0431  0.1464  0.7829
14146TIP3   OH242380   3.904   0.782   1.381  0.1704  0.8145 -0.3910
14146TIP3    H142381   3.985   0.731   1.380 -0.5126 -0.2761 -0.8156
14146TIP3    H242382   3.921   0.856   1.323  1.0361  0.8775 -0.0684
14147TIP3   OH242383   1.483   1.040   0.321  0.4854 -0.2430 -0.2627
14147TIP3    H142384   1.499   1.103   0.392  1.9432  1.7408 -2.2917
14147TIP3    H242385   1.568   0.998   0.307  0.1512 -0.7712 -0.7183
14148TIP3   OH242386   1.310   2.692   3.132 -0.0113 -0.4353 -0.1847
14148TIP3    H142387   1.339   2.743   3.056  1.1783 -0.2369  0.3888
14148TIP3    H242388   1.338   2.603   3.113 -0.3906 -0.5263 -0.3200
14149TIP3   OH242389   0.879   0.610   0.815  0.1260  0.5456 -0.4277
14149TIP3    H142390   0.890   0.617   0.910 -0.5401 -1.7891 -0.1644
14149TIP3    H242391   0.786   0.628   0.800 -0.3577 -1.7843 -0.3374
14150TIP3   OH242392   0.619   6.831   2.363  0.4892  0.4373 -0.0462
14150TIP3    H142393   0.524   6.842   2.364  0.5004  0.5097  0.6385
14150TIP3    H242394   0.636   6.765   2.296  0.1690  2.4022 -2.1208
14151TIP3   OH242395   7.619   6.919   1.838 -0.7780  0.2348 -0.0848
14151TIP3    H142396   7.582   6.915   1.750  0.7280 -1.5635 -0.6650
14151TIP3    H242397   7.545   6.898   1.896 -1.5876  0.6541 -0.9577
14152TIP3   OH242398   2.598   0.103   1.245 -0.4774  0.0198 -0.4962
14152TIP3    H142399   2.522   0.050   1.269 -1.2781  0.9514 -0.9264
14152TIP3    H242400   2.584   0.187   1.290 -0.0526  0.4304 -1.1148
14153TIP3   OH242401   6.940   1.989   6.058  0.1719  0.7991 -0.3612
14153TIP3    H142402   6.994   1.917   6.024  0.9356  1.3566 -0.3357
14153TIP3    H242403   6.920   1.963   6.148 -0.6386  0.0079 -0.7621
14154TIP3   OH242404   7.968   0.199   0.917 -0.0597 -0.5673  0.0491
14154TIP3    H142405   7.933   0.127   0.864 -0.2766 -2.1294  2.2750
14154TIP3    H242406   8.032   0.158   0.974  2.1906  1.5520 -0.8640
14155TIP3   OH242407   0.874   1.859   1.413 -0.0114  0.5382  0.2188
14155TIP3    H142408   0.920   1.833   1.334 -1.7435  0.3458 -0.7643
14155TIP3    H242409   0.931   1.923   1.455  0.8905  0.6876 -1.2131
14156TIP3   OH242410   4.996   4.505   6.955 -0.1383  0.0109 -0.0501
14156TIP3    H142411   5.008   4.599   6.967 -3.0237  0.2963  0.7625
14156TIP3    H242412   5.018   4.490   6.863  0.9828  1.3547 -0.0131
14157TIP3   OH242413   5.232   2.759   0.976  0.5522  0.0960 -0.1264
14157TIP3    H142414   5.320   2.790   0.998  0.5273 -0.3098  0.5528
14157TIP3    H242415   5.236   2.743   0.882  1.7478 -1.6342  0.1930
14158TIP3   OH242416   3.713   1.658   2.478  0.1777  0.2187  0.2081
14158TIP3    H142417   3.794   1.707   2.494 -0.0333  0.8054 -0.4665
14158TIP3    H242418   3.720   1.581   2.534  0.3622  1.1869  1.5522
14159TIP3   OH242419   0.447   3.633   5.981 -0.2372 -0.1430 -0.0446
14159TIP3    H142420   0.378   3.570   6.000  1.0845 -1.7026 -0.3373
14159TIP3    H242421   0.494   3.643   6.064 -0.2673  0.2493 -0.0716
14160TIP3   OH242422   2.309   2.042   0.858 -0.1721 -0.3674  0.0246
14160TIP3    H142423   2.303   2.010   0.767 -0.6083  0.3071 -0.1860
14160TIP3    H242424   2.390   2.093   0.860 -0.4956  0.1511 -0.1513
14161TIP3   OH242425   1.835   4.509   3.409 -0.5084  0.1627 -0.4284
14161TIP3    H142426   1.852   4.600   3.385 -0.8422  0.5629  0.8434
14161TIP3    H242427   1.896   4.459   3.355 -0.0210  1.1677 -0.8206
14162TIP3   OH242428   2.266   2.333   2.045 -0.0270  0.3156  0.1275
14162TIP3    H142429   2.325   2.283   2.101 -0.1677 -0.1534 -0.1318
14162TIP3    H242430   2.321   2.361   1.972  0.2372  1.2277  0.6736
14163TIP3   OH242431   2.247   3.547   1.896 -0.1766 -0.2841  0.5812
14163TIP3    H142432   2.256   3.460   1.935  1.1971 -1.7298 -2.7947
14163TIP3    H242433   2.333   3.566   1.858 -0.5743  2.3794  0.8652
14164TIP3   OH242434   1.823   2.694   1.279  0.0855 -0.1937  0.2909
14164TIP3    H142435   1.797   2.756   1.210 -2.0665  0.0833  1.3077
14164TIP3    H242436   1.861   2.621   1.232  0.7828  1.0123 -1.0605
14165TIP3   OH242437   0.096   2.198   1.154  0.1136  0.1830  0.0138
14165TIP3    H142438   0.180   2.238   1.178  0.1543 -0.5371  1.0935
14165TIP3    H242439   0.085   2.220   1.062  2.0959 -0.7756 -0.4813
14166TIP3   OH242440   1.500   2.534   0.362 -0.0047 -0.9185  0.4477
14166TIP3    H142441   1.433   2.548   0.295  0.7747 -2.1995 -0.6096
14166TIP3    H242442   1.454   2.548   0.445 -1.3047 -0.6582 -0.3059
14167TIP3   OH242443   1.883   0.267   1.546 -0.2193  0.7771  0.1853
14167TIP3    H142444   1.866   0.184   1.500  1.6565 -0.3073  1.3508
14167TIP3    H242445   1.836   0.258   1.629 -0.8058  1.2958 -0.0881
14168TIP3   OH242446   5.318   4.461   6.365  0.1435 -0.0890  0.1350
14168TIP3    H142447   5.344   4.463   6.273  1.5487 -0.3028  0.5090
14168TIP3    H242448   5.311   4.553   6.390 -0.6046 -0.0327 -0.2865
14169TIP3   OH242449   1.890   1.179   0.567 -0.1045  0.4846 -0.0918
14169TIP3    H142450   1.954   1.174   0.496 -1.4626  2.4932 -1.5384
14169TIP3    H242451   1.926   1.244   0.627 -0.6628  1.4971 -0.8256
14170TIP3   OH242452   6.718   3.671   5.712 -0.2075  0.4308 -0.0923
14170TIP3    H142453   6.769   3.748   5.686  0.3404 -0.3066 -1.2430
14170TIP3    H242454   6.729   3.666   5.807  2.0472  0.1584 -0.3473
14171TIP3   OH242455   0.717   0.867   0.178  0.0688 -0.7359  0.1265
14171TIP3    H142456   0.773   0.940   0.204  2.0451 -2.5043  1.0381
14171TIP3    H242457   0.677   0.838   0.260  0.3919 -1.5505  0.0027
14172TIP3   OH242458   3.456   5.436   5.445 -0.0709  0.1075  0.3096
14172TIP3    H142459   3.466   5.340   5.446 -1.3113 -0.0386 -0.2527
14172TIP3    H242460   3.481   5.462   5.357 -0.1409  0.2564  0.3333
14173TIP3   OH242461   2.457   0.159   0.993 -0.6679  0.0973  0.2322
14173TIP3    H142462   2.492   0.151   1.082 -0.8935 -0.4173  0.2739
14173TIP3    H242463   2.522   0.213   0.947 -0.5426  0.3513  0.7025
14174TIP3   OH242464   2.515   0.613   0.399  0.3265 -0.1950 -0.2104
14174TIP3    H142465   2.578   0.622   0.327  0.8444 -2.0005 -0.0245
14174TIP3    H242466   2.448   0.678   0.381  1.5400  0.8159 -1.1775
14175TIP3   OH242467   6.793   4.441   6.796  0.5063 -0.5566 -0.5140
14175TIP3    H142468   6.811   4.382   6.869  0.8885 -0.1539 -0.2751
14175TIP3    H242469   6.848   4.409   6.725  0.2120 -0.8877 -0.5915
14176TIP3   OH242470   1.787   2.581   0.500 -0.3037  0.1896  0.0376
14176TIP3    H142471   1.864   2.637   0.495  0.6657 -0.9123  2.1221
14176TIP3    H242472   1.810   2.512   0.563 -2.3899 -1.0898 -0.5243
14177TIP3   OH242473   0.960   0.682   0.142 -0.0628 -0.3620 -0.0805
14177TIP3    H142474   0.877   0.730   0.137 -1.4153 -2.6806 -1.1093
14177TIP3    H242475   0.994   0.685   0.053  1.6490  1.6542  0.5972
14178TIP3   OH242476   2.676   1.368   1.693 -0.1453  0.0394 -0.2919
14178TIP3    H142477   2.596   1.420   1.699  0.5013  1.0747 -0.4278
14178TIP3    H242478   2.729   1.397   1.768 -0.0566 -0.9038  0.0091
14179TIP3   OH242479   4.022   1.908   0.250  0.4228  0.7531 -0.1932
14179TIP3    H142480   4.012   1.922   0.156  1.5178  1.7335 -0.1913
14179TIP3    H242481   4.004   1.994   0.289 -1.1668  0.0725  0.5937
14180TIP3   OH242482   4.903   5.509   6.752 -0.1559  0.4728 -0.6841
14180TIP3    H142483   4.809   5.496   6.749 -0.1237  0.0728 -0.0188
14180TIP3    H242484   4.916   5.582   6.812 -0.0981  1.1488 -1.5078
14181TIP3   OH242485   0.949   4.533   5.344 -0.1287 -0.1318 -0.1814
14181TIP3    H142486   0.995   4.464   5.296  1.4658  0.6887  0.1370
14181TIP3    H242487   0.862   4.497   5.361  0.6636 -2.0267 -0.0915
14182TIP3   OH242488   7.664   7.463   4.587 -0.1764  0.6190  1.0185
14182TIP3    H142489   7.711   7.381   4.604 -1.2864 -0.5032 -1.0649
14182TIP3    H242490   7.719   7.531   4.626 -0.2697 -1.2908  4.6650
14183TIP3   OH242491   4.299   2.355   0.747 -0.0141 -0.4139 -0.2430
14183TIP3    H142492   4.239   2.410   0.797 -0.1251 -1.8460  1.2239
14183TIP3    H242493   4.385   2.395   0.760 -0.2963  0.2573 -0.4025
14184TIP3   OH242494   4.843   1.897   0.402  0.2847  0.3549  0.4098
14184TIP3    H142495   4.821   1.984   0.371  1.0257  0.8325  1.1967
14184TIP3    H242496   4.844   1.905   0.497 -2.9368 -1.3269  0.6421
14185TIP3   OH242497   6.612   5.261   5.519 -0.1117 -0.2260 -0.2989
14185TIP3    H142498   6.577   5.321   5.453  0.8670 -0.4984 -1.0619
14185TIP3    H242499   6.589   5.174   5.488 -0.5507 -0.3067  0.2440
14186TIP3   OH242500   7.696   7.944   0.187  0.3808  0.2801  0.6578
14186TIP3    H142501   7.636   7.871   0.169  3.3117 -1.4323 -2.8929
14186TIP3    H242502   7.769   7.904   0.234  1.6024  1.0326 -0.5447
14187TIP3   OH242503   4.318   1.533   0.503  0.2196  0.6459 -0.6699
14187TIP3    H142504   4.274   1.616   0.485  0.6054  1.0579  0.2328
14187TIP3    H242505   4.248   1.472   0.526 -0.1269  0.5410 -1.9811
14188TIP3   OH242506   7.566   4.262   6.011 -0.1839  0.4577  0.0691
14188TIP3    H142507   7.619   4.342   6.014 -0.6266  0.7271  0.8181
14188TIP3    H242508   7.511   4.274   5.933 -1.5465  1.7309  1.2016
14189TIP3   OH242509   2.878   0.447   0.760 -0.1399  0.7314 -0.2274
14189TIP3    H142510   2.799   0.407   0.794 -0.6778  3.3576  1.7669
14189TIP3    H242511   2.847   0.517   0.703  0.7884 -0.8240 -2.7648
14190TIP3   OH242512   5.780   1.951   2.002  0.3303  0.4934 -0.1886
14190TIP3    H142513   5.853   1.989   1.955 -0.1786  0.3812 -1.0765
14190TIP3    H242514   5.726   2.026   2.028  0.5725  0.5499  0.1519
14191TIP3   OH242515   1.189   7.559   0.892 -0.4442  0.2835  0.1550
14191TIP3    H142516   1.258   7.517   0.841 -0.7556  0.1316 -0.1436
14191TIP3    H242517   1.227   7.570   0.979 -1.2129 -2.9506  0.9676
14192TIP3   OH242518   6.281   4.654   6.752  0.0884 -0.1208  0.2026
14192TIP3    H142519   6.251   4.744   6.760 -1.5800 -0.5611 -0.7257
14192TIP3    H242520   6.376   4.660   6.740 -0.3995  1.7390 -3.5257
14193TIP3   OH242521   4.111   0.459   2.761  0.3723 -0.3865  0.1307
14193TIP3    H142522   4.158   0.387   2.801 -0.1860 -1.0563 -0.4107
14193TIP3    H242523   4.175   0.500   2.702 -0.0334 -1.9509 -1.4100
14194TIP3   OH242524   7.049   4.933   4.779 -0.4497 -0.7129 -0.2005
14194TIP3    H142525   7.020   4.983   4.703 -2.6685 -0.3888  0.8207
14194TIP3    H242526   7.144   4.945   4.781 -0.6695  1.3814 -1.4129
14195TIP3   OH242527   3.861   1.692   0.354 -0.0829 -0.4454  0.4090
14195TIP3    H142528   3.911   1.774   0.356 -0.3027 -0.3210  0.8092
14195TIP3    H242529   3.772   1.718   0.375  0.1477 -1.0011  2.0930
14196TIP3   OH242530   5.792   1.155   1.029  0.3369  0.0019 -0.2110
14196TIP3    H142531   5.764   1.226   0.972 -0.4747 -1.0547 -1.1403
14196TIP3    H242532   5.714   1.100   1.040  1.0785 -1.0115  0.1115
14197TIP3   OH242533   4.790   0.962   1.762  0.2972  0.4041  0.1156
14197TIP3    H142534   4.821   0.992   1.848  2.7230 -2.3774  0.2945
14197TIP3    H242535   4.834   1.020   1.700  2.0577 -0.3751  0.5999
14198TIP3   OH242536   5.339   5.293   6.228 -0.0424 -0.1767 -0.3409
14198TIP3    H142537   5.308   5.363   6.170  1.0564  0.5731 -0.0389
14198TIP3    H242538   5.415   5.330   6.272  1.9572 -2.3425 -1.8508
14199TIP3   OH242539   1.511   7.083   0.582  0.2723 -0.2925 -0.1984
14199TIP3    H142540   1.579   7.086   0.649 -1.0737  2.3346  1.1106
14199TIP3    H242541   1.546   7.134   0.509 -0.4907  1.5802  0.7120
14200TIP3   OH242542   6.260   4.881   5.671 -0.3701  0.8543  0.1585
14200TIP3    H142543   6.204   4.879   5.749  1.1737 -2.1872  1.2473
14200TIP3    H242544   6.344   4.912   5.702 -0.1713  1.1300 -0.6325
14201TIP3   OH242545   7.356   5.160   5.293 -0.4203 -0.1681 -0.6259
14201TIP3    H142546   7.339   5.068   5.314  0.8244 -0.3076 -0.1779
14201TIP3    H242547   7.399   5.157   5.207 -2.6883  0.1856 -1.8049
14202TIP3   OH242548   2.159   0.179   4.314 -0.2491 -0.0292 -0.1438
14202TIP3    H142549   2.221   0.111   4.288  0.3662  0.9205 -1.1804
14202TIP3    H242550   2.208   0.232   4.377 -0.4647 -0.0830  0.0668
14203TIP3   OH242551   8.089   6.773   5.971 -0.5233  0.5141 -0.4441
14203TIP3    H142552   8.132   6.798   5.889  1.5244  0.9687  0.7250
14203TIP3    H242553   8.014   6.832   5.978 -0.9447  0.1922 -2.1890
14204TIP3   OH242554   6.989   4.746   6.414  0.1697 -0.3099 -0.3225
14204TIP3    H142555   6.947   4.751   6.328 -0.4735  1.1870  0.0643
14204TIP3    H242556   6.998   4.837   6.442 -0.3146 -0.7945  1.5090
14205TIP3   OH242557   5.007   3.150   0.953 -0.2770  0.2641  0.5297
14205TIP3    H142558   5.012   3.222   1.016 -2.1061 -0.4941  1.5886
14205TIP3    H242559   5.030   3.072   1.003  0.0966 -0.1060 -0.2095
14206TIP3   OH242560   7.141   4.003   6.476  0.0228 -0.2537  0.4366
14206TIP3    H142561   7.144   4.094   6.444 -1.4523 -0.4963 -0.4272
14206TIP3    H242562   7.228   3.988   6.513  0.7686  1.0450 -0.7328
14207TIP3   OH242563   7.250   3.521   5.630  0.1747 -0.0803 -0.0885
14207TIP3    H142564   7.184   3.460   5.597 -2.1605  1.8551  0.9163
14207TIP3    H242565   7.253   3.591   5.565  2.0875 -0.6898 -0.6994
14208TIP3   OH242566   4.629   4.007   1.376 -0.4671  0.3474 -0.9184
14208TIP3    H142567   4.546   3.964   1.394  1.2049 -2.8471 -0.4570
14208TIP3    H242568   4.652   3.979   1.287  2.0239 -2.2270  0.4358
14209TIP3   OH242569   6.257   0.953   1.025 -0.1987  0.0193 -0.2067
14209TIP3    H142570   6.162   0.941   1.037 -0.0749 -0.2609  0.5677
14209TIP3    H242571   6.278   0.901   0.948 -0.8140  0.7419 -0.8667
14210TIP3   OH242572   6.362   5.391   6.242  0.1936  0.4059 -0.1456
14210TIP3    H142573   6.303   5.333   6.290 -1.2078  1.1004 -0.9749
14210TIP3    H242574   6.450   5.366   6.271 -0.4645 -1.1529  0.5532
14211TIP3   OH242575   2.190   2.952   1.085 -0.3559  1.1185  0.0877
14211TIP3    H142576   2.280   2.926   1.102 -1.0630 -1.6144 -0.0808
14211TIP3    H242577   2.184   2.958   0.989 -0.0888  2.4449  0.1361
14212TIP3   OH242578   5.639   1.763   0.320 -0.1265  0.3248  0.3024
14212TIP3    H142579   5.617   1.784   0.230  0.5775 -0.0380  0.0434
14212TIP3    H242580   5.557   1.728   0.357 -0.1366 -0.5283 -0.4985
14213TIP3   OH242581   7.643   5.109   5.882 -0.3565  0.4875  0.0416
14213TIP3    H142582   7.608   5.162   5.809  0.1244  1.1659  0.2981
14213TIP3    H242583   7.596   5.141   5.959  1.4381  2.0289  0.5306
14214TIP3   OH242584   6.776   4.924   6.754  0.0452 -0.5150  0.0133
14214TIP3    H142585   6.742   4.870   6.683  0.9760 -1.0597 -0.0335
14214TIP3    H242586   6.871   4.918   6.745  0.1777 -0.7273  1.4049
14215TIP3   OH242587   2.406   2.942   0.460 -0.0460  0.9232  0.3499
14215TIP3    H142588   2.478   2.936   0.398 -0.5188 -0.2704 -0.0993
14215TIP3    H242589   2.352   3.015   0.429  0.0341  0.7005 -0.3072
14216TIP3   OH242590   4.612   2.866   1.417  0.3991 -0.7566 -0.2386
14216TIP3    H142591   4.649   2.789   1.459  0.9131  0.6631  1.9686
14216TIP3    H242592   4.681   2.932   1.423 -0.4143  0.1893 -1.1864
14217TIP3   OH242593   1.490   7.741   6.832 -0.4511  0.1496 -0.1471
14217TIP3    H142594   1.428   7.810   6.855  0.0436  0.4179  0.3880
14217TIP3    H242595   1.456   7.706   6.750 -0.1558  1.6900 -0.9451
14218TIP3   OH242596   8.184   5.190   6.575 -0.4019  0.1276  0.4309
14218TIP3    H142597   8.219   5.129   6.640 -0.8253 -0.6730 -0.0756
14218TIP3    H242598   8.258   5.247   6.553  0.4917 -1.2825 -0.3205
14219TIP3   OH242599   4.087   1.455   0.095 -0.1161 -0.4548 -0.7278
14219TIP3    H142600   4.061   1.376   0.048  1.7459 -1.1488 -0.6370
14219TIP3    H242601   4.129   1.422   0.175 -1.2956  0.6754  0.3828
14220TIP3   OH242602   5.186   6.331   6.324  0.4764 -0.2295 -0.0288
14220TIP3    H142603   5.214   6.253   6.371  0.3649  0.1775  0.7204
14220TIP3    H242604   5.197   6.309   6.232  0.1436 -1.2483  0.1673
14221TIP3   OH242605   6.472   4.931   5.846  0.1816 -0.3918 -0.3759
14221TIP3    H142606   6.565   4.951   5.855  0.1235 -0.1632 -0.2839
14221TIP3    H242607   6.450   4.879   5.923 -0.1877  1.0975  0.5288
14222TIP3   OH242608   1.275   7.810   0.264  0.0189 -0.0532  0.0172
14222TIP3    H142609   1.272   7.875   0.194  0.4891  0.3968  0.4086
14222TIP3    H242610   1.361   7.770   0.257 -0.2740 -0.6514 -0.2295
14223TIP3   OH242611   1.225   7.765   1.839 -0.0978 -0.4540  0.0308
14223TIP3    H142612   1.210   7.755   1.745  0.8229  0.3128 -0.2058
14223TIP3    H242613   1.236   7.860   1.852  0.6326 -0.6376  0.7783
14224TIP3   OH242614   6.806   5.936   6.923  0.4595 -0.0897 -0.1862
14224TIP3    H142615   6.761   5.853   6.941 -0.3641  0.4806  0.4652
14224TIP3    H242616   6.743   5.986   6.871  0.1697  0.8613  1.0465
14225TIP3   OH242617   5.596   5.665   5.315  0.5251  0.3750  0.6877
14225TIP3    H142618   5.642   5.645   5.234  0.7248 -0.1720  0.9364
14225TIP3    H242619   5.612   5.589   5.372  1.0024  1.0603  1.4955
14226TIP3   OH242620   3.490   1.484   0.515 -0.6258 -0.2585  0.6075
14226TIP3    H142621   3.476   1.463   0.423 -0.6175  2.8407 -0.1536
14226TIP3    H242622   3.579   1.454   0.533 -0.1169  0.4033 -0.7800
14227TIP3   OH242623   4.832   1.347  -0.011  0.3251  0.1289 -0.1493
14227TIP3    H142624   4.903   1.286   0.010 -0.2002 -0.7648 -0.9459
14227TIP3    H242625   4.824   1.402   0.067  0.9304 -0.7008  0.5014
14228TIP3   OH242626   5.463   3.749   5.016  0.0471 -0.5422  0.5936
14228TIP3    H142627   5.403   3.756   5.090 -0.7895 -2.6087  0.1319
14228TIP3    H242628   5.550   3.740   5.057 -0.1743  0.3464  1.2791
14229TIP3   OH242629   6.534   2.890   6.227  0.6844  0.5680 -0.3124
14229TIP3    H142630   6.619   2.933   6.222  1.1354 -0.1835  0.7018
14229TIP3    H242631   6.553   2.802   6.260 -0.3528 -0.0194 -1.2195
14230TIP3   OH242632   0.730   7.438   1.208 -0.7128  0.1086  0.1874
14230TIP3    H142633   0.796   7.475   1.149 -0.0341  0.5855  1.2273
14230TIP3    H242634   0.698   7.360   1.162  0.9476 -0.4129 -0.1211
14231TIP3   OH242635   1.897   7.089   0.886  0.3615  0.1038 -0.2545
14231TIP3    H142636   1.956   7.018   0.912 -0.1119  0.0157  0.5977
14231TIP3    H242637   1.845   7.053   0.814  0.6594 -0.1511 -0.3424
14232TIP3   OH242638   5.489   1.312   0.947  0.1396 -0.5050  0.1242
14232TIP3    H142639   5.544   1.340   1.020  1.1706 -2.0994  0.0008
14232TIP3    H242640   5.511   1.372   0.876  0.6720 -0.2290  0.5169
14233TIP3   OH242641   6.233   2.758   1.341 -0.2048 -0.1669 -0.3415
14233TIP3    H142642   6.301   2.752   1.274 -0.3006  0.6886 -0.5192
14233TIP3    H242643   6.159   2.799   1.297 -0.1975  0.5956  0.3389
14234TIP3   OH242644   6.478   3.479   5.359 -0.2288  0.3547  0.2213
14234TIP3    H142645   6.471   3.525   5.442  0.9182 -1.4416  1.3507
14234TIP3    H242646   6.461   3.387   5.381 -2.1646  0.1386 -1.9104
14235TIP3   OH242647   5.760   3.187   0.727 -1.0769  0.0964  0.3460
14235TIP3    H142648   5.801   3.223   0.648 -2.9326  0.6996 -0.3614
14235TIP3    H242649   5.732   3.264   0.776 -0.8324 -0.2982  1.1030
14236TIP3   OH242650   0.869   6.960   0.045 -0.2526 -0.0394 -0.4328
14236TIP3    H142651   0.832   6.887  -0.006 -0.7163 -1.5739  1.9867
14236TIP3    H242652   0.953   6.928   0.075 -0.7113  0.1904  1.1298
14237TIP3   OH242653   5.613   5.178   6.635  0.1212 -0.1134 -0.0492
14237TIP3    H142654   5.677   5.249   6.641  2.5892 -2.2632  0.2727
14237TIP3    H242655   5.582   5.166   6.725 -0.8797  1.0384 -0.2319
14238TIP3   OH242656   4.379   4.900   6.947  0.2072  0.9912  0.3380
14238TIP3    H142657   4.319   4.972   6.962 -0.4847 -0.1594  3.5660
14238TIP3    H242658   4.349   4.860   6.866 -1.8444  1.9710  0.5874
14239TIP3   OH242659   7.124   4.896   3.876  0.0164  0.3763 -0.5183
14239TIP3    H142660   7.172   4.972   3.909  0.1407 -1.1290  2.9838
14239TIP3    H242661   7.188   4.847   3.825  1.3352  0.0784  1.3748
14240TIP3   OH242662   0.071   5.506   6.666 -0.1868 -0.6002 -0.3358
14240TIP3    H142663   0.024   5.484   6.746  1.3882 -1.1315  0.4520
14240TIP3    H242664   0.020   5.464   6.596 -2.4154  1.1475  0.1976
14241TIP3   OH242665   0.677   7.982   0.065  0.7767  0.0092 -0.2920
14241TIP3    H142666   0.652   7.964   0.155 -2.0059  0.3244 -0.9630
14241TIP3    H242667   0.680   7.896   0.023  1.7652 -0.1101  0.0115
14242TIP3   OH242668   4.944   3.665   0.957  0.0854 -0.3786  0.1488
14242TIP3    H142669   4.918   3.651   1.048 -0.4430  0.0085  0.0651
14242TIP3    H242670   4.863   3.696   0.914  0.6895  0.8603 -0.1214
14243TIP3   OH242671   2.671   1.377   1.997 -0.0208 -0.2043 -0.8927
14243TIP3    H142672   2.634   1.388   2.084 -0.3347  0.4712 -1.1134
14243TIP3    H242673   2.742   1.442   1.992  0.6053 -0.8678 -0.8047
14244TIP3   OH242674   4.191   1.184   0.268 -0.0241 -0.2518  0.4043
14244TIP3    H142675   4.191   1.204   0.361  1.7532 -1.4617  0.6956
14244TIP3    H242676   4.153   1.096   0.261 -2.5695  0.8772 -0.2889
14245TIP3   OH242677   4.478   2.409   0.294 -0.6142 -0.1903 -0.2690
14245TIP3    H142678   4.522   2.474   0.349  0.3282 -0.3520 -0.8257
14245TIP3    H242679   4.395   2.392   0.339 -0.7108  1.1268  0.0677
14246TIP3   OH242680   5.392   1.626   0.071 -0.0760  0.4804 -0.1146
14246TIP3    H142681   5.468   1.683   0.081  0.9185 -0.8454 -0.1210
14246TIP3    H242682   5.325   1.683   0.033  0.7291  1.7936  0.3980
14247TIP3   OH242683   4.486   1.205   1.693  0.4520 -0.2899  0.5573
14247TIP3    H142684   4.427   1.275   1.664  1.5007  0.1696 -0.5298
14247TIP3    H242685   4.565   1.250   1.720  0.5381 -0.9485  1.4008
14248TIP3   OH242686   4.910   1.163   0.505  0.0816  0.0144  0.3749
14248TIP3    H142687   4.893   1.252   0.536 -0.3712  0.1606 -0.2753
14248TIP3    H242688   4.926   1.112   0.584 -1.1117  0.3583  0.8434
14249TIP3   OH242689   3.139   1.262   1.606 -0.4142 -0.6526 -0.1280
14249TIP3    H142690   3.231   1.255   1.581  0.1954  0.4938  1.7040
14249TIP3    H242691   3.137   1.232   1.697 -1.5003  1.2721  0.4979
14250TIP3   OH242692   5.581   6.084   5.239 -0.0478 -0.5072  0.2253
14250TIP3    H142693   5.571   6.179   5.247 -2.0691 -0.6784 -0.0116
14250TIP3    H242694   5.673   6.069   5.256  0.6508  1.6663 -1.3662
14251TIP3   OH242695   6.955   6.466   4.724  0.0228 -0.0695 -0.6468
14251TIP3    H142696   6.873   6.487   4.767  2.1494  1.6074  2.7873
14251TIP3    H242697   6.971   6.540   4.665 -1.4900 -0.9969 -2.2623
14252TIP3   OH242698   3.768   1.007   1.633 -0.8054 -0.2391  0.0476
14252TIP3    H142699   3.693   0.962   1.593  1.0927 -2.0635 -1.6257
14252TIP3    H242700   3.842   0.949   1.615  0.9293  1.2648  2.1194
14253TIP3   OH242701   1.887   6.991   6.028  0.3811  0.8023  0.6382
14253TIP3    H142702   1.837   7.030   6.099 -1.3261 -3.2411  1.7908
14253TIP3    H242703   1.867   6.897   6.033  3.3967 -0.1237 -2.6497
14254TIP3   OH242704   6.261   5.623   6.517 -0.1549 -0.0109  0.0934
14254TIP3    H142705   6.259   5.609   6.422 -2.3365  1.8924 -0.1988
14254TIP3    H242706   6.301   5.709   6.528 -0.9749  0.2898  0.8134
14255TIP3   OH242707   3.973   1.031   0.396 -0.3922 -0.2084 -0.5807
14255TIP3    H142708   3.899   0.971   0.408 -0.6527  0.4223  1.1840
14255TIP3    H242709   3.952   1.106   0.451  1.6569 -0.1120  0.1294
14256TIP3   OH242710   6.639   6.291   5.099  0.0463  0.2670 -0.0151
14256TIP3    H142711   6.672   6.349   5.030 -0.3507  0.8286  0.2621
14256TIP3    H242712   6.585   6.226   5.052  2.9445 -1.7604 -0.6976
14257TIP3   OH242713   2.682   0.045   0.790  0.3081 -0.0412 -0.8721
14257TIP3    H142714   2.689   0.041   0.694  1.2372 -0.6284 -0.7863
14257TIP3    H242715   2.744  -0.020   0.821 -1.3348 -1.1759  0.1121
14258TIP3   OH242716   6.451   2.170   1.731 -0.0387 -0.1885  0.1536
14258TIP3    H142717   6.387   2.145   1.665 -0.0025  1.2929 -0.4710
14258TIP3    H242718   6.517   2.220   1.682 -0.9494  2.5077  1.5866
14259TIP3   OH242719   2.468   0.370   1.257 -0.8407 -0.1791 -0.2714
14259TIP3    H142720   2.480   0.464   1.260 -0.2476 -0.2723  0.4691
14259TIP3    H242721   2.439   0.346   1.345 -2.3308 -0.5112 -0.8465
14260TIP3   OH242722   6.981   6.423   6.856 -0.9429 -0.1214  0.0290
14260TIP3    H142723   6.968   6.367   6.779  3.3074 -0.9674 -0.1503
14260TIP3    H242724   6.980   6.363   6.930  2.5864 -0.3684 -0.0732
14261TIP3   OH242725   7.475   4.536   6.164 -0.3425 -0.0133  0.4611
14261TIP3    H142726   7.485   4.586   6.244 -0.4047 -0.1459  0.5515
14261TIP3    H242727   7.559   4.493   6.151  0.0069  0.8313 -0.1037
14262TIP3   OH242728   4.736   3.836   0.831  0.0961 -0.0755  0.5529
14262TIP3    H142729   4.765   3.891   0.904 -1.4991  0.8834  0.4818
14262TIP3    H242730   4.643   3.857   0.821  0.2882 -0.2537 -1.7104
14263TIP3   OH242731   4.642   0.818   1.990 -0.4542 -0.1752 -0.4456
14263TIP3    H142732   4.692   0.866   1.924  1.1063  1.0522  1.5563
14263TIP3    H242733   4.553   0.850   1.981 -0.3062 -0.1460 -2.0498
14264TIP3   OH242734   0.498   4.735   5.391 -0.3084  0.6217 -0.2364
14264TIP3    H142735   0.497   4.767   5.481  1.1574  0.1323 -0.0448
14264TIP3    H242736   0.466   4.645   5.397  0.0491  0.4997 -0.1757
14265TIP3   OH242737   7.904   4.978   6.573 -0.0211  0.0747 -0.0084
14265TIP3    H142738   7.842   5.022   6.632 -1.0048  0.6382 -1.4194
14265TIP3    H242739   7.907   4.887   6.604 -2.4314 -0.2300 -0.5843
14266TIP3   OH242740   5.531   5.063   6.862  0.2711  0.3125  0.7230
14266TIP3    H142741   5.495   5.141   6.906 -0.7382  1.0421 -1.3306
14266TIP3    H242742   5.464   4.996   6.874  0.3471  0.2794  0.9663
14267TIP3   OH242743   2.978   1.317   1.382  0.5119 -0.0977 -0.7520
14267TIP3    H142744   3.028   1.310   1.463  2.0975 -1.2820 -1.8041
14267TIP3    H242745   3.036   1.282   1.314 -1.6380 -1.3073 -2.0497
14268TIP3   OH242746   5.104   2.873   0.512 -0.5458  0.1114 -0.3306
14268TIP3    H142747   5.041   2.945   0.513 -0.8421 -0.1434 -0.4338
14268TIP3    H242748   5.054   2.797   0.542  0.6990  0.6998  3.4608
14269TIP3   OH242749   6.124   6.398   6.378  0.1365 -0.0437 -0.0966
14269TIP3    H142750   6.085   6.471   6.330  0.1315 -1.5738 -2.5516
14269TIP3    H242751   6.070   6.389   6.456 -1.0069  1.3918 -0.6967
14270TIP3   OH242752   6.795   6.563   3.596 -0.1041 -0.0811 -0.0987
14270TIP3    H142753   6.828   6.474   3.611  0.7489  0.2363 -0.1081
14270TIP3    H242754   6.872   6.619   3.604 -0.8148  0.7656  0.8811
14271TIP3   OH242755   4.684   3.635   5.289 -0.0553  0.2286 -0.0489
14271TIP3    H142756   4.619   3.568   5.270 -1.0667  0.9835  0.6639
14271TIP3    H242757   4.729   3.605   5.367 -0.2332  0.1844  0.0353
14272TIP3   OH242758   7.206   7.848   6.269  0.0318 -0.1378 -0.2228
14272TIP3    H142759   7.182   7.880   6.182  0.0228 -1.3704 -0.6802
14272TIP3    H242760   7.184   7.921   6.328 -0.9959  0.2936 -1.1166
14273TIP3   OH242761   1.281   7.663   1.126  0.0714  0.1676 -0.3672
14273TIP3    H142762   1.256   7.617   1.206  1.1313  0.8737  0.3809
14273TIP3    H242763   1.323   7.744   1.157  0.1271  0.6330 -1.6381
14274TIP3   OH242764  -0.011   4.685   6.312 -0.2634 -0.4064 -0.1009
14274TIP3    H142765   0.079   4.716   6.318 -0.4888  0.6242 -1.7064
14274TIP3    H242766  -0.025   4.636   6.393  1.5542 -0.1097  0.4161
14275TIP3   OH242767   7.431   5.823   6.585 -0.2441 -0.1043  0.0781
14275TIP3    H142768   7.343   5.847   6.614 -0.8289  1.1091 -2.5658
14275TIP3    H242769   7.486   5.895   6.615 -0.1234 -0.8428  1.6958
14276TIP3   OH242770   5.905   7.469   4.303 -0.0513  0.1554  0.4261
14276TIP3    H142771   5.999   7.477   4.320 -0.3531  1.0096  1.7629
14276TIP3    H242772   5.892   7.376   4.283  1.0748  0.0379  0.2191
14277TIP3   OH242773   7.301   6.569   0.340  0.2141 -0.6204  0.5369
14277TIP3    H142774   7.277   6.650   0.295  1.4953 -1.6942 -2.1854
14277TIP3    H242775   7.217   6.533   0.371 -0.6302  0.4833 -0.4120
14278TIP3   OH242776   3.760   0.366   2.622  0.3545 -0.0060  0.0931
14278TIP3    H142777   3.683   0.314   2.646 -0.1573  0.9140  0.5256
14278TIP3    H242778   3.725   0.434   2.565  0.5892  1.2648  1.4214
14279TIP3   OH242779   8.218   4.155   6.566  0.2606 -0.2362 -0.0228
14279TIP3    H142780   8.191   4.125   6.479  0.5175 -1.2603  0.2471
14279TIP3    H242781   8.215   4.250   6.560  0.6329 -0.2925 -1.2717
14280TIP3   OH242782   8.148   7.101   3.496 -0.8662  0.6722 -0.3661
14280TIP3    H142783   8.229   7.070   3.456 -1.5781 -0.0497 -1.2769
14280TIP3    H242784   8.107   7.023   3.533 -0.7988  1.1463  0.7291
14281TIP3   OH242785   4.572   0.396   1.172  0.1300  0.1117 -0.4694
14281TIP3    H142786   4.608   0.401   1.260  1.4717 -0.9705 -0.9259
14281TIP3    H242787   4.546   0.304   1.163 -1.1249  0.4921 -0.7745
14282TIP3   OH242788   4.541   1.973   0.057 -0.1851 -0.2240  0.7933
14282TIP3    H142789   4.632   1.988   0.033 -0.3610  0.0140  0.2668
14282TIP3    H242790   4.506   1.918  -0.013 -1.0018  1.3809 -0.1114
14283TIP3   OH242791   3.821   2.161   1.923  0.2679  0.2027  0.1667
14283TIP3    H142792   3.775   2.093   1.874  1.1996 -0.8982  0.7869
14283TIP3    H242793   3.847   2.225   1.857  1.3193 -1.1579 -0.7709
14284TIP3   OH242794   6.788   7.180   6.609 -1.0185  0.2272 -0.3789
14284TIP3    H142795   6.717   7.241   6.628  0.1233  1.0657  1.3208
14284TIP3    H242796   6.790   7.121   6.684 -0.8721 -0.7251 -1.1219
14285TIP3   OH242797   4.749   1.431   1.737 -0.8794 -0.5124 -0.1889
14285TIP3    H142798   4.707   1.491   1.799 -0.4363  1.0390 -1.3544
14285TIP3    H242799   4.838   1.421   1.771 -0.8529 -0.2460 -0.1800
14286TIP3   OH242800   5.142   0.603   0.249  0.3842 -0.4407  0.7003
14286TIP3    H142801   5.212   0.540   0.264  2.4625  1.0069 -2.5221
14286TIP3    H242802   5.077   0.555   0.197 -0.4707 -1.3704  2.5554
14287TIP3   OH242803   3.602   1.268   0.788  0.2658  0.2194 -0.4432
14287TIP3    H142804   3.694   1.248   0.802  0.6169  2.3711  0.5497
14287TIP3    H242805   3.576   1.213   0.714  1.6953 -2.1735  0.7604
14288TIP3   OH242806   6.147   6.396   5.471 -0.0280 -0.9064  0.1995
14288TIP3    H142807   6.214   6.464   5.455  0.3634 -0.9236  1.6414
14288TIP3    H242808   6.090   6.400   5.395  1.7751 -1.0675 -1.2013
14289TIP3   OH242809   7.206   4.260   6.418  0.0031 -0.3300 -0.5651
14289TIP3    H142810   7.224   4.320   6.346 -0.7062  0.0581 -0.4259
14289TIP3    H242811   7.292   4.227   6.445  0.5073  1.4817  0.0994
14290TIP3   OH242812   7.423   5.034   6.715  0.3598 -0.1876  0.1176
14290TIP3    H142813   7.412   4.976   6.641  1.4773  2.5897 -2.3459
14290TIP3    H242814   7.334   5.059   6.740 -0.0165 -0.8632 -0.5442
14291TIP3   OH242815   5.508   2.101   0.754 -0.7030  0.3620  0.2382
14291TIP3    H142816   5.577   2.055   0.802 -0.5108 -1.1987 -1.4853
14291TIP3    H242817   5.429   2.085   0.804 -0.1422  0.5936  1.2158
14292TIP3   OH242818   8.007   6.422   6.769 -0.4830 -0.1454  0.3327
14292TIP3    H142819   7.992   6.500   6.822 -1.2370 -0.3369  0.4012
14292TIP3    H242820   8.091   6.387   6.800 -0.8597 -0.1857  1.2946
14293TIP3   OH242821   0.231   3.840   5.246  0.4516 -0.5424 -0.5892
14293TIP3    H142822   0.266   3.751   5.252  1.6197 -0.1112 -0.9244
14293TIP3    H242823   0.159   3.834   5.184 -0.9476 -1.7083  1.1103
14294TIP3   OH242824   4.831   1.647   2.663  0.5649  0.7990 -0.3213
14294TIP3    H142825   4.925   1.637   2.647  0.6023 -0.1292  0.4336
14294TIP3    H242826   4.817   1.607   2.749 -0.4561  1.2840 -0.2608
14295TIP3   OH242827   1.665   3.488   6.278  0.1032 -0.2541 -0.1020
14295TIP3    H142828   1.669   3.499   6.373 -0.4318 -0.4116 -0.0631
14295TIP3    H242829   1.733   3.423   6.259 -1.2728 -1.8899  0.4329
14296TIP3   OH242830   0.264   6.412   2.749  0.5284  0.2138 -0.4455
14296TIP3    H142831   0.180   6.375   2.720  0.8409 -0.7699 -0.0804
14296TIP3    H242832   0.315   6.420   2.668  0.4234 -0.0431 -0.5366
14297TIP3   OH242833   8.185   7.742   0.602  0.0787 -0.0225 -0.5254
14297TIP3    H142834   8.238   7.734   0.681  0.2907 -0.3957 -0.7060
14297TIP3    H242835   8.118   7.807   0.625  0.4199  0.2152 -0.1947
14298TIP3   OH242836   5.460   1.877   1.463  0.0234 -0.5065  0.0392
14298TIP3    H142837   5.481   1.925   1.383 -0.2768  1.3814  1.0776
14298TIP3    H242838   5.485   1.936   1.534 -1.8995 -1.2057  1.3394
14299TIP3   OH242839   8.067   2.378   6.958  0.3088 -0.2956 -0.0334
14299TIP3    H142840   8.162   2.390   6.961  0.6479 -2.7887 -0.0469
14299TIP3    H242841   8.037   2.446   6.897  1.8856  1.5164  1.1644
14300TIP3   OH242842   0.155   7.725   0.060  0.1268  0.0248 -0.0379
14300TIP3    H142843   0.148   7.779  -0.019 -2.0613 -2.2289 -1.4621
14300TIP3    H242844   0.114   7.777   0.129  1.6677  1.8329 -0.4377
14301TIP3   OH242845   4.221   1.797   0.454  0.6872 -0.9379  0.2194
14301TIP3    H142846   4.292   1.861   0.463  1.0177 -1.3939  0.9043
14301TIP3    H242847   4.175   1.823   0.374  1.1544 -0.1754  0.1969
14302TIP3   OH242848   2.510   7.635   2.821 -0.0271  0.2089 -0.0639
14302TIP3    H142849   2.534   7.544   2.803 -1.1192  0.1613 -1.3319
14302TIP3    H242850   2.528   7.646   2.914  1.6760 -0.8193 -0.2439
14303TIP3   OH242851   4.510   0.767   0.610  0.4616  0.0303  0.3085
14303TIP3    H142852   4.445   0.757   0.680  0.3691 -0.7432  0.1179
14303TIP3    H242853   4.458   0.779   0.531  0.5160 -1.9973 -0.0574
14304TIP3   OH242854   6.121   5.407   4.204  0.3431  0.1615  0.1796
14304TIP3    H142855   6.155   5.454   4.280 -0.1900 -1.5358  1.4941
14304TIP3    H242856   6.184   5.427   4.134  1.2299  1.1737  1.2395
14305TIP3   OH242857   6.027   1.849   0.623  0.5837 -0.0201  0.0611
14305TIP3    H142858   6.000   1.889   0.706  2.2362  2.2566 -0.4306
14305TIP3    H242859   5.955   1.869   0.563  1.3070  2.1340 -0.1293
14306TIP3   OH242860   7.669   6.661   3.669  0.0242 -0.2648 -0.4075
14306TIP3    H142861   7.654   6.594   3.603  1.0111  0.3251 -1.2442
14306TIP3    H242862   7.629   6.625   3.749  0.3207 -1.7313 -0.9011
14307TIP3   OH242863   2.280   1.027   2.516 -0.2502  0.0790  0.3074
14307TIP3    H142864   2.311   1.115   2.537  0.5045  0.3467 -1.8415
14307TIP3    H242865   2.201   1.042   2.463  2.1493 -0.4081 -3.5917
14308TIP3   OH242866   3.031   0.206   0.757  0.6164  0.5310  0.1614
14308TIP3    H142867   2.980   0.286   0.743  1.3378  0.7701 -1.1242
14308TIP3    H242868   3.066   0.184   0.671  1.6814 -0.3215  0.7997
14309TIP3   OH242869   3.748   0.306   1.349  0.0556 -0.0497 -0.2272
14309TIP3    H142870   3.674   0.247   1.338 -0.5683  0.5826  0.4783
14309TIP3    H242871   3.761   0.345   1.262 -1.8803  1.5013  0.1564
14310TIP3   OH242872   6.341   3.885   5.220  0.1751 -0.1025 -0.5080
14310TIP3    H142873   6.349   3.918   5.309 -1.6394 -0.9810 -0.0048
14310TIP3    H242874   6.389   3.802   5.222  0.9462  0.3325 -0.6141
14311TIP3   OH242875   7.803   0.380   0.497  0.1470 -0.2838 -0.0199
14311TIP3    H142876   7.887   0.382   0.451 -0.0232 -1.6375 -0.3834
14311TIP3    H242877   7.746   0.328   0.441 -0.6013 -0.3426  0.7980
14312TIP3   OH242878   7.574   6.324   6.822 -0.1912 -0.3589  0.5225
14312TIP3    H142879   7.552   6.316   6.914 -0.7439 -1.0769  0.3285
14312TIP3    H242880   7.550   6.240   6.783 -0.5349  0.1533 -0.3904
14313TIP3   OH242881   6.914   6.253   6.339 -0.3423  0.1000  0.0433
14313TIP3    H142882   6.977   6.300   6.394  0.6345 -2.5036  1.1898
14313TIP3    H242883   6.904   6.310   6.262  2.2703  1.3021  0.5108
14314TIP3   OH242884   7.488   0.158   1.787  0.1975 -0.2929 -0.1926
14314TIP3    H142885   7.496   0.253   1.788  3.3411 -0.4888 -2.1484
14314TIP3    H242886   7.557   0.127   1.847 -0.5882 -1.3691  0.1881
14315TIP3   OH242887   4.691   2.824   0.551 -0.5863 -0.5020  0.0339
14315TIP3    H142888   4.688   2.852   0.643 -0.9005  1.2404 -0.4905
14315TIP3    H242889   4.756   2.881   0.511  1.2837 -2.8162 -0.3550
14316TIP3   OH242890   7.407   7.366   6.730  0.4930 -0.0104  0.2650
14316TIP3    H142891   7.352   7.421   6.786 -0.0738 -0.3284  0.0267
14316TIP3    H242892   7.475   7.425   6.698 -2.0272  1.4348 -2.7265
14317TIP3   OH242893   2.282   7.720   0.810 -0.1185  0.2181 -0.1687
14317TIP3    H142894   2.369   7.703   0.848 -0.6170  0.6483  1.1938
14317TIP3    H242895   2.267   7.645   0.751  1.5589  0.6049 -1.1352
14318TIP3   OH242896   1.580   7.998   2.280  0.1061 -0.0720 -0.1490
14318TIP3    H142897   1.534   7.945   2.216  2.8329 -3.4302  0.5061
14318TIP3    H242898   1.512   8.028   2.340 -1.8105 -1.0016 -1.8173
14319TIP3   OH242899   7.269   3.127   6.788 -0.1038 -0.4060 -0.1298
14319TIP3    H142900   7.331   3.120   6.860 -0.0606  0.9290 -0.0145
14319TIP3    H242901   7.235   3.217   6.794 -2.9871 -1.4667  0.5806
14320TIP3   OH242902   6.723   3.691   6.756 -0.1109 -0.4179 -0.0554
14320TIP3    H142903   6.669   3.680   6.834  0.7110  0.3332  0.6308
14320TIP3    H242904   6.812   3.698   6.790  0.0410  1.9602 -0.9009
14321TIP3   OH242905   4.770   1.713   0.979 -0.0708  0.4299 -0.2486
14321TIP3    H142906   4.725   1.738   0.898 -0.3765 -1.7605 -0.8045
14321TIP3    H242907   4.854   1.676   0.949  0.2035  0.4329  0.4947
14322TIP3   OH242908   0.450   3.054   6.038 -0.2877 -0.0913 -0.0235
14322TIP3    H142909   0.384   3.114   6.073  0.0720  0.2119  0.1448
14322TIP3    H242910   0.438   2.973   6.087 -2.3735 -0.9655 -1.9168
14323TIP3   OH242911   0.359   5.626   3.857  0.8192 -0.7895  0.1240
14323TIP3    H142912   0.366   5.540   3.900 -0.1704  0.0595  2.0578
14323TIP3    H242913   0.325   5.606   3.770  0.9588 -2.3973  0.4108
14324TIP3   OH242914   8.067   5.663   6.077 -0.2064  0.3822 -0.2760
14324TIP3    H142915   8.127   5.678   6.004 -0.4347  0.2378 -0.4975
14324TIP3    H242916   8.027   5.578   6.057  0.1935  0.0444  0.3416
14325TIP3   OH242917   6.511   5.717   4.168 -0.1839 -0.1613 -1.1560
14325TIP3    H142918   6.535   5.719   4.260  1.4787  0.9428 -1.5997
14325TIP3    H242919   6.584   5.672   4.125 -0.2908  0.5927 -2.1279
14326TIP3   OH242920   6.232   4.177   0.624  0.3948 -0.0528  0.3163
14326TIP3    H142921   6.254   4.270   0.626 -3.8003  1.0865 -1.0523
14326TIP3    H242922   6.230   4.150   0.716  1.4134  1.2799  0.7334
14327TIP3   OH242923   0.805   5.978   4.877  0.3622  0.3702 -0.2258
14327TIP3    H142924   0.780   5.886   4.878 -0.4376  0.5517 -1.6004
14327TIP3    H242925   0.736   6.021   4.827  1.5964  1.4450 -1.0426
14328TIP3   OH242926   7.299   7.711   5.958 -0.2592  0.0327 -0.2556
14328TIP3    H142927   7.340   7.788   5.920  1.1852 -0.6213 -0.0518
14328TIP3    H242928   7.205   7.729   5.953  0.0544  1.7232 -0.3630
14329TIP3   OH242929   0.452   3.321   5.437 -0.4056 -0.5969 -0.1991
14329TIP3    H142930   0.444   3.232   5.472 -2.5235 -1.0583 -1.7583
14329TIP3    H242931   0.486   3.309   5.349  0.4340  0.2489 -0.0019
14330TIP3   OH242932   5.911   4.507   6.310 -0.0002 -0.1738 -0.4062
14330TIP3    H142933   5.857   4.443   6.265  0.5550 -0.2998 -0.9034
14330TIP3    H242934   5.925   4.576   6.246 -1.3069  0.8701  0.4066
14331TIP3   OH242935   8.237   5.745   5.880 -0.4268  0.1273  0.5086
14331TIP3    H142936   8.268   5.831   5.853  0.5726 -0.4617 -0.2937
14331TIP3    H242937   8.280   5.684   5.820 -1.9727 -0.8525  0.3637
14332TIP3   OH242938   0.426   5.253   5.534  0.1446 -0.9241 -0.5517
14332TIP3    H142939   0.437   5.254   5.439 -0.3836 -1.3403 -0.6215
14332TIP3    H242940   0.460   5.168   5.561 -0.2372 -1.0418 -0.4379
14333TIP3   OH242941   0.890   2.999   5.662  0.1772  0.3285 -0.4517
14333TIP3    H142942   0.807   2.969   5.625 -0.1706  0.4991  0.1908
14333TIP3    H242943   0.949   2.925   5.652 -0.8541 -0.8125  1.7383
14334TIP3   OH242944   0.400   7.307   6.228  0.7135  0.6621 -0.0529
14334TIP3    H142945   0.451   7.298   6.148 -2.0137  2.6505 -2.0636
14334TIP3    H242946   0.339   7.233   6.226  1.4834 -0.0203  0.8809
14335TIP3   OH242947   5.732   6.483   5.087  0.3183  0.5526 -0.0956
14335TIP3    H142948   5.707   6.558   5.033  1.7974  1.3204  0.2656
14335TIP3    H242949   5.656   6.468   5.144 -0.4494  1.0156 -0.9959
14336TIP3   OH242950   8.466   6.184   4.343  0.0528  0.3201 -0.0598
14336TIP3    H142951   8.499   6.131   4.271  0.4717 -0.7926  0.9331
14336TIP3    H242952   8.375   6.203   4.319  1.1306  2.8618 -2.4918
14337TIP3   OH242953   6.733   5.550   3.686  0.5456  0.0905 -0.3201
14337TIP3    H142954   6.765   5.566   3.597  0.0059  0.4012 -0.4641
14337TIP3    H242955   6.643   5.519   3.673  0.0509  1.3042  0.1734
14338TIP3   OH242956   0.405   4.281   5.975  0.1739  0.6829 -0.0755
14338TIP3    H142957   0.380   4.348   5.911  0.5197 -0.0390 -0.9795
14338TIP3    H242958   0.339   4.287   6.044  0.1892  1.9400 -0.1653
14339TIP3   OH242959   6.163   1.667   0.134 -0.0499  0.2674 -0.1171
14339TIP3    H142960   6.144   1.595   0.193  2.7543  0.8751  1.6453
14339TIP3    H242961   6.189   1.625   0.052 -0.7909 -0.6638  0.1230
14340TIP3   OH242962   5.537   1.041   1.048 -0.1948 -0.1371  0.0091
14340TIP3    H142963   5.505   1.118   1.001 -0.4424 -1.0572 -1.3687
14340TIP3    H242964   5.545   1.070   1.139 -0.3541  1.4887 -0.4721
14341TIP3   OH242965   0.261   5.415   5.697 -0.2672 -0.4299  0.1958
14341TIP3    H142966   0.312   5.496   5.695  0.0137 -0.6212 -0.8009
14341TIP3    H242967   0.320   5.349   5.660 -0.5857 -1.0386  0.7569
14342TIP3   OH242968   8.498   5.852   6.176  0.3602 -0.5090  0.1400
14342TIP3    H142969   8.517   5.834   6.268  2.5607 -2.2464 -0.6254
14342TIP3    H242970   8.442   5.779   6.149 -1.0428  0.4864  0.3285
14343TIP3   OH242971   0.768   6.043   4.459 -0.5046 -0.0214  0.9526
14343TIP3    H142972   0.682   6.002   4.473 -0.1275 -0.1646  3.0208
14343TIP3    H242973   0.759   6.131   4.494 -0.0142  0.1989  0.5294
14344TIP3   OH242974   7.482   5.130   6.094 -0.2486  0.3713 -0.0107
14344TIP3    H142975   7.451   5.039   6.087 -0.8601  0.5899 -0.2373
14344TIP3    H242976   7.543   5.129   6.167 -0.6206 -0.1287  0.3001
14345TIP3   OH242977   6.659   5.731   4.846  0.1692 -0.9872  1.0168
14345TIP3    H142978   6.672   5.785   4.924  1.5790  0.3895 -0.1321
14345TIP3    H242979   6.744   5.692   4.829  0.2301 -0.2138 -0.5909
14346TIP3   OH242980   8.248   2.809   2.929  0.3055  0.8692  0.2308
14346TIP3    H142981   8.307   2.880   2.906 -1.0963  1.9721 -0.0058
14346TIP3    H242982   8.244   2.811   3.024  1.4898  0.0748  0.3177
14347TIP3   OH242983   3.010   5.295   6.182 -0.2513 -0.0796  0.0357
14347TIP3    H142984   3.087   5.243   6.207 -0.8681 -0.9071  0.2471
14347TIP3    H242985   3.043   5.384   6.171  0.6426 -0.3301  0.6425
14348TIP3   OH242986   2.119   6.793   6.422 -0.7266  0.7813 -0.1472
14348TIP3    H142987   2.206   6.786   6.460 -1.7983 -3.2457  1.9041
14348TIP3    H242988   2.133   6.786   6.328  1.2773  1.8122  0.0514
14349TIP3   OH242989   2.192   7.677   6.600  0.3993 -0.2539 -0.0577
14349TIP3    H142990   2.280   7.706   6.623  1.0255 -0.5764 -2.0152
14349TIP3    H242991   2.203   7.622   6.523 -1.4749 -0.6172 -0.1023
14350TIP3   OH242992   5.479   0.162   0.247  0.2471 -0.0937  0.5696
14350TIP3    H142993   5.497   0.131   0.159 -2.2893  1.2154 -0.4367
14350TIP3    H242994   5.397   0.120   0.272 -0.2160  1.2722  1.4228
14351TIP3   OH242995   8.239   1.472   1.108  0.0501 -0.0479 -0.0047
14351TIP3    H142996   8.259   1.495   1.199  0.4361  2.1204 -0.6074
14351TIP3    H242997   8.150   1.437   1.111 -0.2770  0.8334  1.0877
14352TIP3   OH242998   7.097   0.867   0.736 -0.1024 -0.1028  0.4401
14352TIP3    H142999   7.127   0.948   0.696 -0.7792  0.3332  0.8071
14352TIP3    H243000   7.076   0.810   0.662  1.8021 -0.4940  0.1714
14353TIP3   OH243001   0.263   1.054   1.423  0.7729  0.2397  0.1156
14353TIP3    H143002   0.355   1.040   1.400  1.7166  1.1076  3.1616
14353TIP3    H243003   0.245   0.990   1.492 -0.6638  0.6474  0.1464
14354TIP3   OH243004   1.779   3.480   0.588  0.2423  0.0872 -0.3402
14354TIP3    H143005   1.866   3.454   0.619 -0.1679 -1.7693 -0.7065
14354TIP3    H243006   1.792   3.567   0.551  1.6317  0.4796  0.9995
14355TIP3   OH243007   8.355   2.124   0.313  0.0436  0.2355 -0.0825
14355TIP3    H143008   8.403   2.055   0.267 -0.8904 -0.4250 -0.0899
14355TIP3    H243009   8.275   2.135   0.262  0.5617  1.9251 -0.5576
14356TIP3   OH243010   5.307   2.402   1.261  0.1272  0.2288  0.4805
14356TIP3    H143011   5.259   2.462   1.318 -1.3368  0.2800 -0.7683
14356TIP3    H243012   5.295   2.316   1.301  1.2583  0.6019  1.6416
14357TIP3   OH243013   6.639   2.331   1.598  0.0918  0.2358 -0.0573
14357TIP3    H143014   6.729   2.322   1.629  0.7462 -0.4595 -2.0678
14357TIP3    H243015   6.638   2.286   1.514 -1.5963  2.0619 -1.0678
14358TIP3   OH243016   7.041   2.659   0.065  0.1803  0.0758 -0.3859
14358TIP3    H143017   7.111   2.620   0.117  0.3116  0.1705 -0.4908
14358TIP3    H243018   6.998   2.585   0.023 -0.4492 -0.0748  0.5014
14359TIP3   OH243019   0.422   1.951   2.188  0.2789 -0.2315  0.2967
14359TIP3    H143020   0.368   2.010   2.136 -1.0141  0.9933  2.9273
14359TIP3    H243021   0.376   1.867   2.185  0.6034 -0.3733 -1.0916
14360TIP3   OH243022   0.425   3.055   1.072  0.7727  0.1054 -0.0777
14360TIP3    H143023   0.503   3.107   1.055  1.3898 -0.5877  0.6522
14360TIP3    H243024   0.360   3.120   1.100  0.2346  1.0628 -3.2524
14361TIP3   OH243025   1.333   5.631   6.270 -0.0060  0.5182 -0.1261
14361TIP3    H143026   1.366   5.680   6.345 -1.3438  0.1060  0.7372
14361TIP3    H243027   1.326   5.541   6.301  1.5815 -0.0886 -1.4371
14362TIP3   OH243028   8.106   2.681   1.156  0.8877  0.1494  0.0633
14362TIP3    H143029   8.016   2.684   1.187  1.3178 -1.4487  1.5823
14362TIP3    H243030   8.100   2.697   1.062 -1.0101 -0.2735  0.0988
14363TIP3   OH243031   7.632   4.524   1.844  0.4751 -0.1072  0.2193
14363TIP3    H143032   7.539   4.546   1.852  0.5653  0.7060 -0.8325
14363TIP3    H243033   7.674   4.607   1.820  1.5550 -0.3515  1.1967
14364TIP3   OH243034   6.795   0.414   2.752  0.1475  0.4253  0.5397
14364TIP3    H143035   6.775   0.333   2.703  1.3427  0.0172  0.7122
14364TIP3    H243036   6.786   0.389   2.844  1.5489  0.2019  0.6232
14365TIP3   OH243037   6.551   1.998   4.043 -0.1014  0.6211  0.3339
14365TIP3    H143038   6.532   1.955   4.127 -2.3953 -1.8927 -1.3918
14365TIP3    H243039   6.627   1.950   4.008  0.1441  0.9235  0.4511
14366TIP3   OH243040   7.813   2.427   1.630  0.2004  0.4802  0.4315
14366TIP3    H143041   7.752   2.356   1.612 -0.7822  1.1883  0.9517
14366TIP3    H243042   7.900   2.385   1.625 -0.3865 -0.9396  1.5437
14367TIP3   OH243043   7.663   1.771   3.311 -0.0904  0.4013 -0.0753
14367TIP3    H143044   7.608   1.847   3.328 -1.2310 -0.2631 -0.7525
14367TIP3    H243045   7.643   1.745   3.221 -0.5743 -1.3874  0.5259
14368TIP3   OH243046   0.678   6.508   6.843 -0.0836 -0.2915  0.4732
14368TIP3    H143047   0.683   6.603   6.845  0.9351 -0.3346  0.3210
14368TIP3    H243048   0.720   6.480   6.924  0.5179 -0.6307  0.0525
14369TIP3   OH243049   6.798   3.432   0.104  0.1831 -0.2464  0.0249
14369TIP3    H143050   6.705   3.431   0.127  0.3864 -1.4830  0.8394
14369TIP3    H243051   6.823   3.340   0.102  0.7819 -0.0717 -2.7817
14370TIP3   OH243052   3.470   5.090   6.250  0.5937 -0.0678  0.1022
14370TIP3    H143053   3.428   5.168   6.287  1.0935  0.8451 -1.2211
14370TIP3    H243054   3.543   5.072   6.308 -0.0372 -0.0694  0.9030
14371TIP3   OH243055   0.436   1.589   0.225 -0.4006 -0.0046 -0.1617
14371TIP3    H143056   0.498   1.534   0.274 -1.5567 -2.6314 -1.5592
14371TIP3    H243057   0.491   1.638   0.164  0.4557 -1.1861 -0.3606
14372TIP3   OH243058   8.212   3.593   0.053  0.2247 -0.3389  0.0780
14372TIP3    H143059   8.143   3.616   0.115  0.6831 -1.0473  0.8731
14372TIP3    H243060   8.210   3.497   0.050  0.1815 -0.3096 -1.0416
14373TIP3   OH243061   0.311   3.203   2.335  0.5260  0.4398 -0.1992
14373TIP3    H143062   0.391   3.154   2.355 -0.6102 -1.4884 -0.1927
14373TIP3    H243063   0.337   3.267   2.270  2.3707  0.7752  0.8367
14374TIP3   OH243064   1.071   2.838   1.804  0.4063 -0.2767  0.0341
14374TIP3    H143065   1.091   2.837   1.710 -0.2617 -0.4862 -0.1057
14374TIP3    H243066   1.111   2.758   1.838  0.7575 -0.1371 -0.0433
14375TIP3   OH243067   6.390   0.878   1.887 -0.3556  0.7824  0.4321
14375TIP3    H143068   6.433   0.934   1.823 -2.3915  0.4422 -1.3205
14375TIP3    H243069   6.434   0.794   1.880  0.4289  1.1801  0.5845
14376TIP3   OH243070   1.669   2.326   1.442 -0.4309  0.1977  0.4278
14376TIP3    H143071   1.707   2.331   1.354 -1.2085 -0.1779  0.0595
14376TIP3    H243072   1.656   2.417   1.468 -1.5567  0.3102 -0.4656
14377TIP3   OH243073   2.660   7.506   5.892 -0.4783  0.1379  0.1548
14377TIP3    H143074   2.596   7.488   5.823 -0.9460 -1.7850  1.0508
14377TIP3    H243075   2.733   7.549   5.847 -2.0166  1.5839 -1.0320
14378TIP3   OH243076   1.803   2.201   2.097 -0.1201 -0.3078 -0.0494
14378TIP3    H143077   1.823   2.140   2.025 -0.4081  0.6571 -0.9545
14378TIP3    H243078   1.709   2.194   2.108 -0.0176 -0.8147  0.5799
14379TIP3   OH243079   2.054   5.834   5.795 -0.5490 -0.6372  0.3404
14379TIP3    H143080   2.058   5.861   5.886  1.5689 -1.3721  0.5018
14379TIP3    H243081   2.119   5.764   5.788  0.3786  0.3974 -2.0386
14380TIP3   OH243082   1.798   7.126   4.809 -0.0780  0.5828 -0.1704
14380TIP3    H143083   1.803   7.110   4.903  2.8400 -1.5662 -0.6237
14380TIP3    H243084   1.836   7.212   4.796  0.2929  0.5203  0.5228
14381TIP3   OH243085   7.146   2.371   4.204 -0.3481  0.6898 -0.4354
14381TIP3    H143086   7.150   2.417   4.120 -0.7895  2.7765  0.6536
14381TIP3    H243087   7.229   2.391   4.247  0.4022 -1.3701 -0.8422
14382TIP3   OH243088   7.535   0.453   2.046  0.4539 -0.2614  0.1777
14382TIP3    H143089   7.480   0.484   1.974  0.9719  1.3540  0.4524
14382TIP3    H243090   7.473   0.434   2.117  0.0300 -0.9740 -0.3708
14383TIP3   OH243091   2.741   1.037   1.234  0.1931 -0.4531  0.3311
14383TIP3    H143092   2.810   0.982   1.196  0.6827  0.4212 -0.0659
14383TIP3    H243093   2.744   1.018   1.328 -0.1479 -1.6535  0.1032
14384TIP3   OH243094   1.516   2.874   1.271 -0.0876 -0.0386  0.5540
14384TIP3    H143095   1.528   2.918   1.355 -0.7603 -2.0840  1.7753
14384TIP3    H243096   1.574   2.920   1.211 -0.2839  2.0580  1.9158
14385TIP3   OH243097   1.329   1.874   1.410  0.1207  0.5021  0.4447
14385TIP3    H143098   1.248   1.919   1.385  0.4380  1.0338  0.3562
14385TIP3    H243099   1.395   1.944   1.413  0.3735  0.2273  1.4570
14386TIP3   OH243100   7.706   2.405   1.013  0.3274 -0.5602  0.1301
14386TIP3    H143101   7.704   2.452   1.096  0.2222  1.0810 -0.7897
14386TIP3    H243102   7.615   2.390   0.991  0.3599 -1.2150  0.4203
14387TIP3   OH243103   2.779   2.583   1.595 -0.1582  0.0090  0.1699
14387TIP3    H143104   2.794   2.591   1.500  2.4600 -0.9012  0.4493
14387TIP3    H243105   2.696   2.536   1.602  0.0267 -0.6433 -1.6892
14388TIP3   OH243106   1.233   4.441   6.138 -0.5033  0.2755 -0.2927
14388TIP3    H143107   1.214   4.522   6.091 -0.0823  1.1730  1.0535
14388TIP3    H243108   1.246   4.468   6.229 -0.8178 -1.3626  0.2662
14389TIP3   OH243109   7.363   0.096   2.564  0.3243 -0.4900  0.2146
14389TIP3    H143110   7.287   0.073   2.509 -0.9611 -0.3765  1.9069
14389TIP3    H243111   7.391   0.012   2.600  0.6491 -0.4507  0.0511
14390TIP3   OH243112   0.010   3.178   0.959 -0.5879 -0.1007  0.0744
14390TIP3    H143113  -0.000   3.272   0.943 -1.2773 -0.2173 -0.1662
14390TIP3    H243114   0.046   3.144   0.877 -2.8331 -0.4729 -0.7941
14391TIP3   OH243115   2.083   4.637   1.679  0.5405 -0.0306 -0.2830
14391TIP3    H143116   1.992   4.616   1.698 -0.0224 -0.0779 -2.7737
14391TIP3    H243117   2.104   4.583   1.602  2.5741  0.1952  0.0903
14392TIP3   OH243118   1.536   3.067   1.995  0.1399 -0.1767  0.5797
14392TIP3    H143119   1.543   2.984   1.949 -1.1662 -0.8604  1.5854
14392TIP3    H243120   1.555   3.133   1.928  0.0880 -1.2211 -0.4829
14393TIP3   OH243121   0.346   3.734   2.597 -1.0891 -0.3182 -0.1844
14393TIP3    H143122   0.303   3.715   2.514  0.1728 -1.9535 -0.4920
14393TIP3    H243123   0.329   3.657   2.651  1.7734 -1.2237 -0.4733
14394TIP3   OH243124   1.663   2.156   1.698  0.2036 -0.0141 -0.4483
14394TIP3    H143125   1.660   2.219   1.626  0.7316  0.6770  0.1395
14394TIP3    H243126   1.714   2.199   1.767  0.7210 -1.1355 -0.1085
14395TIP3   OH243127   8.090   0.450   6.706  0.3887  0.5032 -0.0052
14395TIP3    H143128   8.007   0.425   6.665 -0.0529  1.6050  0.2010
14395TIP3    H243129   8.111   0.377   6.763 -0.3295  0.1180 -0.2248
14396TIP3   OH243130   3.622   5.250   6.489  0.0756 -0.1913 -0.1250
14396TIP3    H143131   3.596   5.209   6.572  0.3819  0.7800  0.4631
14396TIP3    H243132   3.716   5.234   6.483 -0.2467 -1.8480 -1.2012
14397TIP3   OH243133   0.183   2.718   2.843 -0.0154  1.0642  0.0519
14397TIP3    H143134   0.168   2.762   2.927 -0.6313  0.3082  0.3485
14397TIP3    H243135   0.135   2.770   2.779 -3.4984 -0.9332  0.8792
14398TIP3   OH243136   2.585   3.545   3.101 -0.2559 -0.5026 -0.3271
14398TIP3    H143137   2.582   3.641   3.105  1.0579 -0.4723  0.1153
14398TIP3    H243138   2.609   3.518   3.190  0.7611 -1.1758 -0.8051
14399TIP3   OH243139   7.930   4.263   1.674 -0.0375 -0.0608 -0.4633
14399TIP3    H143140   7.947   4.348   1.634 -0.0783  0.3696  0.4117
14399TIP3    H243141   7.990   4.203   1.630  1.1125  0.7269  0.0043
14400TIP3   OH243142   3.091   4.104   0.461 -0.2721  0.0288 -0.6949
14400TIP3    H143143   3.046   4.079   0.541  0.8074 -1.0610 -0.4002
14400TIP3    H243144   3.168   4.153   0.490 -0.6165  0.8311 -1.1259
14401TIP3   OH243145   6.324   6.210   5.916 -0.8524 -0.1517  0.4975
14401TIP3    H143146   6.297   6.119   5.906  0.7995 -0.6177  0.1791
14401TIP3    H243147   6.270   6.258   5.853 -1.7097 -0.9075  0.6458
14402TIP3   OH243148   0.318   2.970   0.752 -0.7865 -0.1277  0.2978
14402TIP3    H143149   0.408   3.002   0.760 -0.4236 -0.9133 -0.4713
14402TIP3    H243150   0.300   2.928   0.836 -0.3820 -0.0821  0.4093
14403TIP3   OH243151   0.737   4.179   1.750 -0.0377 -0.0879 -0.6745
14403TIP3    H143152   0.815   4.149   1.704 -0.8140  0.2931 -2.2508
14403TIP3    H243153   0.718   4.108   1.812  0.4759 -1.0238 -1.5726
14404TIP3   OH243154   0.608   2.455   0.088  0.2332 -0.3723 -0.1021
14404TIP3    H143155   0.569   2.391   0.147 -3.2217  0.6164 -1.1923
14404TIP3    H243156   0.603   2.538   0.135  0.8147 -0.1852 -0.3603
14405TIP3   OH243157   4.798   5.110   6.528 -0.4599  0.1881  0.1112
14405TIP3    H143158   4.868   5.057   6.489 -1.1625  1.0945 -2.5279
14405TIP3    H243159   4.724   5.097   6.469 -1.4125  2.0877  0.8556
14406TIP3   OH243160   0.464   2.327   1.212 -0.1038 -0.5556  0.0452
14406TIP3    H143161   0.484   2.419   1.224 -0.5735 -0.2219 -1.5422
14406TIP3    H243162   0.549   2.284   1.202  0.2109 -0.6221  2.8309
14407TIP3   OH243163   0.949   3.859   0.302  0.0528  0.2506  0.2359
14407TIP3    H143164   0.903   3.818   0.375  1.2343 -0.1284  0.7749
14407TIP3    H243165   0.911   3.817   0.224  0.3725 -0.9822  0.7276
14408TIP3   OH243166   3.050   5.340   1.069  0.3084 -0.5227  0.0314
14408TIP3    H143167   2.964   5.313   1.101  0.5939 -0.4271  0.8845
14408TIP3    H243168   3.111   5.278   1.108  0.5952 -0.8059 -0.8527
14409TIP3   OH243169   2.366   2.987   3.307 -0.0765 -0.1173 -0.2553
14409TIP3    H143170   2.320   2.903   3.306 -2.2077  0.9942 -0.8315
14409TIP3    H243171   2.321   3.039   3.240 -1.2411  2.7201  2.6145
14410TIP3   OH243172   2.337   3.233   0.186 -0.0951  0.0212 -0.3167
14410TIP3    H143173   2.405   3.167   0.195  0.6334  0.6237 -1.2685
14410TIP3    H243174   2.271   3.192   0.130  0.5090  0.2229 -1.1718
14411TIP3   OH243175   2.059   7.286   6.139  0.1999 -0.3191 -0.2200
14411TIP3    H143176   2.088   7.198   6.114 -0.8711 -0.8926  0.4797
14411TIP3    H243177   1.972   7.272   6.178 -0.1260  1.0880 -0.4043
14412TIP3   OH243178   3.270   4.799   2.949  0.3357  0.4475  0.3731
14412TIP3    H143179   3.179   4.823   2.963  0.5982  1.6200  0.1223
14412TIP3    H243180   3.319   4.881   2.959  1.8117 -0.7947  4.4861
14413TIP3   OH243181   7.805   0.546   6.928  0.0761 -0.0783 -0.1639
14413TIP3    H143182   7.712   0.567   6.935  0.1164 -0.2922  1.1066
14413TIP3    H243183   7.811   0.489   6.851 -1.0037 -0.9207  0.3537
14414TIP3   OH243184   0.539   3.637   3.663  0.7331  0.6375 -0.5644
14414TIP3    H143185   0.486   3.617   3.739  1.0398  1.1710 -0.2034
14414TIP3    H243186   0.476   3.655   3.593  0.4526 -0.6889 -0.6685
14415TIP3   OH243187   3.114   6.246   6.713  0.2410 -0.8165  0.1858
14415TIP3    H143188   3.035   6.197   6.735 -1.7491  1.7858 -0.8967
14415TIP3    H243189   3.155   6.265   6.797 -0.5366 -1.7600  0.7874
14416TIP3   OH243190   8.247   1.845   0.764 -0.0277  0.0640 -0.3482
14416TIP3    H143191   8.183   1.796   0.712 -0.3174 -0.6130  0.6189
14416TIP3    H243192   8.302   1.889   0.700 -0.2322 -0.9458 -1.2320
14417TIP3   OH243193   0.207   3.703   0.845  0.4135 -0.2659 -0.1752
14417TIP3    H143194   0.154   3.663   0.915  0.3699  2.3609  1.3597
14417TIP3    H243195   0.279   3.642   0.832  0.1795 -1.0261  1.8846
14418TIP3   OH243196   8.277   2.240   1.915 -0.0122  0.1248 -0.4225
14418TIP3    H143197   8.328   2.172   1.871 -0.3862  0.2682 -1.0828
14418TIP3    H243198   8.343   2.296   1.957  0.5144  1.4384 -2.8771
14419TIP3   OH243199   7.369   2.085   0.189  0.1234 -0.1317 -0.9418
14419TIP3    H143200   7.416   2.168   0.184 -0.7874  0.5801  1.7308
14419TIP3    H243201   7.381   2.056   0.279 -0.1156 -2.5900 -1.6690
14420TIP3   OH243202   8.062   3.027   1.709  0.6921 -0.0844  0.2302
14420TIP3    H143203   8.088   2.979   1.788 -0.1117 -2.9911 -1.2060
14420TIP3    H243204   8.076   3.119   1.731  0.5251 -0.8370  3.7351
14421TIP3   OH243205   2.343   2.378   0.773  0.2749  0.1715 -0.0067
14421TIP3    H143206   2.388   2.304   0.730  1.9208  0.1914  1.5926
14421TIP3    H243207   2.414   2.428   0.814 -1.1847  0.2444  2.5597
14422TIP3   OH243208   2.771   5.727   6.808  0.5478  0.3832  0.9193
14422TIP3    H143209   2.735   5.720   6.896  0.5189  0.8323  0.9439
14422TIP3    H243210   2.835   5.657   6.802  1.1907  0.9149  1.5954
14423TIP3   OH243211   2.537   5.714   6.081  0.0612  0.2798 -0.1666
14423TIP3    H143212   2.626   5.695   6.109  0.0847  0.7376  0.0745
14423TIP3    H243213   2.481   5.660   6.137  0.0955  1.3182  0.8893
14424TIP3   OH243214   0.540   4.852   1.380 -0.0154 -0.4535 -0.7101
14424TIP3    H143215   0.590   4.789   1.430  1.9071 -0.5455 -2.6779
14424TIP3    H243216   0.532   4.928   1.438  0.8580 -1.1254  0.2994
14425TIP3   OH243217   6.627   2.598   1.562 -0.3711 -0.4305 -0.7321
14425TIP3    H143218   6.544   2.623   1.603  0.3786 -0.4024  0.7630
14425TIP3    H243219   6.631   2.503   1.571 -0.3922 -0.4723 -1.1232
14426TIP3   OH243220   2.050   3.533   0.715 -0.2245 -0.0207  0.5536
14426TIP3    H143221   2.041   3.623   0.683 -0.1894 -0.2999 -0.2488
14426TIP3    H243222   2.086   3.543   0.803  1.9142  0.6852 -0.3639
14427TIP3   OH243223   0.134   0.276   6.832 -0.4738  0.7983  0.2580
14427TIP3    H143224   0.103   0.233   6.911 -1.1278 -0.9070 -0.9077
14427TIP3    H243225   0.230   0.271   6.837 -0.5447 -1.2158 -0.0735
14428TIP3   OH243226   2.154   1.434   0.923 -0.1079  0.5733  0.4176
14428TIP3    H143227   2.144   1.528   0.940  3.4099  1.0531  0.2305
14428TIP3    H243228   2.227   1.408   0.980  1.5424 -1.1706 -2.3753
14429TIP3   OH243229   1.576   4.743   2.605  0.2289 -0.8715 -0.2152
14429TIP3    H143230   1.481   4.738   2.607  0.1740  0.1218  0.0599
14429TIP3    H243231   1.598   4.816   2.663  1.1558 -1.0536 -0.3180
14430TIP3   OH243232   8.313   3.653   3.402 -0.3661  0.1615 -0.0098
14430TIP3    H143233   8.256   3.578   3.419  0.5864 -0.6831 -0.4702
14430TIP3    H243234   8.289   3.682   3.314 -0.2676 -0.0340 -0.1022
14431TIP3   OH243235   3.338   6.061   6.772  0.0569 -0.4260  0.1341
14431TIP3    H143236   3.355   6.119   6.847 -1.0104  0.1452 -0.0695
14431TIP3    H243237   3.330   6.120   6.697 -1.8613 -0.7518  0.0586
14432TIP3   OH243238   3.235   5.484   6.144 -0.1159 -0.1204 -0.3487
14432TIP3    H143239   3.315   5.518   6.185 -0.7068 -0.5331  1.2156
14432TIP3    H243240   3.256   5.393   6.125 -0.0870 -0.1329 -0.2618
14433TIP3   OH243241   8.443   0.671   1.875  0.3058 -0.8762  0.0706
14433TIP3    H143242   8.383   0.732   1.832 -0.8903 -1.3766  1.0053
14433TIP3    H243243   8.398   0.646   1.956  1.7873 -1.2301  0.8119
14434TIP3   OH243244   8.053   1.747   0.580  0.3911 -0.2728 -0.5662
14434TIP3    H143245   8.007   1.665   0.597 -0.4402  0.6901  1.9659
14434TIP3    H243246   8.017   1.778   0.496 -1.8556 -0.7278  0.2061
14435TIP3   OH243247   2.217   4.085   0.224 -0.1334 -0.7504  0.5447
14435TIP3    H143248   2.216   4.171   0.182 -1.7829 -0.5309  1.0129
14435TIP3    H243249   2.199   4.023   0.154  2.2089 -0.8341 -0.0170
14436TIP3   OH243250   1.443   3.613   1.208  0.7601  0.6149 -0.4740
14436TIP3    H143251   1.398   3.690   1.174  2.3091  1.7999  0.1206
14436TIP3    H243252   1.534   3.624   1.181  1.0656 -0.8515 -0.1173
14437TIP3   OH243253   8.124   0.893   0.157 -0.3225  0.1862 -0.2905
14437TIP3    H143254   8.203   0.853   0.194 -0.2869 -0.1467 -0.7177
14437TIP3    H243255   8.053   0.861   0.214 -0.4547 -1.5539 -1.3927
14438TIP3   OH243256   8.457   1.386   0.165  0.8896  0.3465  0.7776
14438TIP3    H143257   8.385   1.384   0.102  1.0126 -0.2857  0.6508
14438TIP3    H243258   8.431   1.323   0.232  3.4013 -3.4368 -1.5913
14439TIP3   OH243259   1.162   4.016   1.928  0.4520 -0.1980 -0.3974
14439TIP3    H143260   1.166   3.990   2.020 -1.1182  0.3008 -0.1757
14439TIP3    H243261   1.076   3.987   1.899 -0.2197  2.1919 -0.9197
14440TIP3   OH243262   2.353   6.722   6.119  0.2202 -0.1579  0.7046
14440TIP3    H143263   2.358   6.661   6.046 -0.0851 -0.2824  0.7873
14440TIP3    H243264   2.263   6.756   6.116  0.6864  1.0310  0.0531
14441TIP3   OH243265   0.763   1.680   1.044  0.1723 -0.8250  0.1519
14441TIP3    H143266   0.751   1.589   1.071 -0.6272 -0.6337  0.4366
14441TIP3    H243267   0.684   1.724   1.073  0.0410 -0.2678 -1.0451
14442TIP3   OH243268   2.211   6.221   6.674 -0.1504  0.2601  0.5162
14442TIP3    H143269   2.225   6.240   6.767 -2.3439 -2.3194  1.4353
14442TIP3    H243270   2.280   6.157   6.653 -0.8810 -0.6729  0.9210
14443TIP3   OH243271   2.914   3.492   2.259  0.3055 -0.5061  0.1902
14443TIP3    H143272   2.993   3.443   2.238 -0.0190 -1.2554  0.6903
14443TIP3    H243273   2.854   3.426   2.294 -0.4351  0.1068  0.0788
14444TIP3   OH243274   0.437   2.702   0.780  0.6116 -0.7041 -0.0948
14444TIP3    H143275   0.514   2.649   0.799  0.8589 -0.0156  0.8991
14444TIP3    H243276   0.459   2.752   0.701  0.7475 -1.3473 -0.4604
14445TIP3   OH243277   3.780   6.434   5.245 -0.5449  0.0024  0.7451
14445TIP3    H143278   3.829   6.460   5.167 -0.9587 -0.4721  0.3204
14445TIP3    H243279   3.805   6.498   5.312 -0.5136  0.6738  0.1004
14446TIP3   OH243280   1.021   3.758   2.488  0.4185  0.4701 -0.0098
14446TIP3    H143281   1.068   3.838   2.464  2.3305 -0.5591  0.2766
14446TIP3    H243282   1.019   3.760   2.584 -0.0247  0.4391 -0.0163
14447TIP3   OH243283   3.811   6.044   6.402  0.3364 -0.8145  0.0282
14447TIP3    H143284   3.775   6.124   6.363 -0.3159 -0.6909  0.8795
14447TIP3    H243285   3.854   5.999   6.329  1.6986  0.8578 -0.2224
14448TIP3   OH243286   2.278   6.711   5.118 -0.3714  0.4124 -0.5413
14448TIP3    H143287   2.213   6.679   5.056 -0.8668 -0.8734  0.5904
14448TIP3    H243288   2.226   6.747   5.190  0.1768  0.4564 -0.1679
14449TIP3   OH243289   0.268   2.940   2.599 -0.3689  0.2304 -0.1170
14449TIP3    H143290   0.331   2.933   2.527 -0.6676 -0.3734 -0.3196
14449TIP3    H243291   0.183   2.950   2.555 -0.4336  0.9209  0.1557
14450TIP3   OH243292   1.643   2.453   2.554 -0.1008 -0.0812  0.1722
14450TIP3    H143293   1.641   2.547   2.573  1.1117  0.5053 -2.2193
14450TIP3    H243294   1.737   2.433   2.544 -0.4689 -0.7838 -2.4787
14451TIP3   OH243295   4.023   5.758   5.769  0.7732 -0.4847 -0.2644
14451TIP3    H143296   4.099   5.803   5.732  1.2557  0.6197  1.9722
14451TIP3    H243297   4.050   5.666   5.774  0.5674 -0.7369 -2.8789
14452TIP3   OH243298   0.354   0.154   6.650  0.1523  0.0293 -0.0450
14452TIP3    H143299   0.343   0.239   6.606 -0.5776 -1.2367 -2.3965
14452TIP3    H243300   0.436   0.163   6.698  0.1996  1.9855 -0.4270
14453TIP3   OH243301   0.062   3.783   2.495  0.1741  0.2444 -0.1280
14453TIP3    H143302   0.093   3.724   2.426  0.0294  0.3566 -0.2889
14453TIP3    H243303   0.094   3.869   2.470  1.3398  0.0634  0.6914
14454TIP3   OH243304   8.088   2.248   1.719  0.2561 -0.4466  0.0679
14454TIP3    H143305   8.130   2.252   1.805 -2.5562 -0.4670  1.4757
14454TIP3    H243306   8.128   2.319   1.669 -0.7718  2.0196  2.6365
14455TIP3   OH243307   2.255   4.439   2.095 -0.3450 -0.6085  0.3221
14455TIP3    H143308   2.315   4.489   2.150 -0.8513  0.7685 -0.3565
14455TIP3    H243309   2.294   4.352   2.090  0.4992 -0.3103  1.5931
14456TIP3   OH243310   2.064   4.948   0.700 -0.1214  0.3994  0.0328
14456TIP3    H143311   2.131   5.009   0.670  0.2326  0.0922  0.1957
14456TIP3    H243312   1.982   4.986   0.671  0.2142  0.1062 -1.3066
14457TIP3   OH243313   0.297   4.438   0.579 -0.3644  0.1827 -0.4643
14457TIP3    H143314   0.239   4.471   0.647 -0.8142 -0.0532 -0.7269
14457TIP3    H243315   0.363   4.386   0.625  0.3334  1.4129 -0.0525
14458TIP3   OH243316   0.838   4.335   2.334  0.7302  0.3677  0.2190
14458TIP3    H143317   0.871   4.345   2.423 -0.7413 -0.9211  0.9241
14458TIP3    H243318   0.915   4.350   2.278  2.3236 -1.7341  1.7906
14459TIP3   OH243319   1.202   7.380   6.030 -0.0085 -0.1560  0.4013
14459TIP3    H143320   1.172   7.369   5.940  1.0899 -0.2068  0.0368
14459TIP3    H243321   1.189   7.294   6.070 -1.5228  0.1669  0.5985
14460TIP3   OH243322   7.910   4.037   2.324  0.1178  0.0554 -0.2036
14460TIP3    H143323   7.855   4.114   2.310 -0.0441 -0.2338 -1.1727
14460TIP3    H243324   7.995   4.073   2.348 -0.7652  0.5018  2.4432
14461TIP3   OH243325   1.135   2.866   2.088  0.2581 -0.3492  0.2151
14461TIP3    H143326   1.120   2.869   1.993 -1.2776  0.7589  0.4724
14461TIP3    H243327   1.062   2.814   2.122  0.2964  0.0467  0.8988
14462TIP3   OH243328   1.044   2.942   0.500  0.2680  0.1829 -0.2159
14462TIP3    H143329   1.046   2.867   0.560 -0.3199  0.3962  0.0671
14462TIP3    H243330   0.990   2.913   0.427  1.6380 -0.3639 -1.0298
14463TIP3   OH243331   7.517   1.651   6.714 -0.1435 -0.0814 -0.2060
14463TIP3    H143332   7.455   1.661   6.642 -0.2687 -0.6455 -0.1794
14463TIP3    H243333   7.516   1.735   6.759  0.6010  0.5703 -1.3950
14464TIP3   OH243334   8.452   2.570   0.582 -0.4939  0.1569  0.0537
14464TIP3    H143335   8.518   2.558   0.513  0.9391  1.0636  1.2377
14464TIP3    H243336   8.492   2.632   0.643 -2.7677  1.3386  0.4079
14465TIP3   OH243337   1.084   2.430   0.192  0.3137 -0.0022  0.1624
14465TIP3    H143338   1.004   2.416   0.143 -0.0306  1.9042  0.1728
14465TIP3    H243339   1.154   2.416   0.128 -0.0149 -1.2896  0.0651
14466TIP3   OH243340   0.842   0.493   0.565  0.1118 -0.1337  0.2467
14466TIP3    H143341   0.856   0.552   0.640  1.7151  0.0074 -0.1353
14466TIP3    H243342   0.914   0.513   0.506 -0.4972 -1.0596 -0.8244
14467TIP3   OH243343   2.092   3.463   3.123 -0.4326  0.8884 -0.2675
14467TIP3    H143344   2.165   3.520   3.145 -0.1687 -0.0808  1.4861
14467TIP3    H243345   2.132   3.387   3.081 -0.3626  0.1511  1.1015
14468TIP3   OH243346   1.579   2.728   2.674  0.0511 -0.5058  0.2186
14468TIP3    H143347   1.612   2.818   2.677  1.0300 -0.7941 -1.3196
14468TIP3    H243348   1.491   2.737   2.635 -0.5960 -0.0400  1.7414
14469TIP3   OH243349   4.513   1.979   0.710  0.2408  0.6969  0.0634
14469TIP3    H143350   4.541   2.059   0.665 -0.0490  0.5824 -0.3240
14469TIP3    H243351   4.450   2.010   0.775 -0.7649  0.6680 -0.8689
14470TIP3   OH243352   7.537   2.211   3.529 -0.1242 -0.6954  0.1495
14470TIP3    H143353   7.504   2.301   3.522 -1.5523 -1.2440 -0.2363
14470TIP3    H243354   7.460   2.156   3.522  0.6904 -1.9560  0.8617
14471TIP3   OH243355   0.784   2.523   3.396 -0.5944  0.7981  0.4700
14471TIP3    H143356   0.794   2.607   3.441  0.7199  1.5818 -1.1985
14471TIP3    H243357   0.863   2.515   3.342 -1.7301 -0.4749 -1.0664
14472TIP3   OH243358   0.653   2.501   0.786  0.6084 -0.0410  0.3675
14472TIP3    H143359   0.748   2.507   0.777  0.8354 -0.7977  1.9604
14472TIP3    H243360   0.640   2.437   0.857 -1.0746  0.1909  0.2865
14473TIP3   OH243361   1.053   1.979   1.985  0.4290  0.0320 -0.5625
14473TIP3    H143362   1.139   2.018   1.999  0.3120 -0.5507  2.2170
14473TIP3    H243363   1.007   1.994   2.068 -1.6741 -0.8311 -1.5459
14474TIP3   OH243364   4.003   0.528   4.832  0.5399 -0.2155 -0.3744
14474TIP3    H143365   3.999   0.623   4.831  4.0653  0.0338 -1.2738
14474TIP3    H243366   3.980   0.502   4.742  0.7541 -0.0903 -0.4675
14475TIP3   OH243367   2.810   6.034   6.809  0.1903 -0.5614  0.6814
14475TIP3    H143368   2.852   6.102   6.861  1.0247  0.0841 -0.7981
14475TIP3    H243369   2.865   5.957   6.820  0.5977 -0.3080  0.4439
14476TIP3   OH243370   8.398   4.909   2.994 -0.3734  0.0225  0.0978
14476TIP3    H143371   8.476   4.945   2.951 -0.9319  0.1311 -0.8564
14476TIP3    H243372   8.398   4.950   3.080 -0.1420  1.1300 -0.4050
14477TIP3   OH243373   7.034  -0.025   5.332 -0.2541 -0.1907  0.1407
14477TIP3    H143374   7.044   0.037   5.259 -0.3218  0.3864  0.6135
14477TIP3    H243375   6.975   0.019   5.392 -0.0542 -0.5884  0.6314
14478TIP3   OH243376   1.590   5.953   6.193 -0.0692 -0.1971  0.3302
14478TIP3    H143377   1.522   6.015   6.219  0.4367  0.2947  0.4934
14478TIP3    H243378   1.669   6.006   6.184 -0.1883 -0.3554 -2.1147
14479TIP3   OH243379   1.115  -0.030   0.337  0.0030  0.0883 -0.1005
14479TIP3    H143380   1.053   0.041   0.356  0.1184  0.2748 -0.4164
14479TIP3    H243381   1.200   0.003   0.369  0.3614  0.7563 -1.7091
14480TIP3   OH243382   0.973   2.160   0.287 -0.0999 -0.7656  0.2797
14480TIP3    H143383   1.046   2.108   0.255  0.2649  0.6043 -1.1892
14480TIP3    H243384   0.940   2.205   0.209  1.2264  3.2013  1.8784
14481TIP3   OH243385   0.520   0.458   0.128  0.3069 -0.0819  0.1685
14481TIP3    H143386   0.533   0.379   0.075  0.0538 -0.7835  1.1498
14481TIP3    H243387   0.585   0.452   0.198 -1.6919 -0.9525  2.0045
14482TIP3   OH243388   0.387   3.936   0.854 -0.0853 -0.0298  0.0941
14482TIP3    H143389   0.427   3.920   0.939 -2.2781 -0.3709  1.0961
14482TIP3    H243390   0.306   3.885   0.856 -0.3627  0.2878 -2.0501
14483TIP3   OH243391   3.191   7.180   6.624 -0.0924  0.1780 -0.0427
14483TIP3    H143392   3.112   7.199   6.674 -0.6018  2.0343 -1.4940
14483TIP3    H243393   3.160   7.135   6.545  0.4621 -0.4381  0.0791
14484TIP3   OH243394   8.219   2.075   0.061  0.0638  0.0616 -0.4252
14484TIP3    H143395   8.288   2.022   0.022 -0.5681  0.2878 -1.9257
14484TIP3    H243396   8.229   2.161   0.020  1.0699  1.1226  1.9571
14485TIP3   OH243397   2.085   2.194   0.554  0.0745  0.5181  0.1640
14485TIP3    H143398   2.168   2.146   0.557  0.6471  1.4664 -0.1959
14485TIP3    H243399   2.037   2.152   0.483 -0.0958 -0.5679  0.9069
14486TIP3   OH243400   0.716   4.469   1.185 -0.1991 -0.3663  0.0440
14486TIP3    H143401   0.626   4.481   1.217 -0.4209 -0.7356 -0.4473
14486TIP3    H243402   0.759   4.420   1.255 -0.0700  0.7690  0.7825
14487TIP3   OH243403   2.655   5.809   6.566 -0.1938  0.0449 -0.5470
14487TIP3    H143404   2.681   5.772   6.651  1.1635 -1.0698 -1.4132
14487TIP3    H243405   2.668   5.903   6.575  1.4408 -0.2147 -0.0040
14488TIP3   OH243406   1.520   3.857   0.322 -0.0599 -0.6650  0.0995
14488TIP3    H143407   1.523   3.953   0.321  3.4094 -0.7008 -1.4229
14488TIP3    H243408   1.465   3.835   0.397 -2.3195  2.4908 -0.5213
14489TIP3   OH243409   4.127   6.837   6.861 -0.1615 -0.1723 -0.0999
14489TIP3    H143410   4.213   6.836   6.903 -0.2859 -0.5497  0.1568
14489TIP3    H243411   4.143   6.806   6.772  0.1645  1.0137 -0.4572
14490TIP3   OH243412   1.541   1.309   2.579  0.2839 -0.0614  0.1701
14490TIP3    H143413   1.533   1.317   2.484  0.5393  1.0263  0.2263
14490TIP3    H243414   1.540   1.215   2.596 -0.4842 -0.2498 -0.8461
14491TIP3   OH243415   0.760   2.610   1.639  0.2015  0.2543  0.2129
14491TIP3    H143416   0.718   2.684   1.683 -1.7567  0.0020 -1.1697
14491TIP3    H243417   0.733   2.533   1.690  0.5975  0.2718  0.4578
14492TIP3   OH243418   0.795   4.377   1.443  0.1065 -0.2581 -0.4203
14492TIP3    H143419   0.763   4.383   1.533  0.0803  2.4099 -0.5535
14492TIP3    H243420   0.871   4.319   1.448  1.7010  1.9141  1.8135
14493TIP3   OH243421   1.005   3.409   2.760  0.4125 -0.3317  0.1627
14493TIP3    H143422   0.992   3.346   2.689  0.0603  3.0123 -2.9238
14493TIP3    H243423   1.100   3.422   2.763  0.5357 -1.4493  1.2182
14494TIP3   OH243424   2.253   3.154   3.594 -0.0797  0.1556 -0.5755
14494TIP3    H143425   2.208   3.107   3.524  1.5883  1.0783 -2.3289
14494TIP3    H243426   2.244   3.246   3.570  2.2622  0.3895 -0.7486
14495TIP3   OH243427   0.009   1.922   0.202  0.2086 -0.0995  0.2481
14495TIP3    H143428  -0.035   1.840   0.176 -0.9392 -0.0648  1.9788
14495TIP3    H243429   0.101   1.898   0.211 -0.0056 -1.0327  0.0252
14496TIP3   OH243430   2.073   7.046   5.813 -0.1188 -0.1944 -0.5441
14496TIP3    H143431   2.004   7.048   5.879 -0.4854 -1.1702 -0.8854
14496TIP3    H243432   2.138   6.985   5.848  0.4196  0.4789 -0.3709
14497TIP3   OH243433   0.580   2.595   0.336 -0.3594 -0.4715 -0.3501
14497TIP3    H143434   0.568   2.685   0.365 -0.1448  0.1498 -2.1101
14497TIP3    H243435   0.661   2.567   0.378 -1.2621 -0.3883  1.4689
14498TIP3   OH243436   1.509   3.204   1.536 -1.1255  0.0132 -0.2515
14498TIP3    H143437   1.491   3.293   1.506 -2.5849 -0.3929 -0.6176
14498TIP3    H243438   1.453   3.193   1.613 -0.0295 -0.1723  0.5337
14499TIP3   OH243439   6.829   1.068   5.677 -0.4848 -0.0230  0.3162
14499TIP3    H143440   6.896   1.013   5.636  0.3203  0.4115  1.0493
14499TIP3    H243441   6.764   1.006   5.710 -0.0786 -0.4836  0.2565
14500TIP3   OH243442   0.432   0.824   0.543  0.0651 -0.1707  0.1459
14500TIP3    H143443   0.490   0.860   0.476 -1.7868  0.7934 -0.9580
14500TIP3    H243444   0.466   0.860   0.625 -0.1120  1.9355 -0.6850
14501TIP3   OH243445   1.832   3.308   1.983 -0.0942 -0.1157  0.3725
14501TIP3    H143446   1.847   3.220   1.949  0.3250 -0.3882  1.2503
14501TIP3    H243447   1.872   3.366   1.919 -2.6402 -0.4142 -1.5590
14502TIP3   OH243448   0.691   5.699   1.306 -0.2457 -0.0421  0.5134
14502TIP3    H143449   0.598   5.719   1.304 -0.1772  0.1705 -2.8677
14502TIP3    H243450   0.731   5.776   1.348 -1.4195  0.5621  0.5469
14503TIP3   OH243451   7.093   1.511   6.276  0.4335  0.0221  0.1575
14503TIP3    H143452   7.056   1.443   6.221 -0.1785 -0.1004  0.7173
14503TIP3    H243453   7.171   1.470   6.315  0.6451 -0.0189 -0.3057
14504TIP3   OH243454   4.153   7.850   6.837 -0.5197  0.2995 -0.4363
14504TIP3    H143455   4.187   7.794   6.906 -0.1141  1.0657 -0.0090
14504TIP3    H243456   4.058   7.844   6.846 -0.5238  3.3828  2.6848
14505TIP3   OH243457   2.189   4.021   0.732  0.5270  0.8274  0.3911
14505TIP3    H143458   2.272   4.063   0.754  0.7619  1.3013 -1.3649
14505TIP3    H243459   2.143   4.015   0.815  1.0663  3.2731  0.8929
14506TIP3   OH243460   7.812   6.150   1.882  0.1340  0.3939 -0.2024
14506TIP3    H143461   7.903   6.138   1.854  0.3975  0.5397  0.5798
14506TIP3    H243462   7.819   6.181   1.972 -0.7024  0.0947 -0.0345
14507TIP3   OH243463   0.953   3.313   3.020  0.8000  0.3779 -0.6635
14507TIP3    H143464   0.973   3.375   2.949  0.3990 -0.6727 -1.7232
14507TIP3    H243465   0.982   3.229   2.985 -1.3946 -0.4914 -0.4454
14508TIP3   OH243466   2.756   2.762   0.028  0.1681 -0.0219 -0.0347
14508TIP3    H143467   2.737   2.855   0.044 -1.9301 -0.1958 -1.3140
14508TIP3    H243468   2.842   2.762  -0.015  0.0863  1.3482 -0.2190
14509TIP3   OH243469   8.029   5.642   2.423  0.9371 -0.0424 -0.6458
14509TIP3    H143470   7.968   5.621   2.352  0.2894 -1.4584  0.3205
14509TIP3    H243471   8.056   5.733   2.405 -0.9592  0.3862 -1.4307
14510TIP3   OH243472   1.913   3.747   3.122  0.1075 -0.4198 -0.3972
14510TIP3    H143473   1.951   3.835   3.120 -1.3968  0.2309 -2.3776
14510TIP3    H243474   1.841   3.753   3.184 -0.2948 -0.1042 -0.8857
14511TIP3   OH243475   3.455   2.069   0.786 -0.2331  0.3184 -0.2273
14511TIP3    H143476   3.531   2.028   0.744  0.3421  0.0710  1.0261
14511TIP3    H243477   3.468   2.051   0.880 -2.3041 -0.5249 -0.0851
14512TIP3   OH243478   0.577   3.345   1.857  0.2215  0.3359  0.2731
14512TIP3    H143479   0.569   3.344   1.761  1.7616 -0.2760  0.1341
14512TIP3    H243480   0.518   3.415   1.885 -0.2492  0.5206 -1.1244
14513TIP3   OH243481   2.487   5.884   4.933  0.1084  0.6565 -0.4683
14513TIP3    H143482   2.502   5.835   5.014 -1.9985  0.5882 -0.0652
14513TIP3    H243483   2.391   5.884   4.923  0.2874  1.4241 -2.4911
14514TIP3   OH243484   1.952   2.390   2.543 -0.1180 -0.6376 -0.2601
14514TIP3    H143485   2.000   2.380   2.461 -1.6842  1.1511 -1.4197
14514TIP3    H243486   2.001   2.457   2.591  0.5541 -1.3756  0.0943
14515TIP3   OH243487   3.484   5.912   6.399  0.0157  0.1734  0.0168
14515TIP3    H143488   3.473   6.005   6.377 -2.7202 -0.6536 -2.4865
14515TIP3    H243489   3.561   5.884   6.348  0.7258  1.0031  0.6247
14516TIP3   OH243490   8.251   0.675   1.540 -0.9642  0.6365 -0.0253
14516TIP3    H143491   8.220   0.590   1.571 -0.8572  0.7342  0.3528
14516TIP3    H243492   8.176   0.733   1.553 -0.6203  0.8783  0.9105
14517TIP3   OH243493   1.120   3.509   0.606  0.7330  0.3090  0.0175
14517TIP3    H143494   1.155   3.425   0.578 -0.7062 -0.1330 -0.5262
14517TIP3    H243495   1.143   3.570   0.536 -1.5579 -0.4771 -1.4979
14518TIP3   OH243496   2.455   5.842   3.130 -0.3237 -0.0409  0.5107
14518TIP3    H143497   2.411   5.888   3.059  0.2440 -0.0372  0.1567
14518TIP3    H243498   2.446   5.901   3.206 -1.5753 -0.3855  0.6372
14519TIP3   OH243499   2.221   2.366   1.575  0.5152 -0.0178 -0.2977
14519TIP3    H143500   2.264   2.314   1.643  0.6742 -0.8056 -0.9943
14519TIP3    H243501   2.227   2.312   1.496  0.8924  1.1519 -1.0811
14520TIP3   OH243502   8.262   3.760   1.889 -0.6023  0.1751  0.3864
14520TIP3    H143503   8.343   3.785   1.933 -0.4342  0.2770  0.0269
14520TIP3    H243504   8.192   3.796   1.943 -0.4170 -0.2355  0.8955
14521TIP3   OH243505   1.845   3.453   3.224 -0.5472 -0.1359  0.0290
14521TIP3    H143506   1.779   3.522   3.215  0.2856  0.6875  0.0524
14521TIP3    H243507   1.919   3.484   3.171 -0.8924 -1.9498 -1.5484
14522TIP3   OH243508   7.527   1.817   2.155 -0.6110 -0.1459  0.1861
14522TIP3    H143509   7.446   1.779   2.122  0.3174 -1.2485 -0.8963
14522TIP3    H243510   7.565   1.748   2.210  1.1738 -0.9056 -1.9218
14523TIP3   OH243511   8.062   2.113   2.595 -0.7631  0.0576 -0.3866
14523TIP3    H143512   8.085   2.026   2.627  0.6539  0.1224 -1.1864
14523TIP3    H243513   8.138   2.167   2.615 -0.8447  0.6627 -1.6275
14524TIP3   OH243514   3.161   3.724   6.937 -0.1760  0.4419  0.6292
14524TIP3    H143515   3.235   3.686   6.985 -1.0274 -2.3944 -0.2152
14524TIP3    H243516   3.200   3.758   6.856  0.6566  1.7096  1.5526
14525TIP3   OH243517   1.580   4.478   1.786  0.3332  0.2468  0.0949
14525TIP3    H143518   1.628   4.434   1.855  0.2664  2.3767  1.5410
14525TIP3    H243519   1.489   4.449   1.798  0.4745 -0.0987  0.3277
14526TIP3   OH243520   5.260   0.087   6.606 -0.0903  0.4157  0.3073
14526TIP3    H143521   5.281   0.098   6.699  0.1308  1.3638  0.1551
14526TIP3    H243522   5.176   0.041   6.606 -0.0625  0.3619  0.9785
14527TIP3   OH243523   7.073   3.052   1.431 -0.1374  0.0369 -0.3218
14527TIP3    H143524   7.071   3.133   1.381  0.4176  1.2324  1.5569
14527TIP3    H243525   6.987   3.045   1.471  1.0397  1.7724  2.6822
14528TIP3   OH243526   7.656   1.787   0.611 -0.4881  0.0054 -0.1093
14528TIP3    H143527   7.687   1.700   0.638 -3.1037 -0.8610  0.2136
14528TIP3    H243528   7.623   1.827   0.691  0.3854  1.1862 -0.3201
14529TIP3   OH243529   3.511   5.822   5.603 -0.0732  0.3485  0.0311
14529TIP3    H143530   3.574   5.892   5.584  0.1251  0.0171 -0.5679
14529TIP3    H243531   3.540   5.786   5.687  1.8876 -1.2547 -1.2836
14530TIP3   OH243532   1.168   1.256   1.983  0.3141 -0.2288  0.5824
14530TIP3    H143533   1.106   1.324   2.008  1.2207  0.0356  2.1528
14530TIP3    H243534   1.114   1.177   1.973 -0.4919  0.3393  0.4074
14531TIP3   OH243535   1.185   2.576   0.436 -0.2614  0.4133 -0.1039
14531TIP3    H143536   1.206   2.669   0.441  0.1661  0.4228 -1.7904
14531TIP3    H243537   1.208   2.551   0.346 -0.1508 -1.3701  0.3999
14532TIP3   OH243538   4.854   4.473   5.566 -0.2181 -0.0396 -0.0159
14532TIP3    H143539   4.780   4.532   5.580  0.0866 -0.1868  2.4181
14532TIP3    H243540   4.831   4.394   5.615  1.2923 -0.2924  0.3089
14533TIP3   OH243541   3.797   3.928   1.315 -0.2074 -0.5239  0.0112
14533TIP3    H143542   3.839   3.875   1.383  0.3679  2.5503  2.1747
14533TIP3    H243543   3.869   3.957   1.259 -0.3854 -1.1723 -0.5554
14534TIP3   OH243544   2.296   5.440   1.083 -0.5487  0.0036  0.4138
14534TIP3    H143545   2.361   5.449   1.153 -0.0968 -1.8865  0.2762
14534TIP3    H243546   2.321   5.504   1.017  0.2442  0.3600  1.0583
14535TIP3   OH243547   1.644   5.571   2.011 -0.2174  0.3719 -0.3154
14535TIP3    H143548   1.676   5.549   2.098  1.2733  0.8931 -0.7156
14535TIP3    H243549   1.549   5.566   2.019 -0.0670 -0.6660  1.0424
14536TIP3   OH243550   4.125   5.126   5.873  0.3010 -0.6481 -0.0977
14536TIP3    H143551   4.042   5.099   5.833  0.6263 -0.9067 -0.5976
14536TIP3    H243552   4.170   5.044   5.892  1.1244 -0.4740 -1.2599
14537TIP3   OH243553   5.530   7.221   6.149  0.0984  0.5020 -0.0119
14537TIP3    H143554   5.620   7.250   6.163 -0.1874  0.7017  1.4555
14537TIP3    H243555   5.483   7.300   6.123  0.1277  0.6115  0.2627
14538TIP3   OH243556   4.670   6.644   6.886  0.2523 -0.5609  0.4599
14538TIP3    H143557   4.693   6.737   6.887  1.6841 -0.8669 -1.3262
14538TIP3    H243558   4.598   6.638   6.824 -0.2972 -0.5655  1.0861
14539TIP3   OH243559   7.834   0.269   6.072  0.0738 -0.1488 -0.1692
14539TIP3    H143560   7.851   0.313   5.988  0.0686 -0.3635 -0.2841
14539TIP3    H243561   7.779   0.194   6.048  0.2790 -0.3513 -0.0053
14540TIP3   OH243562   3.052   3.130   0.614  0.2231 -0.2662  0.0710
14540TIP3    H143563   3.014   3.217   0.623 -0.0727 -0.5141  1.1757
14540TIP3    H243564   3.009   3.093   0.537  1.6839  1.2567 -1.5240
14541TIP3   OH243565   3.804   6.816   5.683  0.1258  0.3245 -0.0737
14541TIP3    H143566   3.736   6.757   5.651 -0.6186  1.3742 -0.4459
14541TIP3    H243567   3.876   6.805   5.620 -0.2194  0.2289 -0.4543
14542TIP3   OH243568   6.881   0.938   6.614  0.2062  0.2230 -0.4960
14542TIP3    H143569   6.838   0.975   6.537  0.4088 -0.6280 -1.0216
14542TIP3    H243570   6.944   0.875   6.579 -0.6330 -1.1464  0.4105
14543TIP3   OH243571   5.443   6.744   5.089 -0.6634  0.0006  0.7275
14543TIP3    H143572   5.495   6.812   5.131 -1.5399  0.3246  1.2822
14543TIP3    H243573   5.407   6.692   5.161 -0.2149 -0.9009  0.3152
14544TIP3   OH243574   0.694   2.846   2.793  0.0976 -0.4592 -0.2266
14544TIP3    H143575   0.684   2.897   2.873  0.7239 -0.5668 -0.0736
14544TIP3    H243576   0.627   2.778   2.799 -2.4889  1.8806 -1.6662
14545TIP3   OH243577   2.117   1.251   0.707  0.0976  0.2654 -0.1186
14545TIP3    H143578   2.187   1.276   0.646  0.1170  0.1709 -0.1357
14545TIP3    H243579   2.134   1.302   0.786 -0.7681  1.4838 -0.7082
14546TIP3   OH243580   7.152   0.728   6.089  0.0376 -0.2807 -0.0911
14546TIP3    H143581   7.212   0.682   6.147 -1.5850 -2.1612  0.1441
14546TIP3    H243582   7.105   0.789   6.146  0.8102  0.2950 -0.0568
14547TIP3   OH243583   0.625   0.669   0.868  0.1656  0.3920 -0.3234
14547TIP3    H143584   0.574   0.593   0.895  0.0832  0.5355 -0.0741
14547TIP3    H243585   0.563   0.741   0.866  0.0868  0.3037 -1.3000
14548TIP3   OH243586   8.185   1.292   6.391 -0.3902  0.4171 -0.1125
14548TIP3    H143587   8.193   1.248   6.306  0.5730  0.7860 -0.2236
14548TIP3    H243588   8.107   1.347   6.382  0.4369  1.4375 -1.2215
14549TIP3   OH243589   3.339   3.752   0.171  1.1157 -0.1521  0.0091
14549TIP3    H143590   3.264   3.730   0.225  1.0057 -1.2447 -0.5730
14549TIP3    H243591   3.415   3.735   0.228  0.9658 -0.2938  0.1681
14550TIP3   OH243592   5.222   7.807   6.917 -0.1916 -0.0029 -0.1966
14550TIP3    H143593   5.293   7.866   6.891 -0.2440  0.5484  0.8749
14550TIP3    H243594   5.250   7.721   6.887  0.2551  0.4390 -1.0735
14551TIP3   OH243595   1.772   4.297   1.245  0.5124  0.2283 -0.1052
14551TIP3    H143596   1.816   4.355   1.307 -0.7198  1.6089 -0.4855
14551TIP3    H243597   1.825   4.302   1.165  0.4736  0.7550 -0.0995
14552TIP3   OH243598   2.531   3.741   0.554  0.4640 -0.4620  0.0766
14552TIP3    H143599   2.504   3.794   0.629 -1.5688 -1.4949  0.1132
14552TIP3    H243600   2.543   3.803   0.483 -0.4244  0.2293  0.5208
14553TIP3   OH243601   4.441   0.471   6.381 -0.1075  0.0705  0.8794
14553TIP3    H143602   4.375   0.527   6.339  1.0856  0.3399 -0.7021
14553TIP3    H243603   4.398   0.387   6.393 -0.7770  0.2720 -0.0707
14554TIP3   OH243604   4.477   3.429   0.413 -0.1294  0.2331 -0.1092
14554TIP3    H143605   4.568   3.445   0.437  0.1962 -1.5403 -0.0829
14554TIP3    H243606   4.433   3.513   0.424  1.5156  1.0959 -0.1548
14555TIP3   OH243607   2.941   1.072   0.615 -0.1947  0.1822  0.3734
14555TIP3    H143608   3.003   1.130   0.570 -0.9260  0.2424 -0.5672
14555TIP3    H243609   2.886   1.037   0.545 -0.6226 -0.6094  1.0959
14556TIP3   OH243610   2.579   6.426   1.105 -0.4366 -0.3958  0.1226
14556TIP3    H143611   2.618   6.481   1.036 -1.7521 -0.3321 -0.5773
14556TIP3    H243612   2.605   6.469   1.187 -1.6108  1.4233 -0.4211
14557TIP3   OH243613   1.943   4.458   1.374  0.1317  0.1198 -0.2220
14557TIP3    H143614   1.892   4.477   1.453  2.8612  0.3839  1.5799
14557TIP3    H243615   2.012   4.399   1.405  2.9106  2.3985 -1.7822
14558TIP3   OH243616   2.942   5.475   0.862 -0.2541 -0.1334 -0.2727
14558TIP3    H143617   2.990   5.422   0.925 -0.2418  0.9122  0.6091
14558TIP3    H243618   2.858   5.431   0.852  0.7370 -1.8123 -1.6044
14559TIP3   OH243619   4.435   7.781   4.924  0.6507  0.3815  0.3034
14559TIP3    H143620   4.458   7.765   5.015  0.3047 -0.6288  0.2256
14559TIP3    H243621   4.473   7.866   4.903  1.1418  0.3906  1.2461
14560TIP3   OH243622   2.067   4.039   0.985  0.0743  0.3126 -0.7647
14560TIP3    H143623   2.037   4.121   1.023 -0.9587  0.0161 -0.9316
14560TIP3    H243624   2.138   4.010   1.042  0.2287  1.1559 -0.5266
14561TIP3   OH243625   1.948   1.944   1.574 -0.3689 -0.1716 -0.4823
14561TIP3    H143626   1.978   2.021   1.623  0.1110 -1.5120  1.3689
14561TIP3    H243627   1.961   1.968   1.482  0.4963  1.6636  0.0927
14562TIP3   OH243628   8.461   0.820   6.890  0.3652  0.2013  0.3758
14562TIP3    H143629   8.421   0.870   6.819  1.2086 -0.8356 -0.8629
14562TIP3    H243630   8.418   0.735   6.887  0.5388  0.0919  0.9763
14563TIP3   OH243631   3.148   5.456   0.256  0.0658 -0.3775  0.4129
14563TIP3    H143632   3.177   5.375   0.299 -0.6338 -0.3824  0.8872
14563TIP3    H243633   3.090   5.497   0.320 -0.2748  0.0632 -0.1780
14564TIP3   OH243634   2.731   4.458   1.093 -0.0421 -0.1620 -0.0799
14564TIP3    H143635   2.797   4.395   1.064  0.1051  0.8480 -2.0125
14564TIP3    H243636   2.765   4.543   1.065 -1.7141  0.4628 -0.2398
14565TIP3   OH243637   1.555   2.931   4.245  0.0313  0.3680  0.6727
14565TIP3    H143638   1.513   2.908   4.328  0.2985  0.7160  0.9034
14565TIP3    H243639   1.510   2.878   4.179  0.4550 -0.6165  1.1697
14566TIP3   OH243640   3.016   4.035   1.152 -0.0913  1.1923  0.1555
14566TIP3    H143641   3.095   4.007   1.105 -1.1741  0.6846 -1.4179
14566TIP3    H243642   3.048   4.079   1.230  1.7325 -0.4238  0.3418
14567TIP3   OH243643   4.565   6.094   6.906 -0.1962  0.2641  0.2490
14567TIP3    H143644   4.614   6.013   6.917  0.2346  0.7125  1.8106
14567TIP3    H243645   4.605   6.136   6.829  0.9074 -0.0661  0.6305
14568TIP3   OH243646   5.511   5.131   5.515  0.2550 -0.4553 -0.0072
14568TIP3    H143647   5.496   5.069   5.444  1.2495 -0.3293 -0.3320
14568TIP3    H243648   5.600   5.164   5.500 -0.1912  0.9004  0.2706
14569TIP3   OH243649   3.127   4.581   0.400  0.1507  0.7182 -0.3951
14569TIP3    H143650   3.038   4.606   0.426  0.0340 -2.1358  2.3255
14569TIP3    H243651   3.183   4.648   0.440 -0.7323  2.3464 -1.8512
14570TIP3   OH243652   0.951   4.554   1.790  0.0947  0.0387 -0.3560
14570TIP3    H143653   0.999   4.509   1.720  2.3803  2.5302 -0.5071
14570TIP3    H243654   0.860   4.527   1.778  0.8135 -1.5053 -2.7834
14571TIP3   OH243655   1.815   3.947   2.239 -0.0659 -0.0461  0.1466
14571TIP3    H143656   1.778   3.861   2.218 -0.6920  0.4777 -0.9314
14571TIP3    H243657   1.790   3.961   2.330 -1.8399 -0.0797 -0.3096
14572TIP3   OH243658   4.958   6.454   6.458  0.0956 -0.0801  0.3775
14572TIP3    H143659   4.947   6.408   6.541 -0.0338  1.2096  1.0900
14572TIP3    H243660   5.043   6.426   6.425  0.4623 -0.0433  1.3003
14573TIP3   OH243661   1.235   3.476   0.940  0.2010 -0.0594 -0.7869
14573TIP3    H143662   1.257   3.454   1.030 -0.4919 -1.1862 -0.8824
14573TIP3    H243663   1.309   3.444   0.888 -0.1895 -0.9838 -0.7868
14574TIP3   OH243664   1.033   6.016   0.117  0.4358  0.0762 -0.0429
14574TIP3    H143665   0.940   5.997   0.105  0.6590 -1.2748  0.2899
14574TIP3    H243666   1.037   6.060   0.202  0.5567 -3.7706  2.0559
14575TIP3   OH243667   2.046   6.160   0.560  0.6479 -0.5926  0.0026
14575TIP3    H143668   2.114   6.210   0.516  1.4889 -0.8859  0.9513
14575TIP3    H243669   2.061   6.069   0.533 -1.1474 -0.3257 -2.0740
14576TIP3   OH243670   1.293   3.790   1.039 -0.0867 -0.0500 -0.7619
14576TIP3    H143671   1.305   3.728   0.967  0.9912  0.4671 -1.0354
14576TIP3    H243672   1.198   3.803   1.044 -0.2873 -1.3996 -0.9727
14577TIP3   OH243673   2.595   1.928   1.369  0.2764 -0.5015  0.1371
14577TIP3    H143674   2.515   1.891   1.333  0.6542 -1.3855  0.1894
14577TIP3    H243675   2.620   1.869   1.440 -0.2544  1.0205  1.6183
14578TIP3   OH243676   2.490   1.187   1.263 -0.1652  0.0784  0.1305
14578TIP3    H143677   2.452   1.118   1.318 -0.6979 -0.4664 -0.9047
14578TIP3    H243678   2.576   1.203   1.301 -0.1078 -1.0264  0.4988
14579TIP3   OH243679   6.379   0.451   6.596  0.1333  0.1923 -0.0303
14579TIP3    H143680   6.316   0.437   6.525  0.9916 -2.0423 -0.3785
14579TIP3    H243681   6.330   0.502   6.661 -1.7646 -0.7125 -0.6935
14580TIP3   OH243682   5.541   6.470   6.532  0.9310  0.1190  0.1463
14580TIP3    H143683   5.594   6.390   6.535 -0.5482 -0.8517  0.7013
14580TIP3    H243684   5.490   6.468   6.613  0.0550  1.0465 -0.3768
14581TIP3   OH243685   1.875   3.266   2.936  0.0560  0.1855  0.0177
14581TIP3    H143686   1.786   3.302   2.932 -0.3043 -0.6779  0.1357
14581TIP3    H243687   1.923   3.328   2.991 -0.7653  0.0697  0.8889
14582TIP3   OH243688   1.995   5.224   1.421  0.2030  0.6899  0.8514
14582TIP3    H143689   2.028   5.198   1.335 -0.1500 -2.9632  1.7280
14582TIP3    H243690   1.907   5.258   1.404 -0.1103 -0.5792 -0.1979
14583TIP3   OH243691   4.639   2.250   0.609  0.5017  0.5226  0.3842
14583TIP3    H143692   4.680   2.249   0.695  1.1575 -0.3840  0.0732
14583TIP3    H243693   4.655   2.338   0.575  2.4759  0.0974  0.1411
14584TIP3   OH243694   6.947   0.565   6.890 -0.3114 -0.4394  0.1980
14584TIP3    H143695   6.899   0.607   6.819 -2.1672 -3.2661 -0.3256
14584TIP3    H243696   7.015   0.514   6.846 -0.8694 -1.4505  0.4881
14585TIP3   OH243697   4.567   5.990   6.298 -0.2824  0.6677 -0.3690
14585TIP3    H143698   4.572   5.906   6.253  0.2456  0.2810  0.4124
14585TIP3    H243699   4.544   5.967   6.388  0.0907  1.3482 -0.1029
14586TIP3   OH243700   2.487   2.171   2.146  0.2753 -0.0489 -0.1035
14586TIP3    H143701   2.497   2.130   2.232 -0.4956 -2.6162 -1.1765
14586TIP3    H243702   2.577   2.180   2.112  0.4908 -0.2250  0.4268
14587TIP3   OH243703   1.193   1.094   0.259 -0.4819 -0.0101  0.0661
14587TIP3    H143704   1.266   1.067   0.315  0.4354  2.4775  0.1248
14587TIP3    H243705   1.230   1.096   0.171 -0.5673  0.8764  0.0473
14588TIP3   OH243706   1.106   2.348   0.540 -0.5727  0.0835 -0.3458
14588TIP3    H143707   1.144   2.432   0.515  1.8777 -1.4321 -1.8901
14588TIP3    H243708   1.059   2.319   0.462 -0.2215 -0.6344 -0.2870
14589TIP3   OH243709   1.785   4.515   2.922  0.2634 -0.0284  0.2598
14589TIP3    H143710   1.784   4.602   2.883  0.0128 -1.1666 -2.3277
14589TIP3    H243711   1.876   4.504   2.951  0.4680  0.8071 -0.0293
14590TIP3   OH243712   0.294   2.454   0.564 -0.0725 -0.0589 -0.4805
14590TIP3    H143713   0.366   2.513   0.585  0.6441 -1.3761  0.8936
14590TIP3    H243714   0.240   2.454   0.644  0.2520 -1.6904 -0.2433
14591TIP3   OH243715   7.883   3.392   1.244  0.1280  0.6146 -0.0317
14591TIP3    H143716   7.940   3.463   1.216  0.9940 -0.7181 -1.7316
14591TIP3    H243717   7.798   3.413   1.206  0.5005  0.5091 -0.9336
14592TIP3   OH243718   1.918   2.374   0.694  0.2154  0.2347 -0.0768
14592TIP3    H143719   1.839   2.324   0.676 -0.4794  1.7781 -1.4419
14592TIP3    H243720   1.988   2.327   0.649 -0.6167  1.0906 -2.3184
14593TIP3   OH243721   1.245   4.249   1.085  0.1247 -0.1323  0.0750
14593TIP3    H143722   1.323   4.265   1.032  0.6802 -0.7508  0.6956
14593TIP3    H243723   1.175   4.297   1.040  1.0894  1.3529  0.1405
14594TIP3   OH243724   4.959   7.229   6.761  0.0633 -0.4858 -0.1937
14594TIP3    H143725   4.907   7.299   6.722 -0.7664 -1.7400 -1.4038
14594TIP3    H243726   4.947   7.155   6.702  1.9526 -1.2711  0.3782
14595TIP3   OH243727   2.562   4.049   0.571  0.3891 -0.1171 -0.3920
14595TIP3    H143728   2.474   4.064   0.537  0.5868 -2.7301 -2.2299
14595TIP3    H243729   2.549   4.037   0.665 -0.9381  1.4402 -0.3457
14596TIP3   OH243730   3.495   4.667   0.690  0.0356 -0.1665  0.4457
14596TIP3    H143731   3.529   4.587   0.730 -0.2459  1.1686  3.5021
14596TIP3    H243732   3.573   4.712   0.657  0.2515 -1.3811 -0.7405
14597TIP3   OH243733   2.321   3.366   1.362 -0.0644  0.1226 -0.5308
14597TIP3    H143734   2.394   3.343   1.420 -1.8105 -0.3291  1.5177
14597TIP3    H243735   2.270   3.286   1.353 -0.6019  0.5643 -1.5516
14598TIP3   OH243736   2.876   2.547   1.080 -0.4134 -0.1836  0.2944
14598TIP3    H143737   2.899   2.477   1.020 -1.7330 -0.8873  0.5954
14598TIP3    H243738   2.930   2.621   1.053  1.0331 -1.3210  0.0094
14599TIP3   OH243739   6.052   0.842   5.232  0.2097  0.9757  0.3111
14599TIP3    H143740   6.093   0.784   5.297  0.9135  1.1309  0.0133
14599TIP3    H243741   6.126   0.884   5.188 -0.2724  1.0498 -0.4274
14600TIP3   OH243742   0.756   2.107   1.801 -0.2742 -0.8175 -0.2511
14600TIP3    H143743   0.685   2.144   1.750  0.9672 -0.8281 -2.0183
14600TIP3    H243744   0.729   2.016   1.818 -1.8082 -0.1046  1.2730
14601TIP3   OH243745   4.752   7.845   5.005 -0.1166 -0.4453 -0.1353
14601TIP3    H143746   4.745   7.768   4.949  0.7021  0.0022 -0.8606
14601TIP3    H243747   4.846   7.861   5.013 -0.3000  2.8199 -3.2652
14602TIP3   OH243748   2.242   5.079   2.996  0.5373 -0.2293 -0.0876
14602TIP3    H143749   2.321   5.025   3.001  1.8717  1.8437  2.1970
14602TIP3    H243750   2.170   5.017   3.006  1.8826 -1.9893 -0.9314
14603TIP3   OH243751   5.867   6.818   5.335 -0.1680  0.2188  0.2873
14603TIP3    H143752   5.957   6.849   5.347  0.3588 -0.8355 -0.7457
14603TIP3    H243753   5.815   6.897   5.323  0.9345  0.7675 -1.0335
14604TIP3   OH243754   1.680   2.809   3.019 -0.1198 -0.1424  0.0431
14604TIP3    H143755   1.587   2.818   3.001 -0.0136  1.0143  0.0015
14604TIP3    H243756   1.685   2.741   3.086 -0.8926 -1.0356 -0.7891
14605TIP3   OH243757   8.142   0.443   5.976 -0.5276 -0.7311  0.2413
14605TIP3    H143758   8.113   0.399   5.897 -1.8880 -1.2347  0.9967
14605TIP3    H243759   8.065   0.492   6.006 -0.0019 -0.4720  1.1918
14606TIP3   OH243760   5.934   6.275   6.156  0.4479  0.2351 -0.3379
14606TIP3    H143761   6.027   6.255   6.147  0.3712  0.1407 -0.8812
14606TIP3    H243762   5.933   6.358   6.205  0.8431  0.8826 -1.4256
14607TIP3   OH243763   8.085   0.795   6.594  0.0328 -0.2256 -0.1967
14607TIP3    H143764   8.017   0.727   6.598  2.4959 -2.7899  0.3236
14607TIP3    H243765   8.119   0.790   6.505 -0.0427  0.6408 -0.2796
14608TIP3   OH243766   2.023   2.679   0.415 -0.1043  0.2288  0.4402
14608TIP3    H143767   2.113   2.666   0.447  1.6012  0.9429 -3.6929
14608TIP3    H243768   2.013   2.613   0.346 -2.6892  0.3141  0.7161
14609TIP3   OH243769   7.876   1.259   6.108 -0.4130 -0.0035 -0.0456
14609TIP3    H143770   7.910   1.181   6.153  1.4231  0.4783 -0.5389
14609TIP3    H243771   7.811   1.295   6.167  0.7979 -0.2965  1.5070
14610TIP3   OH243772   7.542   0.553   6.899 -0.1553  0.4250  0.1818
14610TIP3    H143773   7.497   0.482   6.853  0.6823  1.4199 -2.2230
14610TIP3    H243774   7.529   0.630   6.844  2.6791  1.2013  0.4996
14611TIP3   OH243775   2.631   4.531   1.355  0.7104  0.6198 -0.0017
14611TIP3    H143776   2.646   4.498   1.266  0.0056 -1.1031  0.4865
14611TIP3    H243777   2.686   4.475   1.410  1.3942  1.8980  0.6236
14612TIP3   OH243778   2.164   3.059   2.005  0.0812  0.5037  0.6517
14612TIP3    H143779   2.205   3.136   1.967  0.2397 -1.0119 -2.4006
14612TIP3    H243780   2.095   3.094   2.062  1.0620  2.8997  0.4354
14613TIP3   OH243781   5.172   7.896   5.208  0.8690 -0.1172 -1.0413
14613TIP3    H143782   5.176   7.893   5.304 -0.7999  0.6297 -0.9343
14613TIP3    H243783   5.203   7.983   5.185 -2.6823  1.2937 -0.8871
14614TIP3   OH243784   5.960   0.437   6.019 -0.9459  0.0784 -0.0547
14614TIP3    H143785   6.030   0.444   6.084 -1.5559  0.3259  0.5688
14614TIP3    H243786   6.000   0.468   5.938  0.1207 -1.1598 -0.0281
14615TIP3   OH243787   2.239   3.483   0.246  0.0791  0.0668  0.6565
14615TIP3    H143788   2.148   3.453   0.238 -0.0215  0.8229 -1.2598
14615TIP3    H243789   2.291   3.407   0.220 -0.0499  0.1162  0.2479
14616TIP3   OH243790   3.294   1.300   0.638  0.0223 -0.5663  0.4511
14616TIP3    H143791   3.217   1.356   0.648 -0.5974 -1.3112 -0.1099
14616TIP3    H243792   3.364   1.361   0.611 -0.7082 -0.0951 -0.4059
14617TIP3   OH243793   3.198   4.777   0.570 -0.1645  0.5080 -0.2222
14617TIP3    H143794   3.293   4.789   0.574  0.0700 -0.4527 -2.5292
14617TIP3    H243795   3.169   4.838   0.503 -1.4077  1.8553  1.4763
14618TIP3   OH243796   1.282   5.978   0.441  0.1734  0.2860  0.2635
14618TIP3    H143797   1.305   6.039   0.511  1.8833 -2.0276  1.7614
14618TIP3    H243798   1.242   5.904   0.486 -1.5390  0.0987 -1.5101
14619TIP3   OH243799   6.522   0.069   5.141 -0.3883 -0.8508 -0.3334
14619TIP3    H143800   6.602   0.047   5.094 -0.9866 -0.9486 -1.3310
14619TIP3    H243801   6.552   0.104   5.225  0.6768 -1.4170 -0.4661
14620TIP3   OH243802   4.223   6.801   6.036 -0.0565 -0.2863  0.2056
14620TIP3    H143803   4.315   6.775   6.045  0.3949  0.1841 -2.5878
14620TIP3    H243804   4.226   6.895   6.020 -1.0918 -0.1323  0.8770
14621TIP3   OH243805   3.641   5.545   6.473 -0.1971 -0.1880  0.2467
14621TIP3    H143806   3.546   5.552   6.484 -0.4211 -1.0515 -1.0109
14621TIP3    H243807   3.659   5.451   6.469  0.7202 -0.0335  0.5454
14622TIP3   OH243808   3.614   2.505   0.814 -0.4749  0.2915 -0.1347
14622TIP3    H143809   3.647   2.485   0.727  0.9401  1.0066  0.2267
14622TIP3    H243810   3.545   2.570   0.800 -0.4924  0.1322 -0.7536
14623TIP3   OH243811   7.169   1.867   5.667 -0.3319  0.3951  0.1835
14623TIP3    H143812   7.099   1.806   5.690 -0.9472  0.9658 -0.1694
14623TIP3    H243813   7.159   1.880   5.572  0.3953  0.2908  0.0945
14624TIP3   OH243814   2.719   3.021   0.372 -0.1273  0.3250  0.3854
14624TIP3    H143815   2.806   3.060   0.373  0.1312 -0.2701  0.9671
14624TIP3    H243816   2.665   3.085   0.325  0.4394  1.0759  0.7573
14625TIP3   OH243817   1.870   3.075   1.846 -0.5826  0.1300  0.3936
14625TIP3    H143818   1.844   2.984   1.860 -1.1687 -0.2116 -2.5149
14625TIP3    H243819   1.944   3.069   1.785  1.3700  1.4780  2.5780
14626TIP3   OH243820   0.889   1.837   0.246 -0.1105 -0.3094 -0.0647
14626TIP3    H143821   0.868   1.771   0.180  0.8714 -0.6769 -0.0117
14626TIP3    H243822   0.835   1.813   0.321 -0.9965 -0.0757 -0.6114
14627TIP3   OH243823   7.795   1.777   6.188  0.1654 -0.6840 -0.1000
14627TIP3    H143824   7.730   1.772   6.118 -1.4382  0.6108  1.2810
14627TIP3    H243825   7.756   1.729   6.261  0.5336  0.5141  0.9022
14628TIP3   OH243826   4.881   5.888   6.557  0.3492 -0.4756  0.2154
14628TIP3    H143827   4.806   5.848   6.601 -0.1892 -1.6937 -1.7385
14628TIP3    H243828   4.921   5.817   6.507  1.5154  0.6421 -0.4901
14629TIP3   OH243829   3.149   2.914   1.956 -0.1775  0.1574  0.4253
14629TIP3    H143830   3.077   2.854   1.942  1.0892 -1.3570  0.2798
14629TIP3    H243831   3.213   2.891   1.888 -0.0695  2.2924 -0.2392
14630TIP3   OH243832   6.219   2.803   0.851 -0.0296  0.5082  0.1703
14630TIP3    H143833   6.162   2.873   0.882  0.2627  0.8183  0.0201
14630TIP3    H243834   6.258   2.767   0.930 -0.3313  0.3879  0.2625
14631TIP3   OH243835   0.093   2.281   1.911  0.1989  0.1933 -0.0615
14631TIP3    H143836   0.127   2.327   1.834  1.1518 -1.4857 -0.6866
14631TIP3    H243837   0.138   2.322   1.985  0.3525  0.8645 -0.5204
14632TIP3   OH243838   0.839   2.186   1.330  0.7578 -0.0153 -0.2501
14632TIP3    H143839   0.902   2.163   1.398  0.5542 -1.5109 -0.5490
14632TIP3    H243840   0.794   2.264   1.364  2.1847  0.5624  0.3283
14633TIP3   OH243841   4.746   0.283   5.497 -0.1086 -0.1588  0.2067
14633TIP3    H143842   4.792   0.357   5.456  1.2548 -1.6384 -1.0262
14633TIP3    H243843   4.759   0.211   5.435 -1.0785 -1.5261  1.5813
14634TIP3   OH243844   3.050   7.351   4.691 -0.2957 -0.0798  0.2282
14634TIP3    H143845   2.968   7.348   4.642 -0.9114  0.2487  1.2118
14634TIP3    H243846   3.103   7.417   4.647 -0.3999 -0.5831 -0.6511
14635TIP3   OH243847   6.500   2.964   5.956  0.0189  0.3857  0.3960
14635TIP3    H143848   6.508   2.964   6.052  2.0040 -0.1414  0.2559
14635TIP3    H243849   6.558   2.894   5.927 -0.7710  0.3730 -1.1914
14636TIP3   OH243850   1.740   6.332   6.745 -0.2102  0.2715  0.6181
14636TIP3    H143851   1.706   6.333   6.656 -1.9337 -0.4928  1.2517
14636TIP3    H243852   1.692   6.401   6.790 -0.2049 -0.1384  1.2567
14637TIP3   OH243853   1.591   2.278   0.106 -0.0602  0.3161  0.2802
14637TIP3    H143854   1.573   2.317   0.020  1.0189  1.2866  0.4845
14637TIP3    H243855   1.621   2.190   0.086  0.3344  0.5903 -0.3578
14638TIP3   OH243856   1.226   1.367   1.161  0.0469 -0.1051  0.1834
14638TIP3    H143857   1.266   1.449   1.192  1.2925 -0.6485  0.0448
14638TIP3    H243858   1.169   1.394   1.090 -0.2394  0.7577  0.7372
14639TIP3   OH243859   2.492   2.970   1.306 -0.1240  0.3277  0.4533
14639TIP3    H143860   2.477   2.938   1.395 -0.0391  0.1948  0.4192
14639TIP3    H243861   2.580   2.942   1.284 -0.1893  0.2529  0.2808
14640TIP3   OH243862   1.054   3.486   2.464 -0.7393  0.1970 -0.4197
14640TIP3    H143863   1.036   3.579   2.451 -2.3632 -0.2897 -1.7413
14640TIP3    H243864   1.122   3.485   2.532 -0.7508  2.3296 -0.3220
14641TIP3   OH243865   0.799   2.168   0.674  0.1072  0.3119 -0.1784
14641TIP3    H143866   0.879   2.182   0.725  0.8293 -1.3521 -0.8189
14641TIP3    H243867   0.730   2.211   0.724  0.8404 -1.0827  2.0732
14642TIP3   OH243868   1.202   7.154   0.670 -0.2087  0.0319 -0.1288
14642TIP3    H143869   1.182   7.067   0.704 -2.3054  0.1615 -1.0032
14642TIP3    H243870   1.281   7.141   0.617 -0.8996 -1.4724 -0.8038
14643TIP3   OH243871  -0.014   1.104   1.401 -0.3745  0.4819 -0.8328
14643TIP3    H143872  -0.045   1.064   1.481  0.7590 -0.3223 -0.7763
14643TIP3    H243873   0.080   1.116   1.415 -0.1201  0.1275 -2.1079
14644TIP3   OH243874   1.711   2.054   1.275 -0.3521  0.2345 -0.1591
14644TIP3    H143875   1.712   2.143   1.241  0.3531  0.1662 -0.3162
14644TIP3    H243876   1.801   2.037   1.303 -0.7564  0.0182  1.0283
14645TIP3   OH243877   2.133   2.604   0.020  0.5927  0.3598  0.2659
14645TIP3    H143878   2.056   2.646  -0.018  1.2340  1.4807  0.1704
14645TIP3    H243879   2.099   2.550   0.090 -0.2255  1.3537  0.6514
14646TIP3   OH243880   2.530   2.494   0.900  0.0074 -0.1106  0.0678
14646TIP3    H143881   2.592   2.438   0.947 -1.8340 -1.4348  1.0137
14646TIP3    H243882   2.575   2.577   0.890  2.2069 -1.2756  0.0660
14647TIP3   OH243883   2.513   2.519   1.578 -0.2013 -0.1321 -0.1988
14647TIP3    H143884   2.514   2.581   1.651 -0.0126 -0.6184  0.2143
14647TIP3    H243885   2.437   2.464   1.594  0.4411 -0.9150  0.2069
14648TIP3   OH243886   0.675   4.087   1.325  0.3363  0.3291  0.1459
14648TIP3    H143887   0.677   4.179   1.348  1.5783  0.2599  0.3403
14648TIP3    H243888   0.591   4.055   1.357  0.3826  1.1346  1.0689
14649TIP3   OH243889   2.152   3.682   3.933  0.4018  0.5973 -0.2843
14649TIP3    H143890   2.229   3.647   3.978  0.4294  1.1833  0.1340
14649TIP3    H243891   2.115   3.744   3.995  0.7784  1.8753 -1.3238
14650TIP3   OH243892   5.033   2.159   0.443 -0.2665 -0.6617 -0.3810
14650TIP3    H143893   4.999   2.172   0.355  1.1348  1.2821 -0.6925
14650TIP3    H243894   4.987   2.225   0.496  1.9550  1.1134 -0.5596
14651TIP3   OH243895   6.847   0.361   5.360 -0.2615 -0.3132  0.0260
14651TIP3    H143896   6.806   0.446   5.378  0.5357  0.1912 -0.4874
14651TIP3    H243897   6.888   0.336   5.443 -1.0334 -0.4964  0.3518
14652TIP3   OH243898   5.463   7.970   6.381  0.1727 -0.1765 -0.2091
14652TIP3    H143899   5.372   7.940   6.392 -0.7727  1.8267 -2.1769
14652TIP3    H243900   5.462   8.062   6.406  1.5573  0.0059 -0.7670
14653TIP3   OH243901   5.392   0.116   6.375  0.0918  0.2995  0.3524
14653TIP3    H143902   5.331   0.107   6.447  1.1651  0.3569  1.2792
14653TIP3    H243903   5.378   0.205   6.342 -1.1765 -0.1147 -0.2346
14654TIP3   OH243904   1.056   2.256   0.792 -0.0216 -0.1713 -0.5582
14654TIP3    H143905   1.116   2.278   0.863 -0.8721  1.7664 -0.4091
14654TIP3    H243906   1.090   2.302   0.716 -0.9606  0.4682 -0.6056
14655TIP3   OH243907   2.117   3.982   2.197 -0.0425  0.1838  0.8279
14655TIP3    H143908   2.026   3.976   2.225 -0.2403  0.7230  0.3108
14655TIP3    H243909   2.122   3.929   2.118 -0.1613  1.0104  0.2539
14656TIP3   OH243910   2.852   7.336   5.215 -0.3447  0.6318 -0.3428
14656TIP3    H143911   2.797   7.412   5.198  0.5741  1.5714  0.7827
14656TIP3    H243912   2.891   7.315   5.131 -1.3570  0.8035 -0.8607
14657TIP3   OH243913   6.687   7.961   5.087 -0.8720 -0.3207 -0.3593
14657TIP3    H143914   6.751   8.014   5.039  0.5156 -0.2960  1.5057
14657TIP3    H243915   6.616   8.023   5.106  0.4132  0.7386  1.1636
14658TIP3   OH243916   1.557   1.938   0.181  0.7499 -0.4273  0.0072
14658TIP3    H143917   1.623   2.007   0.176  1.1235 -0.8220 -0.6671
14658TIP3    H243918   1.476   1.980   0.152  0.6369  0.1315  1.0996
14659TIP3   OH243919   5.508   3.985   1.136  0.1116 -0.1942 -0.1501
14659TIP3    H143920   5.492   4.079   1.144 -0.3561 -0.2456 -0.4917
14659TIP3    H243921   5.425   3.944   1.159  0.1460 -0.5064 -0.5769
14660TIP3   OH243922   2.206   3.468   0.933 -0.0858  0.4805  0.5630
14660TIP3    H143923   2.296   3.457   0.963 -0.3963  0.5641  1.5745
14660TIP3    H243924   2.196   3.406   0.862  0.8657  0.6936  0.2324
14661TIP3   OH243925   5.904   6.926   6.433  0.2580 -0.0091  0.0012
14661TIP3    H143926   5.959   6.968   6.367  0.0026  0.3394  0.0078
14661TIP3    H243927   5.816   6.958   6.413  0.3847  1.3056  1.4425
14662TIP3   OH243928   6.494   6.324   5.315  0.5218 -0.0184 -0.2098
14662TIP3    H143929   6.446   6.243   5.331  1.0708 -0.2994  0.0328
14662TIP3    H243930   6.544   6.307   5.235  0.7255  0.0358 -0.0954
14663TIP3   OH243931   4.189   2.678   0.568  0.0945  0.1409  0.0423
14663TIP3    H143932   4.257   2.611   0.573  3.1705  3.1463  0.6538
14663TIP3    H243933   4.159   2.688   0.659  1.1877  1.0758  0.3103
14664TIP3   OH243934   0.835   1.641   2.269  0.2167  0.0160  0.6418
14664TIP3    H143935   0.786   1.690   2.203 -0.6564 -0.0254  1.2571
14664TIP3    H243936   0.856   1.705   2.336 -0.0094 -0.2253  0.9421
14665TIP3   OH243937   5.274   5.212   5.086  0.7088 -0.7250  0.0114
14665TIP3    H143938   5.248   5.124   5.057  0.2547  0.1270 -2.3211
14665TIP3    H243939   5.368   5.214   5.071  0.4342 -0.1930 -1.7661
14666TIP3   OH243940   1.299   2.362   0.050  0.4670 -0.5094 -0.0593
14666TIP3    H143941   1.359   2.306   0.099  0.8818 -1.0424 -1.1580
14666TIP3    H243942   1.309   2.333  -0.041  1.0187  1.6407 -0.7031
14667TIP3   OH243943   3.107   2.183   1.104 -0.0195  0.2634  0.2044
14667TIP3    H143944   3.147   2.108   1.059  0.1538 -0.3795  1.4015
14667TIP3    H243945   3.045   2.144   1.165 -1.1542  1.1821 -0.3348
14668TIP3   OH243946   3.787   3.943   0.525 -0.3037 -0.2756 -0.3779
14668TIP3    H143947   3.764   3.881   0.594 -0.3633  1.0103  0.7917
14668TIP3    H243948   3.781   3.893   0.444 -2.7687 -1.1369  0.3081
14669TIP3   OH243949   0.109   1.533   1.034  0.0745  0.1309 -0.0756
14669TIP3    H143950   0.097   1.439   1.018  2.4762  0.2431 -2.9536
14669TIP3    H243951   0.025   1.572   1.008  0.0071 -0.9614 -1.5948
14670TIP3   OH243952   8.341   0.817   4.211  0.5277 -0.0803 -0.6099
14670TIP3    H143953   8.409   0.876   4.244 -0.2623  0.0586  0.7991
14670TIP3    H243954   8.272   0.875   4.179 -0.4393 -0.2013  1.1778
14671TIP3   OH243955   8.249   0.282   5.100 -0.5262  0.6060  0.0523
14671TIP3    H143956   8.195   0.329   5.036 -1.7353  0.4367  0.9230
14671TIP3    H243957   8.244   0.335   5.179  0.2445  0.3644  0.2668
14672TIP3   OH243958   1.479   4.249   0.942  0.3461 -0.6447  0.0072
14672TIP3    H143959   1.524   4.185   0.886  1.1863 -0.3064  0.2907
14672TIP3    H243960   1.548   4.289   0.994 -0.4003 -0.7804  1.1249
14673TIP3   OH243961   3.993   1.563   1.595  0.6371  0.6237  0.1860
14673TIP3    H143962   4.026   1.495   1.535 -0.4208 -1.1712  1.5637
14673TIP3    H243963   4.039   1.643   1.569 -0.8102  0.2267 -3.9327
14674TIP3   OH243964   2.235   4.353   0.153  0.3990  0.8343  0.3910
14674TIP3    H143965   2.267   4.396   0.232 -0.9676 -0.5433  1.7255
14674TIP3    H243966   2.184   4.421   0.109 -0.0653  1.1945  1.4563
14675TIP3   OH243967   1.854   3.649   1.606 -0.2161 -0.1213 -0.3657
14675TIP3    H143968   1.760   3.641   1.587  0.3703 -0.8620 -3.1659
14675TIP3    H243969   1.891   3.687   1.526  1.7181  1.3021  1.1619
14676TIP3   OH243970   5.845   7.717   6.356 -0.2927  0.5805 -0.0300
14676TIP3    H143971   5.850   7.777   6.430 -1.5496 -0.5794  1.0222
14676TIP3    H243972   5.761   7.672   6.367  0.4067 -1.0309 -1.0468
14677TIP3   OH243973   2.944   3.906   0.292  0.3927  0.3285  0.5438
14677TIP3    H143974   2.913   3.822   0.257 -1.7864  0.5519  1.8244
14677TIP3    H243975   2.959   3.890   0.385  2.5526  0.6825  0.2636
14678TIP3   OH243976   4.938   2.869   1.399 -0.4213 -0.2314  0.7380
14678TIP3    H143977   5.007   2.869   1.465  0.3674 -0.8231 -0.0804
14678TIP3    H243978   4.911   2.778   1.391 -1.4187  0.0188  1.1709
14679TIP3   OH243979   5.756   2.194   2.650 -0.2366 -0.7073  0.2660
14679TIP3    H143980   5.823   2.253   2.684 -2.0808  0.8965  1.1945
14679TIP3    H243981   5.798   2.108   2.651  2.3282  0.4728 -0.6606
14680TIP3   OH243982   2.784   2.876   1.339  0.4188  0.6122  0.0272
14680TIP3    H143983   2.811   2.784   1.343  0.5423  0.5480 -1.6937
14680TIP3    H243984   2.817   2.915   1.420 -1.5970 -1.3585  1.8742
14681TIP3   OH243985   2.711   4.776   1.412 -0.0631  0.5209  0.1111
14681TIP3    H143986   2.622   4.805   1.393  0.0883  1.0167  0.1397
14681TIP3    H243987   2.719   4.691   1.369 -0.3055  0.8152 -0.5197
14682TIP3   OH243988   5.480   6.921   5.744 -0.2243 -0.0163 -0.2784
14682TIP3    H143989   5.479   7.016   5.755 -1.1250  0.0584 -0.9350
14682TIP3    H243990   5.388   6.895   5.754 -0.4160 -0.4846 -2.8598
14683TIP3   OH243991   1.806   3.043   0.724 -0.5208  0.5186  0.2891
14683TIP3    H143992   1.798   2.951   0.751  0.6080  1.0064  2.4149
14683TIP3    H243993   1.892   3.048   0.681 -0.6017  0.5504  0.1343
14684TIP3   OH243994   2.540   6.545   6.411  0.3132 -0.5804 -0.3269
14684TIP3    H143995   2.628   6.581   6.399 -0.1301  0.4058 -0.6795
14684TIP3    H243996   2.486   6.621   6.430 -1.2662 -0.5667 -4.4081
14685TIP3   OH243997   6.372   0.203   5.617  0.2872 -0.2949  0.0340
14685TIP3    H143998   6.299   0.153   5.653  1.3763 -0.9799  1.3495
14685TIP3    H243999   6.343   0.294   5.619 -0.9131 -0.6589 -0.4224
14686TIP3   OH244000   1.751   2.498   0.199 -0.2759 -0.1020 -0.1588
14686TIP3    H144001   1.702   2.420   0.174  0.3050 -0.4676 -0.1608
14686TIP3    H244002   1.772   2.541   0.116  0.1631 -0.4105 -0.2119
14687TIP3   OH244003   2.925   2.313   0.320 -0.1649  0.2761 -0.3413
14687TIP3    H144004   2.901   2.238   0.266  0.6261 -0.1154 -0.1481
14687TIP3    H244005   2.851   2.325   0.380 -0.2882 -0.3382 -0.3768
14688TIP3   OH244006   3.711   7.673   5.399  0.0989 -0.1710 -0.1484
14688TIP3    H144007   3.640   7.721   5.442  0.8387  0.5526  0.2763
14688TIP3    H244008   3.716   7.589   5.445 -0.1834 -0.0480  0.1032
14689TIP3   OH244009   7.134   2.197   5.588 -0.3099  0.2460 -0.1267
14689TIP3    H144010   7.116   2.253   5.513 -1.6392 -0.1604 -0.1271
14689TIP3    H244011   7.115   2.108   5.557  4.6089 -0.6122 -1.0567
14690TIP3   OH244012   1.828   2.003   1.901 -0.6746  0.3680 -0.1142
14690TIP3    H144013   1.781   1.930   1.861 -1.6608  0.7702  0.2952
14690TIP3    H244014   1.906   2.014   1.846 -1.4953  0.2670 -1.3261
14691TIP3   OH244015   8.438   7.981   1.068  0.3981  0.0927 -0.7950
14691TIP3    H144016   8.384   8.035   1.127  2.0131 -1.1978  1.9405
14691TIP3    H244017   8.409   7.892   1.085  0.9085 -0.3078 -1.9912
14692TIP3   OH244018   5.154   7.758   5.795  0.3482  0.1590 -0.8965
14692TIP3    H144019   5.172   7.708   5.715 -0.3224 -2.0993  0.3396
14692TIP3    H244020   5.075   7.719   5.831  1.4294  0.2118  1.6186
14693TIP3   OH244021   6.277   7.240   4.227  0.0764  0.3024  0.4750
14693TIP3    H144022   6.236   7.230   4.313  0.5032  1.4254  0.8209
14693TIP3    H244023   6.348   7.176   4.225 -1.3551 -1.3166  0.0655
14694TIP3   OH244024   0.491   0.626   4.833 -0.0118 -0.0904  0.1227
14694TIP3    H144025   0.548   0.555   4.802 -0.5048 -0.4737  0.0941
14694TIP3    H244026   0.502   0.625   4.928 -0.4736 -0.6007  0.1762
14695TIP3   OH244027   1.702   5.889   0.786  0.4022  0.0514 -0.2764
14695TIP3    H144028   1.724   5.935   0.705 -1.3705  0.8599 -0.3295
14695TIP3    H244029   1.700   5.957   0.852 -0.6722 -0.1859 -0.0496
14696TIP3   OH244030   3.879   6.582   0.319 -0.7061 -0.1320 -0.1086
14696TIP3    H144031   3.785   6.576   0.298 -0.6738 -0.5052 -0.1462
14696TIP3    H244032   3.904   6.670   0.292 -0.6864 -0.5771 -1.5412
14697TIP3   OH244033   4.171   4.344   0.415 -0.6863  0.1015  0.0066
14697TIP3    H144034   4.249   4.328   0.362 -0.0673 -0.7347  1.1606
14697TIP3    H244035   4.139   4.257   0.438 -1.2945  0.4512  0.4876
14698TIP3   OH244036   7.640   0.480   6.514  0.2387 -0.3894  0.0210
14698TIP3    H144037   7.581   0.408   6.537  0.5474 -0.7097 -0.1784
14698TIP3    H244038   7.646   0.476   6.418 -0.4062  0.4273 -0.0605
14699TIP3   OH244039   5.096   7.136   4.072 -0.4360  0.7382 -0.0385
14699TIP3    H144040   5.124   7.182   3.993  0.6665  2.7441  1.4755
14699TIP3    H244041   5.056   7.204   4.126  0.0442 -0.3286  1.6865
14700TIP3   OH244042   3.429   2.909   0.139 -0.1083 -0.1743 -0.1611
14700TIP3    H144043   3.437   2.858   0.058  0.4761 -0.4846  0.0954
14700TIP3    H244044   3.334   2.922   0.149 -0.1168  1.0784 -1.6488
14701TIP3   OH244045   2.165   3.059   0.611 -0.2546  0.1276 -0.2564
14701TIP3    H144046   2.126   3.014   0.535 -1.3120  1.3973 -0.4917
14701TIP3    H244047   2.228   3.119   0.573  0.4281 -0.4305 -0.0102
14702TIP3   OH244048   5.508   6.386   5.237  0.0779  0.2665  0.3765
14702TIP3    H144049   5.537   6.415   5.323  0.7153  1.8937 -0.3580
14702TIP3    H244050   5.422   6.427   5.225  0.6204  1.2513 -0.3234
14703TIP3   OH244051   8.162   0.267   6.894 -0.1749  0.5834  0.5356
14703TIP3    H144052   8.162   0.173   6.876  1.9282  0.4708  1.0250
14703TIP3    H244053   8.130   0.274   6.984 -0.6192  0.3720  0.3974
14704TIP3   OH244054   4.347   2.068   0.900  0.0377  0.0945  0.4392
14704TIP3    H144055   4.323   2.143   0.846  0.1235 -0.1205  0.1012
14704TIP3    H244056   4.404   2.103   0.967  0.5696  0.2253 -0.0824
14705TIP3   OH244057   7.251   6.007   6.690  0.1551 -0.3718  0.1660
14705TIP3    H144058   7.176   6.009   6.749 -0.7531  0.2831 -0.9896
14705TIP3    H244059   7.304   6.082   6.716 -1.0562  0.8660 -0.8849
14706TIP3   OH244060   1.919   3.743   1.370  0.0207 -0.1503 -0.1432
14706TIP3    H144061   1.932   3.838   1.365 -0.1504 -0.2540 -4.0817
14706TIP3    H244062   2.006   3.707   1.352 -0.3515 -0.7293 -0.7874
14707TIP3   OH244063   0.521   0.282   6.863  0.3312  0.1841  0.3810
14707TIP3    H144064   0.492   0.284   6.954  2.5149 -0.8612  1.1238
14707TIP3    H244065   0.520   0.373   6.835 -0.2655  0.5210  1.4726
14708TIP3   OH244066   6.251   6.486   5.058 -0.3384  0.7202 -0.2976
14708TIP3    H144067   6.275   6.410   5.111 -0.6070  0.7334 -0.1543
14708TIP3    H244068   6.234   6.449   4.971  0.7973  0.7971 -0.5638
14709TIP3   OH244069   7.753   7.178   5.364 -0.1177  0.1973  0.1730
14709TIP3    H144070   7.838   7.213   5.338 -0.5118 -0.4605 -2.1179
14709TIP3    H244071   7.760   7.165   5.459  1.7491  1.6917  0.2559
14710TIP3   OH244072   5.211   7.235   6.554 -0.2712 -0.5160  0.1073
14710TIP3    H144073   5.147   7.277   6.611 -0.2848  0.2932 -0.4862
14710TIP3    H244074   5.251   7.308   6.506  1.0420 -1.0108  0.4227
14711TIP3   OH244075   6.982   7.401   6.732 -0.0240  0.3788 -0.1564
14711TIP3    H144076   6.890   7.422   6.744  0.5489  2.3124  1.0749
14711TIP3    H244077   6.987   7.365   6.643 -2.1745 -1.2103  0.3264
14712TIP3   OH244078   1.490   2.880   0.880 -0.2259 -0.2327  0.0243
14712TIP3    H144079   1.555   2.902   0.947  0.9600  1.0088 -1.4724
14712TIP3    H244080   1.424   2.949   0.887  0.9153  1.0402 -1.3504
14713TIP3   OH244081   6.972   6.690   5.492 -0.0422 -0.3844 -0.0152
14713TIP3    H144082   6.940   6.635   5.563 -1.2044  0.8581  0.4300
14713TIP3    H244083   7.031   6.633   5.443  0.0499 -1.5271  1.3963
14714TIP3   OH244084   5.604   7.955   5.556  0.1302 -0.2298 -0.5891
14714TIP3    H144085   5.561   8.040   5.546  1.0989  0.3142 -0.1600
14714TIP3    H244086   5.666   7.950   5.484  1.2274  0.1313  0.3144
14715TIP3   OH244087   1.992   6.253   0.815 -0.0577  0.7439  0.3021
14715TIP3    H144088   1.983   6.250   0.720  1.9316 -2.0921  0.1304
14715TIP3    H244089   1.950   6.173   0.846 -0.3002  1.4250  1.7824
14716TIP3   OH244090   5.886   6.531   6.307 -0.2376 -0.3218 -0.0321
14716TIP3    H144091   5.913   6.591   6.376  0.9199 -1.3752  0.4465
14716TIP3    H244092   5.825   6.582   6.254  0.1339  1.0307  0.8068
14717TIP3   OH244093   3.877   2.267   1.281 -0.0194  0.2206 -0.9225
14717TIP3    H144094   3.876   2.353   1.323  0.6468  0.0759 -0.6042
14717TIP3    H244095   3.914   2.209   1.347 -0.0488 -0.2266 -1.2996
14718TIP3   OH244096   5.549   4.488   6.203  0.3714  0.3554 -0.0380
14718TIP3    H144097   5.558   4.487   6.298  3.3311 -0.7097 -0.2931
14718TIP3    H244098   5.567   4.579   6.179  0.8780  0.3437  0.3012
14719TIP3   OH244099   3.428   7.566   5.537  0.0884  0.0345 -0.4073
14719TIP3    H144100   3.396   7.568   5.446 -0.9240 -0.2982 -0.0580
14719TIP3    H244101   3.503   7.507   5.534  0.2888  0.3131 -1.1050
14720TIP3   OH244102   3.319   2.842   2.415  0.0761  0.7897  0.9099
14720TIP3    H144103   3.276   2.902   2.477 -3.5739 -0.4303 -0.3272
14720TIP3    H244104   3.288   2.870   2.329 -1.0679 -2.3168  0.2435
14721TIP3   OH244105   6.412   6.249   6.486 -0.6056  0.1085 -0.0812
14721TIP3    H144106   6.405   6.186   6.413  0.4879  2.7278 -2.5468
14721TIP3    H244107   6.331   6.299   6.482 -0.3709  0.5140  0.2779
14722TIP3   OH244108   7.575   7.112   6.777  0.5498  0.0807  0.0387
14722TIP3    H144109   7.641   7.159   6.827 -1.3879  1.0147  1.7806
14722TIP3    H244110   7.498   7.170   6.779 -1.2339 -2.2522  0.5167
14723TIP3   OH244111   2.845   4.168   0.196 -0.4660  0.8400  0.2662
14723TIP3    H144112   2.818   4.088   0.150  0.2679  0.2693  0.8110
14723TIP3    H244113   2.764   4.204   0.231 -0.6159 -0.4891  1.3069
14724TIP3   OH244114   5.538   6.909   6.562  0.5763 -0.1350  0.1262
14724TIP3    H144115   5.570   6.967   6.494  0.5253  0.2357  0.4136
14724TIP3    H244116   5.447   6.891   6.537  0.5547  0.0087  0.1000
14725TIP3   OH244117   6.802   2.164   6.526  0.2346 -0.4506  0.0995
14725TIP3    H144118   6.822   2.233   6.590 -3.0421 -0.0584  0.8270
14725TIP3    H244119   6.829   2.201   6.442  0.8332  0.6945  0.7685
14726TIP3   OH244120   3.014   4.969   0.421 -0.0291 -0.1091 -0.0576
14726TIP3    H144121   2.946   4.936   0.479  0.6972 -2.2428 -0.3652
14726TIP3    H244122   2.990   4.936   0.335  2.1381 -2.1843  0.0696
14727TIP3   OH244123   6.935   5.806   5.011  0.5041  0.1259 -0.1723
14727TIP3    H144124   7.003   5.776   5.073  0.0953 -0.0746  0.1869
14727TIP3    H244125   6.976   5.878   4.963  0.7152  0.5032  0.5643
14728TIP3   OH244126   6.993   0.311   5.644 -0.2558  0.0108 -0.2177
14728TIP3    H144127   6.987   0.373   5.717  1.5246  0.9019 -0.8153
14728TIP3    H244128   6.952   0.231   5.677 -2.5606  1.4674  0.5758
14729TIP3   OH244129   6.303   0.698   5.458  0.8446  0.1593 -0.6164
14729TIP3    H144130   6.271   0.768   5.515 -1.0677 -0.6518 -0.6749
14729TIP3    H244131   6.396   0.689   5.482  0.6783  1.4900  0.6250
14730TIP3   OH244132   4.183   6.037   0.708 -0.1092  0.0910  0.3071
14730TIP3    H144133   4.249   5.970   0.693  0.2836  0.3322  0.9709
14730TIP3    H244134   4.214   6.113   0.659  0.0814  0.1887  0.5792
14731TIP3   OH244135   2.938   3.362   0.664  0.1463  0.2430  0.0409
14731TIP3    H144136   2.849   3.382   0.691  0.4735  0.7359  0.7543
14731TIP3    H244137   2.994   3.407   0.727  0.9083 -2.1802  1.1621
14732TIP3   OH244138   2.467   5.019   0.967  0.2269 -0.3434  0.6794
14732TIP3    H144139   2.485   5.038   0.875  0.0017  1.2517  0.9484
14732TIP3    H244140   2.372   5.006   0.971  0.0759  0.7409  0.8657
14733TIP3   OH244141   6.652   7.183   5.725 -0.3162 -0.4095  0.5084
14733TIP3    H144142   6.565   7.143   5.722  0.1051 -1.3396  0.8469
14733TIP3    H244143   6.680   7.184   5.633 -1.2789  1.2224  0.1997
14734TIP3   OH244144   3.415   5.049   0.303 -0.7874  0.3537  0.9125
14734TIP3    H144145   3.412   5.092   0.389  0.4086 -0.4581  1.3687
14734TIP3    H244146   3.459   5.113   0.247  4.1694 -1.5543  2.4023
14735TIP3   OH244147   5.801   5.575   6.312 -0.0507 -0.1560  0.3397
14735TIP3    H144148   5.729   5.517   6.287 -0.3875  0.8289 -0.9920
14735TIP3    H244149   5.880   5.525   6.291 -0.3087 -1.1823  1.6837
14736TIP3   OH244150   3.320   2.239   0.178 -0.3098 -0.0511  0.0669
14736TIP3    H144151   3.247   2.245   0.116 -0.2335  1.3643  0.1052
14736TIP3    H244152   3.292   2.291   0.253  1.1350  1.2653 -0.2968
14737TIP3   OH244153   1.711   3.752   3.285 -0.2210 -0.0624 -0.5739
14737TIP3    H144154   1.668   3.836   3.270  0.4634  0.4837  0.4755
14737TIP3    H244155   1.650   3.704   3.341  0.2382  0.4637  0.3832
14738TIP3   OH244156   3.080   6.955   4.825  0.5925  0.0355 -0.0181
14738TIP3    H144157   3.171   6.967   4.851 -0.4397  2.5521  2.7730
14738TIP3    H244158   3.042   6.905   4.897 -0.3782 -0.4897 -0.8849
14739TIP3   OH244159   4.496   6.218   6.534  0.0755 -0.1509  0.8359
14739TIP3    H144160   4.579   6.247   6.496  0.6512  0.2670  2.3663
14739TIP3    H244161   4.429   6.260   6.481  0.8495  0.2938  0.1968
14740TIP3   OH244162   7.048   7.079   5.022 -0.2061  0.3009  0.4260
14740TIP3    H144163   7.062   6.987   4.997  1.4258  0.3168  1.2029
14740TIP3    H244164   7.031   7.076   5.116  0.2449  0.8135  0.5284
14741TIP3   OH244165   7.832   1.268   6.660  0.1163 -0.4559  0.0541
14741TIP3    H144166   7.825   1.354   6.618  1.2094  0.0872  0.9662
14741TIP3    H244167   7.746   1.253   6.699  0.0282  0.3859  0.1881
14742TIP3   OH244168   3.246   7.018   6.074 -0.3742 -0.1058 -0.2782
14742TIP3    H144169   3.260   6.979   6.161  0.0379  0.0287 -0.2812
14742TIP3    H244170   3.324   7.072   6.060 -0.3856 -0.2242 -0.7858
14743TIP3   OH244171   7.031   0.068   6.673  0.1474 -0.7308  0.0534
14743TIP3    H144172   6.953   0.121   6.656  1.5664  1.2450 -0.4976
14743TIP3    H244173   6.998  -0.006   6.724 -2.2111 -0.3737 -0.8483
14744TIP3   OH244174   0.199   3.234   0.128 -0.5510  0.0577  0.3052
14744TIP3    H144175   0.183   3.327   0.141 -0.3004  0.2383 -0.6376
14744TIP3    H244176   0.162   3.214   0.042  0.2622 -0.4898  0.0690
14745TIP3   OH244177   1.367   2.642   0.940  0.6625 -0.2540 -0.6356
14745TIP3    H144178   1.358   2.623   1.033  0.2704  0.5298 -0.5050
14745TIP3    H244179   1.398   2.732   0.937  0.5509 -0.2334 -1.2653
14746TIP3   OH244180   8.138   4.089   0.023  0.2349  0.0600  0.4172
14746TIP3    H144181   8.077   4.163   0.019  0.0301 -0.0698  1.1117
14746TIP3    H244182   8.087   4.019   0.064  0.9138  0.0034  1.1587
14747TIP3   OH244183   1.741   7.886   3.614  0.2071  0.3931 -0.3132
14747TIP3    H144184   1.772   7.890   3.705  1.4521 -0.0883 -0.7159
14747TIP3    H244185   1.649   7.913   3.620  0.6205  1.6077  0.9215
14748TIP3   OH244186   2.601   6.161   5.603  0.4180 -0.7587 -0.0143
14748TIP3    H144187   2.579   6.219   5.531 -0.4577  1.8483  2.2809
14748TIP3    H244188   2.688   6.189   5.631  0.0617 -0.6545  1.0081
14749TIP3   OH244189   5.144   0.641   5.326 -0.1429  0.9107  0.2312
14749TIP3    H144190   5.199   0.591   5.386 -0.1470  0.6660  0.0339
14749TIP3    H244191   5.164   0.733   5.346 -1.1128  0.8538  1.4976
14750TIP3   OH244192   6.869   5.149   2.089 -0.0089  0.2182 -0.0936
14750TIP3    H144193   6.784   5.164   2.047  0.4298 -1.3388 -1.5699
14750TIP3    H244194   6.848   5.112   2.174 -0.8688  2.1084  0.5452
14751TIP3   OH244195   3.648   1.555   6.712  0.4826  0.3861 -0.1843
14751TIP3    H144196   3.610   1.533   6.627  0.5486  0.0089 -0.1139
14751TIP3    H244197   3.680   1.472   6.747  0.4395  0.5374  0.2174
14752TIP3   OH244198   0.721   4.714   1.006 -0.0828  0.4050  0.2425
14752TIP3    H144199   0.706   4.675   0.920  1.6964  0.8335 -0.2650
14752TIP3    H244200   0.755   4.643   1.059  0.7747  0.6391  0.0134
14753TIP3   OH244201   6.507   0.204   6.509  0.5836  0.1844 -0.2009
14753TIP3    H144202   6.434   0.181   6.451 -0.2745  0.3198  0.8119
14753TIP3    H244203   6.495   0.298   6.525  0.6652  0.0883  0.4120
14754TIP3   OH244204   4.302   1.404   6.566  0.9352 -0.3833 -0.0055
14754TIP3    H144205   4.366   1.337   6.589  0.6762 -1.1003 -1.3055
14754TIP3    H244206   4.353   1.470   6.518  0.5563 -1.4078 -1.8589
14755TIP3   OH244207   6.500   3.912   1.697 -0.5479  0.1768 -0.3183
14755TIP3    H144208   6.511   3.822   1.665 -1.4024 -0.7362  1.9038
14755TIP3    H244209   6.584   3.934   1.737 -1.1052 -0.5144  1.2574
14756TIP3   OH244210   4.196   5.687   6.449 -0.7870  0.2151 -0.1247
14756TIP3    H144211   4.185   5.702   6.542  0.4502  1.4528 -0.1556
14756TIP3    H244212   4.110   5.659   6.418 -1.9690  2.6303  0.8735
14757TIP3   OH244213   1.975   3.483   1.800  0.6528 -0.4370  0.0925
14757TIP3    H144214   2.048   3.530   1.840  0.6498 -0.1102 -0.2915
14757TIP3    H244215   1.937   3.545   1.739 -0.9982 -0.0101  1.5070
14758TIP3   OH244216   3.611   6.740   6.914  0.3557 -0.7295 -0.0593
14758TIP3    H144217   3.690   6.717   6.964  0.4860 -0.6443 -0.2259
14758TIP3    H244218   3.605   6.672   6.847  0.0247 -1.0013  0.2452
14759TIP3   OH244219   0.086   3.542   0.451  0.7579  0.1344  0.0669
14759TIP3    H144220   0.017   3.480   0.474  0.5465  0.6368  0.8095
14759TIP3    H244221   0.062   3.622   0.496  0.3227  1.1711 -1.9509
14760TIP3   OH244222   2.601   6.271   5.359  0.3455  0.0880 -0.4217
14760TIP3    H144223   2.558   6.348   5.321 -0.6997  0.7216  1.9229
14760TIP3    H244224   2.582   6.200   5.298 -1.6640  0.9683 -0.8561
14761TIP3   OH244225   1.061   4.955   2.451 -0.7231  0.5659 -0.3847
14761TIP3    H144226   1.054   4.958   2.355 -2.3996  0.7182 -0.2687
14761TIP3    H244227   0.971   4.954   2.481 -0.1936  0.4580  1.2063
14762TIP3   OH244228   7.964   4.436   3.347 -0.4702 -0.3667  0.0758
14762TIP3    H144229   8.005   4.522   3.359  0.2705 -0.8464  1.0392
14762TIP3    H244230   7.949   4.404   3.436  0.1852 -1.6704 -0.2814
14763TIP3   OH244231   8.135   2.797   1.526  0.6366  0.1230 -0.0430
14763TIP3    H144232   8.109   2.870   1.581  0.0090  0.4204 -0.7258
14763TIP3    H244233   8.164   2.837   1.444 -0.0760 -0.4042 -0.5651
14764TIP3   OH244234   0.205   0.979   4.967 -0.4988  0.1739 -0.2293
14764TIP3    H144235   0.257   0.955   4.890  1.6184 -0.0995  1.2629
14764TIP3    H244236   0.189   1.073   4.956  1.7861  0.6310  0.1312
14765TIP3   OH244237   5.143   7.482   6.183  0.0626 -0.0320 -0.2152
14765TIP3    H144238   5.087   7.536   6.238 -0.0494 -0.9399  0.5820
14765TIP3    H244239   5.085   7.414   6.149  0.6456 -0.9130  0.5217
14766TIP3   OH244240   2.409   6.440   0.277  0.3155  0.5830 -0.1915
14766TIP3    H144241   2.384   6.396   0.196 -2.6811  1.0391  0.4267
14766TIP3    H244242   2.500   6.415   0.291  0.0934 -1.5690 -2.3356
14767TIP3   OH244243   6.380   0.619   5.767  0.4356  0.3917  0.1456
14767TIP3    H144244   6.452   0.625   5.704  0.9255  0.2735  0.6912
14767TIP3    H244245   6.367   0.709   5.797 -0.8752  0.7103 -1.3130
14768TIP3   OH244246   3.144   6.059   0.461  0.2915 -0.1009 -0.1345
14768TIP3    H144247   3.124   6.022   0.547  0.2045  0.7598  0.2237
14768TIP3    H244248   3.239   6.072   0.463  0.3489 -0.4928 -0.3358
14769TIP3   OH244249   6.398   0.455   3.413  0.0454  0.3733  0.1775
14769TIP3    H144250   6.353   0.530   3.453  1.5207  0.5976  1.4782
14769TIP3    H244251   6.462   0.428   3.479  0.6702 -0.9880 -0.9631
14770TIP3   OH244252   8.079   5.501   0.916  0.3115  0.2936  0.2547
14770TIP3    H144253   8.123   5.583   0.937  0.5346  0.1737  0.2592
14770TIP3    H244254   8.141   5.433   0.943  0.1201  0.1251  0.2698
14771TIP3   OH244255   3.120   3.944   0.774  0.3726 -0.6254  0.5434
14771TIP3    H144256   3.105   3.858   0.735 -0.5756 -0.4645  0.5321
14771TIP3    H244257   3.033   3.971   0.806  1.1169 -0.7925  2.8503
14772TIP3   OH244258   6.838   1.685   4.699  0.1291 -0.0769 -0.6534
14772TIP3    H144259   6.858   1.779   4.704  1.2095 -0.3975  1.9762
14772TIP3    H244260   6.889   1.654   4.624  0.9265  1.1827 -0.6635
14773TIP3   OH244261   0.839   0.611   6.782 -0.1884  1.0348 -0.2848
14773TIP3    H144262   0.772   0.591   6.847 -0.3210  2.5101  0.0653
14773TIP3    H244263   0.891   0.531   6.776  0.4804  1.1887  2.4491
14774TIP3   OH244264   3.341   6.250   5.491 -0.3316 -0.6595 -0.1070
14774TIP3    H144265   3.247   6.232   5.489 -0.0583 -2.0586 -0.7301
14774TIP3    H244266   3.370   6.237   5.401  0.7647 -1.8751  0.4105
14775TIP3   OH244267   2.051   4.896   0.371 -0.1684  0.2233 -0.1455
14775TIP3    H144268   1.979   4.923   0.428 -0.4392  2.0813 -1.3438
14775TIP3    H244269   2.020   4.815   0.330 -0.8351  0.0404  0.7052
14776TIP3   OH244270   8.027   2.134   5.976 -0.2441 -0.2115 -0.0656
14776TIP3    H144271   8.104   2.149   6.031 -0.8114  0.0837  0.6680
14776TIP3    H244272   8.061   2.094   5.897  0.6709 -0.0375  0.2331
14777TIP3   OH244273   7.294   0.066   6.720  0.1152 -0.4817  0.4988
14777TIP3    H144274   7.200   0.060   6.704  0.2684  0.8410 -1.0779
14777TIP3    H244275   7.303   0.066   6.815 -1.4119 -1.3428  0.6575
14778TIP3   OH244276   6.328   0.884   6.836  0.0523 -0.1876 -0.0239
14778TIP3    H144277   6.265   0.852   6.900 -0.7374  1.6191  0.1493
14778TIP3    H244278   6.396   0.927   6.888 -0.1806  0.5850 -0.3417
14779TIP3   OH244279   0.188   2.322   5.457 -0.1743  0.8392 -0.1339
14779TIP3    H144280   0.197   2.293   5.547 -0.6212  0.5828 -0.1682
14779TIP3    H244281   0.261   2.281   5.411  0.1080  1.0460  0.1295
14780TIP3   OH244282   1.942   4.287   1.050 -0.4771 -0.1668  0.1792
14780TIP3    H144283   1.933   4.337   0.969  1.0196  1.2897  0.8817
14780TIP3    H244284   2.035   4.295   1.073 -0.7472 -1.1495  1.6531
14781TIP3   OH244285   1.737   3.283   0.367  0.2566 -0.4164 -0.0874
14781TIP3    H144286   1.829   3.264   0.390  0.9855  0.3714 -2.2682
14781TIP3    H244287   1.716   3.362   0.416  0.9470 -0.2324 -0.0854
14782TIP3   OH244288   4.617   7.988   6.529  0.0556 -0.1281 -0.5365
14782TIP3    H144289   4.662   7.936   6.595  1.4824  2.1592  0.3487
14782TIP3    H244290   4.552   8.039   6.578  0.2844  0.6736 -1.0510
14783TIP3   OH244291   3.344   7.341   5.340 -0.0777 -0.1225  0.0937
14783TIP3    H144292   3.249   7.349   5.331  0.0790  0.4168 -1.1553
14783TIP3    H244293   3.356   7.271   5.404 -1.2983 -2.2802 -1.9498
14784TIP3   OH244294   0.314   1.292   6.648  0.4383  0.1115 -0.4971
14784TIP3    H144295   0.294   1.199   6.635 -1.6124  0.5007 -0.2936
14784TIP3    H244296   0.309   1.305   6.742  0.0941  0.5590 -0.5763
14785TIP3   OH244297   4.492   7.776   6.392  0.4528 -0.0208  0.2141
14785TIP3    H144298   4.466   7.816   6.309 -0.3636 -1.4455 -0.2377
14785TIP3    H244299   4.543   7.843   6.436  0.7820  0.8101 -1.3868
14786TIP3   OH244300   6.400   0.802   6.537 -0.2264  0.1843  0.0789
14786TIP3    H144301   6.380   0.810   6.630 -0.6153 -1.1345  0.1248
14786TIP3    H244302   6.460   0.874   6.519  0.7441 -0.2078  1.6181
14787TIP3   OH244303   6.173   2.457   6.131 -0.2129 -0.0346  0.1625
14787TIP3    H144304   6.154   2.529   6.071 -0.6204 -1.6229 -1.6916
14787TIP3    H244305   6.088   2.427   6.162 -0.2711 -1.5027 -1.3008
14788TIP3   OH244306   7.675   0.274   4.135 -0.1334  0.3170 -0.1987
14788TIP3    H144307   7.742   0.333   4.100  0.0462 -0.7537 -1.6974
14788TIP3    H244308   7.606   0.333   4.168  0.6004  1.3767 -0.5298
14789TIP3   OH244309   0.256   1.933   3.009  0.3796  0.2270 -0.1316
14789TIP3    H144310   0.233   1.995   3.078 -1.0288  0.0393 -0.4009
14789TIP3    H244311   0.174   1.885   2.993  0.9636 -0.4171 -1.2236
14790TIP3   OH244312   0.098   0.731   3.941 -0.2133 -0.5900 -0.2954
14790TIP3    H144313   0.126   0.745   4.031  0.8203  0.7478 -0.8053
14790TIP3    H244314   0.023   0.790   3.930 -0.9074 -1.4099 -0.0599
14791TIP3   OH244315   5.925   0.772   6.044 -0.5333  0.3340  0.0109
14791TIP3    H144316   5.871   0.739   5.973 -1.8576 -0.0717  1.2013
14791TIP3    H244317   5.864   0.791   6.115  0.9146 -0.6369  1.5722
14792TIP3   OH244318   1.302   5.650   0.736  0.0175 -0.0410  0.3453
14792TIP3    H144319   1.232   5.714   0.752  0.3474  0.1056  1.2316
14792TIP3    H244320   1.256   5.567   0.723 -0.2822 -0.1488  1.9704
14793TIP3   OH244321   0.385   3.459   5.710  0.0161 -0.1973 -0.0256
14793TIP3    H144322   0.388   3.414   5.626  1.3079  0.9127 -0.5997
14793TIP3    H244323   0.312   3.520   5.702  0.7176  0.5701 -0.7086
14794TIP3   OH244324   7.892   5.555   1.159 -0.3321  0.5128  0.4478
14794TIP3    H144325   7.954   5.508   1.103 -2.7966 -0.6543 -1.4156
14794TIP3    H244326   7.895   5.645   1.127 -0.8699  0.0944 -0.7972
14795TIP3   OH244327   8.058   0.728   5.612  0.0606 -0.2468  0.2358
14795TIP3    H144328   7.988   0.671   5.644  0.0017 -1.1228 -1.3962
14795TIP3    H244329   8.048   0.809   5.663 -3.5035  0.4658 -1.4407
14796TIP3   OH244330   4.085   7.052   6.642 -0.0435 -0.5984  0.5526
14796TIP3    H144331   4.051   6.966   6.616 -1.2699  0.0026  0.0926
14796TIP3    H244332   4.093   7.047   6.738  0.2983 -1.3675  0.4824
14797TIP3   OH244333   5.342   7.418   5.164 -0.2128  0.0530 -0.4632
14797TIP3    H144334   5.258   7.425   5.209  0.5857 -1.4726  1.2985
14797TIP3    H244335   5.320   7.386   5.076 -1.4290 -0.6334  0.0901
14798TIP3   OH244336   2.818   3.990   0.581  0.0326 -0.0286  0.1705
14798TIP3    H144337   2.723   3.996   0.569 -0.0932  0.8522  1.5735
14798TIP3    H244338   2.834   4.028   0.667  1.6324 -0.4599  0.0728
14799TIP3   OH244339   7.921   0.607   6.035  0.1429  0.3948  0.1536
14799TIP3    H144340   7.836   0.577   6.004  0.1780  0.0414  0.3846
14799TIP3    H244341   7.918   0.593   6.130  0.4462  0.4020  0.1660
14800TIP3   OH244342   0.097   3.149   0.685 -0.0925 -0.3834  0.0613
14800TIP3    H144343   0.167   3.084   0.684  0.8230  0.5234  2.1578
14800TIP3    H244344   0.138   3.230   0.654 -0.0620  0.2509  1.6721
14801TIP3   OH244345   6.157   1.455   6.094 -0.4827 -0.6807 -0.3245
14801TIP3    H144346   6.221   1.466   6.024 -0.7477  1.6521 -0.2669
14801TIP3    H244347   6.209   1.453   6.175 -0.4511  1.2363 -0.2746
14802TIP3   OH244348   2.177   5.404   2.063 -0.4593 -0.2951 -0.1546
14802TIP3    H144349   2.165   5.443   1.976  0.0468  1.4164  0.5260
14802TIP3    H244350   2.241   5.334   2.050  0.9437  1.1052 -0.8479
14803TIP3   OH244351   4.485   7.043   6.690  0.4134 -0.8710  0.0971
14803TIP3    H144352   4.443   7.018   6.608 -0.3821  4.2299 -1.2368
14803TIP3    H244353   4.414   7.050   6.753 -0.0463  1.9133 -0.6423
14804TIP3   OH244354   3.858   7.943   4.959 -0.4855 -0.0904 -0.3403
14804TIP3    H144355   3.820   7.929   4.873  1.0369  0.9071 -1.2047
14804TIP3    H244356   3.836   7.864   5.009  1.0757 -2.0061 -2.5506
14805TIP3   OH244357   3.384   4.788   0.351 -0.1946  0.0110 -0.0840
14805TIP3    H144358   3.408   4.881   0.340  1.8131 -0.2956  1.3803
14805TIP3    H244359   3.468   4.742   0.352 -1.0977 -1.6607  0.6678
14806TIP3   OH244360   0.716   4.016   0.285 -0.3072 -0.4904  0.2178
14806TIP3    H144361   0.746   4.101   0.252  0.8536 -0.8149  0.4017
14806TIP3    H244362   0.797   3.967   0.299 -0.9708 -1.6023  0.1707
14807TIP3   OH244363   4.157   4.353   0.031  0.2072 -0.0155  0.5060
14807TIP3    H144364   4.189   4.352  -0.059  0.3412 -1.0978  0.5606
14807TIP3    H244365   4.090   4.422   0.032  1.1198  0.8844 -0.0945
14808TIP3   OH244366   5.481   0.792   5.885  0.1302  0.6740  0.0250
14808TIP3    H144367   5.409   0.833   5.836  0.2060  0.9169  0.1173
14808TIP3    H244368   5.438   0.728   5.941  0.1800 -0.7723 -1.5400
14809TIP3   OH244369   0.994   0.102   6.435 -0.8037 -0.0950  0.4067
14809TIP3    H144370   0.961   0.091   6.524 -0.4489  0.2305  0.5795
14809TIP3    H244371   0.996   0.014   6.399 -1.3338 -0.1807  0.5835
14810TIP3   OH244372   7.537   1.021   5.478 -0.3024 -0.1307  0.2517
14810TIP3    H144373   7.611   0.961   5.465 -0.4613 -0.2618 -0.0613
14810TIP3    H244374   7.538   1.077   5.401 -0.6291 -0.2381  0.1700
14811TIP3   OH244375   1.573   5.252   0.052 -0.1605  0.1899  0.4287
14811TIP3    H144376   1.633   5.191   0.094 -0.3568 -0.7270 -0.5992
14811TIP3    H244377   1.628   5.326   0.026  0.1160  0.3618  1.4977
14812TIP3   OH244378   7.132   1.018   6.270  0.6109  0.6510 -0.0722
14812TIP3    H144379   7.072   0.950   6.300  0.7841  0.3491 -0.4139
14812TIP3    H244380   7.213   1.000   6.317  1.2148 -0.4621 -1.5030
14813TIP3   OH244381   3.587   8.012   5.910  0.5090  0.2278 -0.0001
14813TIP3    H144382   3.538   7.958   5.972  2.1735 -0.4349  0.7722
14813TIP3    H244383   3.596   7.957   5.833  1.0202 -0.0793  0.2779
14814TIP3   OH244384   0.335   5.237   1.349  0.0280  0.0198 -0.4333
14814TIP3    H144385   0.248   5.208   1.378 -0.3936  1.1948 -0.5169
14814TIP3    H244386   0.393   5.215   1.423 -0.7685  1.5043  0.6569
14815TIP3   OH244387   7.306   0.078   5.970  0.3609 -0.2823 -0.3517
14815TIP3    H144388   7.264  -0.007   5.987 -0.3718  0.3849  1.3111
14815TIP3    H244389   7.238   0.142   5.989  1.0391  0.7064 -1.2042
14816TIP3   OH244390   2.360   5.994   6.614  0.4168  0.5004  0.1341
14816TIP3    H144391   2.378   5.900   6.622  0.5215  0.2309 -2.9057
14816TIP3    H244392   2.444   6.036   6.635  1.0120 -0.1873 -0.8508
14817TIP3   OH244393   0.545   5.840   0.739  0.2521 -0.4103 -0.4825
14817TIP3    H144394   0.562   5.771   0.803  0.9018  1.4637  1.4453
14817TIP3    H244395   0.632   5.865   0.707  0.0094 -0.6011 -1.3093
14818TIP3   OH244396   8.211   4.239   0.789 -0.3411 -0.5344  0.1098
14818TIP3    H144397   8.130   4.284   0.811 -0.0072  0.7452 -1.2518
14818TIP3    H244398   8.196   4.204   0.701  1.1874  1.1819 -0.8603
14819TIP3   OH244399   2.455   6.792   6.466 -0.5217  0.7392 -0.0264
14819TIP3    H144400   2.492   6.851   6.531  0.4121 -0.3198  0.4261
14819TIP3    H244401   2.473   6.835   6.382 -0.8212  1.6112  0.3522
14820TIP3   OH244402   2.130   4.356   1.567 -0.1532  0.3117  0.6340
14820TIP3    H144403   2.102   4.315   1.648  0.5404 -0.5224  0.4540
14820TIP3    H244404   2.210   4.309   1.542 -0.4964  0.3827 -0.6539
14821TIP3   OH244405   3.235   3.355   0.207  0.4318  0.0382 -0.6967
14821TIP3    H144406   3.299   3.284   0.200 -1.0816 -1.8783  3.1684
14821TIP3    H244407   3.281   3.423   0.257  0.0198 -0.6703  0.6700
14822TIP3   OH244408   3.794   5.846   0.467 -0.0450  0.3702 -0.6077
14822TIP3    H144409   3.846   5.902   0.525  0.8323 -0.9634 -0.0812
14822TIP3    H244410   3.807   5.883   0.380  1.6561  0.1564 -0.4597
14823TIP3   OH244411   1.893   5.549   0.277 -0.2825 -0.5847 -0.2228
14823TIP3    H144412   1.929   5.637   0.265 -3.3877  0.6926 -0.6258
14823TIP3    H244413   1.925   5.499   0.202 -0.0514  0.7184 -1.0006
14824TIP3   OH244414   3.984   4.175   0.158  0.2057  0.7911 -0.2743
14824TIP3    H144415   4.042   4.212   0.091  1.5876 -1.5090 -0.3938
14824TIP3    H244416   4.032   4.099   0.192 -2.3465 -0.6216  0.2809
14825TIP3   OH244417   3.451   7.858   5.163  0.7728 -0.1648  0.0713
14825TIP3    H144418   3.445   7.763   5.170  0.8240 -0.0589  1.7413
14825TIP3    H244419   3.491   7.873   5.077 -0.0116 -1.6105 -0.5644
14826TIP3   OH244420   6.206   6.960   5.637  0.0882 -0.0514  0.5510
14826TIP3    H144421   6.181   6.983   5.548 -0.7280  0.1277  0.8243
14826TIP3    H244422   6.161   7.024   5.692 -0.1229 -0.7101  1.1506
14827TIP3   OH244423   1.529   1.783   4.050 -0.7402  0.9996 -0.4955
14827TIP3    H144424   1.464   1.847   4.079 -0.3977  0.8012  0.7639
14827TIP3    H244425   1.594   1.834   4.003 -0.3820  1.6249  0.6485
14828TIP3   OH244426   2.073   6.264   2.459  0.1642  0.5370 -0.0391
14828TIP3    H144427   2.090   6.182   2.506 -0.4013  1.5212  1.9262
14828TIP3    H244428   2.159   6.305   2.450  0.0074  1.5063  2.3813
14829TIP3   OH244429   3.864   4.517   6.580 -0.0832 -0.0376 -0.4389
14829TIP3    H144430   3.829   4.428   6.582 -0.5032  0.1205 -0.7240
14829TIP3    H244431   3.892   4.530   6.489  0.0442  0.0942 -0.3814
14830TIP3   OH244432   6.342   7.619   5.380 -0.1318 -0.1497 -0.6579
14830TIP3    H144433   6.260   7.660   5.408 -0.3529 -0.8381 -0.2870
14830TIP3    H244434   6.410   7.680   5.407 -0.3096 -1.0184  1.8291
   8.50000   8.01388   6.94022   0.00000   0.00000  -2.83333   0.00000  -2.83333  -4.00694
