Title
44350
    1GLY      N    1   2.122   3.962   4.866 -0.2819  0.1342  0.0218
    1GLY    HT1    2   2.104   3.875   4.920 -1.2374  0.2833 -0.0540
    1GLY    HT2    3   2.028   4.003   4.845 -0.1199  0.4826 -0.0297
    1GLY    HT3    4   2.167   4.023   4.938  0.5837  0.9497 -1.1894
    1GLY     CA    5   2.214   3.951   4.753 -0.0718 -0.3627  0.2003
    1GLY    HA1    6   2.176   4.026   4.685  0.8035 -1.6603 -1.7566
    1GLY    HA2    7   2.213   3.851   4.711  2.5719 -0.7910  1.0791
    1GLY      C    8   2.353   3.983   4.790  1.0728 -0.5996 -0.5947
    1GLY      O    9   2.380   4.101   4.788 -0.0169 -0.1192  0.6154
    2PRO      N   10   2.445   3.899   4.830 -0.0046 -0.2440 -0.1642
    2PRO     CD   11   2.399   3.759   4.867  0.0938  0.1648  1.0660
    2PRO    HD1   12   2.387   3.705   4.770  0.5612  0.6834  0.7176
    2PRO    HD2   13   2.308   3.756   4.931  0.6200 -1.6103  1.7439
    2PRO     CA   14   2.577   3.931   4.877  0.1620 -0.7209 -0.2463
    2PRO     HA   15   2.552   3.973   4.974 -0.6106 -2.0274  0.1330
    2PRO     CB   16   2.633   3.788   4.894 -0.6062 -0.2878  0.2117
    2PRO    HB1   17   2.715   3.798   4.968 -0.1311  0.5046 -0.4134
    2PRO    HB2   18   2.675   3.750   4.798  0.6995  1.7155 -0.0358
    2PRO     CG   19   2.517   3.709   4.946  0.5597  0.7513 -0.6270
    2PRO    HG1   20   2.529   3.600   4.929  0.1273  0.4004  1.2605
    2PRO    HG2   21   2.501   3.731   5.054  1.7482  0.0407 -0.3033
    2PRO      C   22   2.656   4.019   4.793  1.0533  0.6973  0.5241
    2PRO      O   23   2.644   4.012   4.669 -0.1340 -0.0246 -0.2523
    3GLY      N   24   2.745   4.110   4.854  0.3690  0.0008  0.1044
    3GLY     HN   25   2.768   4.107   4.951 -0.5992  2.8487  0.4770
    3GLY     CA   26   2.825   4.207   4.782 -0.3640  0.0687 -0.0994
    3GLY    HA1   27   2.884   4.267   4.850 -1.1920  2.5318 -1.4844
    3GLY    HA2   28   2.755   4.270   4.729  0.6645  3.0992  1.9777
    3GLY      C   29   2.915   4.156   4.667 -0.3590  0.7533  0.1992
    3GLY      O   30   2.963   4.045   4.657  0.4033 -0.2291  0.0129
    4ASP      N   31   2.935   4.244   4.570  0.0568 -0.6107 -0.7843
    4ASP     HN   32   2.907   4.339   4.578  0.7654 -0.2530 -2.3946
    4ASP     CA   33   3.009   4.214   4.447 -0.0830 -0.2360  0.6163
    4ASP     HA   34   2.957   4.126   4.411  0.7964 -0.8269  0.7786
    4ASP     CB   35   2.996   4.323   4.340  0.5213 -1.1082  0.5192
    4ASP    HB1   36   3.072   4.311   4.261 -0.8661 -0.7525 -0.8910
    4ASP    HB2   37   3.011   4.423   4.385  2.3925  0.3469 -3.1389
    4ASP     CG   38   2.863   4.308   4.268  0.2454 -0.2517  0.1164
    4ASP    OD1   39   2.771   4.248   4.321  0.0956  0.1746  0.0273
    4ASP    OD2   40   2.850   4.374   4.161 -1.0700 -0.0710  0.3574
    4ASP      C   41   3.155   4.182   4.470  0.1080 -0.0265 -0.2214
    4ASP      O   42   3.210   4.231   4.564  0.0184  0.1752  0.1395
    5PRO      N   43   3.216   4.093   4.384 -0.6091  0.6031 -0.3634
    5PRO     CD   44   3.144   4.009   4.288 -0.2459 -0.1383 -0.4616
    5PRO    HD1   45   3.095   4.066   4.206  0.6242  0.1258 -0.8027
    5PRO    HD2   46   3.068   3.944   4.338  2.2230 -2.0172  0.9221
    5PRO     CA   47   3.362   4.053   4.393 -0.7182 -0.8711  0.6404
    5PRO     HA   48   3.357   3.990   4.481 -3.5261 -0.0442  1.1378
    5PRO     CB   49   3.389   3.981   4.262  0.2992  0.4545  0.6781
    5PRO    HB1   50   3.473   3.908   4.268  0.1714  0.3470  1.2519
    5PRO    HB2   51   3.420   4.055   4.186  1.6591 -0.2241  0.5616
    5PRO     CG   52   3.254   3.919   4.227 -0.0145 -0.2117  0.7098
    5PRO    HG1   53   3.248   3.900   4.118  1.4123 -1.3156  0.8014
    5PRO    HG2   54   3.258   3.820   4.278  0.0942 -0.0285  1.0572
    5PRO      C   55   3.465   4.164   4.436 -0.1579 -0.6555 -0.3840
    5PRO      O   56   3.479   4.267   4.362 -0.2910  0.5598  0.1911
    6GLY      N   57   3.541   4.146   4.541 -0.5122 -0.6394 -0.8044
    6GLY     HN   58   3.522   4.080   4.614  2.7923 -1.4438 -0.5774
    6GLY     CA   59   3.659   4.223   4.580  0.6068 -0.9801  0.0198
    6GLY    HA1   60   3.713   4.152   4.641  1.7550 -1.9172 -2.0239
    6GLY    HA2   61   3.619   4.313   4.625 -0.3894 -0.9568 -0.9055
    6GLY      C   62   3.755   4.268   4.473  0.9324 -0.5580  0.0371
    6GLY      O   63   3.774   4.193   4.373  0.3395 -0.5016 -0.0247
    7SER      N   64   3.820   4.387   4.495 -0.6575  0.3826  0.9727
    7SER     HN   65   3.804   4.436   4.581 -3.5515 -1.7837  1.7349
    7SER     CA   66   3.927   4.434   4.412  0.1495 -0.0355  0.9945
    7SER     HA   67   3.888   4.448   4.312  5.5294  3.2423 -0.8534
    7SER     CB   68   3.998   4.565   4.463 -0.7157  0.4152  0.5876
    7SER    HB1   69   4.083   4.588   4.394 -0.1553 -0.6068  0.9295
    7SER    HB2   70   4.050   4.560   4.561  0.7314 -0.2840 -0.2034
    7SER     OG   71   3.910   4.671   4.471 -0.1498 -0.1708 -0.0200
    7SER    HG1   72   3.865   4.687   4.388  3.8453 -1.0458 -2.4662
    7SER      C   73   4.042   4.339   4.387 -0.2243  0.5169  0.2102
    7SER      O   74   4.091   4.284   4.481 -0.8092  0.1880  0.0851
    8GLY      N   75   4.094   4.315   4.260  0.7738 -0.3370 -0.4995
    8GLY     HN   76   4.045   4.361   4.186  0.4224  1.5396  0.8592
    8GLY     CA   77   4.205   4.220   4.229  0.5717 -0.2224  0.3010
    8GLY    HA1   78   4.213   4.208   4.122 -2.2634  0.8314 -0.0814
    8GLY    HA2   79   4.161   4.138   4.283 -2.8971  1.1001 -0.3536
    8GLY      C   80   4.339   4.256   4.295  0.3288  0.5116  0.4109
    8GLY      O   81   4.360   4.365   4.348  0.1003  0.1594 -0.0150
    9ASN      N   82   4.426   4.160   4.303 -0.4834  0.1558 -0.4482
    9ASN     HN   83   4.403   4.069   4.269 -0.2606 -0.4310  0.9350
    9ASN     CA   84   4.560   4.171   4.352 -0.4360 -0.0178 -0.1290
    9ASN     HA   85   4.551   4.199   4.456 -1.6609  2.4534 -0.8592
    9ASN     CB   86   4.619   4.027   4.334 -0.6817  0.6929  0.4846
    9ASN    HB1   87   4.641   4.019   4.225 -0.3084  0.9918  0.5359
    9ASN    HB2   88   4.544   3.956   4.375  0.7627 -0.4684  1.1629
    9ASN     CG   89   4.741   4.000   4.420  0.0580  0.1990  0.0650
    9ASN    OD1   90   4.791   4.089   4.492  0.1494 -0.1804 -0.1864
    9ASN    ND2   91   4.798   3.879   4.413 -0.6475  0.0546  0.0757
    9ASN   HD21   92   4.888   3.867   4.454 -0.2240  0.8387 -0.6174
    9ASN   HD22   93   4.758   3.816   4.347 -1.2035  2.0815 -1.5807
    9ASN      C   94   4.643   4.271   4.277  0.9355  0.0067  0.3952
    9ASN      O   95   4.630   4.263   4.151 -0.0206 -0.7941  0.2491
   10PRO      N   96   4.718   4.361   4.342  0.6107 -0.5441  0.0931
   10PRO     CD   97   4.697   4.415   4.479  0.2453  0.1678 -0.7128
   10PRO    HD1   98   4.714   4.324   4.541 -2.2550 -0.2165 -0.5342
   10PRO    HD2   99   4.591   4.448   4.490 -0.1987 -1.2575 -0.6312
   10PRO     CA  100   4.818   4.440   4.276 -0.0015 -0.2358  1.0517
   10PRO     HA  101   4.767   4.512   4.215  0.7592  0.2177  0.9368
   10PRO     CB  102   4.902   4.503   4.390 -0.4446 -0.1290 -0.0304
   10PRO    HB1  103   4.962   4.593   4.366  0.6569 -1.0411 -0.7866
   10PRO    HB2  104   4.978   4.429   4.424 -0.8752 -0.4457  0.2529
   10PRO     CG  105   4.792   4.528   4.493  0.0049 -0.6730 -0.0320
   10PRO    HG1  106   4.826   4.530   4.599  0.7832 -0.9300 -0.2706
   10PRO    HG2  107   4.739   4.625   4.479  0.4956 -0.3884  0.0308
   10PRO      C  108   4.903   4.370   4.172  0.5543 -0.0271 -0.1173
   10PRO      O  109   4.971   4.276   4.202  0.1776 -0.3986 -0.1548
   11GLY      N  110   4.901   4.415   4.042 -0.0459 -0.5640  0.3529
   11GLY     HN  111   4.836   4.486   4.015  0.4206 -0.3341 -0.1853
   11GLY     CA  112   4.992   4.360   3.933  0.9409 -0.6822 -0.0249
   11GLY    HA1  113   4.979   4.420   3.844 -1.5163 -1.3104 -0.1220
   11GLY    HA2  114   4.978   4.253   3.932 -1.2002 -0.4122 -1.6105
   11GLY      C  115   5.138   4.366   3.965  0.1305 -0.4613  0.0504
   11GLY      O  116   5.179   4.455   4.038  0.4319 -0.2162  0.9038
   12SER      N  117   5.216   4.269   3.914 -0.7023 -0.3206 -0.1813
   12SER     HN  118   5.182   4.189   3.865 -0.0307 -1.1164  0.6444
   12SER     CA  119   5.358   4.240   3.941  0.1692 -0.5846  0.4659
   12SER     HA  120   5.361   4.220   4.047 -0.1214  0.6122  0.7044
   12SER     CB  121   5.421   4.104   3.878  0.0373 -1.2143 -0.1337
   12SER    HB1  122   5.528   4.112   3.903  0.5059 -0.7042 -2.1882
   12SER    HB2  123   5.421   4.100   3.767 -0.4492 -0.7406 -0.1534
   12SER     OG  124   5.365   3.986   3.938  0.1025  0.0919 -0.6847
   12SER    HG1  125   5.277   3.975   3.900  0.2766 -0.5649 -0.8911
   12SER      C  126   5.440   4.361   3.910 -0.5028 -0.4658  1.0327
   12SER      O  127   5.429   4.422   3.803 -0.0357  0.0981 -0.2481
   13GLY      N  128   5.530   4.406   3.998 -0.0178  0.1080  0.6971
   13GLY     HN  129   5.548   4.359   4.084  0.0924 -1.5228 -0.1930
   13GLY     CA  130   5.620   4.525   3.976  0.7072 -0.5377  0.5633
   13GLY    HA1  131   5.680   4.525   4.066  1.2751  0.2670  0.1892
   13GLY    HA2  132   5.555   4.610   3.961  1.4806  0.0985  0.7913
   13GLY      C  133   5.705   4.518   3.853 -0.5473 -0.3433 -0.5442
   13GLY      O  134   5.738   4.417   3.796  0.4250  0.1867  0.2848
   14ASP      N  135   5.750   4.634   3.808 -0.6272  0.0710 -0.1171
   14ASP     HN  136   5.739   4.720   3.858  0.8185 -0.8729  1.8997
   14ASP     CA  137   5.832   4.637   3.688 -0.1422 -0.6975  0.0804
   14ASP     HA  138   5.785   4.584   3.607  0.1510  1.6979 -1.7110
   14ASP     CB  139   5.850   4.780   3.636 -0.4434 -0.2566 -0.4212
   14ASP    HB1  140   5.919   4.792   3.551 -1.3317  2.7538 -0.7936
   14ASP    HB2  141   5.895   4.847   3.713  1.7824  0.2774 -2.1416
   14ASP     CG  142   5.729   4.843   3.585  0.5227  0.3930  0.2121
   14ASP    OD1  143   5.634   4.775   3.540  0.2690  0.2477 -0.1799
   14ASP    OD2  144   5.741   4.969   3.562 -0.0640  0.5378 -0.2572
   14ASP      C  145   5.966   4.563   3.702  0.5267  0.0725 -0.7716
   14ASP      O  146   6.010   4.539   3.817 -0.1899 -0.0997  0.3924
   15PRO      N  147   6.026   4.512   3.600 -0.3937  0.1102  0.5176
   15PRO     CD  148   5.974   4.494   3.463 -0.2600  0.3080  0.3603
   15PRO    HD1  149   6.003   4.578   3.396 -1.0408 -1.4473 -2.2433
   15PRO    HD2  150   5.866   4.469   3.465 -0.0315 -0.6128  2.8121
   15PRO     CA  151   6.149   4.433   3.618  0.1757  0.2608  0.1442
   15PRO     HA  152   6.131   4.354   3.689  1.0017 -1.1994 -1.2235
   15PRO     CB  153   6.180   4.370   3.483  0.0933  0.3797 -0.6582
   15PRO    HB1  154   6.231   4.271   3.487  1.3798  1.0503 -0.4445
   15PRO    HB2  155   6.250   4.431   3.422 -1.4241  1.2184 -1.5757
   15PRO     CG  156   6.048   4.371   3.411 -0.3093  0.5296  0.4030
   15PRO    HG1  157   6.059   4.375   3.300  0.6399  0.5297  0.4956
   15PRO    HG2  158   5.975   4.292   3.440 -0.1339 -0.1653 -0.9878
   15PRO      C  159   6.271   4.505   3.663  0.1074 -0.9137  0.3392
   15PRO    OT1  160   6.301   4.622   3.628  0.2174  0.0023  0.3956
   15PRO    OT2  161   6.354   4.441   3.737 -0.6378 -0.1199 -0.1796
   16LIT    LIT  162   3.753   3.529   0.895 -1.1493 -1.0560 -0.8946
   17LIT    LIT  163   5.541   1.415   1.386  0.3511  0.9925 -0.9638
   18LIT    LIT  164   7.978   0.263   4.600 -0.9265 -0.2502  0.0756
   19LIT    LIT  165   2.106   5.280   6.904 -0.1688 -1.0186  0.5182
   20LIT    LIT  166   6.762   2.162   0.880  0.2235  1.1954 -0.6058
   21LIT    LIT  167   5.877   5.096   3.563  0.2881 -0.0580  0.0939
   22LIT    LIT  168   6.605   4.159   2.791  0.6239  0.7775  0.1861
   23LIT    LIT  169   1.993   0.852   0.601 -0.7687 -0.8809  0.6409
   24LIT    LIT  170   5.237   5.889   3.683 -0.2354  0.0439 -0.3587
   25LIT    LIT  171   3.421   6.793   0.000  0.8659 -1.1176  0.9510
   26LIT    LIT  172   6.892   4.753   4.693  0.4280 -1.2734 -0.0315
   27LIT    LIT  173   5.939   7.705   4.205  0.2995 -1.5200  0.7043
   28LIT    LIT  174   3.057   1.438   5.430 -0.3759  0.8613 -0.1374
   29LIT    LIT  175   4.516   0.436   5.119 -0.0325  0.0873  0.2193
   30LIT    LIT  176   4.973   5.146   0.948 -0.1310 -0.4869  1.2496
   31LIT    LIT  177   3.694   1.529   1.306 -0.4308  0.5466  0.4497
   32LIT    LIT  178   1.621   6.542   5.538  0.5663 -0.3997 -0.9822
   33LIT    LIT  179   2.081   2.555   3.640  0.3276 -0.7125  0.4312
   34LIT    LIT  180   3.231   1.233   2.994 -0.0435  0.1306 -0.4544
   35LIT    LIT  181   7.982   7.694   3.999 -0.0756 -0.6738  0.7992
   36LIT    LIT  182   8.011   2.196   0.707 -0.7506 -0.4563 -0.3114
   37LIT    LIT  183   0.019   6.298   2.369  0.6326 -0.5916  1.2573
   38LIT    LIT  184   7.236   1.305   0.745 -0.2791 -0.4237  0.1498
   39LIT    LIT  185   8.249   4.266   3.210  1.2256  0.6001  0.8961
   40LIT    LIT  186   0.219   2.770   4.297  0.3226  0.0028 -0.1311
   41LIT    LIT  187   1.082   2.942   3.074 -0.9270  0.5800 -1.0063
   42LIT    LIT  188   3.139   2.451   4.328 -0.4519 -0.1775 -0.9672
   43LIT    LIT  189   7.680   0.517   5.262 -1.0547 -0.0943 -0.1847
   44LIT    LIT  190   4.437   7.746   2.612 -0.4665 -0.2916  0.5774
   45LIT    LIT  191   3.643   1.816   0.110 -0.1955 -0.1057 -0.3041
   46LIT    LIT  192   2.933   0.554   2.293 -0.0815 -0.0530  0.0741
   47LIT    LIT  193   8.418   3.472   0.470  0.9070 -0.2947  0.2382
   48LIT    LIT  194   3.206   2.100   0.114 -0.2521 -0.1428 -0.7266
   49LIT    LIT  195   7.177   5.760   6.203  0.4854  0.2822 -0.4278
   50LIT    LIT  196   7.184   5.595   5.463 -0.3380  0.1200 -0.7486
   51LIT    LIT  197   4.400   4.271   3.846  0.4475  0.3596  0.5013
   52LIT    LIT  198   7.319   6.831   4.366 -0.6419  0.2387  0.0389
   53LIT    LIT  199   7.755   4.034   4.691 -0.4302 -0.2937 -0.4631
   54LIT    LIT  200   4.655   2.876   2.606 -0.9143  0.3503 -0.3926
   55LIT    LIT  201   0.121   2.957   1.569  0.4192  0.0693  0.0151
   56LIT    LIT  202   6.650   2.141   5.610  0.0334  0.3259  0.8990
   57LIT    LIT  203   2.615   4.336   4.391  0.6673 -0.1394 -0.0360
   58LIT    LIT  204   2.207   5.867   5.411  0.4912  0.5015  1.2900
   59LIT    LIT  205   1.124   1.917   4.749 -0.4762 -0.3924 -0.0799
   60CLA    CLA  206   6.203   0.041   0.031 -0.0073 -0.0924 -0.2975
   61CLA    CLA  207   2.549   2.159   6.390 -0.4285 -0.0046 -0.0693
   62CLA    CLA  208   7.359   0.031   5.972 -0.2484 -0.3700  0.0954
   63CLA    CLA  209   8.444   7.894   4.214 -0.6063  0.0324  0.1793
   64CLA    CLA  210   1.879   3.149   4.403 -0.3051 -0.3392  0.1539
   65CLA    CLA  211   1.924   1.627   4.374 -0.2541 -0.3033 -0.2731
   66CLA    CLA  212   8.151   6.452   3.777  0.1591  0.2838  0.1587
   67CLA    CLA  213   5.594   6.092   1.485  0.2168 -0.2546  0.1282
   68CLA    CLA  214   8.063   5.828   1.354  0.1606  0.0298 -0.3934
   69CLA    CLA  215   5.743   7.165   4.965  0.0820 -0.1436 -0.2236
   70CLA    CLA  216   1.857   0.325   0.123  0.1462 -0.0476  0.0412
   71CLA    CLA  217   0.186   0.748   5.557  0.0502  0.4604 -0.3709
   72CLA    CLA  218   5.329   4.608   6.811 -0.1559 -0.0225 -0.0241
   73CLA    CLA  219   5.437   7.143   2.309 -0.0756 -0.4180  0.2298
   74CLA    CLA  220   7.255   4.992   3.507 -0.6044 -0.2849 -0.1337
   75CLA    CLA  221   4.928   5.675   5.589  0.1228 -0.1685 -0.3310
   76CLA    CLA  222   7.882   5.354   4.845 -0.3517 -0.2117  0.1907
   77CLA    CLA  223   4.342   2.753   2.133  0.3884 -0.2358 -0.4710
   78CLA    CLA  224   3.085   1.659   3.673 -0.2179 -0.3707  0.2038
   79CLA    CLA  225   8.312   4.937   4.742 -0.1118  0.0009 -0.1885
   80CLA    CLA  226   4.202   1.494   1.159 -0.4049 -0.2061 -0.3346
   81CLA    CLA  227   0.884   3.372   3.823  0.0692  0.3640 -0.0711
   82CLA    CLA  228   2.217   7.075   3.094 -0.0064  0.0095  0.1475
   83CLA    CLA  229   7.033   1.982   2.514 -0.1890 -0.3162  0.3608
   84CLA    CLA  230   0.141   2.748   4.514 -0.0901 -0.0412  0.1099
   85CLA    CLA  231   2.622   3.159   3.027  0.3040  0.2515  0.0565
   86CLA    CLA  232   4.472   3.417   3.525  0.3564  0.1177  0.3835
   87CLA    CLA  233   6.697   6.017   5.795  0.1642  0.1957 -0.0271
   88CLA    CLA  234   0.899   2.252   4.002 -0.4771  0.0433  0.1630
   89CLA    CLA  235   6.092   7.529   4.262  0.1685  0.1911  0.0585
   90CLA    CLA  236   6.297   6.026   0.869 -0.0554  0.1896 -0.1257
   91CLA    CLA  237   0.223   4.841   6.237 -0.5026  0.3092 -0.0185
   92CLA    CLA  238   7.773   5.319   1.703  0.3473  0.0541 -0.3107
   93CLA    CLA  239   8.407   7.367   3.666  0.0826  0.0215  0.1114
   94CLA    CLA  240   7.969   2.019   0.562  0.1775  0.0260 -0.0331
   95CLA    CLA  241   6.531   2.452   1.485  0.2257 -0.3172  0.3550
   96CLA    CLA  242   3.584   2.593   3.728  0.0243 -0.4767 -0.2184
   97CLA    CLA  243   2.328   2.425   2.408 -0.2199 -0.4053 -0.3344
   98CLA    CLA  244   2.082   2.792   1.415  0.4439  0.3958  0.1746
   99CLA    CLA  245   2.952   2.126   0.108  0.2659  0.0486  0.5787
  100CLA    CLA  246   0.550   3.947   4.813 -0.0715  0.2262  0.2101
  101CLA    CLA  247   2.616   6.275   3.979 -0.0235 -0.1770 -0.3552
  102TIP3   OH2  248   2.548   4.279   1.016  0.1119 -0.3981 -0.3108
  102TIP3    H1  249   2.598   4.215   0.966  1.0226  0.7056 -0.8536
  102TIP3    H2  250   2.611   4.349   1.035 -0.5911 -0.1207  1.1336
  103TIP3   OH2  251   5.913   4.270   6.828 -0.1198  0.2139  0.1897
  103TIP3    H1  252   5.819   4.273   6.811  0.2190  1.3671 -1.5709
  103TIP3    H2  253   5.953   4.276   6.742  1.6127  1.6288  1.0773
  104TIP3   OH2  254   8.274   7.440   2.764  0.1441  0.1590 -0.0544
  104TIP3    H1  255   8.212   7.401   2.703 -0.6678  0.8737  0.3096
  104TIP3    H2  256   8.356   7.447   2.714 -0.1185 -0.5988 -0.5897
  105TIP3   OH2  257   0.085   7.079   1.254 -0.0632  0.8147  0.6972
  105TIP3    H1  258   0.126   7.055   1.171  0.2261 -0.6548  1.2592
  105TIP3    H2  259   0.104   7.006   1.313 -1.6360  1.0982  1.5966
  106TIP3   OH2  260   6.786   6.376   2.300  0.5886 -0.2347 -0.2138
  106TIP3    H1  261   6.737   6.297   2.326  0.7131 -0.1925  0.1553
  106TIP3    H2  262   6.877   6.349   2.301  0.9015  0.7666  3.0683
  107TIP3   OH2  263   6.902   7.277   3.217  0.2677 -0.1089  0.4171
  107TIP3    H1  264   6.898   7.338   3.290 -0.6767  0.9205 -0.4889
  107TIP3    H2  265   6.982   7.300   3.171  0.8544 -0.7462  1.1014
  108TIP3   OH2  266   7.158   7.351   0.904  0.7256 -0.1409 -0.1464
  108TIP3    H1  267   7.114   7.416   0.848  0.9606  0.1796  0.0457
  108TIP3    H2  268   7.251   7.367   0.890  0.7830 -0.0157  0.3960
  109TIP3   OH2  269   7.833   5.991   1.767 -0.0155 -0.1768  0.8898
  109TIP3    H1  270   7.832   5.949   1.681  3.2900 -0.1284  0.7784
  109TIP3    H2  271   7.798   6.079   1.751  2.4488  0.5316 -0.8479
  110TIP3   OH2  272   1.291   7.377   3.347 -0.3568 -0.2776  0.1924
  110TIP3    H1  273   1.354   7.400   3.415  1.3032 -0.5714 -1.2049
  110TIP3    H2  274   1.326   7.297   3.308 -2.0157 -0.8882 -0.0956
  111TIP3   OH2  275   4.131   0.064   1.677 -0.0795 -0.2265 -0.0058
  111TIP3    H1  276   4.036   0.056   1.665  0.1483 -0.4816 -1.7428
  111TIP3    H2  277   4.163  -0.026   1.673  0.3212 -0.0747 -0.2019
  112TIP3   OH2  278   8.481   3.478   6.664  0.5146 -0.0935 -0.0498
  112TIP3    H1  279   8.478   3.529   6.583  0.0218  1.0529  0.6894
  112TIP3    H2  280   8.401   3.501   6.711 -0.0095 -1.9793  0.0446
  113TIP3   OH2  281   0.495   3.551   6.506 -0.0159 -0.4340  0.3619
  113TIP3    H1  282   0.559   3.622   6.512  0.6042 -0.9680  0.1591
  113TIP3    H2  283   0.411   3.596   6.496  0.4269  0.2765 -0.3280
  114TIP3   OH2  284   2.036   6.596   0.528 -0.4058  0.2928  0.6053
  114TIP3    H1  285   2.025   6.588   0.622 -2.2271  1.6355  0.5360
  114TIP3    H2  286   1.969   6.659   0.501  0.8896  0.8757 -1.4060
  115TIP3   OH2  287   3.483   1.338   2.698  0.2692 -0.1293 -0.1144
  115TIP3    H1  288   3.515   1.418   2.656  2.5193  0.1486  2.0002
  115TIP3    H2  289   3.532   1.268   2.655 -0.6087 -0.2379 -0.9392
  116TIP3   OH2  290   4.637   1.962   2.129 -0.6495 -0.0243  1.3270
  116TIP3    H1  291   4.599   2.016   2.060 -1.7578 -2.0607  0.2829
  116TIP3    H2  292   4.569   1.956   2.196 -0.4652  0.0216  1.5178
  117TIP3   OH2  293   7.459   4.451   6.445 -0.1989 -0.2417  0.4096
  117TIP3    H1  294   7.500   4.537   6.457 -0.8550  0.0203  0.7684
  117TIP3    H2  295   7.449   4.416   6.534 -0.7454 -0.3059  0.3261
  118TIP3   OH2  296   5.407   0.062   1.574  0.3437 -0.2116 -0.0002
  118TIP3    H1  297   5.393   0.081   1.481 -0.0014 -1.6911 -0.2680
  118TIP3    H2  298   5.423  -0.032   1.577  0.6981 -0.1182  1.4049
  119TIP3   OH2  299   6.567   0.003   0.904  0.0304 -0.2197 -0.4663
  119TIP3    H1  300   6.563   0.052   0.822 -0.1996  2.9988  1.3770
  119TIP3    H2  301   6.660  -0.012   0.919  0.0553 -1.1271 -1.4467
  120TIP3   OH2  302   7.378   3.933   5.782  0.0665 -0.1227  0.3968
  120TIP3    H1  303   7.412   4.023   5.783 -1.6210  0.5246  0.9531
  120TIP3    H2  304   7.372   3.909   5.874 -0.0822 -0.5798  0.2683
  121TIP3   OH2  305   1.059   7.431   0.525  0.4235  0.3693 -0.1325
  121TIP3    H1  306   1.036   7.353   0.575  0.4952 -0.3846 -1.2670
  121TIP3    H2  307   1.021   7.504   0.575 -1.7151 -0.5875 -0.3026
  122TIP3   OH2  308   5.805   4.457   6.128  0.0085  0.1167 -0.2041
  122TIP3    H1  309   5.807   4.417   6.041 -0.9474 -3.1410  1.1743
  122TIP3    H2  310   5.780   4.548   6.112  0.8764 -0.1448 -3.4019
  123TIP3   OH2  311   4.109   0.859   0.449 -0.5185  0.1640  0.2445
  123TIP3    H1  312   4.121   0.785   0.390 -0.2296  1.6201 -1.5662
  123TIP3    H2  313   4.088   0.932   0.392 -2.1352  1.2237  2.0962
  124TIP3   OH2  314   8.181   7.740   3.985 -0.8153  0.2719  0.5171
  124TIP3    H1  315   8.229   7.680   3.928 -1.1046 -0.3486  0.9282
  124TIP3    H2  316   8.236   7.819   3.989  0.7146 -0.8335  1.8508
  125TIP3   OH2  317   2.967   1.719   2.642  0.2014  0.7736 -0.0654
  125TIP3    H1  318   2.907   1.759   2.579  0.7350 -0.2719 -1.2660
  125TIP3    H2  319   2.925   1.637   2.667  1.5279 -0.4360 -1.6540
  126TIP3   OH2  320   3.880   7.637   1.662  0.3204 -0.7008 -0.3981
  126TIP3    H1  321   3.798   7.652   1.709  0.3203  2.4537 -1.3289
  126TIP3    H2  322   3.856   7.578   1.590 -0.5562 -1.9215  0.8576
  127TIP3   OH2  323   0.254   8.034   0.470  0.4011 -0.3004 -0.1826
  127TIP3    H1  324   0.344   8.054   0.444  0.3158 -0.3967 -0.5602
  127TIP3    H2  325   0.258   7.946   0.507  0.3742 -0.4951 -0.6494
  128TIP3   OH2  326   7.622   2.852   5.335  0.5723  0.3744  0.2849
  128TIP3    H1  327   7.674   2.814   5.264 -1.0502 -0.3665 -0.5208
  128TIP3    H2  328   7.667   2.825   5.415  1.8683  0.4079 -0.4167
  129TIP3   OH2  329   1.073   7.667   1.896  0.1443  0.1601  0.3573
  129TIP3    H1  330   1.072   7.619   1.813 -1.7142 -0.7766  0.8907
  129TIP3    H2  331   1.093   7.600   1.962  0.9461  0.7744  0.7367
  130TIP3   OH2  332   6.614   3.037   6.584 -0.0250  0.0831  0.0221
  130TIP3    H1  333   6.651   3.015   6.670 -1.2218 -0.1498  0.4824
  130TIP3    H2  334   6.521   3.014   6.591 -0.3888  1.1979 -0.9347
  131TIP3   OH2  335   0.711   7.128   1.242  0.2736 -0.0528 -0.3765
  131TIP3    H1  336   0.648   7.094   1.305 -0.5786  0.9153 -0.6776
  131TIP3    H2  337   0.732   7.054   1.186  0.5739 -0.7663  0.6762
  132TIP3   OH2  338   6.948   7.093   1.176 -0.3428  0.7376  0.3536
  132TIP3    H1  339   6.958   7.085   1.271 -2.7659 -3.3074  0.4119
  132TIP3    H2  340   7.022   7.043   1.140 -1.1038 -0.3046  0.2068
  133TIP3   OH2  341   4.724   0.388   1.661 -0.3101  0.2649 -0.7906
  133TIP3    H1  342   4.633   0.407   1.682 -0.3084  0.4100 -0.9077
  133TIP3    H2  343   4.736   0.296   1.683 -0.7528 -0.0131 -1.6835
  134TIP3   OH2  344   1.258   5.594   0.993  0.2835 -0.3871 -0.0146
  134TIP3    H1  345   1.204   5.660   1.036 -0.1986 -0.8111  0.0322
  134TIP3    H2  346   1.199   5.520   0.980  0.9528 -0.9934  0.3811
  135TIP3   OH2  347   0.240   3.380   5.942  0.3100  0.5368  0.3910
  135TIP3    H1  348   0.322   3.408   5.900 -0.1228 -0.1037 -0.9093
  135TIP3    H2  349   0.251   3.286   5.955 -1.3008 -0.1000 -2.3864
  136TIP3   OH2  350   5.661   0.303   1.769 -0.0978  0.0121  0.1811
  136TIP3    H1  351   5.603   0.248   1.822  0.8780 -0.0903  1.1583
  136TIP3    H2  352   5.731   0.245   1.741  0.6231  0.6121  0.7216
  137TIP3   OH2  353   2.869   1.457   1.658 -0.0635  0.0860 -0.4029
  137TIP3    H1  354   2.831   1.537   1.621  0.2648 -0.2012 -1.3800
  137TIP3    H2  355   2.814   1.386   1.625  0.4262 -0.2023 -0.6134
  138TIP3   OH2  356   4.625   0.765   1.898  0.0663 -0.4444 -0.0276
  138TIP3    H1  357   4.633   0.779   1.992  1.7239 -0.7281 -0.1029
  138TIP3    H2  358   4.563   0.693   1.889 -0.4111 -0.1453  0.8288
  139TIP3   OH2  359   3.302   7.857   1.030 -0.2204  0.2442 -0.0415
  139TIP3    H1  360   3.247   7.917   0.980  0.1309  0.1505 -0.5443
  139TIP3    H2  361   3.391   7.876   1.001 -0.0639 -0.1961  0.1390
  140TIP3   OH2  362   5.843   1.101   4.122 -0.6836 -0.5728  0.1018
  140TIP3    H1  363   5.796   1.036   4.175  0.7440 -1.8997 -0.2092
  140TIP3    H2  364   5.931   1.066   4.114 -0.3993  0.4631 -1.7137
  141TIP3   OH2  365   6.143   4.087   6.836  0.0964 -0.5681 -0.0286
  141TIP3    H1  366   6.234   4.111   6.821 -0.0027 -0.5533 -0.5957
  141TIP3    H2  367   6.103   4.166   6.873  0.4201 -0.7216  0.6518
  142TIP3   OH2  368   3.529   1.630   3.437  0.0610 -0.0711 -0.2058
  142TIP3    H1  369   3.493   1.700   3.491 -0.7005 -0.5695 -0.0729
  142TIP3    H2  370   3.548   1.672   3.353  1.6047  0.7953  0.5526
  143TIP3   OH2  371   4.335   0.822   1.391  0.1607 -0.1762  0.3412
  143TIP3    H1  372   4.364   0.860   1.474 -1.5263  1.7408  0.0794
  143TIP3    H2  373   4.370   0.880   1.324 -1.1496  0.0777 -0.1390
  144TIP3   OH2  374   6.350   1.042   0.841  0.4591 -0.3191  0.1824
  144TIP3    H1  375   6.283   0.984   0.877  0.6395  0.4461  1.7897
  144TIP3    H2  376   6.365   1.009   0.752  0.3776 -2.5855  0.9725
  145TIP3   OH2  377   4.396   1.360   4.234 -0.2430  0.5611  0.0126
  145TIP3    H1  378   4.433   1.439   4.274 -3.4342  1.5874  1.0798
  145TIP3    H2  379   4.389   1.382   4.141 -0.8794  1.4640  0.2663
  146TIP3   OH2  380   5.019   0.149   3.662  0.1832  0.1950 -0.4691
  146TIP3    H1  381   4.973   0.229   3.638 -0.0346  0.1525 -0.2030
  146TIP3    H2  382   5.110   0.164   3.637  0.3505  0.9345  0.5465
  147TIP3   OH2  383   6.234   1.780   0.302  0.1690 -0.3189  0.1103
  147TIP3    H1  384   6.220   1.809   0.212 -0.6274 -0.0256  0.3166
  147TIP3    H2  385   6.329   1.774   0.311  0.2587 -0.2462 -0.7153
  148TIP3   OH2  386   1.210   7.673   1.295  0.4139  0.5163 -0.4815
  148TIP3    H1  387   1.292   7.631   1.269 -0.1339 -0.3897 -0.7607
  148TIP3    H2  388   1.165   7.689   1.212 -1.8933 -3.4756 -0.1512
  149TIP3   OH2  389   2.051   7.428   0.632 -0.1096  0.4314  0.3683
  149TIP3    H1  390   2.147   7.420   0.638 -0.0681 -0.2397 -0.8865
  149TIP3    H2  391   2.037   7.511   0.587 -0.0339 -0.5702 -1.5436
  150TIP3   OH2  392   6.608   3.805   6.213 -0.9145 -0.1618 -0.1722
  150TIP3    H1  393   6.599   3.883   6.267  2.3839 -0.4428  0.9134
  150TIP3    H2  394   6.556   3.738   6.259 -2.8059  1.0663 -0.4934
  151TIP3   OH2  395   0.097   7.895   2.803  0.8120  0.3162  0.4568
  151TIP3    H1  396   0.091   7.884   2.898 -2.4385  0.2692  0.2894
  151TIP3    H2  397   0.087   7.807   2.768 -2.0301  0.7927 -0.0359
  152TIP3   OH2  398   4.130   0.621   0.328 -0.3385  0.6041  0.5331
  152TIP3    H1  399   4.124   0.613   0.232 -1.4896  1.1500  0.5495
  152TIP3    H2  400   4.061   0.563   0.361  1.2062 -0.9694  1.1093
  153TIP3   OH2  401   5.145   0.978   3.152 -0.1772 -0.6841 -0.1547
  153TIP3    H1  402   5.139   1.045   3.084 -1.4047  0.8390  1.3980
  153TIP3    H2  403   5.098   1.016   3.226  1.8970 -1.9250  1.8396
  154TIP3   OH2  404   4.058   0.565   2.260 -0.0236 -0.6304 -0.1407
  154TIP3    H1  405   4.127   0.513   2.217  2.7374  2.1231  0.8174
  154TIP3    H2  406   4.062   0.650   2.217 -1.5824  0.1406  1.2169
  155TIP3   OH2  407   2.264   6.803   0.609 -0.4193 -0.3885 -0.1592
  155TIP3    H1  408   2.241   6.884   0.655  0.8210 -0.7423  1.1208
  155TIP3    H2  409   2.205   6.801   0.534 -1.6558  0.8251  0.7439
  156TIP3   OH2  410   1.613   7.166   0.921 -0.2363  0.2178  0.7238
  156TIP3    H1  411   1.537   7.116   0.950 -1.2670  1.6987  0.6201
  156TIP3    H2  412   1.680   7.100   0.905 -1.6725 -1.1718  0.2620
  157TIP3   OH2  413   6.601   5.077   6.690 -0.1862  0.6466  0.0382
  157TIP3    H1  414   6.564   5.063   6.777  1.9766  2.6346  1.3603
  157TIP3    H2  415   6.694   5.058   6.701 -0.3858 -2.1684 -2.6653
  158TIP3   OH2  416   7.435   4.514   2.006  0.0718 -0.6988 -0.6630
  158TIP3    H1  417   7.496   4.586   1.988  0.1185 -0.2983  1.0910
  158TIP3    H2  418   7.368   4.523   1.938  0.5839  0.4206 -1.0360
  159TIP3   OH2  419   5.894   0.186   1.702 -0.8572  0.4673  0.1774
  159TIP3    H1  420   5.938   0.118   1.754  2.5916  1.9549 -0.6457
  159TIP3    H2  421   5.952   0.200   1.627 -1.2392  4.5682  0.5329
  160TIP3   OH2  422   5.869   0.552   3.062 -0.2563  0.2562  0.4449
  160TIP3    H1  423   5.884   0.459   3.042 -0.0189  0.0942  1.3516
  160TIP3    H2  424   5.821   0.585   2.986  0.4255 -0.3947 -0.2834
  161TIP3   OH2  425   1.670   7.743   0.361  0.3034 -0.3217 -0.1004
  161TIP3    H1  426   1.622   7.665   0.389  1.7549 -1.5131 -0.9301
  161TIP3    H2  427   1.686   7.791   0.443 -1.1905 -0.5237  0.3329
  162TIP3   OH2  428   1.952   7.538   2.167  0.5423  0.2097  0.1584
  162TIP3    H1  429   1.861   7.560   2.188 -0.2326 -0.7973 -1.9855
  162TIP3    H2  430   1.991   7.516   2.252 -1.8132 -1.4825  0.8657
  163TIP3   OH2  431   5.270   0.844   2.479 -0.2748  0.1209 -0.1966
  163TIP3    H1  432   5.299   0.764   2.436 -2.9134 -0.9181 -0.0787
  163TIP3    H2  433   5.246   0.903   2.408  1.7967  0.9027 -0.2878
  164TIP3   OH2  434   4.896   0.658   3.725 -0.2092 -0.3879 -0.5477
  164TIP3    H1  435   4.820   0.700   3.684  0.6073 -0.4097 -2.1590
  164TIP3    H2  436   4.953   0.731   3.750 -0.5214 -0.3925  0.1865
  165TIP3   OH2  437   4.655   1.188   2.326 -0.0198 -0.3214  0.1091
  165TIP3    H1  438   4.663   1.226   2.239  0.8236 -1.2176 -0.2175
  165TIP3    H2  439   4.581   1.127   2.319  1.9420 -2.6816 -0.8603
  166TIP3   OH2  440   1.498   6.710   1.416 -0.3608  0.2583  0.1731
  166TIP3    H1  441   1.590   6.689   1.432  0.0295  1.4781 -0.3771
  166TIP3    H2  442   1.473   6.654   1.342  0.6040  1.5105 -1.1403
  167TIP3   OH2  443   8.062   3.315   6.554 -0.4926 -0.0221 -0.1609
  167TIP3    H1  444   7.983   3.361   6.526  0.0941  0.5445 -0.9173
  167TIP3    H2  445   8.133   3.356   6.504  0.3071 -0.3842  0.6575
  168TIP3   OH2  446   4.045   0.848   2.512 -0.4490 -0.0769 -0.1943
  168TIP3    H1  447   4.005   0.899   2.583 -0.2148 -1.9849  1.3387
  168TIP3    H2  448   3.978   0.784   2.487  0.9800 -2.1759  1.2201
  169TIP3   OH2  449   2.523   7.302   1.032 -0.4043 -0.5966  0.1288
  169TIP3    H1  450   2.554   7.271   0.947 -0.1296 -1.5020  0.5534
  169TIP3    H2  451   2.475   7.382   1.012 -0.5424 -0.9273 -0.9137
  170TIP3   OH2  452   1.478   7.759   4.362  0.5992  0.4901 -0.4832
  170TIP3    H1  453   1.457   7.689   4.301  1.3410 -0.7626  0.6765
  170TIP3    H2  454   1.450   7.726   4.447  2.7576  0.7782  0.3692
  171TIP3   OH2  455   3.333   7.422   1.912  0.3100  0.2228  0.1674
  171TIP3    H1  456   3.330   7.374   1.995 -2.3567  1.0707  0.5892
  171TIP3    H2  457   3.334   7.354   1.845  0.8014 -0.4463  0.8449
  172TIP3   OH2  458   8.212   3.219   6.795  0.4615 -0.2121  0.1145
  172TIP3    H1  459   8.172   3.147   6.843  1.8751 -0.5913  0.7367
  172TIP3    H2  460   8.160   3.226   6.715 -0.7648 -0.7765  0.8428
  173TIP3   OH2  461   0.313   6.705   1.117 -0.0456 -0.2976  0.3860
  173TIP3    H1  462   0.230   6.750   1.105  0.1229 -0.1113 -0.0950
  173TIP3    H2  463   0.380   6.772   1.104  0.1825 -0.4780  0.6172
  174TIP3   OH2  464   7.407   3.080   6.689 -0.0602 -0.8415 -0.6358
  174TIP3    H1  465   7.444   3.117   6.769 -1.8259 -0.7872  0.1837
  174TIP3    H2  466   7.480   3.075   6.628  1.0849  0.0690  0.6514
  175TIP3   OH2  467   1.562   6.665   2.681  0.7011  0.1444 -0.7537
  175TIP3    H1  468   1.574   6.575   2.651 -0.5806 -0.5761  0.8241
  175TIP3    H2  469   1.500   6.703   2.619 -1.3387 -1.1011  0.4541
  176TIP3   OH2  470   1.090   6.859   1.269 -0.0864  0.0651  0.7725
  176TIP3    H1  471   1.166   6.826   1.316  0.3819  3.3099  2.4294
  176TIP3    H2  472   1.116   6.947   1.240 -1.9201 -0.1940 -1.8252
  177TIP3   OH2  473   8.090   7.472   3.739 -0.0625 -0.1949  0.2599
  177TIP3    H1  474   8.086   7.522   3.658 -0.5148 -0.5855  0.0398
  177TIP3    H2  475   8.172   7.424   3.733  0.2530  0.3271  0.3606
  178TIP3   OH2  476   3.112   0.228   4.433  0.3339 -0.6965  0.2042
  178TIP3    H1  477   3.090   0.204   4.523 -0.8219 -1.2153 -0.1970
  178TIP3    H2  478   3.100   0.147   4.383  0.1844 -0.2229 -0.5408
  179TIP3   OH2  479   1.443   6.410   1.021 -0.2730 -0.1167  0.0074
  179TIP3    H1  480   1.527   6.364   1.031  0.6256  1.4852 -0.0010
  179TIP3    H2  481   1.386   6.369   1.085  0.4354 -1.4187 -0.1722
  180TIP3   OH2  482   3.362   0.975   1.744 -0.0133  0.3672  0.2786
  180TIP3    H1  483   3.375   0.915   1.671  1.6424  0.7637  0.2268
  180TIP3    H2  484   3.280   1.020   1.724 -0.6748 -1.0328 -0.2513
  181TIP3   OH2  485   3.625   1.295   0.348  0.4052  0.1933 -0.3219
  181TIP3    H1  486   3.579   1.275   0.267 -0.5260  1.1313 -0.0371
  181TIP3    H2  487   3.556   1.303   0.414  0.9692  1.3798  0.1500
  182TIP3   OH2  488   0.984   7.030   0.989 -0.4931 -0.0712 -0.5398
  182TIP3    H1  489   1.029   7.066   1.065 -2.4929  1.0578  0.1314
  182TIP3    H2  490   1.049   7.036   0.918  1.8911 -2.4437  1.3150
  183TIP3   OH2  491   1.769   6.828   2.706  0.5110 -0.0427  0.0185
  183TIP3    H1  492   1.829   6.757   2.682  1.3318  0.7589 -0.3250
  183TIP3    H2  493   1.693   6.783   2.742  1.2544 -1.0824  0.3368
  184TIP3   OH2  494   3.269   1.387   3.664 -0.0672  0.2603  0.3747
  184TIP3    H1  495   3.314   1.447   3.604 -0.7858 -0.1793 -0.6290
  184TIP3    H2  496   3.194   1.437   3.696  0.4630  0.5864  1.1290
  185TIP3   OH2  497   0.408   6.249   0.157  0.1581  0.6098 -0.2104
  185TIP3    H1  498   0.475   6.263   0.225  1.2390 -1.0196 -0.8835
  185TIP3    H2  499   0.437   6.302   0.083  0.9346 -0.3618 -0.6245
  186TIP3   OH2  500   2.807   4.869   5.627  0.2564  0.0116 -0.7550
  186TIP3    H1  501   2.757   4.830   5.556 -0.5292 -1.4532  0.5787
  186TIP3    H2  502   2.745   4.930   5.668  0.2802 -0.1506 -0.4804
  187TIP3   OH2  503   1.435   4.137   5.081  0.5520 -0.1655  0.6286
  187TIP3    H1  504   1.353   4.093   5.102  0.8278 -0.9397  0.0949
  187TIP3    H2  505   1.449   4.197   5.154  0.3316 -1.1685  1.5065
  188TIP3   OH2  506   6.462   1.618   3.914 -0.1736 -0.4564 -0.2378
  188TIP3    H1  507   6.424   1.643   3.829  1.5602  2.1377 -0.3013
  188TIP3    H2  508   6.502   1.532   3.898  0.2917  0.0905 -2.1085
  189TIP3   OH2  509   6.640   1.133   0.518  0.2001  0.2099  0.4668
  189TIP3    H1  510   6.688   1.081   0.582  0.4624 -0.1556 -0.0226
  189TIP3    H2  511   6.668   1.099   0.433 -0.2574  0.5881  0.1583
  190TIP3   OH2  512   6.886   1.697   6.845 -0.1348  0.2225 -0.7519
  190TIP3    H1  513   6.844   1.620   6.883  0.1857  0.2357 -0.3751
  190TIP3    H2  514   6.901   1.756   6.919  1.9139 -0.4035 -0.6462
  191TIP3   OH2  515   2.105   5.155   6.729 -1.2320 -0.0722 -0.2225
  191TIP3    H1  516   2.112   5.065   6.697 -0.1793  0.2340 -0.8814
  191TIP3    H2  517   2.117   5.209   6.652 -0.0600  0.6546  0.4481
  192TIP3   OH2  518   6.086   0.792   1.208  0.4022 -0.1709  0.3852
  192TIP3    H1  519   6.141   0.717   1.187  1.8067  0.6774  0.9756
  192TIP3    H2  520   6.047   0.772   1.293 -1.4036 -1.4203 -0.6889
  193TIP3   OH2  521   5.369   1.012   0.170  0.1681  0.3174 -0.3520
  193TIP3    H1  522   5.396   0.997   0.261 -1.4689 -0.0651  0.0917
  193TIP3    H2  523   5.361   1.107   0.162  0.5096  0.3631 -0.1573
  194TIP3   OH2  524   5.532   0.222   3.234 -0.1126  0.4737  0.3673
  194TIP3    H1  525   5.627   0.224   3.250 -0.0835  1.6951  0.0913
  194TIP3    H2  526   5.507   0.131   3.253  1.3709 -0.2723 -1.0590
  195TIP3   OH2  527   6.002   1.829   2.290 -0.2388 -0.1716 -0.1306
  195TIP3    H1  528   6.006   1.886   2.366  0.7695  1.1838 -1.1700
  195TIP3    H2  529   6.034   1.744   2.322 -0.9966  0.0437  1.2240
  196TIP3   OH2  530   5.032   0.581   1.294  0.4326  0.0579  0.7143
  196TIP3    H1  531   4.981   0.642   1.241 -2.2535 -1.1716  1.7845
  196TIP3    H2  532   5.087   0.534   1.231 -0.9227  0.3035 -0.6653
  197TIP3   OH2  533   0.815   3.970   6.488  0.1483  0.3097 -0.1949
  197TIP3    H1  534   0.898   3.946   6.446  0.3424 -1.1122  0.9397
  197TIP3    H2  535   0.831   4.057   6.525  1.2590 -0.0751  0.2687
  198TIP3   OH2  536   5.043   0.362   1.596  0.5250 -0.1087 -0.6585
  198TIP3    H1  537   5.101   0.435   1.616  1.0753 -1.2184  1.9532
  198TIP3    H2  538   4.955   0.398   1.605  0.7968  0.6266 -0.9288
  199TIP3   OH2  539   6.367   1.513   1.851  0.0175 -0.2929 -0.2877
  199TIP3    H1  540   6.366   1.554   1.765 -0.2121 -0.2684 -0.2741
  199TIP3    H2  541   6.274   1.502   1.873  0.0791 -1.4015 -0.5712
  200TIP3   OH2  542   6.741   1.479   2.858 -0.1249 -0.0245  0.5463
  200TIP3    H1  543   6.727   1.419   2.931 -3.2597 -0.7705 -0.5960
  200TIP3    H2  544   6.770   1.423   2.786  1.3597  0.4816  0.7408
  201TIP3   OH2  545   3.536   7.211   1.462 -0.2004  0.3700 -0.2439
  201TIP3    H1  546   3.583   7.128   1.466 -0.9409 -0.0747 -0.7840
  201TIP3    H2  547   3.497   7.214   1.375 -0.4045  1.1634 -0.1370
  202TIP3   OH2  548   1.528   3.995   5.455 -0.4951 -0.0833 -0.7103
  202TIP3    H1  549   1.619   4.024   5.461 -0.1674 -1.1876 -0.2284
  202TIP3    H2  550   1.525   3.914   5.507 -1.6453 -0.2870 -1.0818
  203TIP3   OH2  551   7.559   3.657   6.520 -0.3178  0.5078  0.2491
  203TIP3    H1  552   7.568   3.751   6.538  0.3488  0.9233 -2.0803
  203TIP3    H2  553   7.638   3.635   6.471 -0.0355 -1.5066  1.5471
  204TIP3   OH2  554   1.683   6.995   1.942  0.6070 -0.0610 -0.0112
  204TIP3    H1  555   1.720   6.922   1.893  3.1628  0.9808  0.2772
  204TIP3    H2  556   1.743   7.068   1.926 -1.8957  2.0249 -0.3327
  205TIP3   OH2  557   2.804   0.455   1.350 -0.0114 -0.1166  0.2781
  205TIP3    H1  558   2.805   0.483   1.258  0.9163 -0.8360  0.0581
  205TIP3    H2  559   2.726   0.495   1.386 -0.6532 -0.2144 -0.9621
  206TIP3   OH2  560   1.577   7.797   0.832 -0.0163  0.2247 -0.2419
  206TIP3    H1  561   1.649   7.807   0.894 -0.7638  0.1754  0.6488
  206TIP3    H2  562   1.533   7.882   0.832 -1.3980 -0.4641  1.0494
  207TIP3   OH2  563   1.057   7.305   0.786 -0.3749  0.4141 -0.2514
  207TIP3    H1  564   1.052   7.210   0.797  1.4755  0.2417 -0.7669
  207TIP3    H2  565   1.130   7.332   0.841  0.0960  1.3372 -1.3098
  208TIP3   OH2  566   7.049   5.769   6.043  0.0355 -0.2771 -0.1696
  208TIP3    H1  567   7.004   5.704   5.990 -0.4582 -0.0852  0.0166
  208TIP3    H2  568   7.056   5.846   5.987 -0.8509  0.0632  0.1885
  209TIP3   OH2  569   8.311   2.229   0.463 -0.0693 -0.8460  0.1815
  209TIP3    H1  570   8.394   2.277   0.469  0.0803 -1.0578 -0.1719
  209TIP3    H2  571   8.337   2.139   0.443 -0.4043 -0.8249 -0.3528
  210TIP3   OH2  572   4.202   7.346   0.140  0.3129  0.4356  0.3246
  210TIP3    H1  573   4.273   7.302   0.187  1.0695 -0.9016 -1.9726
  210TIP3    H2  574   4.123   7.296   0.163  0.6912 -0.2602  0.1202
  211TIP3   OH2  575   6.681   0.579   1.418  0.0833 -0.2412 -0.2803
  211TIP3    H1  576   6.737   0.557   1.492  1.5846  0.2250 -1.2404
  211TIP3    H2  577   6.644   0.495   1.389  0.2519 -0.5452  0.3816
  212TIP3   OH2  578   6.810   5.615   6.910 -0.6765  0.3265  0.6341
  212TIP3    H1  579   6.799   5.548   6.842 -2.4281  1.4787 -0.2656
  212TIP3    H2  580   6.898   5.650   6.895  0.1553 -1.5731  0.9555
  213TIP3   OH2  581   2.910   7.256  -0.014  0.3728 -0.2821  0.3843
  213TIP3    H1  582   2.826   7.217  -0.041  0.6034 -0.7976  0.4109
  213TIP3    H2  583   2.940   7.201   0.058  0.9195 -0.3277  0.1260
  214TIP3   OH2  584   4.016   7.918   0.888  0.2804  0.2237  0.3845
  214TIP3    H1  585   4.095   7.970   0.900 -0.1664  0.8242  0.7253
  214TIP3    H2  586   4.042   7.848   0.828  0.9164  0.7568  0.0402
  215TIP3   OH2  587   8.346   1.278   4.967  0.3662  0.6107 -0.5307
  215TIP3    H1  588   8.361   1.280   5.062  1.3602 -1.3449 -0.6184
  215TIP3    H2  589   8.259   1.239   4.958  0.6600 -0.0847 -0.4355
  216TIP3   OH2  590   1.207   2.600   2.791 -0.5437  0.4565  0.1145
  216TIP3    H1  591   1.193   2.571   2.881  0.8908 -1.0035 -0.1003
  216TIP3    H2  592   1.185   2.523   2.738  2.0561  0.1379 -0.5565
  217TIP3   OH2  593   2.506   4.118   0.230 -0.8028 -0.1208 -0.0905
  217TIP3    H1  594   2.451   4.160   0.164  0.5930  1.7867 -0.0774
  217TIP3    H2  595   2.536   4.036   0.189 -0.2690  0.8549 -1.6851
  218TIP3   OH2  596   1.117   1.845   1.001 -0.0893  0.1799 -0.8605
  218TIP3    H1  597   1.044   1.879   0.950 -0.9986  0.1708  0.4064
  218TIP3    H2  598   1.105   1.750   1.001 -1.0713  0.2807  0.7735
  219TIP3   OH2  599   3.356   0.450   1.599  0.1960 -0.2588  0.3021
  219TIP3    H1  600   3.281   0.398   1.570  0.2787  0.3730 -1.0934
  219TIP3    H2  601   3.386   0.407   1.679 -1.7149 -0.4647  0.9314
  220TIP3   OH2  602   2.458   2.897   1.093 -0.2739  0.2761 -0.5579
  220TIP3    H1  603   2.438   2.823   1.150 -1.5620  0.7367 -0.4089
  220TIP3    H2  604   2.391   2.895   1.025  0.4278  0.5616 -1.2653
  221TIP3   OH2  605   2.381   4.177   0.494  0.2578 -0.1294  0.3664
  221TIP3    H1  606   2.375   4.125   0.414  1.0747 -0.5514  0.5642
  221TIP3    H2  607   2.472   4.206   0.497  0.5419 -1.0932  1.7290
  222TIP3   OH2  608   3.538   2.841   1.233  0.6530  0.2806  0.1041
  222TIP3    H1  609   3.511   2.841   1.141  0.8172  1.9235  0.0319
  222TIP3    H2  610   3.493   2.766   1.272 -0.0042  0.0167 -1.1423
  223TIP3   OH2  611   8.360   7.873   2.315 -0.0729 -0.3000 -0.2419
  223TIP3    H1  612   8.267   7.879   2.294 -0.4455 -0.2359  1.3365
  223TIP3    H2  613   8.401   7.943   2.264 -1.1477  0.8391  0.4160
  224TIP3   OH2  614   1.613   0.926   2.783 -0.1563 -0.4622 -0.5361
  224TIP3    H1  615   1.675   0.871   2.831 -2.7708 -1.0921  2.2244
  224TIP3    H2  616   1.532   0.876   2.783 -1.3225  1.3660 -2.0962
  225TIP3   OH2  617   4.297   1.233   4.461  0.2745 -0.0078 -0.2264
  225TIP3    H1  618   4.358   1.243   4.389  1.3734 -2.2910  0.3086
  225TIP3    H2  619   4.210   1.246   4.423  1.0334  2.1575 -1.2248
  226TIP3   OH2  620   2.762   1.797   2.430  0.8233 -0.5669  0.3697
  226TIP3    H1  621   2.697   1.750   2.379  1.2456 -1.1424  0.3532
  226TIP3    H2  622   2.791   1.869   2.373  1.2164 -1.1437 -0.1662
  227TIP3   OH2  623   2.387   1.322   3.170  0.0283  0.0659  0.0931
  227TIP3    H1  624   2.450   1.268   3.122 -1.6816 -0.8690 -1.1948
  227TIP3    H2  625   2.311   1.265   3.181 -0.5015  1.0855  1.8260
  228TIP3   OH2  626   4.408   1.925   2.294 -0.6146  0.2348 -0.0209
  228TIP3    H1  627   4.321   1.918   2.255 -0.6036  1.3308 -0.2625
  228TIP3    H2  628   4.413   2.015   2.327  0.1518 -0.0426  0.6545
  229TIP3   OH2  629   0.326   6.382   3.086 -0.3252 -0.0185  1.1920
  229TIP3    H1  630   0.255   6.324   3.112 -0.3128  0.2541  1.8319
  229TIP3    H2  631   0.343   6.436   3.163  1.0226 -0.5140  1.2446
  230TIP3   OH2  632   2.811   0.374   3.274 -0.0779  0.0431  0.5002
  230TIP3    H1  633   2.851   0.455   3.242  0.0525 -0.2527 -0.1000
  230TIP3    H2  634   2.868   0.345   3.345  0.0047  0.3560  0.5626
  231TIP3   OH2  635   3.949   0.960   1.394 -0.2376  0.1331 -0.3255
  231TIP3    H1  636   3.904   0.914   1.324 -0.7950  0.8512 -0.4424
  231TIP3    H2  637   3.887   0.960   1.467  0.1660 -0.2206  0.0227
  232TIP3   OH2  638   1.523   6.084   2.513 -0.1091 -0.0118  0.4415
  232TIP3    H1  639   1.436   6.103   2.547 -0.4251  0.1526 -0.4338
  232TIP3    H2  640   1.508   6.060   2.421  0.8528  0.9390  0.0176
  233TIP3   OH2  641   3.879   0.949   2.191  0.6114  0.4135 -0.0027
  233TIP3    H1  642   3.799   0.914   2.153 -0.0652  1.4799  0.4215
  233TIP3    H2  643   3.853   1.033   2.229  2.2330  1.4377 -1.1217
  234TIP3   OH2  644   0.723   2.858   4.286 -0.0612 -0.6686  0.0836
  234TIP3    H1  645   0.785   2.788   4.306  0.9914  0.1806 -0.1526
  234TIP3    H2  646   0.707   2.850   4.192  0.8800  0.0547 -0.1455
  235TIP3   OH2  647   1.161   7.005   4.095  0.2932  0.0687 -0.1637
  235TIP3    H1  648   1.073   7.016   4.059  0.1652  0.6323  0.3051
  235TIP3    H2  649   1.146   6.982   4.187  0.6387  1.1854  0.1830
  236TIP3   OH2  650   1.966   0.630   2.622 -1.0857 -0.3626  0.2382
  236TIP3    H1  651   1.965   0.588   2.708  0.5268 -0.9769 -0.0132
  236TIP3    H2  652   1.996   0.561   2.563 -0.4632  0.5592 -0.5258
  237TIP3   OH2  653   2.642   0.777   3.921 -0.5087  0.4188 -0.1579
  237TIP3    H1  654   2.658   0.856   3.869 -0.4221  0.6495  0.2146
  237TIP3    H2  655   2.717   0.721   3.904  0.2359  1.0887  0.8224
  238TIP3   OH2  656   2.645   0.953   2.914 -0.1102 -0.2258 -0.5134
  238TIP3    H1  657   2.579   0.883   2.917  1.4518 -1.6645  1.0806
  238TIP3    H2  658   2.702   0.928   2.841 -0.8356  0.6060 -1.3860
  239TIP3   OH2  659   3.033   1.901   2.117 -0.8645  0.0112  0.2953
  239TIP3    H1  660   2.991   1.885   2.033 -1.2866 -0.2860  0.5613
  239TIP3    H2  661   3.124   1.920   2.095 -0.1618 -3.3201 -0.0070
  240TIP3   OH2  662   6.556   7.532   2.250  0.3920  0.1407 -0.7011
  240TIP3    H1  663   6.584   7.580   2.328  1.8337  0.8080 -1.5983
  240TIP3    H2  664   6.467   7.563   2.233  0.4893  0.8331  0.0087
  241TIP3   OH2  665   2.884   5.168   2.863  0.1108 -0.2820  0.6430
  241TIP3    H1  666   2.853   5.180   2.953 -0.9270  0.1677  0.2367
  241TIP3    H2  667   2.935   5.088   2.865 -0.0198 -0.3371  1.6121
  242TIP3   OH2  668   4.329   1.666   3.522 -0.5546 -0.4564 -0.0705
  242TIP3    H1  669   4.245   1.642   3.561 -0.4418 -0.6847  0.0354
  242TIP3    H2  670   4.324   1.635   3.432 -0.3612 -0.9990  0.0994
  243TIP3   OH2  671   2.124   0.685   1.769 -0.4743 -0.0241  0.1588
  243TIP3    H1  672   2.030   0.697   1.754 -0.7038 -1.2268  0.5576
  243TIP3    H2  673   2.129   0.637   1.852  0.5591  1.5907  1.0719
  244TIP3   OH2  674   3.392   0.291   1.858  0.6587  0.3720 -0.5665
  244TIP3    H1  675   3.321   0.243   1.902  0.6068  1.1709  0.2453
  244TIP3    H2  676   3.468   0.279   1.915  0.6583  1.1938 -0.3782
  245TIP3   OH2  677   2.074   5.343   3.131  0.0670  0.1664 -0.2504
  245TIP3    H1  678   2.099   5.402   3.202 -1.7665  1.3386 -0.5293
  245TIP3    H2  679   2.109   5.384   3.052  0.7490 -0.3157 -0.2023
  246TIP3   OH2  680   2.884   1.141   3.189  0.1211 -0.6450  0.2760
  246TIP3    H1  681   2.879   1.110   3.279  2.5742 -1.5184  0.1668
  246TIP3    H2  682   2.793   1.155   3.163 -0.6488 -0.9158  2.6852
  247TIP3   OH2  683   3.219   2.232   2.726  0.1669 -0.6759 -0.4046
  247TIP3    H1  684   3.147   2.255   2.667 -0.1571  1.5294  0.7946
  247TIP3    H2  685   3.296   2.270   2.686 -0.4147  2.9999  1.7339
  248TIP3   OH2  686   2.744   0.450   4.194 -0.0700  0.3761  0.6865
  248TIP3    H1  687   2.709   0.505   4.264 -2.3008  0.3526 -0.3451
  248TIP3    H2  688   2.773   0.511   4.126 -0.8167  0.3496  0.3325
  249TIP3   OH2  689   0.185   0.706   1.897 -0.3226  0.0597 -0.1046
  249TIP3    H1  690   0.159   0.614   1.890  0.1885 -0.1750  1.0567
  249TIP3    H2  691   0.228   0.725   1.813 -0.0318 -0.8884 -0.1749
  250TIP3   OH2  692   1.948   2.814   4.227  0.7442  0.4420 -0.0996
  250TIP3    H1  693   1.863   2.822   4.269  0.3045  2.8714 -1.3159
  250TIP3    H2  694   1.945   2.731   4.180 -0.1133 -0.5275  1.6536
  251TIP3   OH2  695   2.416   0.683   2.121  0.3351 -0.0410 -0.4047
  251TIP3    H1  696   2.380   0.760   2.076 -1.6925 -0.3783  0.6073
  251TIP3    H2  697   2.440   0.716   2.208  1.3630 -0.1063 -0.6552
  252TIP3   OH2  698   0.959   1.948   2.801 -0.0873  0.8682  0.2675
  252TIP3    H1  699   0.901   1.923   2.729 -0.3183  0.9353  0.4288
  252TIP3    H2  700   0.908   1.930   2.880  0.3231  0.4060  0.4286
  253TIP3   OH2  701   3.130   2.579   2.110  0.0559  0.5997  0.3835
  253TIP3    H1  702   3.167   2.649   2.164  0.1747 -0.4865  1.7301
  253TIP3    H2  703   3.154   2.498   2.155 -0.4623 -0.3044 -0.9207
  254TIP3   OH2  704   1.621   0.204   0.962  0.3438  0.1553 -0.1886
  254TIP3    H1  705   1.614   0.118   0.920 -1.1946  1.3982 -2.6250
  254TIP3    H2  706   1.531   0.238   0.961  0.5471  0.9440  2.7059
  255TIP3   OH2  707   2.816   0.661   2.406  0.2185 -0.2829 -0.0372
  255TIP3    H1  708   2.779   0.749   2.407 -0.0685 -0.4017 -0.5433
  255TIP3    H2  709   2.809   0.632   2.497  1.1530  0.5682  0.3163
  256TIP3   OH2  710   6.950   6.548   1.860 -0.4675 -0.0595 -0.1474
  256TIP3    H1  711   6.944   6.620   1.797  0.0326 -0.0806 -0.2230
  256TIP3    H2  712   6.964   6.471   1.806 -1.0508 -0.2180 -0.0685
  257TIP3   OH2  713   0.253   7.734   3.705 -0.0306 -0.1250 -0.0725
  257TIP3    H1  714   0.257   7.767   3.615 -0.4174 -0.8856 -0.3713
  257TIP3    H2  715   0.342   7.742   3.737  0.1784 -0.1633 -0.6376
  258TIP3   OH2  716   2.888   2.943   2.939 -0.2748 -0.1445  0.3281
  258TIP3    H1  717   2.970   2.972   2.979  0.2577 -1.4456  0.2280
  258TIP3    H2  718   2.820   2.995   2.982  0.4658 -0.1872  1.5747
  259TIP3   OH2  719   0.872   0.086   1.455  0.7546 -0.0899  0.8730
  259TIP3    H1  720   0.954   0.066   1.410  1.1022  0.7409  1.1261
  259TIP3    H2  721   0.895   0.085   1.548  0.5649  0.5260  0.9282
  260TIP3   OH2  722   1.435   6.028   4.941  0.4583  0.4260 -0.0268
  260TIP3    H1  723   1.514   6.051   4.991 -0.5249  1.1313  1.2124
  260TIP3    H2  724   1.439   6.085   4.864  0.9621  0.7344  0.2251
  261TIP3   OH2  725   2.067   6.984   0.749 -0.4357  0.5000 -0.7479
  261TIP3    H1  726   2.015   6.992   0.669  0.4995 -1.6997 -1.6216
  261TIP3    H2  727   2.023   6.915   0.800  0.0062  0.6131 -0.2012
  262TIP3   OH2  728   4.252   3.869   2.181  0.8101  0.4518  0.2159
  262TIP3    H1  729   4.252   3.858   2.086 -0.4192  2.1950 -0.0125
  262TIP3    H2  730   4.159   3.874   2.204  1.1291  1.9261  1.2497
  263TIP3   OH2  731   2.212   0.521   3.012  0.0575  0.4967  0.1131
  263TIP3    H1  732   2.252   0.573   3.082  1.5381  1.7435 -1.6267
  263TIP3    H2  733   2.285   0.494   2.957 -1.2355  0.7674 -1.7865
  264TIP3   OH2  734   4.684   1.248   1.263  0.1558  0.4322 -0.0953
  264TIP3    H1  735   4.621   1.266   1.193  0.2459 -1.0798 -0.5774
  264TIP3    H2  736   4.632   1.254   1.343 -0.1587  1.2016 -0.3478
  265TIP3   OH2  737   1.398   2.003   3.283  0.5529 -0.3324  0.1771
  265TIP3    H1  738   1.453   2.023   3.358  1.7315 -1.0564 -0.4793
  265TIP3    H2  739   1.453   2.021   3.207 -0.5590  0.2024 -0.5206
  266TIP3   OH2  740   2.081   1.690   1.460  1.0044  0.2143  0.3581
  266TIP3    H1  741   2.137   1.767   1.473 -0.1809  1.0327  0.7097
  266TIP3    H2  742   2.072   1.653   1.548  0.4551  0.4621  0.4044
  267TIP3   OH2  743   3.386   1.246   4.045  0.2067 -0.4893  0.4278
  267TIP3    H1  744   3.389   1.341   4.033 -3.5516 -0.4354 -0.6373
  267TIP3    H2  745   3.413   1.209   3.961  3.5713 -0.4525  1.4238
  268TIP3   OH2  746   2.970   1.520   1.281  0.4652  0.0382  0.1214
  268TIP3    H1  747   2.947   1.478   1.198 -0.8748  1.6689 -0.3578
  268TIP3    H2  748   3.031   1.589   1.256 -1.4495  1.8155  0.2066
  269TIP3   OH2  749   8.502   7.961   3.080  0.2431 -0.3404  0.5589
  269TIP3    H1  750   8.454   7.885   3.049 -1.7732  1.2452 -0.3906
  269TIP3    H2  751   8.465   7.981   3.166  0.5307 -0.2366  0.6618
  270TIP3   OH2  752   8.357   7.306   2.992 -0.6644 -0.0396  0.2148
  270TIP3    H1  753   8.427   7.368   3.013 -0.8968  0.3809 -0.2562
  270TIP3    H2  754   8.319   7.338   2.911  0.8215 -2.1567 -1.3904
  271TIP3   OH2  755   1.873   0.701   1.638 -0.5754  0.0272 -0.5648
  271TIP3    H1  756   1.882   0.786   1.594 -1.4569  0.7958  0.7045
  271TIP3    H2  757   1.779   0.684   1.638 -0.4504 -0.6767 -0.2910
  272TIP3   OH2  758   0.059   2.414   2.704  0.1839 -0.0999 -0.8858
  272TIP3    H1  759   0.001   2.357   2.655  0.1065 -0.8405  0.0730
  272TIP3    H2  760   0.025   2.414   2.793 -0.1391  1.8606 -0.9773
  273TIP3   OH2  761   0.553   1.279   3.275 -0.1277 -0.6023  0.0814
  273TIP3    H1  762   0.539   1.253   3.366  1.4820 -1.5054  0.0945
  273TIP3    H2  763   0.624   1.222   3.245  0.0210  0.3667 -1.4415
  274TIP3   OH2  764   2.390   2.751   1.727 -0.4079 -0.1404  0.4591
  274TIP3    H1  765   2.378   2.816   1.795  2.3401  0.9498 -0.0404
  274TIP3    H2  766   2.451   2.687   1.765  0.2810 -0.1120 -0.5744
  275TIP3   OH2  767   1.137   1.290   3.093 -0.2380  0.4395 -0.2000
  275TIP3    H1  768   1.052   1.300   3.051  0.2777  1.5387 -1.0134
  275TIP3    H2  769   1.195   1.348   3.044  0.4080  1.6932  1.9602
  276TIP3   OH2  770   6.842   7.996   0.634 -0.2479  0.8305 -0.5057
  276TIP3    H1  771   6.845   7.933   0.562  0.6947 -0.7199  0.8479
  276TIP3    H2  772   6.917   8.054   0.620  0.3024  0.1405 -0.4446
  277TIP3   OH2  773   2.355   0.942   1.709 -0.2478  0.2122  0.1659
  277TIP3    H1  774   2.362   1.035   1.687 -2.5594  0.1534 -1.0089
  277TIP3    H2  775   2.313   0.903   1.633 -0.9979 -1.4555  1.4115
  278TIP3   OH2  776   3.972   3.022   0.545  0.5889  0.0322 -0.0550
  278TIP3    H1  777   4.000   2.931   0.546  1.1723  0.1503 -2.6286
  278TIP3    H2  778   3.941   3.037   0.456 -1.0540  1.8911  0.7910
  279TIP3   OH2  779   3.399   1.694   2.153  0.2906  0.3376  0.4335
  279TIP3    H1  780   3.443   1.623   2.200 -0.4297  1.1373  2.3585
  279TIP3    H2  781   3.317   1.654   2.123  1.1494 -0.4243 -0.9221
  280TIP3   OH2  782   0.766   2.663   2.368 -0.0355 -0.3373  0.4873
  280TIP3    H1  783   0.846   2.623   2.334 -0.0143 -0.8253  1.1150
  280TIP3    H2  784   0.723   2.700   2.291  0.7492 -0.1461  0.1350
  281TIP3   OH2  785   2.165   1.151   3.201  0.0298 -0.3719 -1.1180
  281TIP3    H1  786   2.099   1.217   3.224 -1.3452 -1.5944 -1.4721
  281TIP3    H2  787   2.118   1.068   3.207  1.6323 -1.2809 -1.1174
  282TIP3   OH2  788   7.631   7.835   0.805 -0.4622 -0.2640  0.4382
  282TIP3    H1  789   7.637   7.859   0.713 -0.2634 -1.0323  0.2425
  282TIP3    H2  790   7.681   7.902   0.851 -0.0591 -0.2166 -0.0691
  283TIP3   OH2  791   2.067   2.019   2.933 -0.2667 -0.4604 -0.1016
  283TIP3    H1  792   2.089   2.105   2.897  0.7939  0.0609  1.7193
  283TIP3    H2  793   2.064   1.961   2.856  1.8849  0.6231 -1.0639
  284TIP3   OH2  794   6.702   1.393   0.854 -0.6766  0.0738  0.4308
  284TIP3    H1  795   6.613   1.358   0.856 -0.5763 -0.2076  0.0318
  284TIP3    H2  796   6.758   1.316   0.848 -0.5127  0.3486 -1.9560
  285TIP3   OH2  797   6.150   0.849   2.744 -0.7935 -0.0480 -0.4492
  285TIP3    H1  798   6.075   0.836   2.686 -0.7323  0.0161 -0.5423
  285TIP3    H2  799   6.161   0.766   2.789 -0.1686 -0.4434 -1.3156
  286TIP3   OH2  800   7.012   0.129   3.210 -0.4592 -0.2452  0.0326
  286TIP3    H1  801   7.041   0.105   3.123  1.8765  0.7276  0.5114
  286TIP3    H2  802   7.049   0.061   3.267 -0.0245  0.4050  0.5276
  287TIP3   OH2  803   3.206   3.679   1.246  0.0107  0.0925 -0.3644
  287TIP3    H1  804   3.180   3.587   1.245 -0.7923  0.2928  1.0963
  287TIP3    H2  805   3.207   3.705   1.154 -1.5256 -0.8743 -0.6662
  288TIP3   OH2  806   1.837   0.945   2.407  0.0214 -0.3323 -0.0360
  288TIP3    H1  807   1.774   1.015   2.392  0.0742 -0.3269 -0.2354
  288TIP3    H2  808   1.789   0.880   2.459  0.3417  0.4040  1.2063
  289TIP3   OH2  809   0.344   6.939   1.735  0.5999  0.7067  0.1499
  289TIP3    H1  810   0.254   6.972   1.742  0.0352 -0.2196 -2.1750
  289TIP3    H2  811   0.385   6.996   1.670  1.1076 -0.0409 -0.1947
  290TIP3   OH2  812   6.772   6.025   6.137 -0.1690  0.7713  0.0869
  290TIP3    H1  813   6.753   6.026   6.043 -0.6922  1.4460  0.1990
  290TIP3    H2  814   6.859   6.064   6.144 -0.1022  0.6649 -0.1143
  291TIP3   OH2  815   3.706   0.804   1.503 -0.3927 -0.4348 -0.1480
  291TIP3    H1  816   3.714   0.798   1.408  0.8289 -0.9554 -0.0173
  291TIP3    H2  817   3.616   0.777   1.522 -0.9727  0.6640 -1.2338
  292TIP3   OH2  818   3.969   0.049   1.334  0.9458 -0.3847  0.2553
  292TIP3    H1  819   3.925   0.116   1.386  1.0116 -1.2272  1.4144
  292TIP3    H2  820   4.029   0.098   1.278 -0.0492  0.6249  0.0654
  293TIP3   OH2  821   5.070   1.454   0.492 -0.1529  0.0317  0.3081
  293TIP3    H1  822   5.157   1.413   0.497 -0.2607 -0.3730 -0.9440
  293TIP3    H2  823   5.062   1.502   0.575  1.6369  0.8305  0.0591
  294TIP3   OH2  824   3.319   0.392   2.853  0.2275  0.1525 -0.2151
  294TIP3    H1  825   3.301   0.388   2.759 -2.3000  1.2108  0.1946
  294TIP3    H2  826   3.369   0.472   2.864 -1.0716  0.9978 -0.4214
  295TIP3   OH2  827   6.776   4.825   5.678 -0.0951 -0.4647  0.7447
  295TIP3    H1  828   6.792   4.914   5.648 -1.3314 -0.5846 -0.3009
  295TIP3    H2  829   6.862   4.782   5.676 -0.0275 -0.2790 -1.9886
  296TIP3   OH2  830   1.792   1.118   1.063  0.6254 -0.2966  0.2355
  296TIP3    H1  831   1.704   1.146   1.038  0.5460 -0.0620  0.7704
  296TIP3    H2  832   1.803   1.153   1.152  1.8041  0.9056 -0.3677
  297TIP3   OH2  833   3.335   0.837   2.243 -0.3511 -0.2055 -0.0044
  297TIP3    H1  834   3.369   0.832   2.154 -1.4516 -0.7587 -0.3873
  297TIP3    H2  835   3.289   0.920   2.246 -0.3695 -0.2170  0.0334
  298TIP3   OH2  836   2.748   0.244   2.559 -0.3692  0.3507 -0.1249
  298TIP3    H1  837   2.738   0.197   2.642  1.8812 -0.3944 -0.2235
  298TIP3    H2  838   2.694   0.195   2.497  0.2495 -0.8503  0.2611
  299TIP3   OH2  839   5.438   0.413   3.575 -0.4360  0.2920 -0.2198
  299TIP3    H1  840   5.421   0.506   3.592  0.1165  0.2607  0.4968
  299TIP3    H2  841   5.519   0.413   3.524 -0.7592  0.2351 -0.7404
  300TIP3   OH2  842   3.637   2.101   1.550  0.2072  0.0010 -0.6210
  300TIP3    H1  843   3.581   2.122   1.625 -0.7927  0.2623 -1.4330
  300TIP3    H2  844   3.592   2.140   1.475  1.0435 -0.5267 -1.4005
  301TIP3   OH2  845   4.058   1.349   1.806 -0.1401 -0.7033 -0.4274
  301TIP3    H1  846   3.998   1.373   1.735  0.3375 -0.3084 -0.7034
  301TIP3    H2  847   4.054   1.253   1.809 -0.5192 -0.6970 -0.6753
  302TIP3   OH2  848   4.181   0.546   1.775 -0.7235 -0.1345  0.0343
  302TIP3    H1  849   4.089   0.529   1.758 -0.7414 -1.0232  0.9255
  302TIP3    H2  850   4.221   0.458   1.781 -0.3014  0.1539  2.1085
  303TIP3   OH2  851   2.582   3.759   1.287  0.3372 -0.1574 -0.1192
  303TIP3    H1  852   2.567   3.809   1.207 -0.5557 -0.2033  0.0081
  303TIP3    H2  853   2.662   3.796   1.324 -1.0849  2.1705  0.7080
  304TIP3   OH2  854   4.040   0.854   1.166  0.4386  0.0841  0.0273
  304TIP3    H1  855   4.061   0.921   1.101  0.0735 -0.9202 -1.1400
  304TIP3    H2  856   4.106   0.865   1.234  0.6928  1.2889 -0.4088
  305TIP3   OH2  857   3.335   1.972   1.096  0.8001  0.5079  0.1187
  305TIP3    H1  858   3.388   1.953   1.174  1.5705  0.3417 -0.4325
  305TIP3    H2  859   3.250   2.000   1.130  0.4575 -1.5236  0.9896
  306TIP3   OH2  860   6.849   0.215   1.160 -0.2517  0.1283  1.0841
  306TIP3    H1  861   6.924   0.272   1.178  1.1413 -0.6913 -1.6922
  306TIP3    H2  862   6.868   0.179   1.073 -1.8432 -3.3772  2.1382
  307TIP3   OH2  863   1.122   7.579   1.626 -0.2626 -0.1541 -0.2475
  307TIP3    H1  864   1.151   7.512   1.564 -1.1597 -0.7532 -0.0184
  307TIP3    H2  865   1.064   7.635   1.574  0.6259  0.5654 -0.4872
  308TIP3   OH2  866   4.081   4.477   1.063  0.2649 -0.7299 -0.2356
  308TIP3    H1  867   4.174   4.498   1.055  0.8884 -2.3309  2.4138
  308TIP3    H2  868   4.037   4.562   1.059  1.8349  0.0554 -1.2439
  309TIP3   OH2  869   8.261   4.420   5.301 -0.1405 -0.1119 -0.4347
  309TIP3    H1  870   8.354   4.417   5.324  0.1511  1.0235 -1.3981
  309TIP3    H2  871   8.218   4.367   5.368  0.9728  1.0002  1.1991
  310TIP3   OH2  872   3.612   3.077   1.684  0.0444  0.1508 -0.0672
  310TIP3    H1  873   3.636   3.120   1.766  0.3109  1.0375 -0.6047
  310TIP3    H2  874   3.686   3.093   1.626 -0.1145 -0.5360 -0.4606
  311TIP3   OH2  875   3.907   0.453   3.160  0.2301 -0.2664 -0.6369
  311TIP3    H1  876   3.887   0.407   3.079  0.4102 -0.5483 -0.5210
  311TIP3    H2  877   3.985   0.409   3.194  0.8082  0.5641 -0.8834
  312TIP3   OH2  878   3.053   2.998   1.179 -0.9596  0.5391  0.2284
  312TIP3    H1  879   3.089   3.033   1.097 -0.8872  1.2855  0.5759
  312TIP3    H2  880   3.066   2.904   1.173  0.2842  0.7268 -0.0161
  313TIP3   OH2  881   7.251   3.562   5.855 -0.1736  0.4175 -0.2412
  313TIP3    H1  882   7.255   3.649   5.815 -0.5589  0.2761 -0.5851
  313TIP3    H2  883   7.343   3.537   5.867 -0.0637  0.9662  0.0702
  314TIP3   OH2  884   2.809   0.040   5.172  0.0583  0.1942 -0.1175
  314TIP3    H1  885   2.814  -0.048   5.209 -1.1195  0.1708 -0.0065
  314TIP3    H2  886   2.894   0.053   5.130  0.3251 -0.9015  0.0706
  315TIP3   OH2  887   0.979   6.758   1.599 -0.5238  0.4611 -0.4841
  315TIP3    H1  888   0.960   6.733   1.689 -0.8208  1.1189 -0.3594
  315TIP3    H2  889   1.074   6.762   1.594 -0.3863 -2.5401 -1.0204
  316TIP3   OH2  890   3.690   1.124   0.023 -0.4749  0.5348 -0.1772
  316TIP3    H1  891   3.758   1.178   0.062 -0.1612  0.2423 -0.3184
  316TIP3    H2  892   3.684   1.047   0.080 -0.5975  0.5030 -0.2327
  317TIP3   OH2  893   4.915   1.925   2.226 -0.0123 -0.2552 -0.5267
  317TIP3    H1  894   4.910   1.976   2.306  1.5293  0.1811 -0.6771
  317TIP3    H2  895   4.830   1.936   2.184  0.3191  2.3076 -0.6095
  318TIP3   OH2  896   4.363   1.516   0.119  0.6713  0.5938  0.2849
  318TIP3    H1  897   4.308   1.454   0.071  0.6776  0.2660  0.6939
  318TIP3    H2  898   4.342   1.500   0.211 -0.4923  2.2975  0.3446
  319TIP3   OH2  899   3.696   1.171   1.071  0.6354  0.0306  0.3069
  319TIP3    H1  900   3.619   1.126   1.106 -1.8174  3.1701 -0.8907
  319TIP3    H2  901   3.711   1.129   0.986 -0.6195  0.3698 -0.0846
  320TIP3   OH2  902   0.346   7.870   1.423  0.1592  0.0237 -0.3522
  320TIP3    H1  903   0.432   7.830   1.415  0.5242  0.7997 -0.4321
  320TIP3    H2  904   0.357   7.934   1.494 -0.7267 -0.8408  0.5819
  321TIP3   OH2  905   1.671   7.574   1.151  0.3152 -0.0502 -0.0615
  321TIP3    H1  906   1.698   7.636   1.219  0.9602 -0.9746  0.5394
  321TIP3    H2  907   1.663   7.490   1.197  0.2815 -0.5794 -1.0238
  322TIP3   OH2  908   3.224   2.259   0.923 -0.4565  0.0800 -0.0027
  322TIP3    H1  909   3.219   2.202   1.000  0.7579  0.6690  0.5237
  322TIP3    H2  910   3.237   2.200   0.849 -2.1996 -0.5377  0.1611
  323TIP3   OH2  911   2.030   0.909   2.037  0.2971 -0.2388  0.4160
  323TIP3    H1  912   2.035   0.883   2.129 -0.6361 -0.8688  0.2908
  323TIP3    H2  913   2.043   1.004   2.039  0.6747 -0.2961  1.1598
  324TIP3   OH2  914   7.613   3.795   6.080  0.0803  0.5023 -0.7020
  324TIP3    H1  915   7.662   3.877   6.077  0.7423  0.0822 -1.7724
  324TIP3    H2  916   7.664   3.734   6.026 -0.7359 -0.4290 -0.4487
  325TIP3   OH2  917   4.303   0.602   3.776  0.4427 -0.0582  0.0550
  325TIP3    H1  918   4.368   0.654   3.822  2.4647 -1.0263 -1.6450
  325TIP3    H2  919   4.344   0.579   3.693 -1.2195 -2.5542 -0.1433
  326TIP3   OH2  920   4.587   7.728   6.831  0.2595  0.5237  0.1776
  326TIP3    H1  921   4.680   7.712   6.817  0.6816  2.1659  0.9918
  326TIP3    H2  922   4.560   7.663   6.895  0.3385 -1.3549 -1.6685
  327TIP3   OH2  923   5.900   0.255   0.710  0.3936 -0.0643  0.6401
  327TIP3    H1  924   5.819   0.238   0.662  0.8142 -0.8244  0.1831
  327TIP3    H2  925   5.945   0.320   0.656 -0.0843  0.6438  1.0926
  328TIP3   OH2  926   3.746   1.421   0.954  0.7443 -0.1482 -0.9903
  328TIP3    H1  927   3.677   1.429   0.888 -0.3860  0.3096  0.2263
  328TIP3    H2  928   3.724   1.340   1.001  1.4651 -0.3948 -1.0706
  329TIP3   OH2  929   8.470   1.055   6.864  0.2449 -0.0937 -0.3257
  329TIP3    H1  930   8.415   0.980   6.841  0.5162 -0.0079 -1.2684
  329TIP3    H2  931   8.530   1.064   6.790  1.7552 -0.4055  0.8559
  330TIP3   OH2  932   3.465   3.540   1.345 -0.4639  0.3713 -0.3430
  330TIP3    H1  933   3.450   3.495   1.429  0.1273 -0.8629 -0.8850
  330TIP3    H2  934   3.381   3.581   1.324 -1.0210 -0.5118  0.1532
  331TIP3   OH2  935   4.368   3.080   0.944 -0.2634  0.2818 -0.2013
  331TIP3    H1  936   4.279   3.114   0.952 -0.5751 -0.1646 -1.7678
  331TIP3    H2  937   4.372   3.039   0.858  0.6990 -1.9269  0.8297
  332TIP3   OH2  938   3.399   0.738   0.509  0.3882 -0.3559 -0.0508
  332TIP3    H1  939   3.357   0.703   0.431  0.6871 -0.6571 -0.0772
  332TIP3    H2  940   3.335   0.725   0.579  0.1811 -0.2234 -0.2136
  333TIP3   OH2  941   1.368   7.911   2.864  0.0779 -0.1311  0.5723
  333TIP3    H1  942   1.410   7.937   2.782  1.1929  0.2780  1.2643
  333TIP3    H2  943   1.390   7.819   2.875  0.6663  0.0440  0.8577
  334TIP3   OH2  944   0.618   7.096   0.626  0.3155  0.2338 -0.0734
  334TIP3    H1  945   0.587   7.007   0.640  0.7371  0.0365 -0.3727
  334TIP3    H2  946   0.713   7.090   0.639  0.3869  0.5655 -0.4325
  335TIP3   OH2  947   3.636   0.573   1.783  0.0487 -0.4891  0.9998
  335TIP3    H1  948   3.664   0.507   1.719  0.0657 -0.4932  1.0114
  335TIP3    H2  949   3.550   0.543   1.811 -0.0597 -0.3623  0.8069
  336TIP3   OH2  950   4.527   0.484   1.854 -0.0825 -0.2912 -0.2379
  336TIP3    H1  951   4.452   0.473   1.913  0.3305  0.7715  0.4857
  336TIP3    H2  952   4.597   0.435   1.896  0.2497  0.5778  0.2252
  337TIP3   OH2  953   1.152   7.737   2.357  0.2089 -0.1925 -0.2423
  337TIP3    H1  954   1.131   7.814   2.304  1.3576 -0.4353 -1.0594
  337TIP3    H2  955   1.067   7.697   2.376 -0.2355  0.0886 -1.6102
  338TIP3   OH2  956   3.394   2.398   1.165  0.4447  0.1102  0.0488
  338TIP3    H1  957   3.353   2.420   1.081  0.8863  0.9737  0.0559
  338TIP3    H2  958   3.322   2.365   1.219 -0.0747  0.7519 -0.2412
  339TIP3   OH2  959   3.801   1.051   0.365 -0.4274 -0.2083  0.0936
  339TIP3    H1  960   3.713   1.081   0.344 -0.5690  1.0999  2.4364
  339TIP3    H2  961   3.788   0.965   0.404 -0.3630 -1.4919 -2.5943
  340TIP3   OH2  962   3.582   0.186   2.832 -0.3628 -0.5591 -0.5766
  340TIP3    H1  963   3.498   0.223   2.861 -0.3804 -1.9084  1.2105
  340TIP3    H2  964   3.557   0.111   2.779 -0.3290 -2.1104  1.5228
  341TIP3   OH2  965   5.307   2.692   2.614 -0.6403  0.4533 -0.6313
  341TIP3    H1  966   5.273   2.686   2.524 -1.6407  1.9140 -0.3862
  341TIP3    H2  967   5.254   2.762   2.654  0.1363  0.1567  0.9392
  342TIP3   OH2  968   8.456   7.781   1.210  0.0143  0.6150 -0.0464
  342TIP3    H1  969   8.480   7.734   1.290 -1.5787  0.4939  0.3750
  342TIP3    H2  970   8.408   7.717   1.158  0.9773  0.7189 -1.0793
  343TIP3   OH2  971   4.014   1.979   2.190 -0.0655  0.2201  0.5207
  343TIP3    H1  972   4.091   1.997   2.137 -0.4840  1.1046  0.1927
  343TIP3    H2  973   4.048   1.956   2.276  0.5899 -0.3094  0.1176
  344TIP3   OH2  974   2.499   2.142   3.652 -0.3798  0.2745  0.0813
  344TIP3    H1  975   2.487   2.132   3.557  3.1440  0.8923 -0.5014
  344TIP3    H2  976   2.524   2.233   3.663  1.7953 -0.4404  1.2865
  345TIP3   OH2  977   0.293   7.645   1.618 -0.1642 -1.0003 -0.2549
  345TIP3    H1  978   0.272   7.575   1.679  0.0080 -0.5613  0.3076
  345TIP3    H2  979   0.376   7.618   1.578  0.2418 -0.7914  0.4476
  346TIP3   OH2  980   5.452   1.567   4.050 -0.1306 -0.4308  0.3705
  346TIP3    H1  981   5.432   1.656   4.023 -1.3547 -1.2008 -1.3134
  346TIP3    H2  982   5.548   1.561   4.044 -0.3160 -0.5406 -3.8443
  347TIP3   OH2  983   2.840   1.334   0.229  0.4036  0.3092  0.1543
  347TIP3    H1  984   2.876   1.420   0.207  0.6582 -0.1462 -1.2662
  347TIP3    H2  985   2.917   1.277   0.237  0.2720  0.3026  1.6058
  348TIP3   OH2  986   2.166   1.877   2.276 -0.4765 -0.7633 -0.0040
  348TIP3    H1  987   2.074   1.867   2.302 -0.3799 -0.1362  0.6010
  348TIP3    H2  988   2.189   1.966   2.305 -0.7831  0.5224 -3.4830
  349TIP3   OH2  989   2.292   0.607   2.596  0.2615 -0.3603  0.3576
  349TIP3    H1  990   2.272   0.636   2.507 -0.2029 -1.2637  0.1631
  349TIP3    H2  991   2.366   0.549   2.586  0.8683  0.3479  0.6900
  350TIP3   OH2  992   1.916   7.390   0.861  0.1502  0.2206 -0.2372
  350TIP3    H1  993   1.979   7.410   0.792  1.4836 -0.8915  0.6147
  350TIP3    H2  994   1.832   7.385   0.817  0.9188 -0.0214 -1.7021
  351TIP3   OH2  995   3.628   1.526   1.476 -0.3602 -0.6137 -0.1247
  351TIP3    H1  996   3.655   1.542   1.567  0.0415  0.2512 -0.3934
  351TIP3    H2  997   3.539   1.491   1.484 -0.1715 -0.9277  0.6268
  352TIP3   OH2  998   3.758   2.006   0.481 -0.2282  0.1573 -0.2632
  352TIP3    H1  999   3.676   2.050   0.501 -0.3341 -0.1928  0.0822
  352TIP3    H2 1000   3.786   1.968   0.564 -1.5760 -2.8122 -1.0825
  353TIP3   OH2 1001   4.340   5.280   0.481 -0.6813  0.2371 -0.3486
  353TIP3    H1 1002   4.262   5.225   0.472 -1.1937  0.9059 -0.0663
  353TIP3    H2 1003   4.348   5.325   0.397  0.0046 -0.5987 -0.7441
  354TIP3   OH2 1004   3.237   3.843   3.469  0.4429 -0.2352 -0.7664
  354TIP3    H1 1005   3.151   3.824   3.432  1.5048 -0.9484 -2.9898
  354TIP3    H2 1006   3.286   3.882   3.396  1.2444  2.5454  1.1420
  355TIP3   OH2 1007   6.272   6.228   6.691 -0.0042 -0.1144 -0.5071
  355TIP3    H1 1008   6.276   6.221   6.596  0.0032  1.4453 -0.6266
  355TIP3    H2 1009   6.195   6.283   6.708  1.7465  2.1699  0.2615
  356TIP3   OH2 1010   0.132   7.879   1.650 -0.4041 -0.0481  0.0259
  356TIP3    H1 1011   0.099   7.891   1.561 -0.7887 -0.4299  0.1132
  356TIP3    H2 1012   0.193   7.805   1.643  0.5507  0.7540 -0.1642
  357TIP3   OH2 1013   0.961   7.143   2.110  0.6130  0.0163 -0.7200
  357TIP3    H1 1014   0.882   7.109   2.069  0.3187 -1.4332  0.9877
  357TIP3    H2 1015   0.985   7.219   2.057 -0.3938 -1.1044 -2.8383
  358TIP3   OH2 1016   4.122   1.149   2.479  0.6028 -0.0048 -0.3798
  358TIP3    H1 1017   4.194   1.211   2.489  0.1418  0.4209  0.3159
  358TIP3    H2 1018   4.065   1.165   2.554  0.2153 -0.9222 -0.4654
  359TIP3   OH2 1019   3.988   3.615   0.568 -0.5526 -0.2376 -0.2930
  359TIP3    H1 1020   4.045   3.646   0.498 -0.0024 -3.3227 -1.2693
  359TIP3    H2 1021   3.924   3.685   0.579  2.0024  2.2667 -0.7694
  360TIP3   OH2 1022   5.674   2.388   3.552 -0.0366  0.4882  0.0081
  360TIP3    H1 1023   5.632   2.453   3.608  0.3303  0.6191  0.1326
  360TIP3    H2 1024   5.610   2.370   3.483 -1.1698 -0.9073  1.3883
  361TIP3   OH2 1025   6.818   3.876   6.515 -0.2758  0.1089  0.1850
  361TIP3    H1 1026   6.835   3.782   6.505 -0.0714  0.1642  0.0058
  361TIP3    H2 1027   6.849   3.915   6.433  1.2606  0.5573  0.9669
  362TIP3   OH2 1028   3.247   2.379   2.239  0.0407 -0.2256  0.0519
  362TIP3    H1 1029   3.317   2.329   2.199 -0.0993 -0.9268  0.6689
  362TIP3    H2 1030   3.292   2.449   2.288  0.1473  1.7178 -2.7112
  363TIP3   OH2 1031   2.336   0.172   0.211  0.2587  0.0027  0.0172
  363TIP3    H1 1032   2.390   0.181   0.133  1.1187 -2.0789  0.3242
  363TIP3    H2 1033   2.251   0.143   0.178  0.5910 -0.7790 -0.1664
  364TIP3   OH2 1034   3.796   2.949   1.203 -0.6044 -0.3974  0.4588
  364TIP3    H1 1035   3.715   2.898   1.204 -0.4233 -0.7430 -0.8187
  364TIP3    H2 1036   3.858   2.898   1.254 -0.9472 -0.5574  0.7160
  365TIP3   OH2 1037   1.577   2.124   0.500 -0.0475 -0.1624  0.3466
  365TIP3    H1 1038   1.543   2.202   0.545  2.2449  0.1255  1.6647
  365TIP3    H2 1039   1.600   2.064   0.571 -0.7458 -1.6092 -0.6391
  366TIP3   OH2 1040   3.533   0.198   1.499  0.1091  0.3179  0.1056
  366TIP3    H1 1041   3.459   0.174   1.555  0.5612 -0.3009  0.4422
  366TIP3    H2 1042   3.602   0.137   1.523  0.9057  1.2249  0.1537
  367TIP3   OH2 1043   3.645   0.636   0.775 -0.8269 -0.5412 -0.0070
  367TIP3    H1 1044   3.719   0.697   0.771  0.1895 -1.7280  0.3625
  367TIP3    H2 1045   3.574   0.688   0.812  0.1755  0.2964  0.8010
  368TIP3   OH2 1046   6.607   5.825   6.905  0.1017 -0.3066 -0.5678
  368TIP3    H1 1047   6.636   5.880   6.832 -0.7458  1.6613  0.5452
  368TIP3    H2 1048   6.679   5.763   6.918  1.8598  1.6402 -0.7482
  369TIP3   OH2 1049   1.098   7.931   0.566 -0.1479  0.1345 -0.1010
  369TIP3    H1 1050   1.099   8.008   0.511  1.3276 -0.6861 -1.2664
  369TIP3    H2 1051   1.179   7.884   0.544 -1.8004 -2.5914 -0.6436
  370TIP3   OH2 1052   5.978   4.799   6.467 -0.3882  0.4651  0.4394
  370TIP3    H1 1053   6.063   4.841   6.458 -0.1919 -0.3031 -1.4884
  370TIP3    H2 1054   5.935   4.846   6.539  1.5126  1.0758  1.2003
  371TIP3   OH2 1055   4.313   3.452   1.557  0.1499  0.4883  0.0453
  371TIP3    H1 1056   4.221   3.440   1.534 -0.2809  0.7584  1.6095
  371TIP3    H2 1057   4.331   3.384   1.622  1.3801 -0.3089 -1.1022
  372TIP3   OH2 1058   3.198   3.231   1.404 -0.0566  0.6460  0.3659
  372TIP3    H1 1059   3.209   3.231   1.499 -1.6198 -0.6149  0.5557
  372TIP3    H2 1060   3.247   3.155   1.373  1.1467  1.5258  0.0580
  373TIP3   OH2 1061   1.952   0.031   1.435  0.1297  0.1580 -0.6974
  373TIP3    H1 1062   2.010   0.091   1.390 -0.0721 -0.0312 -1.2130
  373TIP3    H2 1063   1.924  -0.030   1.367 -0.5829  0.1853 -0.4275
  374TIP3   OH2 1064   4.270   0.615   0.906 -0.4019 -0.5719 -0.7994
  374TIP3    H1 1065   4.236   0.579   0.987  1.4279 -2.1427 -0.6963
  374TIP3    H2 1066   4.192   0.637   0.854 -1.6029 -4.0010 -0.5700
  375TIP3   OH2 1067   7.501   7.879   0.531 -0.6064 -0.5563  0.5502
  375TIP3    H1 1068   7.418   7.875   0.484 -0.1045 -1.0841 -0.3163
  375TIP3    H2 1069   7.564   7.906   0.465 -0.0407 -0.4654  1.1281
  376TIP3   OH2 1070   1.105   7.950   2.150  0.1786 -0.1426  0.1625
  376TIP3    H1 1071   1.070   8.012   2.086 -2.1881 -1.9190 -0.3280
  376TIP3    H2 1072   1.110   7.867   2.101  2.4729 -0.5556  1.0487
  377TIP3   OH2 1073   6.996   4.135   5.103  0.1333  0.8275 -0.6399
  377TIP3    H1 1074   7.035   4.219   5.127  0.3177  0.5072  0.2125
  377TIP3    H2 1075   6.935   4.156   5.032  0.7701  1.5520 -0.9823
  378TIP3   OH2 1076   4.004   2.614   1.747  0.6848  0.0841  0.3567
  378TIP3    H1 1077   3.955   2.629   1.828  2.4417  1.0547  1.2810
  378TIP3    H2 1078   3.940   2.579   1.686 -1.3714  2.1476  1.2501
  379TIP3   OH2 1079   3.871   0.267   0.747  0.0624  0.6110 -0.5898
  379TIP3    H1 1080   3.895   0.281   0.839 -0.1201  2.1583 -0.7749
  379TIP3    H2 1081   3.809   0.194   0.749  0.6736  0.1072  0.4275
  380TIP3   OH2 1082   3.182   7.285   0.883  1.1077 -0.1436  0.4420
  380TIP3    H1 1083   3.150   7.349   0.946 -2.5117  0.1533 -1.5956
  380TIP3    H2 1084   3.151   7.200   0.916 -1.1476  0.0541 -1.0805
  381TIP3   OH2 1085   5.482   4.795   6.051 -0.0298 -0.3374 -0.4534
  381TIP3    H1 1086   5.442   4.839   5.975 -2.3803 -1.0406  0.3410
  381TIP3    H2 1087   5.469   4.856   6.123  0.6610 -0.4223 -0.2566
  382TIP3   OH2 1088   5.535   1.373   0.439 -0.3297 -0.2181  0.1481
  382TIP3    H1 1089   5.531   1.434   0.365  0.1350  0.1063  0.3839
  382TIP3    H2 1090   5.604   1.311   0.416 -0.9540 -0.7967 -0.1910
  383TIP3   OH2 1091   3.630   0.289   3.180 -0.1347  0.4087 -0.2512
  383TIP3    H1 1092   3.660   0.314   3.267 -1.0515  0.4749  0.0546
  383TIP3    H2 1093   3.696   0.323   3.121  1.2505 -0.8616  0.5096
  384TIP3   OH2 1094   4.242   1.622   1.530  0.1197 -0.2123  0.7623
  384TIP3    H1 1095   4.173   1.655   1.587  0.3557 -0.7745  1.3869
  384TIP3    H2 1096   4.279   1.700   1.489 -1.3789  0.0285 -0.1498
  385TIP3   OH2 1097   3.762   2.354   1.245 -0.0483 -0.5090 -0.4956
  385TIP3    H1 1098   3.738   2.369   1.154  0.7702 -0.5002 -0.7179
  385TIP3    H2 1099   3.839   2.409   1.259 -0.2853 -0.3552  0.2617
  386TIP3   OH2 1100   2.671   1.249   3.480 -0.1139 -0.3099  0.0720
  386TIP3    H1 1101   2.700   1.289   3.563 -0.9675 -1.9884  1.2181
  386TIP3    H2 1102   2.719   1.166   3.476  0.1748 -0.0765 -1.2930
  387TIP3   OH2 1103   2.141   3.614   1.201 -0.1139 -0.4220  0.5207
  387TIP3    H1 1104   2.148   3.535   1.254  0.2672 -1.7417 -1.4693
  387TIP3    H2 1105   2.209   3.605   1.134 -0.5041  1.2745 -0.1475
  388TIP3   OH2 1106   2.385   4.139   3.925 -0.2429  0.3303  0.6629
  388TIP3    H1 1107   2.474   4.107   3.912 -0.4438 -0.2104  0.5945
  388TIP3    H2 1108   2.359   4.173   3.840 -0.9490 -1.6683  0.0495
  389TIP3   OH2 1109   4.964   2.503   2.043  0.0630  0.6281  0.5830
  389TIP3    H1 1110   4.990   2.411   2.032  2.1580  1.4022 -1.5826
  389TIP3    H2 1111   4.962   2.537   1.954 -1.5240  2.5030  1.3037
  390TIP3   OH2 1112   2.561   1.422   1.323  0.1708 -0.2161  0.5503
  390TIP3    H1 1113   2.504   1.487   1.365 -0.2441 -0.7260  0.7775
  390TIP3    H2 1114   2.597   1.373   1.396 -0.4017 -0.9818  0.3216
  391TIP3   OH2 1115   3.756   2.032   2.275 -0.1499  0.2079 -0.0175
  391TIP3    H1 1116   3.726   1.959   2.220  1.2506 -0.4985  0.1419
  391TIP3    H2 1117   3.847   2.045   2.249  0.5114 -0.1040  2.1155
  392TIP3   OH2 1118   3.038   1.066   0.131  0.1740  0.6022 -0.9538
  392TIP3    H1 1119   3.116   1.041   0.082  0.6163  0.4890 -0.1921
  392TIP3    H2 1120   2.966   1.048   0.070  0.6217 -0.6622 -1.1467
  393TIP3   OH2 1121   3.611   1.284   0.743  0.5403  0.6266 -0.2569
  393TIP3    H1 1122   3.585   1.192   0.742  0.2778  0.6711  0.9723
  393TIP3    H2 1123   3.704   1.283   0.720 -0.1879  0.3449 -3.3163
  394TIP3   OH2 1124   3.698   3.691   0.259  0.2190  0.5205 -0.2124
  394TIP3    H1 1125   3.769   3.745   0.294  0.6298  1.7601 -2.8501
  394TIP3    H2 1126   3.663   3.742   0.186 -0.9547 -1.7560 -1.2754
  395TIP3   OH2 1127   2.471   1.449   2.143 -0.1878 -0.2925  0.3012
  395TIP3    H1 1128   2.488   1.396   2.065 -0.3694  0.6085 -0.3552
  395TIP3    H2 1129   2.519   1.405   2.213  0.2910 -0.8921 -0.4011
  396TIP3   OH2 1130   0.953   7.956   2.809  0.5841 -0.0258  0.1045
  396TIP3    H1 1131   0.883   7.898   2.780  1.6083 -1.2434  0.0452
  396TIP3    H2 1132   0.916   8.004   2.883 -0.2726 -0.7287  0.1363
  397TIP3   OH2 1133   2.834   1.948   1.743 -0.1150 -0.5928  0.3852
  397TIP3    H1 1134   2.775   1.876   1.721 -0.5094 -0.5281  1.2279
  397TIP3    H2 1135   2.783   2.027   1.727  0.6310 -0.4580 -1.4682
  398TIP3   OH2 1136   4.311   2.284   1.416 -0.3194 -0.1433  0.0894
  398TIP3    H1 1137   4.256   2.252   1.487 -1.4680  0.8340 -0.3595
  398TIP3    H2 1138   4.332   2.374   1.440  2.6228 -1.0204  1.1661
  399TIP3   OH2 1139   4.272   2.702   2.800 -0.1877 -0.4018 -0.7075
  399TIP3    H1 1140   4.352   2.679   2.752  0.8601 -0.2835  0.9205
  399TIP3    H2 1141   4.247   2.622   2.846 -0.6002 -0.2347 -0.6379
  400TIP3   OH2 1142   3.801   2.281   0.765 -0.2056  0.0352  0.2669
  400TIP3    H1 1143   3.823   2.312   0.678 -0.2769  0.8774  0.5429
  400TIP3    H2 1144   3.762   2.195   0.751  0.4194 -0.1296 -0.4710
  401TIP3   OH2 1145   4.864   2.355   4.272 -0.2301  0.0512 -0.2911
  401TIP3    H1 1146   4.846   2.302   4.350 -1.4352  0.2812 -0.4081
  401TIP3    H2 1147   4.826   2.441   4.291 -0.3281  0.1784 -1.0311
  402TIP3   OH2 1148   3.875   0.114   1.952 -0.1129  0.2485 -0.6516
  402TIP3    H1 1149   3.891   0.207   1.934  2.2434 -0.1535 -0.7471
  402TIP3    H2 1150   3.881   0.071   1.867 -0.9032 -0.0444 -0.5649
  403TIP3   OH2 1151   2.815   0.506   2.668  0.2344  0.3047 -0.0868
  403TIP3    H1 1152   2.782   0.439   2.608 -1.5455  0.9857  0.1228
  403TIP3    H2 1153   2.807   0.467   2.754 -0.1065  0.4966 -0.0300
  404TIP3   OH2 1154   4.182   1.018   2.255 -0.6327  0.1876 -0.4239
  404TIP3    H1 1155   4.142   1.064   2.329 -1.9134  2.1431 -2.2767
  404TIP3    H2 1156   4.127   0.941   2.242 -1.1738  0.5275 -0.1636
  405TIP3   OH2 1157   4.055   3.069   2.427 -0.2959 -0.2393 -0.4011
  405TIP3    H1 1158   4.079   3.003   2.491 -2.5957 -0.8811 -0.1650
  405TIP3    H2 1159   4.133   3.078   2.371 -0.3470 -4.0036 -1.2023
  406TIP3   OH2 1160   4.390   3.258   0.643  0.2401  0.2300  0.1309
  406TIP3    H1 1161   4.377   3.171   0.680  0.1901  0.5978  0.9897
  406TIP3    H2 1162   4.401   3.315   0.719  1.6279  0.7677 -0.4550
  407TIP3   OH2 1163   1.278   7.597   0.655 -0.7289  0.4766 -0.2399
  407TIP3    H1 1164   1.223   7.525   0.625  0.8252 -0.7604 -0.2141
  407TIP3    H2 1165   1.261   7.668   0.593 -1.9122 -0.0863 -0.5632
  408TIP3   OH2 1166   2.928   1.426   3.209  0.1096  0.8307 -0.7952
  408TIP3    H1 1167   2.926   1.447   3.303 -0.0071  1.3288 -0.9096
  408TIP3    H2 1168   2.900   1.334   3.205 -0.0328  0.8524 -0.3535
  409TIP3   OH2 1169   3.815   0.320   2.947 -0.1997  1.2111 -0.3688
  409TIP3    H1 1170   3.756   0.256   2.909 -0.0419  1.3804 -0.9065
  409TIP3    H2 1171   3.807   0.397   2.890 -1.1075  2.0169  0.8145
  410TIP3   OH2 1172   5.097   0.668   2.661 -0.5768 -0.0420 -0.4213
  410TIP3    H1 1173   5.097   0.730   2.734 -1.3816 -0.1784 -0.3030
  410TIP3    H2 1174   5.127   0.719   2.586 -1.7823  0.6329 -0.4475
  411TIP3   OH2 1175   2.634   1.785   2.834 -0.5866  0.1179 -0.7461
  411TIP3    H1 1176   2.652   1.876   2.808 -2.3840  0.4775 -0.8193
  411TIP3    H2 1177   2.540   1.775   2.820 -0.3967 -1.7763 -0.7409
  412TIP3   OH2 1178   1.824   1.290   3.000 -0.4323  0.2661 -0.0742
  412TIP3    H1 1179   1.819   1.267   3.093  1.0374 -1.1488 -0.3278
  412TIP3    H2 1180   1.850   1.209   2.956 -1.3447  0.8476 -1.7622
  413TIP3   OH2 1181   0.393   7.272   1.356  0.0424  0.4627  0.2112
  413TIP3    H1 1182   0.468   7.326   1.330 -0.4152  0.9311 -0.1649
  413TIP3    H2 1183   0.317   7.318   1.319 -0.2352 -1.1829 -1.3017
  414TIP3   OH2 1184   2.957   2.087   0.423  0.0870  0.4661 -0.4946
  414TIP3    H1 1185   3.051   2.103   0.424 -0.2633  2.5531  0.0769
  414TIP3    H2 1186   2.935   2.078   0.331  1.0702 -1.5117 -0.5611
  415TIP3   OH2 1187   2.229   1.790   1.977 -0.8128 -0.2198  0.8173
  415TIP3    H1 1188   2.194   1.729   2.042 -2.4758  0.3122  0.4337
  415TIP3    H2 1189   2.152   1.824   1.932  0.3968 -1.9066 -2.6651
  416TIP3   OH2 1190   2.174   3.229   0.105  0.0945  0.9129 -0.5557
  416TIP3    H1 1191   2.141   3.274   0.183  2.3699  0.3672  0.7808
  416TIP3    H2 1192   2.260   3.268   0.090  1.6204 -2.1352 -0.0652
  417TIP3   OH2 1193   2.800   1.652   1.425  0.3988 -0.4446  0.5660
  417TIP3    H1 1194   2.870   1.599   1.385  1.3464  0.4738  0.9823
  417TIP3    H2 1195   2.729   1.649   1.361  0.9672 -1.0722 -0.0535
  418TIP3   OH2 1196   5.372   7.177   6.077  0.2353 -0.0336 -0.6569
  418TIP3    H1 1197   5.337   7.163   5.989  0.2517 -0.8726 -0.5380
  418TIP3    H2 1198   5.467   7.182   6.065  0.1654  0.9208 -0.8167
  419TIP3   OH2 1199   3.271   1.263   3.377  0.1547 -0.1917  0.6737
  419TIP3    H1 1200   3.213   1.192   3.351 -1.0453  1.1716 -0.4403
  419TIP3    H2 1201   3.356   1.220   3.391 -0.4116 -1.7642 -0.5203
  420TIP3   OH2 1202   3.806   1.433   2.568  0.1970 -0.3710  0.0005
  420TIP3    H1 1203   3.766   1.519   2.559 -0.8548 -0.7772  0.6916
  420TIP3    H2 1204   3.836   1.430   2.659  0.3628 -0.6711 -0.0634
  421TIP3   OH2 1205   5.888   1.476   1.163 -0.5061 -0.0680  0.4669
  421TIP3    H1 1206   5.824   1.543   1.141  1.0742  1.1981 -0.3251
  421TIP3    H2 1207   5.936   1.511   1.237  1.1726  0.2560 -0.7504
  422TIP3   OH2 1208   4.407   4.731   1.470 -0.2849  0.0259 -0.0457
  422TIP3    H1 1209   4.320   4.697   1.448 -0.6166  1.2349 -0.6290
  422TIP3    H2 1210   4.445   4.757   1.386  1.5255 -2.4883 -0.0707
  423TIP3   OH2 1211   3.424   2.346   0.731  0.5743 -0.2152 -0.1931
  423TIP3    H1 1212   3.372   2.371   0.807  1.2670  1.8942 -0.3893
  423TIP3    H2 1213   3.474   2.270   0.760 -0.5659 -0.5671  0.8576
  424TIP3   OH2 1214   2.113   3.901   0.509  0.5535  0.1366  0.0638
  424TIP3    H1 1215   2.123   3.970   0.574 -0.3901 -0.4931  0.8912
  424TIP3    H2 1216   2.203   3.874   0.489  0.8825  0.9080  0.4753
  425TIP3   OH2 1217   3.759   1.353   1.257  0.6350 -0.0743  0.3965
  425TIP3    H1 1218   3.737   1.288   1.190  1.2594  1.5595 -1.4548
  425TIP3    H2 1219   3.852   1.337   1.276  0.8117  0.2956 -0.1229
  426TIP3   OH2 1220   3.397   1.128   3.066 -0.1456  0.3197  0.3008
  426TIP3    H1 1221   3.434   1.100   3.150  0.1312 -2.0541 -0.5969
  426TIP3    H2 1222   3.445   1.079   3.000 -2.9335 -0.7463 -1.0397
  427TIP3   OH2 1223   3.580   0.675   2.593  0.7638 -0.2814 -0.6080
  427TIP3    H1 1224   3.607   0.583   2.589  1.5572 -0.2044  1.9772
  427TIP3    H2 1225   3.658   0.720   2.626  0.0606  1.1874 -0.9387
  428TIP3   OH2 1226   4.399   0.946   1.686 -0.4343 -0.1679 -0.1314
  428TIP3    H1 1227   4.484   0.960   1.645 -0.9045  0.7858 -0.8085
  428TIP3    H2 1228   4.399   1.004   1.762 -0.5494 -0.0331 -0.2338
  429TIP3   OH2 1229   8.430   4.456   6.899 -0.5716  0.4945  0.0487
  429TIP3    H1 1230   8.409   4.549   6.905 -1.8797  0.3569 -2.0968
  429TIP3    H2 1231   8.356   4.412   6.941 -0.7936  0.3484 -0.4933
  430TIP3   OH2 1232   3.948   1.494   1.607  0.1388 -0.2679 -0.0780
  430TIP3    H1 1233   3.992   1.579   1.603 -0.8985  0.4414  2.4549
  430TIP3    H2 1234   3.860   1.514   1.639 -0.6915 -2.1222 -1.1388
  431TIP3   OH2 1235   2.892   4.054   0.969 -0.3727 -0.9586  0.3725
  431TIP3    H1 1236   2.906   3.962   0.988 -1.6128 -0.8968  1.7098
  431TIP3    H2 1237   2.804   4.058   0.931 -1.0022 -0.1768  1.8369
  432TIP3   OH2 1238   0.656   7.595   2.490 -0.0577  0.3122 -0.3557
  432TIP3    H1 1239   0.719   7.546   2.543 -1.6061 -2.2788 -0.7823
  432TIP3    H2 1240   0.611   7.652   2.551 -0.2383 -0.9560  0.7056
  433TIP3   OH2 1241   3.117   7.886   2.353  0.0326  0.2509  0.3835
  433TIP3    H1 1242   3.070   7.828   2.294  0.1749 -0.7830  1.2695
  433TIP3    H2 1243   3.190   7.920   2.302 -0.7090  0.5746 -0.4933
  434TIP3   OH2 1244   2.434   7.633   0.743  0.3891  0.3378 -0.5852
  434TIP3    H1 1245   2.456   7.713   0.791 -1.4913  1.1498 -1.0497
  434TIP3    H2 1246   2.453   7.654   0.651 -1.8260  0.9130 -0.9438
  435TIP3   OH2 1247   1.331   7.375   2.861 -0.2954 -0.6792 -0.2270
  435TIP3    H1 1248   1.257   7.388   2.801  0.6287  0.2994 -1.1875
  435TIP3    H2 1249   1.316   7.289   2.901 -2.1186 -0.3521 -0.1603
  436TIP3   OH2 1250   3.123   1.409   1.610 -0.1072 -0.0476  0.3997
  436TIP3    H1 1251   3.036   1.423   1.648 -0.0819  1.1484  0.0485
  436TIP3    H2 1252   3.114   1.436   1.519  1.2720  2.6932  1.0037
  437TIP3   OH2 1253   4.380   1.028   1.194  0.2240 -0.1643 -0.4291
  437TIP3    H1 1254   4.307   1.082   1.223 -0.1091 -0.9895  0.2915
  437TIP3    H2 1255   4.447   1.090   1.169 -0.5580  0.5977 -0.6518
  438TIP3   OH2 1256   2.686   0.575   3.022 -0.1344  0.3974 -0.5226
  438TIP3    H1 1257   2.720   0.497   2.979  0.6979  0.6409 -0.3077
  438TIP3    H2 1258   2.752   0.598   3.088 -1.0338  0.4611  0.3840
  439TIP3   OH2 1259   0.251   7.439   3.668  0.4087  0.3881  0.2492
  439TIP3    H1 1260   0.255   7.523   3.713  0.2696  0.3825  0.2716
  439TIP3    H2 1261   0.159   7.413   3.674  0.2787  0.6676 -0.5554
  440TIP3   OH2 1262   4.888   3.627   1.897 -0.4651  0.2612 -0.1355
  440TIP3    H1 1263   4.911   3.542   1.936  1.1507  0.0768 -1.4366
  440TIP3    H2 1264   4.927   3.692   1.955  0.4767  0.0348 -0.5115
  441TIP3   OH2 1265   3.342   3.164   1.668 -0.5815 -0.1631 -0.3461
  441TIP3    H1 1266   3.257   3.153   1.710  0.5411 -0.6520  1.9008
  441TIP3    H2 1267   3.397   3.097   1.708  0.2910 -1.3828 -3.4386
  442TIP3   OH2 1268   4.154   3.586   2.218  0.1605  0.0259 -0.2413
  442TIP3    H1 1269   4.211   3.588   2.294  0.3206 -0.4420 -0.3465
  442TIP3    H2 1270   4.065   3.590   2.254  0.2522  0.3595 -0.0579
  443TIP3   OH2 1271   3.922   1.630   2.066 -0.2166 -0.3549 -0.0336
  443TIP3    H1 1272   3.899   1.709   2.017  0.9028 -0.1480 -0.2254
  443TIP3    H2 1273   3.891   1.648   2.155 -1.9944 -0.6132 -0.5654
  444TIP3   OH2 1274   6.319   5.139   6.621 -0.2477 -0.1906 -0.0845
  444TIP3    H1 1275   6.413   5.136   6.637 -0.4035 -0.8074  0.7550
  444TIP3    H2 1276   6.299   5.056   6.579 -0.3570  0.0999 -0.6075
  445TIP3   OH2 1277   4.068   4.739   3.031 -0.1845 -0.0595 -0.0085
  445TIP3    H1 1278   3.996   4.795   3.004 -0.5355 -0.0051  1.0358
  445TIP3    H2 1279   4.039   4.650   3.009 -0.6034 -0.0451  0.4858
  446TIP3   OH2 1280   4.274   2.549   1.833  0.5947  0.3895  0.7248
  446TIP3    H1 1281   4.273   2.625   1.891 -1.7374  0.4027  0.7048
  446TIP3    H2 1282   4.191   2.554   1.785 -0.2090 -2.8288  1.6297
  447TIP3   OH2 1283   2.826   4.351   1.383  0.1616 -0.4313 -0.0852
  447TIP3    H1 1284   2.779   4.430   1.355 -1.6376 -1.5263 -0.2540
  447TIP3    H2 1285   2.871   4.321   1.304 -2.0766 -1.5586 -0.9803
  448TIP3   OH2 1286   3.376   3.849   1.611 -0.2056 -0.4194  0.2080
  448TIP3    H1 1287   3.458   3.880   1.651 -0.9593  1.9097  0.0576
  448TIP3    H2 1288   3.361   3.763   1.650  1.2519  0.0153  1.7891
  449TIP3   OH2 1289   6.404   7.047   6.657  0.1552  0.1782 -0.2140
  449TIP3    H1 1290   6.389   7.072   6.748 -0.2626  0.0396 -0.2424
  449TIP3    H2 1291   6.482   6.992   6.659  3.2543  4.3657 -0.5950
  450TIP3   OH2 1292   3.129   0.362   3.029  0.0751 -0.0577  0.4344
  450TIP3    H1 1293   3.191   0.361   2.956 -1.4333 -1.3582 -0.8760
  450TIP3    H2 1294   3.072   0.287   3.013 -0.3895 -0.2620  2.8861
  451TIP3   OH2 1295   2.987   0.132   2.976 -0.1881  0.3897 -0.0438
  451TIP3    H1 1296   2.975   0.090   2.891 -3.6607  1.1841 -0.0358
  451TIP3    H2 1297   2.934   0.079   3.036  0.8732  0.8280  1.3077
  452TIP3   OH2 1298   2.703   1.939   0.280  0.4818  0.4638  0.5494
  452TIP3    H1 1299   2.651   1.915   0.203  0.4606 -1.1192  1.0274
  452TIP3    H2 1300   2.759   2.011   0.250 -0.6313  0.9152 -0.5006
  453TIP3   OH2 1301   7.842   4.376   6.038  0.0033  0.0687  0.3140
  453TIP3    H1 1302   7.815   4.329   6.117  1.3376 -1.4055 -0.0873
  453TIP3    H2 1303   7.760   4.394   5.991 -0.6034 -0.9921  0.9589
  454TIP3   OH2 1304   3.771   2.647   0.138 -0.3519  0.0322 -0.3114
  454TIP3    H1 1305   3.699   2.648   0.075 -0.1132  0.5129 -0.5798
  454TIP3    H2 1306   3.823   2.724   0.116 -0.9018  0.8688  1.2140
  455TIP3   OH2 1307   3.400   7.617   2.112 -0.3765  0.4188 -0.0245
  455TIP3    H1 1308   3.394   7.538   2.058  1.9718 -1.1471  1.8522
  455TIP3    H2 1309   3.473   7.667   2.075 -0.6191  0.7590 -0.0458
  456TIP3   OH2 1310   4.173   0.277   3.924 -0.2725 -0.8359 -0.3301
  456TIP3    H1 1311   4.247   0.269   3.984 -0.2245 -0.6900 -0.3687
  456TIP3    H2 1312   4.100   0.306   3.979 -0.0455  0.0282 -0.4640
  457TIP3   OH2 1313   5.156   1.119   2.656  0.1913 -0.2877  0.0838
  457TIP3    H1 1314   5.246   1.152   2.667 -0.4751  1.4650  0.4805
  457TIP3    H2 1315   5.151   1.093   2.564  1.0615 -0.2152  0.0145
  458TIP3   OH2 1316   1.808   7.860   1.014  0.8272 -0.8055  0.1705
  458TIP3    H1 1317   1.818   7.828   1.104  0.9981 -0.8744  0.1271
  458TIP3    H2 1318   1.896   7.855   0.977  1.4548  2.4571  1.0464
  459TIP3   OH2 1319   1.456   1.927   1.052 -0.3903 -0.0167  0.2443
  459TIP3    H1 1320   1.430   1.867   0.982 -0.1345  1.2537 -0.9829
  459TIP3    H2 1321   1.374   1.953   1.093 -0.3546 -2.8024  2.1794
  460TIP3   OH2 1322   6.848   4.474   5.000 -0.1794  0.3308 -0.1602
  460TIP3    H1 1323   6.833   4.385   4.968 -2.0687  0.8278 -0.7382
  460TIP3    H2 1324   6.805   4.475   5.086  0.9578  0.3092  0.4066
  461TIP3   OH2 1325   0.838   7.940   4.163  0.4018  0.2109  0.0990
  461TIP3    H1 1326   0.868   8.023   4.126  1.4063 -0.3844 -0.4488
  461TIP3    H2 1327   0.864   7.874   4.098  1.5568 -0.7812  1.5282
  462TIP3   OH2 1328   1.480   6.747   3.183 -0.2575 -0.3496  0.2532
  462TIP3    H1 1329   1.452   6.724   3.095 -0.9289  2.1590 -0.2174
  462TIP3    H2 1330   1.399   6.767   3.230  0.2208 -0.0807  0.9765
  463TIP3   OH2 1331   2.151   7.859   3.450  0.0380  0.3653 -0.2879
  463TIP3    H1 1332   2.185   7.791   3.508  1.4556  0.6755 -0.7500
  463TIP3    H2 1333   2.132   7.933   3.508  0.6265  0.3681 -0.0983
  464TIP3   OH2 1334   6.196   0.675   4.050 -0.0361 -0.4167  0.3552
  464TIP3    H1 1335   6.158   0.605   4.104 -1.0089 -0.0335  0.1887
  464TIP3    H2 1336   6.121   0.711   4.002  0.9004 -1.1816 -1.7480
  465TIP3   OH2 1337   3.888   1.247   0.755 -0.4503  0.6286  0.7313
  465TIP3    H1 1338   3.943   1.299   0.814 -0.4536  0.5025  0.8454
  465TIP3    H2 1339   3.948   1.181   0.718 -1.0389 -1.0180  2.6701
  466TIP3   OH2 1340   5.711   0.007   1.125  0.0610 -0.4871 -0.0891
  466TIP3    H1 1341   5.704  -0.010   1.031 -0.1827 -0.5082 -0.0685
  466TIP3    H2 1342   5.782   0.070   1.133  0.7111 -1.1920 -0.2039
  467TIP3   OH2 1343   4.062   0.092   0.071 -0.6733 -0.4713  0.5581
  467TIP3    H1 1344   4.115   0.032   0.018 -0.7878 -0.4990  0.4739
  467TIP3    H2 1345   3.984   0.107   0.018  0.5921  1.9438 -0.7187
  468TIP3   OH2 1346   7.259   3.531   1.552  0.1133  0.4465 -0.3794
  468TIP3    H1 1347   7.351   3.524   1.576 -0.2285 -0.1902  0.7438
  468TIP3    H2 1348   7.231   3.440   1.538 -0.3071  0.6503 -0.8852
  469TIP3   OH2 1349   6.610   1.873   1.716 -0.2538 -0.5512 -0.1428
  469TIP3    H1 1350   6.670   1.912   1.779 -0.1016  0.2142 -0.7494
  469TIP3    H2 1351   6.536   1.842   1.769 -0.6208  1.0389  0.3152
  470TIP3   OH2 1352   6.857   5.169   6.211  0.2525  0.0591 -0.1297
  470TIP3    H1 1353   6.818   5.248   6.247  1.0292 -0.3835  1.7705
  470TIP3    H2 1354   6.797   5.141   6.142  0.2436  2.5605 -1.1646
  471TIP3   OH2 1355   3.763   0.784   2.769  0.6913  0.1828 -0.3925
  471TIP3    H1 1356   3.779   0.800   2.862 -1.0629  2.3877 -0.4287
  471TIP3    H2 1357   3.822   0.846   2.724  0.2111  0.4187 -0.7009
  472TIP3   OH2 1358   3.150   1.134   1.631  0.3200 -0.1035 -0.6117
  472TIP3    H1 1359   3.123   1.225   1.641  1.2802  0.0636  0.7271
  472TIP3    H2 1360   3.069   1.086   1.615 -0.0761  1.1132 -2.3412
  473TIP3   OH2 1361   7.715   1.632   0.228 -0.3159  0.6444  0.0428
  473TIP3    H1 1362   7.782   1.700   0.219 -2.1484  2.5573  0.5653
  473TIP3    H2 1363   7.711   1.614   0.322 -0.9860  0.9728  0.0748
  474TIP3   OH2 1364   4.498   0.375   0.838  0.2268  0.5142 -0.0087
  474TIP3    H1 1365   4.539   0.289   0.851  0.6070  0.7026  0.0350
  474TIP3    H2 1366   4.569   0.431   0.807  0.4615  1.3564  1.9888
  475TIP3   OH2 1367   3.853   1.110   1.935 -0.0764  0.4038  0.4584
  475TIP3    H1 1368   3.944   1.090   1.959 -0.3663 -0.5557  0.7497
  475TIP3    H2 1369   3.834   1.053   1.861 -0.4358  0.6420  0.3628
  476TIP3   OH2 1370   8.244   3.470   6.397 -0.2062  0.0151 -0.8782
  476TIP3    H1 1371   8.196   3.544   6.434  0.6572  0.8921 -1.5179
  476TIP3    H2 1372   8.336   3.489   6.414  0.0497 -0.7431 -1.3570
  477TIP3   OH2 1373   5.082   1.135   2.915  0.1377  0.2983  0.5204
  477TIP3    H1 1374   5.091   1.156   2.822  0.8121  2.0342  0.9452
  477TIP3    H2 1375   4.988   1.134   2.930  0.0472  1.4837  0.1121
  478TIP3   OH2 1376   6.326   0.104   1.453 -0.3632  0.9311  0.4020
  478TIP3    H1 1377   6.273   0.061   1.386 -1.3873  2.5060  0.1732
  478TIP3    H2 1378   6.385   0.036   1.484  0.7002  0.3859 -2.6575
  479TIP3   OH2 1379   5.410   1.156   1.178 -0.3267  0.1011  0.1164
  479TIP3    H1 1380   5.393   1.095   1.250  1.8786  1.3970  1.7993
  479TIP3    H2 1381   5.504   1.173   1.183  0.1082 -0.7078 -3.8576
  480TIP3   OH2 1382   6.592   3.958   6.634 -0.5663  0.0155  0.2326
  480TIP3    H1 1383   6.579   3.869   6.665  0.2092  0.0468  0.6622
  480TIP3    H2 1384   6.683   3.960   6.604 -0.5055  0.7195  0.4498
  481TIP3   OH2 1385   6.512   2.219   1.696  0.1422 -0.6642 -0.2133
  481TIP3    H1 1386   6.504   2.280   1.622  0.1517 -0.2265  0.1436
  481TIP3    H2 1387   6.606   2.210   1.709  0.1599  1.2169  1.3302
  482TIP3   OH2 1388   3.525   2.606   2.663  0.2281  0.7515 -0.3748
  482TIP3    H1 1389   3.620   2.598   2.658  0.2222  0.6493 -0.3082
  482TIP3    H2 1390   3.509   2.665   2.737  0.1922 -0.2310  0.4051
  483TIP3   OH2 1391   6.791   1.279   1.939 -0.0232  0.3788  0.2351
  483TIP3    H1 1392   6.775   1.219   1.865 -0.1609 -0.1304  0.6728
  483TIP3    H2 1393   6.706   1.318   1.957 -0.0479  0.2886  0.3119
  484TIP3   OH2 1394   4.503   1.566   1.246  0.1535 -0.2407  0.2980
  484TIP3    H1 1395   4.412   1.550   1.223  0.2879 -2.8661  1.4122
  484TIP3    H2 1396   4.501   1.587   1.339  0.5288  1.5382 -0.0698
  485TIP3   OH2 1397   6.486   0.587   0.120  0.3228  0.6692 -0.4649
  485TIP3    H1 1398   6.424   0.586   0.193  1.3300 -1.1902  0.3959
  485TIP3    H2 1399   6.432   0.570   0.043 -0.1674 -1.8671  0.3821
  486TIP3   OH2 1400   5.334   2.785   1.729 -0.0135  0.3629  0.3421
  486TIP3    H1 1401   5.377   2.766   1.812 -1.2870 -2.2727  0.4420
  486TIP3    H2 1402   5.254   2.832   1.753 -0.7972 -1.1305  0.6841
  487TIP3   OH2 1403   5.030   0.096   0.372 -0.1414  0.3075  0.4844
  487TIP3    H1 1404   5.126   0.096   0.381 -0.1164  0.9155  0.2575
  487TIP3    H2 1405   4.997   0.105   0.461 -0.0038 -1.0470  0.6761
  488TIP3   OH2 1406   6.889   1.372   1.121  0.7941 -0.2167 -0.6677
  488TIP3    H1 1407   6.850   1.442   1.174  0.6382 -1.2676  0.6194
  488TIP3    H2 1408   6.842   1.376   1.038 -1.8842 -1.2859  0.7535
  489TIP3   OH2 1409   6.465   1.369   0.199 -0.1393  0.2753 -0.1883
  489TIP3    H1 1410   6.419   1.434   0.146 -1.1870  0.3291  0.7720
  489TIP3    H2 1411   6.546   1.353   0.152 -0.0878  1.9172 -0.6966
  490TIP3   OH2 1412   5.579   2.490   0.688 -0.5370 -0.2792 -0.4192
  490TIP3    H1 1413   5.629   2.488   0.606 -1.6052 -0.8925 -1.0621
  490TIP3    H2 1414   5.604   2.409   0.733  2.1147  1.3269  1.1317
  491TIP3   OH2 1415   6.358   7.379   6.030  0.1474 -0.1532 -0.4819
  491TIP3    H1 1416   6.316   7.454   6.072  2.1672  1.2834 -0.9367
  491TIP3    H2 1417   6.442   7.370   6.075 -0.2507 -2.4749 -0.1082
  492TIP3   OH2 1418   8.464   2.537   0.203  0.1881 -0.0781  0.0414
  492TIP3    H1 1419   8.506   2.615   0.167  1.7177 -0.5825  0.6934
  492TIP3    H2 1420   8.377   2.567   0.229 -0.7644  0.4625 -3.4180
  493TIP3   OH2 1421   6.547   1.395   0.496 -0.7908 -0.3240 -0.5261
  493TIP3    H1 1422   6.536   1.420   0.404  0.7337  0.3507 -0.5444
  493TIP3    H2 1423   6.591   1.310   0.493  0.7646  0.4642 -0.4233
  494TIP3   OH2 1424   5.939   3.278   1.785  0.3955 -0.0713 -0.1814
  494TIP3    H1 1425   5.978   3.195   1.810 -0.8306 -0.4658  0.4588
  494TIP3    H2 1426   5.975   3.297   1.698 -0.6331 -2.1141 -1.0805
  495TIP3   OH2 1427   5.015   3.996   1.243 -0.1530  0.4953 -0.9008
  495TIP3    H1 1428   5.071   3.920   1.257 -0.4616 -0.0164 -2.3868
  495TIP3    H2 1429   5.050   4.038   1.164 -0.2680  1.6491 -0.3563
  496TIP3   OH2 1430   3.834   2.892   0.038  0.6665  0.2501  0.2538
  496TIP3    H1 1431   3.761   2.951   0.019 -0.4733 -0.6168  1.8126
  496TIP3    H2 1432   3.851   2.848  -0.046 -0.0263  1.0994 -0.3383
  497TIP3   OH2 1433   5.119   1.553   1.231  0.2399 -0.0567 -0.2502
  497TIP3    H1 1434   5.097   1.461   1.215  0.0948 -0.3338  1.4510
  497TIP3    H2 1435   5.078   1.600   1.158 -1.8168 -1.0846  0.1993
  498TIP3   OH2 1436   6.241   7.087   5.816  0.7982 -0.3367  0.0425
  498TIP3    H1 1437   6.202   7.062   5.732  0.2229 -0.2047  0.2678
  498TIP3    H2 1438   6.172   7.137   5.860  1.3611  0.2306  0.2815
  499TIP3   OH2 1439   5.070   2.376   1.542  0.3301  0.6346 -0.1931
  499TIP3    H1 1440   5.118   2.421   1.472 -1.4914 -0.2344 -2.0469
  499TIP3    H2 1441   5.002   2.327   1.497 -1.3679  0.6313  2.2743
  500TIP3   OH2 1442   4.883   5.190   0.415 -0.3236  0.7077 -0.6158
  500TIP3    H1 1443   4.972   5.170   0.390 -0.6509  0.7200 -1.7961
  500TIP3    H2 1444   4.847   5.107   0.446 -0.4209  0.3421 -1.7020
  501TIP3   OH2 1445   4.478   1.873   0.482  0.1417 -0.5211  0.1463
  501TIP3    H1 1446   4.559   1.898   0.527  0.2198 -2.2548  1.0039
  501TIP3    H2 1447   4.470   1.779   0.497 -0.0967 -1.0609 -3.0606
  502TIP3   OH2 1448   6.406   0.263   1.162 -0.7327 -0.1157  0.4879
  502TIP3    H1 1449   6.413   0.173   1.132 -1.9820 -0.0350 -0.0789
  502TIP3    H2 1450   6.325   0.265   1.213  1.2498 -0.2095  3.7972
  503TIP3   OH2 1451   4.358   1.481   0.853 -0.2444  0.2025  0.1570
  503TIP3    H1 1452   4.303   1.479   0.932  0.1653  0.0124  0.4376
  503TIP3    H2 1453   4.415   1.557   0.866  2.1232 -1.7438  1.6057
  504TIP3   OH2 1454   5.534   0.634   0.387 -0.2076  0.0732  0.1446
  504TIP3    H1 1455   5.535   0.728   0.404 -0.1999  0.3192 -1.1119
  504TIP3    H2 1456   5.443   0.613   0.369 -0.1151 -0.0180 -0.2411
  505TIP3   OH2 1457   4.955   1.659   1.006  0.3872 -0.5046  0.1963
  505TIP3    H1 1458   4.963   1.745   1.045  2.2688 -0.4300 -0.3366
  505TIP3    H2 1459   4.863   1.635   1.020  0.8480 -0.2728  4.1635
  506TIP3   OH2 1460   5.539   1.802   1.225  0.1297 -0.7064 -0.1088
  506TIP3    H1 1461   5.570   1.814   1.315 -0.0549 -1.2746  0.0277
  506TIP3    H2 1462   5.597   1.858   1.173 -0.6641  0.7335  0.5153
  507TIP3   OH2 1463   7.271   0.737   0.595 -0.2123 -0.2761 -0.0277
  507TIP3    H1 1464   7.303   0.693   0.674  2.3043 -0.3905 -1.0495
  507TIP3    H2 1465   7.207   0.677   0.557 -1.0537 -0.4528  1.6156
  508TIP3   OH2 1466   7.509   1.730   0.648  0.0738  0.0679  0.4136
  508TIP3    H1 1467   7.464   1.692   0.573  0.9803 -0.3990  0.1063
  508TIP3    H2 1468   7.584   1.775   0.611  1.7439 -1.9774  1.2136
  509TIP3   OH2 1469   2.143   7.524   1.964 -0.8075  0.0090  0.5051
  509TIP3    H1 1470   2.076   7.532   2.032 -2.0845  0.1454 -0.7343
  509TIP3    H2 1471   2.203   7.458   1.998 -1.3755  0.1380  1.8073
  510TIP3   OH2 1472   4.467   0.724   0.749 -0.0968  0.0630 -0.2966
  510TIP3    H1 1473   4.427   0.695   0.832 -1.4059 -1.7461 -1.5215
  510TIP3    H2 1474   4.561   0.708   0.761 -0.3492 -0.8298  0.5941
  511TIP3   OH2 1475   6.873   0.238   1.657  0.1733 -0.1082 -0.0898
  511TIP3    H1 1476   6.851   0.182   1.582 -2.1048  0.1426  0.3367
  511TIP3    H2 1477   6.831   0.322   1.637 -0.3892 -0.0137  1.4090
  512TIP3   OH2 1478   0.777   4.002   6.135 -0.1016 -0.0738 -0.1083
  512TIP3    H1 1479   0.866   4.030   6.157 -0.0571  0.8620 -1.4247
  512TIP3    H2 1480   0.731   4.083   6.114 -0.0698 -0.9013 -3.6090
  513TIP3   OH2 1481   1.434   7.557   0.864  0.0181 -0.2437  0.2958
  513TIP3    H1 1482   1.392   7.584   0.782 -1.5126 -1.1092  0.7811
  513TIP3    H2 1483   1.486   7.633   0.891 -1.8263  1.1136  0.0616
  514TIP3   OH2 1484   4.889   1.457   2.287  0.2893  0.2359 -0.0339
  514TIP3    H1 1485   4.972   1.411   2.299  0.8439  1.5005  1.1407
  514TIP3    H2 1486   4.894   1.495   2.199  0.6003 -0.3677 -0.2795
  515TIP3   OH2 1487   6.796   5.675   6.260  0.5097  0.2082  0.5687
  515TIP3    H1 1488   6.782   5.761   6.221 -1.3461 -1.0120 -1.5413
  515TIP3    H2 1489   6.740   5.674   6.338 -2.1828 -0.2958 -1.3085
  516TIP3   OH2 1490   4.964   0.327   0.215  0.4012  0.4444  0.3087
  516TIP3    H1 1491   4.921   0.338   0.300  0.9196  1.5165  0.4427
  516TIP3    H2 1492   4.998   0.237   0.217  0.4771  0.4869  1.2702
  517TIP3   OH2 1493   1.258   4.841   6.563 -0.5842  0.0039  0.2153
  517TIP3    H1 1494   1.221   4.779   6.501 -0.0148  1.0478 -1.2058
  517TIP3    H2 1495   1.190   4.907   6.574  0.3425  1.2825 -1.4635
  518TIP3   OH2 1496   1.599   7.348   1.618 -0.1250  0.0823  0.3801
  518TIP3    H1 1497   1.683   7.336   1.574 -0.9192 -0.5038 -0.9836
  518TIP3    H2 1498   1.609   7.431   1.665  0.6441  0.8583 -1.1205
  519TIP3   OH2 1499   2.430   5.879   5.803  0.3767  0.0913 -0.4093
  519TIP3    H1 1500   2.516   5.839   5.807  0.9565  1.1800 -1.6232
  519TIP3    H2 1501   2.379   5.834   5.871  1.3402 -1.8340 -0.9370
  520TIP3   OH2 1502   4.927   2.544   0.959  0.0387  0.0677 -0.2542
  520TIP3    H1 1503   4.850   2.587   0.924 -0.2315 -0.6454 -0.5345
  520TIP3    H2 1504   4.997   2.568   0.898  0.1043  0.9202  0.1383
  521TIP3   OH2 1505   7.083   4.283   6.516 -0.1706  0.0500  0.4077
  521TIP3    H1 1506   6.994   4.313   6.537 -0.2116 -0.8097  1.4761
  521TIP3    H2 1507   7.104   4.220   6.584  1.9217  1.4428  1.0904
  522TIP3   OH2 1508   4.110   0.276   0.509 -0.0354  0.5386 -0.0988
  522TIP3    H1 1509   4.151   0.359   0.532 -0.9873  1.0729 -0.2945
  522TIP3    H2 1510   4.063   0.249   0.588  1.0221 -0.2762  0.2571
  523TIP3   OH2 1511   4.619   3.121   1.975 -0.1262 -0.1423 -0.2936
  523TIP3    H1 1512   4.566   3.084   1.904 -0.0030  0.2285 -0.5801
  523TIP3    H2 1513   4.628   3.050   2.037 -0.5227 -0.3701 -0.4908
  524TIP3   OH2 1514   3.954   1.079   3.217 -0.2604 -0.2181 -0.1551
  524TIP3    H1 1515   4.001   1.158   3.242 -0.3800 -1.2179  3.5128
  524TIP3    H2 1516   4.019   1.009   3.220 -0.9305 -0.8420  0.3229
  525TIP3   OH2 1517   4.135   1.803   0.327  0.5973  0.5780 -0.3628
  525TIP3    H1 1518   4.046   1.783   0.357  1.0358 -0.3203  0.3605
  525TIP3    H2 1519   4.176   1.717   0.314  1.4859  0.9896 -0.3218
  526TIP3   OH2 1520   7.051   3.387   0.592  0.7245  0.4900 -0.0976
  526TIP3    H1 1521   7.024   3.428   0.674 -1.0604  0.6256 -0.7377
  526TIP3    H2 1522   7.095   3.457   0.544 -0.7403  1.1838 -0.4390
  527TIP3   OH2 1523   4.688   2.199   1.145  0.5411  0.4906 -0.0508
  527TIP3    H1 1524   4.702   2.293   1.155  1.9774  0.0101  3.1142
  527TIP3    H2 1525   4.631   2.176   1.218 -0.4069 -0.9691 -1.2454
  528TIP3   OH2 1526   8.388   3.806   6.512 -0.7451  0.3199  0.0618
  528TIP3    H1 1527   8.420   3.888   6.476 -1.1767  0.9698  1.1492
  528TIP3    H2 1528   8.439   3.739   6.467 -0.7209  1.1472 -1.1789
  529TIP3   OH2 1529   7.334   2.914   2.426 -0.1264 -0.5640 -0.4259
  529TIP3    H1 1530   7.333   2.987   2.489  1.8469 -0.5872 -0.3417
  529TIP3    H2 1531   7.335   2.957   2.341  2.3148 -0.4518 -0.3626
  530TIP3   OH2 1532   7.198   1.944   0.527 -0.0867 -0.0253 -0.0725
  530TIP3    H1 1533   7.242   2.014   0.479  0.6513 -0.2093  0.3333
  530TIP3    H2 1534   7.212   1.866   0.473  0.2563 -0.1231  0.1595
  531TIP3   OH2 1535   7.777   4.658   6.317  0.4013  0.1799 -0.4118
  531TIP3    H1 1536   7.735   4.629   6.236  2.9360  0.0435 -1.7263
  531TIP3    H2 1537   7.863   4.615   6.316  0.5932  0.4372  2.2019
  532TIP3   OH2 1538   7.013   4.355   6.195 -0.4652 -0.6417  0.1988
  532TIP3    H1 1539   7.035   4.424   6.134 -2.9905 -0.0460 -0.1221
  532TIP3    H2 1540   7.095   4.333   6.239  0.6115  1.6203 -0.6380
  533TIP3   OH2 1541   4.052   2.936   0.844  0.3163  0.1264  0.3055
  533TIP3    H1 1542   4.081   3.027   0.837  1.2823 -0.1856  0.1738
  533TIP3    H2 1543   4.088   2.893   0.767 -0.2114 -0.3514  0.3218
  534TIP3   OH2 1544   3.558   3.271   1.258  0.1685 -0.0402  0.0499
  534TIP3    H1 1545   3.522   3.352   1.292  3.0472  0.0059  3.2752
  534TIP3    H2 1546   3.497   3.203   1.286 -0.5695  0.6619  0.1404
  535TIP3   OH2 1547   6.773   1.923   2.353 -0.4713 -0.2912 -0.2319
  535TIP3    H1 1548   6.849   1.939   2.409 -1.0111  1.4728  0.0279
  535TIP3    H2 1549   6.779   1.830   2.330  1.2698 -0.3733  0.4980
  536TIP3   OH2 1550   4.900   7.731   5.647 -0.5900 -0.4860  0.4409
  536TIP3    H1 1551   4.832   7.684   5.599 -0.7563  0.5771 -0.3698
  536TIP3    H2 1552   4.863   7.818   5.662  0.5417  0.0510  0.1340
  537TIP3   OH2 1553   6.946   2.119   0.915  0.0132 -0.6362  0.4488
  537TIP3    H1 1554   7.023   2.084   0.870 -0.5466 -1.4856  0.1359
  537TIP3    H2 1555   6.982   2.176   0.983  0.8496  1.1534 -1.4559
  538TIP3   OH2 1556   6.579   3.185   1.440 -0.3110 -0.7632 -0.8799
  538TIP3    H1 1557   6.545   3.124   1.374 -1.1867  1.0309 -2.1185
  538TIP3    H2 1558   6.583   3.269   1.395  1.2258  0.0439  0.7081
  539TIP3   OH2 1559   3.240   2.643   0.593  0.1942 -0.1483 -0.0121
  539TIP3    H1 1560   3.180   2.644   0.519  0.1860 -1.0971 -0.0228
  539TIP3    H2 1561   3.294   2.721   0.582  0.1268 -0.2379 -0.9612
  540TIP3   OH2 1562   3.504   3.807   2.267  0.1027  0.1296  0.3226
  540TIP3    H1 1563   3.593   3.784   2.292 -0.2207  0.4919  1.8768
  540TIP3    H2 1564   3.504   3.804   2.171  2.1281  1.3672  0.2421
  541TIP3   OH2 1565   1.833   5.210   5.521 -0.0238  0.7013  0.4547
  541TIP3    H1 1566   1.761   5.199   5.459  0.0999  0.0975  0.4126
  541TIP3    H2 1567   1.911   5.213   5.466  0.0060  1.0698  0.5192
  542TIP3   OH2 1568   3.602   3.172   0.563 -0.2909 -0.3595 -0.2610
  542TIP3    H1 1569   3.542   3.192   0.635 -0.3755 -2.7232  0.3706
  542TIP3    H2 1570   3.551   3.189   0.484 -1.7681 -2.1054  0.2655
  543TIP3   OH2 1571   3.952   2.043   1.064  0.3733 -0.5633 -0.4023
  543TIP3    H1 1572   3.858   2.047   1.084  0.2547  0.3225 -1.0808
  543TIP3    H2 1573   3.972   2.129   1.027  2.0822  0.3665  2.4973
  544TIP3   OH2 1574   8.102   0.517   1.651  0.6539  0.5420 -0.3846
  544TIP3    H1 1575   8.037   0.450   1.633  0.9915  0.1242 -0.0508
  544TIP3    H2 1576   8.132   0.545   1.564  1.0617 -0.2759 -0.5108
  545TIP3   OH2 1577   3.786   1.553   0.149 -0.4208  0.1400 -0.0460
  545TIP3    H1 1578   3.724   1.525   0.082 -1.3416  2.1240 -0.0403
  545TIP3    H2 1579   3.870   1.558   0.104 -0.0240 -3.3570  0.1278
  546TIP3   OH2 1580   0.435   7.258   0.732 -0.3468 -0.6043 -0.1448
  546TIP3    H1 1581   0.509   7.210   0.696  0.4782  1.4567 -1.2854
  546TIP3    H2 1582   0.443   7.246   0.827  2.3580  0.7988 -0.1314
  547TIP3   OH2 1583   6.000   4.758   1.037  0.2236  0.7980  0.4636
  547TIP3    H1 1584   6.028   4.787   1.124 -1.3833  2.0372  0.5819
  547TIP3    H2 1585   5.929   4.818   1.013  0.1989  0.0493 -1.4198
  548TIP3   OH2 1586   4.162   7.766   1.848  0.0837  0.0686 -0.2297
  548TIP3    H1 1587   4.251   7.800   1.834  0.0643 -0.2642 -1.1884
  548TIP3    H2 1588   4.105   7.842   1.839  0.2156  0.1664 -0.2433
  549TIP3   OH2 1589   7.767   4.016   6.047 -0.2251 -0.1448 -0.2657
  549TIP3    H1 1590   7.775   4.086   6.112  0.0763 -0.2851 -0.1528
  549TIP3    H2 1591   7.770   4.061   5.963  2.6546 -0.2727 -0.2623
  550TIP3   OH2 1592   5.877   5.111   6.550 -0.0743  0.0705  0.2055
  550TIP3    H1 1593   5.867   5.143   6.640 -1.2070 -0.8909  0.4447
  550TIP3    H2 1594   5.948   5.163   6.513 -0.8143  1.7267  1.0809
  551TIP3   OH2 1595   2.012   4.861   6.857  0.0618 -0.4908  0.6525
  551TIP3    H1 1596   2.027   4.840   6.765  1.0900 -2.4326  1.2463
  551TIP3    H2 1597   1.932   4.813   6.879 -0.6646  0.6592  0.5577
  552TIP3   OH2 1598   5.337   2.449   0.820  0.2066  0.3767  0.4035
  552TIP3    H1 1599   5.361   2.357   0.824 -0.4200  0.0904 -1.5847
  552TIP3    H2 1600   5.415   2.493   0.785 -0.1091  0.3358 -0.3526
  553TIP3   OH2 1601   6.277   5.373   6.000 -0.3150 -0.3729  0.0655
  553TIP3    H1 1602   6.296   5.308   5.932 -1.0714 -0.7858  0.2406
  553TIP3    H2 1603   6.353   5.431   5.999 -0.4541 -0.1945 -1.3396
  554TIP3   OH2 1604   4.606   2.107   4.529 -0.0626  0.2559 -0.6178
  554TIP3    H1 1605   4.697   2.089   4.552 -0.2600 -1.6046 -1.1519
  554TIP3    H2 1606   4.558   2.100   4.612  0.1166  0.0557 -0.5311
  555TIP3   OH2 1607   3.639   1.758   3.198  0.2067 -0.1087 -0.2510
  555TIP3    H1 1608   3.734   1.773   3.190  0.1380  0.5363  0.1229
  555TIP3    H2 1609   3.600   1.834   3.155 -0.1433 -1.1039 -1.7197
  556TIP3   OH2 1610   5.342   8.027   0.764  0.5979 -0.5389  0.1007
  556TIP3    H1 1611   5.363   7.941   0.728  1.2508  0.7035 -2.7059
  556TIP3    H2 1612   5.420   8.051   0.814  0.5083 -1.4770  0.7018
  557TIP3   OH2 1613   0.844   3.821   6.740 -0.0785  0.3518  0.2090
  557TIP3    H1 1614   0.826   3.872   6.661 -0.1434  0.5823  0.3707
  557TIP3    H2 1615   0.898   3.748   6.710 -0.2018  0.3748 -0.0662
  558TIP3   OH2 1616   7.132   5.700   6.836 -0.4619 -0.0163  0.2052
  558TIP3    H1 1617   7.216   5.729   6.801 -1.1359  1.9542  0.1364
  558TIP3    H2 1618   7.152   5.670   6.925  0.0752  2.0670  0.8256
  559TIP3   OH2 1619   1.345   4.894   5.195 -0.0351  0.0691 -0.5335
  559TIP3    H1 1620   1.323   4.926   5.107  0.0596  1.8700  0.0880
  559TIP3    H2 1621   1.336   4.970   5.252  1.4728 -0.7096  0.7797
  560TIP3   OH2 1622   4.094   4.120   1.527 -0.0183 -0.0575 -0.7929
  560TIP3    H1 1623   4.054   4.206   1.545 -0.2248 -0.0774 -1.1410
  560TIP3    H2 1624   4.125   4.089   1.612  0.3024  0.4864 -0.7062
  561TIP3   OH2 1625   0.072   4.870   6.846  0.0747  0.3046 -0.0793
  561TIP3    H1 1626   0.123   4.824   6.912 -0.0406 -0.5990 -0.6186
  561TIP3    H2 1627   0.089   4.963   6.863 -0.8402  0.1256  1.9307
  562TIP3   OH2 1628   5.360   1.298   0.153 -0.3646 -0.4121  1.1093
  562TIP3    H1 1629   5.416   1.358   0.203  1.1047 -0.1704 -0.7680
  562TIP3    H2 1630   5.273   1.337   0.160  0.0587  0.3837  2.3022
  563TIP3   OH2 1631   6.521   0.440   0.973 -0.0693  0.0316  0.2143
  563TIP3    H1 1632   6.516   0.385   0.894 -0.0464 -0.2397  0.4005
  563TIP3    H2 1633   6.458   0.400   1.033  0.4822 -0.2259  0.6187
  564TIP3   OH2 1634   6.967   0.841   0.301  0.0647 -0.1908 -0.2185
  564TIP3    H1 1635   6.998   0.767   0.353 -0.4186 -0.4381 -0.2791
  564TIP3    H2 1636   6.875   0.851   0.326 -0.4583 -0.9524 -1.7545
  565TIP3   OH2 1637   1.602   0.904   1.197  0.2480 -0.3755  0.1037
  565TIP3    H1 1638   1.536   0.896   1.129  0.4620 -1.0648 -0.0322
  565TIP3    H2 1639   1.559   0.952   1.268  0.8258  2.7188 -1.5421
  566TIP3   OH2 1640   5.777   3.379   1.348 -0.2961  0.1965  0.7396
  566TIP3    H1 1641   5.850   3.441   1.350 -0.9078  0.9493  0.0800
  566TIP3    H2 1642   5.818   3.295   1.331  0.3333  0.8013 -0.8687
  567TIP3   OH2 1643   5.330   1.074   1.597  0.7511 -0.1676 -0.1506
  567TIP3    H1 1644   5.271   0.998   1.602  0.9551 -0.2071  2.0755
  567TIP3    H2 1645   5.301   1.121   1.519 -2.8090  0.2313  1.3092
  568TIP3   OH2 1646   8.207   4.168   6.255 -0.4997  0.7739 -0.3057
  568TIP3    H1 1647   8.261   4.246   6.273  0.8401 -0.4212  0.9844
  568TIP3    H2 1648   8.235   4.140   6.167 -1.8111  2.3939 -1.2665
  569TIP3   OH2 1649   5.860   3.557   2.946 -0.5984 -0.2280 -0.1923
  569TIP3    H1 1650   5.815   3.500   3.008  1.5659 -0.6325  1.0686
  569TIP3    H2 1651   5.887   3.499   2.874 -1.9393 -0.0094 -0.8834
  570TIP3   OH2 1652   7.831   0.928   1.584 -0.2824 -0.5286 -0.1201
  570TIP3    H1 1653   7.904   0.989   1.591  1.6303 -2.6926 -0.4560
  570TIP3    H2 1654   7.846   0.864   1.654 -2.6035 -0.2731  0.6552
  571TIP3   OH2 1655   2.777   3.935   6.876  0.5185  0.4196 -0.2097
  571TIP3    H1 1656   2.769   3.995   6.951  2.0140 -0.2984  0.5429
  571TIP3    H2 1657   2.771   3.992   6.800 -0.5063  1.2301  0.4457
  572TIP3   OH2 1658   6.989   2.221   2.277  0.3583  0.2654 -0.1213
  572TIP3    H1 1659   7.078   2.256   2.281  1.2009 -1.7475 -0.6597
  572TIP3    H2 1660   6.994   2.137   2.323 -1.1178 -0.1420 -0.6885
  573TIP3   OH2 1661   4.344   0.940   0.676  0.7240  0.1741  0.0257
  573TIP3    H1 1662   4.380   0.852   0.672 -2.9365 -1.3950 -1.2341
  573TIP3    H2 1663   4.252   0.927   0.699  0.2991  3.7378  0.6870
  574TIP3   OH2 1664   7.462   4.439   6.899  0.4585 -0.1145 -0.0813
  574TIP3    H1 1665   7.425   4.408   6.982  1.4899 -0.7022  0.1654
  574TIP3    H2 1666   7.554   4.455   6.918  0.4102  1.0539 -0.7727
  575TIP3   OH2 1667   7.416   2.125   0.106 -0.0351  0.3204 -0.0606
  575TIP3    H1 1668   7.490   2.078   0.068 -0.9865 -0.9428 -0.3836
  575TIP3    H2 1669   7.444   2.217   0.106  1.3955 -0.0903 -0.4732
  576TIP3   OH2 1670   3.136   3.030   0.915 -0.2068 -0.3335 -0.4229
  576TIP3    H1 1671   3.175   2.945   0.894 -1.3035 -0.7769 -0.7083
  576TIP3    H2 1672   3.150   3.082   0.836  0.5982 -0.2064 -0.1931
  577TIP3   OH2 1673   3.614   2.588   1.824  0.8044  0.8245  0.5036
  577TIP3    H1 1674   3.558   2.649   1.872  0.9547  1.5569 -0.2398
  577TIP3    H2 1675   3.703   2.608   1.855  0.9125  1.3742 -0.1672
  578TIP3   OH2 1676   4.883   2.564   1.615  0.1772 -0.1915 -0.0749
  578TIP3    H1 1677   4.871   2.597   1.526  0.0134  0.3772  0.1490
  578TIP3    H2 1678   4.967   2.519   1.614  1.1877  1.6229 -0.0135
  579TIP3   OH2 1679   5.143   0.106   1.580 -0.2459  0.2514  0.8562
  579TIP3    H1 1680   5.239   0.109   1.588 -0.2102  1.5217  0.0441
  579TIP3    H2 1681   5.115   0.197   1.585 -1.3144 -0.0138 -0.0440
  580TIP3   OH2 1682   7.224   3.814   2.014 -0.4520 -0.4748  0.6820
  580TIP3    H1 1683   7.234   3.739   1.955 -0.0390 -0.7449  1.0898
  580TIP3    H2 1684   7.170   3.876   1.966 -0.1111 -0.6909  0.0187
  581TIP3   OH2 1685   5.247   1.009   0.458  0.8711 -0.5141  0.1375
  581TIP3    H1 1686   5.239   0.924   0.414 -0.1242 -1.0929  1.4210
  581TIP3    H2 1687   5.314   0.995   0.524  1.8119  0.1424 -0.6661
  582TIP3   OH2 1688   5.426   1.316   2.357 -0.3856 -0.2203 -0.0938
  582TIP3    H1 1689   5.487   1.295   2.287  1.7463  1.6392  1.1704
  582TIP3    H2 1690   5.458   1.266   2.432  0.6632  2.1368  1.0521
  583TIP3   OH2 1691   5.701   0.816   1.268 -0.2426  0.6420 -0.2655
  583TIP3    H1 1692   5.638   0.755   1.232 -0.7747 -0.0205  1.7354
  583TIP3    H2 1693   5.786   0.778   1.248 -0.5627 -0.4762  0.4556
  584TIP3   OH2 1694   4.928   1.176   1.030  0.8084  0.6955  0.3557
  584TIP3    H1 1695   5.000   1.130   1.073  0.6041 -1.0164 -1.0767
  584TIP3    H2 1696   4.872   1.206   1.102  1.0117 -1.2219  1.3500
  585TIP3   OH2 1697   5.947   0.892   2.473  0.1380  0.1609  0.1358
  585TIP3    H1 1698   5.885   0.919   2.405 -0.4929  1.9059  1.3495
  585TIP3    H2 1699   5.912   0.930   2.554  1.7771 -0.4476  1.1693
  586TIP3   OH2 1700   7.402   0.357   2.168 -0.1573  0.5617 -0.0472
  586TIP3    H1 1701   7.413   0.264   2.150  2.0192  0.0045  3.5424
  586TIP3    H2 1702   7.465   0.400   2.110 -0.2353 -0.3062 -0.7822
  587TIP3   OH2 1703   4.213   2.292   0.512  0.6264 -0.1563 -0.4176
  587TIP3    H1 1704   4.244   2.214   0.466 -1.2266  0.0157 -2.0216
  587TIP3    H2 1705   4.250   2.365   0.463  1.0070  0.0082  0.1057
  588TIP3   OH2 1706   4.375   1.709   2.801 -0.1880  0.0493 -0.1138
  588TIP3    H1 1707   4.369   1.681   2.710  0.4437 -0.5480  0.0183
  588TIP3    H2 1708   4.398   1.629   2.849 -0.3262  0.3964  0.5416
  589TIP3   OH2 1709   3.285   7.236   1.717 -0.0339 -0.3764 -0.0554
  589TIP3    H1 1710   3.194   7.264   1.711  0.3302  0.7950 -0.1778
  589TIP3    H2 1711   3.321   7.251   1.629  1.1711  2.3668  0.8390
  590TIP3   OH2 1712   4.956   2.099   1.758 -0.0322 -0.0103  0.0254
  590TIP3    H1 1713   4.946   2.156   1.834  0.0257 -1.4121  1.1114
  590TIP3    H2 1714   4.867   2.090   1.724 -0.1408  0.2032  0.2466
  591TIP3   OH2 1715   3.941   1.631   1.020 -1.1134  0.0868  0.0137
  591TIP3    H1 1716   3.885   1.558   0.992 -1.2452  0.6856 -1.3082
  591TIP3    H2 1717   4.026   1.590   1.040 -0.3760 -0.1230 -3.2564
  592TIP3   OH2 1718   5.254   5.680   0.626 -0.2867  0.3683  0.2249
  592TIP3    H1 1719   5.281   5.617   0.693 -0.4236 -0.2819 -0.3240
  592TIP3    H2 1720   5.159   5.669   0.619 -0.2189  0.1190 -0.3823
  593TIP3   OH2 1721   5.848   0.359   1.476 -0.5577 -0.4972  0.2012
  593TIP3    H1 1722   5.941   0.352   1.497 -0.7983 -0.7840  1.2283
  593TIP3    H2 1723   5.804   0.321   1.552 -1.5350  0.4171  0.1103
  594TIP3   OH2 1724   5.386   2.487   1.124 -0.1784 -0.3264  0.0937
  594TIP3    H1 1725   5.382   2.472   1.029  1.1703 -2.5061  0.3741
  594TIP3    H2 1726   5.421   2.576   1.132 -1.2405  0.2665 -1.4423
  595TIP3   OH2 1727   4.960   1.201   1.602 -0.4650  0.1818 -0.7920
  595TIP3    H1 1728   4.942   1.107   1.596  0.3944  0.0730 -1.7746
  595TIP3    H2 1729   4.966   1.218   1.695  1.8141 -1.2245 -0.6460
  596TIP3   OH2 1730   5.976   0.709   1.446 -0.1027 -0.5796 -0.7245
  596TIP3    H1 1731   5.905   0.717   1.510  0.0607  1.0108 -0.7033
  596TIP3    H2 1732   6.043   0.658   1.490  0.5679  1.6168  0.9224
  597TIP3   OH2 1733   5.661   3.714   1.922  0.1135  0.1270  0.3264
  597TIP3    H1 1734   5.731   3.706   1.856  0.9469  0.8363  1.1110
  597TIP3    H2 1735   5.673   3.802   1.958 -1.9448  0.7093 -0.3695
  598TIP3   OH2 1736   5.882   0.726   0.648 -0.0448 -0.2198 -0.5893
  598TIP3    H1 1737   5.899   0.700   0.739 -2.3046 -1.9642 -0.6466
  598TIP3    H2 1738   5.848   0.816   0.655 -3.3445 -1.5057  0.6048
  599TIP3   OH2 1739   5.758   1.518   3.691 -0.4599 -0.4641 -0.4018
  599TIP3    H1 1740   5.770   1.532   3.597  0.7030 -0.9841 -0.3410
  599TIP3    H2 1741   5.815   1.443   3.711 -1.5985 -1.1046  0.4917
  600TIP3   OH2 1742   5.369   1.917   1.602  0.0467  0.8191 -0.3402
  600TIP3    H1 1743   5.402   1.996   1.559  0.2830  1.6346  1.3042
  600TIP3    H2 1744   5.447   1.876   1.640 -0.1985  0.2715 -0.4188
  601TIP3   OH2 1745   5.148   1.346   2.334 -0.6950 -0.6215 -0.0669
  601TIP3    H1 1746   5.243   1.362   2.331 -0.6121 -1.1562 -0.4552
  601TIP3    H2 1747   5.139   1.267   2.388 -0.8531 -1.0355 -0.6895
  602TIP3   OH2 1748   4.134   2.980   1.191 -0.2851  0.4066 -0.9032
  602TIP3    H1 1749   4.086   3.036   1.130 -0.3184  1.6065  0.2050
  602TIP3    H2 1750   4.106   3.010   1.278  1.7330  0.4876 -0.2641
  603TIP3   OH2 1751   4.812   1.772   1.939 -0.4821  0.2920  0.4107
  603TIP3    H1 1752   4.796   1.779   1.844 -0.0789  2.6417  0.4821
  603TIP3    H2 1753   4.748   1.832   1.978  1.5660  1.8976  1.3728
  604TIP3   OH2 1754   0.120   1.646   2.557 -0.0323  0.1747 -0.6268
  604TIP3    H1 1755   0.037   1.599   2.553 -0.2359  0.5150 -0.4242
  604TIP3    H2 1756   0.111   1.716   2.493 -0.0824  0.4943 -0.2765
  605TIP3   OH2 1757   3.520   3.410   2.084 -0.6112  0.1231  0.2666
  605TIP3    H1 1758   3.531   3.430   2.177  0.8347  2.0914 -0.2886
  605TIP3    H2 1759   3.443   3.460   2.058 -0.6687  0.0438  0.2870
  606TIP3   OH2 1760   3.909   3.852   0.394  0.2012  0.1809  0.2300
  606TIP3    H1 1761   3.919   3.892   0.481  1.9090 -1.2609  0.7146
  606TIP3    H2 1762   3.969   3.901   0.338  0.3229  0.0302  0.2291
  607TIP3   OH2 1763   3.827   1.676   1.252  0.2715  0.1803  0.0246
  607TIP3    H1 1764   3.872   1.671   1.168 -2.2759  1.6295 -1.5076
  607TIP3    H2 1765   3.879   1.737   1.304  1.6053 -0.3699 -0.6368
  608TIP3   OH2 1766   4.115   2.747   1.046  0.7031  0.0052 -0.6713
  608TIP3    H1 1767   4.106   2.811   1.116 -0.7470  0.7286 -1.4708
  608TIP3    H2 1768   4.114   2.800   0.966  0.4689 -0.9382 -1.2974
  609TIP3   OH2 1769   4.260   7.502   0.675 -0.3493 -0.3246 -0.2245
  609TIP3    H1 1770   4.171   7.527   0.650 -0.3098  0.7295  0.6401
  609TIP3    H2 1771   4.250   7.415   0.716 -0.7797 -0.8231 -1.3759
  610TIP3   OH2 1772   6.981   1.413   2.077  0.4239  0.5972  0.0654
  610TIP3    H1 1773   6.927   1.374   2.008  1.1338  0.7802 -0.6038
  610TIP3    H2 1774   6.940   1.384   2.158 -1.1866  1.4270 -0.4269
  611TIP3   OH2 1775   7.880   5.378   5.164  0.0508  0.8428  0.1407
  611TIP3    H1 1776   7.806   5.320   5.182 -1.1258  2.0579 -0.6549
  611TIP3    H2 1777   7.903   5.359   5.073 -1.5958  2.9811 -0.7379
  612TIP3   OH2 1778   7.182   1.795   1.134 -0.2706  0.6962 -0.5304
  612TIP3    H1 1779   7.194   1.747   1.052 -3.0799  1.2567 -1.3445
  612TIP3    H2 1780   7.111   1.748   1.179 -0.2575  1.6794  0.5405
  613TIP3   OH2 1781   5.864   1.462   0.027 -0.0103 -0.6905  0.2589
  613TIP3    H1 1782   5.888   1.443   0.117  1.5293  1.9451  0.4755
  613TIP3    H2 1783   5.929   1.414  -0.025  0.8966  0.0802  0.6550
  614TIP3   OH2 1784   2.048   6.441   5.162 -0.2369  0.3572  0.0054
  614TIP3    H1 1785   2.019   6.520   5.209  0.9758  0.9902 -0.2839
  614TIP3    H2 1786   2.139   6.460   5.138  0.3855 -1.5452  0.7996
  615TIP3   OH2 1787   7.943   2.386   1.314  0.1135  0.9265  0.0646
  615TIP3    H1 1788   7.976   2.476   1.316  1.2918  0.5310 -0.7428
  615TIP3    H2 1789   8.017   2.333   1.343 -0.2346  0.1298 -0.4935
  616TIP3   OH2 1790   6.337   0.264   2.416  0.7052  0.2166 -0.1233
  616TIP3    H1 1791   6.367   0.317   2.342 -0.4020  0.2376 -0.5686
  616TIP3    H2 1792   6.380   0.304   2.492  0.4070  1.3455 -0.5351
  617TIP3   OH2 1793   5.274   1.813   1.126  0.1792 -0.3947 -0.2551
  617TIP3    H1 1794   5.351   1.817   1.183 -1.0089  0.5104  1.3411
  617TIP3    H2 1795   5.232   1.899   1.137  0.7960  0.4397 -3.7750
  618TIP3   OH2 1796   3.892   7.398   2.097 -0.0928 -0.1975  0.0414
  618TIP3    H1 1797   3.839   7.361   2.026  1.6837 -0.4933 -1.1450
  618TIP3    H2 1798   3.966   7.439   2.053 -0.2007  1.7433  1.5774
  619TIP3   OH2 1799   7.754   2.172   2.239  0.4998  0.0086  0.6584
  619TIP3    H1 1800   7.766   2.251   2.292  0.2303  0.1987  0.4398
  619TIP3    H2 1801   7.710   2.203   2.160  4.1724  0.3256 -1.3550
  620TIP3   OH2 1802   1.545   5.695   4.729  0.6474  0.1023  0.2442
  620TIP3    H1 1803   1.479   5.761   4.710  2.3320  2.2507  1.6328
  620TIP3    H2 1804   1.495   5.619   4.759 -1.2144  1.5085  0.7729
  621TIP3   OH2 1805   6.433   1.940   1.077  0.1757 -0.1830 -0.2229
  621TIP3    H1 1806   6.471   1.889   1.148 -0.4206 -0.2463  0.0571
  621TIP3    H2 1807   6.416   1.876   1.008 -0.1836 -0.2941 -0.0322
  622TIP3   OH2 1808   7.733   3.619   0.826 -0.1287 -0.2985 -0.2983
  622TIP3    H1 1809   7.674   3.645   0.897 -0.4848  0.2853 -0.8013
  622TIP3    H2 1810   7.680   3.629   0.746  0.1560 -1.2917 -0.6197
  623TIP3   OH2 1811   5.389   1.854   3.327 -0.2287  0.2495  0.1755
  623TIP3    H1 1812   5.336   1.775   3.321  1.3322 -0.7261 -1.1693
  623TIP3    H2 1813   5.463   1.829   3.383  0.7710  0.4617 -1.0394
  624TIP3   OH2 1814   6.705   4.167   0.914  0.2075  0.2207  0.6185
  624TIP3    H1 1815   6.654   4.245   0.894 -1.5070 -0.7258  1.1456
  624TIP3    H2 1816   6.792   4.184   0.879 -0.2553  2.2115  0.4303
  625TIP3   OH2 1817   7.168   3.051   0.032  0.0358 -0.2859  0.1614
  625TIP3    H1 1818   7.180   3.141   0.065  1.2202 -1.1473  2.1862
  625TIP3    H2 1819   7.173   3.060  -0.063 -0.8829  1.9329  0.2706
  626TIP3   OH2 1820   2.977   6.033   6.885 -0.7872  0.1806  0.1372
  626TIP3    H1 1821   2.972   6.030   6.790 -0.4394 -1.1338  0.1539
  626TIP3    H2 1822   2.906   5.977   6.916 -0.6914  0.3327  0.6537
  627TIP3   OH2 1823   7.542   1.362   1.473  0.3925 -0.6849 -0.4464
  627TIP3    H1 1824   7.491   1.336   1.396 -0.9867  0.8917 -0.1046
  627TIP3    H2 1825   7.484   1.423   1.520  2.1752  0.2846  0.5319
  628TIP3   OH2 1826   6.265   2.768   1.905  0.0028 -0.1744 -0.3984
  628TIP3    H1 1827   6.257   2.778   1.811 -2.4588 -0.4340 -0.2444
  628TIP3    H2 1828   6.343   2.714   1.917 -0.2238 -0.9578 -2.3341
  629TIP3   OH2 1829   0.663   3.113   2.722  0.2729  0.2528  0.0529
  629TIP3    H1 1830   0.644   3.068   2.804  0.1123 -0.2775 -0.2724
  629TIP3    H2 1831   0.653   3.046   2.655  0.6674  0.6197 -0.3754
  630TIP3   OH2 1832   7.546   1.779   1.653 -0.3323 -0.0153 -0.1112
  630TIP3    H1 1833   7.489   1.707   1.626 -0.5230 -0.7914  2.2257
  630TIP3    H2 1834   7.531   1.787   1.747  2.0764  0.9478  0.2263
  631TIP3   OH2 1835   6.693   2.003   0.356  0.3985 -0.3047 -0.1191
  631TIP3    H1 1836   6.774   2.003   0.407 -0.1157 -1.3559  0.7146
  631TIP3    H2 1837   6.646   2.080   0.385  1.0331  0.2457 -0.5189
  632TIP3   OH2 1838   7.193   1.411   1.412  0.1329 -0.1311 -0.1670
  632TIP3    H1 1839   7.100   1.414   1.431  0.4111 -2.2647  1.7122
  632TIP3    H2 1840   7.200   1.355   1.334 -0.2254  0.9500 -0.9883
  633TIP3   OH2 1841   7.392   1.871   1.402  0.1191  0.4729 -0.1656
  633TIP3    H1 1842   7.410   1.842   1.491  0.9909 -0.6153 -0.6880
  633TIP3    H2 1843   7.409   1.795   1.347 -0.1033  1.2177 -1.3042
  634TIP3   OH2 1844   7.107   4.340   0.353  0.7490  0.1941 -0.0400
  634TIP3    H1 1845   7.014   4.320   0.346  0.1019  2.9354  0.0049
  634TIP3    H2 1846   7.144   4.266   0.401 -1.6548 -0.2997  1.1401
  635TIP3   OH2 1847   6.197   4.657   6.802 -0.1678 -0.5070  0.1050
  635TIP3    H1 1848   6.178   4.631   6.712  0.7737 -1.4254  0.1633
  635TIP3    H2 1849   6.241   4.581   6.840  0.6506  0.3813  0.9351
  636TIP3   OH2 1850   0.899   5.827   6.594  0.5043 -0.5158 -0.4836
  636TIP3    H1 1851   0.830   5.797   6.534  0.8122  0.6957 -1.4635
  636TIP3    H2 1852   0.981   5.796   6.554  0.6816 -0.0383 -0.4978
  637TIP3   OH2 1853   6.895   1.633   0.936 -0.1062  0.3387 -0.4319
  637TIP3    H1 1854   6.853   1.702   0.987  0.5291 -0.1707  0.7913
  637TIP3    H2 1855   6.822   1.587   0.894 -0.5335  1.6720 -1.1732
  638TIP3   OH2 1856   6.514   0.433   1.828  0.3387  0.4683  0.3724
  638TIP3    H1 1857   6.544   0.448   1.917 -0.1311  1.7345  0.3342
  638TIP3    H2 1858   6.436   0.488   1.819 -1.3791 -1.9316  0.1283
  639TIP3   OH2 1859   7.379   5.452   6.752  0.5358  0.1811 -0.3825
  639TIP3    H1 1860   7.316   5.406   6.808  0.9695  1.6611  1.3646
  639TIP3    H2 1861   7.464   5.433   6.791  0.7439  2.2202  0.1844
  640TIP3   OH2 1862   2.160   3.688   5.603  0.1488 -0.1532  0.7006
  640TIP3    H1 1863   2.098   3.736   5.547  0.6596 -0.3290 -0.0225
  640TIP3    H2 1864   2.105   3.650   5.672 -0.2229  1.8443  1.5633
  641TIP3   OH2 1865   7.323   2.015   1.030  0.5477 -0.1046 -0.3478
  641TIP3    H1 1866   7.307   2.007   0.936 -1.1055  1.7148 -0.2477
  641TIP3    H2 1867   7.271   1.944   1.069  2.6646 -2.0285 -0.8815
  642TIP3   OH2 1868   7.376   3.749   2.465 -0.1796  0.0822  0.3304
  642TIP3    H1 1869   7.398   3.738   2.557  0.0380 -1.7212  0.0829
  642TIP3    H2 1870   7.288   3.712   2.457 -1.2018  2.4314  0.2666
  643TIP3   OH2 1871   2.553   2.636   2.828 -0.0753  0.0684 -0.4501
  643TIP3    H1 1872   2.540   2.730   2.823  0.2721  0.1962  0.8882
  643TIP3    H2 1873   2.564   2.608   2.737  0.4849  1.4101 -0.7979
  644TIP3   OH2 1874   7.419   2.354   2.197 -0.1191  0.0979 -0.3097
  644TIP3    H1 1875   7.337   2.357   2.149  0.0356  0.3555 -0.5593
  644TIP3    H2 1876   7.482   2.319   2.134  0.6247  2.7280 -1.0833
  645TIP3   OH2 1877   7.538   3.633   1.088 -0.2607  0.9456 -0.4289
  645TIP3    H1 1878   7.575   3.545   1.084  0.3110  1.1682 -0.1359
  645TIP3    H2 1879   7.445   3.620   1.101 -0.1559  0.3797 -0.2382
  646TIP3   OH2 1880   6.135   4.858   1.276  0.3724 -0.1274 -0.0845
  646TIP3    H1 1881   6.182   4.935   1.244 -1.0263  0.6341 -0.3309
  646TIP3    H2 1882   6.096   4.886   1.358 -0.5686 -0.4222 -0.4302
  647TIP3   OH2 1883   8.426   2.273   0.067  0.1884 -0.0494 -0.0422
  647TIP3    H1 1884   8.435   2.365   0.093 -0.3834  0.2450 -0.8636
  647TIP3    H2 1885   8.451   2.272  -0.026  1.8142 -1.0162  0.3802
  648TIP3   OH2 1886   8.039   2.265   0.362 -0.2228 -0.6337  0.5553
  648TIP3    H1 1887   8.117   2.285   0.414 -0.5139  1.0672  0.3836
  648TIP3    H2 1888   8.001   2.188   0.405  0.1821  0.0305  2.1595
  649TIP3   OH2 1889   6.500   2.294   0.613  0.4763 -0.4199 -0.2574
  649TIP3    H1 1890   6.506   2.200   0.594  2.1698 -0.3854  0.0089
  649TIP3    H2 1891   6.528   2.337   0.533  2.5595 -0.2136  0.5248
  650TIP3   OH2 1892   0.632   0.938   1.163 -0.5164 -0.4984  0.0385
  650TIP3    H1 1893   0.570   0.870   1.139 -1.0912 -1.1038  3.0353
  650TIP3    H2 1894   0.683   0.954   1.083 -2.2529 -2.3946 -1.4900
  651TIP3   OH2 1895   2.792   1.604   0.630 -0.7741 -0.2993 -0.3855
  651TIP3    H1 1896   2.880   1.601   0.593 -0.4534 -1.5282  0.4268
  651TIP3    H2 1897   2.743   1.660   0.571  0.3544 -0.2409 -1.2898
  652TIP3   OH2 1898   1.344   2.764   3.497 -0.1197 -0.6163  0.2461
  652TIP3    H1 1899   1.326   2.720   3.581 -0.1517  0.7112  0.9399
  652TIP3    H2 1900   1.284   2.839   3.496  1.5030  0.6834  0.0545
  653TIP3   OH2 1901   2.814   0.811   2.731  0.0214  0.2861  0.1380
  653TIP3    H1 1902   2.836   0.718   2.725 -0.6560  0.0353  1.3046
  653TIP3    H2 1903   2.896   0.852   2.760 -0.0047 -0.1315  0.8405
  654TIP3   OH2 1904   6.941   2.123   3.482  0.1011  0.1238 -0.0789
  654TIP3    H1 1905   6.922   2.207   3.441  0.3760  0.7734  1.1044
  654TIP3    H2 1906   7.028   2.100   3.449  0.3539  0.6779  0.1963
  655TIP3   OH2 1907   1.576   3.971   2.763 -0.1520  0.1569  0.3408
  655TIP3    H1 1908   1.657   4.013   2.792  0.1405 -0.7341  0.8360
  655TIP3    H2 1909   1.534   4.036   2.707  0.4250  0.9998  0.8792
  656TIP3   OH2 1910   6.484   3.600   1.414  0.2139 -0.6065 -0.0847
  656TIP3    H1 1911   6.472   3.687   1.376 -3.0076 -1.4335 -1.1355
  656TIP3    H2 1912   6.539   3.554   1.351 -0.4964 -0.2313 -0.9857
  657TIP3   OH2 1913   2.824   2.776   2.723  0.3174 -0.5651 -0.5290
  657TIP3    H1 1914   2.860   2.826   2.797 -0.0054 -1.0069 -0.0750
  657TIP3    H2 1915   2.784   2.699   2.763 -1.1004 -0.1010 -1.0386
  658TIP3   OH2 1916   0.271   3.297   0.320 -0.5668  0.0679 -0.0208
  658TIP3    H1 1917   0.198   3.307   0.259 -1.7734  1.4649  1.6091
  658TIP3    H2 1918   0.325   3.376   0.307 -0.6777  0.2345  0.5263
  659TIP3   OH2 1919   7.622   2.305   2.006 -0.0104  0.0911 -0.2742
  659TIP3    H1 1920   7.625   2.250   1.928 -2.2280 -0.2065 -0.1775
  659TIP3    H2 1921   7.642   2.393   1.975  0.4553 -0.2455 -0.9365
  660TIP3   OH2 1922   8.029   4.395   0.510 -0.1080 -0.4511  0.7788
  660TIP3    H1 1923   8.019   4.362   0.599  1.0273  0.3896  1.2274
  660TIP3    H2 1924   8.117   4.432   0.507 -0.7376  1.0797 -0.1779
  661TIP3   OH2 1925   0.233   1.325   1.948 -0.1245 -0.2434  0.1837
  661TIP3    H1 1926   0.156   1.380   1.933 -0.7256 -1.3033 -0.7510
  661TIP3    H2 1927   0.210   1.273   2.025 -0.5187 -0.8415 -0.3310
  662TIP3   OH2 1928   1.466   4.679   1.546  0.5098 -0.2984  0.4814
  662TIP3    H1 1929   1.521   4.665   1.469  0.0779 -1.2249  0.3247
  662TIP3    H2 1930   1.447   4.590   1.578  0.7522  0.0737  1.7011
  663TIP3   OH2 1931   1.774   4.399   2.305 -0.1095 -0.4024 -0.0084
  663TIP3    H1 1932   1.699   4.411   2.247 -0.4289  1.2389  0.7205
  663TIP3    H2 1933   1.812   4.487   2.313  1.0617 -0.9729  0.7448
  664TIP3   OH2 1934   0.615   1.895   4.166 -0.2054  0.0770 -0.6731
  664TIP3    H1 1935   0.629   1.970   4.224  0.5969  1.0985 -2.1742
  664TIP3    H2 1936   0.702   1.868   4.140 -0.4208 -2.0370  0.6194
  665TIP3   OH2 1937   8.400   2.058   3.217 -0.1670  0.2661  0.5226
  665TIP3    H1 1938   8.469   1.993   3.206  0.1547  0.4912  1.1980
  665TIP3    H2 1939   8.332   2.031   3.156  0.7491  0.3507 -0.5527
  666TIP3   OH2 1940   5.454   4.057   0.795 -0.5752  0.5520 -0.7933
  666TIP3    H1 1941   5.498   3.977   0.823 -0.1352  0.9657 -0.2889
  666TIP3    H2 1942   5.444   4.047   0.701  1.0766  0.6743 -0.9972
  667TIP3   OH2 1943   7.961   4.126   4.351 -0.1948 -0.6333 -0.1859
  667TIP3    H1 1944   8.053   4.101   4.365 -0.2376 -0.5220  0.2946
  667TIP3    H2 1945   7.957   4.218   4.378 -0.3667 -0.5286 -0.5654
  668TIP3   OH2 1946   8.223   1.520   3.652 -0.0584  0.3513  0.0316
  668TIP3    H1 1947   8.183   1.597   3.691 -0.5166 -1.0324  2.4571
  668TIP3    H2 1948   8.311   1.517   3.691 -0.2409 -0.6275  0.3854
  669TIP3   OH2 1949   1.066   3.446   2.649  0.1269  0.1055  0.6070
  669TIP3    H1 1950   1.114   3.393   2.585  0.6858  0.4385  0.7464
  669TIP3    H2 1951   0.978   3.453   2.612  0.5036  0.4878 -0.2466
  670TIP3   OH2 1952   1.420   4.252   1.875 -0.0126 -0.3287 -0.0980
  670TIP3    H1 1953   1.439   4.271   1.967  0.8617 -0.3100 -0.2788
  670TIP3    H2 1954   1.420   4.157   1.870  0.7219 -0.3237 -0.2357
  671TIP3   OH2 1955   0.253   1.305   2.787  0.6064  0.4609 -0.1285
  671TIP3    H1 1956   0.160   1.299   2.811  0.7222  1.3407  0.5552
  671TIP3    H2 1957   0.299   1.254   2.853  0.5824 -0.3064 -0.6942
  672TIP3   OH2 1958   2.772   6.766   6.138 -0.6055 -0.1944  0.6365
  672TIP3    H1 1959   2.832   6.840   6.122 -0.0304 -0.6355  0.7272
  672TIP3    H2 1960   2.825   6.689   6.119 -2.2527 -0.5313 -3.1289
  673TIP3   OH2 1961   0.404   1.122   4.308  0.4536  0.0296 -0.0927
  673TIP3    H1 1962   0.468   1.189   4.330 -0.1102  0.0849  1.4395
  673TIP3    H2 1963   0.319   1.165   4.319  0.1295 -0.2427 -1.4386
  674TIP3   OH2 1964   1.175   4.482   2.199  0.4625 -0.2996 -0.3432
  674TIP3    H1 1965   1.258   4.472   2.154  0.9699  1.0899  0.2338
  674TIP3    H2 1966   1.159   4.577   2.199 -1.5147 -0.6097 -1.1532
  675TIP3   OH2 1967   1.327   3.875   3.512 -0.7427 -0.0401 -0.0571
  675TIP3    H1 1968   1.258   3.877   3.445 -1.2354 -0.0603  0.4470
  675TIP3    H2 1969   1.408   3.859   3.462 -1.0415  0.4153 -0.6971
  676TIP3   OH2 1970   1.228   5.723   3.930  0.1235 -0.3793  0.2231
  676TIP3    H1 1971   1.275   5.718   3.847 -1.4090  0.1574 -0.6827
  676TIP3    H2 1972   1.197   5.633   3.946  2.5740 -1.0470  1.5150
  677TIP3   OH2 1973   8.092   2.910   2.588  0.0205  0.0905 -0.5633
  677TIP3    H1 1974   8.077   3.003   2.571  0.3887  0.5462  1.5597
  677TIP3    H2 1975   8.180   2.893   2.555  0.8817  1.0640  1.1779
  678TIP3   OH2 1976   8.401   3.885   1.659  0.0995 -0.5238 -0.0151
  678TIP3    H1 1977   8.379   3.793   1.648 -1.4405 -0.1699 -0.0364
  678TIP3    H2 1978   8.316   3.929   1.670  0.7657  0.9666 -0.6295
  679TIP3   OH2 1979   1.221   2.838   2.215 -0.1548 -0.4011  0.6599
  679TIP3    H1 1980   1.296   2.842   2.276 -1.8257 -1.9688  2.9209
  679TIP3    H2 1981   1.253   2.785   2.142  1.4048  0.2041  0.8690
  680TIP3   OH2 1982   8.050   4.422   1.248  0.2006 -0.1922  0.1488
  680TIP3    H1 1983   7.987   4.483   1.287  0.1135  1.1848 -2.0342
  680TIP3    H2 1984   8.127   4.427   1.305 -1.3161 -1.2203  2.3376
  681TIP3   OH2 1985   0.626   2.021   1.379  0.6632  0.9280  0.1538
  681TIP3    H1 1986   0.553   2.081   1.394 -1.0040 -1.2081  0.8050
  681TIP3    H2 1987   0.613   1.988   1.290  0.1238 -0.3792  0.7056
  682TIP3   OH2 1988   8.364   1.559   2.832  0.0262  0.7655 -0.1878
  682TIP3    H1 1989   8.316   1.568   2.750 -0.7833 -0.6041  0.1210
  682TIP3    H2 1990   8.423   1.484   2.817 -0.2684  0.3860  0.5361
  683TIP3   OH2 1991   7.545   3.439   2.175  0.5825 -0.2595  0.2495
  683TIP3    H1 1992   7.533   3.420   2.082 -0.4659 -0.5689  0.4375
  683TIP3    H2 1993   7.532   3.533   2.183 -1.8832 -0.5881  0.4498
  684TIP3   OH2 1994   7.296   3.577   1.124 -0.0282  0.2211  0.4613
  684TIP3    H1 1995   7.239   3.569   1.047 -0.4224 -0.9028  0.8564
  684TIP3    H2 1996   7.240   3.616   1.191  0.9109  3.2563 -0.4166
  685TIP3   OH2 1997   7.077   4.335   2.728 -0.0656  0.0260  0.1314
  685TIP3    H1 1998   7.136   4.407   2.749  1.0748 -0.9886  0.4478
  685TIP3    H2 1999   7.099   4.267   2.791 -0.9240 -0.7198 -0.3649
  686TIP3   OH2 2000   7.288   3.112   2.635  0.0502  0.1616 -0.3208
  686TIP3    H1 2001   7.224   3.070   2.693  0.1581 -0.0248 -0.3380
  686TIP3    H2 2002   7.257   3.202   2.627  1.1056  0.7166  1.5974
  687TIP3   OH2 2003   8.512   1.693   1.102  0.0487 -0.2542  0.0285
  687TIP3    H1 2004   8.542   1.639   1.175  0.0801 -1.4042 -0.8197
  687TIP3    H2 2005   8.421   1.714   1.124  1.1246  2.5338  2.1907
  688TIP3   OH2 2006   2.759   0.329   2.054  1.1939  0.0830 -0.4161
  688TIP3    H1 2007   2.823   0.280   2.105 -0.8665 -1.3818  0.8063
  688TIP3    H2 2008   2.750   0.279   1.973 -0.0629 -0.9913  0.3611
  689TIP3   OH2 2009   7.997   3.988   2.893  0.0087 -0.3589 -0.1671
  689TIP3    H1 2010   8.054   4.029   2.828 -0.3621  0.4597  0.0190
  689TIP3    H2 2011   7.940   4.058   2.923 -1.3453 -1.2552 -0.6029
  690TIP3   OH2 2012   0.217   2.838   1.841  0.2798  0.1421  0.3267
  690TIP3    H1 2013   0.293   2.894   1.858  0.1454  0.2813  0.4811
  690TIP3    H2 2014   0.254   2.755   1.813  0.4873  0.2440  0.2981
  691TIP3   OH2 2015   1.306   4.289   1.405 -0.3648  0.1313  0.3723
  691TIP3    H1 2016   1.316   4.311   1.498  0.1284  0.8724  0.1474
  691TIP3    H2 2017   1.238   4.222   1.403  1.0871 -1.4093  1.4912
  692TIP3   OH2 2018   0.126   7.687   2.124 -0.0806  0.4620  0.0796
  692TIP3    H1 2019   0.031   7.680   2.113 -0.0188 -0.2030 -0.0492
  692TIP3    H2 2020   0.151   7.760   2.067 -0.4766  0.4762 -0.0823
  693TIP3   OH2 2021   2.979   2.610   3.081  0.3334  0.4730  0.2447
  693TIP3    H1 2022   2.984   2.587   2.988 -0.5055  0.2406  0.2479
  693TIP3    H2 2023   2.893   2.578   3.109 -0.0191  1.8366  0.7514
  694TIP3   OH2 2024   1.221   4.072   1.272  0.6734 -0.0019  0.3379
  694TIP3    H1 2025   1.278   4.148   1.263 -0.5137  0.7038 -1.5412
  694TIP3    H2 2026   1.264   4.002   1.222 -0.6638  0.8896 -2.1613
  695TIP3   OH2 2027   5.246   0.498   5.635  0.1189  0.3453 -0.3122
  695TIP3    H1 2028   5.244   0.512   5.730 -1.7971  2.1925 -0.5830
  695TIP3    H2 2029   5.210   0.411   5.623  0.4954  0.0449  0.6680
  696TIP3   OH2 2030   0.941   2.509   2.604  0.2061 -0.2820  0.0366
  696TIP3    H1 2031   0.951   2.601   2.577 -2.1610 -0.3730 -1.3689
  696TIP3    H2 2032   0.910   2.514   2.694  0.0686  0.3333 -0.0394
  697TIP3   OH2 2033   2.364   3.765   1.755  0.6976 -0.4701  0.0367
  697TIP3    H1 2034   2.271   3.787   1.766  0.7271 -1.5488  2.7262
  697TIP3    H2 2035   2.409   3.849   1.762 -0.0239 -0.0093 -0.7273
  698TIP3   OH2 2036   2.399   5.095   1.683  0.1939  0.2444 -0.3365
  698TIP3    H1 2037   2.473   5.095   1.744  0.8739  2.5548 -1.0972
  698TIP3    H2 2038   2.431   5.145   1.607 -1.7624  0.2918 -1.1577
  699TIP3   OH2 2039   2.045   2.785   1.751 -0.4193 -0.3758 -0.7507
  699TIP3    H1 2040   2.099   2.715   1.788 -2.0720 -0.5874  1.3725
  699TIP3    H2 2041   2.100   2.825   1.684  2.7749  0.1338  2.0455
  700TIP3   OH2 2042   8.324   5.187   1.545  0.3969 -0.6059 -0.1884
  700TIP3    H1 2043   8.412   5.150   1.550  1.2306  1.4802  1.4127
  700TIP3    H2 2044   8.338   5.282   1.543 -1.8385 -0.1368  2.6640
  701TIP3   OH2 2045   0.259   3.915   1.746 -0.7612  0.0495  0.2219
  701TIP3    H1 2046   0.304   3.981   1.692 -2.3980  2.3078  1.5613
  701TIP3    H2 2047   0.211   3.965   1.811 -2.1020 -2.4938  1.2708
  702TIP3   OH2 2048   0.674   1.836   2.757  1.1865  0.5468 -0.3088
  702TIP3    H1 2049   0.672   1.772   2.829  1.8117  0.5999 -0.2405
  702TIP3    H2 2050   0.583   1.842   2.728  1.0424  0.0025  0.0188
  703TIP3   OH2 2051   4.303   6.978   5.701  0.1380 -0.3855  0.1643
  703TIP3    H1 2052   4.369   7.006   5.765  1.3623 -0.3129 -1.1185
  703TIP3    H2 2053   4.320   7.030   5.623 -1.5011 -0.3042 -0.1599
  704TIP3   OH2 2054   8.214   4.081   1.342 -0.5967  0.1349 -0.2395
  704TIP3    H1 2055   8.195   4.106   1.251 -0.8937  0.1796 -0.1667
  704TIP3    H2 2056   8.152   4.010   1.360 -0.1874 -0.2235 -0.2384
  705TIP3   OH2 2057   3.157   2.329   1.287  0.4688 -0.3058  0.2155
  705TIP3    H1 2058   3.094   2.260   1.266  0.7975 -0.7352  0.6062
  705TIP3    H2 2059   3.118   2.375   1.362  0.9310 -1.0096  0.9012
  706TIP3   OH2 2060   7.963   2.688   3.432 -0.3017 -0.2988 -0.2177
  706TIP3    H1 2061   7.931   2.749   3.499 -1.8243 -1.4037  0.1010
  706TIP3    H2 2062   7.986   2.743   3.358  0.4397  0.8538  0.8536
  707TIP3   OH2 2063   2.669   3.042   1.855 -0.0169 -0.0868 -0.4638
  707TIP3    H1 2064   2.680   3.006   1.767  0.3162 -1.5102  0.1475
  707TIP3    H2 2065   2.692   2.970   1.914 -0.3975  0.7952  0.7935
  708TIP3   OH2 2066   1.041   5.805   0.240  0.5413 -0.2142  0.2108
  708TIP3    H1 2067   1.095   5.853   0.178 -0.3076 -1.0661 -1.2011
  708TIP3    H2 2068   1.055   5.849   0.324  0.7680  1.6790 -0.8139
  709TIP3   OH2 2069   3.681   2.754   1.496  0.3482  0.3292 -0.1351
  709TIP3    H1 2070   3.602   2.762   1.549 -0.5528 -0.0248 -1.3853
  709TIP3    H2 2071   3.657   2.790   1.411  0.4038 -2.8905 -1.6229
  710TIP3   OH2 2072   0.156   3.730   1.966 -0.3905  0.6271 -0.1687
  710TIP3    H1 2073   0.196   3.721   1.879 -0.2028  2.0488 -0.2331
  710TIP3    H2 2074   0.214   3.679   2.024 -0.6351 -0.4982 -0.8949
  711TIP3   OH2 2075   2.537   3.553   0.904  0.0595 -0.4236 -0.1009
  711TIP3    H1 2076   2.499   3.641   0.907  1.6706  0.2813  0.4847
  711TIP3    H2 2077   2.488   3.504   0.969  0.4431  0.6128  1.0081
  712TIP3   OH2 2078   3.582   0.929   2.327  0.1446 -0.4983  0.0465
  712TIP3    H1 2079   3.590   1.002   2.266  0.9988 -1.2162 -0.7034
  712TIP3    H2 2080   3.489   0.906   2.325 -0.6584  2.1609  2.1637
  713TIP3   OH2 2081   2.085   3.605   3.591 -0.0486  0.3384  0.3544
  713TIP3    H1 2082   2.030   3.570   3.661 -0.9442 -0.8571 -0.9179
  713TIP3    H2 2083   2.172   3.568   3.608 -0.0876  0.6470  1.2409
  714TIP3   OH2 2084   1.918   4.010   0.315  0.3886  0.2287 -0.0306
  714TIP3    H1 2085   1.984   3.958   0.361  0.3478  0.8507  0.7498
  714TIP3    H2 2086   1.888   3.954   0.245 -0.6398 -1.3274  1.6149
  715TIP3   OH2 2087   1.643   2.246   1.903  0.2298  0.6198  0.1072
  715TIP3    H1 2088   1.589   2.250   1.981  0.7196  0.5169  0.4518
  715TIP3    H2 2089   1.654   2.337   1.876 -2.4290  0.4899 -1.5652
  716TIP3   OH2 2090   1.897   7.348   6.618 -0.3647 -0.7065  0.0563
  716TIP3    H1 2091   1.827   7.313   6.672 -0.1594  0.3761  1.0346
  716TIP3    H2 2092   1.893   7.443   6.631  0.9635 -0.5943 -0.2619
  717TIP3   OH2 2093   2.246   4.426   1.163  0.0733  0.3998  0.0934
  717TIP3    H1 2094   2.334   4.464   1.171 -0.7321  2.1706  0.7009
  717TIP3    H2 2095   2.216   4.414   1.253 -0.5951  0.4628 -0.1152
  718TIP3   OH2 2096   1.055   5.464   0.783 -0.0040  0.5363 -0.5838
  718TIP3    H1 2097   1.030   5.374   0.805  1.5378  0.2017 -0.1622
  718TIP3    H2 2098   1.063   5.464   0.687  0.6190  0.0466 -0.5375
  719TIP3   OH2 2099   1.049   5.189   1.565  0.4062  0.3437  0.6368
  719TIP3    H1 2100   0.964   5.223   1.591  1.8987  3.1787  2.0794
  719TIP3    H2 2101   1.077   5.247   1.494  1.7721  0.3920  1.2021
  720TIP3   OH2 2102   1.568   4.185   4.199  0.0267  0.0052 -0.1180
  720TIP3    H1 2103   1.538   4.275   4.211 -2.0784 -0.4391 -1.6253
  720TIP3    H2 2104   1.565   4.172   4.104 -1.7728 -2.2852  0.2131
  721TIP3   OH2 2105   0.080   3.862   0.384 -0.1281 -0.6457  0.0011
  721TIP3    H1 2106   0.005   3.919   0.366 -0.1440 -0.2549  1.2443
  721TIP3    H2 2107   0.132   3.910   0.448 -0.4467 -2.2460  1.5211
  722TIP3   OH2 2108   8.393   3.832   2.472 -0.2381  0.2857  0.0639
  722TIP3    H1 2109   8.382   3.775   2.548 -0.8410  0.7413  0.3213
  722TIP3    H2 2110   8.477   3.806   2.434  0.5645  0.7580  1.4766
  723TIP3   OH2 2111   2.039   3.819   1.703  0.6566  0.1798 -0.3590
  723TIP3    H1 2112   1.961   3.874   1.710 -0.0572 -0.9432  0.9410
  723TIP3    H2 2113   2.004   3.731   1.688  1.7010 -0.2558 -0.2620
  724TIP3   OH2 2114   0.187   4.368   2.174  0.1936  0.4686  0.5099
  724TIP3    H1 2115   0.234   4.437   2.221  2.6945 -0.8420  0.0208
  724TIP3    H2 2116   0.180   4.400   2.084  0.8390  0.3682  0.4171
  725TIP3   OH2 2117   1.917   3.881   0.914 -0.1770 -0.6833 -0.1518
  725TIP3    H1 2118   1.917   3.840   0.827 -0.0414 -3.0609  0.9176
  725TIP3    H2 2119   1.850   3.949   0.908  1.6079  0.9243 -2.8597
  726TIP3   OH2 2120   6.444   0.026   5.864 -0.2255 -0.3695  0.1100
  726TIP3    H1 2121   6.387   0.030   5.788  2.6917 -2.9572 -2.3900
  726TIP3    H2 2122   6.500   0.104   5.857  1.6563 -1.8299 -1.8779
  727TIP3   OH2 2123   5.829   1.147   5.897 -0.0614 -0.5196 -0.1503
  727TIP3    H1 2124   5.884   1.183   5.827  1.9118 -2.8547  0.1300
  727TIP3    H2 2125   5.767   1.091   5.851 -0.9693  0.5706 -0.2874
  728TIP3   OH2 2126   2.148   4.127   0.646  0.5572 -0.8189 -0.5460
  728TIP3    H1 2127   2.141   4.081   0.730 -0.3681  0.0252 -0.1419
  728TIP3    H2 2128   2.237   4.160   0.643 -0.1041  1.2356  1.2377
  729TIP3   OH2 2129   0.188   4.440   0.600 -0.0884 -0.2999 -0.0931
  729TIP3    H1 2130   0.276   4.429   0.636 -0.0231  1.8988  0.4474
  729TIP3    H2 2131   0.192   4.398   0.514  2.5368  2.9376 -1.6094
  730TIP3   OH2 2132   6.386   0.323   6.282 -0.1860  0.2694  0.2210
  730TIP3    H1 2133   6.446   0.352   6.351 -0.2229  0.9215 -0.0122
  730TIP3    H2 2134   6.400   0.229   6.276 -0.1736  0.2136  1.1088
  731TIP3   OH2 2135   2.362   3.707   0.490 -0.2492  0.0047  0.3029
  731TIP3    H1 2136   2.376   3.673   0.402  0.0535 -1.4382  0.8844
  731TIP3    H2 2137   2.297   3.648   0.529  0.4622 -0.0717  1.4234
  732TIP3   OH2 2138   3.000   4.925   1.749  0.0834 -0.4986 -0.4979
  732TIP3    H1 2139   3.056   4.847   1.751  0.0662 -0.4744  0.8336
  732TIP3    H2 2140   3.054   4.992   1.706  1.7644  0.0400  2.3527
  733TIP3   OH2 2141   0.687   4.583   1.027 -0.3333  0.5181 -0.7616
  733TIP3    H1 2142   0.782   4.573   1.033 -0.5080  0.2247  2.3456
  733TIP3    H2 2143   0.660   4.518   0.961  1.1882 -2.4012  1.3876
  734TIP3   OH2 2144   3.006   1.849   3.166  0.4202  0.3982  0.0053
  734TIP3    H1 2145   3.007   1.827   3.259  0.2208 -0.1411 -0.1135
  734TIP3    H2 2146   3.087   1.897   3.151  1.0551 -0.6050  0.1989
  735TIP3   OH2 2147   0.241   2.563   2.091 -0.3088 -0.3395 -0.0700
  735TIP3    H1 2148   0.219   2.483   2.139 -3.1129  1.2903  1.5270
  735TIP3    H2 2149   0.156   2.600   2.067  0.9843  1.2122 -2.4015
  736TIP3   OH2 2150   0.735   4.149   2.299 -0.1196  0.6129 -0.1888
  736TIP3    H1 2151   0.719   4.209   2.372 -0.7053 -0.6188  0.7300
  736TIP3    H2 2152   0.824   4.117   2.314 -0.1808  0.4838 -0.0951
  737TIP3   OH2 2153   2.194   2.933   2.900 -0.2083  0.5038  0.3257
  737TIP3    H1 2154   2.159   3.016   2.932  0.8982  1.2725 -0.4220
  737TIP3    H2 2155   2.155   2.922   2.814 -0.3823  0.2204  0.4383
  738TIP3   OH2 2156   1.255   3.646   0.945  0.3816  0.2973  0.1526
  738TIP3    H1 2157   1.276   3.728   0.899 -0.5712  0.7729  0.5482
  738TIP3    H2 2158   1.297   3.655   1.031  2.1990 -0.6105 -0.6232
  739TIP3   OH2 2159   7.422   2.492   2.798 -0.1731 -0.0041 -0.1420
  739TIP3    H1 2160   7.351   2.459   2.854  0.1068 -0.5225 -0.0819
  739TIP3    H2 2161   7.379   2.549   2.735 -1.0643 -2.4211 -1.8287
  740TIP3   OH2 2162   1.765   0.082   1.637  0.1452  0.2788  0.0644
  740TIP3    H1 2163   1.811   0.110   1.558  0.6720 -0.3762  0.1332
  740TIP3    H2 2164   1.746  -0.011   1.622 -1.7709  0.6932 -0.2602
  741TIP3   OH2 2165   3.526   0.810   3.126 -0.0293  0.4041  0.1311
  741TIP3    H1 2166   3.518   0.716   3.111 -1.2306  0.4975  0.1494
  741TIP3    H2 2167   3.581   0.841   3.054 -1.5759  0.0583 -1.2334
  742TIP3   OH2 2168   1.994   4.282   2.880 -1.0439  0.2338 -0.1059
  742TIP3    H1 2169   1.960   4.369   2.901 -0.7381  0.2798  0.2092
  742TIP3    H2 2170   2.025   4.247   2.964  1.2350  0.8698 -0.6354
  743TIP3   OH2 2171   2.256   5.512   2.508  0.1647 -0.1611  0.0156
  743TIP3    H1 2172   2.301   5.586   2.548  0.5189 -1.4577  2.0803
  743TIP3    H2 2173   2.320   5.442   2.508 -0.3670 -0.6655 -1.3643
  744TIP3   OH2 2174   2.619   4.118   2.136  0.1144  0.2828 -0.0892
  744TIP3    H1 2175   2.646   4.028   2.154 -0.6452  0.0766  0.0275
  744TIP3    H2 2176   2.550   4.110   2.069 -0.1015  0.7604  0.0722
  745TIP3   OH2 2177   0.639   3.887   1.566 -0.5394 -0.3107  0.2754
  745TIP3    H1 2178   0.714   3.862   1.514 -0.2309 -0.4970  0.8096
  745TIP3    H2 2179   0.607   3.806   1.605 -2.9718 -0.7693 -2.4838
  746TIP3   OH2 2180   1.244   2.669   1.962 -0.6422  0.1829  0.1467
  746TIP3    H1 2181   1.211   2.591   1.918  0.4407 -1.5096  2.2536
  746TIP3    H2 2182   1.334   2.678   1.931 -0.2830 -0.2858  1.0373
  747TIP3   OH2 2183   2.469   4.590   1.455 -0.2847  0.6815  0.4659
  747TIP3    H1 2184   2.530   4.576   1.383  0.1666  0.5159  0.8811
  747TIP3    H2 2185   2.393   4.632   1.414 -0.5119 -0.4649 -0.3138
  748TIP3   OH2 2186   1.682   2.586   3.689 -0.3098 -0.1863  0.2752
  748TIP3    H1 2187   1.676   2.551   3.600 -0.5192 -0.9270  0.5762
  748TIP3    H2 2188   1.729   2.669   3.679  1.7166 -1.3426 -0.2504
  749TIP3   OH2 2189   2.321   4.396   3.977  0.0333  0.0193  0.5428
  749TIP3    H1 2190   2.375   4.410   3.899 -0.3490 -0.0601  0.2636
  749TIP3    H2 2191   2.330   4.303   3.997 -0.8971 -0.2340 -0.1716
  750TIP3   OH2 2192   1.772   3.332   2.553 -0.6487  0.2512  0.5090
  750TIP3    H1 2193   1.845   3.380   2.592 -0.4038  0.4789 -0.2232
  750TIP3    H2 2194   1.696   3.353   2.607 -0.0533 -0.4636  1.6436
  751TIP3   OH2 2195   2.773   4.954   2.187 -0.4634 -0.1118  0.1857
  751TIP3    H1 2196   2.805   4.874   2.145 -1.0120  0.1710 -0.7756
  751TIP3    H2 2197   2.838   5.021   2.166 -0.6735  0.0015 -0.0951
  752TIP3   OH2 2198   8.392   5.028   1.203  0.1602 -0.2111  0.8262
  752TIP3    H1 2199   8.383   5.055   1.111 -0.2668  1.7469  1.4202
  752TIP3    H2 2200   8.476   4.984   1.207  0.2070 -0.2731 -0.5011
  753TIP3   OH2 2201   4.085   7.653   6.629 -0.2550 -0.2244  0.4216
  753TIP3    H1 2202   4.094   7.563   6.661 -0.2190 -1.0288 -1.7996
  753TIP3    H2 2203   4.149   7.703   6.681  0.4314 -1.6508  0.9736
  754TIP3   OH2 2204   0.928   6.355   2.280  0.4045 -0.0498  0.0806
  754TIP3    H1 2205   0.843   6.397   2.294  1.7140  2.8908 -0.2901
  754TIP3    H2 2206   0.968   6.351   2.367  1.0384  1.2622 -0.1326
  755TIP3   OH2 2207   0.522   3.256   2.339 -0.1997  0.2234 -0.2569
  755TIP3    H1 2208   0.444   3.310   2.347  1.0202  1.8111  1.2481
  755TIP3    H2 2209   0.575   3.301   2.273 -1.1887 -1.6904 -2.4341
  756TIP3   OH2 2210   0.979   2.771   2.519 -0.3817  0.4095  0.7603
  756TIP3    H1 2211   0.905   2.797   2.465  0.1166  0.4551  0.1002
  756TIP3    H2 2212   0.999   2.849   2.572 -0.4080  0.5981  0.4912
  757TIP3   OH2 2213   7.159   4.480   1.186 -0.3638  0.0622 -0.3266
  757TIP3    H1 2214   7.119   4.398   1.215 -1.6513  1.2207  1.3079
  757TIP3    H2 2215   7.099   4.548   1.217  1.0518  1.6692 -1.0042
  758TIP3   OH2 2216   2.332   6.410   5.360  0.1402 -0.4083  1.0948
  758TIP3    H1 2217   2.380   6.427   5.279  0.9964 -1.2308  1.4312
  758TIP3    H2 2218   2.310   6.497   5.393  0.1622 -0.0593  0.2082
  759TIP3   OH2 2219   5.395   0.630   6.480 -0.4190  0.1029 -0.2600
  759TIP3    H1 2220   5.456   0.599   6.412 -0.9644  0.8338 -1.1008
  759TIP3    H2 2221   5.452   0.654   6.553  0.1742 -0.8196 -0.3984
  760TIP3   OH2 2222   1.586   3.820   3.428 -0.1593  0.3397 -0.5168
  760TIP3    H1 2223   1.664   3.873   3.445 -0.7815  1.3036 -0.5835
  760TIP3    H2 2224   1.619   3.733   3.408  0.8715  0.6244 -0.0571
  761TIP3   OH2 2225   2.017   3.139   2.547 -0.2613  0.1927 -0.3296
  761TIP3    H1 2226   2.104   3.147   2.507  0.0624 -2.6430 -0.3340
  761TIP3    H2 2227   1.988   3.229   2.561  1.8098  1.2017 -2.2087
  762TIP3   OH2 2228   1.444   4.781   2.251  0.0517 -0.1072  0.4824
  762TIP3    H1 2229   1.526   4.827   2.232 -0.1919 -0.7500 -2.3558
  762TIP3    H2 2230   1.450   4.700   2.199 -1.5655 -1.0591  1.7381
  763TIP3   OH2 2231   7.789   5.059   1.515 -0.3799 -0.3682 -0.2041
  763TIP3    H1 2232   7.796   5.093   1.425  0.6377 -1.0504 -0.3876
  763TIP3    H2 2233   7.777   5.137   1.569 -2.5022 -0.0473 -1.0679
  764TIP3   OH2 2234   2.092   3.066   1.992 -0.3289  0.1709 -0.5256
  764TIP3    H1 2235   2.178   3.040   1.957 -0.4134  0.3722 -0.8828
  764TIP3    H2 2236   2.106   3.155   2.023 -0.7719  0.7019 -1.8422
  765TIP3   OH2 2237   8.217   1.961   1.435 -0.0286 -0.7329 -0.3743
  765TIP3    H1 2238   8.180   1.928   1.517  0.9127 -3.0052 -0.8275
  765TIP3    H2 2239   8.156   2.030   1.408 -1.0638 -0.8440  1.5506
  766TIP3   OH2 2240   1.536   5.048   1.422 -0.4313  0.3985  0.4057
  766TIP3    H1 2241   1.561   4.993   1.347 -0.3345 -0.7727  1.2775
  766TIP3    H2 2242   1.443   5.065   1.409 -0.0743  1.4756 -0.7814
  767TIP3   OH2 2243   6.792   0.279   6.531  1.1180 -0.1873  0.3112
  767TIP3    H1 2244   6.829   0.223   6.600  1.4580 -0.1201  0.1860
  767TIP3    H2 2245   6.789   0.223   6.454  0.6540 -0.2886  0.4050
  768TIP3   OH2 2246   1.858   1.458   1.859  0.6385 -0.2040 -0.3063
  768TIP3    H1 2247   1.820   1.454   1.947  0.4726 -0.9249 -0.4076
  768TIP3    H2 2248   1.949   1.485   1.873  0.2310  1.0499 -0.0250
  769TIP3   OH2 2249   2.944   7.593   6.935  0.0289  0.0792  0.4353
  769TIP3    H1 2250   3.036   7.617   6.924 -0.3954  0.9639 -1.2868
  769TIP3    H2 2251   2.900   7.675   6.958 -0.5789 -0.0558 -0.2450
  770TIP3   OH2 2252   2.822   1.283   2.664  0.4069 -0.4941 -0.2146
  770TIP3    H1 2253   2.897   1.312   2.716  0.5170 -1.3719  0.1285
  770TIP3    H2 2254   2.784   1.364   2.630  2.7715 -0.1447 -2.1605
  771TIP3   OH2 2255   1.326   2.437   2.200  0.5171 -0.5003  0.6361
  771TIP3    H1 2256   1.378   2.504   2.156  1.1332 -0.1481  1.9027
  771TIP3    H2 2257   1.385   2.362   2.207  0.1970 -0.7943  0.2698
  772TIP3   OH2 2258   0.885   5.663   3.764 -0.2490 -0.0693  0.7462
  772TIP3    H1 2259   0.945   5.594   3.792 -0.1265 -0.1439  0.2974
  772TIP3    H2 2260   0.805   5.617   3.739  0.4274 -0.2033 -1.2084
  773TIP3   OH2 2261   6.550   0.436   6.797 -0.0449  0.2431  0.4204
  773TIP3    H1 2262   6.556   0.515   6.852 -0.0982  1.0702 -0.7503
  773TIP3    H2 2263   6.463   0.401   6.816 -0.2674  0.8196  0.4798
  774TIP3   OH2 2264   7.308   5.391   2.957 -0.0687  0.2844  0.3046
  774TIP3    H1 2265   7.345   5.463   2.907 -0.2998  0.8481  0.9326
  774TIP3    H2 2266   7.347   5.312   2.919 -0.0300  0.7224 -0.5611
  775TIP3   OH2 2267   2.779   7.893   6.811  0.3171  0.4067  0.0510
  775TIP3    H1 2268   2.816   7.977   6.785 -0.9420  1.1566  0.6312
  775TIP3    H2 2269   2.738   7.858   6.732 -0.5197  1.0738  0.1899
  776TIP3   OH2 2270   1.864   2.775   2.633  0.0814 -0.8009  0.1835
  776TIP3    H1 2271   1.929   2.809   2.694 -0.3845 -0.5511  0.5433
  776TIP3    H2 2272   1.892   2.686   2.615 -0.6117 -1.4015  1.9556
  777TIP3   OH2 2273   0.531   2.974   0.656  0.1256  0.2936 -0.1075
  777TIP3    H1 2274   0.501   3.055   0.615  1.2069  0.6557 -0.1891
  777TIP3    H2 2275   0.467   2.957   0.725  0.5777  1.8939  0.7272
  778TIP3   OH2 2276   7.976   1.660   2.636 -0.0938  0.1151  0.6552
  778TIP3    H1 2277   7.997   1.752   2.646  0.5431 -0.0261  0.6301
  778TIP3    H2 2278   7.893   1.659   2.588  0.6016  0.6642 -0.5848
  779TIP3   OH2 2279   0.362   2.638   2.333 -0.4967  0.5019  0.9326
  779TIP3    H1 2280   0.319   2.656   2.250  0.5683 -1.5305 -0.1179
  779TIP3    H2 2281   0.389   2.723   2.366 -0.4949  1.2980 -1.0632
  780TIP3   OH2 2282   0.466   4.372   0.580 -0.1847  0.2954  0.4879
  780TIP3    H1 2283   0.535   4.379   0.514 -1.3401 -2.1129 -1.0667
  780TIP3    H2 2284   0.434   4.282   0.571 -1.1618  0.2694  3.5734
  781TIP3   OH2 2285   3.477   4.550   3.352 -0.3344  0.0776 -0.0755
  781TIP3    H1 2286   3.523   4.610   3.292 -0.0545 -0.6415 -0.5927
  781TIP3    H2 2287   3.525   4.556   3.434  0.3073 -0.1782 -0.4238
  782TIP3   OH2 2288   3.263   1.425   1.255 -0.1845  0.3525  0.0172
  782TIP3    H1 2289   3.228   1.513   1.243 -0.1739  0.4803  0.8640
  782TIP3    H2 2290   3.236   1.377   1.177  0.7745  1.4162 -0.9988
  783TIP3   OH2 2291   3.270   2.925   0.467  0.0645 -0.0992  0.7882
  783TIP3    H1 2292   3.328   2.948   0.395  0.3729 -3.5509 -0.1866
  783TIP3    H2 2293   3.182   2.935   0.431  0.1378  1.0439  0.9116
  784TIP3   OH2 2294   1.105   1.742   2.671  0.6281  0.0796  0.1090
  784TIP3    H1 2295   1.087   1.832   2.700 -0.0991  0.2178 -0.7462
  784TIP3    H2 2296   1.201   1.738   2.667  0.6794  0.6820  0.5579
  785TIP3   OH2 2297   2.060   4.268   3.939  0.0118 -0.4557  0.7306
  785TIP3    H1 2298   2.136   4.316   3.973 -0.9759  0.1559  2.0952
  785TIP3    H2 2299   2.050   4.193   3.998  0.0760 -1.0232  0.0322
  786TIP3   OH2 2300   7.077   4.900   2.650 -0.3575  0.5546 -0.0369
  786TIP3    H1 2301   6.987   4.890   2.680 -0.3165  1.0760  0.2632
  786TIP3    H2 2302   7.131   4.876   2.725 -0.2500  0.8650 -0.0127
  787TIP3   OH2 2303   0.433   3.139   4.748  0.5420 -0.4148 -0.1366
  787TIP3    H1 2304   0.423   3.229   4.720 -1.2091 -0.4280  0.4212
  787TIP3    H2 2305   0.419   3.086   4.669  2.5473 -0.1866 -0.6772
  788TIP3   OH2 2306   2.635   1.727   3.296 -0.0268  0.3350 -0.5258
  788TIP3    H1 2307   2.695   1.720   3.222 -1.0476  0.0669 -1.3400
  788TIP3    H2 2308   2.631   1.638   3.332  0.1042  0.3633 -0.4417
  789TIP3   OH2 2309   0.578   4.192   3.568  0.6057 -0.7241  0.2402
  789TIP3    H1 2310   0.600   4.099   3.565  1.0129 -0.6372  0.5199
  789TIP3    H2 2311   0.572   4.218   3.476 -0.3455 -1.2202  0.1522
  790TIP3   OH2 2312   0.923   0.489   2.429  0.6431 -1.0973 -0.7941
  790TIP3    H1 2313   0.974   0.445   2.361  1.5176 -1.1222 -0.1334
  790TIP3    H2 2314   0.988   0.524   2.488 -0.1049 -0.6139 -0.2502
  791TIP3   OH2 2315   7.686   4.404   1.267  0.3926  0.4627 -0.0318
  791TIP3    H1 2316   7.753   4.446   1.322  1.3478  1.0140 -1.5890
  791TIP3    H2 2317   7.610   4.461   1.273  1.3854  1.9508 -1.4163
  792TIP3   OH2 2318   4.212   1.823   2.055 -0.1297 -0.2171 -0.1943
  792TIP3    H1 2319   4.205   1.728   2.046  0.3190 -0.1880 -0.8167
  792TIP3    H2 2320   4.266   1.851   1.982  0.2939  0.4446  0.3600
  793TIP3   OH2 2321   2.820   3.108   2.169  0.5022 -0.2194  0.3143
  793TIP3    H1 2322   2.767   3.084   2.245  0.0382  1.4543  0.5491
  793TIP3    H2 2323   2.762   3.162   2.115  1.3660  0.0450 -0.3727
  794TIP3   OH2 2324   1.770   3.263   2.294 -0.4404  0.2695  0.4539
  794TIP3    H1 2325   1.767   3.273   2.389 -1.6285  1.8998  0.2751
  794TIP3    H2 2326   1.831   3.332   2.265 -1.5423  1.0164 -0.1061
  795TIP3   OH2 2327   2.969   0.467   3.538  0.0483 -0.3049 -0.8019
  795TIP3    H1 2328   2.936   0.380   3.557 -0.1738 -0.2642 -1.0022
  795TIP3    H2 2329   3.055   0.452   3.499  1.3872 -0.3286  2.0301
  796TIP3   OH2 2330   0.934   1.605   3.965  0.6114 -0.4992 -0.3650
  796TIP3    H1 2331   0.854   1.623   3.916 -0.0871 -1.9825  0.2053
  796TIP3    H2 2332   0.973   1.529   3.920  0.8914 -0.7422  0.2896
  797TIP3   OH2 2333   8.015   4.624   2.190 -0.0554 -0.2535  0.7728
  797TIP3    H1 2334   7.921   4.640   2.192 -0.4669 -2.4380  0.2699
  797TIP3    H2 2335   8.053   4.697   2.238 -1.9471  1.0317  0.3635
  798TIP3   OH2 2336   0.508   6.623   0.389 -0.4483 -0.2311 -0.0750
  798TIP3    H1 2337   0.473   6.711   0.376 -0.2446 -0.3394 -1.4229
  798TIP3    H2 2338   0.594   6.637   0.428 -0.6907  0.1303  0.3473
  799TIP3   OH2 2339   2.132   6.652   0.228 -0.0068  0.3446 -0.3382
  799TIP3    H1 2340   2.182   6.599   0.167 -0.8030 -0.8440  0.0243
  799TIP3    H2 2341   2.129   6.600   0.309 -0.6933  0.9833  0.0625
  800TIP3   OH2 2342   0.910   5.413   1.930 -0.1613 -0.2234  0.4147
  800TIP3    H1 2343   0.886   5.380   1.843  1.4761 -0.2504 -0.0508
  800TIP3    H2 2344   0.949   5.498   1.913  0.1059 -0.1995  1.1333
  801TIP3   OH2 2345   0.389   4.687   0.754 -0.3328  0.3081 -0.2962
  801TIP3    H1 2346   0.461   4.722   0.701  0.8827  0.5726  1.4870
  801TIP3    H2 2347   0.319   4.751   0.745  0.9140  1.8568  0.7478
  802TIP3   OH2 2348   1.767   2.954   0.524  0.3518  0.3989  0.3137
  802TIP3    H1 2349   1.777   3.040   0.485 -1.9264  0.5139 -0.0760
  802TIP3    H2 2350   1.754   2.895   0.449 -0.0907  0.0205  0.6833
  803TIP3   OH2 2351   3.039   3.541   1.789 -0.5050  0.3090  0.5011
  803TIP3    H1 2352   3.003   3.621   1.752  0.0293 -0.6393 -2.1598
  803TIP3    H2 2353   2.965   3.481   1.793  0.0449 -0.6023 -2.0198
  804TIP3   OH2 2354   0.681   3.863   1.179  0.4520  0.1855 -0.5159
  804TIP3    H1 2355   0.760   3.891   1.226  1.1319  0.6925 -1.9461
  804TIP3    H2 2356   0.695   3.770   1.162  1.3452  0.5864 -1.9605
  805TIP3   OH2 2357   1.683   2.465   3.433  0.4941 -0.8043 -0.1766
  805TIP3    H1 2358   1.692   2.549   3.386  0.3301  0.3035  1.7356
  805TIP3    H2 2359   1.591   2.442   3.421  0.3387 -0.2881 -0.0046
  806TIP3   OH2 2360   3.016   3.971   2.904 -0.0527  0.0266  0.2690
  806TIP3    H1 2361   3.093   4.009   2.862 -0.8258  1.6348  0.2584
  806TIP3    H2 2362   2.943   4.024   2.872 -1.3196 -2.1468 -0.6031
  807TIP3   OH2 2363   0.170   2.635   3.614  0.0952 -0.2190  0.3584
  807TIP3    H1 2364   0.191   2.556   3.663  1.2859  0.6067  1.2082
  807TIP3    H2 2365   0.236   2.639   3.545  0.1051  0.0794  0.3811
  808TIP3   OH2 2366   5.482   3.940   1.779 -0.2088  0.5698 -0.1682
  808TIP3    H1 2367   5.534   4.003   1.729  1.1434  1.3860  2.2069
  808TIP3    H2 2368   5.494   3.857   1.733 -0.1986  1.5814 -2.0437
  809TIP3   OH2 2369   3.765   3.803   2.631 -0.4618  0.0108 -0.1049
  809TIP3    H1 2370   3.796   3.794   2.541 -1.4183  1.0884 -0.5477
  809TIP3    H2 2371   3.675   3.770   2.628 -0.7675  0.8167  0.2901
  810TIP3   OH2 2372   2.675   2.594   3.062 -0.8306  0.0324 -0.0008
  810TIP3    H1 2373   2.612   2.619   2.995 -0.9432 -0.1536  0.0344
  810TIP3    H2 2374   2.702   2.676   3.102 -0.6680  0.1527 -0.3606
  811TIP3   OH2 2375   3.433   3.484   0.552 -0.5165  0.5839 -0.0697
  811TIP3    H1 2376   3.443   3.396   0.515  2.0842 -0.0979  2.0451
  811TIP3    H2 2377   3.342   3.488   0.579 -0.9219 -1.1186 -1.0557
  812TIP3   OH2 2378   3.326   0.783   2.553 -0.1957 -0.2497  0.5456
  812TIP3    H1 2379   3.408   0.747   2.585 -0.5097 -0.9365  0.5802
  812TIP3    H2 2380   3.335   0.784   2.458  0.7059  1.7153  0.6240
  813TIP3   OH2 2381   0.873   2.110   3.277  0.1226  0.4988 -0.4062
  813TIP3    H1 2382   0.866   2.041   3.211 -2.8892  0.9493 -0.6522
  813TIP3    H2 2383   0.965   2.134   3.277  0.9742 -2.5380 -1.3197
  814TIP3   OH2 2384   3.300   0.497   2.587 -0.1966 -0.3107 -0.2483
  814TIP3    H1 2385   3.290   0.590   2.570 -2.0394 -0.0854  1.8534
  814TIP3    H2 2386   3.231   0.455   2.535 -0.2767 -0.3746 -0.0918
  815TIP3   OH2 2387   8.106   0.435   6.879 -0.1110  0.1095 -0.2180
  815TIP3    H1 2388   8.116   0.366   6.814 -2.0729  0.4969 -0.9456
  815TIP3    H2 2389   8.061   0.393   6.952 -0.8192  0.4920 -0.4392
  816TIP3   OH2 2390   3.143   5.615   0.753  0.1251  0.1148 -0.2045
  816TIP3    H1 2391   3.210   5.643   0.816  1.1584  1.3280 -1.8090
  816TIP3    H2 2392   3.062   5.653   0.787  0.2749 -1.1310  1.6035
  817TIP3   OH2 2393   2.330   4.610   1.979 -0.1417  0.1831 -0.6294
  817TIP3    H1 2394   2.272   4.604   2.054 -0.3616 -2.6304 -0.9448
  817TIP3    H2 2395   2.275   4.589   1.903  0.7735 -0.3902 -1.1629
  818TIP3   OH2 2396   1.118   4.521   1.173  0.1632 -0.1588  0.1907
  818TIP3    H1 2397   1.048   4.504   1.237 -0.2553  3.3515  0.7532
  818TIP3    H2 2398   1.165   4.596   1.209  3.5756 -1.7412 -0.7739
  819TIP3   OH2 2399   7.320   5.485   0.852  0.3287 -0.0648 -0.5334
  819TIP3    H1 2400   7.378   5.448   0.785 -0.3298 -0.3741 -0.9319
  819TIP3    H2 2401   7.376   5.545   0.901  0.3224  1.8216 -2.7151
  820TIP3   OH2 2402   8.059   6.678   0.510 -0.4868  0.0843  0.1090
  820TIP3    H1 2403   7.998   6.694   0.582 -1.0322 -0.7485 -0.1666
  820TIP3    H2 2404   8.031   6.740   0.442 -0.2182  0.5954  0.4569
  821TIP3   OH2 2405   8.140   4.340   1.515  0.1596 -0.0724 -0.3926
  821TIP3    H1 2406   8.047   4.318   1.510 -0.0763  0.9766 -0.9374
  821TIP3    H2 2407   8.185   4.268   1.469 -0.5192  0.1972 -1.5079
  822TIP3   OH2 2408   6.595   6.760   6.735  0.2923  0.4005  0.2758
  822TIP3    H1 2409   6.626   6.707   6.660  1.4681  0.1687  0.9111
  822TIP3    H2 2410   6.513   6.719   6.760 -0.2528  0.6392 -1.0585
  823TIP3   OH2 2411   4.405   4.994   1.543  0.0155 -0.1925  0.0751
  823TIP3    H1 2412   4.396   4.905   1.509 -0.7983 -0.2182  0.3293
  823TIP3    H2 2413   4.342   4.998   1.616  0.7524  0.2798  0.6962
  824TIP3   OH2 2414   0.881   4.149   0.823 -0.0781 -0.5609 -0.0515
  824TIP3    H1 2415   0.930   4.208   0.881  0.8538  0.6359 -1.9680
  824TIP3    H2 2416   0.825   4.098   0.881  0.3381  1.0560  1.8215
  825TIP3   OH2 2417   2.750   5.348   2.002  0.1980 -0.6325 -0.1975
  825TIP3    H1 2418   2.697   5.385   1.931  1.5451  1.0717 -0.3612
  825TIP3    H2 2419   2.695   5.357   2.080  0.8238  2.6854 -0.0592
  826TIP3   OH2 2420   1.620   4.593   0.938 -0.7232 -0.1739 -0.1919
  826TIP3    H1 2421   1.592   4.589   1.029  1.4751 -1.1485  0.4703
  826TIP3    H2 2422   1.602   4.684   0.912 -1.3006  0.1315  1.2152
  827TIP3   OH2 2423   1.631   5.644   0.668  0.7421 -0.4704  0.0158
  827TIP3    H1 2424   1.579   5.590   0.728  0.7601 -1.4409 -0.8244
  827TIP3    H2 2425   1.721   5.612   0.679  0.5788 -1.4664 -1.3633
  828TIP3   OH2 2426   0.306   4.140   1.609 -0.1688  0.4551 -0.2047
  828TIP3    H1 2427   0.285   4.218   1.558 -1.1135  0.0402 -0.4695
  828TIP3    H2 2428   0.388   4.108   1.571 -0.5607  0.4814 -1.0975
  829TIP3   OH2 2429   1.406   4.825   1.035  0.7702 -0.2954  0.0629
  829TIP3    H1 2430   1.402   4.793   0.945  0.2097  1.1262 -0.4200
  829TIP3    H2 2431   1.426   4.918   1.028 -2.4084  0.5626  1.2572
  830TIP3   OH2 2432   2.179   3.953   0.851 -0.1667 -0.7739  0.1376
  830TIP3    H1 2433   2.174   3.985   0.941  0.4379 -0.6290  0.1190
  830TIP3    H2 2434   2.096   3.908   0.837 -1.5490  1.7646 -0.1970
  831TIP3   OH2 2435   2.607   1.141   2.496  0.2350 -0.1526  0.5375
  831TIP3    H1 2436   2.533   1.200   2.478 -0.0237 -0.4109  0.7538
  831TIP3    H2 2437   2.631   1.160   2.587  1.4158  1.0143 -0.0043
  832TIP3   OH2 2438   3.647   1.709   2.907 -0.2969 -0.3196 -0.3327
  832TIP3    H1 2439   3.647   1.774   2.976  1.3519 -1.9035  1.2183
  832TIP3    H2 2440   3.663   1.758   2.827 -3.9615  1.7721  0.1169
  833TIP3   OH2 2441   1.518   3.459   0.247 -0.1084 -0.2904  0.3853
  833TIP3    H1 2442   1.521   3.550   0.216  1.8947 -0.4125  0.2071
  833TIP3    H2 2443   1.542   3.465   0.340 -1.5817 -0.4657  0.7929
  834TIP3   OH2 2444   2.609   3.879   0.066  0.4549  0.7052  0.6853
  834TIP3    H1 2445   2.640   3.808   0.122 -0.1107 -0.0820  0.0236
  834TIP3    H2 2446   2.571   3.834  -0.010 -0.4485  1.7077  0.5411
  835TIP3   OH2 2447   3.324   7.250   6.765  0.1249  0.1261 -0.0238
  835TIP3    H1 2448   3.355   7.217   6.849 -0.8887  1.0092  0.7065
  835TIP3    H2 2449   3.233   7.274   6.781 -0.1237  0.1208 -1.4235
  836TIP3   OH2 2450   1.785   6.228   1.316  0.1030 -0.1107 -0.5882
  836TIP3    H1 2451   1.728   6.183   1.379 -1.8145  1.5890 -1.0783
  836TIP3    H2 2452   1.810   6.309   1.360  1.7001 -0.5718 -0.6160
  837TIP3   OH2 2453   1.733   1.215   1.816 -0.2837  0.5834 -0.2464
  837TIP3    H1 2454   1.790   1.290   1.835 -1.4192  1.2430  0.6324
  837TIP3    H2 2455   1.779   1.167   1.748  0.3127  2.2614 -1.0592
  838TIP3   OH2 2456   0.789   2.900   1.908  0.4572 -0.3216  0.0813
  838TIP3    H1 2457   0.819   2.989   1.929 -0.2701  0.5873 -2.4372
  838TIP3    H2 2458   0.869   2.849   1.896  0.8936  0.1872  0.8071
  839TIP3   OH2 2459   1.838   3.674   3.159 -0.3839 -0.1685 -0.6285
  839TIP3    H1 2460   1.896   3.685   3.084 -0.1378 -1.2940 -0.6217
  839TIP3    H2 2461   1.771   3.741   3.149  0.8771  1.0914 -0.6843
  840TIP3   OH2 2462   1.058   4.947   2.526  0.2716 -0.1574  0.8768
  840TIP3    H1 2463   1.143   4.918   2.494  0.6147 -0.2040  1.8270
  840TIP3    H2 2464   1.056   5.041   2.509 -0.7652 -0.6509 -2.0365
  841TIP3   OH2 2465   6.391   6.692   6.913 -0.3213 -0.4560 -0.7084
  841TIP3    H1 2466   6.353   6.759   6.970  0.4847 -2.0353  1.7604
  841TIP3    H2 2467   6.318   6.632   6.895 -0.8379  0.6133 -2.2309
  842TIP3   OH2 2468   3.206   5.348   2.796 -0.0055  0.2908 -0.2236
  842TIP3    H1 2469   3.128   5.309   2.757  0.2941 -0.2838 -0.2585
  842TIP3    H2 2470   3.227   5.290   2.870  0.3482  0.4781 -0.1742
  843TIP3   OH2 2471   2.664   4.108   0.463  0.0769 -0.0688  0.3416
  843TIP3    H1 2472   2.721   4.184   0.449  0.1417 -0.2054 -0.1512
  843TIP3    H2 2473   2.621   4.095   0.378 -1.5225  0.7124  1.0037
  844TIP3   OH2 2474   4.322   4.211   1.258 -0.6459  0.2516 -0.4400
  844TIP3    H1 2475   4.408   4.172   1.276 -0.2440  1.1274 -0.4263
  844TIP3    H2 2476   4.290   4.163   1.182  0.2713  0.5450 -1.0215
  845TIP3   OH2 2477   4.139   3.915   0.235 -0.4535  0.1104  0.0102
  845TIP3    H1 2478   4.146   3.868   0.151 -3.2562 -0.8561  0.2641
  845TIP3    H2 2479   4.176   3.855   0.299  0.8536  0.4694 -0.3995
  846TIP3   OH2 2480   1.236   2.243   0.215 -0.0888 -0.0264  0.0862
  846TIP3    H1 2481   1.256   2.192   0.137 -2.6750 -0.8939 -0.0636
  846TIP3    H2 2482   1.187   2.183   0.271  0.9958  0.8388  2.0308
  847TIP3   OH2 2483   0.592   0.011   6.867  0.0402 -0.0011 -0.5220
  847TIP3    H1 2484   0.575  -0.016   6.777  0.7277 -1.4371 -0.2431
  847TIP3    H2 2485   0.520   0.070   6.889 -0.1107  0.3721 -2.0186
  848TIP3   OH2 2486   3.266   3.061   2.218  0.3159 -0.1224 -0.1009
  848TIP3    H1 2487   3.204   3.077   2.147 -0.5602  2.0234  1.0873
  848TIP3    H2 2488   3.246   2.972   2.248 -1.9966  0.4042  0.0468
  849TIP3   OH2 2489   3.060   7.746   6.195 -0.1650  0.4706  0.7835
  849TIP3    H1 2490   3.033   7.739   6.104 -0.9121  0.7771  0.9802
  849TIP3    H2 2491   2.997   7.692   6.243 -0.8752  1.7798  1.3260
  850TIP3   OH2 2492   4.161   2.897   1.622  0.1502 -0.0244 -0.3625
  850TIP3    H1 2493   4.209   2.910   1.703  0.0293  0.9040 -0.4274
  850TIP3    H2 2494   4.219   2.845   1.567 -0.0552 -1.2393  0.5728
  851TIP3   OH2 2495   4.866   4.112   0.503 -0.1058 -0.3918 -0.0838
  851TIP3    H1 2496   4.805   4.143   0.571  0.3337 -1.8869  1.0101
  851TIP3    H2 2497   4.953   4.127   0.541  0.1439 -1.2137 -0.3210
  852TIP3   OH2 2498   2.789   2.812   1.673  0.4951  0.1359  0.0367
  852TIP3    H1 2499   2.749   2.745   1.728 -0.7842  0.2108 -0.7880
  852TIP3    H2 2500   2.811   2.767   1.592  0.4978  0.4941 -0.1629
  853TIP3   OH2 2501   2.038   1.131   5.527  0.7590  0.5660 -0.2969
  853TIP3    H1 2502   2.043   1.085   5.611 -0.2707  1.4257  0.2565
  853TIP3    H2 2503   2.129   1.139   5.498  1.1174  0.2217  0.7139
  854TIP3   OH2 2504   3.290   4.709   2.154  0.1948  0.6294  0.0637
  854TIP3    H1 2505   3.259   4.661   2.231 -0.4727  1.2507  0.1884
  854TIP3    H2 2506   3.223   4.775   2.138  0.2271  0.3728 -1.1831
  855TIP3   OH2 2507   1.875   4.720   1.738 -0.4602  0.4641  0.3217
  855TIP3    H1 2508   1.798   4.669   1.766 -0.2365 -0.2984 -0.4111
  855TIP3    H2 2509   1.841   4.808   1.724 -0.8513  0.5398  1.6511
  856TIP3   OH2 2510   6.046   7.165   6.810 -0.6032  0.4040 -0.3622
  856TIP3    H1 2511   5.982   7.095   6.820 -1.9144  1.6678  0.3429
  856TIP3    H2 2512   6.015   7.215   6.734  1.3993 -0.8656 -2.0738
  857TIP3   OH2 2513   2.638   1.714   0.852  0.1819  0.0099 -0.3046
  857TIP3    H1 2514   2.546   1.706   0.826 -0.1788 -0.7059  1.1039
  857TIP3    H2 2515   2.683   1.648   0.800 -0.2970 -0.4459 -0.1518
  858TIP3   OH2 2516   2.777   2.913   1.272 -0.1935  0.2042 -0.8958
  858TIP3    H1 2517   2.703   2.931   1.330  1.2621 -1.0234  1.4640
  858TIP3    H2 2518   2.839   2.983   1.290  0.4759 -0.4584 -0.5947
  859TIP3   OH2 2519   2.966   4.341   3.209  0.0735  0.2267  0.4788
  859TIP3    H1 2520   3.036   4.342   3.144  1.4930  1.8820  1.9511
  859TIP3    H2 2521   2.999   4.285   3.280 -0.4924  0.2385  0.7547
  860TIP3   OH2 2522   4.170   3.237   1.927  0.1144  0.1983 -0.2375
  860TIP3    H1 2523   4.205   3.204   1.844  0.8337  1.0579 -0.2803
  860TIP3    H2 2524   4.194   3.330   1.928 -2.4870  0.9007 -0.4481
  861TIP3   OH2 2525   2.282   3.085   2.393 -0.6319  0.6680  0.4285
  861TIP3    H1 2526   2.330   3.035   2.458 -0.6916  1.5880  1.1865
  861TIP3    H2 2527   2.279   3.028   2.316 -1.9261 -1.0825  1.7292
  862TIP3   OH2 2528   1.916   6.113   0.587 -0.1762 -0.0674  0.3525
  862TIP3    H1 2529   1.854   6.047   0.619 -1.4237  1.8716  1.9967
  862TIP3    H2 2530   1.888   6.130   0.497 -2.1177  0.8727  1.1190
  863TIP3   OH2 2531   3.449   2.350   2.012 -0.7577 -0.3839 -0.6537
  863TIP3    H1 2532   3.520   2.389   2.063  0.2486 -1.1948 -1.4117
  863TIP3    H2 2533   3.485   2.266   1.982 -1.3959  0.0069 -2.5471
  864TIP3   OH2 2534   1.183   4.956   1.566 -0.0124 -0.7405 -0.1152
  864TIP3    H1 2535   1.133   5.037   1.573  2.3439  0.6462  1.6719
  864TIP3    H2 2536   1.163   4.909   1.647 -1.6410 -2.1191 -1.3075
  865TIP3   OH2 2537   5.772   4.173   0.222  0.0171 -0.1117  0.9723
  865TIP3    H1 2538   5.767   4.259   0.180 -1.7914 -0.7420 -0.1370
  865TIP3    H2 2539   5.793   4.112   0.151 -3.6581 -1.2761  0.7564
  866TIP3   OH2 2540   3.260   3.600   1.641  0.9645  0.6169 -0.3572
  866TIP3    H1 2541   3.299   3.516   1.620 -0.9360 -0.2221 -0.6553
  866TIP3    H2 2542   3.213   3.585   1.723  1.0256  1.5268 -0.1478
  867TIP3   OH2 2543   2.887   3.847   0.673  0.6838 -0.4300 -0.1557
  867TIP3    H1 2544   2.908   3.758   0.699 -1.3221 -0.1066  2.7175
  867TIP3    H2 2545   2.801   3.840   0.630 -0.1948  0.3088  1.4554
  868TIP3   OH2 2546   3.181   4.376   1.501  0.1019  0.3246  0.1001
  868TIP3    H1 2547   3.129   4.455   1.516  0.5369  0.6953 -0.3424
  868TIP3    H2 2548   3.172   4.358   1.408  1.5634  0.9551 -0.1741
  869TIP3   OH2 2549   3.011   6.368   1.348  0.5243  0.2091 -0.2382
  869TIP3    H1 2550   3.089   6.414   1.379  0.1436 -0.0553  1.1587
  869TIP3    H2 2551   2.967   6.339   1.428 -0.3420 -0.7473 -1.0436
  870TIP3   OH2 2552   6.112   5.713   6.823 -0.1171 -0.1395 -0.9331
  870TIP3    H1 2553   6.030   5.752   6.850 -0.1146  0.4838 -1.7908
  870TIP3    H2 2554   6.089   5.625   6.793 -0.2086 -0.5936  0.4620
  871TIP3   OH2 2555   3.904   7.297   5.110 -0.2948  0.4168  0.1137
  871TIP3    H1 2556   3.948   7.376   5.080  0.2351  0.0256 -0.1527
  871TIP3    H2 2557   3.975   7.238   5.135 -0.7174  0.5225  1.6023
  872TIP3   OH2 2558   2.618   5.457   1.618  0.3561 -0.3138 -0.2971
  872TIP3    H1 2559   2.572   5.438   1.699  0.4788  0.5968 -0.0108
  872TIP3    H2 2560   2.578   5.399   1.553 -0.3615 -0.3908  0.2113
  873TIP3   OH2 2561   2.591   4.432   0.695  0.3697  0.8101 -0.1321
  873TIP3    H1 2562   2.518   4.386   0.737 -0.8416 -0.2019 -3.2317
  873TIP3    H2 2563   2.666   4.373   0.707 -0.3172 -0.1979 -0.7518
  874TIP3   OH2 2564   4.660   2.696   1.752  0.3609 -0.3267  0.4887
  874TIP3    H1 2565   4.742   2.653   1.726  1.0197  1.1166  0.1441
  874TIP3    H2 2566   4.593   2.654   1.698  1.3059  0.5721 -1.4427
  875TIP3   OH2 2567   4.688   6.102   6.226  0.3168  0.3543 -0.2552
  875TIP3    H1 2568   4.751   6.111   6.155 -0.3272  1.5443 -0.6944
  875TIP3    H2 2569   4.622   6.041   6.193  0.9538 -0.4657 -0.0056
  876TIP3   OH2 2570   0.842   6.471   0.145 -0.1852  0.2116 -0.3929
  876TIP3    H1 2571   0.903   6.461   0.218  1.1285 -2.2790 -1.7761
  876TIP3    H2 2572   0.757   6.447   0.182  0.5517 -1.5303  0.2377
  877TIP3   OH2 2573   2.902   2.406   0.721 -0.3590 -0.3112 -0.0890
  877TIP3    H1 2574   2.950   2.332   0.758 -0.1543  0.1294  0.5412
  877TIP3    H2 2575   2.814   2.398   0.757 -0.4278 -0.4352 -0.2843
  878TIP3   OH2 2576   2.468   4.897   1.177  0.2168 -0.2446  0.1812
  878TIP3    H1 2577   2.440   4.966   1.118  0.9616 -0.0409  0.0611
  878TIP3    H2 2578   2.405   4.900   1.249 -0.5584 -0.3476 -0.4886
  879TIP3   OH2 2579   4.063   5.950   0.861 -0.2906 -0.4301 -0.0752
  879TIP3    H1 2580   4.142   5.899   0.879 -1.1353 -1.6441  0.2771
  879TIP3    H2 2581   4.068   6.025   0.921  1.4520  0.4524 -1.2900
  880TIP3   OH2 2582   4.283   3.449   0.398 -0.4462 -0.1601 -0.6908
  880TIP3    H1 2583   4.316   3.468   0.486 -0.4769 -1.8078 -0.3014
  880TIP3    H2 2584   4.311   3.359   0.381 -0.1296  0.2521 -2.5241
  881TIP3   OH2 2585   2.106   5.034   0.305 -0.5064  0.3701  0.5493
  881TIP3    H1 2586   2.131   5.084   0.227  0.9820  1.8506  1.9184
  881TIP3    H2 2587   2.097   4.944   0.275 -0.5011  1.0217 -1.4388
  882TIP3   OH2 2588   3.243   6.656   1.949 -0.4773 -0.0124 -0.4232
  882TIP3    H1 2589   3.327   6.608   1.950 -1.2588 -1.4077  0.0285
  882TIP3    H2 2590   3.194   6.617   1.878 -1.9440 -1.3522  1.2874
  883TIP3   OH2 2591   2.935   5.151   2.056  0.1248 -0.3554 -0.1649
  883TIP3    H1 2592   2.880   5.228   2.041 -1.7703 -2.0487 -2.2238
  883TIP3    H2 2593   3.010   5.162   1.997  0.3675  0.3757  0.2739
  884TIP3   OH2 2594   6.362   6.850   5.127  0.6342  0.8138  0.5603
  884TIP3    H1 2595   6.393   6.858   5.037  2.3025 -0.0332  1.0528
  884TIP3    H2 2596   6.440   6.863   5.181  0.0232 -0.7300  1.8401
  885TIP3   OH2 2597   1.519   5.623   2.027  0.1337  0.0141  0.1179
  885TIP3    H1 2598   1.503   5.680   1.951 -1.2648 -1.2154 -0.5426
  885TIP3    H2 2599   1.556   5.543   1.989 -1.3706 -0.9421  0.6085
  886TIP3   OH2 2600   0.381   4.739   1.785  0.5281  0.1177  0.1176
  886TIP3    H1 2601   0.352   4.648   1.779  0.4156  0.2838 -2.7480
  886TIP3    H2 2602   0.312   4.789   1.741  1.6713  1.3088 -0.3877
  887TIP3   OH2 2603   5.298   7.461   6.216 -0.7806  0.3860  0.1009
  887TIP3    H1 2604   5.229   7.406   6.179  0.5499 -0.3260 -1.3801
  887TIP3    H2 2605   5.323   7.520   6.145 -0.1132  0.8834  0.7367
  888TIP3   OH2 2606   3.903   3.338   1.847  0.1977  0.1804 -0.0905
  888TIP3    H1 2607   3.973   3.306   1.790 -0.3667  1.0808 -1.2909
  888TIP3    H2 2608   3.946   3.349   1.932  1.1175 -0.8677 -0.3999
  889TIP3   OH2 2609   2.473   5.164   2.045 -0.2256 -0.4328  0.3385
  889TIP3    H1 2610   2.550   5.131   1.999  0.7110  1.5968  0.3906
  889TIP3    H2 2611   2.508   5.211   2.121 -1.6290 -1.3526  1.5917
  890TIP3   OH2 2612   2.932   5.702   2.227 -0.1316 -0.0738 -0.3768
  890TIP3    H1 2613   2.903   5.692   2.136 -0.4440  2.1820 -0.5464
  890TIP3    H2 2614   2.875   5.769   2.264  0.8324 -0.0424  1.1198
  891TIP3   OH2 2615   3.252   2.704   4.082 -0.0703  0.1307 -0.0369
  891TIP3    H1 2616   3.280   2.758   4.156  0.4697 -1.3752  0.8764
  891TIP3    H2 2617   3.305   2.625   4.088 -0.5818 -0.3564 -1.5842
  892TIP3   OH2 2618   3.172   4.269   0.221  0.4107 -0.0779 -0.5639
  892TIP3    H1 2619   3.181   4.269   0.126  0.1511 -1.1562 -0.5882
  892TIP3    H2 2620   3.198   4.181   0.248  1.0985  0.4191  0.4195
  893TIP3   OH2 2621   4.200   5.792   1.041 -0.3366 -0.1024 -0.1857
  893TIP3    H1 2622   4.173   5.757   1.125 -2.1917  0.2960 -0.6015
  893TIP3    H2 2623   4.226   5.715   0.990  1.9165 -0.2349  1.1268
  894TIP3   OH2 2624   5.326   4.104   3.406  0.8768  0.0712  0.4630
  894TIP3    H1 2625   5.296   4.167   3.472  0.6779  0.2330  0.2207
  894TIP3    H2 2626   5.338   4.157   3.327 -0.3858 -0.3820 -0.0483
  895TIP3   OH2 2627   1.510   3.456   2.583 -0.0698  0.3721 -0.0517
  895TIP3    H1 2628   1.564   3.533   2.602 -0.7060  0.7800  0.1212
  895TIP3    H2 2629   1.428   3.472   2.629 -0.9319  0.4936 -1.6076
  896TIP3   OH2 2630   3.032   1.446   3.462 -0.7776 -0.1392  0.2108
  896TIP3    H1 2631   3.044   1.527   3.512  0.8612  0.4255 -1.0590
  896TIP3    H2 2632   3.112   1.395   3.479 -0.0895  0.1555 -1.9737
  897TIP3   OH2 2633   4.218   4.186   0.165 -0.2564 -0.3568 -0.3751
  897TIP3    H1 2634   4.216   4.199   0.070 -0.6455  1.0876 -0.1807
  897TIP3    H2 2635   4.145   4.127   0.182 -0.5814 -0.1209 -0.9149
  898TIP3   OH2 2636   5.635   7.451   6.035  0.4876  0.6086 -0.2842
  898TIP3    H1 2637   5.588   7.395   5.973  0.3617 -0.3001  0.6186
  898TIP3    H2 2638   5.571   7.516   6.063 -0.0367 -0.1699  0.3681
  899TIP3   OH2 2639   6.817   7.118   4.988 -0.4228  0.2641  0.2219
  899TIP3    H1 2640   6.879   7.046   4.973 -0.2503  0.1713  1.3055
  899TIP3    H2 2641   6.854   7.192   4.938 -1.4807 -0.8179 -2.2453
  900TIP3   OH2 2642   4.331   7.800   5.178 -0.5216 -0.0889  0.4229
  900TIP3    H1 2643   4.253   7.844   5.146 -0.3836 -0.8999 -1.0531
  900TIP3    H2 2644   4.307   7.768   5.265 -1.7540 -0.1434  0.0612
  901TIP3   OH2 2645   1.435   2.195   2.098  0.3945  0.2585  0.5957
  901TIP3    H1 2646   1.483   2.112   2.090  0.0391  0.1187 -0.0492
  901TIP3    H2 2647   1.355   2.182   2.047 -0.0039  0.7447  1.0885
  902TIP3   OH2 2648   5.812   7.795   6.592  0.4874 -0.0687 -0.0898
  902TIP3    H1 2649   5.739   7.831   6.642 -0.3720 -0.8856 -0.7291
  902TIP3    H2 2650   5.835   7.714   6.637  1.5665  0.6094  0.5988
  903TIP3   OH2 2651   6.305   7.218   6.400 -0.2200 -0.1028 -0.6298
  903TIP3    H1 2652   6.259   7.144   6.360 -1.0909  0.3163 -0.4270
  903TIP3    H2 2653   6.363   7.178   6.464  0.1092 -0.6837 -1.2860
  904TIP3   OH2 2654   3.174   5.092   0.943  0.7603  0.2581  0.1286
  904TIP3    H1 2655   3.268   5.078   0.949  0.5829 -1.0952 -0.0588
  904TIP3    H2 2656   3.141   5.075   1.031  0.7384  1.1405  0.2941
  905TIP3   OH2 2657   2.068   2.873   0.335  0.1386 -0.2176 -0.2367
  905TIP3    H1 2658   2.110   2.808   0.279 -1.1715 -1.7257  0.4830
  905TIP3    H2 2659   1.983   2.888   0.294 -0.3936 -0.5314  0.7209
  906TIP3   OH2 2660   2.603   3.788   2.170 -0.1417  0.5027 -0.0989
  906TIP3    H1 2661   2.671   3.837   2.124 -0.5587 -0.1982 -1.5096
  906TIP3    H2 2662   2.644   3.760   2.252  1.2388  0.1631 -0.8988
  907TIP3   OH2 2663   5.257   6.796   6.884  0.0015  0.0659 -0.1904
  907TIP3    H1 2664   5.240   6.871   6.941 -1.4607  0.3348 -0.9580
  907TIP3    H2 2665   5.244   6.719   6.939 -0.2661  0.3409  0.1255
  908TIP3   OH2 2666   1.441   2.578   1.347 -0.2449 -0.2805 -0.1153
  908TIP3    H1 2667   1.377   2.530   1.400 -0.0572  0.8434  1.1551
  908TIP3    H2 2668   1.512   2.600   1.408  1.1823 -1.1770 -1.4189
  909TIP3   OH2 2669   2.568   2.707   0.731  0.2490 -0.1238 -0.0617
  909TIP3    H1 2670   2.587   2.654   0.653  0.5915  0.0452 -0.0949
  909TIP3    H2 2671   2.587   2.797   0.703 -0.5272  0.0373 -0.0676
  910TIP3   OH2 2672   3.111   2.726   1.247 -0.0615  0.2975 -0.0237
  910TIP3    H1 2673   3.203   2.704   1.259  0.3034  0.6884 -2.0447
  910TIP3    H2 2674   3.072   2.646   1.211 -0.0694  0.8262 -1.1990
  911TIP3   OH2 2675   5.316   7.925   6.620 -0.5771 -0.1360  0.1015
  911TIP3    H1 2676   5.358   7.929   6.534 -0.2321  2.2041  0.3485
  911TIP3    H2 2677   5.301   7.831   6.635  1.4409 -0.7505 -1.4884
  912TIP3   OH2 2678   1.430   2.436   1.680 -0.7012  0.0636 -0.4200
  912TIP3    H1 2679   1.366   2.398   1.740 -2.1044  0.9048 -1.3539
  912TIP3    H2 2680   1.453   2.520   1.720 -0.2379 -0.2100 -0.1167
  913TIP3   OH2 2681   3.844   5.757   0.893 -0.1957 -0.7365  0.0088
  913TIP3    H1 2682   3.891   5.840   0.903 -1.9662  0.2803  0.0189
  913TIP3    H2 2683   3.904   5.702   0.843  1.1126  0.4539  0.2298
  914TIP3   OH2 2684   3.904   2.993   1.645  0.0303  0.0363  0.0822
  914TIP3    H1 2685   3.998   2.979   1.639 -0.0945 -0.5672 -0.4060
  914TIP3    H2 2686   3.888   3.003   1.739  0.9026  2.3735  0.0403
  915TIP3   OH2 2687   2.383   0.748   0.741 -0.1623 -0.3330 -0.2103
  915TIP3    H1 2688   2.336   0.690   0.801 -3.0449  0.1422 -1.9082
  915TIP3    H2 2689   2.415   0.690   0.672 -1.1424 -0.2429 -0.7568
  916TIP3   OH2 2690   2.495   5.567   1.168  0.5861 -0.1922 -0.2872
  916TIP3    H1 2691   2.508   5.620   1.247  0.4514  1.7936 -1.5741
  916TIP3    H2 2692   2.416   5.603   1.128 -0.1881 -2.1657 -0.5684
  917TIP3   OH2 2693   3.144   4.683   1.723  0.6145 -0.3122 -0.1836
  917TIP3    H1 2694   3.227   4.706   1.763  1.0780  0.9572 -1.8649
  917TIP3    H2 2695   3.112   4.609   1.775  2.3459 -0.2247  1.0179
  918TIP3   OH2 2696   3.789   4.496   2.044  0.1643  0.2213 -0.5103
  918TIP3    H1 2697   3.718   4.488   2.106 -1.6353  0.7689 -2.4499
  918TIP3    H2 2698   3.851   4.557   2.086  0.1926 -1.3094  1.7538
  919TIP3   OH2 2699   4.127   3.210   0.929 -0.3275 -0.5311 -0.4592
  919TIP3    H1 2700   4.151   3.268   0.857  0.4462 -1.5334 -1.0214
  919TIP3    H2 2701   4.117   3.268   1.004 -1.4844  0.5683 -1.4324
  920TIP3   OH2 2702   4.051   5.515   6.891 -0.1299 -0.4927 -0.2894
  920TIP3    H1 2703   4.143   5.491   6.895  0.2973  0.8171 -1.7126
  920TIP3    H2 2704   4.048   5.607   6.918 -1.2124 -0.9314  1.1551
  921TIP3   OH2 2705   5.945   7.984   6.424  0.2802 -0.4925 -0.2060
  921TIP3    H1 2706   5.896   8.024   6.496  0.8371  0.0628 -0.1290
  921TIP3    H2 2707   5.910   7.895   6.417  0.1887 -0.5296  0.7088
  922TIP3   OH2 2708   2.479   4.065   1.209 -0.3939  0.2737 -0.6311
  922TIP3    H1 2709   2.495   4.156   1.185  1.5981  0.1938  0.2368
  922TIP3    H2 2710   2.482   4.065   1.305 -1.6760 -0.4947 -0.5797
  923TIP3   OH2 2711   3.748   3.951   0.761 -0.2387 -0.4152 -0.1839
  923TIP3    H1 2712   3.713   4.036   0.789 -0.0903 -0.0378 -1.1122
  923TIP3    H2 2713   3.833   3.972   0.722 -0.0900 -1.0217 -0.1899
  924TIP3   OH2 2714   2.801   0.803   1.416  0.2439 -0.3313  0.0190
  924TIP3    H1 2715   2.736   0.762   1.473  0.5918 -0.9736 -0.0359
  924TIP3    H2 2716   2.754   0.820   1.335 -0.3617  0.9513  0.6265
  925TIP3   OH2 2717   5.736   5.318   4.635 -0.0696 -0.4013  0.1123
  925TIP3    H1 2718   5.829   5.304   4.651 -0.2811 -0.4696  1.3457
  925TIP3    H2 2719   5.698   5.331   4.722 -1.0944  0.3626 -0.4325
  926TIP3   OH2 2720   5.368   7.705   6.423  0.1453  0.1973 -0.9357
  926TIP3    H1 2721   5.464   7.707   6.431  0.0686  0.1827  0.0753
  926TIP3    H2 2722   5.351   7.638   6.358  0.9301  1.8588 -2.8938
  927TIP3   OH2 2723   3.729   4.372   1.275  0.6577  0.6257  0.0126
  927TIP3    H1 2724   3.738   4.279   1.296 -1.1412  0.5567  0.5036
  927TIP3    H2 2725   3.735   4.375   1.179 -0.7589 -0.1885 -0.1202
  928TIP3   OH2 2726   3.241   6.533   1.536 -0.6803  0.1094 -0.5239
  928TIP3    H1 2727   3.178   6.536   1.608 -1.7548  2.1228 -1.4929
  928TIP3    H2 2728   3.313   6.480   1.569 -0.9349  1.3758  2.2045
  929TIP3   OH2 2729   4.455   3.369   2.259 -0.2729  0.3686  0.5475
  929TIP3    H1 2730   4.538   3.352   2.304 -0.5371  1.3748  1.4245
  929TIP3    H2 2731   4.411   3.435   2.313 -1.1774  0.6203 -0.4783
  930TIP3   OH2 2732   2.514   6.759   0.504 -0.2721  0.1535 -0.1552
  930TIP3    H1 2733   2.537   6.666   0.514  1.1443  0.7617  2.8774
  930TIP3    H2 2734   2.428   6.767   0.547  0.7106  0.6545  1.7895
  931TIP3   OH2 2735   4.596   5.490   6.273  0.0346 -0.4816 -0.8268
  931TIP3    H1 2736   4.539   5.415   6.284  0.0058 -0.4067 -0.4598
  931TIP3    H2 2737   4.681   5.452   6.250  0.4703 -0.7186  1.1326
  932TIP3   OH2 2738   4.807   3.796   1.351  0.6699  0.3914  0.1683
  932TIP3    H1 2739   4.836   3.878   1.393  2.5896 -0.0575 -0.2307
  932TIP3    H2 2740   4.763   3.749   1.421  0.0234  1.5341  0.5507
  933TIP3   OH2 2741   3.621   2.637   0.814 -0.2556  0.2008  0.8691
  933TIP3    H1 2742   3.542   2.671   0.856 -0.6642  1.3981 -0.8146
  933TIP3    H2 2743   3.678   2.713   0.807  0.0278 -0.1139 -0.2358
  934TIP3   OH2 2744   3.545   4.394   1.068  0.1561 -0.2386 -0.2780
  934TIP3    H1 2745   3.573   4.309   1.033  2.1018  0.5709 -0.7573
  934TIP3    H2 2746   3.529   4.448   0.990  1.8508  0.7414  0.0350
  935TIP3   OH2 2747   2.380   4.301   0.798 -0.1627 -0.9060 -0.3669
  935TIP3    H1 2748   2.412   4.223   0.752  1.2455 -0.3672 -0.3483
  935TIP3    H2 2749   2.418   4.293   0.886  0.7216  0.2264 -0.6332
  936TIP3   OH2 2750   0.512   4.351   1.310  0.2246  0.3644  0.0713
  936TIP3    H1 2751   0.573   4.330   1.240  0.7327  2.7948 -0.2517
  936TIP3    H2 2752   0.432   4.380   1.266 -0.7762 -1.6330  0.5030
  937TIP3   OH2 2753   0.323   1.052   5.991 -0.2394 -0.0605 -0.3378
  937TIP3    H1 2754   0.268   1.110   5.939  0.1557  0.7723  0.1751
  937TIP3    H2 2755   0.409   1.094   5.992 -0.2089 -0.1349  0.8843
  938TIP3   OH2 2756   0.379   2.176   6.783 -0.6894 -0.3306 -0.4741
  938TIP3    H1 2757   0.294   2.173   6.826 -0.1807  0.5617  0.6399
  938TIP3    H2 2758   0.426   2.247   6.828  0.8702 -1.2353 -0.6334
  939TIP3   OH2 2759   1.714   2.810   0.738  0.1360 -0.1273  0.2716
  939TIP3    H1 2760   1.619   2.800   0.743  0.1672 -0.9155 -0.5728
  939TIP3    H2 2761   1.728   2.870   0.664  0.2401  1.1939  1.3333
  940TIP3   OH2 2762   1.850   1.803   2.309  0.0290  0.2951 -0.0542
  940TIP3    H1 2763   1.853   1.780   2.216  1.3569 -4.6143  1.0557
  940TIP3    H2 2764   1.758   1.794   2.333 -0.0468 -0.2192 -0.5247
  941TIP3   OH2 2765   7.921   7.772   4.918 -0.4820 -0.3763 -0.3573
  941TIP3    H1 2766   7.958   7.822   4.846 -2.3075  1.5060 -0.0456
  941TIP3    H2 2767   7.897   7.838   4.984 -0.3635 -1.9017  1.2699
  942TIP3   OH2 2768   4.772   4.735   1.311  0.3432  0.2321 -0.2910
  942TIP3    H1 2769   4.782   4.721   1.405 -0.9753 -0.0272 -0.1712
  942TIP3    H2 2770   4.714   4.811   1.305  1.7656  1.2652 -0.9022
  943TIP3   OH2 2771   2.624   4.511   3.454 -0.3705  0.5051  0.2817
  943TIP3    H1 2772   2.601   4.597   3.488 -0.1953  0.4137  0.6262
  943TIP3    H2 2773   2.565   4.451   3.499 -2.2091  0.7038 -1.7709
  944TIP3   OH2 2774   0.538   0.034   4.731  0.2416 -0.1716  0.9375
  944TIP3    H1 2775   0.523   0.121   4.769  0.1756 -1.1591  3.3012
  944TIP3    H2 2776   0.603   0.048   4.663  0.3215  1.7180  1.3675
  945TIP3   OH2 2777   4.268   2.354   1.149  0.0007  0.0652 -0.1612
  945TIP3    H1 2778   4.260   2.306   1.231 -0.6553 -2.4075 -1.5854
  945TIP3    H2 2779   4.178   2.363   1.118  0.2599  0.7729 -0.7228
  946TIP3   OH2 2780   5.272   6.226   4.676  0.1642  0.1745  0.2606
  946TIP3    H1 2781   5.261   6.172   4.598 -0.7191  2.0272 -0.9370
  946TIP3    H2 2782   5.187   6.268   4.689  0.8126  1.2540  1.1743
  947TIP3   OH2 2783   2.993   1.593   2.997 -0.3708 -0.6289 -0.2227
  947TIP3    H1 2784   2.996   1.549   3.081  1.3925 -3.2636 -1.5916
  947TIP3    H2 2785   3.042   1.674   3.010 -0.5678 -0.7714  1.4144
  948TIP3   OH2 2786   1.708   4.398   1.764  0.0992 -0.1783  0.4608
  948TIP3    H1 2787   1.710   4.434   1.852 -1.2650 -1.4156  1.0227
  948TIP3    H2 2788   1.771   4.326   1.766  2.0860  1.4973 -0.3756
  949TIP3   OH2 2789   1.812   3.022   1.114 -0.2699  0.0007  0.0982
  949TIP3    H1 2790   1.808   3.027   1.019  1.5439 -0.2683 -0.0022
  949TIP3    H2 2791   1.732   3.065   1.144 -0.0557  1.5529 -1.5116
  950TIP3   OH2 2792   4.278   4.302   0.658 -0.0065  0.2788  1.1014
  950TIP3    H1 2793   4.355   4.324   0.604 -1.0935 -2.6036 -1.7690
  950TIP3    H2 2794   4.246   4.387   0.688  2.1739  1.8046 -0.6696
  951TIP3   OH2 2795   2.768   4.634   1.556  0.1577 -0.6030 -0.0427
  951TIP3    H1 2796   2.709   4.645   1.481  0.5170  2.8245  0.0937
  951TIP3    H2 2797   2.719   4.581   1.618 -1.6314 -0.2916 -1.1671
  952TIP3   OH2 2798   6.015   6.327   6.801  0.1342  0.1614  0.1046
  952TIP3    H1 2799   5.979   6.246   6.764  0.4910 -0.4614  1.0902
  952TIP3    H2 2800   5.944   6.391   6.793 -0.3679 -0.4197 -0.0923
  953TIP3   OH2 2801   4.578   2.086   1.890  1.0529  0.1356  0.0052
  953TIP3    H1 2802   4.552   2.176   1.907 -1.4349 -0.7473  1.1467
  953TIP3    H2 2803   4.603   2.085   1.798  0.1785  1.7974 -0.2683
  954TIP3   OH2 2804   3.414   1.382   1.576 -0.3894  0.0503  0.1851
  954TIP3    H1 2805   3.461   1.325   1.637 -0.0235  1.9052  1.6854
  954TIP3    H2 2806   3.326   1.389   1.613 -0.4427  0.4277 -0.0137
  955TIP3   OH2 2807   4.273   5.164   0.955  0.2074 -0.2391 -0.1700
  955TIP3    H1 2808   4.194   5.174   1.007  0.2011  0.0644 -0.2353
  955TIP3    H2 2809   4.278   5.245   0.904 -0.2231 -0.8819 -1.2351
  956TIP3   OH2 2810   2.829   2.667   1.411  0.4331  0.2223 -0.7705
  956TIP3    H1 2811   2.848   2.736   1.348 -0.6834 -0.3804 -1.7642
  956TIP3    H2 2812   2.734   2.660   1.413  0.4542  0.0530  0.7963
  957TIP3   OH2 2813   4.096   2.045   1.673  0.5253  0.3166 -0.6578
  957TIP3    H1 2814   4.065   2.133   1.691  1.2575 -0.2138  3.7778
  957TIP3    H2 2815   4.020   2.000   1.635 -1.0076  1.8144  0.5709
  958TIP3   OH2 2816   1.471   0.933   6.603  0.1937 -0.3060  0.2037
  958TIP3    H1 2817   1.432   0.927   6.516  0.7881 -0.3797 -0.0594
  958TIP3    H2 2818   1.406   0.895   6.662 -0.8875  1.1882 -0.0056
  959TIP3   OH2 2819   7.241   0.413   4.462 -0.5903 -0.0585 -0.0048
  959TIP3    H1 2820   7.213   0.321   4.467  0.1842 -0.2493  0.8691
  959TIP3    H2 2821   7.231   0.446   4.551 -0.6412  0.6481 -0.2670
  960TIP3   OH2 2822   3.346   4.360   0.607 -0.0494  0.0348  0.0056
  960TIP3    H1 2823   3.412   4.290   0.606  0.0990  0.1381  1.2695
  960TIP3    H2 2824   3.368   4.416   0.533  0.0273 -1.0700 -0.8297
  961TIP3   OH2 2825   1.923   4.244   1.625  0.0608  0.1700  0.1943
  961TIP3    H1 2826   1.876   4.163   1.608  0.2991  0.4588 -1.9696
  961TIP3    H2 2827   2.006   4.216   1.664  0.8079 -0.7359 -2.0050
  962TIP3   OH2 2828   2.041   2.510   2.343  0.3102  0.7279 -0.2840
  962TIP3    H1 2829   2.015   2.425   2.308 -0.3051  1.4155 -1.5419
  962TIP3    H2 2830   2.133   2.497   2.369  0.5237 -0.0663 -1.3582
  963TIP3   OH2 2831   2.122   0.259   1.877 -0.1155  0.4344  0.1850
  963TIP3    H1 2832   2.033   0.260   1.841  0.4503  0.5018 -1.2589
  963TIP3    H2 2833   2.127   0.338   1.931 -1.2389 -0.0918  1.0822
  964TIP3   OH2 2834   1.434   4.455   0.806 -0.1104  0.1050 -0.7554
  964TIP3    H1 2835   1.473   4.405   0.735  0.2172  1.1481 -1.3129
  964TIP3    H2 2836   1.503   4.515   0.835 -0.3037 -0.1670  0.3096
  965TIP3   OH2 2837   3.403   5.295   1.266  0.2464 -0.0612 -0.1001
  965TIP3    H1 2838   3.410   5.321   1.174  0.3204  0.3150  0.0134
  965TIP3    H2 2839   3.482   5.244   1.282  0.1338 -0.3002 -0.3025
  966TIP3   OH2 2840   6.902   7.490   4.655 -0.2996  0.3984  0.3825
  966TIP3    H1 2841   6.919   7.424   4.721  1.7136 -1.7659 -2.1847
  966TIP3    H2 2842   6.963   7.561   4.676  1.3285 -0.8719  0.0900
  967TIP3   OH2 2843   2.539   3.392   0.691 -0.0073 -0.0029 -0.1661
  967TIP3    H1 2844   2.542   3.471   0.744  0.9378  0.8651 -1.4697
  967TIP3    H2 2845   2.552   3.320   0.754  1.8706  1.0438  0.6884
  968TIP3   OH2 2846   2.732   6.095   3.043 -0.4253 -0.0025  0.2135
  968TIP3    H1 2847   2.713   6.189   3.032 -1.6429 -0.2772 -0.0726
  968TIP3    H2 2848   2.694   6.073   3.127  1.1036  0.0595  0.9512
  969TIP3   OH2 2849   4.543   3.588   2.036  0.0409  0.4566 -0.4180
  969TIP3    H1 2850   4.458   3.545   2.040  0.7559 -0.9114  0.3027
  969TIP3    H2 2851   4.601   3.524   1.996  1.3119  0.4305  1.4158
  970TIP3   OH2 2852   2.552   5.229   1.475 -0.3227 -1.0684  0.1998
  970TIP3    H1 2853   2.518   5.247   1.388  1.1183 -0.7580 -0.3207
  970TIP3    H2 2854   2.645   5.210   1.461 -0.3692 -2.3646  1.5115
  971TIP3   OH2 2855   1.997   4.553   0.650  0.0183  0.0583  0.0473
  971TIP3    H1 2856   2.050   4.536   0.728  2.0621 -2.6839 -1.8579
  971TIP3    H2 2857   1.955   4.470   0.631  1.8997 -0.2022 -3.4202
  972TIP3   OH2 2858   6.938   7.853   5.508 -0.3584  0.3388 -0.0490
  972TIP3    H1 2859   6.905   7.883   5.423 -2.5160 -0.1933  0.5656
  972TIP3    H2 2860   7.007   7.915   5.530 -0.2540  0.8987 -1.8568
  973TIP3   OH2 2861   2.446   5.748   1.407 -0.7287 -0.0385 -0.2338
  973TIP3    H1 2862   2.437   5.827   1.354  1.7516 -0.0681 -0.7393
  973TIP3    H2 2863   2.503   5.775   1.480  0.8792 -1.5775 -0.9007
  974TIP3   OH2 2864   5.472   6.738   6.447 -0.0688  0.0555 -0.0145
  974TIP3    H1 2865   5.561   6.708   6.430 -0.1999 -0.3553  0.0127
  974TIP3    H2 2866   5.476   6.774   6.536  0.6764  2.4676 -0.9851
  975TIP3   OH2 2867   3.546   4.543   2.182 -0.0742 -0.0912 -0.0108
  975TIP3    H1 2868   3.472   4.596   2.153  0.1790  0.2190 -0.0897
  975TIP3    H2 2869   3.549   4.559   2.277 -0.6436 -0.7808  0.1279
  976TIP3   OH2 2870   7.652   1.358   6.465 -0.7066  0.9102 -0.3181
  976TIP3    H1 2871   7.627   1.325   6.379 -0.5029 -0.5264  0.1731
  976TIP3    H2 2872   7.748   1.357   6.464 -0.7053  0.7441 -0.0073
  977TIP3   OH2 2873   4.311   4.631   3.096 -0.2373  0.3733  0.6085
  977TIP3    H1 2874   4.261   4.580   3.160 -0.1600  2.3334  2.2664
  977TIP3    H2 2875   4.249   4.697   3.065  0.5002  1.0712  0.6056
  978TIP3   OH2 2876   0.594   3.812   0.845 -0.0437  0.0651 -0.1319
  978TIP3    H1 2877   0.575   3.723   0.875  0.5570  0.2266  0.7543
  978TIP3    H2 2878   0.644   3.799   0.765  0.1106 -0.4028  0.0324
  979TIP3   OH2 2879   6.534   7.650   6.647  0.8567 -0.4169  0.3069
  979TIP3    H1 2880   6.540   7.715   6.578  1.0488  1.4954  2.0806
  979TIP3    H2 2881   6.615   7.599   6.640  0.5766 -0.6600 -1.2635
  980TIP3   OH2 2882   2.522   5.653   2.140  0.3582  0.1107  0.5112
  980TIP3    H1 2883   2.488   5.698   2.063 -0.7198 -0.1402  0.8300
  980TIP3    H2 2884   2.616   5.669   2.138  0.0754  1.8023  0.2549
  981TIP3   OH2 2885   1.139   2.200   2.956 -0.2510 -0.3681 -0.3404
  981TIP3    H1 2886   1.196   2.253   3.012 -1.5396 -0.7147  1.3440
  981TIP3    H2 2887   1.176   2.112   2.961 -0.5513 -0.4640  0.2426
  982TIP3   OH2 2888   1.170   2.216   3.329 -0.1343 -0.4325 -0.0974
  982TIP3    H1 2889   1.201   2.278   3.263 -1.1434 -1.2743 -1.3879
  982TIP3    H2 2890   1.229   2.142   3.323  0.5578  0.0292  0.8598
  983TIP3   OH2 2891   3.576   4.018   3.615  0.1332 -0.2132  0.1213
  983TIP3    H1 2892   3.579   3.923   3.604 -0.9009 -0.1732 -0.4582
  983TIP3    H2 2893   3.571   4.053   3.526  3.0039  0.4966  0.1636
  984TIP3   OH2 2894   1.598   3.163   0.223  0.1331  0.3511  0.0976
  984TIP3    H1 2895   1.589   3.256   0.243  0.7164  0.3781  0.2426
  984TIP3    H2 2896   1.685   3.156   0.184  0.2911 -0.2107  0.5449
  985TIP3   OH2 2897   3.168   2.794   2.307 -0.2517  0.2483  0.1895
  985TIP3    H1 2898   3.244   2.799   2.365  0.7565 -0.7458 -1.0139
  985TIP3    H2 2899   3.093   2.785   2.366  0.5052  1.6487  1.3985
  986TIP3   OH2 2900   3.649   3.246   1.900  0.1158  0.2330 -0.7028
  986TIP3    H1 2901   3.723   3.289   1.858 -1.2200  0.9157 -2.4266
  986TIP3    H2 2902   3.605   3.316   1.948 -0.0640  0.0669 -0.6263
  987TIP3   OH2 2903   4.415   3.987   1.687 -0.2807 -0.6242 -0.0393
  987TIP3    H1 2904   4.438   3.935   1.764  0.2263 -0.0803  0.1782
  987TIP3    H2 2905   4.326   4.018   1.705  0.2251  0.3554  0.7938
  988TIP3   OH2 2906   3.777   3.753   2.252 -0.1811  0.1758  0.1789
  988TIP3    H1 2907   3.815   3.685   2.307  1.4367  1.9874  1.3110
  988TIP3    H2 2908   3.846   3.817   2.240 -1.5679  1.4666 -1.2027
  989TIP3   OH2 2909   2.918   1.619   2.213 -0.5693 -0.3135 -0.5951
  989TIP3    H1 2910   2.906   1.676   2.289 -0.0884 -1.2140  0.1769
  989TIP3    H2 2911   2.832   1.579   2.199 -0.7202  0.0373 -0.6816
  990TIP3   OH2 2912   7.339   1.426   2.693 -0.1640  0.1954 -0.5160
  990TIP3    H1 2913   7.282   1.431   2.770  0.6607  2.9948 -0.0362
  990TIP3    H2 2914   7.426   1.444   2.726  0.6668 -1.5564 -1.6626
  991TIP3   OH2 2915   3.424   3.929   1.349 -0.4791 -0.8410 -0.1816
  991TIP3    H1 2916   3.403   3.893   1.435  0.1952 -1.8222 -0.4216
  991TIP3    H2 2917   3.486   4.000   1.368 -0.0256 -1.3125  0.1048
  992TIP3   OH2 2918   1.158   2.783   0.360  0.3802  0.5652  0.3071
  992TIP3    H1 2919   1.248   2.761   0.340  0.2470  0.1203  0.1947
  992TIP3    H2 2920   1.139   2.736   0.441  0.4658  1.2116  0.7074
  993TIP3   OH2 2921   1.852   4.894   0.082 -0.5280 -0.1891  0.2181
  993TIP3    H1 2922   1.919   4.840   0.125 -0.6090 -1.3285 -1.0336
  993TIP3    H2 2923   1.871   4.983   0.111  1.2867 -0.5443  0.2200
  994TIP3   OH2 2924   1.627   4.017   1.184  0.1393  0.1592 -0.4842
  994TIP3    H1 2925   1.639   4.003   1.090 -0.1845  1.3170 -0.7046
  994TIP3    H2 2926   1.715   4.009   1.221  0.3731  0.4302 -0.9861
  995TIP3   OH2 2927   4.013   4.215   1.106  0.2935 -0.9435 -0.4920
  995TIP3    H1 2928   4.088   4.170   1.067  0.2288 -1.4078 -0.0818
  995TIP3    H2 2929   4.027   4.308   1.084  1.0624 -1.0074 -0.2920
  996TIP3   OH2 2930   3.444   4.461   0.366 -0.3549 -0.1890 -0.0603
  996TIP3    H1 2931   3.453   4.556   0.356 -0.5157 -0.0868  0.6904
  996TIP3    H2 2932   3.458   4.426   0.278  0.7450  0.4588 -0.1611
  997TIP3   OH2 2933   3.926   3.898   1.619  0.1757 -0.0605 -0.1778
  997TIP3    H1 2934   3.930   3.803   1.628 -0.6978 -0.1459 -0.5952
  997TIP3    H2 2935   3.989   3.919   1.550 -0.3225 -0.4389 -0.7511
  998TIP3   OH2 2936   1.967   2.733   0.977 -0.1380 -0.5241 -0.3366
  998TIP3    H1 2937   1.955   2.671   1.049  1.8087 -0.9823 -0.3812
  998TIP3    H2 2938   1.888   2.725   0.925 -1.4190 -0.4541  1.5560
  999TIP3   OH2 2939   4.096   3.458   1.076 -0.2027 -0.2338  0.0926
  999TIP3    H1 2940   4.180   3.461   1.120 -0.8593  0.4720  1.3122
  999TIP3    H2 2941   4.081   3.548   1.048 -0.5149 -0.3758 -0.1972
 1000TIP3   OH2 2942   3.791   6.317   3.261 -0.3463  0.5829  0.5523
 1000TIP3    H1 2943   3.763   6.381   3.327 -1.2871  0.7457  0.0049
 1000TIP3    H2 2944   3.882   6.342   3.241 -0.6420  1.6252  0.4879
 1001TIP3   OH2 2945   2.530   0.445   4.719  0.3673  0.0588 -0.1552
 1001TIP3    H1 2946   2.438   0.468   4.707  0.5697  1.3253  0.5539
 1001TIP3    H2 2947   2.573   0.529   4.737  1.1899 -0.8459  2.3450
 1002TIP3   OH2 2948   1.185   1.007   4.238  0.0884  0.2222  0.5752
 1002TIP3    H1 2949   1.208   0.960   4.318  2.7483 -2.1556 -1.4680
 1002TIP3    H2 2950   1.268   1.045   4.208 -0.8786  1.1221 -1.0525
 1003TIP3   OH2 2951   2.689   1.835   0.520 -0.0926  0.3371 -0.0423
 1003TIP3    H1 2952   2.603   1.794   0.513  0.5345 -0.8566 -1.2474
 1003TIP3    H2 2953   2.691   1.899   0.449 -0.1938  0.7897  0.3579
 1004TIP3   OH2 2954   6.271   7.712   6.722 -0.2888 -0.5695  0.2826
 1004TIP3    H1 2955   6.366   7.711   6.711 -0.4292 -0.0044 -1.0550
 1004TIP3    H2 2956   6.237   7.680   6.639 -1.2875 -0.0131  0.4753
 1005TIP3   OH2 2957   3.517   2.164   0.957  0.3400  0.4023 -0.3221
 1005TIP3    H1 2958   3.525   2.082   1.006 -1.8889  0.7469  0.6563
 1005TIP3    H2 2959   3.567   2.228   1.008  0.8335  0.0119 -0.3040
 1006TIP3   OH2 2960   5.327   4.690   1.514  0.3040 -0.2549 -0.2315
 1006TIP3    H1 2961   5.375   4.715   1.593 -2.0436 -0.0773  1.1772
 1006TIP3    H2 2962   5.235   4.698   1.538 -0.4553 -0.2832 -2.9768
 1007TIP3   OH2 2963   4.711   3.558   1.256 -0.4598 -0.0856  0.5352
 1007TIP3    H1 2964   4.756   3.642   1.261  0.9035 -0.7858  0.6310
 1007TIP3    H2 2965   4.629   3.571   1.302  0.2300  0.8956  1.5223
 1008TIP3   OH2 2966   4.124   4.822   1.070  0.3619  0.4194  0.1112
 1008TIP3    H1 2967   4.117   4.914   1.094 -0.4251  0.5984 -0.7626
 1008TIP3    H2 2968   4.036   4.798   1.041  1.1757  0.1574 -2.3124
 1009TIP3   OH2 2969   3.219   3.109   0.668 -0.4041 -0.0191  0.6191
 1009TIP3    H1 2970   3.307   3.139   0.690 -0.7205 -0.5741  2.7584
 1009TIP3    H2 2971   3.233   3.044   0.600  0.9608 -1.0748  1.8740
 1010TIP3   OH2 2972   3.736   6.205   0.664 -0.0743  0.3897 -0.4072
 1010TIP3    H1 2973   3.710   6.113   0.671  1.0142  0.0395 -0.9267
 1010TIP3    H2 2974   3.654   6.253   0.677 -0.5109 -0.6216  0.7247
 1011TIP3   OH2 2975   3.435   3.832   1.986 -0.1636  0.0505  0.1898
 1011TIP3    H1 2976   3.507   3.790   1.940  0.7742  0.8121  0.9342
 1011TIP3    H2 2977   3.373   3.761   2.003 -0.3075 -0.3154 -1.8193
 1012TIP3   OH2 2978   1.567   1.965   2.123 -0.0081 -0.2106 -0.2583
 1012TIP3    H1 2979   1.502   1.912   2.077 -0.1258  0.5167 -0.9317
 1012TIP3    H2 2980   1.638   1.903   2.143 -0.1475 -0.6275 -1.0334
 1013TIP3   OH2 2981   5.887   2.512   1.852 -0.4403  0.0396  0.0148
 1013TIP3    H1 2982   5.938   2.531   1.773 -1.1454 -0.3766 -0.5481
 1013TIP3    H2 2983   5.905   2.586   1.910  0.6386 -0.0035 -0.2547
 1014TIP3   OH2 2984   6.065   4.641   5.916 -0.0953  0.6962 -0.2987
 1014TIP3    H1 2985   6.111   4.599   5.988 -1.6685 -1.7569 -0.6658
 1014TIP3    H2 2986   5.996   4.693   5.957 -3.0815 -3.2352 -0.0167
 1015TIP3   OH2 2987   3.522   1.606   2.569 -0.1297  0.1419  0.0857
 1015TIP3    H1 2988   3.433   1.638   2.581 -0.4135 -0.7776  0.4653
 1015TIP3    H2 2989   3.577   1.673   2.610 -0.5570  1.2655 -1.1185
 1016TIP3   OH2 2990   1.818   3.023   2.104  0.3383  0.2519 -0.5493
 1016TIP3    H1 2991   1.821   3.097   2.164  0.7570 -0.2862  0.1026
 1016TIP3    H2 2992   1.895   3.035   2.047  0.5842  0.1558 -0.2405
 1017TIP3   OH2 2993   5.279   3.814   1.258  0.3319 -0.2870 -0.5470
 1017TIP3    H1 2994   5.275   3.871   1.334  1.1094 -0.4020 -0.4148
 1017TIP3    H2 2995   5.208   3.751   1.271  0.8599 -0.7052  0.4090
 1018TIP3   OH2 2996   7.101   5.648   5.631 -0.0686  0.1814  0.1850
 1018TIP3    H1 2997   7.158   5.642   5.707  1.4266  2.2432 -0.7423
 1018TIP3    H2 2998   7.020   5.686   5.665  0.2550  0.2374  0.9029
 1019TIP3   OH2 2999   2.967   1.753   0.275 -0.0200 -0.8536 -0.4342
 1019TIP3    H1 3000   2.945   1.674   0.324 -0.4481 -0.2436  0.3525
 1019TIP3    H2 3001   2.930   1.825   0.326  0.9245 -0.0880 -0.8050
 1020TIP3   OH2 3002   3.811   5.188   0.744 -0.3777  0.6366 -0.3831
 1020TIP3    H1 3003   3.903   5.173   0.769  0.0091  2.1542 -0.8523
 1020TIP3    H2 3004   3.801   5.144   0.660 -0.3597 -0.3658  0.1290
 1021TIP3   OH2 3005   2.617   0.189   3.019  0.5559  0.4708  0.2253
 1021TIP3    H1 3006   2.640   0.099   3.044  0.2266  0.6776  1.3054
 1021TIP3    H2 3007   2.522   0.187   3.006  0.6394  0.5127 -0.3787
 1022TIP3   OH2 3008   2.040   4.975   0.758  0.4286  0.3170 -0.0806
 1022TIP3    H1 3009   1.993   4.942   0.835  0.4589  0.9084  0.1948
 1022TIP3    H2 3010   2.000   4.929   0.684  0.2947 -0.1401  0.2751
 1023TIP3   OH2 3011   2.593   3.883   0.609 -0.1860  0.2602  0.2970
 1023TIP3    H1 3012   2.547   3.831   0.543  1.3171 -0.3519 -0.3010
 1023TIP3    H2 3013   2.634   3.953   0.559 -0.1276  0.5594  0.7647
 1024TIP3   OH2 3014   1.458   4.168   2.562 -0.0272 -0.1435  0.8743
 1024TIP3    H1 3015   1.429   4.227   2.491 -2.4330  0.0393  1.9367
 1024TIP3    H2 3016   1.545   4.199   2.584 -0.2383  1.4116 -0.3240
 1025TIP3   OH2 3017   3.549   4.264   1.707 -0.0935 -0.8658 -0.0798
 1025TIP3    H1 3018   3.477   4.202   1.698  0.0821 -1.4908  2.6188
 1025TIP3    H2 3019   3.622   4.222   1.661 -0.2371 -2.2270  0.9199
 1026TIP3   OH2 3020   4.029   2.818   2.034 -0.4199  0.3185 -0.0230
 1026TIP3    H1 3021   3.995   2.904   2.010 -3.2956 -1.1339 -1.3978
 1026TIP3    H2 3022   4.122   2.833   2.050 -0.9103  3.7284  0.0888
 1027TIP3   OH2 3023   3.620   5.171   1.633 -0.1480 -0.7226  0.4110
 1027TIP3    H1 3024   3.595   5.240   1.695 -1.0552 -1.6912  1.1216
 1027TIP3    H2 3025   3.661   5.104   1.687  2.0206 -0.1630 -0.4486
 1028TIP3   OH2 3026   2.990   6.409   2.067 -0.1272 -0.5461 -0.2610
 1028TIP3    H1 3027   3.011   6.440   2.156 -1.5647  0.6412 -0.3200
 1028TIP3    H2 3028   2.984   6.314   2.076  3.2057 -0.7732  0.1830
 1029TIP3   OH2 3029   2.944   5.867   1.652  0.1660 -0.0555 -0.6482
 1029TIP3    H1 3030   2.878   5.800   1.669  0.1354  0.1225 -0.0523
 1029TIP3    H2 3031   2.981   5.886   1.738  1.2451 -0.4121 -1.0142
 1030TIP3   OH2 3032   4.918   4.894   0.324 -0.2111  0.1733 -0.3696
 1030TIP3    H1 3033   4.864   4.891   0.403 -0.9683  1.2680 -0.8267
 1030TIP3    H2 3034   4.865   4.848   0.258  0.8311 -1.5787 -0.0161
 1031TIP3   OH2 3035   4.385   4.497   1.077 -0.0567  0.8426 -0.0798
 1031TIP3    H1 3036   4.424   4.550   1.007  2.0189  0.6281  0.8915
 1031TIP3    H2 3037   4.412   4.407   1.058 -1.9269  0.3683 -0.6135
 1032TIP3   OH2 3038   4.322   5.078   0.157  0.0432  0.2497 -0.0507
 1032TIP3    H1 3039   4.392   5.045   0.213 -1.5724 -0.9567  1.2821
 1032TIP3    H2 3040   4.278   4.999   0.125 -1.6244  1.0213  0.3134
 1033TIP3   OH2 3041   2.631   4.500   2.006 -1.1717 -0.2493 -0.0222
 1033TIP3    H1 3042   2.660   4.483   2.096 -0.9926 -0.7926 -0.1778
 1033TIP3    H2 3043   2.537   4.514   2.014 -1.2326 -0.7523  0.1941
 1034TIP3   OH2 3044   2.035   4.414   1.959 -0.4236 -0.0209  0.2203
 1034TIP3    H1 3045   2.084   4.337   1.930 -0.3347  0.0568  0.1672
 1034TIP3    H2 3046   2.059   4.483   1.898  0.6602  0.4666  1.1697
 1035TIP3   OH2 3047   3.967   0.459   1.506 -0.1092  0.2385 -0.2767
 1035TIP3    H1 3048   3.925   0.511   1.575 -0.7817 -0.2539 -0.3110
 1035TIP3    H2 3049   4.026   0.521   1.463 -1.3235  1.1325 -0.6925
 1036TIP3   OH2 3050   5.699   3.069   2.151 -0.1332 -0.3510  0.6688
 1036TIP3    H1 3051   5.698   3.121   2.071 -1.5606 -0.0472  0.8655
 1036TIP3    H2 3052   5.783   3.024   2.149  0.4656  0.7584 -0.2802
 1037TIP3   OH2 3053   5.933   2.914   1.648  0.1255  0.1130 -0.9936
 1037TIP3    H1 3054   6.011   2.944   1.694  0.1224 -1.4977  0.0751
 1037TIP3    H2 3055   5.864   2.974   1.678  0.6558  0.6897 -0.9017
 1038TIP3   OH2 3056   4.499   2.452   1.711 -0.0114 -0.0081  0.8181
 1038TIP3    H1 3057   4.439   2.472   1.783  1.7166  0.5179  2.1642
 1038TIP3    H2 3058   4.452   2.478   1.632 -1.8691 -0.3995  1.7794
 1039TIP3   OH2 3059   3.950   1.598   0.366 -0.3921 -0.0469  0.1035
 1039TIP3    H1 3060   3.937   1.522   0.422  0.0422  0.1548  0.4838
 1039TIP3    H2 3061   3.896   1.581   0.289 -0.0049 -0.9103  0.0158
 1040TIP3   OH2 3062   7.358   7.670   0.772  0.5217 -0.2072  0.3788
 1040TIP3    H1 3063   7.292   7.714   0.719 -0.4235  0.3670  2.0031
 1040TIP3    H2 3064   7.427   7.735   0.784  1.3215 -0.7540 -1.1834
 1041TIP3   OH2 3065   3.369   2.602   1.586 -0.3392  0.3756  0.1500
 1041TIP3    H1 3066   3.382   2.519   1.632  0.1502 -0.4795 -1.5022
 1041TIP3    H2 3067   3.429   2.662   1.629  0.1269 -0.4113  0.6195
 1042TIP3   OH2 3068   4.321   7.472   6.456 -0.4086 -0.4817  0.1380
 1042TIP3    H1 3069   4.270   7.498   6.533  0.0115 -0.2037  0.3190
 1042TIP3    H2 3070   4.390   7.416   6.491 -0.1108 -0.2101 -0.0192
 1043TIP3   OH2 3071   6.990   1.342   5.302 -0.3102  0.4685 -0.0097
 1043TIP3    H1 3072   7.027   1.429   5.294 -1.3394  0.7787 -1.7892
 1043TIP3    H2 3073   7.063   1.283   5.282  0.0487  0.9772 -0.2153
 1044TIP3   OH2 3074   2.122   1.525   1.885  0.2484  0.1134 -0.2493
 1044TIP3    H1 3075   2.179   1.584   1.835  0.5812  0.8812  1.0124
 1044TIP3    H2 3076   2.139   1.547   1.977 -0.5254 -1.1140  0.2051
 1045TIP3   OH2 3077   3.598   2.307   1.776  0.4131  0.2327  0.2618
 1045TIP3    H1 3078   3.528   2.287   1.713 -0.7335 -0.1602  1.6369
 1045TIP3    H2 3079   3.590   2.401   1.791 -0.6556 -0.0404  1.4015
 1046TIP3   OH2 3080   3.695   5.447   1.171 -0.4924 -0.4975  0.2416
 1046TIP3    H1 3081   3.712   5.510   1.241 -0.6686 -0.0068 -0.1531
 1046TIP3    H2 3082   3.676   5.365   1.217 -0.3317 -0.2482  0.7610
 1047TIP3   OH2 3083   0.677   0.458   6.011  0.9068  0.5575  0.5732
 1047TIP3    H1 3084   0.741   0.388   6.027  0.1511 -0.0652  0.8981
 1047TIP3    H2 3085   0.609   0.444   6.076 -0.0732  0.5917 -0.4288
 1048TIP3   OH2 3086   4.781   2.362   2.893  0.2983  0.4963 -0.1471
 1048TIP3    H1 3087   4.791   2.276   2.853  3.5968  1.1761 -0.9522
 1048TIP3    H2 3088   4.849   2.365   2.960  0.0326  2.3613  0.0799
 1049TIP3   OH2 3089   3.597   3.151   1.010 -0.4905 -0.5723  0.0643
 1049TIP3    H1 3090   3.660   3.083   1.032 -0.4031 -0.7317 -0.6729
 1049TIP3    H2 3091   3.603   3.213   1.083  0.4801 -0.6153  0.0341
 1050TIP3   OH2 3092   1.230   0.442   6.048 -0.0123  0.1197  0.2285
 1050TIP3    H1 3093   1.175   0.489   6.110  0.3957  1.5507 -0.4457
 1050TIP3    H2 3094   1.302   0.407   6.100 -0.2753  0.3365  0.7340
 1051TIP3   OH2 3095   3.544   2.307   2.603  0.2279  0.0329 -0.1197
 1051TIP3    H1 3096   3.468   2.286   2.549  0.7925 -1.0471 -0.4919
 1051TIP3    H2 3097   3.612   2.247   2.574  1.2057  0.9318  0.2797
 1052TIP3   OH2 3098   3.597   4.126   1.438 -0.7335 -0.2371  0.2890
 1052TIP3    H1 3099   3.674   4.133   1.494 -0.4617 -1.5551  0.1061
 1052TIP3    H2 3100   3.536   4.192   1.472  0.6489  1.1557  0.1171
 1053TIP3   OH2 3101   6.438   1.722   0.892 -0.5977 -0.0146 -0.1908
 1053TIP3    H1 3102   6.459   1.659   0.823  1.6647 -0.7253  1.0901
 1053TIP3    H2 3103   6.354   1.692   0.927 -0.0760 -1.7059 -0.3315
 1054TIP3   OH2 3104   6.792   3.904   0.899 -0.0615  0.1156 -0.2244
 1054TIP3    H1 3105   6.701   3.879   0.918 -0.2695  0.8357 -0.2762
 1054TIP3    H2 3106   6.790   3.999   0.894  0.4189  0.0588 -1.6983
 1055TIP3   OH2 3107   5.468   2.624   1.562  0.0251 -0.0328 -0.5319
 1055TIP3    H1 3108   5.554   2.655   1.590 -0.6467  0.0803  1.4985
 1055TIP3    H2 3109   5.406   2.667   1.621 -1.3837 -0.5787 -1.5731
 1056TIP3   OH2 3110   4.677   5.965   0.716 -0.4735  0.0948 -0.0596
 1056TIP3    H1 3111   4.751   5.978   0.657  0.0824  0.2863  0.6736
 1056TIP3    H2 3112   4.608   5.930   0.660 -0.1630  0.8744 -0.9487
 1057TIP3   OH2 3113   2.405   0.212   5.079 -0.0460  0.0742  0.3882
 1057TIP3    H1 3114   2.495   0.246   5.079 -0.2275  0.6357 -2.4980
 1057TIP3    H2 3115   2.382   0.207   5.172  2.0465  2.4188  1.0983
 1058TIP3   OH2 3116   4.416   4.939   0.808 -0.2908 -0.2498  0.2566
 1058TIP3    H1 3117   4.466   5.005   0.760  0.0441  0.0328  0.9909
 1058TIP3    H2 3118   4.348   4.988   0.854  0.1741 -0.3721  1.0821
 1059TIP3   OH2 3119   8.018   4.084   6.866  0.0476  0.0915  0.6161
 1059TIP3    H1 3120   8.091   4.125   6.913  0.2624 -2.1233  2.3133
 1059TIP3    H2 3121   8.055   4.004   6.830 -1.4672 -0.9273  1.2638
 1060TIP3   OH2 3122   4.337   2.571   0.979  0.0577  0.3059  0.4730
 1060TIP3    H1 3123   4.322   2.510   1.051  0.3867  1.8173  1.8578
 1060TIP3    H2 3124   4.254   2.617   0.968  0.1458  0.4039  0.1986
 1061TIP3   OH2 3125   3.964   4.488   0.124  0.4717 -0.2570  0.1999
 1061TIP3    H1 3126   3.881   4.514   0.083  1.6876 -0.8771 -2.7541
 1061TIP3    H2 3127   3.938   4.427   0.193 -1.6803  1.2780  0.8156
 1062TIP3   OH2 3128   3.173   6.466   2.443 -0.2773 -0.4094 -0.0091
 1062TIP3    H1 3129   3.206   6.446   2.531 -1.7890 -0.4325  0.5596
 1062TIP3    H2 3130   3.251   6.465   2.388  0.6636 -0.5747  1.3013
 1063TIP3   OH2 3131   4.558   0.512   5.871 -0.3585 -0.3235 -0.4118
 1063TIP3    H1 3132   4.607   0.568   5.932 -0.3384 -1.2733  0.4544
 1063TIP3    H2 3133   4.469   0.510   5.907 -0.2091 -1.3533 -0.0687
 1064TIP3   OH2 3134   5.821   5.179   1.151  0.5766 -0.3312 -0.0360
 1064TIP3    H1 3135   5.801   5.271   1.130  0.6334 -0.5103 -0.8720
 1064TIP3    H2 3136   5.897   5.185   1.210 -1.0476  0.2809  2.0495
 1065TIP3   OH2 3137   3.055   0.865   5.785  0.1313 -0.3410  0.8369
 1065TIP3    H1 3138   3.011   0.888   5.867 -0.7853 -0.2228  0.3055
 1065TIP3    H2 3139   3.132   0.814   5.813 -1.0817 -1.7315  1.6732
 1066TIP3   OH2 3140   5.394   4.220   1.512 -0.5471  0.4343 -0.4137
 1066TIP3    H1 3141   5.421   4.250   1.599 -0.8576 -2.2937  0.6958
 1066TIP3    H2 3142   5.474   4.185   1.473 -0.5131  1.1957 -1.0285
 1067TIP3   OH2 3143   4.380   4.661   0.858 -0.1781 -0.6183  0.4667
 1067TIP3    H1 3144   4.301   4.627   0.816  1.8897 -1.2843 -3.1202
 1067TIP3    H2 3145   4.371   4.756   0.853 -1.6877 -0.6455  2.0463
 1068TIP3   OH2 3146   6.305   5.030   0.840  0.1378  0.1313  0.5359
 1068TIP3    H1 3147   6.297   5.117   0.878  1.1251  0.7769 -0.6983
 1068TIP3    H2 3148   6.370   4.986   0.894  2.6707  1.5575 -1.2436
 1069TIP3   OH2 3149   4.326   3.844   1.180  0.3037 -0.2956  0.2326
 1069TIP3    H1 3150   4.411   3.813   1.149  0.1567  0.3094 -0.7882
 1069TIP3    H2 3151   4.341   3.865   1.273  1.0480 -0.9746  0.2704
 1070TIP3   OH2 3152   0.367   2.026   5.548  0.4323 -0.4185 -0.3308
 1070TIP3    H1 3153   0.457   2.021   5.580  0.4929 -1.9301 -0.6920
 1070TIP3    H2 3154   0.314   2.013   5.626  0.5340 -0.1575 -0.2169
 1071TIP3   OH2 3155   3.773   3.836   1.359  0.5913 -0.3199 -0.0538
 1071TIP3    H1 3156   3.835   3.895   1.315  1.6527 -0.6896  0.9288
 1071TIP3    H2 3157   3.706   3.895   1.395  1.9345  0.3616  1.3942
 1072TIP3   OH2 3158   2.265   1.352   6.823 -0.5650 -0.6364  0.3291
 1072TIP3    H1 3159   2.240   1.284   6.886 -1.4997  0.9478  1.7523
 1072TIP3    H2 3160   2.182   1.395   6.800  0.0148  0.1243 -0.3924
 1073TIP3   OH2 3161   4.482   2.165   2.387 -0.6259 -0.1215 -0.6357
 1073TIP3    H1 3162   4.478   2.247   2.337 -2.0754  1.3405  1.7740
 1073TIP3    H2 3163   4.557   2.177   2.446  0.6157 -1.5327 -1.8765
 1074TIP3   OH2 3164   5.401   4.256   0.978 -0.0156  0.4391 -0.1312
 1074TIP3    H1 3165   5.364   4.295   0.899 -1.0908  0.3147  0.3037
 1074TIP3    H2 3166   5.471   4.199   0.946 -1.5004 -0.8722 -1.1473
 1075TIP3   OH2 3167   5.001   5.167   0.074 -0.1431 -0.1893 -0.1813
 1075TIP3    H1 3168   5.050   5.147   0.154 -1.0578 -0.2553  0.3665
 1075TIP3    H2 3169   4.923   5.213   0.105 -0.2231  0.2822 -1.0865
 1076TIP3   OH2 3170   2.792   7.986   5.945 -0.6752  0.1623  0.2052
 1076TIP3    H1 3171   2.831   7.911   5.901 -0.6266  0.3920 -0.1506
 1076TIP3    H2 3172   2.698   7.967   5.948 -0.5795 -0.2120  0.7073
 1077TIP3   OH2 3173   1.685   1.930   6.378 -0.3014  0.1449 -0.0493
 1077TIP3    H1 3174   1.628   1.854   6.392  1.5717 -1.1570  0.6008
 1077TIP3    H2 3175   1.703   1.962   6.466 -2.2310  2.2647 -0.3646
 1078TIP3   OH2 3176   3.709   1.042   5.043  0.1176  0.3340 -0.0903
 1078TIP3    H1 3177   3.749   1.129   5.045 -0.6050  0.6476  1.7033
 1078TIP3    H2 3178   3.783   0.981   5.049  0.4125  0.8918  2.3463
 1079TIP3   OH2 3179   4.630   4.846   0.947  0.3159 -0.0626  0.5035
 1079TIP3    H1 3180   4.543   4.866   0.914 -0.0807 -0.2676  1.4249
 1079TIP3    H2 3181   4.620   4.763   0.994  0.7813  0.4336  1.4951
 1080TIP3   OH2 3182   2.298   1.036   5.409  0.4107  0.0325  0.0316
 1080TIP3    H1 3183   2.377   1.000   5.449 -1.6301 -1.0919  3.2467
 1080TIP3    H2 3184   2.301   1.129   5.427  0.9206 -0.0389  0.3044
 1081TIP3   OH2 3185   4.576   4.564   0.689  0.1325  0.5581  0.1516
 1081TIP3    H1 3186   4.514   4.604   0.750 -0.6936  0.4065 -0.5786
 1081TIP3    H2 3187   4.661   4.599   0.715 -0.3328  1.2423  0.7780
 1082TIP3   OH2 3188   1.420   1.345   6.833 -0.2542 -0.0830 -0.3773
 1082TIP3    H1 3189   1.378   1.284   6.773 -2.0609 -1.7276  2.4194
 1082TIP3    H2 3190   1.369   1.426   6.826 -1.2608 -0.6884 -0.1310
 1083TIP3   OH2 3191   1.800   1.640   6.778 -0.0911 -0.3390 -0.4558
 1083TIP3    H1 3192   1.844   1.722   6.803  0.7205 -0.1433 -2.4418
 1083TIP3    H2 3193   1.708   1.655   6.799  0.4230  0.1300  1.5494
 1084TIP3   OH2 3194   4.348   4.917   0.527 -0.6148 -0.0461 -0.1598
 1084TIP3    H1 3195   4.367   4.829   0.495 -1.0561 -0.4443  0.6646
 1084TIP3    H2 3196   4.354   4.910   0.623 -1.0171  0.7336 -0.0717
 1085TIP3   OH2 3197   8.329   1.338   6.345 -0.3751 -0.0560 -0.8433
 1085TIP3    H1 3198   8.300   1.289   6.422 -0.7603  0.0918 -0.8934
 1085TIP3    H2 3199   8.375   1.413   6.380  1.4399 -1.1831 -0.7786
 1086TIP3   OH2 3200   4.470   3.858   1.425 -0.1365  0.1218  0.1161
 1086TIP3    H1 3201   4.436   3.886   1.510 -1.0954 -0.5498 -0.0319
 1086TIP3    H2 3202   4.531   3.927   1.399  0.0815  0.3759  1.2994
 1087TIP3   OH2 3203   4.195   2.447   5.720  0.9639  0.1918 -0.3134
 1087TIP3    H1 3204   4.113   2.400   5.707  0.7962  0.3315  0.2563
 1087TIP3    H2 3205   4.185   2.492   5.803  0.5027  2.5265 -1.5855
 1088TIP3   OH2 3206   6.291   4.191   1.105  0.2298  0.1175  0.3808
 1088TIP3    H1 3207   6.233   4.267   1.097  1.0327  0.8072  1.0463
 1088TIP3    H2 3208   6.265   4.150   1.187 -0.5294 -0.6097 -0.2192
 1089TIP3   OH2 3209   0.408   1.191   5.656  0.1314  0.5552  0.0253
 1089TIP3    H1 3210   0.325   1.147   5.674 -0.1410  0.8536 -0.4783
 1089TIP3    H2 3211   0.470   1.120   5.638 -0.4707  0.3956 -1.4522
 1090TIP3   OH2 3212   7.979   3.176   2.111  0.0568  0.3783 -0.1529
 1090TIP3    H1 3213   7.903   3.171   2.169  0.1545  0.5079 -0.0119
 1090TIP3    H2 3214   8.039   3.110   2.146 -0.5800 -0.7394 -1.1384
 1091TIP3   OH2 3215   0.840   0.996   5.985  0.8157  0.5598  0.0524
 1091TIP3    H1 3216   0.867   1.004   5.893  1.1081  0.4684  0.1304
 1091TIP3    H2 3217   0.870   1.077   6.026 -1.1191  1.5338 -0.3727
 1092TIP3   OH2 3218   2.979   1.764   1.015 -0.2795  0.0977 -0.0499
 1092TIP3    H1 3219   2.934   1.682   0.993  0.2821 -0.1960 -0.1016
 1092TIP3    H2 3220   2.917   1.832   0.990 -1.1394 -0.3305  0.8759
 1093TIP3   OH2 3221   7.133   3.257   1.549  0.3761 -0.0328 -0.4047
 1093TIP3    H1 3222   7.097   3.282   1.464  2.2364  0.5317 -1.0484
 1093TIP3    H2 3223   7.153   3.163   1.540 -0.1384 -0.1517 -0.3230
 1094TIP3   OH2 3224   4.777   3.419   3.259  0.4899 -0.5268  0.6344
 1094TIP3    H1 3225   4.711   3.444   3.194  1.8296 -1.3518 -1.0540
 1094TIP3    H2 3226   4.730   3.363   3.320 -0.4201 -0.9664 -0.4596
 1095TIP3   OH2 3227   5.707   5.100   1.452 -0.0176  0.2266 -0.3875
 1095TIP3    H1 3228   5.750   5.174   1.410 -0.9460  1.2299  0.4133
 1095TIP3    H2 3229   5.768   5.027   1.440  0.4476  0.8625 -2.0595
 1096TIP3   OH2 3230   3.831   2.184   1.869  0.5229  0.1501  0.2240
 1096TIP3    H1 3231   3.756   2.241   1.849  1.8785  0.8633 -3.0533
 1096TIP3    H2 3232   3.903   2.245   1.885  1.3085 -0.5895 -0.4944
 1097TIP3   OH2 3233   5.349   3.056   0.971  0.2596 -0.2029  0.2308
 1097TIP3    H1 3234   5.429   3.109   0.972  0.7913 -0.9382 -1.9658
 1097TIP3    H2 3235   5.337   3.030   1.063  2.0508  0.6050  0.7197
 1098TIP3   OH2 3236   3.243   0.127   5.254  0.1959  0.3131  0.6634
 1098TIP3    H1 3237   3.235   0.159   5.344  1.5894  0.8420  0.6103
 1098TIP3    H2 3238   3.301   0.051   5.261  0.8828  0.7810  0.1286
 1099TIP3   OH2 3239   3.977   2.535   1.173  0.6417 -0.2944 -0.2965
 1099TIP3    H1 3240   3.998   2.462   1.115 -0.7280  0.1990 -1.4301
 1099TIP3    H2 3241   3.999   2.613   1.121 -0.2999  0.1403 -0.0399
 1100TIP3   OH2 3242   5.159   4.970   1.287 -0.1270  0.4215  0.1881
 1100TIP3    H1 3243   5.183   4.923   1.367  0.3096 -1.6336 -1.1036
 1100TIP3    H2 3244   5.065   4.985   1.295 -0.2277 -0.4748  0.7306
 1101TIP3   OH2 3245   4.650   1.017   0.381 -0.8393 -0.4166 -0.0254
 1101TIP3    H1 3246   4.723   0.960   0.356  1.2863  1.7793  0.9612
 1101TIP3    H2 3247   4.648   1.085   0.314 -1.0353  0.3548  0.7573
 1102TIP3   OH2 3248   1.813   1.545   5.586 -0.0158  0.8349  0.5763
 1102TIP3    H1 3249   1.781   1.468   5.540 -0.8059  2.0315 -0.9290
 1102TIP3    H2 3250   1.908   1.544   5.574 -0.0288  0.1293  0.5393
 1103TIP3   OH2 3251   3.438   1.316   5.295  0.2237  0.0955  0.2796
 1103TIP3    H1 3252   3.385   1.298   5.372  0.5046  0.4481  0.5519
 1103TIP3    H2 3253   3.437   1.233   5.246  1.5586 -0.7012  1.5654
 1104TIP3   OH2 3254   3.801   4.145   1.610 -0.5641  0.2622  0.6442
 1104TIP3    H1 3255   3.840   4.057   1.613  1.7744  1.2136 -0.6094
 1104TIP3    H2 3256   3.874   4.204   1.626 -1.6642  2.0666 -0.7769
 1105TIP3   OH2 3257   1.263   7.444   5.232  0.5157  0.4378  0.5854
 1105TIP3    H1 3258   1.292   7.363   5.189  1.3966  1.1170 -0.1339
 1105TIP3    H2 3259   1.285   7.431   5.324 -1.5933 -1.1291  0.9107
 1106TIP3   OH2 3260   3.612   4.810   2.547  0.3149 -0.0377 -0.4526
 1106TIP3    H1 3261   3.635   4.886   2.600  0.2640 -1.3107  1.4668
 1106TIP3    H2 3262   3.550   4.843   2.482 -0.5552  1.3604  1.0635
 1107TIP3   OH2 3263   5.312   4.153   0.279 -0.2406  0.2584 -0.4690
 1107TIP3    H1 3264   5.253   4.148   0.203  0.8441 -2.4137 -1.1807
 1107TIP3    H2 3265   5.391   4.195   0.245  0.0956 -0.5828 -0.7476
 1108TIP3   OH2 3266   4.717   5.421   0.467  0.0468  0.7711 -0.7788
 1108TIP3    H1 3267   4.784   5.353   0.480  0.1171  0.5502 -2.2318
 1108TIP3    H2 3268   4.693   5.448   0.556  0.9858 -0.2094 -0.2137
 1109TIP3   OH2 3269   3.105   3.300   0.255  0.1018 -0.0391  0.2856
 1109TIP3    H1 3270   3.136   3.328   0.341  0.7667  0.9288 -0.2592
 1109TIP3    H2 3271   3.168   3.235   0.226  0.7649  0.7846 -0.1433
 1110TIP3   OH2 3272   4.829   3.267   0.941 -0.0325  0.5594  0.7098
 1110TIP3    H1 3273   4.754   3.295   0.993 -0.8136  2.5763 -1.3896
 1110TIP3    H2 3274   4.796   3.265   0.851  1.8150 -0.8571  0.0279
 1111TIP3   OH2 3275   5.426   2.237   1.200 -0.2952  0.2275 -0.4930
 1111TIP3    H1 3276   5.401   2.326   1.176 -1.3775  0.1130  0.1759
 1111TIP3    H2 3277   5.353   2.182   1.171  0.2172 -0.4132 -0.6107
 1112TIP3   OH2 3278   6.772   2.615   1.369  0.3972  0.2571  0.2890
 1112TIP3    H1 3279   6.699   2.579   1.419 -0.6173  0.2867 -1.1436
 1112TIP3    H2 3280   6.849   2.573   1.406 -0.5469 -1.5709  0.2271
 1113TIP3   OH2 3281   6.478   2.186   2.134 -0.1090 -0.1822 -0.6771
 1113TIP3    H1 3282   6.419   2.116   2.107 -1.5184  0.5477  0.4986
 1113TIP3    H2 3283   6.551   2.140   2.177  0.7705 -1.1545 -3.1087
 1114TIP3   OH2 3284   5.074   3.280   1.379  0.6808  0.1117  0.2010
 1114TIP3    H1 3285   5.119   3.349   1.330  1.8772 -0.0504  1.0718
 1114TIP3    H2 3286   5.141   3.242   1.435 -0.3466 -0.6959  0.9013
 1115TIP3   OH2 3287   3.607   7.426   2.436  0.5918  0.2296 -0.0077
 1115TIP3    H1 3288   3.550   7.411   2.361 -1.1823  0.2418  1.3000
 1115TIP3    H2 3289   3.568   7.373   2.506  2.0630  0.4234  0.9657
 1116TIP3   OH2 3290   5.427   5.624   0.239 -0.2549 -0.4045  0.0686
 1116TIP3    H1 3291   5.368   5.590   0.172 -0.3922  1.6543 -0.8599
 1116TIP3    H2 3292   5.372   5.679   0.294  0.7035  1.2408 -0.5971
 1117TIP3   OH2 3293   2.345   7.244   6.374  0.3211  0.0212 -0.1887
 1117TIP3    H1 3294   2.296   7.317   6.338  0.5890  0.6370  0.6647
 1117TIP3    H2 3295   2.291   7.213   6.447  0.8214  0.2207  0.2781
 1118TIP3   OH2 3296   4.566   0.615   5.102 -0.4170 -0.6613 -0.0563
 1118TIP3    H1 3297   4.652   0.654   5.084  0.4843 -1.9310  1.3579
 1118TIP3    H2 3298   4.506   0.690   5.102  0.7875  0.3285 -0.4166
 1119TIP3   OH2 3299   7.943   0.283   2.273 -0.3017 -0.1763 -0.2177
 1119TIP3    H1 3300   8.013   0.238   2.226 -1.7135  0.5481 -3.1862
 1119TIP3    H2 3301   7.912   0.220   2.337  0.5220 -1.9221 -1.4907
 1120TIP3   OH2 3302   1.309   2.197   6.680  0.3919 -0.1612 -0.1649
 1120TIP3    H1 3303   1.332   2.241   6.599 -1.5502 -0.2824 -0.8065
 1120TIP3    H2 3304   1.392   2.185   6.725  1.0347  3.8768 -0.0782
 1121TIP3   OH2 3305   2.488   1.588   1.724  0.2291  0.2991 -1.0245
 1121TIP3    H1 3306   2.477   1.627   1.811 -0.7265  0.7159 -1.3254
 1121TIP3    H2 3307   2.539   1.653   1.676  2.6411 -0.8799 -0.1439
 1122TIP3   OH2 3308   2.378   1.804   5.428 -0.1810  0.4651  0.1876
 1122TIP3    H1 3309   2.284   1.801   5.413 -0.1192  0.2581 -0.1530
 1122TIP3    H2 3310   2.417   1.766   5.350  0.1123 -1.0896  1.0717
 1123TIP3   OH2 3311   5.116   7.591   6.497 -0.7115  0.3336  0.0881
 1123TIP3    H1 3312   5.083   7.617   6.412 -1.0050  0.3554  0.2101
 1123TIP3    H2 3313   5.201   7.635   6.505 -0.9535  0.8071  0.0623
 1124TIP3   OH2 3314   0.735   2.615   0.333 -0.3027 -0.2343  0.0015
 1124TIP3    H1 3315   0.707   2.549   0.269 -1.3614  1.0282 -0.8513
 1124TIP3    H2 3316   0.657   2.669   0.348  0.5759  0.8774  0.6351
 1125TIP3   OH2 3317   2.406   2.327   4.152 -0.6472 -0.5744  0.2358
 1125TIP3    H1 3318   2.375   2.392   4.089  2.3829  0.1654 -0.5680
 1125TIP3    H2 3319   2.400   2.370   4.237  1.7800  0.9988 -0.3416
 1126TIP3   OH2 3320   4.095   1.095   0.647  0.4458 -0.2860 -0.4355
 1126TIP3    H1 3321   4.132   1.027   0.591  2.2920 -0.3649  0.8347
 1126TIP3    H2 3322   4.155   1.169   0.639  0.4376 -0.1121  1.0275
 1127TIP3   OH2 3323   4.586   4.337   0.928 -0.1584  0.1067 -0.7929
 1127TIP3    H1 3324   4.587   4.402   0.858 -1.5355  0.1788 -0.7606
 1127TIP3    H2 3325   4.672   4.346   0.971 -0.3326  1.8860 -0.7922
 1128TIP3   OH2 3326   5.542   4.162   2.280  0.5064  0.2858 -0.0318
 1128TIP3    H1 3327   5.489   4.238   2.305  2.1000  1.8042 -1.1466
 1128TIP3    H2 3328   5.522   4.149   2.187 -0.6671 -1.4281  0.4430
 1129TIP3   OH2 3329   4.367   2.409   2.129  0.7343  0.0328  0.1409
 1129TIP3    H1 3330   4.364   2.504   2.119 -0.2839 -0.0918 -0.8260
 1129TIP3    H2 3331   4.443   2.383   2.077  0.2691  0.1964 -0.6264
 1130TIP3   OH2 3332   6.617   7.407   6.144  0.1108  0.6515  0.7734
 1130TIP3    H1 3333   6.618   7.441   6.234  0.1290  1.1515  0.5842
 1130TIP3    H2 3334   6.642   7.315   6.153 -1.1203  0.3671  1.4192
 1131TIP3   OH2 3335   7.021   2.543   1.527  0.3203 -0.4336 -0.5128
 1131TIP3    H1 3336   7.093   2.494   1.565  1.1422 -0.8899 -2.5893
 1131TIP3    H2 3337   7.014   2.622   1.581 -0.1501 -2.1597  2.0313
 1132TIP3   OH2 3338   4.528   5.460   1.114  0.3348 -0.2077 -0.2986
 1132TIP3    H1 3339   4.446   5.476   1.161  0.3198  0.9726 -0.6907
 1132TIP3    H2 3340   4.561   5.378   1.150 -0.0950  0.2511  1.1810
 1133TIP3   OH2 3341   7.981   3.283   1.579  0.0432  1.0297 -0.0918
 1133TIP3    H1 3342   8.028   3.228   1.517 -1.2553  2.2372 -2.2211
 1133TIP3    H2 3343   8.036   3.361   1.589  0.8774  0.2870  1.3225
 1134TIP3   OH2 3344   4.352   0.239   6.591 -0.5312 -0.4035  0.2989
 1134TIP3    H1 3345   4.421   0.172   6.586 -0.7088 -0.6100  0.6361
 1134TIP3    H2 3346   4.347   0.262   6.683 -0.6286 -0.0861  0.2153
 1135TIP3   OH2 3347   2.459   4.105   1.903 -0.3450  0.3566 -0.3322
 1135TIP3    H1 3348   2.529   4.055   1.861 -0.7361 -0.6811  0.2106
 1135TIP3    H2 3349   2.500   4.187   1.929  0.4382  0.1270 -0.8245
 1136TIP3   OH2 3350   5.349   6.360   5.878  0.0583  0.2050 -0.2774
 1136TIP3    H1 3351   5.274   6.415   5.854 -1.0119 -1.1195 -0.0354
 1136TIP3    H2 3352   5.317   6.270   5.867  1.3841 -0.3767  0.5378
 1137TIP3   OH2 3353   1.204   0.705   5.557  0.4361  0.1040 -0.2854
 1137TIP3    H1 3354   1.228   0.778   5.615 -1.1499  0.9964 -0.7110
 1137TIP3    H2 3355   1.188   0.632   5.616  1.0604  0.3681  0.2264
 1138TIP3   OH2 3356   4.167   6.346   0.648  0.5018  0.4171  0.0599
 1138TIP3    H1 3357   4.109   6.397   0.591  0.9951  0.7276 -0.1734
 1138TIP3    H2 3358   4.254   6.382   0.631  1.0230 -1.2548 -0.9667
 1139TIP3   OH2 3359   4.849   2.653   2.267 -0.0005 -0.0146  0.0758
 1139TIP3    H1 3360   4.831   2.566   2.302  2.6463 -0.6007  0.0741
 1139TIP3    H2 3361   4.844   2.642   2.172  1.3583 -0.4034  0.0483
 1140TIP3   OH2 3362   7.696   4.277   2.914  0.1613 -0.8636  0.8131
 1140TIP3    H1 3363   7.704   4.370   2.898 -0.7122 -0.5156  2.2798
 1140TIP3    H2 3364   7.608   4.266   2.952 -0.6377 -2.5661 -1.4112
 1141TIP3   OH2 3365   4.398   2.866   1.412 -0.4915 -0.2068  0.6894
 1141TIP3    H1 3366   4.445   2.784   1.429  0.5100 -0.0610 -1.2061
 1141TIP3    H2 3367   4.376   2.862   1.319  0.8808  2.2986  0.1968
 1142TIP3   OH2 3368   7.359   3.802   0.232  0.0443  0.4902 -0.4615
 1142TIP3    H1 3369   7.283   3.750   0.207  1.1662 -1.2326 -0.3579
 1142TIP3    H2 3370   7.373   3.862   0.158 -0.4566 -0.2696 -1.1657
 1143TIP3   OH2 3371   5.170   2.939   0.793 -0.3123  0.1806 -0.1801
 1143TIP3    H1 3372   5.198   2.919   0.704 -0.1846  0.2142 -0.1488
 1143TIP3    H2 3373   5.250   2.968   0.837  0.0864 -1.9022  0.5487
 1144TIP3   OH2 3374   4.841   0.854   0.255  0.1678  0.0721 -0.3750
 1144TIP3    H1 3375   4.784   0.781   0.278  0.7487 -0.3808 -0.3494
 1144TIP3    H2 3376   4.923   0.812   0.227 -0.0337  0.6484 -1.8927
 1145TIP3   OH2 3377   6.882   3.912   1.577 -0.0435 -0.5391  0.1753
 1145TIP3    H1 3378   6.945   3.849   1.612  2.9138  1.5545 -1.2176
 1145TIP3    H2 3379   6.851   3.872   1.495  0.2489 -1.0742  0.3226
 1146TIP3   OH2 3380   0.873   5.701   6.308 -0.8647 -0.2672 -0.1242
 1146TIP3    H1 3381   0.860   5.618   6.354  0.6198 -1.0973 -1.1486
 1146TIP3    H2 3382   0.788   5.719   6.267 -1.3809 -0.9460  0.6426
 1147TIP3   OH2 3383   4.719   4.370   1.253 -0.0827 -0.4137 -0.2148
 1147TIP3    H1 3384   4.693   4.370   1.346 -0.6419  1.7586 -0.3429
 1147TIP3    H2 3385   4.814   4.371   1.255 -0.0885 -0.4229  0.3378
 1148TIP3   OH2 3386   3.554   1.885   1.332 -0.7808  0.5757 -0.3466
 1148TIP3    H1 3387   3.580   1.953   1.394 -0.5981 -0.2515  0.4887
 1148TIP3    H2 3388   3.504   1.823   1.384  0.7022 -0.9437 -0.6689
 1149TIP3   OH2 3389   4.867   4.356   0.947  0.2762 -0.5412  0.0837
 1149TIP3    H1 3390   4.953   4.323   0.972  0.3881  0.0733  0.5362
 1149TIP3    H2 3391   4.876   4.451   0.949 -0.6127 -0.4525  0.8954
 1150TIP3   OH2 3392   7.236   1.208   2.169 -1.0888 -0.6729 -0.2785
 1150TIP3    H1 3393   7.178   1.164   2.106 -1.2611  0.1991 -0.7329
 1150TIP3    H2 3394   7.178   1.240   2.237 -1.0179 -0.7028 -0.2039
 1151TIP3   OH2 3395   3.771   1.733   2.580 -0.1244 -0.2437  0.0105
 1151TIP3    H1 3396   3.728   1.815   2.603 -0.0616  0.1003 -1.0432
 1151TIP3    H2 3397   3.855   1.736   2.625 -0.6289 -0.2814  0.9540
 1152TIP3   OH2 3398   6.053   2.271   1.148 -0.9841  0.1035  0.1172
 1152TIP3    H1 3399   6.019   2.211   1.214  0.0177  0.5045  1.0113
 1152TIP3    H2 3400   6.126   2.223   1.108 -0.6575  0.4367  0.3161
 1153TIP3   OH2 3401   3.331   1.990   2.052 -0.5808 -0.8520  0.9021
 1153TIP3    H1 3402   3.346   1.902   2.086  0.0404 -0.9553  0.3614
 1153TIP3    H2 3403   3.418   2.031   2.052 -0.6084 -0.7828 -0.3579
 1154TIP3   OH2 3404   4.965   2.875   1.219 -0.3097  0.1724  0.1989
 1154TIP3    H1 3405   4.972   2.970   1.209 -0.3258 -0.1971 -4.4103
 1154TIP3    H2 3406   4.872   2.859   1.233 -0.1701  0.8659  2.0534
 1155TIP3   OH2 3407   5.595   1.838   1.759  0.5311  0.3623 -0.1868
 1155TIP3    H1 3408   5.629   1.760   1.804 -0.1390 -0.1460 -0.5541
 1155TIP3    H2 3409   5.604   1.909   1.823 -1.0950 -0.4995  1.0104
 1156TIP3   OH2 3410   5.508   0.902   2.622 -0.4808 -0.4270 -0.3655
 1156TIP3    H1 3411   5.505   0.880   2.715 -0.0929 -1.0706 -0.4966
 1156TIP3    H2 3412   5.422   0.877   2.588  0.3845 -3.0016 -0.7667
 1157TIP3   OH2 3413   2.971   2.325   2.266 -0.0427 -0.8172  0.2415
 1157TIP3    H1 3414   3.063   2.340   2.245 -0.1929 -1.3628 -0.8909
 1157TIP3    H2 3415   2.942   2.261   2.201 -1.5200  0.1941 -0.1292
 1158TIP3   OH2 3416   6.008   1.020   2.168 -0.4357 -0.1691  0.4128
 1158TIP3    H1 3417   5.968   0.936   2.147 -1.8895  0.3172  1.1960
 1158TIP3    H2 3418   6.035   1.056   2.083 -1.2648 -0.6915 -0.0729
 1159TIP3   OH2 3419   6.126   1.172   2.926  1.2490 -0.7413 -0.1920
 1159TIP3    H1 3420   6.209   1.154   2.969  0.8372 -1.6290  0.2598
 1159TIP3    H2 3421   6.141   1.251   2.875  2.5833 -1.3136 -0.7080
 1160TIP3   OH2 3422   3.702   6.483   1.467 -0.6633  0.1230  0.2882
 1160TIP3    H1 3423   3.792   6.514   1.477 -0.7275  1.5911 -3.1691
 1160TIP3    H2 3424   3.709   6.405   1.412 -1.4145 -0.5205  1.0784
 1161TIP3   OH2 3425   3.251   3.704   0.693  0.6265 -0.2979  0.0688
 1161TIP3    H1 3426   3.261   3.685   0.600  1.9897  1.4025 -0.1637
 1161TIP3    H2 3427   3.298   3.632   0.737  0.0211 -1.0755 -0.5453
 1162TIP3   OH2 3428   2.147   0.469   6.555  0.2931  0.5577 -0.0156
 1162TIP3    H1 3429   2.205   0.544   6.565  2.5433 -1.2711  1.3744
 1162TIP3    H2 3430   2.088   0.475   6.630  0.1231  1.2364 -0.2017
 1163TIP3   OH2 3431   0.241   2.227   0.357  0.0555  0.0463  0.1828
 1163TIP3    H1 3432   0.315   2.206   0.300  0.3449  0.3963  0.4301
 1163TIP3    H2 3433   0.259   2.180   0.438 -1.4976 -2.3436 -0.7886
 1164TIP3   OH2 3434   1.212   8.012   5.308  0.9236 -0.2322  0.8064
 1164TIP3    H1 3435   1.175   8.067   5.240  1.6135  0.5964  1.0920
 1164TIP3    H2 3436   1.246   7.935   5.262  0.5817 -0.0923  0.3268
 1165TIP3   OH2 3437   5.479   3.522   1.844 -0.2975 -0.0213  0.0400
 1165TIP3    H1 3438   5.525   3.606   1.845 -1.8783  0.8658 -0.1569
 1165TIP3    H2 3439   5.440   3.515   1.930 -2.0663  0.5285 -0.7008
 1166TIP3   OH2 3440   6.808   4.791   2.062 -0.1326 -0.3205  0.4267
 1166TIP3    H1 3441   6.727   4.830   2.027  0.0012  0.5556  1.0769
 1166TIP3    H2 3442   6.813   4.705   2.020  0.9243  1.3667 -3.0685
 1167TIP3   OH2 3443   3.720   1.072   5.692 -0.0557  0.3747  0.5530
 1167TIP3    H1 3444   3.683   1.013   5.759 -2.4577  1.0351 -0.1463
 1167TIP3    H2 3445   3.736   1.153   5.739 -1.0164  0.5880  0.5363
 1168TIP3   OH2 3446   3.267   5.751   6.011  0.0071  0.0456  0.2615
 1168TIP3    H1 3447   3.222   5.829   5.978  0.4273  0.2377  0.1489
 1168TIP3    H2 3448   3.304   5.778   6.095  0.0053 -0.0836  0.3036
 1169TIP3   OH2 3449   5.258   2.095   2.048  0.2396  0.0531  1.0229
 1169TIP3    H1 3450   5.332   2.101   1.988 -0.3668 -1.3182  0.0995
 1169TIP3    H2 3451   5.228   2.005   2.040 -1.4909  0.5647  1.4201
 1170TIP3   OH2 3452   2.971   2.876   2.095  0.3727 -0.4379 -0.0242
 1170TIP3    H1 3453   3.034   2.850   2.163 -0.7620 -0.6554  0.9585
 1170TIP3    H2 3454   2.923   2.949   2.134  0.4044  0.1090 -0.9980
 1171TIP3   OH2 3455   5.643   1.945   2.343  0.2273 -0.6377 -0.3887
 1171TIP3    H1 3456   5.600   1.860   2.346  2.6889 -1.8788  1.6671
 1171TIP3    H2 3457   5.600   1.996   2.412 -0.5278 -0.5321 -0.9227
 1172TIP3   OH2 3458   6.225   4.289   1.485 -0.3187 -0.1953 -0.0753
 1172TIP3    H1 3459   6.150   4.348   1.476  0.0136 -0.1037 -2.3239
 1172TIP3    H2 3460   6.285   4.336   1.543 -0.0287  1.7297 -1.8927
 1173TIP3   OH2 3461   3.506   4.562   1.805  0.1333 -0.1461 -0.3933
 1173TIP3    H1 3462   3.461   4.478   1.795 -0.9856  0.4009 -0.0542
 1173TIP3    H2 3463   3.551   4.556   1.889  0.4049 -0.5654 -0.5673
 1174TIP3   OH2 3464   7.638   3.582   2.454  0.3332  0.0430 -0.0611
 1174TIP3    H1 3465   7.556   3.618   2.419 -0.1078 -2.1668 -1.3682
 1174TIP3    H2 3466   7.676   3.534   2.381  1.4357 -1.2259  1.3255
 1175TIP3   OH2 3467   2.196   2.290   1.009 -0.2179  0.2753 -0.9738
 1175TIP3    H1 3468   2.222   2.378   0.981  1.5268 -0.1648 -0.8243
 1175TIP3    H2 3469   2.244   2.231   0.951  1.7857 -0.6127  1.4744
 1176TIP3   OH2 3470   4.731   0.600   0.290  0.0752  0.3558 -0.3228
 1176TIP3    H1 3471   4.652   0.636   0.250 -1.3659 -1.4887  0.7688
 1176TIP3    H2 3472   4.746   0.517   0.244  1.2924  0.6118 -0.4062
 1177TIP3   OH2 3473   2.686   5.306   0.218 -0.6174  0.2549  0.1911
 1177TIP3    H1 3474   2.625   5.380   0.215  0.4546  1.1475  0.1392
 1177TIP3    H2 3475   2.761   5.339   0.267 -0.4323 -1.0449  0.8114
 1178TIP3   OH2 3476   5.098   4.281   1.892  0.2822  0.0075  0.1050
 1178TIP3    H1 3477   5.034   4.341   1.853 -2.2467 -1.5514  1.6436
 1178TIP3    H2 3478   5.087   4.200   1.842  0.6499 -0.4318  0.7351
 1179TIP3   OH2 3479   2.516   4.057   2.757 -0.8536 -0.1677 -0.1247
 1179TIP3    H1 3480   2.465   4.110   2.819 -0.6019  0.6825 -0.6311
 1179TIP3    H2 3481   2.500   3.967   2.784 -2.4504  0.0898 -0.1246
 1180TIP3   OH2 3482   2.414   1.262   4.979  0.1670 -0.3760 -0.0727
 1180TIP3    H1 3483   2.392   1.183   5.029  1.5511 -0.4239  0.5029
 1180TIP3    H2 3484   2.405   1.333   5.043  1.4966 -0.3835  0.1345
 1181TIP3   OH2 3485   6.984   2.749   2.742 -0.6852  0.0840 -0.1485
 1181TIP3    H1 3486   6.909   2.729   2.685 -1.4658 -0.6498  1.0999
 1181TIP3    H2 3487   6.961   2.708   2.826  0.7666  0.5357  0.4777
 1182TIP3   OH2 3488   1.431   1.423   5.835  0.1072  0.3668 -0.0277
 1182TIP3    H1 3489   1.378   1.451   5.909 -1.6388 -3.1208  0.1211
 1182TIP3    H2 3490   1.460   1.335   5.857  1.3468  0.0742 -2.5617
 1183TIP3   OH2 3491   2.585   1.847   6.393 -0.2160  0.6052  0.2117
 1183TIP3    H1 3492   2.665   1.846   6.445  0.1577  1.3224 -0.3312
 1183TIP3    H2 3493   2.559   1.939   6.390 -0.8485  0.4263  0.0668
 1184TIP3   OH2 3494   8.400   1.352   6.005 -0.2185  0.0709  0.1911
 1184TIP3    H1 3495   8.458   1.308   5.942 -0.8307 -0.5578  0.0524
 1184TIP3    H2 3496   8.363   1.280   6.056 -0.7733  0.4809  0.3623
 1185TIP3   OH2 3497   6.801   1.926   1.939 -0.3145  0.0642  0.1327
 1185TIP3    H1 3498   6.857   1.856   1.971 -0.3990 -0.1177 -0.1080
 1185TIP3    H2 3499   6.769   1.971   2.017 -0.9748 -0.7304  0.3198
 1186TIP3   OH2 3500   4.417   4.738   0.113  0.5520  0.3224  0.6111
 1186TIP3    H1 3501   4.327   4.739   0.079  0.8198  0.6916 -0.1022
 1186TIP3    H2 3502   4.461   4.808   0.064  1.3894 -0.2859  0.4991
 1187TIP3   OH2 3503   3.836   5.187   0.080  0.0422  0.1943  0.1127
 1187TIP3    H1 3504   3.911   5.242   0.058 -0.3098  0.5490 -0.2007
 1187TIP3    H2 3505   3.830   5.194   0.176  0.9567 -0.5602  0.2364
 1188TIP3   OH2 3506   2.002   0.805   6.642  0.3395  0.0044  0.5814
 1188TIP3    H1 3507   2.033   0.852   6.720  1.2396  1.5688 -0.6884
 1188TIP3    H2 3508   2.002   0.871   6.573  0.0866 -1.4998 -0.8735
 1189TIP3   OH2 3509   1.922   3.870   2.734 -0.4258  0.4322 -0.1440
 1189TIP3    H1 3510   1.885   3.787   2.764  0.2924  0.3190  0.4352
 1189TIP3    H2 3511   2.006   3.846   2.694  0.2767  1.0025  0.9837
 1190TIP3   OH2 3512   5.266   2.525   1.395  0.0065  0.6428  0.2557
 1190TIP3    H1 3513   5.280   2.538   1.302  0.2972 -1.2155  0.0103
 1190TIP3    H2 3514   5.340   2.569   1.437  0.0830  1.1547 -0.4169
 1191TIP3   OH2 3515   5.130   3.358   2.331  0.4040  0.0878 -0.0051
 1191TIP3    H1 3516   5.123   3.266   2.303 -3.9431 -0.2176  1.6711
 1191TIP3    H2 3517   5.116   3.408   2.250 -0.8728 -0.7447 -0.3186
 1192TIP3   OH2 3518   3.964   4.039   1.303  0.3417  0.5334  0.6233
 1192TIP3    H1 3519   4.008   4.073   1.381  0.6023 -0.2812  0.8299
 1192TIP3    H2 3520   3.958   4.115   1.245  0.9060  0.9408  1.0881
 1193TIP3   OH2 3521   3.739   1.788   0.284 -0.0852 -0.7324 -0.1637
 1193TIP3    H1 3522   3.741   1.699   0.320 -0.0350 -0.5188  0.3571
 1193TIP3    H2 3523   3.762   1.845   0.357  1.1639 -0.3785 -0.8048
 1194TIP3   OH2 3524   5.291   2.948   1.255 -0.3247 -0.2448  0.3362
 1194TIP3    H1 3525   5.255   2.966   1.342 -0.3488 -0.1980  0.3164
 1194TIP3    H2 3526   5.218   2.911   1.206  0.1384 -1.8943  0.8526
 1195TIP3   OH2 3527   6.053   5.462   6.701  0.4148 -0.2801  0.9886
 1195TIP3    H1 3528   5.986   5.405   6.739  0.6242  0.4502  2.5019
 1195TIP3    H2 3529   6.053   5.440   6.608 -0.6286 -1.6005  1.2771
 1196TIP3   OH2 3530   4.449   2.977   0.708  0.1734  0.0797 -0.2190
 1196TIP3    H1 3531   4.465   2.882   0.709  0.8587  0.1868  1.8855
 1196TIP3    H2 3532   4.531   3.015   0.679  0.2752  0.0751  0.0573
 1197TIP3   OH2 3533   4.344   3.385   1.167 -0.0460  0.2083 -0.1001
 1197TIP3    H1 3534   4.333   3.306   1.220 -2.3634  1.2521  0.9974
 1197TIP3    H2 3535   4.377   3.451   1.228  1.1994  0.3226 -0.8670
 1198TIP3   OH2 3536   4.763   3.361   2.064  0.3339  0.0275  0.2823
 1198TIP3    H1 3537   4.739   3.368   2.157 -1.5389 -0.1526 -0.1711
 1198TIP3    H2 3538   4.730   3.276   2.037  0.4027  0.3032 -0.6909
 1199TIP3   OH2 3539   3.541   2.203   1.327 -0.6461 -0.4892 -0.5280
 1199TIP3    H1 3540   3.616   2.239   1.281  0.2273 -3.0485 -1.1886
 1199TIP3    H2 3541   3.467   2.217   1.267 -0.6294  1.5261 -0.1103
 1200TIP3   OH2 3542   1.767   1.441   6.569  0.0767 -0.2535 -0.3205
 1200TIP3    H1 3543   1.861   1.425   6.563  0.1088 -0.6870  1.1635
 1200TIP3    H2 3544   1.757   1.504   6.641 -0.6403  1.0942 -1.5555
 1201TIP3   OH2 3545   6.739   4.358   0.653 -0.2410  0.2304  0.2092
 1201TIP3    H1 3546   6.809   4.414   0.687  0.2694 -0.7906  0.8632
 1201TIP3    H2 3547   6.665   4.375   0.712 -0.0031  0.0128  0.5707
 1202TIP3   OH2 3548   0.757   6.215   5.938  0.0424  0.2826 -0.0004
 1202TIP3    H1 3549   0.724   6.249   5.854 -0.1098  1.1548  0.4063
 1202TIP3    H2 3550   0.846   6.248   5.944 -0.8360  2.5722  1.4375
 1203TIP3   OH2 3551   3.028   7.564   3.163  0.1871  0.0163 -0.1595
 1203TIP3    H1 3552   2.961   7.605   3.108 -0.5973  0.5795  1.2100
 1203TIP3    H2 3553   2.982   7.538   3.242  1.0673 -1.8936 -0.2543
 1204TIP3   OH2 3554   6.117   3.312   1.352  0.0754  0.2315 -0.2728
 1204TIP3    H1 3555   6.047   3.249   1.335  0.6483 -0.1136 -1.3951
 1204TIP3    H2 3556   6.084   3.394   1.315  0.8039 -0.2351 -1.9962
 1205TIP3   OH2 3557   5.079   0.596   5.396 -0.5589 -0.0440 -0.2067
 1205TIP3    H1 3558   5.140   0.566   5.463  1.1878  1.2303 -1.1722
 1205TIP3    H2 3559   5.068   0.690   5.414  0.7791  0.5513 -2.3083
 1206TIP3   OH2 3560   6.843   5.282   0.726 -0.2961  0.1848  0.3412
 1206TIP3    H1 3561   6.790   5.203   0.738 -0.2538  0.2910  1.1950
 1206TIP3    H2 3562   6.789   5.352   0.761  0.2352  0.3555  0.8175
 1207TIP3   OH2 3563   0.459   6.110   4.900  0.2198  0.2329  0.7065
 1207TIP3    H1 3564   0.483   6.124   4.991  1.6850 -2.1083  0.7394
 1207TIP3    H2 3565   0.517   6.039   4.871 -1.0632  0.1079 -1.6795
 1208TIP3   OH2 3566   2.146   6.400   6.929 -0.5591 -0.1015  0.3220
 1208TIP3    H1 3567   2.235   6.373   6.904 -0.8165 -0.9577  0.2976
 1208TIP3    H2 3568   2.089   6.342   6.877 -1.1416  1.1885 -0.4954
 1209TIP3   OH2 3569   4.309   1.258   6.045 -0.1809  0.2093  0.1168
 1209TIP3    H1 3570   4.346   1.238   6.130 -0.2217  1.1398  0.3606
 1209TIP3    H2 3571   4.343   1.190   5.987  3.6248  2.2164 -0.1335
 1210TIP3   OH2 3572   8.408   7.280   4.238 -0.7932 -0.3885  0.7471
 1210TIP3    H1 3573   8.381   7.239   4.156  1.7215  0.6012 -0.6210
 1210TIP3    H2 3574   8.332   7.330   4.267 -0.4482  2.6577 -3.1831
 1211TIP3   OH2 3575   6.446   1.765   1.921 -0.0608 -0.8455 -0.0344
 1211TIP3    H1 3576   6.428   1.671   1.916 -1.2709 -0.6815  1.0048
 1211TIP3    H2 3577   6.450   1.784   2.015 -1.3396  0.4085 -0.2201
 1212TIP3   OH2 3578   2.685   0.976   6.650  0.1349  0.4174  0.5489
 1212TIP3    H1 3579   2.610   0.927   6.615  0.7288  1.2761 -2.0171
 1212TIP3    H2 3580   2.760   0.919   6.633  0.4885  1.0574 -0.0580
 1213TIP3   OH2 3581   7.235   5.144   0.016  0.4987  0.0277  0.4504
 1213TIP3    H1 3582   7.212   5.129  -0.075 -0.1408  0.5126  0.5303
 1213TIP3    H2 3583   7.152   5.137   0.063  0.9313 -0.9164  1.0833
 1214TIP3   OH2 3584   6.821   2.328   0.228 -0.1170  0.1564 -1.1072
 1214TIP3    H1 3585   6.896   2.270   0.214 -0.5805 -0.7644  0.0695
 1214TIP3    H2 3586   6.836   2.402   0.170  0.5362 -1.1076 -2.5671
 1215TIP3   OH2 3587   0.278   5.423   6.318 -0.6319 -0.2141  0.0546
 1215TIP3    H1 3588   0.214   5.361   6.284 -1.0264  0.2787 -0.1019
 1215TIP3    H2 3589   0.359   5.373   6.325 -0.4520 -0.2271 -1.9328
 1216TIP3   OH2 3590   5.723   2.257   1.096 -0.0955 -0.4218  0.1300
 1216TIP3    H1 3591   5.640   2.291   1.128 -0.7777 -2.0540  0.1293
 1216TIP3    H2 3592   5.787   2.285   1.161 -0.7548  0.1809  0.5282
 1217TIP3   OH2 3593   2.275   7.744   6.415  0.2915  0.4438 -0.1072
 1217TIP3    H1 3594   2.223   7.757   6.336  0.7233  0.6788 -0.3589
 1217TIP3    H2 3595   2.309   7.831   6.436 -0.8491  0.6159  1.0751
 1218TIP3   OH2 3596   7.647   2.577   0.387 -0.2917  0.6622  0.4738
 1218TIP3    H1 3597   7.668   2.661   0.428 -0.5392  0.8337  0.2553
 1218TIP3    H2 3598   7.733   2.537   0.370  0.0122  2.3694 -2.5065
 1219TIP3   OH2 3599   5.620   5.376   0.329  0.2095 -0.3076  0.1839
 1219TIP3    H1 3600   5.574   5.456   0.304 -0.2266  0.1800  2.3789
 1219TIP3    H2 3601   5.693   5.407   0.383  0.0428 -1.3733  1.0325
 1220TIP3   OH2 3602   7.413   2.527   0.231 -0.2893 -0.1646  0.0771
 1220TIP3    H1 3603   7.347   2.594   0.250  0.2779  0.2066  0.7334
 1220TIP3    H2 3604   7.489   2.551   0.284 -1.0391 -2.9083  2.5506
 1221TIP3   OH2 3605   7.882   2.710   1.010 -0.1694  0.1559 -0.4956
 1221TIP3    H1 3606   7.840   2.766   0.945  0.3489  0.3594 -0.6628
 1221TIP3    H2 3607   7.920   2.772   1.073 -0.9701 -0.0463  0.1950
 1222TIP3   OH2 3608   7.045   2.534   1.238 -0.0367 -0.1970 -0.0398
 1222TIP3    H1 3609   7.067   2.548   1.330 -2.2332 -0.5049  0.5611
 1222TIP3    H2 3610   7.026   2.621   1.204  3.3473  0.2411 -0.9286
 1223TIP3   OH2 3611   7.012   0.840   1.521  0.0487 -0.1602  0.6392
 1223TIP3    H1 3612   6.923   0.871   1.502 -0.5018 -2.1863 -0.2903
 1223TIP3    H2 3613   6.999   0.769   1.584  1.1775  0.7467  1.9055
 1224TIP3   OH2 3614   5.154   4.357   1.066 -0.6477 -0.0061 -0.4266
 1224TIP3    H1 3615   5.211   4.356   1.143 -1.9822  0.3252  0.5864
 1224TIP3    H2 3616   5.204   4.405   1.000  0.5296 -0.3299  0.2199
 1225TIP3   OH2 3617   1.509   7.962   5.972 -0.3189  0.5538 -0.9267
 1225TIP3    H1 3618   1.423   8.002   5.987  0.0024  0.9014 -0.0093
 1225TIP3    H2 3619   1.563   8.034   5.939  0.3722  0.9946  1.1124
 1226TIP3   OH2 3620   5.146   2.654   0.857 -0.0604  0.0668  0.4642
 1226TIP3    H1 3621   5.160   2.748   0.841 -1.5112  0.2527  0.2276
 1226TIP3    H2 3622   5.230   2.614   0.837  0.9187  1.4628  1.7218
 1227TIP3   OH2 3623   3.984   0.860   6.619 -0.4795 -0.5115 -0.0704
 1227TIP3    H1 3624   3.924   0.902   6.557 -0.4869 -1.1185 -0.4806
 1227TIP3    H2 3625   3.983   0.767   6.594  0.4254 -0.5688  0.0889
 1228TIP3   OH2 3626   7.423   0.572   0.784  0.6382 -0.4943  0.0895
 1228TIP3    H1 3627   7.501   0.581   0.730  0.1603 -2.5601 -1.0057
 1228TIP3    H2 3628   7.445   0.504   0.847  0.7381  1.0052  1.7127
 1229TIP3   OH2 3629   7.756   4.677   1.762  0.0467  1.2672 -0.9343
 1229TIP3    H1 3630   7.711   4.593   1.749  1.2137  0.6646 -1.1552
 1229TIP3    H2 3631   7.763   4.714   1.674  0.3439  1.1697 -0.9518
 1230TIP3   OH2 3632   5.698   0.626   2.238  0.0292  0.7262  0.0909
 1230TIP3    H1 3633   5.776   0.583   2.273  1.2526  0.3951 -2.8900
 1230TIP3    H2 3634   5.625   0.571   2.266  0.9225  0.6486  2.3101
 1231TIP3   OH2 3635   7.568   3.069   2.679 -0.0569 -0.8982 -0.2126
 1231TIP3    H1 3636   7.600   3.135   2.740  1.1347  0.5942 -2.3774
 1231TIP3    H2 3637   7.473   3.083   2.676 -0.1841 -1.2426  1.5237
 1232TIP3   OH2 3638   7.246   1.169   0.888 -0.5507  0.1147  0.2723
 1232TIP3    H1 3639   7.238   1.090   0.835  0.5993 -0.3322  0.7421
 1232TIP3    H2 3640   7.233   1.140   0.978 -0.0975  0.4442  0.4506
 1233TIP3   OH2 3641   1.810   6.959   6.747  0.1682 -0.2871 -0.5036
 1233TIP3    H1 3642   1.856   6.974   6.664  0.0763  0.3291 -0.4509
 1233TIP3    H2 3643   1.753   7.036   6.757  0.9900  0.1940  0.6668
 1234TIP3   OH2 3644   7.242   2.433   1.051  0.5315  0.2807  0.3832
 1234TIP3    H1 3645   7.197   2.351   1.034  1.2636  0.1061 -0.7700
 1234TIP3    H2 3646   7.188   2.478   1.116 -0.1685 -0.8520  0.5810
 1235TIP3   OH2 3647   2.178   5.826   2.536  0.1066  0.0955 -0.3972
 1235TIP3    H1 3648   2.181   5.739   2.495  0.7960  1.1856 -2.7447
 1235TIP3    H2 3649   2.260   5.867   2.511  0.0781  1.2055  1.2563
 1236TIP3   OH2 3650   3.114   7.920   6.875 -0.3025  0.7504 -0.1388
 1236TIP3    H1 3651   3.076   7.861   6.810 -0.2115  0.0956  0.3996
 1236TIP3    H2 3652   3.069   7.897   6.956 -1.4175  2.4893 -0.2183
 1237TIP3   OH2 3653   0.082   5.175   2.905 -0.4116  0.0541 -0.1475
 1237TIP3    H1 3654   0.128   5.100   2.941 -0.9466 -0.4246 -0.4675
 1237TIP3    H2 3655   0.147   5.245   2.905  0.1142 -0.4343  0.0542
 1238TIP3   OH2 3656   1.616   5.958   1.474  0.1558 -0.3132 -0.3493
 1238TIP3    H1 3657   1.571   6.017   1.534  0.2405  0.3346 -0.9206
 1238TIP3    H2 3658   1.684   5.916   1.527 -0.2284 -0.2730  0.1738
 1239TIP3   OH2 3659   1.381   3.846   1.158 -0.0332  0.4141  0.2039
 1239TIP3    H1 3660   1.460   3.900   1.161  1.5948 -1.7684 -1.1700
 1239TIP3    H2 3661   1.409   3.761   1.193 -1.6724 -0.4830 -0.5887
 1240TIP3   OH2 3662   0.560   5.254   1.092  0.5422 -0.9575 -0.0988
 1240TIP3    H1 3663   0.509   5.185   1.049  0.2682 -1.2601  0.6961
 1240TIP3    H2 3664   0.546   5.239   1.186  1.2788 -0.4175  0.0997
 1241TIP3   OH2 3665   7.775   6.233   1.643  0.1810  0.3332 -0.3789
 1241TIP3    H1 3666   7.763   6.211   1.550  1.5278  0.7714 -0.6654
 1241TIP3    H2 3667   7.747   6.324   1.651  0.1507  0.3228 -0.3682
 1242TIP3   OH2 3668   0.790   3.500   0.925  0.2644 -0.5417 -0.3002
 1242TIP3    H1 3669   0.825   3.420   0.885  0.7174 -0.8896  0.7852
 1242TIP3    H2 3670   0.825   3.571   0.870  0.4451 -1.0453 -0.8405
 1243TIP3   OH2 3671   6.946   4.459   3.021  0.2263  0.6140  0.2776
 1243TIP3    H1 3672   6.918   4.468   2.929 -0.0784  1.1040  0.4157
 1243TIP3    H2 3673   6.982   4.545   3.043 -0.5925  0.8035  0.9082
 1244TIP3   OH2 3674   6.672   5.003   1.952  0.4825 -0.0327  0.4901
 1244TIP3    H1 3675   6.660   5.064   2.025  2.7039 -1.5356  2.2081
 1244TIP3    H2 3676   6.750   5.034   1.907  1.0378 -0.9865  0.7677
 1245TIP3   OH2 3677   0.122   2.751   1.568 -0.5875 -0.6896 -0.4267
 1245TIP3    H1 3678   0.164   2.700   1.638 -0.5689 -0.5093 -0.3065
 1245TIP3    H2 3679   0.140   2.702   1.488 -1.1056 -1.2114 -0.2311
 1246TIP3   OH2 3680   0.440   3.265   1.709  0.1803  0.0222 -0.3937
 1246TIP3    H1 3681   0.454   3.219   1.792 -0.9152 -0.5272 -0.5103
 1246TIP3    H2 3682   0.407   3.351   1.734 -0.5732 -0.3001 -0.2746
 1247TIP3   OH2 3683   8.256   6.699   0.700 -0.3362  0.0462  0.0210
 1247TIP3    H1 3684   8.221   6.646   0.771  2.4961 -1.7137  0.1865
 1247TIP3    H2 3685   8.194   6.686   0.628 -1.4302 -0.8640  1.1115
 1248TIP3   OH2 3686   0.657   2.802   2.128 -0.2988 -0.1303 -0.4725
 1248TIP3    H1 3687   0.726   2.868   2.121 -0.1879 -0.1048  0.8024
 1248TIP3    H2 3688   0.576   2.852   2.130 -0.1695  0.0413  1.4164
 1249TIP3   OH2 3689   1.599   3.845   1.909 -0.3762  0.0332 -0.0850
 1249TIP3    H1 3690   1.580   3.884   1.824  1.4198  0.6211 -0.2418
 1249TIP3    H2 3691   1.569   3.754   1.901 -2.3585  0.7149 -0.5313
 1250TIP3   OH2 3692   8.243   3.312   1.019 -0.4430 -0.4864  0.2446
 1250TIP3    H1 3693   8.164   3.358   0.991  0.3997  0.6428 -0.3053
 1250TIP3    H2 3694   8.262   3.346   1.106  1.9472  2.6042 -1.3814
 1251TIP3   OH2 3695   7.515   3.811   1.360 -0.3381  0.3223  0.3952
 1251TIP3    H1 3696   7.459   3.887   1.376 -1.9114 -0.9702  1.0811
 1251TIP3    H2 3697   7.467   3.759   1.296  1.2904  0.4716 -0.9792
 1252TIP3   OH2 3698   8.342   4.365   1.916  0.1242 -0.3258 -0.0639
 1252TIP3    H1 3699   8.284   4.391   1.988  0.4310  2.1107 -0.6316
 1252TIP3    H2 3700   8.356   4.271   1.929 -1.2009 -0.2746  2.0489
 1253TIP3   OH2 3701   0.813   6.743   0.039 -0.1940 -0.1544 -0.3444
 1253TIP3    H1 3702   0.832   6.684   0.112  0.1923  1.4046  0.8184
 1253TIP3    H2 3703   0.719   6.732   0.025 -0.1884 -0.8051  0.0803
 1254TIP3   OH2 3704   6.898   5.642   1.250  0.2444  0.4953 -0.1507
 1254TIP3    H1 3705   6.844   5.721   1.252 -0.7984 -0.1465 -1.8434
 1254TIP3    H2 3706   6.851   5.579   1.305  0.3110  0.5814  0.0042
 1255TIP3   OH2 3707   0.608   4.556   2.340  0.1823  0.0037  0.0847
 1255TIP3    H1 3708   0.629   4.490   2.407  1.4625 -0.2298 -0.5406
 1255TIP3    H2 3709   0.685   4.558   2.284 -0.7580  0.4456 -1.1918
 1256TIP3   OH2 3710   6.993   4.306   1.350 -0.0988  0.5064  0.1243
 1256TIP3    H1 3711   7.001   4.355   1.431  0.9967  0.8486 -0.1854
 1256TIP3    H2 3712   6.899   4.308   1.330 -0.3649  0.4662  1.3413
 1257TIP3   OH2 3713   2.584   7.125   0.727  0.6874  0.2996  0.3160
 1257TIP3    H1 3714   2.490   7.121   0.712  1.0019 -0.6432 -1.5079
 1257TIP3    H2 3715   2.623   7.113   0.641  2.4918  0.7103  1.0462
 1258TIP3   OH2 3716   8.093   6.672   1.213  0.2519 -0.1094  0.0892
 1258TIP3    H1 3717   8.174   6.623   1.205  0.5279  0.3665 -0.0509
 1258TIP3    H2 3718   8.057   6.674   1.124  0.0390 -0.3943  0.1660
 1259TIP3   OH2 3719   7.899   4.883   2.698  0.2085  0.5186 -0.0693
 1259TIP3    H1 3720   7.819   4.907   2.650 -0.7638  0.9724  1.7262
 1259TIP3    H2 3721   7.958   4.957   2.683 -0.4286  1.0894  0.1878
 1260TIP3   OH2 3722   7.766   4.299   2.142  0.2304  0.2705 -0.4454
 1260TIP3    H1 3723   7.763   4.281   2.048 -0.0391  0.2074 -0.4257
 1260TIP3    H2 3724   7.689   4.353   2.159  0.0798 -0.0165 -0.2008
 1261TIP3   OH2 3725   7.838   6.265   4.171 -0.4534 -0.3451 -0.4231
 1261TIP3    H1 3726   7.930   6.282   4.192 -0.3995 -0.6760 -0.3898
 1261TIP3    H2 3727   7.789   6.321   4.231 -0.2510  2.2927 -2.6027
 1262TIP3   OH2 3728   8.149   5.644   0.728 -0.1014  0.0170 -0.3686
 1262TIP3    H1 3729   8.151   5.556   0.691 -0.6266 -0.5273  0.8556
 1262TIP3    H2 3730   8.211   5.640   0.801  0.3146  0.8264 -0.6817
 1263TIP3   OH2 3731   7.037   4.664   0.906 -0.1907  0.0114  0.2805
 1263TIP3    H1 3732   7.027   4.759   0.914 -3.3371 -0.3902  1.6626
 1263TIP3    H2 3733   7.035   4.647   0.812  1.0888  1.3297 -0.0178
 1264TIP3   OH2 3734   6.395   6.736   0.989  0.3418 -0.1548  0.3825
 1264TIP3    H1 3735   6.360   6.708   1.074 -0.6816 -0.1768 -0.0369
 1264TIP3    H2 3736   6.423   6.654   0.947  1.6288 -0.0509  1.0432
 1265TIP3   OH2 3737   6.915   2.498   0.590  0.1539 -0.5628 -0.0501
 1265TIP3    H1 3738   6.983   2.560   0.616 -0.4041 -0.2860  0.7760
 1265TIP3    H2 3739   6.962   2.417   0.570  1.0600  0.5788 -2.7596
 1266TIP3   OH2 3740   1.826   3.607   2.757 -0.4745  0.0390  0.1285
 1266TIP3    H1 3741   1.916   3.587   2.733  0.2409  2.3201  0.7918
 1266TIP3    H2 3742   1.798   3.532   2.811  2.3429  1.0260  3.1235
 1267TIP3   OH2 3743   7.602   4.802   2.722 -0.3681  0.0251  0.1012
 1267TIP3    H1 3744   7.549   4.748   2.664  1.3880  0.3491 -1.8587
 1267TIP3    H2 3745   7.642   4.868   2.665  1.3229  0.4225  1.6841
 1268TIP3   OH2 3746   8.338   4.683   0.885 -0.1417  0.0084 -0.3679
 1268TIP3    H1 3747   8.254   4.653   0.921  0.0616  1.3487  1.2634
 1268TIP3    H2 3748   8.356   4.621   0.814 -2.0645 -0.8435 -0.1631
 1269TIP3   OH2 3749   5.192   2.434   6.832  0.2137  0.0160  0.2821
 1269TIP3    H1 3750   5.273   2.395   6.865  1.2107  1.5090 -0.2981
 1269TIP3    H2 3751   5.177   2.391   6.748  1.8769  1.5450 -0.8432
 1270TIP3   OH2 3752   0.280   6.027   0.946 -0.1765 -0.3332  0.2360
 1270TIP3    H1 3753   0.280   6.120   0.924  1.5555 -0.2436  0.5219
 1270TIP3    H2 3754   0.216   6.019   1.017 -0.6637  0.5490 -0.0939
 1271TIP3   OH2 3755   0.447   6.447   1.067 -0.1358  0.1016  0.5676
 1271TIP3    H1 3756   0.529   6.493   1.051  0.7006 -1.2277  0.9905
 1271TIP3    H2 3757   0.381   6.517   1.071  0.9586  1.1762  0.2282
 1272TIP3   OH2 3758   7.303   2.100   6.693 -0.1140 -0.1573  0.7099
 1272TIP3    H1 3759   7.235   2.148   6.740  0.3478  0.7935  0.4161
 1272TIP3    H2 3760   7.255   2.047   6.629 -0.6877 -0.8478  1.7042
 1273TIP3   OH2 3761   6.788   1.733   6.359  0.2110  0.1361  0.2107
 1273TIP3    H1 3762   6.712   1.724   6.417  0.0490 -0.5171 -0.0997
 1273TIP3    H2 3763   6.764   1.685   6.280  0.1635  1.5767 -0.6692
 1274TIP3   OH2 3764   8.444   4.226   1.382  0.2079 -0.3934 -0.0218
 1274TIP3    H1 3765   8.362   4.177   1.387  0.3200 -0.4722  1.1497
 1274TIP3    H2 3766   8.506   4.173   1.431  0.9576 -0.3050 -0.8501
 1275TIP3   OH2 3767   7.634   4.382   0.982  0.2321  0.0904 -0.3778
 1275TIP3    H1 3768   7.641   4.365   1.076  0.0831  0.8059 -0.2329
 1275TIP3    H2 3769   7.568   4.451   0.975 -0.2177 -0.3981 -1.0546
 1276TIP3   OH2 3770   1.614   2.209   1.625 -0.5511  0.2560 -0.2728
 1276TIP3    H1 3771   1.531   2.257   1.634  1.1802  3.2296  0.3338
 1276TIP3    H2 3772   1.637   2.183   1.714 -1.7552 -2.3087 -0.6538
 1277TIP3   OH2 3773   3.604   0.430   6.918 -0.0003  0.3423 -0.4081
 1277TIP3    H1 3774   3.682   0.470   6.880  0.3163  0.2016  0.0967
 1277TIP3    H2 3775   3.586   0.483   6.996 -0.8864  0.8824 -0.9671
 1278TIP3   OH2 3776   8.302   2.585   1.127  0.0647  0.4017 -0.0037
 1278TIP3    H1 3777   8.342   2.503   1.154 -0.5542 -0.1471 -0.7376
 1278TIP3    H2 3778   8.261   2.619   1.207 -0.0688 -0.2284  0.1966
 1279TIP3   OH2 3779   4.677   1.805   5.412  0.0875  0.0756  0.0124
 1279TIP3    H1 3780   4.632   1.889   5.413 -0.8113 -0.4013 -0.2258
 1279TIP3    H2 3781   4.751   1.817   5.472  0.1416  1.1239 -0.2497
 1280TIP3   OH2 3782   3.178   3.778   0.966  0.1911 -0.4407  0.2469
 1280TIP3    H1 3783   3.083   3.766   0.955  0.1407  1.0143 -0.9575
 1280TIP3    H2 3784   3.216   3.746   0.884  0.7368 -0.9184  0.6854
 1281TIP3   OH2 3785   2.047   6.843   2.943  0.5853  0.2767 -0.4478
 1281TIP3    H1 3786   1.961   6.813   2.972 -0.0411  1.5215 -0.9342
 1281TIP3    H2 3787   2.073   6.909   3.008  0.0749  1.6306 -1.5797
 1282TIP3   OH2 3788   8.379   5.278   0.669 -0.2828 -0.3190 -0.5914
 1282TIP3    H1 3789   8.444   5.340   0.700  0.2946 -1.0979 -0.2280
 1282TIP3    H2 3790   8.306   5.332   0.640 -0.0586  0.4938  0.3404
 1283TIP3   OH2 3791   5.274   7.275   0.158 -0.6855 -0.3739 -0.7611
 1283TIP3    H1 3792   5.321   7.218   0.219  2.7276 -1.5394 -4.3359
 1283TIP3    H2 3793   5.309   7.362   0.175 -0.3512 -0.5514 -0.5356
 1284TIP3   OH2 3794   1.657   5.660   0.092  0.2147 -0.1272  0.4280
 1284TIP3    H1 3795   1.591   5.593   0.113 -0.0352  0.1774  0.6261
 1284TIP3    H2 3796   1.633   5.690   0.005  1.0247 -1.1214 -0.1452
 1285TIP3   OH2 3797   0.836   5.187   0.715  0.6612  0.2230  0.4813
 1285TIP3    H1 3798   0.822   5.105   0.668  3.5981 -0.4772  0.7319
 1285TIP3    H2 3799   0.821   5.255   0.649 -1.1692 -0.5037  0.1169
 1286TIP3   OH2 3800   6.879   2.452   5.236  0.2238 -0.2147 -0.2289
 1286TIP3    H1 3801   6.916   2.383   5.292  0.7386 -0.1187 -0.4471
 1286TIP3    H2 3802   6.811   2.492   5.289  0.6970 -0.1398  0.3314
 1287TIP3   OH2 3803   2.567   5.693   0.155  0.5070 -0.0971 -0.1380
 1287TIP3    H1 3804   2.529   5.738   0.231  1.9280 -1.5073  1.4355
 1287TIP3    H2 3805   2.541   5.602   0.165 -0.2001 -0.1176 -1.9451
 1288TIP3   OH2 3806   3.098   4.515   0.334 -0.1631 -0.4476  0.0928
 1288TIP3    H1 3807   3.008   4.509   0.302  0.0114 -1.0227 -0.2897
 1288TIP3    H2 3808   3.139   4.433   0.307  0.9031  0.4436 -1.0052
 1289TIP3   OH2 3809   2.617   4.104   0.794 -0.0508 -0.1505 -0.0654
 1289TIP3    H1 3810   2.600   4.029   0.851 -1.4220  0.5713  0.4729
 1289TIP3    H2 3811   2.633   4.065   0.708 -0.3263 -1.0893  0.3011
 1290TIP3   OH2 3812   3.737   3.559   1.377 -0.4414  0.1589 -0.6679
 1290TIP3    H1 3813   3.751   3.654   1.374 -2.3549  0.4789 -0.2058
 1290TIP3    H2 3814   3.643   3.550   1.396  0.1468 -1.8089  1.4916
 1291TIP3   OH2 3815   1.294   1.180   6.630  0.0490  0.1959 -0.3602
 1291TIP3    H1 3816   1.359   1.114   6.606 -1.0715 -1.0043 -0.1637
 1291TIP3    H2 3817   1.211   1.132   6.630 -0.8838  1.7906 -0.9697
 1292TIP3   OH2 3818   2.125   5.643   0.197 -0.7227 -0.2917 -0.0261
 1292TIP3    H1 3819   2.054   5.707   0.209  0.2228  0.6135  0.9201
 1292TIP3    H2 3820   2.095   5.565   0.244 -1.0201  0.1404  0.5054
 1293TIP3   OH2 3821   0.450   5.183   0.067  0.4104 -0.7425 -0.0340
 1293TIP3    H1 3822   0.543   5.201   0.076  0.5564 -1.5504  0.1154
 1293TIP3    H2 3823   0.428   5.215  -0.021  0.1108  2.3839  1.1289
 1294TIP3   OH2 3824   0.953   6.415   0.568  0.1471 -0.0442 -0.1148
 1294TIP3    H1 3825   1.027   6.405   0.508 -0.9290 -1.3089 -1.2639
 1294TIP3    H2 3826   0.940   6.327   0.604 -0.9999  0.1038 -0.1572
 1295TIP3   OH2 3827   0.465   6.920   1.061 -0.1085 -0.1721 -0.8530
 1295TIP3    H1 3828   0.432   7.010   1.065 -0.3917 -0.3363  1.7234
 1295TIP3    H2 3829   0.550   6.927   1.018 -0.0768  1.3482 -0.5756
 1296TIP3   OH2 3830   1.515   4.861   0.308 -0.2933 -0.0386 -0.1436
 1296TIP3    H1 3831   1.445   4.804   0.277 -0.4873 -0.3349  0.8312
 1296TIP3    H2 3832   1.486   4.890   0.395 -0.8710  2.6831 -1.1895
 1297TIP3   OH2 3833   1.450   5.663   1.468 -0.0864 -0.0405 -0.3513
 1297TIP3    H1 3834   1.389   5.602   1.426 -0.5602  0.2450 -0.0776
 1297TIP3    H2 3835   1.457   5.736   1.407 -1.2044  0.6336  0.2957
 1298TIP3   OH2 3836   1.090   4.027   1.668 -0.2514  0.3579  0.1043
 1298TIP3    H1 3837   1.008   4.076   1.667  1.4648  3.3678  0.9910
 1298TIP3    H2 3838   1.106   4.008   1.760 -1.0384 -2.2533 -0.2421
 1299TIP3   OH2 3839   3.029   6.615   3.316  0.2078 -0.2263  0.2616
 1299TIP3    H1 3840   3.017   6.710   3.316  1.5877 -0.0023  2.6761
 1299TIP3    H2 3841   3.060   6.594   3.228  0.6366  1.6641 -0.0446
 1300TIP3   OH2 3842   1.834   5.000   1.770  0.3361  0.2774  0.3916
 1300TIP3    H1 3843   1.741   4.974   1.769  0.7888 -1.4084 -0.3902
 1300TIP3    H2 3844   1.842   5.063   1.699 -0.1168  0.0872  0.1674
 1301TIP3   OH2 3845   5.244  -0.032   0.718  0.3770  0.1496  0.1543
 1301TIP3    H1 3846   5.161   0.009   0.690  0.7027  0.6915 -0.0331
 1301TIP3    H2 3847   5.277   0.026   0.786 -0.1163 -0.8529  1.2703
 1302TIP3   OH2 3848   1.163   4.377   0.795 -0.3656  0.4031  0.3673
 1302TIP3    H1 3849   1.258   4.385   0.804 -0.4341  0.9347  0.6436
 1302TIP3    H2 3850   1.133   4.346   0.880 -0.4833  0.6597  0.4208
 1303TIP3   OH2 3851   2.897   4.814   0.092  0.2938 -0.0778 -0.0216
 1303TIP3    H1 3852   2.805   4.829   0.116  0.5901  2.8828 -0.5317
 1303TIP3    H2 3853   2.946   4.843   0.169  0.8434 -1.1723  0.0510
 1304TIP3   OH2 3854   1.993   5.365   0.205  0.2881 -0.1941 -0.0803
 1304TIP3    H1 3855   1.898   5.356   0.205  0.1161  1.3386  1.9884
 1304TIP3    H2 3856   2.018   5.358   0.297  2.1038  0.2037 -0.5214
 1305TIP3   OH2 3857   2.892   3.762   0.988 -0.3558 -0.5194  0.4943
 1305TIP3    H1 3858   2.818   3.817   1.015  0.1761 -0.1920  1.3009
 1305TIP3    H2 3859   2.889   3.687   1.047  0.8328  0.2140  1.5085
 1306TIP3   OH2 3860   2.988   4.246   1.162 -0.3913 -0.0459 -0.3837
 1306TIP3    H1 3861   2.926   4.186   1.121  0.1491  1.1568 -3.0104
 1306TIP3    H2 3862   3.074   4.218   1.130 -0.0224  1.3194 -0.6107
 1307TIP3   OH2 3863   7.716   0.847   5.827  0.1804 -0.7168 -0.5440
 1307TIP3    H1 3864   7.799   0.861   5.873  1.1580  0.4223 -2.6008
 1307TIP3    H2 3865   7.664   0.795   5.888  1.8496 -0.1932  1.3859
 1308TIP3   OH2 3866   3.191   5.179   1.868 -0.1255  0.3559  0.3439
 1308TIP3    H1 3867   3.214   5.124   1.793 -0.9360 -1.2205  1.2424
 1308TIP3    H2 3868   3.112   5.225   1.840 -0.9286 -0.8823  0.5268
 1309TIP3   OH2 3869   0.415   5.909   0.737 -0.2241 -0.2292  0.0248
 1309TIP3    H1 3870   0.351   5.948   0.798  0.7800 -0.4900  1.2755
 1309TIP3    H2 3871   0.388   5.818   0.730  0.6539 -0.6206  1.4567
 1310TIP3   OH2 3872   4.190   6.371   0.987 -0.5454 -0.1750 -0.4269
 1310TIP3    H1 3873   4.273   6.383   1.033 -1.0805  1.1770  0.2038
 1310TIP3    H2 3874   4.160   6.285   1.015  0.6002 -0.6372 -0.5898
 1311TIP3   OH2 3875   3.076   3.784   1.479  0.6189 -0.8997  0.1334
 1311TIP3    H1 3876   3.161   3.761   1.516  0.3320 -3.5829 -0.7685
 1311TIP3    H2 3877   3.090   3.784   1.385  0.0460  0.5091  0.0375
 1312TIP3   OH2 3878   7.786   0.808   6.224 -0.6754 -0.6237  0.0671
 1312TIP3    H1 3879   7.756   0.726   6.262 -1.4996 -0.9416 -1.2399
 1312TIP3    H2 3880   7.853   0.782   6.161  0.3889 -0.1375  0.9953
 1313TIP3   OH2 3881   1.395   5.295   1.384  0.5936  0.1216  0.6868
 1313TIP3    H1 3882   1.303   5.309   1.366  0.5571 -0.1227  0.6798
 1313TIP3    H2 3883   1.439   5.315   1.301  0.5466  0.2289  0.6878
 1314TIP3   OH2 3884   2.838   4.722   0.424  0.4318 -0.1640  0.4970
 1314TIP3    H1 3885   2.837   4.722   0.519  0.9783  1.0405  0.5219
 1314TIP3    H2 3886   2.880   4.805   0.401  1.5923 -1.0795 -0.7732
 1315TIP3   OH2 3887   7.098   1.793   6.043  0.2767  0.0963 -0.4710
 1315TIP3    H1 3888   7.068   1.836   6.123 -0.5484  0.6948 -1.0843
 1315TIP3    H2 3889   7.089   1.700   6.061  1.5594  0.1906  0.6799
 1316TIP3   OH2 3890   7.419   7.181   0.138  0.0234 -0.8826 -0.7767
 1316TIP3    H1 3891   7.415   7.138   0.224  0.9898  0.6912  0.0921
 1316TIP3    H2 3892   7.341   7.150   0.092 -0.8156 -1.3141  0.8859
 1317TIP3   OH2 3893   7.427   0.248   6.185 -0.5395 -0.3665 -0.1877
 1317TIP3    H1 3894   7.432   0.335   6.146 -0.7587 -0.3919 -0.2729
 1317TIP3    H2 3895   7.385   0.193   6.118 -2.3159 -0.0648  0.6525
 1318TIP3   OH2 3896   1.038   6.474   2.036  0.5576 -0.7682  0.1763
 1318TIP3    H1 3897   1.104   6.535   2.070 -0.5269 -0.7622  2.3240
 1318TIP3    H2 3898   0.997   6.438   2.114 -1.9855 -0.7827 -1.1339
 1319TIP3   OH2 3899   2.382   5.123   0.990 -0.2266  0.0810  0.4571
 1319TIP3    H1 3900   2.291   5.111   1.014 -0.0713 -2.0355  0.1532
 1319TIP3    H2 3901   2.392   5.074   0.908  0.9968  0.9200  0.0798
 1320TIP3   OH2 3902   1.432   3.842   0.712  0.4814  0.3219 -0.2465
 1320TIP3    H1 3903   1.490   3.854   0.637  0.0171 -1.7052 -0.9839
 1320TIP3    H2 3904   1.344   3.840   0.673  0.1386  0.6088  0.5141
 1321TIP3   OH2 3905   2.150   4.448   0.879  0.1677 -0.0542  0.0165
 1321TIP3    H1 3906   2.163   4.421   0.970  0.0968  1.4448  0.4689
 1321TIP3    H2 3907   2.225   4.412   0.833  2.0067  2.0640  1.2794
 1322TIP3   OH2 3908   1.184   5.144   2.190 -0.1519 -0.5020 -0.2658
 1322TIP3    H1 3909   1.228   5.096   2.260 -1.2006 -1.0114  0.0603
 1322TIP3    H2 3910   1.151   5.076   2.131  2.0273 -0.0393 -2.0999
 1323TIP3   OH2 3911   2.578   6.645   0.798  0.3328 -0.0992  0.2167
 1323TIP3    H1 3912   2.591   6.737   0.822  0.1124 -0.3420  1.2730
 1323TIP3    H2 3913   2.500   6.618   0.847  0.1913 -0.7508 -0.3617
 1324TIP3   OH2 3914   1.924   5.738   2.885  0.1333 -0.4653 -0.2167
 1324TIP3    H1 3915   1.880   5.665   2.841  1.4468 -1.8292  0.6807
 1324TIP3    H2 3916   2.010   5.742   2.845 -0.7741  2.2484 -2.0128
 1325TIP3   OH2 3917   5.819   1.626   6.674 -0.0834  0.4138 -0.0146
 1325TIP3    H1 3918   5.733   1.667   6.680 -0.2542  0.0631 -0.0328
 1325TIP3    H2 3919   5.826   1.597   6.583  0.4638  1.3234 -0.2610
 1326TIP3   OH2 3920   1.321   5.276   0.734 -0.2234  0.1439 -0.9883
 1326TIP3    H1 3921   1.246   5.234   0.775  0.7123 -0.3790  0.2125
 1326TIP3    H2 3922   1.367   5.206   0.687  1.3723 -0.2318  1.0688
 1327TIP3   OH2 3923   3.166   3.385   0.590 -0.6343  0.2732 -0.1696
 1327TIP3    H1 3924   3.179   3.295   0.620 -1.1763  0.7976  1.6623
 1327TIP3    H2 3925   3.072   3.394   0.579 -0.4788  0.2167 -1.6630
 1328TIP3   OH2 3926   0.848   4.952   0.580  0.0284 -0.0758 -0.3094
 1328TIP3    H1 3927   0.839   4.972   0.487  0.4003  1.7644  0.0432
 1328TIP3    H2 3928   0.919   4.888   0.584 -1.0766 -1.4041 -1.4312
 1329TIP3   OH2 3929   0.363   4.064   1.195 -0.0841  0.3661  0.4109
 1329TIP3    H1 3930   0.400   4.064   1.283 -0.2248  0.1991  0.4703
 1329TIP3    H2 3931   0.338   4.155   1.179  0.6202  0.5350  0.2558
 1330TIP3   OH2 3932   7.992   6.964   1.956 -0.1452 -0.0689  0.1288
 1330TIP3    H1 3933   7.975   6.899   2.024 -0.4746  1.1630  1.2514
 1330TIP3    H2 3934   8.037   6.915   1.887 -0.0578 -1.4043  1.1029
 1331TIP3   OH2 3935   0.646   5.659   0.525 -0.3007  0.0131  0.1395
 1331TIP3    H1 3936   0.606   5.578   0.557  1.1764 -1.0868 -0.7358
 1331TIP3    H2 3937   0.690   5.696   0.601  0.2817 -0.7966  0.2033
 1332TIP3   OH2 3938   7.871   1.501   4.698  0.7525  0.3905 -0.2109
 1332TIP3    H1 3939   7.856   1.419   4.649 -1.2763  1.6193 -1.7368
 1332TIP3    H2 3940   7.817   1.492   4.776  0.1587  0.4913 -0.6128
 1333TIP3   OH2 3941   1.042   5.129   2.990 -0.5737 -0.4814 -0.4366
 1333TIP3    H1 3942   1.025   5.108   3.081  0.7418  0.1192 -0.0477
 1333TIP3    H2 3943   1.052   5.225   2.989 -2.7988 -0.2219 -1.5765
 1334TIP3   OH2 3944   0.306   3.002   1.525 -0.2471 -0.5612 -0.1946
 1334TIP3    H1 3945   0.344   2.964   1.445 -0.0710 -0.2773 -0.2488
 1334TIP3    H2 3946   0.380   3.046   1.567 -0.5829  0.2591 -0.4581
 1335TIP3   OH2 3947   0.976   6.605   2.880 -0.1290 -0.3233 -0.3587
 1335TIP3    H1 3948   0.961   6.675   2.944  2.5688 -0.6603  0.6891
 1335TIP3    H2 3949   1.059   6.626   2.839 -1.4503 -0.5522 -3.2827
 1336TIP3   OH2 3950   0.605   6.189   0.464 -0.8056  0.2920 -0.0292
 1336TIP3    H1 3951   0.566   6.195   0.551  0.0888 -0.3924  0.4283
 1336TIP3    H2 3952   0.665   6.115   0.469  1.2056  1.8492 -0.4591
 1337TIP3   OH2 3953   1.046   4.041   0.634 -0.7646  0.6930 -0.8999
 1337TIP3    H1 3954   0.989   4.081   0.699 -0.6161  0.6300 -0.7288
 1337TIP3    H2 3955   1.014   4.072   0.549 -1.2569  0.3948 -0.8218
 1338TIP3   OH2 3956   7.510   2.716   2.503  0.9109  0.3245  0.3610
 1338TIP3    H1 3957   7.457   2.790   2.473  1.2930  0.5819  0.3107
 1338TIP3    H2 3958   7.567   2.697   2.428 -0.9709 -1.7147 -0.6064
 1339TIP3   OH2 3959   1.525   5.202   0.375  0.1284 -0.4292 -0.2779
 1339TIP3    H1 3960   1.497   5.289   0.405  0.7965  0.4951 -2.2233
 1339TIP3    H2 3961   1.492   5.142   0.441  0.0723  1.3582  1.3749
 1340TIP3   OH2 3962   6.809   2.137   5.712  0.5671  0.1958  0.3901
 1340TIP3    H1 3963   6.841   2.180   5.792 -1.1293 -1.4906  2.0339
 1340TIP3    H2 3964   6.864   2.060   5.702 -1.1015 -1.2203  1.6792
 1341TIP3   OH2 3965   3.107   5.146   0.176 -0.3442  0.0352  0.1675
 1341TIP3    H1 3966   3.074   5.106   0.095 -0.7673 -0.0729  0.3886
 1341TIP3    H2 3967   3.097   5.240   0.162 -0.1203  0.0280 -0.0322
 1342TIP3   OH2 3968   3.242   6.053   2.222 -0.0032 -0.1792  0.2067
 1342TIP3    H1 3969   3.253   6.087   2.310 -0.4403 -0.2480  0.2899
 1342TIP3    H2 3970   3.324   6.008   2.203  0.4305  0.5887  0.2384
 1343TIP3   OH2 3971   7.607   1.290   6.190  0.0625 -0.3706  0.0438
 1343TIP3    H1 3972   7.632   1.361   6.130 -0.7055  0.4030  0.6162
 1343TIP3    H2 3973   7.620   1.210   6.139  1.2747  0.1564 -0.5053
 1344TIP3   OH2 3974   3.345   7.738   0.125 -0.6327  0.7219  0.0637
 1344TIP3    H1 3975   3.364   7.825   0.091 -1.2214  0.5598 -0.7235
 1344TIP3    H2 3976   3.287   7.699   0.059  0.8978 -0.8539 -0.4027
 1345TIP3   OH2 3977   2.588   6.882   6.869  0.1320  0.4105 -0.3532
 1345TIP3    H1 3978   2.640   6.933   6.931 -0.0316  0.2340 -0.0688
 1345TIP3    H2 3979   2.650   6.857   6.801  0.8165 -1.2082  0.8305
 1346TIP3   OH2 3980   1.481   4.654   2.992 -0.7379  0.1904  0.0291
 1346TIP3    H1 3981   1.575   4.664   2.981 -0.8860 -1.0190 -2.7772
 1346TIP3    H2 3982   1.447   4.743   2.996  0.4442  0.6343  0.1231
 1347TIP3   OH2 3983   1.784   7.535   4.358 -0.1859 -0.2787 -0.0499
 1347TIP3    H1 3984   1.822   7.602   4.302  1.1516 -0.3158  0.7913
 1347TIP3    H2 3985   1.826   7.454   4.331 -0.5101 -0.4990  0.1058
 1348TIP3   OH2 3986   7.506   1.832   5.654  0.5603 -0.1192  0.6305
 1348TIP3    H1 3987   7.554   1.846   5.572  1.6695 -4.3365  0.4056
 1348TIP3    H2 3988   7.574   1.803   5.716 -1.0504 -2.5256  1.3572
 1349TIP3   OH2 3989   7.964   5.324   0.877  0.3924 -0.3557  0.5931
 1349TIP3    H1 3990   7.924   5.406   0.906  0.3705 -0.2864  0.3724
 1349TIP3    H2 3991   7.889   5.267   0.856  0.3993 -0.0285 -0.3681
 1350TIP3   OH2 3992   0.211   4.892   0.722  0.0708  0.0622  0.0843
 1350TIP3    H1 3993   0.116   4.888   0.723  0.0047  1.3685 -0.4795
 1350TIP3    H2 3994   0.233   4.935   0.639  0.9806  3.5242  2.0085
 1351TIP3   OH2 3995   1.970   7.014   0.496 -0.1100 -0.1072 -0.0164
 1351TIP3    H1 3996   2.025   7.007   0.418  1.1771  0.0683  0.8739
 1351TIP3    H2 3997   1.901   7.076   0.470 -1.8701 -2.8765 -2.2595
 1352TIP3   OH2 3998   1.065   5.742   1.121  0.5719  0.3627 -0.3755
 1352TIP3    H1 3999   1.138   5.715   1.177 -0.0960 -0.7754 -0.0352
 1352TIP3    H2 4000   1.000   5.777   1.182 -0.2288 -1.0452 -0.4156
 1353TIP3   OH2 4001   7.604   5.701   0.694 -0.6871  0.4311 -0.6132
 1353TIP3    H1 4002   7.598   5.724   0.787 -0.8510 -0.6621 -0.3460
 1353TIP3    H2 4003   7.688   5.736   0.665 -0.5466  0.5986  0.0019
 1354TIP3   OH2 4004   6.849   2.944   5.726 -0.4928  0.4872  0.0884
 1354TIP3    H1 4005   6.765   2.988   5.741  0.0884  2.1431 -1.3219
 1354TIP3    H2 4006   6.832   2.884   5.653 -0.2576  1.4597 -0.7819
 1355TIP3   OH2 4007   0.858   1.468   6.641  0.4683 -0.2094  0.3044
 1355TIP3    H1 4008   0.830   1.467   6.732  0.9515 -0.5698  0.4504
 1355TIP3    H2 4009   0.952   1.449   6.644  0.4334 -0.4867 -0.2849
 1356TIP3   OH2 4010   1.433   3.573   1.204  0.5440 -0.3673  0.2454
 1356TIP3    H1 4011   1.414   3.491   1.158  1.0536 -0.7278  0.6674
 1356TIP3    H2 4012   1.528   3.575   1.210  0.5318  0.2383  0.2802
 1357TIP3   OH2 4013   2.173   6.824   1.063  0.7855  0.2076  0.1656
 1357TIP3    H1 4014   2.247   6.883   1.073  0.0655  0.9155  1.3898
 1357TIP3    H2 4015   2.100   6.868   1.107 -0.3244 -0.5650 -0.8425
 1358TIP3   OH2 4016   1.676   4.882   0.905  0.5875  0.3157  0.4443
 1358TIP3    H1 4017   1.650   4.950   0.843  0.3343 -0.1583  0.0254
 1358TIP3    H2 4018   1.747   4.836   0.861  0.8800  0.4225  0.8049
 1359TIP3   OH2 4019   7.232   2.373   6.436  0.2865 -0.4814  0.0845
 1359TIP3    H1 4020   7.238   2.361   6.531 -0.3411 -1.3217  0.0248
 1359TIP3    H2 4021   7.191   2.459   6.425  1.2373  0.0400  0.5655
 1360TIP3   OH2 4022   0.909   7.294   1.417  0.2596  1.0372 -0.1172
 1360TIP3    H1 4023   0.841   7.256   1.361 -0.8431  1.2776  1.0401
 1360TIP3    H2 4024   0.931   7.377   1.374 -1.6595  1.9297  0.6016
 1361TIP3   OH2 4025   1.681   3.448   2.913  0.0484  0.0251  0.2235
 1361TIP3    H1 4026   1.726   3.387   2.973 -0.3104  1.1447  1.6752
 1361TIP3    H2 4027   1.617   3.492   2.969  1.2247  2.6976 -0.4746
 1362TIP3   OH2 4028   6.468   7.923   5.946  0.0725  0.0588 -0.2763
 1362TIP3    H1 4029   6.376   7.937   5.970  0.9424  1.7533  2.3592
 1362TIP3    H2 4030   6.491   7.840   5.987 -0.2175 -0.2242 -0.6917
 1363TIP3   OH2 4031   4.757   2.859   5.856 -0.8412 -0.3926  0.6123
 1363TIP3    H1 4032   4.813   2.926   5.894 -2.2091  0.9719  0.2602
 1363TIP3    H2 4033   4.773   2.865   5.762 -0.0055 -1.4498  0.6786
 1364TIP3   OH2 4034   3.938   5.336   2.162  0.8747  0.2248 -0.3795
 1364TIP3    H1 4035   3.901   5.250   2.185  3.9241 -2.0278 -3.3705
 1364TIP3    H2 4036   3.959   5.376   2.247  0.1653 -2.3397  1.0836
 1365TIP3   OH2 4037   0.147   4.012   1.996 -0.1870  0.0567 -0.0014
 1365TIP3    H1 4038   0.143   3.921   1.967  0.4360 -0.0231  0.1583
 1365TIP3    H2 4039   0.059   4.046   1.980 -0.2170 -0.3600 -0.7729
 1366TIP3   OH2 4040   6.270   1.494   6.824  0.3124  0.0067 -0.6984
 1366TIP3    H1 4041   6.236   1.474   6.737  0.6587  0.9663 -1.0610
 1366TIP3    H2 4042   6.334   1.425   6.841 -0.0545 -0.4215 -1.0272
 1367TIP3   OH2 4043   1.129   5.082   1.173  0.8531 -0.2060  0.0534
 1367TIP3    H1 4044   1.034   5.082   1.167  0.8843  0.3713 -0.4744
 1367TIP3    H2 4045   1.152   4.990   1.190  0.1848 -0.2729  0.6167
 1368TIP3   OH2 4046   7.164   0.990   6.570 -0.2731  0.4513  0.0615
 1368TIP3    H1 4047   7.236   1.051   6.582 -0.3143  0.2319  1.5700
 1368TIP3    H2 4048   7.110   1.000   6.649 -2.9190  1.9243 -1.8445
 1369TIP3   OH2 4049   3.047   7.684   6.643  0.0094  0.2570  0.1021
 1369TIP3    H1 4050   3.101   7.628   6.588  0.5169  1.2685 -0.4451
 1369TIP3    H2 4051   2.966   7.634   6.657  0.1152 -0.2544 -1.0705
 1370TIP3   OH2 4052   0.271   5.355   0.672  0.3117  0.2708  0.1671
 1370TIP3    H1 4053   0.209   5.350   0.598  0.0012  2.2631  0.2557
 1370TIP3    H2 4054   0.222   5.318   0.746 -1.0738  2.4726  0.3989
 1371TIP3   OH2 4055   0.408   1.580   6.454  0.0136  0.1629 -0.2174
 1371TIP3    H1 4056   0.371   1.509   6.402  0.8451  0.8875 -1.8390
 1371TIP3    H2 4057   0.449   1.638   6.390 -0.7372  2.1666  1.0415
 1372TIP3   OH2 4058   1.957   5.510   0.582  0.1714 -0.2712 -0.2514
 1372TIP3    H1 4059   1.967   5.514   0.677  0.8421 -3.0313 -0.1870
 1372TIP3    H2 4060   2.019   5.443   0.554 -1.2409 -0.6894 -2.4670
 1373TIP3   OH2 4061   0.487   2.557   1.233 -0.2397  0.3272 -0.3139
 1373TIP3    H1 4062   0.469   2.529   1.143  1.1472  1.2979 -0.9173
 1373TIP3    H2 4063   0.582   2.548   1.243 -0.5256 -1.0251  1.5016
 1374TIP3   OH2 4064   0.361   5.765   1.436  0.0832 -0.1410  0.1386
 1374TIP3    H1 4065   0.396   5.824   1.369 -0.5250 -2.0413 -1.9021
 1374TIP3    H2 4066   0.424   5.772   1.508  1.4906  0.9359 -1.1465
 1375TIP3   OH2 4067   8.320   5.078   0.494  0.5339  0.4987 -0.0462
 1375TIP3    H1 4068   8.361   5.147   0.547  2.1233 -1.1640  0.9595
 1375TIP3    H2 4069   8.373   5.074   0.414  0.1483  0.7647 -0.3171
 1376TIP3   OH2 4070   0.986   5.868   2.802 -0.1557  0.5351  0.0448
 1376TIP3    H1 4071   1.075   5.862   2.838 -0.0075 -2.1064 -0.6712
 1376TIP3    H2 4072   0.932   5.893   2.877  0.9006  0.1245  0.9552
 1377TIP3   OH2 4073   8.440   5.078   2.370 -0.2468 -0.1786 -0.1769
 1377TIP3    H1 4074   8.398   5.047   2.290 -0.1271 -0.6845 -0.0501
 1377TIP3    H2 4075   8.386   5.041   2.441  0.9946 -1.7054  0.0040
 1378TIP3   OH2 4076   8.502   5.635   1.759  0.1287 -0.3347 -0.2778
 1378TIP3    H1 4077   8.423   5.631   1.812  0.2134  0.5092 -0.0810
 1378TIP3    H2 4078   8.480   5.587   1.679 -0.7030  0.2361 -0.3906
 1379TIP3   OH2 4079   1.496   4.258   2.143  0.4853 -0.0090 -0.4025
 1379TIP3    H1 4080   1.578   4.211   2.160  0.7430  0.4344 -0.4057
 1379TIP3    H2 4081   1.429   4.205   2.185  0.9036  0.1617  0.5010
 1380TIP3   OH2 4082   1.369   4.402   1.145 -0.1637 -0.0611  0.2476
 1380TIP3    H1 4083   1.285   4.447   1.143  1.8899  4.1204  1.5677
 1380TIP3    H2 4084   1.383   4.379   1.237 -0.1908 -1.4652 -0.0833
 1381TIP3   OH2 4085   0.788   4.662   1.503 -0.1318  0.4343  0.1294
 1381TIP3    H1 4086   0.711   4.650   1.558  0.4802  0.0833  0.9242
 1381TIP3    H2 4087   0.857   4.687   1.565  0.8564 -1.1384 -0.2959
 1382TIP3   OH2 4088   0.350   4.569   2.269 -0.2011  0.0602 -0.2078
 1382TIP3    H1 4089   0.444   4.562   2.286 -0.5578  0.5908  2.1244
 1382TIP3    H2 4090   0.340   4.651   2.220  0.4933  0.2252 -0.0762
 1383TIP3   OH2 4091   7.945   6.475   1.063 -0.9030  0.1064  0.7338
 1383TIP3    H1 4092   7.854   6.505   1.060 -0.9122  0.1850  1.6622
 1383TIP3    H2 4093   7.946   6.409   1.131 -0.4944 -0.7282 -0.0687
 1384TIP3   OH2 4094   8.400   6.244   0.208 -0.5186 -0.1420  0.2631
 1384TIP3    H1 4095   8.490   6.217   0.193 -0.3338  0.7180 -0.2350
 1384TIP3    H2 4096   8.408   6.320   0.265 -0.9469 -0.2849  0.5106
 1385TIP3   OH2 4097   0.760   5.461   2.395 -0.5209  0.6735 -0.0513
 1385TIP3    H1 4098   0.749   5.541   2.343  1.9448 -0.1169 -1.8422
 1385TIP3    H2 4099   0.781   5.393   2.331  1.9738 -0.4514  1.9117
 1386TIP3   OH2 4100   2.282   5.999   1.328 -0.1000 -0.0571 -0.4632
 1386TIP3    H1 4101   2.193   5.964   1.316  0.0954 -0.4187 -0.8743
 1386TIP3    H2 4102   2.284   6.029   1.419 -0.2135 -1.2892 -0.0485
 1387TIP3   OH2 4103   3.095   5.252   2.361 -0.1333 -0.2267 -0.7735
 1387TIP3    H1 4104   3.170   5.226   2.308  0.7261 -0.0315  0.3228
 1387TIP3    H2 4105   3.110   5.344   2.381 -0.6045 -0.2169 -0.4546
 1388TIP3   OH2 4106   0.620   4.252   2.061  0.1067  0.0122  0.1297
 1388TIP3    H1 4107   0.650   4.214   2.144 -1.3863  2.2687  1.7384
 1388TIP3    H2 4108   0.527   4.230   2.056 -0.0115  0.6375 -0.5382
 1389TIP3   OH2 4109   1.171   4.146   2.668 -0.1102  0.2573  0.7306
 1389TIP3    H1 4110   1.230   4.219   2.687  0.0585 -0.2067  2.0407
 1389TIP3    H2 4111   1.229   4.072   2.651 -0.3096  0.0106  1.1316
 1390TIP3   OH2 4112   1.560   4.372   3.006  0.5128  0.3857 -0.0093
 1390TIP3    H1 4113   1.644   4.418   3.017  0.8442 -0.6769  2.2750
 1390TIP3    H2 4114   1.494   4.441   3.016  1.0448  0.6461  1.9384
 1391TIP3   OH2 4115   8.326   5.713   1.474  0.3575  0.3818  0.0764
 1391TIP3    H1 4116   8.364   5.640   1.425  1.1453  0.1668  1.0068
 1391TIP3    H2 4117   8.256   5.746   1.417  2.0078  0.8600 -1.7009
 1392TIP3   OH2 4118   0.692   5.873   0.010  0.3138 -0.3796 -0.1232
 1392TIP3    H1 4119   0.609   5.852   0.053 -0.8233  1.1992 -1.4347
 1392TIP3    H2 4120   0.725   5.949   0.058  0.8110 -0.7998  0.1890
 1393TIP3   OH2 4121   1.589   3.147   1.240  0.1213 -0.0613  0.0298
 1393TIP3    H1 4122   1.619   3.166   1.329  0.1807  0.2963 -0.0675
 1393TIP3    H2 4123   1.545   3.062   1.248  1.1769 -0.6011  0.1637
 1394TIP3   OH2 4124   1.499   5.444   4.208  0.1904 -0.2405 -0.0182
 1394TIP3    H1 4125   1.452   5.482   4.133  0.2559 -1.6427 -0.7825
 1394TIP3    H2 4126   1.472   5.497   4.283 -0.5754  0.6105 -0.8855
 1395TIP3   OH2 4127   0.652   4.184   0.493  0.6037  0.7542 -0.2414
 1395TIP3    H1 4128   0.652   4.093   0.463 -0.7700  0.5320  0.4046
 1395TIP3    H2 4129   0.742   4.200   0.521  0.6447 -0.7143  0.5370
 1396TIP3   OH2 4130   0.654   4.585   0.590  1.0705  0.3041  0.2490
 1396TIP3    H1 4131   0.635   4.547   0.675  1.6122 -0.5383  0.0007
 1396TIP3    H2 4132   0.651   4.680   0.605  0.3729  0.1646  1.0183
 1397TIP3   OH2 4133   0.491   2.897   1.844 -0.4198  1.1530 -0.9554
 1397TIP3    H1 4134   0.518   2.856   1.762 -0.4526  0.4403 -0.6099
 1397TIP3    H2 4135   0.551   2.862   1.910 -1.3532  0.5424 -0.4115
 1398TIP3   OH2 4136   2.215   6.572   2.082 -0.5138  0.1170  0.6189
 1398TIP3    H1 4137   2.157   6.496   2.075  1.5112 -1.5301  1.0991
 1398TIP3    H2 4138   2.252   6.582   1.995 -0.8030  0.5811  0.5485
 1399TIP3   OH2 4139   2.177   6.015   0.226  0.2260 -0.1602  0.3622
 1399TIP3    H1 4140   2.214   5.942   0.275  1.4527  0.9990  1.2070
 1399TIP3    H2 4141   2.097   6.038   0.273 -0.4798 -1.3139 -0.2471
 1400TIP3   OH2 4142   4.106   6.133   0.042 -0.1428 -0.0975  0.3549
 1400TIP3    H1 4143   4.189   6.165   0.005 -1.3746  1.3611 -1.1873
 1400TIP3    H2 4144   4.110   6.039   0.030  0.7892  0.0703 -0.7756
 1401TIP3   OH2 4145   0.105   0.258   3.814  0.5123 -0.1693 -0.6717
 1401TIP3    H1 4146   0.013   0.245   3.792 -0.0121  0.7063  0.9162
 1401TIP3    H2 4147   0.136   0.323   3.750  0.3442 -1.2649 -1.8981
 1402TIP3   OH2 4148   4.639   1.756   6.182 -0.2870 -0.2789 -0.6460
 1402TIP3    H1 4149   4.635   1.794   6.094  1.0411  1.8293  0.1734
 1402TIP3    H2 4150   4.563   1.793   6.227 -1.0429 -1.4636 -0.9323
 1403TIP3   OH2 4151   7.626   1.165   3.461  0.3795 -0.5184  0.1124
 1403TIP3    H1 4152   7.548   1.164   3.406  0.5895  0.4667 -0.2146
 1403TIP3    H2 4153   7.694   1.122   3.408 -0.3742 -2.9995  1.0894
 1404TIP3   OH2 4154   3.451   5.006   0.988  0.6020 -0.1747  0.6948
 1404TIP3    H1 4155   3.441   4.958   1.071  4.6966 -1.0043  0.8105
 1404TIP3    H2 4156   3.508   5.079   1.010 -2.8090  2.9161 -0.2533
 1405TIP3   OH2 4157   2.877   4.347   0.619  0.1064 -0.1589 -0.4169
 1405TIP3    H1 4158   2.913   4.331   0.706  0.5759  0.1624 -0.5506
 1405TIP3    H2 4159   2.827   4.428   0.627 -1.0725 -0.9050 -0.0925
 1406TIP3   OH2 4160   8.447   4.463   0.748  0.3674 -0.0592  0.5961
 1406TIP3    H1 4161   8.526   4.468   0.694 -0.7480 -2.4191 -1.3067
 1406TIP3    H2 4162   8.469   4.400   0.817  0.5503  0.2642  0.8407
 1407TIP3   OH2 4163   2.469   6.366   0.294 -0.1024  0.2143  0.1636
 1407TIP3    H1 4164   2.453   6.280   0.256 -0.6813  0.4141 -0.0616
 1407TIP3    H2 4165   2.411   6.371   0.370 -0.8252  0.7765 -0.4034
 1408TIP3   OH2 4166   3.651   6.805   0.565 -0.1210 -0.5348 -0.1775
 1408TIP3    H1 4167   3.711   6.824   0.636  0.1486 -0.1719 -0.5057
 1408TIP3    H2 4168   3.706   6.768   0.496  0.6246  4.5814 -2.5302
 1409TIP3   OH2 4169   2.687   5.133   2.422  0.6851 -0.3279 -0.0920
 1409TIP3    H1 4170   2.706   5.069   2.353 -0.1480 -2.7054  1.8048
 1409TIP3    H2 4171   2.725   5.215   2.390  1.4462 -1.6627 -2.7715
 1410TIP3   OH2 4172   2.259   6.650   0.865  0.5384 -0.2236  0.1921
 1410TIP3    H1 4173   2.261   6.725   0.805  1.3148  0.2936  0.8566
 1410TIP3    H2 4174   2.210   6.682   0.941  1.4005 -0.1880  0.7391
 1411TIP3   OH2 4175   0.597   6.402   0.268 -0.0435 -0.1452  0.2582
 1411TIP3    H1 4176   0.541   6.461   0.319 -0.9444  0.2277 -1.1374
 1411TIP3    H2 4177   0.622   6.334   0.330 -2.7033 -0.7555  0.7258
 1412TIP3   OH2 4178   1.488   0.829   6.331 -0.3106  0.4078  0.0758
 1412TIP3    H1 4179   1.582   0.835   6.314 -0.5715  1.4141 -1.1090
 1412TIP3    H2 4180   1.472   0.735   6.343  0.7717  0.1845 -0.1453
 1413TIP3   OH2 4181   1.684   4.041   0.907  0.6677 -0.0091 -0.5218
 1413TIP3    H1 4182   1.659   4.030   0.815  1.2795 -0.9639 -0.5742
 1413TIP3    H2 4183   1.715   4.132   0.912 -2.0030  0.9700 -0.6271
 1414TIP3   OH2 4184   2.595   3.002   1.485 -0.6373  0.2103 -0.5217
 1414TIP3    H1 4185   2.595   3.089   1.445 -1.7951  0.9569  1.0198
 1414TIP3    H2 4186   2.504   2.988   1.512 -0.2266 -0.9657  0.3008
 1415TIP3   OH2 4187   2.112   5.307   1.355  0.4270  0.1264 -0.6169
 1415TIP3    H1 4188   2.086   5.312   1.263  4.3506 -0.1234 -1.8560
 1415TIP3    H2 4189   2.149   5.394   1.374 -0.2335  0.1295  0.6912
 1416TIP3   OH2 4190   5.889   0.315   5.762 -0.2496 -0.1046  0.1875
 1416TIP3    H1 4191   5.885   0.308   5.667 -0.8578  1.2617  0.1015
 1416TIP3    H2 4192   5.934   0.235   5.790  0.5549 -0.1945 -1.2908
 1417TIP3   OH2 4193   7.955   5.996   1.144  0.3333 -0.3020 -0.1195
 1417TIP3    H1 4194   8.024   5.964   1.086  2.4167  0.7116  1.7256
 1417TIP3    H2 4195   7.976   5.957   1.229 -1.5154 -0.1505  0.4159
 1418TIP3   OH2 4196   1.844   3.932   3.511  0.4386 -0.0196  0.0542
 1418TIP3    H1 4197   1.881   3.932   3.423  0.9724  1.8936  0.2415
 1418TIP3    H2 4198   1.892   4.002   3.556 -1.5751  0.7051  1.1121
 1419TIP3   OH2 4199   7.265   1.627   6.392  0.5022  0.1668 -0.0683
 1419TIP3    H1 4200   7.177   1.664   6.398  1.5385  2.9450 -1.3733
 1419TIP3    H2 4201   7.307   1.651   6.474  0.5856  0.2599 -0.1392
 1420TIP3   OH2 4202   7.691   2.945   2.488 -0.0633  0.5172  0.1340
 1420TIP3    H1 4203   7.649   3.004   2.550 -0.2857 -0.7550  1.2326
 1420TIP3    H2 4204   7.665   2.858   2.518  2.9602 -0.2993  0.5726
 1421TIP3   OH2 4205   1.436   7.953   0.265 -0.1366  0.2595 -0.0673
 1421TIP3    H1 4206   1.353   7.917   0.233 -0.5298  1.8442 -0.9022
 1421TIP3    H2 4207   1.500   7.929   0.198 -0.2173  0.3028 -0.1610
 1422TIP3   OH2 4208   7.713   6.158   1.105 -0.3570 -0.0218  0.6187
 1422TIP3    H1 4209   7.695   6.122   1.018 -0.5639  0.5998  0.4086
 1422TIP3    H2 4210   7.786   6.104   1.138  1.4453  1.3909 -0.9801
 1423TIP3   OH2 4211   1.525   7.201   3.972 -0.3374  1.1060 -0.7345
 1423TIP3    H1 4212   1.578   7.279   3.982  0.6235  0.2990  0.5799
 1423TIP3    H2 4213   1.435   7.231   3.985  0.0978  1.8385  0.6505
 1424TIP3   OH2 4214   7.347   5.112   4.123 -0.0622 -0.5242 -0.2050
 1424TIP3    H1 4215   7.270   5.091   4.070  1.0921 -1.2966 -1.6041
 1424TIP3    H2 4216   7.408   5.154   4.062 -0.2186  2.0992  1.3841
 1425TIP3   OH2 4217   2.142   3.064   0.771 -0.1917  0.1734  0.9994
 1425TIP3    H1 4218   2.146   3.149   0.814  1.0699  0.8966 -0.4818
 1425TIP3    H2 4219   2.147   3.000   0.842 -1.0006  1.3377  2.1064
 1426TIP3   OH2 4220   7.052   2.946   6.935 -0.0310  0.2188 -0.3225
 1426TIP3    H1 4221   7.108   2.936   7.012 -1.2294 -0.4326  0.4956
 1426TIP3    H2 4222   7.085   2.882   6.872 -0.4851 -0.9102  0.5546
 1427TIP3   OH2 4223   1.148   4.954   0.630 -0.4133 -0.3986 -0.0691
 1427TIP3    H1 4224   1.180   5.009   0.558  0.4318 -0.7283  0.0423
 1427TIP3    H2 4225   1.117   5.015   0.696 -0.8332 -0.0859 -0.5512
 1428TIP3   OH2 4226   4.177   6.085   2.387 -0.0444  0.0291  0.3325
 1428TIP3    H1 4227   4.261   6.086   2.341 -0.4667  0.8827 -0.4279
 1428TIP3    H2 4228   4.173   5.998   2.427  1.2686  0.0259  0.5026
 1429TIP3   OH2 4229   1.026   4.660   1.643  0.0509  0.1090  0.3927
 1429TIP3    H1 4230   1.030   4.565   1.636  1.3275  0.1737  0.0890
 1429TIP3    H2 4231   1.117   4.689   1.630 -0.5047  1.4395 -0.7350
 1430TIP3   OH2 4232   2.419   3.225   1.671 -0.0376 -0.0655 -0.2350
 1430TIP3    H1 4233   2.503   3.199   1.634 -0.8394  1.1498 -3.0236
 1430TIP3    H2 4234   2.439   3.302   1.724  0.6956 -0.0769 -0.4839
 1431TIP3   OH2 4235   2.249   5.726   2.855 -0.2453 -0.6439 -0.1255
 1431TIP3    H1 4236   2.240   5.775   2.773  1.6530 -0.5602 -0.3047
 1431TIP3    H2 4237   2.291   5.787   2.915  2.1866 -2.0462 -0.3606
 1432TIP3   OH2 4238   1.599   6.186   2.069  0.1855  0.0776  0.2196
 1432TIP3    H1 4239   1.570   6.118   2.129 -0.4616  0.3895  0.2617
 1432TIP3    H2 4240   1.627   6.258   2.126  0.2538  0.0998  0.1586
 1433TIP3   OH2 4241   0.872   4.978   0.268 -0.1807 -0.0175 -0.9233
 1433TIP3    H1 4242   0.905   5.060   0.231 -0.9210 -0.4383 -2.5509
 1433TIP3    H2 4243   0.941   4.914   0.249 -0.5863 -0.2454 -1.6882
 1434TIP3   OH2 4244   1.423   4.159   1.014  0.1940  0.0289 -0.3286
 1434TIP3    H1 4245   1.416   4.252   1.037  0.6361  0.0944 -0.4514
 1434TIP3    H2 4246   1.516   4.147   0.992 -0.2014 -0.0601 -1.9755
 1435TIP3   OH2 4247   0.349   4.443   0.888  0.1146 -0.2394  0.6013
 1435TIP3    H1 4248   0.363   4.509   0.821  2.8186 -0.1695  1.1972
 1435TIP3    H2 4249   0.264   4.404   0.865 -0.2471  1.5641 -1.3011
 1436TIP3   OH2 4250   6.076   0.904   5.589  0.1851  0.3074 -0.2967
 1436TIP3    H1 4251   6.013   0.840   5.624  0.5210 -0.4633 -1.0856
 1436TIP3    H2 4252   6.104   0.867   5.505  0.4646  1.4436 -0.7149
 1437TIP3   OH2 4253   8.319   4.709   0.084 -0.3859  0.4813  0.2831
 1437TIP3    H1 4254   8.327   4.679   0.174  0.1639  1.0136  0.4160
 1437TIP3    H2 4255   8.387   4.776   0.075 -1.2885  1.3572 -0.1390
 1438TIP3   OH2 4256   7.241   5.330   1.578 -0.1713 -0.2340 -0.1370
 1438TIP3    H1 4257   7.321   5.332   1.525  1.2679  1.6224  2.0244
 1438TIP3    H2 4258   7.269   5.297   1.663 -2.2400 -2.0026 -0.0926
 1439TIP3   OH2 4259   1.986   5.031   1.385 -0.0391  0.0821  0.3660
 1439TIP3    H1 4260   2.015   4.945   1.414 -1.0709  0.1636  1.6948
 1439TIP3    H2 4261   2.028   5.092   1.446 -0.0235  0.4558 -0.0182
 1440TIP3   OH2 4262   3.864   4.336   2.348  0.0149 -0.0139  0.4783
 1440TIP3    H1 4263   3.923   4.287   2.291 -0.1347  1.3999 -0.9134
 1440TIP3    H2 4264   3.882   4.428   2.327 -0.6463  0.4957  2.1066
 1441TIP3   OH2 4265   7.833   0.559   2.421 -0.1837 -0.2480 -0.0356
 1441TIP3    H1 4266   7.870   0.488   2.473 -1.6163  0.3720  1.8482
 1441TIP3    H2 4267   7.784   0.514   2.352 -0.6586 -1.0922  0.8424
 1442TIP3   OH2 4268   1.746   4.217   0.192  0.0047 -0.2499  0.0742
 1442TIP3    H1 4269   1.806   4.160   0.240 -1.1352 -2.9983 -1.6059
 1442TIP3    H2 4270   1.793   4.241   0.113 -0.2101 -0.4518 -0.1177
 1443TIP3   OH2 4271   1.451   4.158   0.629  1.0886 -0.3459  0.1635
 1443TIP3    H1 4272   1.408   4.153   0.715  1.2836 -0.0277  0.2788
 1443TIP3    H2 4273   1.389   4.116   0.569  0.7211 -0.0974  0.3694
 1444TIP3   OH2 4274   7.969   0.306   6.210  0.4707 -0.3909 -0.4152
 1444TIP3    H1 4275   7.962   0.215   6.180 -0.2981 -0.8464  1.1106
 1444TIP3    H2 4276   8.056   0.334   6.182  1.1759 -1.9764  0.1232
 1445TIP3   OH2 4277   0.656   6.050   0.764 -0.1800  0.0893 -0.2500
 1445TIP3    H1 4278   0.574   6.098   0.756 -0.5619 -0.4949  0.1226
 1445TIP3    H2 4279   0.633   5.959   0.744  0.7862  0.2612 -2.2734
 1446TIP3   OH2 4280   2.506   4.770   1.811  0.2299 -0.3221  0.6657
 1446TIP3    H1 4281   2.466   4.720   1.882  0.0639 -0.0232  0.7837
 1446TIP3    H2 4282   2.588   4.724   1.792  0.8307  0.2643  1.8309
 1447TIP3   OH2 4283   3.223   5.106   0.649 -0.8076 -0.2293  0.5115
 1447TIP3    H1 4284   3.302   5.159   0.662 -1.2043  0.7264 -0.9099
 1447TIP3    H2 4285   3.155   5.152   0.699 -0.7682 -0.3570  0.6864
 1448TIP3   OH2 4286   4.773   3.863   0.556  0.1128  0.0921 -0.0701
 1448TIP3    H1 4287   4.810   3.872   0.644 -0.1865  1.2726 -0.0568
 1448TIP3    H2 4288   4.811   3.936   0.507 -0.4554 -0.0065 -0.6632
 1449TIP3   OH2 4289   2.204   5.594   1.424  0.0247 -0.1124 -0.3798
 1449TIP3    H1 4290   2.287   5.642   1.431  0.1276 -0.3804  0.3056
 1449TIP3    H2 4291   2.137   5.661   1.417  0.2293  0.1226 -0.0988
 1450TIP3   OH2 4292   2.028   0.534   5.822 -0.0092 -0.1341  0.2285
 1450TIP3    H1 4293   2.022   0.596   5.894  0.3848 -1.4286  1.3895
 1450TIP3    H2 4294   1.962   0.468   5.841 -0.5182 -0.0151 -1.0731
 1451TIP3   OH2 4295   3.895   7.024   2.020  0.0738  0.3284  0.3414
 1451TIP3    H1 4296   3.929   6.955   2.076 -0.4241  1.1229  1.6425
 1451TIP3    H2 4297   3.811   6.990   1.988 -0.9835  0.9815  2.3303
 1452TIP3   OH2 4298   3.054   6.183   1.663 -0.5042 -0.5663  0.1694
 1452TIP3    H1 4299   3.076   6.094   1.692 -1.1541 -0.0781  2.1830
 1452TIP3    H2 4300   2.969   6.173   1.619 -0.1810 -1.0588 -0.3669
 1453TIP3   OH2 4301   2.559   4.615   0.499  0.3818  0.1933  0.0994
 1453TIP3    H1 4302   2.586   4.558   0.570  0.7258 -0.2407 -0.3729
 1453TIP3    H2 4303   2.487   4.569   0.456  0.1427  0.4743  0.1960
 1454TIP3   OH2 4304   4.588   7.345   0.511 -0.0975  0.5644  0.2714
 1454TIP3    H1 4305   4.531   7.309   0.443 -2.2198  0.1795  2.2126
 1454TIP3    H2 4306   4.661   7.282   0.516 -0.7597 -0.2888 -0.4659
 1455TIP3   OH2 4307   3.249   4.138   1.091 -0.1248 -0.1372 -0.2077
 1455TIP3    H1 4308   3.259   4.042   1.087  2.9210  0.1179 -0.1463
 1455TIP3    H2 4309   3.255   4.166   1.000 -0.5265  0.0502 -0.1774
 1456TIP3   OH2 4310   3.796   4.880   1.408 -0.1854  0.0811  0.2197
 1456TIP3    H1 4311   3.832   4.792   1.402 -2.0888 -0.7450  0.7181
 1456TIP3    H2 4312   3.704   4.868   1.432 -1.5276  2.0421 -3.5722
 1457TIP3   OH2 4313   1.311   2.199   6.074  0.1168 -0.0735  0.2837
 1457TIP3    H1 4314   1.307   2.143   5.996  0.6429  0.0296  0.1789
 1457TIP3    H2 4315   1.375   2.156   6.131  0.5161  0.4164  0.2050
 1458TIP3   OH2 4316   2.897   3.629   0.464  0.0161  0.3616  0.2501
 1458TIP3    H1 4317   2.820   3.573   0.454  0.9246 -0.8957  0.1517
 1458TIP3    H2 4318   2.923   3.618   0.556  0.3941  0.3506  0.1435
 1459TIP3   OH2 4319   2.452   4.669   0.833  0.0847 -0.1798  0.3204
 1459TIP3    H1 4320   2.466   4.587   0.785 -0.2864  0.8094 -1.4955
 1459TIP3    H2 4321   2.399   4.723   0.774 -1.4686  0.5746  2.3602
 1460TIP3   OH2 4322   2.882   5.132   1.171 -0.5369 -0.1985 -0.1001
 1460TIP3    H1 4323   2.974   5.113   1.191 -0.0801  2.1630  0.1217
 1460TIP3    H2 4324   2.836   5.122   1.254 -0.4979 -1.4351 -0.2217
 1461TIP3   OH2 4325   2.937   7.232   1.789 -0.4205  0.6792 -0.0829
 1461TIP3    H1 4326   2.967   7.165   1.727  0.7507  1.2299 -0.1242
 1461TIP3    H2 4327   2.909   7.304   1.733 -0.2080  0.8290  0.0052
 1462TIP3   OH2 4328   6.063   3.104   6.470 -0.5367  0.7546 -0.0919
 1462TIP3    H1 4329   6.074   3.199   6.470  2.0890  0.5010  1.0532
 1462TIP3    H2 4330   6.114   3.074   6.395 -0.2984  0.1511  0.3108
 1463TIP3   OH2 4331   1.034   0.960   6.650  0.0636  0.3103 -0.0010
 1463TIP3    H1 4332   1.024   0.960   6.555  0.9475  0.1562 -0.0948
 1463TIP3    H2 4333   0.976   1.030   6.680 -1.4763 -0.7242 -0.5051
 1464TIP3   OH2 4334   5.551   4.917   1.204 -0.0685  0.0359 -0.0191
 1464TIP3    H1 4335   5.623   4.979   1.220  0.7409 -0.6636 -0.8486
 1464TIP3    H2 4336   5.483   4.942   1.267  0.8441  0.8024  0.6844
 1465TIP3   OH2 4337   4.616   5.830   0.290 -0.1410  0.2412  0.1672
 1465TIP3    H1 4338   4.535   5.780   0.298 -0.1292  0.2136  0.1135
 1465TIP3    H2 4339   4.590   5.921   0.306 -0.1516  0.2108  0.3232
 1466TIP3   OH2 4340   4.692   6.207   0.872 -0.1269  0.3151 -0.0490
 1466TIP3    H1 4341   4.627   6.223   0.939 -0.3855 -1.2401  0.0920
 1466TIP3    H2 4342   4.695   6.112   0.863  3.7633  0.1862  1.5690
 1467TIP3   OH2 4343   2.672   5.283   0.680 -0.2044  0.4894  0.2300
 1467TIP3    H1 4344   2.585   5.243   0.679  0.0817 -0.1656  0.7292
 1467TIP3    H2 4345   2.714   5.246   0.758 -0.0849  2.1117  0.9426
 1468TIP3   OH2 4346   0.351   2.676   6.261  0.4047  0.3056  0.3172
 1468TIP3    H1 4347   0.441   2.681   6.292  0.8220  1.6901 -1.0585
 1468TIP3    H2 4348   0.337   2.757   6.212 -0.5680 -1.2322 -2.0856
 1469TIP3   OH2 4349   0.194   2.434   6.795  0.1224 -0.3912 -0.6887
 1469TIP3    H1 4350   0.167   2.346   6.770  1.2969 -0.5080 -1.6367
 1469TIP3    H2 4351   0.255   2.421   6.867  1.9938 -0.5347 -2.2487
 1470TIP3   OH2 4352   5.691   7.351   0.170  0.2589 -0.1286 -0.8565
 1470TIP3    H1 4353   5.604   7.369   0.204  0.2150 -2.2404  0.2416
 1470TIP3    H2 4354   5.677   7.298   0.092  0.5549 -0.8974 -0.3977
 1471TIP3   OH2 4355   4.945   5.652   0.551 -0.4369 -0.0089 -0.6441
 1471TIP3    H1 4356   4.963   5.734   0.505 -1.4442  1.5269  1.6112
 1471TIP3    H2 4357   4.850   5.646   0.554 -0.3861 -2.0227 -2.0473
 1472TIP3   OH2 4358   1.930   5.156   0.052 -0.2770 -0.2412 -0.0755
 1472TIP3    H1 4359   1.914   5.250   0.040 -2.7200 -0.4189  1.5314
 1472TIP3    H2 4360   1.973   5.129  -0.029  1.0509  2.3778 -0.3069
 1473TIP3   OH2 4361   7.547   2.161   6.518 -0.6103  0.8748  0.0626
 1473TIP3    H1 4362   7.499   2.171   6.436  1.1855 -2.6423 -1.4982
 1473TIP3    H2 4363   7.493   2.103   6.571 -1.0126  1.9019  0.8086
 1474TIP3   OH2 4364   1.442   4.411   1.661  0.2872 -0.4654  0.3672
 1474TIP3    H1 4365   1.530   4.375   1.650  1.4362  1.7499  1.9249
 1474TIP3    H2 4366   1.414   4.382   1.748  0.0588  0.0203  0.4602
 1475TIP3   OH2 4367   2.143   4.218   2.197  0.2324  0.2588 -0.6443
 1475TIP3    H1 4368   2.053   4.243   2.179  0.3359  0.4769 -0.8708
 1475TIP3    H2 4369   2.157   4.138   2.145  0.5990  1.0120 -1.7325
 1476TIP3   OH2 4370   7.601   4.275   6.743  0.2952 -0.5557  0.0761
 1476TIP3    H1 4371   7.630   4.205   6.802  1.4771 -0.3542 -0.2557
 1476TIP3    H2 4372   7.543   4.329   6.796 -0.5706 -1.7458  0.3582
 1477TIP3   OH2 4373   2.825   6.566   1.820 -0.2914  0.2092  0.6298
 1477TIP3    H1 4374   2.815   6.661   1.816 -0.6255  0.1264 -0.6070
 1477TIP3    H2 4375   2.920   6.553   1.819 -0.2167  0.3960 -3.5528
 1478TIP3   OH2 4376   0.092   1.259   5.850  0.5160 -0.2560  1.1885
 1478TIP3    H1 4377   0.149   1.328   5.817 -0.6170  0.4683  0.7408
 1478TIP3    H2 4378   0.072   1.205   5.773 -1.4656  0.9687  0.8095
 1479TIP3   OH2 4379   8.206   0.266   5.512  0.1008 -0.6124  0.0601
 1479TIP3    H1 4380   8.210   0.325   5.587 -1.6510 -2.7286  1.9021
 1479TIP3    H2 4381   8.297   0.257   5.483  0.8001  0.2046  1.9660
 1480TIP3   OH2 4382   2.049   5.820   1.420 -0.3494  0.2622 -0.4064
 1480TIP3    H1 4383   1.962   5.784   1.407 -0.6939  0.8190  0.3462
 1480TIP3    H2 4384   2.037   5.892   1.482  1.0755 -1.7659  2.3999
 1481TIP3   OH2 4385   2.157   1.760   6.792  0.1615  0.1829 -0.6064
 1481TIP3    H1 4386   2.083   1.716   6.833 -1.2981  1.0321 -2.2405
 1481TIP3    H2 4387   2.191   1.696   6.730  0.3382  0.0497 -0.3718
 1482TIP3   OH2 4388   3.425   6.343   1.271  0.2076 -0.0041  0.2428
 1482TIP3    H1 4389   3.437   6.401   1.346  0.3911 -0.8966  0.9186
 1482TIP3    H2 4390   3.488   6.272   1.285 -0.1729 -0.4911 -0.4501
 1483TIP3   OH2 4391   7.034   3.585   4.724 -0.1242 -0.1606 -0.1969
 1483TIP3    H1 4392   7.020   3.537   4.642  0.6098 -2.5382  1.0029
 1483TIP3    H2 4393   7.127   3.574   4.743  0.0917  1.9332  0.0176
 1484TIP3   OH2 4394   1.290   5.869   2.056 -0.1712  0.3029 -0.7322
 1484TIP3    H1 4395   1.289   5.774   2.065  1.0633  0.2885 -0.7136
 1484TIP3    H2 4396   1.220   5.888   1.993  0.7521 -0.7548 -2.1024
 1485TIP3   OH2 4397   2.176   6.046   0.897  0.3636  0.3780  0.1134
 1485TIP3    H1 4398   2.198   6.072   0.987  1.3586 -0.9330  0.2649
 1485TIP3    H2 4399   2.138   6.125   0.858 -1.2021  0.6353  2.0530
 1486TIP3   OH2 4400   2.209   4.017   2.005  0.5840  0.3183  0.0226
 1486TIP3    H1 4401   2.298   4.039   1.979  0.6384 -0.5408 -0.5236
 1486TIP3    H2 4402   2.216   3.934   2.051 -0.0158 -0.0808 -0.5928
 1487TIP3   OH2 4403   4.080   4.878   0.807  0.4324 -0.0754 -0.0544
 1487TIP3    H1 4404   4.005   4.838   0.762 -0.9881  2.1905  0.2266
 1487TIP3    H2 4405   4.103   4.815   0.875 -0.9969 -0.9654 -0.3731
 1488TIP3   OH2 4406   4.127   4.452   3.244  0.1487 -0.4452 -0.2186
 1488TIP3    H1 4407   4.051   4.474   3.298  0.9464 -2.2224  1.6986
 1488TIP3    H2 4408   4.100   4.376   3.194  0.4191 -0.6477 -0.0578
 1489TIP3   OH2 4409   0.643   0.678   6.946  0.7001  0.4635 -0.8244
 1489TIP3    H1 4410   0.580   0.743   6.976  0.8384  0.8527 -1.3515
 1489TIP3    H2 4411   0.709   0.729   6.898  0.9822 -0.0298 -0.9686
 1490TIP3   OH2 4412   2.297   5.059   1.364  0.1148  0.9219  0.6479
 1490TIP3    H1 4413   2.311   5.152   1.341 -2.2866  1.3081  0.6217
 1490TIP3    H2 4414   2.308   5.056   1.459  0.1791  1.2612  0.6542
 1491TIP3   OH2 4415   2.962   4.856   0.660  0.6781 -0.0360 -0.1957
 1491TIP3    H1 4416   2.971   4.949   0.680  0.4681 -0.1047  0.2136
 1491TIP3    H2 4417   3.033   4.838   0.598  2.1588 -0.1189  1.4727
 1492TIP3   OH2 4418   0.965   0.359   6.372 -0.2742 -0.4336 -0.3774
 1492TIP3    H1 4419   0.872   0.348   6.390 -0.4173 -0.5468 -1.1654
 1492TIP3    H2 4420   1.000   0.269   6.368  0.2271 -0.3436  1.7341
 1493TIP3   OH2 4421   3.362   5.650   0.955 -0.6996  0.6339 -0.1272
 1493TIP3    H1 4422   3.393   5.560   0.965 -2.9745  0.0147  1.6140
 1493TIP3    H2 4423   3.382   5.691   1.038 -2.4989  0.8446  0.2167
 1494TIP3   OH2 4424   3.413   4.943   1.421  0.0725 -0.3524  0.0841
 1494TIP3    H1 4425   3.392   5.011   1.484  0.5471  1.2897 -1.4927
 1494TIP3    H2 4426   3.473   4.885   1.466  0.1020  0.5874  1.2581
 1495TIP3   OH2 4427   2.275   2.014   6.729  0.3307  0.3999 -0.1828
 1495TIP3    H1 4428   2.184   1.989   6.719  0.0608  1.1079  0.4778
 1495TIP3    H2 4429   2.316   1.939   6.772  0.0992  0.0186 -0.6233
 1496TIP3   OH2 4430   3.590   4.718   1.522  0.0092  0.4661  0.8966
 1496TIP3    H1 4431   3.537   4.661   1.466 -1.3440  0.6976  1.8949
 1496TIP3    H2 4432   3.571   4.688   1.611  1.3359  0.7648  1.2852
 1497TIP3   OH2 4433   8.351   1.648   6.071  0.3436  0.4015 -0.2407
 1497TIP3    H1 4434   8.439   1.671   6.101  0.5517 -0.7682  0.0811
 1497TIP3    H2 4435   8.360   1.558   6.038 -0.1908  1.1347 -2.4773
 1498TIP3   OH2 4436   1.291   4.752   1.286  0.3053 -0.0624 -0.0259
 1498TIP3    H1 4437   1.350   4.755   1.362  0.2828  1.1743 -0.0494
 1498TIP3    H2 4438   1.344   4.783   1.213 -0.6326  2.0673  0.1480
 1499TIP3   OH2 4439   3.610   5.754   0.281  0.0462  0.0746 -0.5561
 1499TIP3    H1 4440   3.669   5.820   0.318  0.1942 -0.4426  0.1509
 1499TIP3    H2 4441   3.523   5.785   0.304  0.0785  0.4113 -0.8792
 1500TIP3   OH2 4442   1.304   1.600   6.876 -0.0614 -0.4478  0.0094
 1500TIP3    H1 4443   1.262   1.641   6.952 -0.2076 -0.4440 -0.0723
 1500TIP3    H2 4444   1.311   1.670   6.812  0.9434 -0.2084  0.3664
 1501TIP3   OH2 4445   3.604   5.313  -0.020 -0.1378  0.4054 -0.1324
 1501TIP3    H1 4446   3.679   5.269   0.018  0.4039  0.3536 -1.2465
 1501TIP3    H2 4447   3.602   5.399   0.023  0.7079  0.5062 -0.2969
 1502TIP3   OH2 4448   3.075   5.414   0.124  0.1446  0.5158  0.0890
 1502TIP3    H1 4449   2.997   5.433   0.176 -0.5323 -1.5386 -0.1446
 1502TIP3    H2 4450   3.061   5.462   0.042 -0.6834  0.4710  0.1993
 1503TIP3   OH2 4451   0.653   1.367   5.801  0.3810  0.0404  0.3811
 1503TIP3    H1 4452   0.706   1.415   5.738  1.1362  0.6506  1.4643
 1503TIP3    H2 4453   0.563   1.395   5.783  0.7644  1.4598  0.6589
 1504TIP3   OH2 4454   8.128   0.059   6.385  0.3334 -0.0055 -0.1088
 1504TIP3    H1 4455   8.044   0.015   6.387 -0.3894  1.2878 -0.9294
 1504TIP3    H2 4456   8.152   0.070   6.477  0.0527 -1.1858  0.1105
 1505TIP3   OH2 4457   5.592   5.664   0.929  0.1332  0.2128 -0.0279
 1505TIP3    H1 4458   5.666   5.723   0.948  0.6287 -0.1426 -0.8222
 1505TIP3    H2 4459   5.612   5.628   0.843  0.9006 -2.7484  1.3229
 1506TIP3   OH2 4460   1.527   2.151   6.841  0.0899  0.0712 -0.4085
 1506TIP3    H1 4461   1.586   2.093   6.792  0.3750  0.2917 -0.3268
 1506TIP3    H2 4462   1.582   2.224   6.868  0.2741 -0.6909  1.3865
 1507TIP3   OH2 4463   2.783   5.051   1.413  0.2486  0.6484 -0.3579
 1507TIP3    H1 4464   2.700   5.012   1.388  0.1935  0.7530 -0.3368
 1507TIP3    H2 4465   2.847   4.980   1.402 -0.1473 -0.0318  1.5790
 1508TIP3   OH2 4466   3.954   7.175   6.543 -0.1684 -0.3320 -0.3578
 1508TIP3    H1 4467   4.020   7.206   6.480  0.3041 -0.8466 -0.1122
 1508TIP3    H2 4468   3.961   7.236   6.616  0.8703 -1.0940  0.1940
 1509TIP3   OH2 4469   3.364   5.204   1.530 -0.2705  0.2443 -0.2015
 1509TIP3    H1 4470   3.454   5.206   1.564 -0.4639 -1.0648  0.4240
 1509TIP3    H2 4471   3.359   5.279   1.472  1.3458  0.1489 -0.5004
 1510TIP3   OH2 4472   3.366   5.502   0.440 -0.4353  0.0710  0.2677
 1510TIP3    H1 4473   3.356   5.471   0.350 -1.2190 -0.1925  0.4453
 1510TIP3    H2 4474   3.455   5.475   0.465  0.0939  0.8800 -0.7092
 1511TIP3   OH2 4475   3.148   4.459   1.895 -0.3408  0.3012  0.4373
 1511TIP3    H1 4476   3.054   4.452   1.908 -0.4293 -1.0580 -0.6812
 1511TIP3    H2 4477   3.186   4.398   1.959 -0.2659  0.3223  0.4133
 1512TIP3   OH2 4478   4.056   5.083   1.109  0.3771 -0.0027 -0.2181
 1512TIP3    H1 4479   4.060   5.088   1.204 -1.2082  0.7421 -0.1731
 1512TIP3    H2 4480   3.969   5.047   1.090  0.5335  0.1995 -1.3853
 1513TIP3   OH2 4481   0.798   4.175   1.312  0.5463 -0.1300  0.4201
 1513TIP3    H1 4482   0.838   4.099   1.354 -0.9219 -0.8034  0.6195
 1513TIP3    H2 4483   0.834   4.176   1.224  0.6523 -0.9963  0.4574
 1514TIP3   OH2 4484   1.284   5.889   0.098 -0.0830 -0.4904  0.0639
 1514TIP3    H1 4485   1.353   5.869   0.161 -0.4788 -0.2386  0.5779
 1514TIP3    H2 4486   1.309   5.973   0.060  0.0774 -0.5718 -0.0115
 1515TIP3   OH2 4487   2.168   4.212   1.732 -0.7261  0.1296  0.2168
 1515TIP3    H1 4488   2.230   4.271   1.691 -0.9426 -0.0411 -0.3577
 1515TIP3    H2 4489   2.179   4.129   1.686 -1.3514  0.0899  0.1345
 1516TIP3   OH2 4490   7.555   0.258   1.598  0.2219  0.4979 -0.0297
 1516TIP3    H1 4491   7.482   0.249   1.536  0.0985 -0.0717  0.1915
 1516TIP3    H2 4492   7.628   0.212   1.557 -0.3953 -1.5409  1.0835
 1517TIP3   OH2 4493   1.484   2.025   6.236  0.1087  0.1259 -0.8474
 1517TIP3    H1 4494   1.432   1.976   6.299 -1.0081  0.3879 -1.5354
 1517TIP3    H2 4495   1.574   1.998   6.251 -0.4769 -2.1017 -1.1929
 1518TIP3   OH2 4496   4.744   5.818   0.041 -0.0192 -0.3956  0.1277
 1518TIP3    H1 4497   4.698   5.823   0.125 -0.7411 -0.0404 -0.2892
 1518TIP3    H2 4498   4.819   5.761   0.059  0.1699  0.1714  1.1699
 1519TIP3   OH2 4499   3.128   6.766   0.944  0.0844 -0.0320 -0.3355
 1519TIP3    H1 4500   3.146   6.738   0.855 -0.1569  1.2353 -0.7924
 1519TIP3    H2 4501   3.191   6.718   0.998  0.6820 -0.2835 -1.2576
 1520TIP3   OH2 4502   3.498   5.687   1.810  0.1496 -0.5340  0.0476
 1520TIP3    H1 4503   3.490   5.711   1.718 -2.2896 -2.2182 -0.2417
 1520TIP3    H2 4504   3.445   5.751   1.857  0.6533 -0.2228  0.1998
 1521TIP3   OH2 4505   2.446   7.386   0.397 -0.3895 -0.0739 -0.4456
 1521TIP3    H1 4506   2.520   7.436   0.432 -0.1988 -0.1890 -0.6785
 1521TIP3    H2 4507   2.486   7.327   0.333 -0.6032 -0.5856 -0.1088
 1522TIP3   OH2 4508   2.439   5.467   0.196 -0.3753 -0.1719 -0.0026
 1522TIP3    H1 4509   2.398   5.447   0.280 -0.5343  0.1843  0.0067
 1522TIP3    H2 4510   2.407   5.399   0.136 -1.7339  0.6386 -0.2282
 1523TIP3   OH2 4511   1.482   1.782   6.619  0.6056 -0.3535 -0.0351
 1523TIP3    H1 4512   1.424   1.855   6.638 -1.2570 -1.7948  0.0355
 1523TIP3    H2 4513   1.486   1.779   6.523  0.5344 -0.2563 -0.0409
 1524TIP3   OH2 4514   6.974   2.803   6.284 -0.4911  0.1348  0.1499
 1524TIP3    H1 4515   6.993   2.851   6.203 -0.1089  0.4483  0.4247
 1524TIP3    H2 4516   6.881   2.779   6.276 -0.7024  0.9796  0.0394
 1525TIP3   OH2 4517   2.419   6.037   0.535  0.2969  0.0739  0.0650
 1525TIP3    H1 4518   2.400   5.965   0.475 -4.4808  0.2977  1.0280
 1525TIP3    H2 4519   2.402   6.000   0.622  1.1408  1.4225  0.8197
 1526TIP3   OH2 4520   3.153   3.172   2.757 -0.8363 -0.2748 -0.6396
 1526TIP3    H1 4521   3.150   3.267   2.750 -0.5848 -0.2394 -0.3075
 1526TIP3    H2 4522   3.133   3.155   2.849  0.6947 -0.4624 -0.3355
 1527TIP3   OH2 4523   3.179   5.103   1.233 -0.2044  0.1539 -0.2395
 1527TIP3    H1 4524   3.215   5.189   1.254 -2.5016  1.3747 -1.2175
 1527TIP3    H2 4525   3.184   5.055   1.316  0.8178  1.3223  0.3916
 1528TIP3   OH2 4526   1.042   3.233   0.504  0.2486  0.3019  0.1382
 1528TIP3    H1 4527   1.131   3.229   0.468 -0.6993 -1.0156 -2.2179
 1528TIP3    H2 4528   1.027   3.146   0.541  0.2077  0.7783  1.2727
 1529TIP3   OH2 4529   1.771   5.145   1.534 -0.3136 -0.3503 -0.0254
 1529TIP3    H1 4530   1.834   5.094   1.483 -1.2590 -1.5530 -0.0047
 1529TIP3    H2 4531   1.686   5.114   1.505 -0.8829  0.0807  1.1591
 1530TIP3   OH2 4532   2.868   4.415   3.671 -0.4296 -0.1101  0.7560
 1530TIP3    H1 4533   2.855   4.327   3.635  0.1643 -0.6155  1.7464
 1530TIP3    H2 4534   2.919   4.461   3.605 -0.0705 -0.7577  0.5754
 1531TIP3   OH2 4535   0.158   1.151   6.686 -0.0202  0.2436 -0.2976
 1531TIP3    H1 4536   0.251   1.163   6.705 -0.1277  1.4195 -0.4274
 1531TIP3    H2 4537   0.146   1.192   6.600 -0.3243 -1.4206 -1.0522
 1532TIP3   OH2 4538   4.144   5.684   2.221 -0.2578 -0.4225 -0.4236
 1532TIP3    H1 4539   4.101   5.631   2.288 -0.0217  0.1630  0.2038
 1532TIP3    H2 4540   4.235   5.657   2.224 -0.0066  0.5125  0.3825
 1533TIP3   OH2 4541   2.904   6.862   1.811 -0.4113 -0.2192  0.0650
 1533TIP3    H1 4542   2.981   6.908   1.846 -0.8221  1.5974 -1.3500
 1533TIP3    H2 4543   2.905   6.881   1.718 -1.3169 -2.1012 -0.3542
 1534TIP3   OH2 4544   0.210   3.605   0.572  0.0283  0.4661 -0.1148
 1534TIP3    H1 4545   0.268   3.563   0.636  0.0917  0.1686 -0.3652
 1534TIP3    H2 4546   0.267   3.628   0.499 -0.4947 -1.6101 -1.2162
 1535TIP3   OH2 4547   5.098   5.929   0.328 -0.1218  0.2647  1.0097
 1535TIP3    H1 4548   5.116   5.957   0.418  0.1600  1.3971  0.6134
 1535TIP3    H2 4549   5.017   5.974   0.304 -1.0901 -1.3213  1.2498
 1536TIP3   OH2 4550   4.175   4.568   0.686 -0.0897  0.4372 -0.1327
 1536TIP3    H1 4551   4.085   4.570   0.720  0.2011 -0.9809  0.7454
 1536TIP3    H2 4552   4.168   4.604   0.598 -1.8109 -1.2981 -0.7372
 1537TIP3   OH2 4553   7.282   3.198   5.108 -0.3440 -0.0475 -0.4877
 1537TIP3    H1 4554   7.286   3.109   5.141 -0.2489  0.5691  1.2252
 1537TIP3    H2 4555   7.298   3.253   5.185 -0.7178  1.4527 -1.4515
 1538TIP3   OH2 4556   3.975   4.367   1.589 -0.0644 -0.2809  0.3458
 1538TIP3    H1 4557   3.976   4.417   1.508  0.9233 -0.9790 -0.0881
 1538TIP3    H2 4558   3.900   4.401   1.638  0.1043  1.0419 -0.2954
 1539TIP3   OH2 4559   3.215   7.596   6.873  0.0127 -0.3104  0.2108
 1539TIP3    H1 4560   3.191   7.580   6.782  1.0769 -0.8636  0.0105
 1539TIP3    H2 4561   3.285   7.660   6.868  1.7872 -2.1760  0.4598
 1540TIP3   OH2 4562   6.265   1.830   1.408 -0.1665 -0.2995 -0.6439
 1540TIP3    H1 4563   6.204   1.902   1.395  1.1229  0.5427 -2.2063
 1540TIP3    H2 4564   6.350   1.873   1.417  0.4033 -1.5477  0.0481
 1541TIP3   OH2 4565   2.273   4.758   1.361  0.0957  0.3970  0.1977
 1541TIP3    H1 4566   2.182   4.731   1.357  0.6029 -1.1582 -1.8298
 1541TIP3    H2 4567   2.288   4.780   1.452 -2.1496  0.1039  0.6558
 1542TIP3   OH2 4568   6.245   0.593   1.544  0.0685  0.3083 -0.2966
 1542TIP3    H1 4569   6.333   0.606   1.507 -0.2481  0.0763 -1.1369
 1542TIP3    H2 4570   6.246   0.645   1.625  1.3229 -0.5077  0.2310
 1543TIP3   OH2 4571   5.103   6.981   2.609  0.0443 -0.0627 -0.2635
 1543TIP3    H1 4572   5.098   6.939   2.523 -0.5592  0.5493 -0.5271
 1543TIP3    H2 4573   5.193   7.013   2.615 -0.3609  1.2747 -1.3144
 1544TIP3   OH2 4574   2.907   4.401   1.984 -0.0955  0.1098  0.5796
 1544TIP3    H1 4575   2.871   4.316   1.957  2.2766 -0.6488 -0.2988
 1544TIP3    H2 4576   2.830   4.456   1.997 -1.6356 -1.8692  0.1449
 1545TIP3   OH2 4577   3.558   7.994   1.132  0.7987  0.3774  0.3236
 1545TIP3    H1 4578   3.606   7.926   1.179 -0.2630 -1.5701 -1.3056
 1545TIP3    H2 4579   3.598   7.996   1.045 -0.4788  0.3866 -0.2886
 1546TIP3   OH2 4580   5.004   5.188   0.766  0.8268  0.5148 -0.1880
 1546TIP3    H1 4581   4.989   5.263   0.708 -0.7182  1.4175  1.3428
 1546TIP3    H2 4582   4.943   5.121   0.736 -0.1898  1.0913  0.5725
 1547TIP3   OH2 4583   1.159   5.368   2.066 -0.2700 -0.7697  0.1158
 1547TIP3    H1 4584   1.077   5.351   2.021 -1.4075 -1.6316  2.4282
 1547TIP3    H2 4585   1.175   5.290   2.118 -0.7643  1.4120  3.7343
 1548TIP3   OH2 4586   0.399   0.290   6.881 -0.5305  0.8983  0.2115
 1548TIP3    H1 4587   0.334   0.350   6.844  1.0599  1.2208 -2.1870
 1548TIP3    H2 4588   0.463   0.278   6.811  2.0427  0.6392  2.5119
 1549TIP3   OH2 4589   8.312   1.283   6.643  0.3369  0.7294 -0.0957
 1549TIP3    H1 4590   8.394   1.306   6.688 -0.5113  2.9395  0.3805
 1549TIP3    H2 4591   8.250   1.350   6.671 -1.3306 -0.2665 -1.3528
 1550TIP3   OH2 4592   2.582   6.422   1.210  0.4712 -0.6138 -0.6988
 1550TIP3    H1 4593   2.639   6.427   1.133 -0.5875  0.9199 -1.4097
 1550TIP3    H2 4594   2.501   6.384   1.177 -0.0129  0.1217 -0.3495
 1551TIP3   OH2 4595   2.468   7.011   0.037  0.0231 -0.3983  0.8270
 1551TIP3    H1 4596   2.432   6.981   0.121  0.5440 -1.5687  0.6455
 1551TIP3    H2 4597   2.467   6.933  -0.018  0.4307  0.1813 -0.0055
 1552TIP3   OH2 4598   0.203   0.154   6.619  0.1093 -0.1821  0.0166
 1552TIP3    H1 4599   0.291   0.188   6.639  0.2962 -2.0335  2.5548
 1552TIP3    H2 4600   0.165   0.136   6.704 -2.6832  0.3309 -1.0796
 1553TIP3   OH2 4601   7.932   2.830   5.961  0.1343  0.1301  0.1783
 1553TIP3    H1 4602   7.956   2.889   6.033  2.3284 -0.5364  0.0375
 1553TIP3    H2 4603   7.981   2.863   5.886 -0.7365 -0.2642 -0.5720
 1554TIP3   OH2 4604   4.019   6.511   1.528  0.5475  0.2739 -0.0348
 1554TIP3    H1 4605   4.059   6.427   1.551 -1.0741 -0.6868 -0.6389
 1554TIP3    H2 4606   4.057   6.533   1.443  0.5752 -0.1231 -0.1280
 1555TIP3   OH2 4607   2.312   3.819   6.720  0.2191  0.3719  0.1447
 1555TIP3    H1 4608   2.393   3.785   6.759  0.3733  0.5856  0.0081
 1555TIP3    H2 4609   2.293   3.899   6.768  0.8091  1.0273 -0.7122
 1556TIP3   OH2 4610   1.665   4.984   0.559  0.4486  0.2573 -0.2987
 1556TIP3    H1 4611   1.743   4.947   0.601  0.5020  0.6709 -0.0204
 1556TIP3    H2 4612   1.675   4.964   0.466  1.4399  1.2597 -0.4245
 1557TIP3   OH2 4613   2.421   5.208   0.677 -0.1294  0.2595 -0.5615
 1557TIP3    H1 4614   2.332   5.224   0.708  0.4632  2.0646  0.2652
 1557TIP3    H2 4615   2.410   5.148   0.602 -1.8514 -1.1243  0.7523
 1558TIP3   OH2 4616   5.116   6.140   1.749  0.0784 -0.0406 -0.2737
 1558TIP3    H1 4617   5.082   6.205   1.810  1.5548 -0.4446  1.0310
 1558TIP3    H2 4618   5.056   6.142   1.674 -1.2279  1.1170  0.7936
 1559TIP3   OH2 4619   3.842   4.742   1.843 -0.0385  0.1159 -0.3261
 1559TIP3    H1 4620   3.869   4.710   1.929 -0.5742 -0.3417 -0.3226
 1559TIP3    H2 4621   3.923   4.751   1.794  0.4182  1.8233  0.7071
 1560TIP3   OH2 4622   4.388   6.069   0.504  0.2859 -0.4105 -0.1975
 1560TIP3    H1 4623   4.466   6.118   0.477  0.1205  0.3882  0.7171
 1560TIP3    H2 4624   4.360   6.112   0.585 -0.9039 -0.9120 -0.3310
 1561TIP3   OH2 4625   6.208   7.563   6.954  0.2082 -0.1083  0.6885
 1561TIP3    H1 4626   6.115   7.547   6.971  0.3605 -2.1918 -0.2704
 1561TIP3    H2 4627   6.209   7.631   6.887 -0.6208  0.2378  1.0198
 1562TIP3   OH2 4628   1.224   5.170   2.668 -0.5836 -0.0854  0.4546
 1562TIP3    H1 4629   1.277   5.095   2.693 -1.8572 -1.8483 -1.9036
 1562TIP3    H2 4630   1.283   5.226   2.618  0.2668  0.3340  1.8969
 1563TIP3   OH2 4631   4.446   6.225   2.460 -0.2747  0.3521 -0.4160
 1563TIP3    H1 4632   4.470   6.317   2.463 -0.3028  0.3048  1.6727
 1563TIP3    H2 4633   4.350   6.226   2.455 -0.2621  0.4376 -0.6455
 1564TIP3   OH2 4634   2.050   1.021   5.788  0.2828 -0.8064  0.0273
 1564TIP3    H1 4635   2.009   1.032   5.874  2.1091  2.1662  0.5876
 1564TIP3    H2 4636   2.133   0.977   5.806  0.7298 -0.0618 -0.1599
 1565TIP3   OH2 4637   7.165   0.888   6.291 -0.5291 -0.3415 -0.1090
 1565TIP3    H1 4638   7.256   0.913   6.279 -0.9002  1.0552 -0.1462
 1565TIP3    H2 4639   7.142   0.918   6.379 -0.8455 -1.0296  0.0508
 1566TIP3   OH2 4640   1.470   2.886   6.052 -0.2537 -0.2801  0.6667
 1566TIP3    H1 4641   1.520   2.883   6.134  1.1453  0.3643 -0.1551
 1566TIP3    H2 4642   1.461   2.979   6.032  0.7365 -0.4677 -0.7131
 1567TIP3   OH2 4643   1.922   3.604   6.732 -0.1874  0.2427  0.4733
 1567TIP3    H1 4644   1.884   3.680   6.689  0.4628  0.9711  1.1828
 1567TIP3    H2 4645   2.001   3.584   6.682 -0.7495 -0.4244 -0.1609
 1568TIP3   OH2 4646   4.223   5.735   1.446 -0.2796 -0.5732  0.3484
 1568TIP3    H1 4647   4.169   5.677   1.392 -1.1711 -0.9506  1.6232
 1568TIP3    H2 4648   4.161   5.795   1.487  0.1099 -1.7024  2.6784
 1569TIP3   OH2 4649   5.237   4.621   0.464 -0.1091 -0.0548 -0.2364
 1569TIP3    H1 4650   5.328   4.592   0.466 -0.0307  0.2171  0.3933
 1569TIP3    H2 4651   5.206   4.598   0.377  0.0620 -1.6745  0.1216
 1570TIP3   OH2 4652   2.523   6.592   0.112 -0.1818  0.5219 -0.2736
 1570TIP3    H1 4653   2.509   6.518   0.172  2.1353  1.9011  2.1009
 1570TIP3    H2 4654   2.596   6.564   0.057  0.4171  0.8502  0.3436
 1571TIP3   OH2 4655   6.495   6.246   6.847 -0.4777 -0.4425  0.3011
 1571TIP3    H1 4656   6.407   6.257   6.810 -0.8884  0.9557  1.6213
 1571TIP3    H2 4657   6.549   6.308   6.798 -0.0437 -1.8323 -1.0210
 1572TIP3   OH2 4658   1.301   6.985   0.538  0.1261  0.7799 -0.1137
 1572TIP3    H1 4659   1.279   6.912   0.481  0.3793  0.6192 -0.0073
 1572TIP3    H2 4660   1.358   7.040   0.485  0.1216  0.7829 -0.1160
 1573TIP3   OH2 4661   1.677   3.103   6.580  0.1022  0.0167 -0.6503
 1573TIP3    H1 4662   1.724   3.032   6.537 -1.0265 -0.4985 -1.0590
 1573TIP3    H2 4663   1.584   3.082   6.567 -0.2571  0.3750  1.2023
 1574TIP3   OH2 4664   4.916   5.532   0.858  0.5378  0.2838  0.2369
 1574TIP3    H1 4665   4.859   5.606   0.838  0.0115 -0.0699  0.4312
 1574TIP3    H2 4666   4.937   5.493   0.774 -0.4447 -0.2850  0.2478
 1575TIP3   OH2 4667   4.645   7.539   0.059 -0.3374  0.1171  0.0334
 1575TIP3    H1 4668   4.550   7.535   0.060 -0.4339  1.8989 -0.0159
 1575TIP3    H2 4669   4.667   7.570  -0.029  0.2701  0.2003  0.2093
 1576TIP3   OH2 4670   1.672   5.397  -0.034  0.2925  0.3593 -0.3638
 1576TIP3    H1 4671   1.714   5.453   0.031 -0.7895  1.9712 -1.0119
 1576TIP3    H2 4672   1.624   5.332   0.017 -0.4807  1.5595  0.4684
 1577TIP3   OH2 4673   3.159   4.615   2.374 -0.6326 -0.1030 -0.2712
 1577TIP3    H1 4674   3.104   4.537   2.366 -0.7195 -0.1614  0.8008
 1577TIP3    H2 4675   3.208   4.601   2.455  1.1553 -0.1669 -1.3355
 1578TIP3   OH2 4676   1.926   3.325   0.738  0.6679 -0.1992  0.4425
 1578TIP3    H1 4677   1.842   3.281   0.726  0.4446  0.1055  0.8820
 1578TIP3    H2 4678   1.931   3.343   0.832  0.1702  1.8674  0.0973
 1579TIP3   OH2 4679   1.297   4.402   2.479 -0.3564  0.5077  0.0669
 1579TIP3    H1 4680   1.300   4.385   2.385  1.5163  2.3133 -0.2168
 1579TIP3    H2 4681   1.363   4.469   2.494 -1.6158  1.2757  2.4661
 1580TIP3   OH2 4682   0.497   1.633   6.882  0.6933 -0.3031  0.0374
 1580TIP3    H1 4683   0.413   1.599   6.851  0.6688 -1.6971  1.5865
 1580TIP3    H2 4684   0.484   1.728   6.885 -0.7447 -0.4849 -0.0043
 1581TIP3   OH2 4685   4.861   5.296   1.025  0.9440 -0.5518  0.3438
 1581TIP3    H1 4686   4.819   5.378   0.999 -2.4344 -2.8669 -1.9404
 1581TIP3    H2 4687   4.816   5.271   1.106 -0.1019 -1.5560 -0.5250
 1582TIP3   OH2 4688   1.958   4.758   1.460 -0.2912 -0.4550 -0.7981
 1582TIP3    H1 4689   1.966   4.666   1.487  1.6410 -0.2512 -0.5928
 1582TIP3    H2 4690   1.904   4.798   1.527 -0.6304 -1.3133 -0.5509
 1583TIP3   OH2 4691   2.645   5.976   1.183 -0.5933  0.2106  0.3384
 1583TIP3    H1 4692   2.698   5.946   1.258  0.7658 -1.3056 -1.1880
 1583TIP3    H2 4693   2.699   6.044   1.142 -1.5321  1.3517  0.9608
 1584TIP3   OH2 4694   5.149   8.041   6.836  0.5085  0.0573  0.4149
 1584TIP3    H1 4695   5.068   8.002   6.802 -0.8737  2.3726  0.9161
 1584TIP3    H2 4696   5.219   7.997   6.788 -1.0141 -2.3116  0.2825
 1585TIP3   OH2 4697   3.137   7.415   0.244 -0.1912  0.6774 -0.1568
 1585TIP3    H1 4698   3.179   7.349   0.299  0.8919  1.1109 -0.4597
 1585TIP3    H2 4699   3.174   7.401   0.157 -0.5755  1.1438 -0.4000
 1586TIP3   OH2 4700   3.363   6.204   0.596 -0.1053 -0.4165 -0.0826
 1586TIP3    H1 4701   3.445   6.167   0.564  1.3552 -0.0306  3.0495
 1586TIP3    H2 4702   3.296   6.142   0.566  1.3999 -1.2130 -1.8950
 1587TIP3   OH2 4703   3.740   7.207   2.228  0.0891 -0.1937 -0.5228
 1587TIP3    H1 4704   3.812   7.236   2.172 -1.1512 -0.8401 -2.5290
 1587TIP3    H2 4705   3.668   7.267   2.208 -0.0929  0.1264  1.0693
 1588TIP3   OH2 4706   0.589   1.825   6.060 -0.1786 -0.0573  0.4922
 1588TIP3    H1 4707   0.585   1.826   6.156  1.2052  0.0236  0.5680
 1588TIP3    H2 4708   0.556   1.739   6.036 -1.8206  0.4194  0.9569
 1589TIP3   OH2 4709   2.210   6.263   1.736  0.3027  0.4646  0.0035
 1589TIP3    H1 4710   2.248   6.350   1.736  1.6399 -0.1046  0.4590
 1589TIP3    H2 4711   2.117   6.277   1.756  0.8147  1.6551  1.6378
 1590TIP3   OH2 4712   8.195   1.913   6.941 -0.3911  0.2873  0.1235
 1590TIP3    H1 4713   8.198   1.889   6.849 -0.6036  0.7891 -0.0133
 1590TIP3    H2 4714   8.210   1.830   6.988 -0.1281  0.0630 -0.3585
 1591TIP3   OH2 4715   8.195   1.974   5.018 -0.0904  0.4815 -0.0825
 1591TIP3    H1 4716   8.233   1.935   4.939 -0.3414 -0.5585  0.3008
 1591TIP3    H2 4717   8.268   1.979   5.080 -0.1168  0.3995 -0.0448
 1592TIP3   OH2 4718   2.847   8.015   0.689 -0.2068  0.6053  0.0622
 1592TIP3    H1 4719   2.875   8.085   0.630  0.3214 -0.3285 -0.8135
 1592TIP3    H2 4720   2.839   7.938   0.633 -2.0029  0.2439  0.7921
 1593TIP3   OH2 4721   1.367   2.451   6.377  1.1513 -0.1517  0.4775
 1593TIP3    H1 4722   1.399   2.424   6.291  1.7263 -2.0689  1.2626
 1593TIP3    H2 4723   1.436   2.424   6.437  0.5831  0.8399  1.5913
 1594TIP3   OH2 4724   3.430   5.248   1.990  0.0616  0.1837 -0.3552
 1594TIP3    H1 4725   3.341   5.214   1.990  0.1699 -0.1528  1.0733
 1594TIP3    H2 4726   3.422   5.336   1.954 -0.6882 -0.2192 -1.1812
 1595TIP3   OH2 4727   0.586   1.146   5.947  0.0072  0.2767 -0.4219
 1595TIP3    H1 4728   0.603   1.213   5.881 -0.9032  0.1677 -0.7889
 1595TIP3    H2 4729   0.656   1.082   5.935 -1.1850 -0.6976 -2.5915
 1596TIP3   OH2 4730   8.230   3.082   6.279  0.3859 -0.0616  0.2528
 1596TIP3    H1 4731   8.255   3.101   6.370 -0.9302 -0.0623  0.6126
 1596TIP3    H2 4732   8.295   3.018   6.250  1.1256  0.3273  1.0257
 1597TIP3   OH2 4733   2.649   3.484   0.455  0.1234  0.2270 -0.1655
 1597TIP3    H1 4734   2.603   3.461   0.536 -0.5908  3.5180  0.4487
 1597TIP3    H2 4735   2.587   3.466   0.385 -0.1375 -0.3504  0.2139
 1598TIP3   OH2 4736   3.531   4.011   2.649 -0.3453 -0.7522 -0.2179
 1598TIP3    H1 4737   3.570   4.062   2.720 -0.6409  0.7459 -1.1127
 1598TIP3    H2 4738   3.591   4.022   2.575 -0.1005 -2.2029 -0.2569
 1599TIP3   OH2 4739   6.280   0.085   1.845 -0.0248 -0.1168  0.6910
 1599TIP3    H1 4740   6.345   0.074   1.775 -0.1049  0.5181  0.5094
 1599TIP3    H2 4741   6.331   0.080   1.926  0.4819  1.8124  0.5147
 1600TIP3   OH2 4742   3.536   5.158   0.701 -0.1996  0.1323  0.0689
 1600TIP3    H1 4743   3.490   5.230   0.744  1.8303  1.2039  0.5281
 1600TIP3    H2 4744   3.520   5.083   0.757  2.8448  1.6222  3.1249
 1601TIP3   OH2 4745   8.145   5.392   0.632 -0.0233  0.3329 -0.1981
 1601TIP3    H1 4746   8.091   5.363   0.558  0.9840  1.8714 -1.5905
 1601TIP3    H2 4747   8.108   5.348   0.708 -2.8081  0.8340 -1.2118
 1602TIP3   OH2 4748   1.951   6.539   0.777  0.1384 -0.1619  0.7316
 1602TIP3    H1 4749   1.976   6.550   0.869 -1.0265 -0.5745  1.1092
 1602TIP3    H2 4750   1.860   6.569   0.773  0.5198  0.8610 -0.5103
 1603TIP3   OH2 4751   3.119   3.977   0.689  0.4112  0.9079  0.2033
 1603TIP3    H1 4752   3.153   3.891   0.665 -0.6842  0.2647  0.9046
 1603TIP3    H2 4753   3.027   3.961   0.712 -0.1242  2.4457 -0.7510
 1604TIP3   OH2 4754   2.650   4.880   0.863  0.1214  0.1659 -0.0763
 1604TIP3    H1 4755   2.556   4.867   0.875  0.2959  0.7783  2.2656
 1604TIP3    H2 4756   2.690   4.831   0.935  1.4689  1.7906  0.2992
 1605TIP3   OH2 4757   3.654   4.714   1.158 -0.0506 -0.2413 -0.9113
 1605TIP3    H1 4758   3.651   4.632   1.207 -0.9729 -1.2017 -2.5079
 1605TIP3    H2 4759   3.566   4.750   1.166  0.0163 -0.0084 -1.2124
 1606TIP3   OH2 4760   0.835   4.663   0.017 -0.0472 -0.7249 -0.2387
 1606TIP3    H1 4761   0.752   4.705  -0.006 -0.8630 -2.0343  0.2637
 1606TIP3    H2 4762   0.863   4.709   0.097 -0.8985 -1.0818  0.2748
 1607TIP3   OH2 4763   2.733   2.900   1.007  0.7364  0.4570  0.5421
 1607TIP3    H1 4764   2.640   2.911   1.029  0.3929  1.6139 -1.4037
 1607TIP3    H2 4765   2.777   2.895   1.092 -1.2523 -1.6328  1.5102
 1608TIP3   OH2 4766   1.078   2.764   1.725  0.2207 -0.4150 -0.0694
 1608TIP3    H1 4767   1.117   2.850   1.736 -1.1992  0.1326  0.8620
 1608TIP3    H2 4768   1.115   2.712   1.796  1.5945 -0.7936 -1.0295
 1609TIP3   OH2 4769   4.125   4.434   1.339 -0.4185 -0.4503 -0.3538
 1609TIP3    H1 4770   4.104   4.441   1.246 -0.4778 -0.0451 -0.3098
 1609TIP3    H2 4771   4.169   4.350   1.347 -2.4290 -1.5307 -0.3577
 1610TIP3   OH2 4772   3.347   3.347   6.057 -0.2912  0.1782 -0.3308
 1610TIP3    H1 4773   3.388   3.291   6.123 -1.5455 -0.2241  0.1288
 1610TIP3    H2 4774   3.284   3.290   6.013 -1.3357  1.1117 -0.0945
 1611TIP3   OH2 4775   1.941   0.282   5.898 -0.3445 -0.0963 -0.1704
 1611TIP3    H1 4776   1.870   0.273   5.835 -0.2528 -0.1374 -0.2674
 1611TIP3    H2 4777   2.014   0.232   5.860 -0.9388 -1.8496  0.9707
 1612TIP3   OH2 4778   5.750   4.411   0.080  0.7746  0.2445  0.5851
 1612TIP3    H1 4779   5.835   4.412   0.035 -0.0618 -0.0007 -1.0593
 1612TIP3    H2 4780   5.700   4.482   0.038  0.0672  0.1964  1.3311
 1613TIP3   OH2 4781   0.343   2.221   5.150  0.4651 -0.1393 -0.2795
 1613TIP3    H1 4782   0.329   2.310   5.120 -0.0766  0.6219  2.1217
 1613TIP3    H2 4783   0.256   2.182   5.152  0.6187 -0.5067 -0.6557
 1614TIP3   OH2 4784   3.270   6.382   0.975 -0.5456 -0.9401  0.5641
 1614TIP3    H1 4785   3.289   6.391   1.069 -0.2970 -2.7412  0.7016
 1614TIP3    H2 4786   3.187   6.335   0.972  0.0086 -1.8962 -0.1203
 1615TIP3   OH2 4787   2.615   3.217   4.468 -0.0283 -0.1077  0.2927
 1615TIP3    H1 4788   2.548   3.219   4.537 -0.5675 -3.0706 -0.0870
 1615TIP3    H2 4789   2.697   3.232   4.515 -0.6397  0.3979  1.2179
 1616TIP3   OH2 4790   4.507   4.986   0.328  0.3191 -0.0149  0.0218
 1616TIP3    H1 4791   4.570   4.915   0.326  1.0226  0.6055 -0.2406
 1616TIP3    H2 4792   4.462   4.977   0.412  2.2935  0.8407  1.2047
 1617TIP3   OH2 4793   4.902   6.247   0.496  0.4293  0.3294  0.1987
 1617TIP3    H1 4794   4.890   6.291   0.580 -0.8649  2.3076 -0.9851
 1617TIP3    H2 4795   4.971   6.298   0.452 -0.6969  0.8683 -0.9654
 1618TIP3   OH2 4796   3.340   4.704   0.674 -0.3918  0.0518  0.5349
 1618TIP3    H1 4797   3.345   4.741   0.586  2.0818 -0.2080  0.5232
 1618TIP3    H2 4798   3.251   4.670   0.681 -0.6640  0.1899 -1.8243
 1619TIP3   OH2 4799   0.250   3.052   5.957 -0.6853  0.2387 -0.4739
 1619TIP3    H1 4800   0.205   3.045   5.873 -0.2077 -0.5355 -0.6665
 1619TIP3    H2 4801   0.180   3.066   6.021 -1.1044  0.1291 -0.9082
 1620TIP3   OH2 4802   5.735   5.379   1.392  0.2201  0.0405 -0.2206
 1620TIP3    H1 4803   5.794   5.413   1.460 -1.9746  1.9299  0.8162
 1620TIP3    H2 4804   5.749   5.436   1.317 -1.5599  1.6818  0.6456
 1621TIP3   OH2 4805   3.010   2.130   4.893 -0.3140  0.6408  0.2998
 1621TIP3    H1 4806   2.953   2.191   4.847 -0.2078 -0.1922 -0.9481
 1621TIP3    H2 4807   2.974   2.044   4.873 -0.6480  0.2817  2.2866
 1622TIP3   OH2 4808   4.610   6.570   0.940 -0.6248 -0.0434 -0.1947
 1622TIP3    H1 4809   4.656   6.628   0.879 -1.0109  1.9172  1.3489
 1622TIP3    H2 4810   4.530   6.546   0.894  0.9163 -1.8238 -2.0638
 1623TIP3   OH2 4811   4.469   5.156   1.144  0.0344  0.2128 -0.4694
 1623TIP3    H1 4812   4.441   5.136   1.055  0.9370 -1.5268 -0.3804
 1623TIP3    H2 4813   4.387   5.167   1.193 -0.4838  2.2927 -1.7010
 1624TIP3   OH2 4814   2.807   2.255   4.479  0.1606 -0.1126  0.2749
 1624TIP3    H1 4815   2.782   2.320   4.413  0.9566  0.1442  0.2154
 1624TIP3    H2 4816   2.824   2.176   4.429 -0.0459 -0.1509  0.2634
 1625TIP3   OH2 4817   3.210   7.569   0.500 -0.2295  0.1464  0.2335
 1625TIP3    H1 4818   3.169   7.559   0.586 -0.4231  1.2351  0.2827
 1625TIP3    H2 4819   3.165   7.506   0.444  1.0573 -1.7674  1.3231
 1626TIP3   OH2 4820   2.889   1.575   5.945 -0.1412 -0.5034  0.2748
 1626TIP3    H1 4821   2.866   1.495   5.991  0.4469 -0.2616  1.0000
 1626TIP3    H2 4822   2.924   1.546   5.860 -0.3098 -0.9905  0.3744
 1627TIP3   OH2 4823   1.109   0.105   6.400 -0.2360 -0.2303  0.5581
 1627TIP3    H1 4824   1.162   0.110   6.321  1.2575 -0.6523  1.5229
 1627TIP3    H2 4825   1.093   0.011   6.412 -0.6351 -0.1513  0.6471
 1628TIP3   OH2 4826   4.721   6.341   0.040 -0.2087  0.9856  0.5898
 1628TIP3    H1 4827   4.750   6.252   0.021 -0.3454  1.2292 -0.8531
 1628TIP3    H2 4828   4.778   6.396  -0.014 -0.1378  1.7652  1.4568
 1629TIP3   OH2 4829   4.033   5.565   1.335 -0.7740 -0.7514  0.2618
 1629TIP3    H1 4830   4.013   5.487   1.387  0.0857 -1.5158 -0.5451
 1629TIP3    H2 4831   3.948   5.608   1.322 -1.0195 -0.6488  2.1319
 1630TIP3   OH2 4832   6.445   0.288   0.783 -0.3181 -0.3821 -1.1393
 1630TIP3    H1 4833   6.381   0.218   0.769  0.6293 -1.3135 -0.9245
 1630TIP3    H2 4834   6.458   0.327   0.697 -1.1760 -0.1751 -1.1817
 1631TIP3   OH2 4835   2.830   3.087   6.466  0.1142  0.4028 -0.1266
 1631TIP3    H1 4836   2.755   3.050   6.420 -0.0482  1.0145 -0.3632
 1631TIP3    H2 4837   2.861   3.016   6.523 -1.2704  0.4656  0.7231
 1632TIP3   OH2 4838   4.693   6.262   1.666  0.3417  0.3695 -0.0796
 1632TIP3    H1 4839   4.730   6.336   1.714 -1.0195  0.1191  1.4255
 1632TIP3    H2 4840   4.602   6.287   1.649 -0.1719 -1.0005  0.5639
 1633TIP3   OH2 4841   3.480   5.218   0.287  0.0431  0.1028  0.4717
 1633TIP3    H1 4842   3.421   5.275   0.237  0.4452  0.4242  0.3647
 1633TIP3    H2 4843   3.426   5.142   0.310 -0.6737  0.8280  1.1751
 1634TIP3   OH2 4844   5.520   6.085   0.245  0.4479  0.0213 -0.3688
 1634TIP3    H1 4845   5.559   5.999   0.260  0.3774  0.0573  0.0266
 1634TIP3    H2 4846   5.591   6.147   0.265 -0.1043  0.1207  1.3536
 1635TIP3   OH2 4847   8.127   0.151   2.048 -0.6825  0.4011 -0.1347
 1635TIP3    H1 4848   8.175   0.074   2.017 -0.8777 -0.2546  1.1705
 1635TIP3    H2 4849   8.186   0.225   2.030 -0.7208  0.0209 -1.8912
 1636TIP3   OH2 4850   3.834   2.764   6.831 -0.2268 -0.0729  0.6386
 1636TIP3    H1 4851   3.767   2.697   6.817 -0.2246  0.2416 -0.9521
 1636TIP3    H2 4852   3.860   2.790   6.743 -0.5114  2.3141  1.2349
 1637TIP3   OH2 4853   5.405   5.122   1.447 -0.5442  0.2220 -0.4472
 1637TIP3    H1 4854   5.364   5.166   1.372  1.4613 -0.4496 -1.9760
 1637TIP3    H2 4855   5.498   5.123   1.428  0.1276  1.1637  2.6961
 1638TIP3   OH2 4856   2.784   2.209   5.192 -0.1267 -0.6375  0.7446
 1638TIP3    H1 4857   2.735   2.227   5.112  0.3830 -2.1181  0.0691
 1638TIP3    H2 4858   2.717   2.207   5.261 -0.6196  0.2699  0.3041
 1639TIP3   OH2 4859   0.321   0.002   5.798 -0.0460 -0.1759 -0.5402
 1639TIP3    H1 4860   0.240   0.039   5.835 -0.1334  0.0225 -0.9180
 1639TIP3    H2 4861   0.295  -0.027   5.710 -0.1753 -1.8995  0.0505
 1640TIP3   OH2 4862   1.006   2.202   6.705 -0.2617 -0.0486  0.3290
 1640TIP3    H1 4863   1.030   2.131   6.645  0.5286 -1.1497  1.8863
 1640TIP3    H2 4864   1.090   2.230   6.742 -0.5265  2.0400 -0.6300
 1641TIP3   OH2 4865   1.166   4.248   5.380 -0.0699 -0.9549 -0.0200
 1641TIP3    H1 4866   1.137   4.257   5.289 -1.8776 -0.7192  0.5603
 1641TIP3    H2 4867   1.091   4.209   5.425  0.5239 -0.3400  1.5267
 1642TIP3   OH2 4868   3.423   7.106   1.221  0.4094  0.6811  0.0645
 1642TIP3    H1 4869   3.361   7.036   1.238 -2.0022  2.5014 -0.9554
 1642TIP3    H2 4870   3.474   7.076   1.146  0.5174 -0.6595  0.6671
 1643TIP3   OH2 4871   4.312   5.802   1.840 -0.6648  0.3698  0.4026
 1643TIP3    H1 4872   4.361   5.755   1.907 -1.5037 -2.5298 -0.9377
 1643TIP3    H2 4873   4.221   5.802   1.872 -0.7864  0.4650  0.0619
 1644TIP3   OH2 4874   3.897   6.246   1.997 -0.1839 -0.3527 -0.3411
 1644TIP3    H1 4875   3.938   6.178   2.051 -0.5099 -0.4966 -0.2756
 1644TIP3    H2 4876   3.970   6.285   1.949  0.3730  0.8906  1.4129
 1645TIP3   OH2 4877   5.121   5.125   1.064 -0.1365 -0.3357 -0.3476
 1645TIP3    H1 4878   5.212   5.148   1.048 -0.2172  1.5925  1.7203
 1645TIP3    H2 4879   5.125   5.047   1.119  0.2421 -0.8953 -1.1623
 1646TIP3   OH2 4880   5.301   6.256   0.205 -0.3193 -0.3211  0.3069
 1646TIP3    H1 4881   5.347   6.175   0.185 -1.7819 -1.0973 -0.0480
 1646TIP3    H2 4882   5.312   6.310   0.126 -0.7736 -0.8750 -0.1455
 1647TIP3   OH2 4883   5.076   4.875   3.075  0.2664 -0.1030 -0.3278
 1647TIP3    H1 4884   5.101   4.810   3.140 -0.6046  0.3063  0.4390
 1647TIP3    H2 4885   5.060   4.825   2.995 -2.0333 -1.0910  0.6888
 1648TIP3   OH2 4886   3.669   6.746   1.064  0.1780 -0.8851 -0.2866
 1648TIP3    H1 4887   3.748   6.746   1.118  0.4896 -0.4070 -0.7348
 1648TIP3    H2 4888   3.656   6.654   1.041  0.9119 -0.9028 -0.6502
 1649TIP3   OH2 4889   3.357   2.448   5.273  0.1501  0.2289 -0.0156
 1649TIP3    H1 4890   3.425   2.468   5.338  0.0172  1.4527 -0.2367
 1649TIP3    H2 4891   3.359   2.353   5.265  0.5984  0.1106  1.3149
 1650TIP3   OH2 4892   6.038   5.193   1.377  0.0448 -0.1514 -0.0438
 1650TIP3    H1 4893   6.076   5.276   1.406 -1.6691  0.2111  1.2248
 1650TIP3    H2 4894   6.012   5.149   1.458 -2.7310 -0.1452 -0.8842
 1651TIP3   OH2 4895   2.446   1.627   6.527  0.0250 -0.1236 -0.3738
 1651TIP3    H1 4896   2.434   1.691   6.598 -0.8227 -1.1766  0.4552
 1651TIP3    H2 4897   2.462   1.680   6.449  1.4800  1.0641  0.6864
 1652TIP3   OH2 4898   1.188   1.927   6.767  0.0096  0.3283 -0.0435
 1652TIP3    H1 4899   1.193   2.017   6.736 -1.4509  0.7519  0.8893
 1652TIP3    H2 4900   1.119   1.887   6.713 -1.7982  0.7693  1.8603
 1653TIP3   OH2 4901   5.035   5.410   0.613  0.5099 -0.2143  0.0424
 1653TIP3    H1 4902   5.117   5.384   0.570  0.8747  0.2109  0.4691
 1653TIP3    H2 4903   5.008   5.489   0.567  1.1609  0.5175  0.9111
 1654TIP3   OH2 4904   1.315   0.692   6.963  0.4410  0.3617  0.4114
 1654TIP3    H1 4905   1.249   0.624   6.975  1.7853 -1.1354 -0.2978
 1654TIP3    H2 4906   1.307   0.717   6.871 -0.2073  1.3481  0.7305
 1655TIP3   OH2 4907   5.544   6.687   1.297  0.0167 -0.5483  0.2050
 1655TIP3    H1 4908   5.535   6.763   1.355 -1.0977  0.0576 -0.7415
 1655TIP3    H2 4909   5.619   6.639   1.333 -1.5296 -0.9804  3.0175
 1656TIP3   OH2 4910   2.703   5.702   1.708 -0.4163  0.3799  0.4206
 1656TIP3    H1 4911   2.631   5.764   1.693 -0.8059 -0.6169 -2.0050
 1656TIP3    H2 4912   2.672   5.620   1.670  0.6434 -0.9871  2.4109
 1657TIP3   OH2 4913   3.392   5.733   2.423 -0.8992 -0.3195  0.1403
 1657TIP3    H1 4914   3.458   5.734   2.492 -1.5571 -0.9380  0.7891
 1657TIP3    H2 4915   3.335   5.808   2.442 -0.9252 -0.3354  0.1267
 1658TIP3   OH2 4916   5.312   6.393   1.125 -0.7896  0.1537 -0.0432
 1658TIP3    H1 4917   5.290   6.469   1.178  1.3802  1.1993 -0.5856
 1658TIP3    H2 4918   5.311   6.426   1.035  0.1686 -0.4657 -0.2803
 1659TIP3   OH2 4919   0.997   2.679   6.318 -0.0693  0.0073 -0.3638
 1659TIP3    H1 4920   0.964   2.739   6.250  0.2362  0.8684  0.2423
 1659TIP3    H2 4921   0.998   2.594   6.275  0.7865  0.6582 -1.6760
 1660TIP3   OH2 4922   2.656   6.502   0.587 -0.4618  0.3373 -0.2636
 1660TIP3    H1 4923   2.600   6.432   0.620 -0.3740 -0.4121 -1.6717
 1660TIP3    H2 4924   2.661   6.565   0.659 -1.6284 -0.4618  0.5234
 1661TIP3   OH2 4925   6.507   6.846   0.663 -0.2882 -0.3534 -0.0326
 1661TIP3    H1 4926   6.458   6.928   0.651 -0.5264 -0.6148 -0.9165
 1661TIP3    H2 4927   6.440   6.778   0.665 -0.1453 -0.4628  1.4895
 1662TIP3   OH2 4928   0.923   1.709   6.348 -0.1134  0.3265 -0.2759
 1662TIP3    H1 4929   1.001   1.718   6.293  0.2024  0.3587  0.1773
 1662TIP3    H2 4930   0.873   1.789   6.331 -0.7462 -0.3619 -1.6629
 1663TIP3   OH2 4931   2.881   0.620   5.322 -0.0018 -0.2940 -0.0888
 1663TIP3    H1 4932   2.848   0.544   5.274 -0.1007 -0.7194  0.6385
 1663TIP3    H2 4933   2.843   0.611   5.410 -0.0607  0.6311 -0.0170
 1664TIP3   OH2 4934   5.513   7.798   1.329 -0.8432  0.3154 -0.3803
 1664TIP3    H1 4935   5.583   7.825   1.388 -0.6158  2.8694 -1.7770
 1664TIP3    H2 4936   5.449   7.756   1.386  0.6682  0.2045  1.2708
 1665TIP3   OH2 4937   3.527   7.247   0.449  0.3593 -0.4560 -0.2365
 1665TIP3    H1 4938   3.538   7.185   0.520 -2.2031 -0.2458  0.3939
 1665TIP3    H2 4939   3.433   7.266   0.448  1.1968  4.3768  0.4674
 1666TIP3   OH2 4940   4.542   5.118   2.735  0.0992  0.0059  0.4730
 1666TIP3    H1 4941   4.574   5.065   2.808 -0.2335  0.5453  1.0099
 1666TIP3    H2 4942   4.544   5.208   2.768  0.0574  0.2612 -0.2209
 1667TIP3   OH2 4943   4.193   4.210   4.877 -0.0500 -0.3826  0.0575
 1667TIP3    H1 4944   4.103   4.183   4.895 -1.0274  2.4575 -0.4446
 1667TIP3    H2 4945   4.235   4.214   4.964 -0.7005 -0.6014  0.3826
 1668TIP3   OH2 4946   4.637   4.192   0.700 -0.0746  0.2805  0.5626
 1668TIP3    H1 4947   4.566   4.243   0.661 -0.3042  1.3478  2.3184
 1668TIP3    H2 4948   4.613   4.184   0.792  2.5283  1.4326  1.3832
 1669TIP3   OH2 4949   4.780   4.205   1.474  0.2152 -0.2436 -0.1827
 1669TIP3    H1 4950   4.760   4.209   1.568 -0.4734 -0.2386 -0.3245
 1669TIP3    H2 4951   4.875   4.206   1.470  0.2696  2.6547  0.4156
 1670TIP3   OH2 4952   0.868   0.738   6.685  0.4159 -0.0287  0.5472
 1670TIP3    H1 4953   0.930   0.810   6.697 -0.6788  1.1329 -0.6539
 1670TIP3    H2 4954   0.799   0.774   6.630  0.9969 -2.6775 -2.0651
 1671TIP3   OH2 4955   0.855   0.254   6.053 -0.0041 -0.7741  0.2645
 1671TIP3    H1 4956   0.799   0.260   6.131 -0.9365  3.7062 -0.6049
 1671TIP3    H2 4957   0.944   0.260   6.087 -0.4213  1.6510  1.0024
 1672TIP3   OH2 4958   8.005   7.253   1.568 -0.0019  0.3232 -0.0637
 1672TIP3    H1 4959   7.997   7.158   1.575 -1.1542  0.4036 -0.1246
 1672TIP3    H2 4960   8.047   7.268   1.483 -0.2446 -0.1099 -0.2585
 1673TIP3   OH2 4961   1.088   5.951   1.865  0.6581 -0.4727 -0.5056
 1673TIP3    H1 4962   1.065   6.035   1.905 -0.4987 -0.6798 -0.7029
 1673TIP3    H2 4963   1.069   5.962   1.772 -0.7528 -1.3460 -0.3485
 1674TIP3   OH2 4964   2.923   7.101   0.316  0.4742  0.2678  0.6398
 1674TIP3    H1 4965   2.917   7.035   0.246 -0.6622 -0.4594  1.4142
 1674TIP3    H2 4966   3.011   7.088   0.353  0.8572  0.2582 -0.2565
 1675TIP3   OH2 4967   0.445   5.595   1.005 -0.1273 -0.0490 -0.7270
 1675TIP3    H1 4968   0.537   5.585   1.030  0.2993 -0.2331 -2.3328
 1675TIP3    H2 4969   0.400   5.524   1.050  0.3475  0.6325  0.8602
 1676TIP3   OH2 4970   8.364   3.828   6.782  0.0342  0.1745 -0.5807
 1676TIP3    H1 4971   8.346   3.853   6.691  0.7410  0.1362 -0.7317
 1676TIP3    H2 4972   8.335   3.737   6.788 -1.1173  0.5297 -0.4406
 1677TIP3   OH2 4973   0.091   4.744   0.455 -0.2360  0.8961  0.0035
 1677TIP3    H1 4974   0.122   4.831   0.476 -0.6940  1.0244  0.1597
 1677TIP3    H2 4975   0.145   4.685   0.507  1.2859  0.9763 -1.4572
 1678TIP3   OH2 4976   1.189   6.364   1.634  0.0186  0.3403 -0.4153
 1678TIP3    H1 4977   1.126   6.400   1.572  1.7773  2.5823 -0.9595
 1678TIP3    H2 4978   1.211   6.438   1.691  2.2704 -0.3378 -0.3543
 1679TIP3   OH2 4979   2.319   7.403   0.639  0.2307  0.6436 -0.6352
 1679TIP3    H1 4980   2.365   7.480   0.672 -0.9411  1.0253  0.1393
 1679TIP3    H2 4981   2.349   7.393   0.549  0.4710  1.9368 -0.7022
 1680TIP3   OH2 4982   8.111   2.759   6.871  0.4042 -0.1391 -0.1483
 1680TIP3    H1 4983   8.098   2.680   6.923  0.0090 -0.5087 -0.8034
 1680TIP3    H2 4984   8.139   2.727   6.785 -0.1765  0.3990 -0.5466
 1681TIP3   OH2 4985   2.656   0.037   0.276 -0.2673  0.1231  0.5222
 1681TIP3    H1 4986   2.680  -0.055   0.265 -0.1518  0.0933  0.9827
 1681TIP3    H2 4987   2.678   0.079   0.193  1.3129  0.0741  0.8903
 1682TIP3   OH2 4988   2.378   6.366   2.972 -0.5202 -0.1858  0.5444
 1682TIP3    H1 4989   2.423   6.377   2.888 -1.9067 -0.1336 -0.1983
 1682TIP3    H2 4990   2.313   6.435   2.974 -2.1040 -1.6458  0.5866
 1683TIP3   OH2 4991   1.422   7.337   0.247  0.1420 -0.1581 -0.3013
 1683TIP3    H1 4992   1.340   7.300   0.279 -0.2728  1.2956  0.3312
 1683TIP3    H2 4993   1.399   7.424   0.216  0.8896 -0.8146 -2.8518
 1684TIP3   OH2 4994   4.243   7.905   0.656 -0.0593  0.4054 -1.0752
 1684TIP3    H1 4995   4.165   7.850   0.658 -1.3703  2.2464  1.1206
 1684TIP3    H2 4996   4.297   7.867   0.587 -1.8434 -2.3180 -1.0685
 1685TIP3   OH2 4997   7.428   1.775   4.070  0.3336 -0.5940  0.7528
 1685TIP3    H1 4998   7.384   1.860   4.075  1.0760 -0.2159  0.9274
 1685TIP3    H2 4999   7.492   1.784   3.999 -0.4319 -1.4077 -0.0564
 1686TIP3   OH2 5000   6.269   4.583   5.758 -0.5064 -0.0972 -0.7207
 1686TIP3    H1 5001   6.292   4.493   5.781  1.6748  1.1862  2.5238
 1686TIP3    H2 5002   6.187   4.600   5.804  0.4324  0.3285  0.8736
 1687TIP3   OH2 5003   3.015   5.484   1.204 -0.4974 -0.4752 -0.4751
 1687TIP3    H1 5004   3.008   5.556   1.141  0.4270 -1.3381 -1.6022
 1687TIP3    H2 5005   2.927   5.446   1.207 -0.8476  0.3355 -0.3091
 1688TIP3   OH2 5006   4.011   4.606   2.288 -0.3900 -0.2605  0.1485
 1688TIP3    H1 5007   3.980   4.658   2.362 -0.0976  0.1034  0.0146
 1688TIP3    H2 5008   4.091   4.564   2.319 -0.9830 -1.1467  0.4714
 1689TIP3   OH2 5009   7.344   6.374   3.416 -0.0813 -0.2335  0.1985
 1689TIP3    H1 5010   7.271   6.424   3.379  0.6229  1.5936  1.2339
 1689TIP3    H2 5011   7.302   6.295   3.453 -1.1547 -0.5951 -1.7181
 1690TIP3   OH2 5012   0.918   6.839   3.001  0.2668 -0.1776  0.1799
 1690TIP3    H1 5013   0.828   6.864   3.023  0.2802  0.3938 -0.4033
 1690TIP3    H2 5014   0.962   6.922   2.984  0.5851 -0.5404 -0.7625
 1691TIP3   OH2 5015   3.958   7.244   0.210 -0.1025 -0.8099  0.8646
 1691TIP3    H1 5016   3.864   7.257   0.219 -0.2442 -0.3554 -1.0239
 1691TIP3    H2 5017   3.966   7.168   0.152  0.6492  0.7790 -1.1897
 1692TIP3   OH2 5018   2.131   1.614   6.530  0.2197  0.2063 -0.6469
 1692TIP3    H1 5019   2.180   1.667   6.467 -1.2962  0.7015 -1.4268
 1692TIP3    H2 5020   2.129   1.526   6.493  0.3153  0.2373 -0.7247
 1693TIP3   OH2 5021   3.163   3.927   1.810 -0.3438 -0.9625  0.0881
 1693TIP3    H1 5022   3.221   3.905   1.883 -1.6314 -0.3053  1.3418
 1693TIP3    H2 5023   3.212   3.992   1.759  1.3529 -2.8358 -0.7354
 1694TIP3   OH2 5024   3.035   6.783   0.456  0.5802 -0.1591  0.1812
 1694TIP3    H1 5025   3.025   6.724   0.381  0.3939  0.0367  0.0508
 1694TIP3    H2 5026   2.947   6.795   0.490  0.4587  0.8810 -0.4436
 1695TIP3   OH2 5027   2.926   6.818   0.152 -0.1699  0.4229  0.2738
 1695TIP3    H1 5028   2.922   6.795   0.059 -0.5307  0.9966  0.1395
 1695TIP3    H2 5029   2.935   6.735   0.197  0.8181  0.1904 -0.3233
 1696TIP3   OH2 5030   2.533   6.912   0.899  0.4749 -0.0356  0.3317
 1696TIP3    H1 5031   2.576   6.989   0.862  0.7698 -0.2875  0.1491
 1696TIP3    H2 5032   2.440   6.936   0.902  0.3539 -0.2632 -1.2221
 1697TIP3   OH2 5033   3.447   7.314   0.957  0.9571  0.0928 -0.3224
 1697TIP3    H1 5034   3.420   7.283   1.044  1.2918 -0.1389 -0.2990
 1697TIP3    H2 5035   3.365   7.336   0.912  0.7541 -0.3218 -0.1501
 1698TIP3   OH2 5036   2.012   5.703   2.137 -0.3914 -0.1308  0.7189
 1698TIP3    H1 5037   1.971   5.781   2.174  2.1987  0.9132  1.4957
 1698TIP3    H2 5038   1.985   5.703   2.045 -0.1191  1.8920  0.6153
 1699TIP3   OH2 5039   0.777   5.367   0.902  0.3483  0.3707 -0.8668
 1699TIP3    H1 5040   0.705   5.344   0.961  0.6749  2.1518  0.2216
 1699TIP3    H2 5041   0.794   5.286   0.853 -0.8377 -0.7169  0.4954
 1700TIP3   OH2 5042   0.980   6.069   1.084 -0.3311 -0.0302  0.1678
 1700TIP3    H1 5043   0.905   6.010   1.095 -1.4577  1.0578 -1.3180
 1700TIP3    H2 5044   0.976   6.095   0.992  0.0915  2.3598  0.7789
 1701TIP3   OH2 5045   2.034   6.270   0.779 -0.1292  0.2691  0.4082
 1701TIP3    H1 5046   1.986   6.352   0.792  2.7851  2.4617 -2.0642
 1701TIP3    H2 5047   1.990   6.228   0.705 -1.9157 -0.6906  1.9694
 1702TIP3   OH2 5048   2.969   3.241   5.993 -0.3639 -0.7346  0.1112
 1702TIP3    H1 5049   2.988   3.218   6.084  2.5022 -0.4619 -0.3830
 1702TIP3    H2 5050   3.035   3.195   5.942 -1.3220 -0.0863 -1.7793
 1703TIP3   OH2 5051   1.694   7.361   0.209 -0.3468  0.1868 -0.4248
 1703TIP3    H1 5052   1.739   7.304   0.271  1.3359  1.8874 -0.0374
 1703TIP3    H2 5053   1.603   7.361   0.237  0.3083  0.5243  1.7410
 1704TIP3   OH2 5054   8.142   1.483   6.728  0.1110 -0.1393  0.0396
 1704TIP3    H1 5055   8.186   1.519   6.805 -0.6428  0.1676  0.3312
 1704TIP3    H2 5056   8.151   1.551   6.661  1.2531 -0.6318 -0.3356
 1705TIP3   OH2 5057   7.051   1.134   1.646  0.1011 -0.5559  0.1230
 1705TIP3    H1 5058   7.013   1.057   1.603 -0.9833  0.5696 -1.0165
 1705TIP3    H2 5059   7.016   1.208   1.595  0.8424  0.6903  1.4108
 1706TIP3   OH2 5060   6.999   0.117   0.858 -0.3343  0.0455  0.0792
 1706TIP3    H1 5061   6.933   0.161   0.805 -1.5229  0.0836  1.5692
 1706TIP3    H2 5062   7.079   0.122   0.806 -0.8806  2.3343 -0.5894
 1707TIP3   OH2 5063   1.412   4.740   0.777  0.2898 -0.1814 -0.3232
 1707TIP3    H1 5064   1.491   4.717   0.729  0.7260  0.7702 -0.0834
 1707TIP3    H2 5065   1.346   4.678   0.747  1.0458 -0.7817 -0.7571
 1708TIP3   OH2 5066   8.127   2.840   5.296  0.5372 -0.0665  0.4810
 1708TIP3    H1 5067   8.202   2.802   5.251  0.4708  0.9474 -0.5236
 1708TIP3    H2 5068   8.053   2.824   5.238  0.2294  0.1682  0.8015
 1709TIP3   OH2 5069   0.397   3.549   5.653 -0.5579  0.0012  0.5027
 1709TIP3    H1 5070   0.373   3.512   5.568 -0.3199  0.9709  0.0100
 1709TIP3    H2 5071   0.446   3.479   5.696 -1.1824 -0.7041  0.0789
 1710TIP3   OH2 5072   0.727   4.397   6.557 -0.2218  0.4374 -0.3758
 1710TIP3    H1 5073   0.750   4.426   6.469  0.5751 -0.5280 -0.4943
 1710TIP3    H2 5074   0.674   4.469   6.593  1.9818  2.1927 -0.5207
 1711TIP3   OH2 5075   7.716   3.306   6.207  0.0462 -0.0126 -0.0342
 1711TIP3    H1 5076   7.709   3.211   6.215 -0.8917 -0.1772 -2.5172
 1711TIP3    H2 5077   7.791   3.320   6.148  1.4437  0.8833  1.8814
 1712TIP3   OH2 5078   3.150   6.930   1.931  0.3169 -0.4542 -0.1004
 1712TIP3    H1 5079   3.158   6.835   1.931 -1.4384 -0.6291  1.0210
 1712TIP3    H2 5080   3.238   6.962   1.912  0.8239 -2.3075 -0.9032
 1713TIP3   OH2 5081   3.856   7.482   1.433 -0.2462  0.2153  0.4984
 1713TIP3    H1 5082   3.779   7.512   1.385 -1.1468  0.5293  2.0857
 1713TIP3    H2 5083   3.896   7.417   1.376 -0.7250  1.2993 -1.0934
 1714TIP3   OH2 5084   8.048   4.182   6.503  0.7338 -0.0045  0.1638
 1714TIP3    H1 5085   8.134   4.204   6.538  1.3544 -0.5550 -0.9716
 1714TIP3    H2 5086   8.067   4.135   6.422 -0.6619  0.8201 -0.6525
 1715TIP3   OH2 5087   3.033   4.858   0.965 -0.1130 -0.3523  0.4882
 1715TIP3    H1 5088   3.117   4.813   0.968 -0.1201 -0.7106 -3.0324
 1715TIP3    H2 5089   3.050   4.937   0.913 -1.4728  0.7184  1.6165
 1716TIP3   OH2 5090   1.461   0.307   6.127 -0.6623 -0.1759 -0.0803
 1716TIP3    H1 5091   1.513   0.319   6.207 -0.1489  0.1245 -0.4535
 1716TIP3    H2 5092   1.492   0.224   6.091 -0.1192  0.2193 -0.5356
 1717TIP3   OH2 5093   1.019   4.405   4.511  0.2301 -0.8599 -0.1368
 1717TIP3    H1 5094   1.060   4.443   4.589 -1.5406 -0.8271  0.8064
 1717TIP3    H2 5095   0.934   4.448   4.505 -0.8708 -3.0031 -0.3797
 1718TIP3   OH2 5096   0.441   6.889   0.529  0.1455  0.1014  0.3206
 1718TIP3    H1 5097   0.371   6.860   0.588 -0.5644  1.4804  0.1597
 1718TIP3    H2 5098   0.396   6.922   0.452  0.9799  0.7966  0.1241
 1719TIP3   OH2 5099   1.602   5.434   6.328  0.4393 -0.0404 -0.3207
 1719TIP3    H1 5100   1.551   5.363   6.367 -1.1889 -0.0949 -2.4509
 1719TIP3    H2 5101   1.600   5.416   6.234  1.8898  1.6186 -0.6986
 1720TIP3   OH2 5102   0.587   1.713   6.617 -0.4047  0.1539  0.0578
 1720TIP3    H1 5103   0.555   1.651   6.551 -1.5403  1.4004 -0.5825
 1720TIP3    H2 5104   0.624   1.657   6.686 -0.8353 -1.2174 -0.7913
 1721TIP3   OH2 5105   3.284   7.848   0.357 -0.1222 -0.5939  0.0453
 1721TIP3    H1 5106   3.267   7.816   0.269 -0.3911  1.9789 -0.8861
 1721TIP3    H2 5107   3.240   7.786   0.415 -1.6883 -1.1530 -1.7372
 1722TIP3   OH2 5108   4.522   4.246   0.020 -0.2300  0.2227 -0.3617
 1722TIP3    H1 5109   4.515   4.168   0.076 -2.4209  1.8620  1.7006
 1722TIP3    H2 5110   4.439   4.250  -0.026 -0.5803  1.9690  0.3952
 1723TIP3   OH2 5111   3.814   4.824   0.673  0.3375 -0.5648  0.5480
 1723TIP3    H1 5112   3.777   4.871   0.598  1.3675 -0.3166  0.1881
 1723TIP3    H2 5113   3.744   4.824   0.739  0.6438  2.3047  0.9220
 1724TIP3   OH2 5114   7.516   0.328   1.865  0.0587 -0.3110  0.1726
 1724TIP3    H1 5115   7.539   0.300   1.776  0.1940 -0.2896  0.1995
 1724TIP3    H2 5116   7.599   0.360   1.901  0.5472 -2.5274  1.1360
 1725TIP3   OH2 5117   1.153   1.101   6.032 -0.0995  0.0529  0.4035
 1725TIP3    H1 5118   1.100   1.021   6.041 -2.0420  1.4549  2.0147
 1725TIP3    H2 5119   1.147   1.143   6.118  2.4509  1.0177  0.1486
 1726TIP3   OH2 5120   0.742   3.081   6.308  0.4596 -0.3573 -0.3121
 1726TIP3    H1 5121   0.707   3.167   6.332  1.8359  0.4312 -1.0424
 1726TIP3    H2 5122   0.723   3.072   6.215  0.6406 -0.6775 -0.3199
 1727TIP3   OH2 5123   4.302   5.451   1.261  0.4559  0.3223  0.1286
 1727TIP3    H1 5124   4.208   5.468   1.259  0.5082  0.5291 -0.9201
 1727TIP3    H2 5125   4.310   5.363   1.299 -0.2062 -0.0205 -0.5200
 1728TIP3   OH2 5126   5.664   8.001   1.071  0.1803 -0.5121 -0.2789
 1728TIP3    H1 5127   5.724   8.014   1.145 -1.3483 -0.7731  1.0260
 1728TIP3    H2 5128   5.651   7.906   1.068  0.1718 -0.4900 -0.8252
 1729TIP3   OH2 5129   0.063   3.549   5.825 -0.7482 -0.0175  0.2416
 1729TIP3    H1 5130   0.137   3.491   5.844 -1.0895 -1.2380 -1.9226
 1729TIP3    H2 5131  -0.001   3.530   5.893 -0.0046 -0.6841  0.7592
 1730TIP3   OH2 5132   8.123   2.284   6.788  0.1033 -0.1736  0.1596
 1730TIP3    H1 5133   8.047   2.227   6.796  1.7445 -2.5011 -0.2528
 1730TIP3    H2 5134   8.106   2.336   6.710 -0.8862 -0.9607 -0.1674
 1731TIP3   OH2 5135   4.740   5.239   1.267 -0.8425  0.5021 -1.4506
 1731TIP3    H1 5136   4.745   5.307   1.335 -0.1858 -0.4002 -0.5834
 1731TIP3    H2 5137   4.648   5.215   1.264 -0.4988 -1.3180  1.0132
 1732TIP3   OH2 5138   2.960   6.783   2.322  0.0519 -0.3416 -0.0557
 1732TIP3    H1 5139   3.052   6.760   2.312 -0.2262 -0.5823 -2.3116
 1732TIP3    H2 5140   2.952   6.867   2.277 -1.1561 -1.1531 -1.4162
 1733TIP3   OH2 5141   1.934   3.162   5.649 -0.0150  0.0875 -0.2932
 1733TIP3    H1 5142   1.907   3.163   5.557  1.9068  1.0524 -0.8610
 1733TIP3    H2 5143   1.964   3.073   5.664 -0.0984 -0.0059 -0.6684
 1734TIP3   OH2 5144   4.502   6.590   0.346  0.4131  0.2303  0.7220
 1734TIP3    H1 5145   4.474   6.587   0.254 -0.1389  0.2895  0.8883
 1734TIP3    H2 5146   4.562   6.517   0.355  0.9538  0.5979  0.1493
 1735TIP3   OH2 5147   1.406   6.988   1.006 -0.4228  0.1878  0.3024
 1735TIP3    H1 5148   1.329   7.007   0.951  0.9195  0.1579 -1.6188
 1735TIP3    H2 5149   1.402   6.894   1.020 -0.8362  0.2100  0.3491
 1736TIP3   OH2 5150   7.758   0.354   3.607  0.1698  0.1450  0.2794
 1736TIP3    H1 5151   7.752   0.415   3.680  1.9783  1.7388 -0.8537
 1736TIP3    H2 5152   7.669   0.320   3.596  0.0750 -0.9384  3.8510
 1737TIP3   OH2 5153   4.545   7.243   0.037  0.1467  0.0941  0.3118
 1737TIP3    H1 5154   4.505   7.294  -0.034 -1.2043 -1.2094  0.1017
 1737TIP3    H2 5155   4.636   7.234   0.012 -0.6345 -1.6827 -2.0856
 1738TIP3   OH2 5156   0.965   4.919   5.019  0.4577 -0.1887 -0.0726
 1738TIP3    H1 5157   0.931   4.962   5.098 -0.5131  0.1910 -0.6929
 1738TIP3    H2 5158   1.060   4.920   5.030  0.4268  1.7202  0.1281
 1739TIP3   OH2 5159   4.021   7.724   0.670 -0.7046 -0.3084  0.3954
 1739TIP3    H1 5160   4.001   7.632   0.689 -1.9302 -0.6681 -2.3652
 1739TIP3    H2 5161   3.949   7.753   0.614 -0.0093  2.1616  0.7302
 1740TIP3   OH2 5162   7.640   2.500   4.900  0.1323 -0.1745  0.6090
 1740TIP3    H1 5163   7.667   2.415   4.865  0.9400  0.1454  0.4615
 1740TIP3    H2 5164   7.552   2.484   4.934  0.4880 -1.2062  1.0642
 1741TIP3   OH2 5165   8.389   4.665   6.547  0.0170 -0.0794  0.2692
 1741TIP3    H1 5166   8.439   4.613   6.610  0.7049  0.5036  0.2154
 1741TIP3    H2 5167   8.440   4.745   6.537  0.7716 -0.8476 -2.2837
 1742TIP3   OH2 5168   3.523   6.060   0.421 -0.2174 -0.3257 -0.0032
 1742TIP3    H1 5169   3.462   5.987   0.412 -1.3541  0.5937  0.1197
 1742TIP3    H2 5170   3.599   6.021   0.464 -0.7978 -1.4473  0.0546
 1743TIP3   OH2 5171   3.838   7.634   6.167  0.7471 -0.2375  0.2376
 1743TIP3    H1 5172   3.933   7.646   6.172  0.6162  1.0255 -0.1868
 1743TIP3    H2 5173   3.805   7.720   6.142 -0.4416 -0.9017 -0.4515
 1744TIP3   OH2 5174   1.158   1.012   5.428 -0.1918 -0.0089  0.4519
 1744TIP3    H1 5175   1.170   1.021   5.334 -0.1179 -0.8209  0.3763
 1744TIP3    H2 5176   1.242   1.041   5.465 -1.0137  2.5558  0.4230
 1745TIP3   OH2 5177   4.000   1.358   1.362 -0.3508 -0.2624  0.2402
 1745TIP3    H1 5178   4.075   1.398   1.320 -1.0554  0.4546 -0.3482
 1745TIP3    H2 5179   4.011   1.378   1.455 -0.5292  1.0331 -0.0067
 1746TIP3   OH2 5180   7.176   3.119   6.233 -0.0022  0.4579 -0.0413
 1746TIP3    H1 5181   7.081   3.113   6.243  0.1114 -0.7961  0.3780
 1746TIP3    H2 5182   7.211   3.052   6.292  1.1240  0.6300 -0.4939
 1747TIP3   OH2 5183   3.439   6.609   0.799  0.2856  0.7801 -0.5076
 1747TIP3    H1 5184   3.349   6.589   0.773  0.4706 -2.3452  1.0216
 1747TIP3    H2 5185   3.431   6.682   0.861 -1.2628  0.2144 -0.0291
 1748TIP3   OH2 5186   8.255   3.759   6.222  0.1821  0.8453 -0.1982
 1748TIP3    H1 5187   8.283   3.814   6.295  1.8855 -0.2059 -0.0469
 1748TIP3    H2 5188   8.323   3.769   6.156 -0.6423  0.6894 -1.0851
 1749TIP3   OH2 5189   7.634   0.579   0.589 -1.0024 -0.0813 -0.4862
 1749TIP3    H1 5190   7.614   0.635   0.514 -0.1318 -0.6831 -1.1852
 1749TIP3    H2 5191   7.638   0.491   0.552  0.1216 -0.3011  0.1312
 1750TIP3   OH2 5192   3.127   7.046   1.237  0.3000 -0.4331  0.4442
 1750TIP3    H1 5193   3.123   7.042   1.142  2.0676 -0.8757  0.3691
 1750TIP3    H2 5194   3.060   6.985   1.267  0.3699 -0.9894 -0.5274
 1751TIP3   OH2 5195   4.360   0.989   6.016 -0.1204 -0.1022  0.3937
 1751TIP3    H1 5196   4.284   0.932   6.003 -0.4960  0.6502 -0.8085
 1751TIP3    H2 5197   4.434   0.938   5.984 -0.5739  0.3904 -1.5148
 1752TIP3   OH2 5198   2.420   6.144   0.152 -0.3625  0.2524  0.2854
 1752TIP3    H1 5199   2.339   6.094   0.162  0.1323 -0.2625  1.8923
 1752TIP3    H2 5200   2.458   6.112   0.070 -1.4351 -0.0015 -0.1233
 1753TIP3   OH2 5201   2.847   7.601   0.903 -0.0966 -0.4104  0.4898
 1753TIP3    H1 5202   2.776   7.655   0.869  0.4811  0.1680  0.1881
 1753TIP3    H2 5203   2.841   7.611   0.998 -0.7922 -0.8481  0.4969
 1754TIP3   OH2 5204   2.009   1.434   6.818 -0.2132  0.7143 -0.0937
 1754TIP3    H1 5205   1.930   1.482   6.794 -0.4294  0.4780  0.1510
 1754TIP3    H2 5206   1.983   1.379   6.892 -0.0305  0.0489 -0.5137
 1755TIP3   OH2 5207   0.461   4.369   6.874  0.1366 -0.0108 -0.7423
 1755TIP3    H1 5208   0.379   4.379   6.923  0.0422 -1.3317 -0.6076
 1755TIP3    H2 5209   0.509   4.301   6.922  0.5361 -0.5057 -1.8285
 1756TIP3   OH2 5210   6.305   5.641   0.177  0.0821 -0.0712 -0.4073
 1756TIP3    H1 5211   6.336   5.646   0.267 -0.8944  0.2404 -0.0840
 1756TIP3    H2 5212   6.232   5.579   0.180 -1.7806  2.0852 -0.4553
 1757TIP3   OH2 5213   0.421   2.887   6.091  0.2339  0.6748 -0.5447
 1757TIP3    H1 5214   0.362   2.944   6.042  1.2890  0.9494 -1.5176
 1757TIP3    H2 5215   0.504   2.934   6.093  1.1660 -0.8849 -1.5022
 1758TIP3   OH2 5216   2.362   7.521   0.987 -0.1569  0.2541  0.0796
 1758TIP3    H1 5217   2.359   7.545   0.895 -0.7954  1.3188  0.3658
 1758TIP3    H2 5218   2.276   7.547   1.021  0.6027  1.2415  1.2947
 1759TIP3   OH2 5219   4.936   5.880   1.034  0.4729 -0.4967  0.3536
 1759TIP3    H1 5220   4.891   5.901   1.115  2.6863  0.1941  1.4457
 1759TIP3    H2 5221   4.870   5.836   0.980 -1.1233 -0.6127  2.3594
 1760TIP3   OH2 5222   6.896   3.230   4.383  0.5556 -0.0357 -0.1203
 1760TIP3    H1 5223   6.853   3.181   4.313  1.1199 -0.0482 -0.4589
 1760TIP3    H2 5224   6.955   3.167   4.424  0.8260  0.1883 -0.1609
 1761TIP3   OH2 5225   7.978   3.844   6.039 -0.1548  0.3659  0.2301
 1761TIP3    H1 5226   8.002   3.832   6.131  1.2762  1.4640  0.0122
 1761TIP3    H2 5227   7.902   3.903   6.042 -0.2498  0.2229  0.7168
 1762TIP3   OH2 5228   1.060   5.908   0.483 -0.4368 -0.1640  0.4171
 1762TIP3    H1 5229   1.130   5.962   0.447 -0.0874  0.6398  2.2711
 1762TIP3    H2 5230   1.101   5.857   0.552 -1.3760 -0.7265  0.5719
 1763TIP3   OH2 5231   2.606   6.896   1.193 -0.3370 -0.1912  0.4260
 1763TIP3    H1 5232   2.659   6.975   1.207  2.3022 -1.9277  0.4521
 1763TIP3    H2 5233   2.573   6.905   1.103 -2.0816  2.0683  1.2412
 1764TIP3   OH2 5234   6.328   2.745   5.131  0.1748 -0.1002  0.1126
 1764TIP3    H1 5235   6.389   2.680   5.094 -0.1350  0.5946 -1.6714
 1764TIP3    H2 5236   6.261   2.692   5.176  1.2778 -0.9138  0.8328
 1765TIP3   OH2 5237   7.606   2.586   5.559  0.0735 -0.4349 -0.4477
 1765TIP3    H1 5238   7.646   2.671   5.579  1.2310 -0.6125 -1.8851
 1765TIP3    H2 5239   7.556   2.564   5.637  0.6455  1.0609  0.3672
 1766TIP3   OH2 5240   0.685   2.429   6.930 -0.1079 -0.1168  0.0054
 1766TIP3    H1 5241   0.700   2.357   6.869  1.2948  0.9346 -0.9064
 1766TIP3    H2 5242   0.689   2.388   7.017 -0.7762 -1.3768 -0.5445
 1767TIP3   OH2 5243   4.635   5.391   2.094  0.0965 -0.6347 -0.4446
 1767TIP3    H1 5244   4.632   5.317   2.035 -0.2293 -0.7459 -0.2881
 1767TIP3    H2 5245   4.724   5.390   2.130 -0.1083 -1.3274  0.0432
 1768TIP3   OH2 5246   3.962   5.145   1.602 -0.3139 -0.1897 -0.1974
 1768TIP3    H1 5247   4.035   5.182   1.652  0.4864  0.1070 -1.5547
 1768TIP3    H2 5248   3.902   5.111   1.668  1.8729 -2.0214  0.9285
 1769TIP3   OH2 5249   5.624   5.227   2.223  0.0689 -0.0494 -0.2160
 1769TIP3    H1 5250   5.610   5.319   2.245 -2.1850 -0.7844  1.6247
 1769TIP3    H2 5251   5.670   5.191   2.299 -1.1414 -0.9404  0.1136
 1770TIP3   OH2 5252   1.085   3.895   6.389 -0.4447  0.2315  0.1257
 1770TIP3    H1 5253   1.120   3.972   6.433  0.8469  0.5078 -1.3107
 1770TIP3    H2 5254   1.126   3.897   6.302  1.5019 -3.3594  0.8743
 1771TIP3   OH2 5255   5.713   0.504   0.641 -0.0454  0.0363  0.1032
 1771TIP3    H1 5256   5.665   0.587   0.637  1.1876  0.7652 -0.1143
 1771TIP3    H2 5257   5.805   0.531   0.652  0.2241 -1.3262  1.4209
 1772TIP3   OH2 5258   2.267   3.163   6.879  0.5974  0.1811 -0.5292
 1772TIP3    H1 5259   2.216   3.235   6.841 -1.3105 -0.0278  1.5224
 1772TIP3    H2 5260   2.319   3.205   6.948  1.2054 -0.0442 -0.8484
 1773TIP3   OH2 5261   3.231   7.243   0.430 -0.1741 -0.1038 -0.4145
 1773TIP3    H1 5262   3.242   7.150   0.411  0.4657 -0.1170  0.0085
 1773TIP3    H2 5263   3.231   7.249   0.526  1.2951  0.4967 -0.4314
 1774TIP3   OH2 5264   7.065   4.718   5.718 -0.6648  0.1098 -0.5758
 1774TIP3    H1 5265   7.100   4.776   5.651  1.0698  0.8217  0.9153
 1774TIP3    H2 5266   7.063   4.771   5.798  0.2990 -1.6552  0.6525
 1775TIP3   OH2 5267   0.489   2.772   5.713 -0.3602 -0.2098  0.1001
 1775TIP3    H1 5268   0.579   2.769   5.681 -0.3712  1.1635 -0.0978
 1775TIP3    H2 5269   0.436   2.736   5.642 -0.2948  2.0141 -1.1133
 1776TIP3   OH2 5270   3.460   6.249   0.835  0.0901  0.0968 -0.0859
 1776TIP3    H1 5271   3.399   6.298   0.891 -0.0795  0.9238 -0.9917
 1776TIP3    H2 5272   3.410   6.230   0.756  0.6427 -0.2503 -0.3550
 1777TIP3   OH2 5273   4.349   7.560   0.088 -0.7481 -0.2418 -0.7744
 1777TIP3    H1 5274   4.297   7.482   0.072  0.3111 -0.7757 -1.6657
 1777TIP3    H2 5275   4.330   7.584   0.179 -1.3259 -1.3436 -0.6082
 1778TIP3   OH2 5276   5.096   7.531   1.429 -0.3522 -0.4004  0.1090
 1778TIP3    H1 5277   5.051   7.506   1.348  0.7512  0.4955 -0.7912
 1778TIP3    H2 5278   5.188   7.515   1.412  0.0129  0.8942  0.7730
 1779TIP3   OH2 5279   7.836   7.171   3.425 -0.0853  0.5124 -0.0100
 1779TIP3    H1 5280   7.796   7.213   3.348  0.0751 -0.6035 -0.7199
 1779TIP3    H2 5281   7.923   7.145   3.395 -0.5760 -1.2894  0.0803
 1780TIP3   OH2 5282   5.612   7.148   2.907 -0.5063 -0.3608 -0.0555
 1780TIP3    H1 5283   5.597   7.223   2.965  2.1543 -0.0898  0.3204
 1780TIP3    H2 5284   5.681   7.098   2.950 -1.3238 -2.3327 -0.9912
 1781TIP3   OH2 5285   6.944   7.314   4.470 -0.3021 -0.2117 -0.0105
 1781TIP3    H1 5286   6.915   7.390   4.520 -1.4473 -0.4400 -0.3269
 1781TIP3    H2 5287   6.937   7.341   4.378  1.0478 -0.0645 -0.0827
 1782TIP3   OH2 5288   1.680   0.517   2.696 -0.0051 -0.1084  0.4081
 1782TIP3    H1 5289   1.721   0.472   2.770 -0.7420 -2.2062 -0.4224
 1782TIP3    H2 5290   1.691   0.456   2.622 -1.8228  0.6722 -0.5288
 1783TIP3   OH2 5291   0.626   5.756   5.485  0.6182  0.1516  0.4716
 1783TIP3    H1 5292   0.598   5.678   5.532 -1.4292 -0.6629 -2.0333
 1783TIP3    H2 5293   0.671   5.723   5.408 -0.1070  1.4186 -0.5155
 1784TIP3   OH2 5294   6.648   6.894   2.842 -0.0369 -0.2176  0.0587
 1784TIP3    H1 5295   6.649   6.799   2.831  1.3504 -0.2087  0.0164
 1784TIP3    H2 5296   6.610   6.927   2.761  1.0851 -0.6597 -0.6695
 1785TIP3   OH2 5297   0.333   0.117   3.318  0.4700  0.5933  0.0850
 1785TIP3    H1 5298   0.392   0.183   3.352 -0.3108  0.6487  1.3791
 1785TIP3    H2 5299   0.382   0.075   3.247  1.4943  1.5995  0.1774
 1786TIP3   OH2 5300   3.449   0.269   6.055 -0.0093 -0.2597 -0.2668
 1786TIP3    H1 5301   3.400   0.192   6.026  0.2705 -0.9344  1.0468
 1786TIP3    H2 5302   3.384   0.325   6.097  0.0150 -0.3338 -0.1308
 1787TIP3   OH2 5303   8.045   1.138   4.880  0.5850 -0.2050  0.0156
 1787TIP3    H1 5304   8.028   1.095   4.797 -1.3936  0.8031 -0.1342
 1787TIP3    H2 5305   8.068   1.067   4.940 -0.6565 -1.2474 -0.7224
 1788TIP3   OH2 5306   2.004   0.757   5.531 -0.1428  0.2594 -0.0050
 1788TIP3    H1 5307   2.048   0.841   5.541  0.6169 -0.2808  1.3688
 1788TIP3    H2 5308   1.991   0.748   5.436  1.6585  0.9800 -0.3408
 1789TIP3   OH2 5309   6.296   7.031   3.641  0.9089 -0.4058  0.0305
 1789TIP3    H1 5310   6.287   7.013   3.547  1.7131 -0.1335 -0.1035
 1789TIP3    H2 5311   6.306   6.944   3.681  1.5931 -0.4548 -0.2517
 1790TIP3   OH2 5312   3.228   1.063   5.297 -0.6105  0.3558 -0.3248
 1790TIP3    H1 5313   3.279   1.038   5.220  0.0486 -0.2678  0.2948
 1790TIP3    H2 5314   3.215   0.981   5.345 -1.2845  0.6862  0.0638
 1791TIP3   OH2 5315   3.168   0.523   5.079 -0.4528  0.4879  1.1681
 1791TIP3    H1 5316   3.134   0.613   5.070 -0.1476  0.4795 -0.1919
 1791TIP3    H2 5317   3.246   0.532   5.133 -0.3363  1.0802  0.9107
 1792TIP3   OH2 5318   0.221   7.099   3.674  0.0419 -0.2461  0.3736
 1792TIP3    H1 5319   0.224   7.023   3.732 -0.1634 -0.5335  0.0093
 1792TIP3    H2 5320   0.131   7.130   3.679 -0.1091 -0.5820 -0.1864
 1793TIP3   OH2 5321   1.145   1.886   3.313  0.5336  0.6031  0.3197
 1793TIP3    H1 5322   1.238   1.905   3.329  0.9557 -2.1054  1.2856
 1793TIP3    H2 5323   1.141   1.865   3.219  0.7435  1.4828  0.1078
 1794TIP3   OH2 5324   1.961   4.784   5.706 -0.0468 -0.3029  0.9648
 1794TIP3    H1 5325   1.950   4.822   5.794  0.2812 -1.2548  1.4225
 1794TIP3    H2 5326   1.878   4.741   5.688 -0.9514  1.8387 -0.1664
 1795TIP3   OH2 5327   5.988   6.809   5.977 -0.2195  0.1529 -0.4065
 1795TIP3    H1 5328   5.919   6.748   5.952  0.0403  0.9601 -3.2485
 1795TIP3    H2 5329   6.069   6.760   5.964 -0.1315  0.0824  0.3662
 1796TIP3   OH2 5330   4.023   0.648   2.851 -0.5122  0.1125 -0.0146
 1796TIP3    H1 5331   4.019   0.685   2.763 -1.9822  1.2542  0.5034
 1796TIP3    H2 5332   3.992   0.558   2.840  0.3547 -0.0950 -0.8320
 1797TIP3   OH2 5333   3.053   3.751   0.267  0.7350  0.0530 -0.6931
 1797TIP3    H1 5334   2.992   3.700   0.320 -0.1380  1.3051 -0.4581
 1797TIP3    H2 5335   3.139   3.736   0.307  0.7456 -2.4126 -1.5478
 1798TIP3   OH2 5336   1.543   0.544   2.975 -0.2766  0.0842  0.5771
 1798TIP3    H1 5337   1.454   0.553   2.940  0.0469  0.1670 -0.2320
 1798TIP3    H2 5338   1.579   0.632   2.970  1.1161 -0.6336 -2.5199
 1799TIP3   OH2 5339   1.087   0.860   3.805 -0.1846  0.1060 -0.0592
 1799TIP3    H1 5340   1.100   0.809   3.725 -0.8630  0.7848 -0.6069
 1799TIP3    H2 5341   1.107   0.950   3.780 -0.1220  0.2799  0.6100
 1800TIP3   OH2 5342   1.012   1.440   4.359  0.0480 -0.0347  0.0076
 1800TIP3    H1 5343   1.001   1.381   4.284  2.5361 -1.5520  0.7697
 1800TIP3    H2 5344   1.023   1.527   4.320 -0.5510 -0.5228 -1.2907
 1801TIP3   OH2 5345   1.704   0.537   4.880 -0.5529 -0.3713 -0.4991
 1801TIP3    H1 5346   1.688   0.445   4.903 -1.8172 -0.5059 -1.7960
 1801TIP3    H2 5347   1.795   0.539   4.850 -0.3281 -1.0801  0.1363
 1802TIP3   OH2 5348   1.937   1.727   5.892  0.2654 -0.4540 -0.1480
 1802TIP3    H1 5349   1.854   1.679   5.883 -0.1134  0.0976  0.4145
 1802TIP3    H2 5350   1.960   1.750   5.802 -0.0739 -0.8012 -0.3282
 1803TIP3   OH2 5351   0.499   0.892   5.569 -0.2553  0.0347 -0.2311
 1803TIP3    H1 5352   0.416   0.844   5.569  0.2562 -0.8680 -0.5392
 1803TIP3    H2 5353   0.528   0.890   5.660  0.3579 -1.3125 -0.4403
 1804TIP3   OH2 5354   8.051   7.672   3.549 -0.0249  0.2396 -0.0466
 1804TIP3    H1 5355   8.113   7.717   3.491  0.2922 -1.0326 -0.7273
 1804TIP3    H2 5356   7.976   7.731   3.555 -0.1868  0.2756 -2.0252
 1805TIP3   OH2 5357   6.125   7.457   6.332  0.2845 -0.3074 -0.2073
 1805TIP3    H1 5358   6.158   7.369   6.352 -0.2971 -0.3072  0.7980
 1805TIP3    H2 5359   6.031   7.444   6.317  0.2735  0.0785 -0.4639
 1806TIP3   OH2 5360   2.609   1.469   4.766  0.2014 -0.1067 -0.1235
 1806TIP3    H1 5361   2.595   1.526   4.690 -0.3102 -0.2377 -0.1289
 1806TIP3    H2 5362   2.524   1.427   4.781  0.2624  0.0251  0.6105
 1807TIP3   OH2 5363   5.750   5.447   3.104 -0.2998  0.2029 -0.0418
 1807TIP3    H1 5364   5.708   5.484   3.026 -1.3263 -2.0038 -0.5913
 1807TIP3    H2 5365   5.677   5.413   3.157  0.4790  0.5494  1.2764
 1808TIP3   OH2 5366   8.098   6.232   4.205  0.5124  0.3359  0.0647
 1808TIP3    H1 5367   8.157   6.228   4.129  0.9958  0.7299  0.4169
 1808TIP3    H2 5368   8.120   6.314   4.249  1.8772 -0.9760  1.9247
 1809TIP3   OH2 5369   7.062   7.919   2.549  0.8042 -0.5857  0.1756
 1809TIP3    H1 5370   7.145   7.893   2.589 -0.0984 -1.3437  1.5811
 1809TIP3    H2 5371   7.045   8.007   2.584  0.2635 -1.0483  1.0968
 1810TIP3   OH2 5372   8.269   0.101   4.757 -0.1920  0.0879  0.2594
 1810TIP3    H1 5373   8.317   0.040   4.813 -0.1803 -0.6549 -0.5538
 1810TIP3    H2 5374   8.196   0.131   4.812  1.4095  1.5836  1.6703
 1811TIP3   OH2 5375   0.963   0.104   4.933 -0.1105 -0.1528  0.5814
 1811TIP3    H1 5376   0.929   0.184   4.973 -0.4531 -0.0255  0.0460
 1811TIP3    H2 5377   0.992   0.131   4.846  0.5038 -0.4542  0.6875
 1812TIP3   OH2 5378   0.400   1.869   6.791 -0.1929 -0.0361  0.0099
 1812TIP3    H1 5379   0.428   1.863   6.700  0.1850  1.2094  0.0431
 1812TIP3    H2 5380   0.413   1.961   6.815 -1.7821 -0.0005  0.8322
 1813TIP3   OH2 5381   5.803   7.405   5.720 -0.1542  0.4169 -0.1381
 1813TIP3    H1 5382   5.803   7.476   5.656  2.5438 -0.2744 -0.9764
 1813TIP3    H2 5383   5.736   7.344   5.689 -1.3619  1.8031 -0.2906
 1814TIP3   OH2 5384   7.704   7.321   3.238 -0.1300  0.0479  0.6361
 1814TIP3    H1 5385   7.611   7.304   3.252 -0.3724  1.0999  0.3155
 1814TIP3    H2 5386   7.721   7.291   3.149  0.3896 -2.3732  1.5006
 1815TIP3   OH2 5387   1.177   0.333   4.121  0.1565  0.2985 -0.3403
 1815TIP3    H1 5388   1.142   0.308   4.036  2.8252 -1.1293 -1.0822
 1815TIP3    H2 5389   1.254   0.386   4.101  1.1341 -0.5038  1.1605
 1816TIP3   OH2 5390   8.302   5.575   0.948 -0.0213 -0.2590 -0.5074
 1816TIP3    H1 5391   8.369   5.584   0.879 -0.4451  0.8270 -0.7904
 1816TIP3    H2 5392   8.289   5.481   0.956  0.7246 -0.4395 -1.2531
 1817TIP3   OH2 5393   8.066   7.840   2.251 -0.2769 -0.0305  0.2165
 1817TIP3    H1 5394   8.024   7.838   2.165  0.8712 -1.1177 -0.3351
 1817TIP3    H2 5395   7.994   7.853   2.313 -1.3385 -1.1103 -0.7669
 1818TIP3   OH2 5396   7.553   7.482   4.199  0.6659 -0.2519 -0.4841
 1818TIP3    H1 5397   7.608   7.410   4.229  3.7891  2.9260  1.7471
 1818TIP3    H2 5398   7.603   7.524   4.129  0.1474  1.4056  0.1122
 1819TIP3   OH2 5399   3.941   0.137   2.721  1.0395 -0.6353  0.4530
 1819TIP3    H1 5400   3.900   0.053   2.743 -1.3136  0.5937  0.9678
 1819TIP3    H2 5401   3.966   0.175   2.805  0.2563  0.0469  0.3934
 1820TIP3   OH2 5402   8.499   6.203   2.020  0.3262 -0.0522 -0.1492
 1820TIP3    H1 5403   8.456   6.289   2.021  0.9439  0.2443  0.7549
 1820TIP3    H2 5404   8.531   6.193   1.930  0.2582  0.6633 -0.2520
 1821TIP3   OH2 5405   0.838   1.942   3.717 -0.1939  0.2114 -0.4743
 1821TIP3    H1 5406   0.913   1.996   3.743 -0.0638 -0.4252  0.5096
 1821TIP3    H2 5407   0.864   1.903   3.634  0.6665 -0.1680 -0.0439
 1822TIP3   OH2 5408   5.811   6.553   2.303 -0.4899  0.5735  0.2127
 1822TIP3    H1 5409   5.828   6.531   2.394 -0.2789 -0.6697 -0.1228
 1822TIP3    H2 5410   5.762   6.478   2.269  0.7531  0.3557 -1.1137
 1823TIP3   OH2 5411   8.233   7.543   0.692 -0.2336 -0.1459  0.1468
 1823TIP3    H1 5412   8.316   7.543   0.646 -0.7893  1.7853 -0.8997
 1823TIP3    H2 5413   8.202   7.452   0.686  1.3840 -0.6814 -0.1759
 1824TIP3   OH2 5414   8.357   7.014   1.854 -0.4278  0.0994  0.2689
 1824TIP3    H1 5415   8.309   7.085   1.898 -0.6121  0.3753 -0.3737
 1824TIP3    H2 5416   8.289   6.963   1.810 -0.2321 -0.1123  0.2128
 1825TIP3   OH2 5417   7.280   7.017   4.432  0.1902 -0.3521  0.1397
 1825TIP3    H1 5418   7.342   7.088   4.420  0.2133 -0.6065 -1.2939
 1825TIP3    H2 5419   7.206   7.057   4.478 -0.4228  0.9402 -1.9085
 1826TIP3   OH2 5420   0.507   7.057   3.237  0.5508 -0.4741 -0.5373
 1826TIP3    H1 5421   0.498   7.066   3.332 -0.6179  0.3175 -0.7084
 1826TIP3    H2 5422   0.495   7.146   3.203  1.9064 -0.5962 -1.3678
 1827TIP3   OH2 5423   2.547   0.396   3.301  0.4106 -0.1910  0.2768
 1827TIP3    H1 5424   2.638   0.372   3.282  1.0401  0.3849  2.3977
 1827TIP3    H2 5425   2.512   0.425   3.217  2.5625  0.7349 -0.3551
 1828TIP3   OH2 5426   0.670   6.654   4.764  0.0980  0.0088  0.4621
 1828TIP3    H1 5427   0.631   6.590   4.824  0.4950  1.3016  2.1229
 1828TIP3    H2 5428   0.655   6.617   4.677 -1.4712 -1.3584  1.2874
 1829TIP3   OH2 5429   2.057   1.170   4.685 -0.4604  0.0025 -0.0795
 1829TIP3    H1 5430   2.053   1.092   4.740  0.3670  0.1476  0.2101
 1829TIP3    H2 5431   1.992   1.156   4.617 -1.1590 -0.3998  0.6658
 1830TIP3   OH2 5432   2.260   0.330   2.356 -0.1889 -0.3584 -0.6131
 1830TIP3    H1 5433   2.186   0.278   2.323 -0.2294  0.0383 -1.1467
 1830TIP3    H2 5434   2.239   0.420   2.331 -0.7535  0.1056  1.4401
 1831TIP3   OH2 5435   3.408   0.124   2.355  0.9077  0.3969  0.1399
 1831TIP3    H1 5436   3.448   0.080   2.430  0.3593  1.1562  0.8909
 1831TIP3    H2 5437   3.483   0.153   2.301  1.3052  0.0002  0.4787
 1832TIP3   OH2 5438   7.422   6.005   5.493 -0.0070 -0.2010  0.1604
 1832TIP3    H1 5439   7.382   6.059   5.425  0.4625 -1.7386 -1.3716
 1832TIP3    H2 5440   7.495   5.961   5.450  1.4499  0.1971  2.1436
 1833TIP3   OH2 5441   7.940   7.793   4.165 -0.0663 -0.2724 -0.3461
 1833TIP3    H1 5442   7.891   7.785   4.247  1.5891  0.2440  0.7231
 1833TIP3    H2 5443   7.938   7.886   4.144  0.6696 -0.2062 -0.1480
 1834TIP3   OH2 5444   0.894   7.018   4.226 -0.0545 -0.0767 -0.0008
 1834TIP3    H1 5445   0.873   7.049   4.137  0.8751  0.3434 -0.0764
 1834TIP3    H2 5446   0.901   7.098   4.278  0.2129 -0.2837  0.2800
 1835TIP3   OH2 5447   1.863   7.607   2.831 -0.2235  0.2931  0.5012
 1835TIP3    H1 5448   1.882   7.571   2.745  1.7754  0.0507  1.0207
 1835TIP3    H2 5449   1.895   7.697   2.827 -1.6496  0.8116  0.4653
 1836TIP3   OH2 5450   2.470   1.591   3.972 -0.0694 -0.8090  0.2559
 1836TIP3    H1 5451   2.491   1.529   3.902 -1.6461 -0.7466 -0.2889
 1836TIP3    H2 5452   2.438   1.536   4.044 -1.1620 -0.6591 -0.1105
 1837TIP3   OH2 5453   7.508   7.643   4.403 -0.9370 -0.1682  0.1994
 1837TIP3    H1 5454   7.466   7.720   4.364 -0.3556  0.0259 -0.0474
 1837TIP3    H2 5455   7.537   7.592   4.327  1.5797  0.9641  0.3583
 1838TIP3   OH2 5456   1.880   7.184   1.886  0.1578 -0.2863 -0.1677
 1838TIP3    H1 5457   1.882   7.279   1.897 -0.8534 -0.1078 -1.4240
 1838TIP3    H2 5458   1.957   7.164   1.834 -0.2264 -0.0189 -0.8440
 1839TIP3   OH2 5459   1.318   0.255   2.397  0.6582  0.3131 -0.6255
 1839TIP3    H1 5460   1.355   0.237   2.483 -0.6776 -0.6777 -0.2203
 1839TIP3    H2 5461   1.383   0.223   2.335  2.0937  2.0121 -0.0117
 1840TIP3   OH2 5462   1.021   7.288   3.691 -0.0461  0.3498 -0.0427
 1840TIP3    H1 5463   1.088   7.248   3.746 -1.7694 -2.8727 -0.1631
 1840TIP3    H2 5464   0.949   7.307   3.752 -0.5673  0.0615 -0.5589
 1841TIP3   OH2 5465   1.440   0.166   4.080 -0.1095  0.3423 -0.8933
 1841TIP3    H1 5466   1.433   0.134   3.990 -0.4362 -1.7151 -0.1822
 1841TIP3    H2 5467   1.380   0.110   4.130 -0.0288  1.5333  0.5785
 1842TIP3   OH2 5468   5.043   2.258   6.031  0.2442  0.3677  0.1452
 1842TIP3    H1 5469   5.005   2.296   6.111 -0.3817  1.4363 -0.6449
 1842TIP3    H2 5470   4.985   2.186   6.009 -0.3515  0.9098 -0.0812
 1843TIP3   OH2 5471   1.502   0.180   3.623  0.2102  0.2730 -0.7296
 1843TIP3    H1 5472   1.544   0.193   3.707 -1.7465 -1.5550  0.5812
 1843TIP3    H2 5473   1.462   0.264   3.602  0.9581  0.8177  0.0269
 1844TIP3   OH2 5474   3.937   0.117   5.067 -0.1997 -0.4561 -0.0705
 1844TIP3    H1 5475   3.875   0.123   4.994 -0.8356  0.3906  0.5272
 1844TIP3    H2 5476   3.973   0.206   5.074 -2.1881  0.2158  2.4195
 1845TIP3   OH2 5477   3.022   1.703   4.329 -0.1857  0.0712  0.8432
 1845TIP3    H1 5478   3.040   1.757   4.406 -0.3929  0.5507  0.5573
 1845TIP3    H2 5479   2.964   1.634   4.361  0.6784 -0.4256  1.3699
 1846TIP3   OH2 5480   0.502   7.996   4.162  0.0453  0.6215 -0.0316
 1846TIP3    H1 5481   0.588   8.037   4.153  0.2723  0.0710 -0.3444
 1846TIP3    H2 5482   0.487   7.994   4.257  0.3143  0.8365  0.0167
 1847TIP3   OH2 5483   7.198   7.264   4.593  0.3260  0.5889 -0.2397
 1847TIP3    H1 5484   7.105   7.277   4.571 -0.2603 -0.0767  1.7388
 1847TIP3    H2 5485   7.243   7.332   4.544 -1.2473  1.1037 -1.0276
 1848TIP3   OH2 5486   7.617   5.755   5.029  0.1462  0.1725  0.0148
 1848TIP3    H1 5487   7.592   5.672   4.990 -0.3892  0.3101  0.0689
 1848TIP3    H2 5488   7.548   5.816   5.003  1.4175  1.0057 -1.4975
 1849TIP3   OH2 5489   0.420   7.192   1.008  0.1452 -0.0723  0.3871
 1849TIP3    H1 5490   0.402   7.285   1.021  1.0839  0.3139 -1.0139
 1849TIP3    H2 5491   0.333   7.151   1.003 -0.3547  1.3120 -3.1385
 1850TIP3   OH2 5492   3.123   0.130   4.792 -0.5140 -0.8603  0.5465
 1850TIP3    H1 5493   3.167   0.045   4.789  0.5348 -0.2897 -0.3577
 1850TIP3    H2 5494   3.188   0.193   4.760 -1.6650  0.1260  0.0919
 1851TIP3   OH2 5495   3.438   0.438   3.453 -0.2604  0.5988 -0.8250
 1851TIP3    H1 5496   3.454   0.347   3.480  0.0215  0.2740 -2.0581
 1851TIP3    H2 5497   3.525   0.473   3.434 -0.4681  0.7699 -1.4668
 1852TIP3   OH2 5498   0.390   5.632   3.281 -0.4024  0.3498  0.1538
 1852TIP3    H1 5499   0.396   5.564   3.348  0.7987 -0.4433 -0.7586
 1852TIP3    H2 5500   0.439   5.706   3.317  0.0995 -0.0149  0.2091
 1853TIP3   OH2 5501   1.348   0.147   2.649 -0.0947 -0.2418  0.7953
 1853TIP3    H1 5502   1.427   0.116   2.693 -0.0275  0.7584  1.3915
 1853TIP3    H2 5503   1.283   0.156   2.719 -0.8629 -1.4169  0.2588
 1854TIP3   OH2 5504   3.264   1.096   4.903 -0.3293 -0.3738 -0.4538
 1854TIP3    H1 5505   3.231   1.014   4.866  2.3415 -0.6734 -2.2874
 1854TIP3    H2 5506   3.252   1.161   4.834  0.4584  0.0851 -0.1692
 1855TIP3   OH2 5507   1.486   7.090   5.444  0.1116 -0.0312 -0.1457
 1855TIP3    H1 5508   1.425   7.122   5.378 -1.7612 -1.3269  0.9157
 1855TIP3    H2 5509   1.434   7.032   5.499  1.9407  0.0553  1.7392
 1856TIP3   OH2 5510   0.650   6.580   4.105 -0.7565  0.3743  0.5502
 1856TIP3    H1 5511   0.728   6.524   4.101 -0.0689  1.4031 -1.2297
 1856TIP3    H2 5512   0.679   6.658   4.152 -1.2048  0.0441  1.3922
 1857TIP3   OH2 5513   0.516   7.756   3.873 -0.2782  0.1245  0.3733
 1857TIP3    H1 5514   0.524   7.664   3.897 -0.2479  0.4495  1.6595
 1857TIP3    H2 5515   0.600   7.795   3.899  0.0734  0.3328 -1.0345
 1858TIP3   OH2 5516   0.148   0.061   1.285  0.2502 -0.1264 -0.2116
 1858TIP3    H1 5517   0.155   0.156   1.291 -1.0802 -0.0261 -0.0706
 1858TIP3    H2 5518   0.220   0.029   1.339  0.5110  0.8016  0.0088
 1859TIP3   OH2 5519   2.699   0.224   0.927  0.7123  0.0255 -0.2713
 1859TIP3    H1 5520   2.609   0.228   0.895  0.3567  0.7741  0.8205
 1859TIP3    H2 5521   2.747   0.180   0.857  0.0178  1.9242 -1.9836
 1860TIP3   OH2 5522   0.538   6.269   5.129  0.8096  0.2918 -0.6873
 1860TIP3    H1 5523   0.470   6.284   5.195  1.7785  1.2923  0.0892
 1860TIP3    H2 5524   0.606   6.220   5.176  1.5244  1.0480 -0.9372
 1861TIP3   OH2 5525   1.065   6.782   5.458 -0.0981  0.1774  0.1729
 1861TIP3    H1 5526   0.970   6.779   5.474 -0.1754 -1.2039 -0.4750
 1861TIP3    H2 5527   1.077   6.732   5.377  1.2040  0.2940  0.2905
 1862TIP3   OH2 5528   1.819   7.868   3.690  0.4117  0.4347 -0.0778
 1862TIP3    H1 5529   1.749   7.827   3.740  0.0987  0.6879 -0.3031
 1862TIP3    H2 5530   1.784   7.953   3.665  0.8876  0.6558  0.0024
 1863TIP3   OH2 5531   1.200   5.604   1.372 -0.2330 -0.0983 -0.0043
 1863TIP3    H1 5532   1.153   5.521   1.369  1.2840 -0.9810  0.2847
 1863TIP3    H2 5533   1.153   5.656   1.437  0.0463 -1.4959  1.3319
 1864TIP3   OH2 5534   4.527   1.230   3.918  0.2166  0.3285 -0.4090
 1864TIP3    H1 5535   4.540   1.193   3.831  0.5070  2.0058 -1.0996
 1864TIP3    H2 5536   4.456   1.294   3.907  0.7083  1.0342  0.4281
 1865TIP3   OH2 5537   8.309   6.536   1.564 -0.0455  0.3560  0.2516
 1865TIP3    H1 5538   8.239   6.588   1.524 -0.2185 -0.8387 -1.0325
 1865TIP3    H2 5539   8.376   6.530   1.496  0.2778 -0.4989  0.6409
 1866TIP3   OH2 5540   0.109   5.616   3.247  0.7468  0.0981  0.0953
 1866TIP3    H1 5541   0.171   5.605   3.318 -0.3520  1.7287  1.3500
 1866TIP3    H2 5542   0.039   5.670   3.284  0.1147  0.9191 -2.1789
 1867TIP3   OH2 5543   3.547   1.755   4.197 -0.0343 -0.6288  0.3243
 1867TIP3    H1 5544   3.456   1.748   4.166 -0.0549 -1.0274  0.4672
 1867TIP3    H2 5545   3.590   1.810   4.132 -0.0963 -1.4132 -0.3939
 1868TIP3   OH2 5546   1.019   6.339   2.550 -0.1112  0.3383  0.0938
 1868TIP3    H1 5547   0.973   6.406   2.600 -0.0528 -1.0845  2.1390
 1868TIP3    H2 5548   0.984   6.256   2.583  1.9131 -0.7098 -0.2912
 1869TIP3   OH2 5549   5.644   6.788   3.615 -0.4823 -0.3223 -0.3247
 1869TIP3    H1 5550   5.722   6.765   3.564 -1.6058 -1.0847 -1.7485
 1869TIP3    H2 5551   5.620   6.876   3.584  0.4679  0.3816  0.9353
 1870TIP3   OH2 5552   3.148   5.662   2.981  0.2206 -0.2251 -0.5580
 1870TIP3    H1 5553   3.117   5.721   2.912  0.1782  1.5558  0.9271
 1870TIP3    H2 5554   3.233   5.632   2.951 -0.0874  0.0024 -1.6860
 1871TIP3   OH2 5555   0.870   7.700   2.334 -0.0637 -0.3995  0.0236
 1871TIP3    H1 5556   0.802   7.686   2.400 -0.6769 -0.9308 -0.7143
 1871TIP3    H2 5557   0.852   7.635   2.267  0.8947 -0.2260 -0.4056
 1872TIP3   OH2 5558   2.577   2.543   2.261  0.0413 -0.0579  0.2031
 1872TIP3    H1 5559   2.550   2.558   2.170 -0.2477 -0.3977  0.2320
 1872TIP3    H2 5560   2.503   2.497   2.301 -0.3638  1.2083  0.9547
 1873TIP3   OH2 5561   2.413   7.779   5.476  1.0684 -0.0865  0.1766
 1873TIP3    H1 5562   2.406   7.823   5.391  1.9703 -0.2696 -0.0037
 1873TIP3    H2 5563   2.493   7.816   5.515 -0.0377  0.9655  1.5270
 1874TIP3   OH2 5564   2.975   1.156   2.182 -0.1167 -0.2182  0.4650
 1874TIP3    H1 5565   2.912   1.096   2.224  0.5101 -0.1014  1.6020
 1874TIP3    H2 5566   2.986   1.227   2.246  1.0430 -0.1565  0.2060
 1875TIP3   OH2 5567   0.833   7.273   4.869 -0.1788  0.7206 -0.0142
 1875TIP3    H1 5568   0.796   7.189   4.840 -1.8069  0.4822  2.6892
 1875TIP3    H2 5569   0.883   7.303   4.793 -1.1480 -1.7546 -1.7200
 1876TIP3   OH2 5570   1.178   7.188   4.917  0.2560 -0.0274  0.5135
 1876TIP3    H1 5571   1.135   7.144   4.844 -0.1923  2.1880 -0.6119
 1876TIP3    H2 5572   1.271   7.175   4.902  0.2100  1.3236 -1.0730
 1877TIP3   OH2 5573   0.695   7.347   4.140  0.2186 -0.8968 -0.0537
 1877TIP3    H1 5574   0.782   7.347   4.180 -0.5358 -3.1924  1.7050
 1877TIP3    H2 5575   0.634   7.359   4.212 -0.9574  0.5318 -1.2466
 1878TIP3   OH2 5576   5.932   6.186   3.471 -0.4841  0.0562 -0.1164
 1878TIP3    H1 5577   5.874   6.111   3.458  0.8879 -0.9990 -0.2695
 1878TIP3    H2 5578   6.007   6.150   3.518  0.3981  1.2469 -0.5931
 1879TIP3   OH2 5579   7.631   7.060   0.888 -0.1034 -0.2080 -0.2182
 1879TIP3    H1 5580   7.667   7.117   0.956 -0.3904  3.0262 -2.6310
 1879TIP3    H2 5581   7.539   7.050   0.910  0.0661 -0.1473  0.5160
 1880TIP3   OH2 5582   2.327   0.252   3.600  0.2538 -0.9673  0.0654
 1880TIP3    H1 5583   2.316   0.345   3.579 -0.3839 -1.0925 -0.1727
 1880TIP3    H2 5584   2.366   0.214   3.522  2.2697 -0.5542  0.8477
 1881TIP3   OH2 5585   3.466   0.587   4.149  0.0080  0.5956  0.1107
 1881TIP3    H1 5586   3.542   0.532   4.170 -0.9682 -0.9289 -0.2679
 1881TIP3    H2 5587   3.441   0.626   4.233 -0.7850 -1.5134  0.9131
 1882TIP3   OH2 5588   6.420   3.102   6.909 -0.3409 -0.2149 -0.3844
 1882TIP3    H1 5589   6.476   3.059   6.973 -2.8174  0.5172  2.4029
 1882TIP3    H2 5590   6.382   3.031   6.857  0.0986 -0.9745  0.3376
 1883TIP3   OH2 5591   7.004   7.125   2.656 -0.0127  0.1666 -0.1445
 1883TIP3    H1 5592   6.925   7.169   2.624  0.1662  0.9218  0.4426
 1883TIP3    H2 5593   7.011   7.152   2.747 -0.7864 -2.3687  0.7104
 1884TIP3   OH2 5594   1.680   7.538   6.044  0.4379  0.0539  0.1745
 1884TIP3    H1 5595   1.621   7.612   6.037  0.3930  0.1139  1.0884
 1884TIP3    H2 5596   1.717   7.545   6.132  3.4082  1.2094 -1.1001
 1885TIP3   OH2 5597   0.886   5.624   2.751  0.1282 -0.2325 -0.1943
 1885TIP3    H1 5598   0.904   5.715   2.774  2.0962 -0.0639 -2.2310
 1885TIP3    H2 5599   0.842   5.588   2.828  1.6447  1.7450  1.6491
 1886TIP3   OH2 5600   0.469   6.811   5.322  0.0959 -0.4316 -0.3979
 1886TIP3    H1 5601   0.527   6.739   5.299  0.6537 -1.1194  2.8654
 1886TIP3    H2 5602   0.498   6.838   5.410 -2.1282  1.6558 -0.2475
 1887TIP3   OH2 5603   1.009   7.828   5.502  1.0896 -0.2958  0.4063
 1887TIP3    H1 5604   0.958   7.828   5.421 -0.2472 -1.9731  1.1984
 1887TIP3    H2 5605   1.083   7.886   5.485  0.5354 -0.2118 -1.8216
 1888TIP3   OH2 5606   6.661   7.479   5.393 -0.2751  0.3052 -0.3489
 1888TIP3    H1 5607   6.647   7.402   5.448  0.8121  0.0184 -0.4626
 1888TIP3    H2 5608   6.746   7.514   5.422 -1.3358  2.1878  0.5655
 1889TIP3   OH2 5609   1.238   7.654   3.362  0.5195 -0.2930 -0.4971
 1889TIP3    H1 5610   1.240   7.690   3.274  1.8279 -0.3128 -0.4757
 1889TIP3    H2 5611   1.250   7.560   3.351  1.6164 -0.1837 -0.2309
 1890TIP3   OH2 5612   4.541   0.723   2.595 -0.6430  0.2052  0.4488
 1890TIP3    H1 5613   4.580   0.763   2.673 -0.0723 -0.0970  0.3149
 1890TIP3    H2 5614   4.475   0.787   2.567 -1.4961 -0.0981  1.7064
 1891TIP3   OH2 5615   0.171   6.717   3.126 -0.4166  0.1441  0.2838
 1891TIP3    H1 5616   0.078   6.729   3.106 -0.7841 -1.3738  0.9627
 1891TIP3    H2 5617   0.177   6.725   3.221 -0.3435 -2.5019  0.5476
 1892TIP3   OH2 5618   1.728   6.940   3.942 -0.2181  0.1411 -0.2618
 1892TIP3    H1 5619   1.655   6.880   3.924  1.0150 -1.3812 -0.1987
 1892TIP3    H2 5620   1.737   6.990   3.860  0.2958 -1.4032 -1.1646
 1893TIP3   OH2 5621   1.306   7.608   4.060 -0.3706  0.3910 -0.0706
 1893TIP3    H1 5622   1.339   7.697   4.056  0.4459  0.0434 -1.2380
 1893TIP3    H2 5623   1.289   7.584   3.969  0.5833 -1.0615  0.1151
 1894TIP3   OH2 5624   4.066   0.101   2.987 -0.5054  0.3595 -0.1094
 1894TIP3    H1 5625   3.980   0.063   3.003 -0.3461  0.7410  1.7215
 1894TIP3    H2 5626   4.117   0.029   2.949 -1.1507 -0.3232  0.2937
 1895TIP3   OH2 5627   0.981   6.225   4.273  0.2084 -0.4414 -0.4584
 1895TIP3    H1 5628   1.018   6.142   4.241 -1.2702 -0.7569 -1.3910
 1895TIP3    H2 5629   0.892   6.202   4.299  0.3963  0.4797  1.0305
 1896TIP3   OH2 5630   4.566   1.354   2.519  0.0676 -0.0108 -0.1622
 1896TIP3    H1 5631   4.585   1.272   2.472 -0.8584 -1.0011  1.1433
 1896TIP3    H2 5632   4.578   1.422   2.453 -0.6391 -1.3209 -1.7062
 1897TIP3   OH2 5633   8.455   5.569   2.977  0.4669 -0.0406  0.1176
 1897TIP3    H1 5634   8.440   5.574   3.071 -0.7533 -4.1618  0.2470
 1897TIP3    H2 5635   8.535   5.517   2.968 -0.6614 -1.6219 -1.1154
 1898TIP3   OH2 5636   2.386   5.908   3.377  0.1007 -0.0475 -0.0911
 1898TIP3    H1 5637   2.338   5.988   3.400  1.8709  1.2890 -0.9608
 1898TIP3    H2 5638   2.317   5.843   3.360 -1.3549  1.2332  0.7569
 1899TIP3   OH2 5639   2.511   1.431   2.868  0.4776  0.0726  0.2815
 1899TIP3    H1 5640   2.591   1.455   2.915  0.5804 -2.5246  1.5293
 1899TIP3    H2 5641   2.526   1.341   2.839 -2.1657 -0.6249  0.9427
 1900TIP3   OH2 5642   0.154   6.638   3.598  0.3189  0.7486  0.4046
 1900TIP3    H1 5643   0.161   6.551   3.637  1.2846 -0.2554 -1.9135
 1900TIP3    H2 5644   0.168   6.699   3.670  1.8756 -1.0426  1.6419
 1901TIP3   OH2 5645   3.976   1.426   3.995  0.0192 -0.7673 -1.1306
 1901TIP3    H1 5646   3.927   1.344   3.995 -2.1000  0.4407  0.2634
 1901TIP3    H2 5647   3.964   1.462   3.907 -1.5869 -0.5137 -0.8233
 1902TIP3   OH2 5648   7.489   7.422   3.523 -0.0057 -0.3893 -1.1447
 1902TIP3    H1 5649   7.479   7.327   3.513 -0.9166 -0.6273  1.6202
 1902TIP3    H2 5650   7.404   7.458   3.497 -0.5330 -0.5548  0.3271
 1903TIP3   OH2 5651   0.537   1.114   3.903  0.0576  0.6002 -0.2321
 1903TIP3    H1 5652   0.546   1.077   3.815 -0.5652 -0.7257  0.2564
 1903TIP3    H2 5653   0.505   1.203   3.888  1.4388  0.9252 -1.4056
 1904TIP3   OH2 5654   2.271   2.004   3.144  1.1013 -1.0486 -0.4719
 1904TIP3    H1 5655   2.223   2.042   3.070  0.3973 -1.2771 -0.1343
 1904TIP3    H2 5656   2.359   1.988   3.110  1.6470  1.5686 -0.4260
 1905TIP3   OH2 5657   0.207   7.243   0.297  0.7138  0.3775 -0.4410
 1905TIP3    H1 5658   0.293   7.267   0.264  1.2463 -1.0684 -0.1324
 1905TIP3    H2 5659   0.212   7.148   0.311 -0.9846  0.2374 -0.6245
 1906TIP3   OH2 5660   1.844   0.340   4.005 -0.5655 -0.1129  0.5535
 1906TIP3    H1 5661   1.902   0.287   4.059 -0.2529 -0.8700 -0.5199
 1906TIP3    H2 5662   1.777   0.372   4.066 -1.3506 -2.5597  1.0158
 1907TIP3   OH2 5663   6.197   7.652   3.033 -0.2179  0.2508  0.3489
 1907TIP3    H1 5664   6.267   7.595   2.999 -0.3075 -0.3326  1.1223
 1907TIP3    H2 5665   6.126   7.641   2.970  0.0966  0.2070 -0.0016
 1908TIP3   OH2 5666   8.053   0.353   5.324  0.2508 -0.3609  0.7885
 1908TIP3    H1 5667   8.116   0.309   5.381  0.6233 -0.3099  0.4211
 1908TIP3    H2 5668   8.107   0.400   5.260 -0.1551 -3.0743 -1.6573
 1909TIP3   OH2 5669   6.165   1.521   5.395  0.4108 -0.0968 -0.0624
 1909TIP3    H1 5670   6.084   1.572   5.389  0.3301 -0.0738  1.0098
 1909TIP3    H2 5671   6.135   1.429   5.393  0.3834 -0.0894 -0.0046
 1910TIP3   OH2 5672   7.529   7.569   2.979 -0.3029 -0.1436 -0.1498
 1910TIP3    H1 5673   7.577   7.575   3.062 -0.0867 -0.4724 -0.2493
 1910TIP3    H2 5674   7.511   7.475   2.969 -1.1946  0.0135  0.0155
 1911TIP3   OH2 5675   0.248   6.201   2.695  0.1517  0.1173  0.2307
 1911TIP3    H1 5676   0.254   6.125   2.754  1.2333  0.8652  1.1042
 1911TIP3    H2 5677   0.336   6.208   2.657  0.0970  1.0249  0.2722
 1912TIP3   OH2 5678   2.307   0.974   4.102 -0.0266 -0.3257  0.6105
 1912TIP3    H1 5679   2.316   0.880   4.084 -1.1991 -0.8155  2.3641
 1912TIP3    H2 5680   2.222   0.982   4.146 -0.5973  1.7796 -0.7839
 1913TIP3   OH2 5681   4.723   1.717   4.672  0.5456 -0.2267 -0.1047
 1913TIP3    H1 5682   4.685   1.777   4.736 -0.6520 -2.0042  0.9085
 1913TIP3    H2 5683   4.817   1.718   4.691  0.3776  0.3699  0.7285
 1914TIP3   OH2 5684   4.625   1.089   5.673  0.4187  0.0317  0.6283
 1914TIP3    H1 5685   4.572   1.168   5.659 -0.2751 -0.4070  0.7499
 1914TIP3    H2 5686   4.620   1.074   5.767 -0.4072 -0.8089  0.4603
 1915TIP3   OH2 5687   3.699   0.283   1.019  0.2713 -0.4172  0.2875
 1915TIP3    H1 5688   3.619   0.238   1.046 -0.3828  0.0157 -0.8965
 1915TIP3    H2 5689   3.757   0.212   0.989 -0.8204 -0.4996 -1.7310
 1916TIP3   OH2 5690   0.475   1.844   5.300  0.3246  0.1059  0.1162
 1916TIP3    H1 5691   0.515   1.927   5.275  0.3094 -0.0322 -0.3896
 1916TIP3    H2 5692   0.416   1.824   5.227  0.7087 -0.5991 -0.0015
 1917TIP3   OH2 5693   6.643   0.694   2.534  0.3206 -0.1339 -0.8109
 1917TIP3    H1 5694   6.670   0.781   2.563  1.5793 -0.6493 -0.3844
 1917TIP3    H2 5695   6.566   0.709   2.480 -0.5311  1.0827  0.7055
 1918TIP3   OH2 5696   0.185   6.879   4.460  0.4460  0.2393  0.0314
 1918TIP3    H1 5697   0.130   6.955   4.483  0.3043 -0.0131  0.5269
 1918TIP3    H2 5698   0.265   6.918   4.423  0.7038  0.6471  1.0105
 1919TIP3   OH2 5699   4.761   0.732   3.078  0.7595 -0.0196 -0.4810
 1919TIP3    H1 5700   4.836   0.684   3.111 -0.1463 -0.1513  1.4707
 1919TIP3    H2 5701   4.686   0.698   3.128 -0.3794  1.0955 -1.3777
 1920TIP3   OH2 5702   1.804   5.205   4.456 -0.1384 -0.2062  0.2781
 1920TIP3    H1 5703   1.872   5.272   4.466  0.3123 -0.6674  0.3328
 1920TIP3    H2 5704   1.760   5.227   4.375  0.4515 -0.2305 -0.0520
 1921TIP3   OH2 5705   0.587   7.656   3.244  0.6582  0.4375 -0.2204
 1921TIP3    H1 5706   0.541   7.602   3.309  0.3546 -0.2839 -1.0236
 1921TIP3    H2 5707   0.554   7.744   3.259 -0.5551  0.0258 -0.3785
 1922TIP3   OH2 5708   0.912   7.954   3.576  0.2381  0.2644  0.2413
 1922TIP3    H1 5709   0.819   7.956   3.596 -0.3850  0.2817 -2.5204
 1922TIP3    H2 5710   0.917   7.963   3.481  3.0484  0.0269  0.3139
 1923TIP3   OH2 5711   2.057   0.803   4.517 -0.0491  0.6115 -0.1947
 1923TIP3    H1 5712   2.038   0.862   4.444  1.7453  2.8168  1.0230
 1923TIP3    H2 5713   2.052   0.859   4.594  1.5815 -0.8517  1.0263
 1924TIP3   OH2 5714   2.465   0.339   3.877 -0.3461 -0.0028  0.3416
 1924TIP3    H1 5715   2.477   0.425   3.837  0.6639 -0.2111  0.1661
 1924TIP3    H2 5716   2.550   0.295   3.865 -0.6393 -0.7724  1.0197
 1925TIP3   OH2 5717   4.776   2.305   5.759  0.2384 -0.1795  0.6084
 1925TIP3    H1 5718   4.718   2.379   5.739 -0.5746 -1.1487 -0.6905
 1925TIP3    H2 5719   4.781   2.304   5.854 -1.5870  0.1578  0.7235
 1926TIP3   OH2 5720   0.270   6.103   1.536 -0.5311  0.1855 -0.0255
 1926TIP3    H1 5721   0.177   6.078   1.532 -0.3215 -0.5176 -0.8006
 1926TIP3    H2 5722   0.308   6.041   1.598 -0.5386  0.3352  0.1279
 1927TIP3   OH2 5723   2.811   0.225   4.937 -0.1449  0.1284  0.2535
 1927TIP3    H1 5724   2.842   0.184   4.856  2.1203  0.6167  0.8395
 1927TIP3    H2 5725   2.819   0.157   5.004 -2.0623 -0.2902  0.0805
 1928TIP3   OH2 5726   1.657   1.732   2.884  0.8775  0.1725  0.0654
 1928TIP3    H1 5727   1.650   1.662   2.819  0.6041 -0.1536  0.4452
 1928TIP3    H2 5728   1.727   1.703   2.943 -0.6581 -0.7823  1.4471
 1929TIP3   OH2 5729   6.754   3.465   6.697 -0.2094  0.7594  0.1235
 1929TIP3    H1 5730   6.670   3.419   6.687 -0.1809  0.9282 -0.9736
 1929TIP3    H2 5731   6.814   3.398   6.729  0.1658 -0.3756 -2.7543
 1930TIP3   OH2 5732   0.729   7.411   3.596  0.0480 -0.2540  0.6370
 1930TIP3    H1 5733   0.671   7.353   3.645  0.9975 -0.7855  1.1365
 1930TIP3    H2 5734   0.725   7.379   3.505  0.7220 -1.2425  0.9440
 1931TIP3   OH2 5735   7.605   6.600   3.708 -0.3092 -0.1123  0.4503
 1931TIP3    H1 5736   7.624   6.616   3.800 -0.7399 -0.2616  0.5684
 1931TIP3    H2 5737   7.687   6.564   3.673  0.0594  0.5486  0.6172
 1932TIP3   OH2 5738   7.867   6.579   3.030 -0.2587 -0.0732  0.6961
 1932TIP3    H1 5739   7.896   6.627   2.953 -0.7779 -0.1821  0.4310
 1932TIP3    H2 5740   7.863   6.645   3.099 -1.2103  0.3279  0.2742
 1933TIP3   OH2 5741   7.229   6.238   3.709 -0.0787  0.2759 -0.1066
 1933TIP3    H1 5742   7.249   6.267   3.798 -0.2351 -0.4432  0.1673
 1933TIP3    H2 5743   7.204   6.146   3.719 -1.6003  0.6113 -0.7029
 1934TIP3   OH2 5744   1.902   6.431   1.479  0.0814  0.2103  0.5114
 1934TIP3    H1 5745   1.988   6.423   1.439 -0.1249 -2.4100  0.4993
 1934TIP3    H2 5746   1.915   6.406   1.570 -0.1751  2.4917  1.2060
 1935TIP3   OH2 5747   0.419   7.662   5.080  0.2373 -0.5755  0.2830
 1935TIP3    H1 5748   0.383   7.682   4.994 -0.9344  1.1757  1.1450
 1935TIP3    H2 5749   0.501   7.615   5.062  0.3243  0.3227 -1.7704
 1936TIP3   OH2 5750   3.028   1.388   2.819  0.0162  0.3651  0.2937
 1936TIP3    H1 5751   2.998   1.449   2.886  1.9542  1.3715  0.2781
 1936TIP3    H2 5752   3.122   1.378   2.835  0.3567 -0.0557 -1.7321
 1937TIP3   OH2 5753   2.698   7.981   2.572 -0.1936 -0.5025 -0.3320
 1937TIP3    H1 5754   2.636   8.038   2.527 -0.3693 -1.0866 -0.8487
 1937TIP3    H2 5755   2.745   7.937   2.501  1.0365  0.1763  0.0526
 1938TIP3   OH2 5756   7.258   7.245   3.383  0.0470  0.2516 -0.8296
 1938TIP3    H1 5757   7.163   7.237   3.391  0.0709  0.1460 -0.6574
 1938TIP3    H2 5758   7.293   7.168   3.427  0.1673 -0.4641 -2.1391
 1939TIP3   OH2 5759   1.250   7.773   4.576 -0.4564  0.3623  0.4364
 1939TIP3    H1 5760   1.193   7.848   4.563  1.3935  1.1228 -4.6054
 1939TIP3    H2 5761   1.330   7.809   4.614 -0.3284  0.6752 -0.1152
 1940TIP3   OH2 5762   7.895   7.074   2.599  0.5217  0.2503 -0.7220
 1940TIP3    H1 5763   7.981   7.034   2.588  0.6927  0.1002  1.0151
 1940TIP3    H2 5764   7.865   7.043   2.684 -0.4990  1.7199 -0.5236
 1941TIP3   OH2 5765   8.128   7.015   2.257 -0.5034  0.5670 -0.0694
 1941TIP3    H1 5766   8.039   7.013   2.222 -0.3009 -0.7466 -0.5306
 1941TIP3    H2 5767   8.177   7.066   2.192 -0.4048 -0.7916 -1.1001
 1942TIP3   OH2 5768   3.086   0.089   3.296 -0.1636 -0.2138  0.0253
 1942TIP3    H1 5769   3.084   0.129   3.208  0.5477 -0.1555  0.0334
 1942TIP3    H2 5770   3.003   0.115   3.335 -0.0995  0.5171 -0.3062
 1943TIP3   OH2 5771   4.367   0.045   3.298  0.2192  0.1536 -0.4343
 1943TIP3    H1 5772   4.361   0.100   3.220 -1.5251  0.7247  0.0775
 1943TIP3    H2 5773   4.391  -0.041   3.266 -0.0062  0.5010 -1.5495
 1944TIP3   OH2 5774   7.181   7.193   5.014  0.3421 -0.0456  0.2606
 1944TIP3    H1 5775   7.153   7.140   5.089  1.3419  0.6106  1.1177
 1944TIP3    H2 5776   7.212   7.275   5.054  0.9234  0.2875 -0.8728
 1945TIP3   OH2 5777   0.273   7.732   3.053  0.2337 -0.1787  0.5445
 1945TIP3    H1 5778   0.327   7.717   3.130 -0.0413 -0.3883  0.6968
 1945TIP3    H2 5779   0.306   7.814   3.016 -1.2899  1.2652  2.3101
 1946TIP3   OH2 5780   4.414   2.231   5.221 -1.1313  0.5841  0.4615
 1946TIP3    H1 5781   4.366   2.175   5.160 -0.4190 -0.2280  0.6465
 1946TIP3    H2 5782   4.500   2.242   5.181  0.1160 -1.7679  2.3591
 1947TIP3   OH2 5783   4.849   2.627   3.160 -0.1679 -0.2066  0.1983
 1947TIP3    H1 5784   4.933   2.582   3.174  0.2289  0.0465 -1.3223
 1947TIP3    H2 5785   4.783   2.561   3.177  0.4098 -1.3090 -1.7530
 1948TIP3   OH2 5786   1.217   7.211   4.503  0.0967  0.1819  0.0807
 1948TIP3    H1 5787   1.264   7.152   4.444  1.3652  0.4787  0.7708
 1948TIP3    H2 5788   1.279   7.283   4.519 -0.7641  0.8027  0.6462
 1949TIP3   OH2 5789   8.403   5.126   1.966  0.4994  0.2015 -0.4643
 1949TIP3    H1 5790   8.495   5.142   1.988  0.4216 -0.7459  0.6374
 1949TIP3    H2 5791   8.371   5.210   1.936  1.8206  0.4675 -1.1809
 1950TIP3   OH2 5792   1.809   0.776   1.973 -0.2456 -0.3118  0.1158
 1950TIP3    H1 5793   1.895   0.813   1.995 -0.2664  0.3848 -0.9569
 1950TIP3    H2 5794   1.765   0.765   2.057  0.9163 -0.7210  0.6841
 1951TIP3   OH2 5795   2.736   0.864   4.965 -0.8973 -0.2339 -0.0294
 1951TIP3    H1 5796   2.800   0.852   4.895 -0.3634  0.2944  0.3551
 1951TIP3    H2 5797   2.710   0.956   4.957 -0.0676  0.1109  1.0967
 1952TIP3   OH2 5798   2.049   0.103   1.063 -0.5349  0.0501  0.1545
 1952TIP3    H1 5799   1.978   0.166   1.052  1.2016  2.2278  1.1310
 1952TIP3    H2 5800   2.079   0.116   1.152  1.4484 -0.4784 -0.4175
 1953TIP3   OH2 5801   7.172   7.357   1.363  0.4827  0.1191  0.6686
 1953TIP3    H1 5802   7.140   7.396   1.444  1.0760 -0.6290  1.2823
 1953TIP3    H2 5803   7.248   7.305   1.390  0.2408 -0.7432 -0.2465
 1954TIP3   OH2 5804   2.955   1.071   3.457  0.1537  0.0740 -0.0032
 1954TIP3    H1 5805   3.028   1.100   3.512  1.5383  0.3109 -1.9251
 1954TIP3    H2 5806   2.972   0.979   3.441 -0.5929 -0.1536  0.4720
 1955TIP3   OH2 5807   1.496   7.969   2.637  0.3752 -0.5482  0.3305
 1955TIP3    H1 5808   1.508   7.917   2.557 -1.6240 -1.5190  0.6238
 1955TIP3    H2 5809   1.455   8.050   2.607 -0.1908 -0.8287  0.3373
 1956TIP3   OH2 5810   7.275   7.848   1.692 -0.1597 -0.6067  1.1049
 1956TIP3    H1 5811   7.228   7.875   1.771  0.2571 -0.7899  1.4151
 1956TIP3    H2 5812   7.211   7.858   1.622 -1.1060 -2.2479  1.7323
 1957TIP3   OH2 5813   2.302   1.437   4.781  0.2267  0.2026 -0.5864
 1957TIP3    H1 5814   2.301   1.359   4.837  0.7281  0.8295  0.3071
 1957TIP3    H2 5815   2.239   1.496   4.822  0.6200  0.6774 -0.6666
 1958TIP3   OH2 5816   4.647   1.751   3.990 -0.2099  0.3109 -0.4878
 1958TIP3    H1 5817   4.561   1.772   4.027 -0.0348 -1.3981  0.9273
 1958TIP3    H2 5818   4.629   1.730   3.899 -0.9736  2.1951 -0.8012
 1959TIP3   OH2 5819   4.690   1.873   4.895 -0.5336 -0.1553  0.4777
 1959TIP3    H1 5820   4.696   1.848   4.987  0.7808  1.8747  0.9665
 1959TIP3    H2 5821   4.778   1.901   4.871 -1.2204  0.8753 -0.9575
 1960TIP3   OH2 5822   0.532   6.589   1.902  0.2975  0.2422 -0.1260
 1960TIP3    H1 5823   0.592   6.514   1.907 -0.8340 -0.8950 -2.6639
 1960TIP3    H2 5824   0.571   6.646   1.835 -0.3133  0.5359 -0.2359
 1961TIP3   OH2 5825   5.876   1.387   4.171 -0.3045  0.5237  0.1389
 1961TIP3    H1 5826   5.835   1.438   4.101  3.0538  1.3162 -1.3082
 1961TIP3    H2 5827   5.869   1.296   4.141  0.9921  0.8516 -1.1707
 1962TIP3   OH2 5828   4.072   1.116   1.631  0.4287  0.4970 -0.3600
 1962TIP3    H1 5829   4.167   1.105   1.635  0.0809 -2.6221  0.1064
 1962TIP3    H2 5830   4.055   1.147   1.542  1.7971  0.1914 -0.7415
 1963TIP3   OH2 5831   2.159   0.261   4.648  0.1394  0.0676 -0.1190
 1963TIP3    H1 5832   2.180   0.256   4.555 -0.5932 -0.4970 -0.2652
 1963TIP3    H2 5833   2.163   0.170   4.678 -1.4223  0.0142 -0.0177
 1964TIP3   OH2 5834   2.156   0.940   5.178 -0.1139 -0.1828  0.6660
 1964TIP3    H1 5835   2.230   0.883   5.154 -0.2211 -0.5476  1.1977
 1964TIP3    H2 5836   2.185   0.986   5.256  0.2671  1.0818 -0.1982
 1965TIP3   OH2 5837   3.051   0.894   2.336 -0.1787  0.4461  0.4264
 1965TIP3    H1 5838   2.975   0.890   2.277 -0.9266 -0.4722  1.4226
 1965TIP3    H2 5839   3.032   0.969   2.393 -0.4309  0.1185  0.7802
 1966TIP3   OH2 5840   3.249   0.281   3.815 -0.2088  0.1430 -0.0630
 1966TIP3    H1 5841   3.192   0.298   3.890  2.5594  2.4152  1.6381
 1966TIP3    H2 5842   3.250   0.363   3.766  1.0081 -0.0750 -0.4310
 1967TIP3   OH2 5843   4.748   0.310   1.940 -0.4115  0.2449  0.0520
 1967TIP3    H1 5844   4.770   0.256   1.864 -0.8060  0.3224 -0.1222
 1967TIP3    H2 5845   4.796   0.271   2.013  0.2688  0.3960 -0.3129
 1968TIP3   OH2 5846   0.543   6.817   4.512 -0.0175  0.3045 -0.2259
 1968TIP3    H1 5847   0.637   6.833   4.523 -0.1966  0.4110  1.3802
 1968TIP3    H2 5848   0.522   6.851   4.425  1.7811 -1.4460 -1.3617
 1969TIP3   OH2 5849   4.404   0.509   1.538 -0.4326 -0.6008  0.5111
 1969TIP3    H1 5850   4.401   0.539   1.629 -0.4893  0.6193  0.1112
 1969TIP3    H2 5851   4.360   0.424   1.540 -2.7117  0.5528  1.2061
 1970TIP3   OH2 5852   0.329   6.973   2.512  0.2842 -0.0102  0.7342
 1970TIP3    H1 5853   0.237   6.999   2.519  0.4619  0.7748  0.2288
 1970TIP3    H2 5854   0.326   6.883   2.481 -0.3161  0.4140 -0.4844
 1971TIP3   OH2 5855   4.256   1.294   3.086  0.2542  0.4070  0.0570
 1971TIP3    H1 5856   4.219   1.265   3.169  1.2489  3.2635  1.5669
 1971TIP3    H2 5857   4.308   1.219   3.056 -0.8994 -1.0109  1.5225
 1972TIP3   OH2 5858   2.372   6.867   1.746 -0.3043 -0.0935 -0.6169
 1972TIP3    H1 5859   2.447   6.918   1.777  0.2938 -1.3594  0.0478
 1972TIP3    H2 5860   2.400   6.834   1.660 -0.9733  1.2804 -1.3791
 1973TIP3   OH2 5861   4.520   0.025   2.190  0.5677 -0.0132 -0.3438
 1973TIP3    H1 5862   4.479   0.111   2.204  3.8588  1.6177 -0.4184
 1973TIP3    H2 5863   4.496  -0.025   2.268  0.1268  1.5717  0.5750
 1974TIP3   OH2 5864   4.852   0.702   5.113 -0.3618 -0.1103 -0.3224
 1974TIP3    H1 5865   4.877   0.768   5.178 -1.7016  1.5789 -1.4683
 1974TIP3    H2 5866   4.886   0.737   5.030 -1.0285 -0.8935 -0.9281
 1975TIP3   OH2 5867   0.477   6.200   1.240  0.0369  0.7999 -0.0478
 1975TIP3    H1 5868   0.462   6.287   1.203  1.0455  1.7909  1.7993
 1975TIP3    H2 5869   0.507   6.217   1.329  2.0920 -1.3779 -0.2711
 1976TIP3   OH2 5870   1.851   0.525   5.413  0.3410  0.1453  0.4603
 1976TIP3    H1 5871   1.847   0.540   5.508 -1.5937 -0.5977  0.5257
 1976TIP3    H2 5872   1.888   0.606   5.378  1.2320  0.3600  1.8656
 1977TIP3   OH2 5873   0.832   6.527   2.638  0.3758  0.3454 -0.6340
 1977TIP3    H1 5874   0.880   6.573   2.707 -0.5636  0.5861 -0.1276
 1977TIP3    H2 5875   0.761   6.587   2.614 -1.0994 -0.9620  0.2992
 1978TIP3   OH2 5876   5.610   2.190   1.393  0.2344  0.5819 -0.1372
 1978TIP3    H1 5877   5.595   2.261   1.456  1.0811  0.3489  0.3271
 1978TIP3    H2 5878   5.561   2.217   1.315  0.4945  1.6535  0.0607
 1979TIP3   OH2 5879   6.439   2.325   4.432  0.0595  0.1103 -0.4909
 1979TIP3    H1 5880   6.521   2.308   4.478  0.2058  1.6351 -0.1755
 1979TIP3    H2 5881   6.383   2.251   4.456  0.6752  0.0577  0.8494
 1980TIP3   OH2 5882   5.665   0.153   4.252 -0.6946 -0.6543  0.4289
 1980TIP3    H1 5883   5.617   0.114   4.325 -1.7121 -0.0404  0.1040
 1980TIP3    H2 5884   5.619   0.236   4.235  0.3996 -0.1302  0.0134
 1981TIP3   OH2 5885   6.611   1.607   4.756  0.1163  0.1408 -0.4276
 1981TIP3    H1 5886   6.548   1.622   4.686  0.0361  0.2583 -0.3300
 1981TIP3    H2 5887   6.694   1.638   4.720 -0.1527  1.3821 -0.0117
 1982TIP3   OH2 5888   7.917   7.691   1.358  0.3951 -0.5454  0.1105
 1982TIP3    H1 5889   7.911   7.631   1.432  0.5749  0.0773  0.6341
 1982TIP3    H2 5890   7.907   7.778   1.397 -0.9192 -0.2841 -0.7601
 1983TIP3   OH2 5891   5.853   0.660   2.737 -0.1977 -0.7791  0.2068
 1983TIP3    H1 5892   5.811   0.672   2.822 -0.5279 -3.8914  0.5534
 1983TIP3    H2 5893   5.781   0.637   2.678  0.1789  0.3028 -0.6873
 1984TIP3   OH2 5894   2.787   7.670   3.241 -0.0539 -0.1032 -0.6535
 1984TIP3    H1 5895   2.693   7.659   3.256  0.0038  0.4279  0.1042
 1984TIP3    H2 5896   2.824   7.681   3.329  0.5824  0.7161 -1.0255
 1985TIP3   OH2 5897   2.565   7.163   1.783 -0.4119  0.2431 -0.3939
 1985TIP3    H1 5898   2.592   7.072   1.796  1.5088  0.9436  0.5878
 1985TIP3    H2 5899   2.503   7.180   1.854 -0.6920 -0.2514 -0.5151
 1986TIP3   OH2 5900   4.900   0.528   2.847 -0.0099 -0.3579 -0.1259
 1986TIP3    H1 5901   4.914   0.473   2.924 -0.1087  0.3090  0.3790
 1986TIP3    H2 5902   4.988   0.560   2.824 -0.0674  0.0035  0.1430
 1987TIP3   OH2 5903   4.169   0.354   2.954  0.4787  0.4439  0.2069
 1987TIP3    H1 5904   4.129   0.267   2.951 -0.7455  0.9866  0.7619
 1987TIP3    H2 5905   4.205   0.366   2.866 -0.9079  0.1122 -0.4110
 1988TIP3   OH2 5906   2.148   7.616   3.041  0.1108 -0.3969  0.5565
 1988TIP3    H1 5907   2.202   7.673   2.987  2.8168 -2.9518  0.4723
 1988TIP3    H2 5908   2.082   7.580   2.981 -0.3953  1.0944  0.2033
 1989TIP3   OH2 5909   4.885   0.787   1.155  0.0213  0.5402  0.8210
 1989TIP3    H1 5910   4.819   0.738   1.106  0.4884  1.7676 -1.0975
 1989TIP3    H2 5911   4.855   0.878   1.151  0.8187  0.8459  1.6118
 1990TIP3   OH2 5912   4.356   0.285   3.563 -0.0677  0.4886 -0.5433
 1990TIP3    H1 5913   4.406   0.256   3.487  1.0766 -1.0732  0.7832
 1990TIP3    H2 5914   4.354   0.210   3.621 -2.0201  1.2634  0.4403
 1991TIP3   OH2 5915   5.340   1.526   2.522  0.5144 -0.0624  0.0116
 1991TIP3    H1 5916   5.396   1.477   2.462  1.3812 -0.4250  1.0920
 1991TIP3    H2 5917   5.262   1.547   2.471  1.9228  1.0839 -1.7501
 1992TIP3   OH2 5918   0.718   6.915   0.961  0.1761 -0.1700 -0.1921
 1992TIP3    H1 5919   0.812   6.910   0.980 -0.0873 -2.3021  0.6545
 1992TIP3    H2 5920   0.711   6.896   0.868  0.6325  0.8650 -0.4530
 1993TIP3   OH2 5921   4.623   0.085   3.482  0.3107 -0.1844  0.2680
 1993TIP3    H1 5922   4.687   0.144   3.444  0.1284  0.4384  0.9241
 1993TIP3    H2 5923   4.562   0.066   3.410  1.4166 -1.0543 -0.4479
 1994TIP3   OH2 5924   5.208   0.333   2.905  0.0648 -0.3184  0.2231
 1994TIP3    H1 5925   5.177   0.299   2.821 -1.2357  0.3582  0.4048
 1994TIP3    H2 5926   5.303   0.323   2.901 -0.0680 -1.4357 -0.8206
 1995TIP3   OH2 5927   8.510   7.772   4.499 -0.1912  0.2430  0.2695
 1995TIP3    H1 5928   8.467   7.843   4.547 -0.0300  0.8974 -0.5550
 1995TIP3    H2 5929   8.500   7.795   4.407 -1.8613 -1.7741 -0.1018
 1996TIP3   OH2 5930   8.204   6.560   1.926  0.0749  0.0303  1.0249
 1996TIP3    H1 5931   8.109   6.549   1.927  0.1104 -0.4063  0.3550
 1996TIP3    H2 5932   8.236   6.481   1.883  0.5308  1.5293 -1.5187
 1997TIP3   OH2 5933   0.223   7.765   1.110 -0.2465 -0.0230  0.1115
 1997TIP3    H1 5934   0.158   7.742   1.176  0.8495  0.5141  1.3905
 1997TIP3    H2 5935   0.243   7.857   1.127  1.5231 -0.4312  0.3351
 1998TIP3   OH2 5936   0.810   7.035   5.063  0.4119  0.3709 -0.2764
 1998TIP3    H1 5937   0.792   6.997   4.977 -0.7597 -1.2143  0.6467
 1998TIP3    H2 5938   0.813   7.129   5.047 -1.2471  0.1945 -1.8009
 1999TIP3   OH2 5939   1.098   7.567   3.616  0.1830 -0.0590 -0.1543
 1999TIP3    H1 5940   1.129   7.629   3.550  1.4466 -0.7564 -0.2253
 1999TIP3    H2 5941   1.054   7.499   3.566  0.7621 -0.3652 -0.2540
 2000TIP3   OH2 5942   1.589   7.045   4.175 -0.3577  0.2715 -0.6876
 2000TIP3    H1 5943   1.555   7.079   4.092  1.0673  0.0982 -1.3526
 2000TIP3    H2 5944   1.684   7.051   4.167 -0.1927  1.0148  1.2545
 2001TIP3   OH2 5945   4.085   0.328   3.652 -0.1890 -0.0988  0.1748
 2001TIP3    H1 5946   4.173   0.325   3.615  0.5227  1.2640  1.6813
 2001TIP3    H2 5947   4.099   0.333   3.747 -1.7773  3.9057  0.2742
 2002TIP3   OH2 5948   5.011   1.298   1.846  0.1275  0.4975  0.0593
 2002TIP3    H1 5949   5.017   1.393   1.839 -1.7937  0.7183  1.1083
 2002TIP3    H2 5950   5.098   1.271   1.876  0.0488  2.1446  1.8763
 2003TIP3   OH2 5951   5.032   0.982   4.676  0.2183 -0.3441  0.3582
 2003TIP3    H1 5952   5.125   0.977   4.654  0.2027  0.4825  0.0820
 2003TIP3    H2 5953   5.015   1.076   4.685 -0.6966 -0.4682 -0.0747
 2004TIP3   OH2 5954   3.981   0.296   4.102  0.2487  0.1419 -0.7134
 2004TIP3    H1 5955   3.932   0.230   4.054 -0.7310  1.6913 -1.9080
 2004TIP3    H2 5956   3.918   0.367   4.115  1.2939  0.8527  0.4930
 2005TIP3   OH2 5957   1.409   7.629   2.995  0.2615 -0.2806 -0.8372
 2005TIP3    H1 5958   1.461   7.593   2.922  0.8443 -0.3818 -0.3762
 2005TIP3    H2 5959   1.329   7.576   2.996  1.2691 -1.8167  0.0628
 2006TIP3   OH2 5960   2.652   7.526   3.655 -0.5284 -0.0154  0.3995
 2006TIP3    H1 5961   2.648   7.444   3.606  0.6778  0.1649 -0.0221
 2006TIP3    H2 5962   2.590   7.583   3.611 -0.2354 -0.2020 -0.2621
 2007TIP3   OH2 5963   1.512   5.659   2.289  0.5643  0.0288 -0.0072
 2007TIP3    H1 5964   1.603   5.643   2.316  1.2712  2.1949 -1.0074
 2007TIP3    H2 5965   1.513   5.643   2.195 -0.6002 -1.9787  0.2966
 2008TIP3   OH2 5966   6.689   0.848   3.265  0.1866 -0.1070  0.6957
 2008TIP3    H1 5967   6.719   0.857   3.174  0.3821 -1.2305  0.6479
 2008TIP3    H2 5968   6.635   0.769   3.265 -0.5064  0.3662  1.3782
 2009TIP3   OH2 5969   0.531   7.591   1.476  0.0442  0.2455  0.7515
 2009TIP3    H1 5970   0.531   7.540   1.395 -0.3133  2.7398 -0.8642
 2009TIP3    H2 5971   0.624   7.607   1.493  0.0791  0.4517  0.3701
 2010TIP3   OH2 5972   0.985   6.643   3.341  0.2108 -0.1389  0.3821
 2010TIP3    H1 5973   0.968   6.725   3.387  1.7168  0.3619  0.0546
 2010TIP3    H2 5974   0.919   6.641   3.271 -0.0248  0.6482  0.5777
 2011TIP3   OH2 5975   4.530   0.801   1.064  0.0402  0.1683  0.4296
 2011TIP3    H1 5976   4.580   0.863   1.011 -0.6430  0.8928  0.6160
 2011TIP3    H2 5977   4.450   0.849   1.088 -0.5048 -0.7924  0.5631
 2012TIP3   OH2 5978   0.992   7.118   2.931 -0.7768 -0.6932 -0.1738
 2012TIP3    H1 5979   0.991   7.148   2.840 -0.9750 -1.6944 -0.4981
 2012TIP3    H2 5980   0.911   7.153   2.969 -0.1861  0.6229 -0.0811
 2013TIP3   OH2 5981   1.706   6.685   1.798  0.1919  0.2707  0.6282
 2013TIP3    H1 5982   1.720   6.744   1.724 -1.0353 -0.3167 -0.0913
 2013TIP3    H2 5983   1.611   6.678   1.806  0.2298 -3.1579 -0.6391
 2014TIP3   OH2 5984   6.801   1.262   2.633  0.1922 -0.4066 -0.2118
 2014TIP3    H1 5985   6.742   1.274   2.558  0.7571  0.2895 -0.5510
 2014TIP3    H2 5986   6.764   1.187   2.680 -1.7681  0.8477  0.3480
 2015TIP3   OH2 5987   0.998   6.856   2.155 -0.3365 -0.9150  0.1266
 2015TIP3    H1 5988   0.905   6.839   2.168 -0.5788 -0.3194 -0.7816
 2015TIP3    H2 5989   1.007   6.951   2.160  0.0270 -0.8857 -1.0100
 2016TIP3   OH2 5990   1.828   6.532   2.000  0.0154 -0.5164  0.0451
 2016TIP3    H1 5991   1.756   6.569   1.950 -0.2224 -0.5536  0.3596
 2016TIP3    H2 5992   1.788   6.500   2.081  0.7741  1.7660  1.3637
 2017TIP3   OH2 5993   5.655   0.199   2.807  0.2411 -0.2857 -0.2005
 2017TIP3    H1 5994   5.664   0.105   2.822  2.9387 -0.2829 -1.5648
 2017TIP3    H2 5995   5.687   0.212   2.717 -0.4159  1.8853 -0.1391
 2018TIP3   OH2 5996   1.171   7.521   4.454  0.5369  0.2901  0.3770
 2018TIP3    H1 5997   1.183   7.595   4.514  1.3124 -0.4036  1.0958
 2018TIP3    H2 5998   1.260   7.489   4.438  0.2432 -0.1868 -0.3174
 2019TIP3   OH2 5999   2.078   6.473   2.678  0.1474 -0.2739 -0.2737
 2019TIP3    H1 6000   2.014   6.526   2.630  0.2437 -0.5423 -0.7027
 2019TIP3    H2 6001   2.054   6.382   2.657  1.1826 -0.3651 -1.1136
 2020TIP3   OH2 6002   1.431   7.732   1.115  0.2892  0.6641 -0.2646
 2020TIP3    H1 6003   1.498   7.664   1.114 -1.0871 -0.7131 -0.4896
 2020TIP3    H2 6004   1.480   7.814   1.112  1.9995 -0.2922  0.6713
 2021TIP3   OH2 6005   6.371   0.081   4.810  0.3967  0.1315 -0.3799
 2021TIP3    H1 6006   6.337   0.012   4.754  0.7792 -0.8093  0.5267
 2021TIP3    H2 6007   6.461   0.054   4.830  0.6327  1.0123 -0.2160
 2022TIP3   OH2 6008   3.706   0.110   2.498 -0.3216 -0.0004 -0.6354
 2022TIP3    H1 6009   3.632   0.062   2.536 -0.6056  0.0867 -1.0796
 2022TIP3    H2 6010   3.774   0.105   2.565  0.3435 -2.6916 -1.4260
 2023TIP3   OH2 6011   6.526   1.420   2.049  0.0398  0.0498  0.0889
 2023TIP3    H1 6012   6.468   1.431   2.125  2.3043  2.0824  1.5844
 2023TIP3    H2 6013   6.478   1.461   1.977 -0.8135  0.8641  1.0914
 2024TIP3   OH2 6014   0.684   7.404   1.870 -0.0100 -0.6240  0.5748
 2024TIP3    H1 6015   0.682   7.334   1.935 -1.6727 -0.5094  0.6725
 2024TIP3    H2 6016   0.750   7.377   1.807 -0.4959 -2.1836  0.7269
 2025TIP3   OH2 6017   4.780   1.116   2.796 -0.0401 -0.4410 -0.1633
 2025TIP3    H1 6018   4.724   1.194   2.796  0.1611 -0.2962  0.9637
 2025TIP3    H2 6019   4.830   1.124   2.715 -1.5794 -0.5309 -1.1498
 2026TIP3   OH2 6020   5.681   0.706   2.944  0.4717 -0.3604  0.0247
 2026TIP3    H1 6021   5.589   0.724   2.923  0.9991  0.7250 -1.4677
 2026TIP3    H2 6022   5.701   0.765   3.016  1.0480  2.2193 -2.1834
 2027TIP3   OH2 6023   5.632   2.347   6.422  0.5996 -0.1476 -0.1698
 2027TIP3    H1 6024   5.612   2.335   6.515 -1.5991  0.0826 -0.5860
 2027TIP3    H2 6025   5.669   2.263   6.394  0.0529 -0.6441  0.5988
 2028TIP3   OH2 6026   2.064   0.362   3.244 -0.7026  0.7727  0.1334
 2028TIP3    H1 6027   1.984   0.390   3.200 -0.8490  0.6897  0.3450
 2028TIP3    H2 6028   2.132   0.417   3.207 -0.8149  0.6675 -0.2384
 2029TIP3   OH2 6029   2.925   0.136   2.125  0.3428  0.4036  0.4644
 2029TIP3    H1 6030   2.902   0.054   2.083 -0.3802  0.9856 -0.3048
 2029TIP3    H2 6031   2.992   0.113   2.190  0.6475 -0.6706 -0.2290
 2030TIP3   OH2 6032   5.544   2.407   2.428 -0.0535 -0.7683  0.2082
 2030TIP3    H1 6033   5.501   2.490   2.448 -2.2018 -0.9902 -3.0390
 2030TIP3    H2 6034   5.634   2.418   2.458 -0.2927  2.7694 -0.1734
 2031TIP3   OH2 6035   2.346   7.536   2.328  0.2394  0.1934 -0.0530
 2031TIP3    H1 6036   2.398   7.504   2.402 -0.4744 -0.1447  0.3069
 2031TIP3    H2 6037   2.385   7.621   2.307 -0.2903  0.8353  1.4677
 2032TIP3   OH2 6038   0.441   6.793   3.298 -0.2770 -0.3737  0.6720
 2032TIP3    H1 6039   0.468   6.884   3.284  0.1292 -0.4629  0.8777
 2032TIP3    H2 6040   0.515   6.753   3.344 -0.3253 -0.8886  0.3031
 2033TIP3   OH2 6041   1.584   1.136   4.481 -0.3601  0.0640  0.6190
 2033TIP3    H1 6042   1.501   1.121   4.526 -0.0232  0.7081  1.4574
 2033TIP3    H2 6043   1.610   1.224   4.508  1.6958 -0.9718  2.0608
 2034TIP3   OH2 6044   2.837   1.505   4.512 -0.1568 -0.1691 -0.3159
 2034TIP3    H1 6045   2.900   1.433   4.513 -0.2064 -0.2017  0.9854
 2034TIP3    H2 6046   2.776   1.483   4.441  1.1751 -0.2337 -1.4424
 2035TIP3   OH2 6047   3.262   6.055   3.891 -0.2937  0.1569 -0.0547
 2035TIP3    H1 6048   3.170   6.041   3.870 -0.0356  1.0059 -1.8045
 2035TIP3    H2 6049   3.288   6.129   3.837  1.1996  0.4764  1.0670
 2036TIP3   OH2 6050   3.517   7.870   4.310  0.6159 -0.3848 -0.6573
 2036TIP3    H1 6051   3.469   7.799   4.267 -0.3014  0.5334 -1.1810
 2036TIP3    H2 6052   3.467   7.949   4.289 -0.3057  0.0184  2.6561
 2037TIP3   OH2 6053   1.188   7.894   2.569  0.1952  0.1530  0.2028
 2037TIP3    H1 6054   1.185   7.864   2.660  1.4798  0.8706  0.5051
 2037TIP3    H2 6055   1.193   7.814   2.517 -0.7696 -0.2649  0.7577
 2038TIP3   OH2 6056   5.828   1.255   2.058 -0.4739 -0.3143  0.0870
 2038TIP3    H1 6057   5.740   1.234   2.089 -0.2383 -2.2008 -0.4403
 2038TIP3    H2 6058   5.885   1.196   2.108  0.2197 -0.9508 -1.4273
 2039TIP3   OH2 6059   6.201   1.193   4.289 -0.6303 -0.5617 -0.3459
 2039TIP3    H1 6060   6.292   1.187   4.260 -0.3099  2.9686 -0.3105
 2039TIP3    H2 6061   6.155   1.230   4.214 -1.7760 -1.0205  0.1234
 2040TIP3   OH2 6062   1.587   7.591   2.794  0.1523 -0.2810  0.1108
 2040TIP3    H1 6063   1.615   7.674   2.832 -0.1829 -0.8904  1.7386
 2040TIP3    H2 6064   1.664   7.559   2.748  0.5123  0.5851  0.1065
 2041TIP3   OH2 6065   0.270   7.906   3.484  0.0194  0.4120 -0.9092
 2041TIP3    H1 6066   0.249   7.973   3.419  0.6004  1.3778 -0.1126
 2041TIP3    H2 6067   0.316   7.953   3.553 -1.3451 -0.4559  0.6108
 2042TIP3   OH2 6068   5.216   1.217   5.291  0.4292  0.2403  0.4395
 2042TIP3    H1 6069   5.272   1.224   5.368  1.0384  2.6509 -0.1800
 2042TIP3    H2 6070   5.266   1.163   5.230  1.3406  0.9746  0.5302
 2043TIP3   OH2 6071   2.310   7.375   3.621  0.2037  0.3828 -0.3480
 2043TIP3    H1 6072   2.395   7.352   3.584  0.6888  0.6722  0.5915
 2043TIP3    H2 6073   2.253   7.301   3.598  1.5834 -1.5211  2.1438
 2044TIP3   OH2 6074   5.277   0.204   3.639  0.3427  0.0588  0.5574
 2044TIP3    H1 6075   5.327   0.283   3.615  1.1539 -0.9490 -1.1924
 2044TIP3    H2 6076   5.340   0.133   3.627 -1.7531 -1.3656 -2.7536
 2045TIP3   OH2 6077   1.463   7.508   3.488  0.7515  0.3142 -0.4707
 2045TIP3    H1 6078   1.437   7.588   3.533 -2.2009 -0.9661  0.2087
 2045TIP3    H2 6079   1.489   7.537   3.401 -1.2181  1.8924 -0.5552
 2046TIP3   OH2 6080   5.481   1.762   2.221 -0.2721  0.1330 -0.5345
 2046TIP3    H1 6081   5.441   1.836   2.176 -2.0940 -0.1839  0.5417
 2046TIP3    H2 6082   5.408   1.707   2.247  0.9251 -0.9301  0.6343
 2047TIP3   OH2 6083   4.516   0.460   2.577  0.3048 -0.2319 -0.7173
 2047TIP3    H1 6084   4.554   0.420   2.655 -3.3457 -2.2474  0.1649
 2047TIP3    H2 6085   4.543   0.551   2.581  2.0589 -0.8093  1.6882
 2048TIP3   OH2 6086   1.025   6.723   1.886  0.0890  0.2151 -0.0044
 2048TIP3    H1 6087   0.995   6.637   1.914  2.5940 -0.3078  1.2153
 2048TIP3    H2 6088   0.993   6.783   1.953 -0.1443 -0.0100  0.0849
 2049TIP3   OH2 6089   3.340   1.020   0.645  0.3428  0.2010  0.6749
 2049TIP3    H1 6090   3.433   0.998   0.643  0.9975  2.9256 -0.2120
 2049TIP3    H2 6091   3.321   1.037   0.737  0.5792 -0.8054  0.9232
 2050TIP3   OH2 6092   3.349   0.590   1.882 -0.1560 -0.6062 -0.0044
 2050TIP3    H1 6093   3.270   0.642   1.894  0.4288 -0.0260  1.3413
 2050TIP3    H2 6094   3.334   0.512   1.936  0.6592  0.0292  1.1552
 2051TIP3   OH2 6095   6.635   2.109   3.120  0.3763  0.2387 -0.3479
 2051TIP3    H1 6096   6.577   2.077   3.190  0.5087  0.8376  0.0371
 2051TIP3    H2 6097   6.670   2.029   3.081 -0.4197 -0.1232 -0.3403
 2052TIP3   OH2 6098   4.457   0.982   2.314  0.1167  0.2139 -0.7409
 2052TIP3    H1 6099   4.379   0.998   2.261 -1.1600  0.5940  1.2047
 2052TIP3    H2 6100   4.493   0.900   2.280 -1.6567 -0.4648 -1.0421
 2053TIP3   OH2 6101   4.637   1.070   1.628  0.0316  0.3678 -0.2051
 2053TIP3    H1 6102   4.682   1.116   1.698 -1.3410  1.8656 -0.2963
 2053TIP3    H2 6103   4.618   1.137   1.563  1.4147 -1.0125 -2.1067
 2054TIP3   OH2 6104   1.791   7.085   2.758 -0.6469 -0.1709  0.2145
 2054TIP3    H1 6105   1.778   6.993   2.736 -0.5654 -0.4603  1.3577
 2054TIP3    H2 6106   1.846   7.119   2.687  0.5452 -1.3564  0.5715
 2055TIP3   OH2 6107   1.408   6.599   1.959  0.1816  0.5255 -0.0376
 2055TIP3    H1 6108   1.397   6.504   1.959  1.8247  0.2969 -2.5472
 2055TIP3    H2 6109   1.380   6.626   2.047  0.0982 -2.3011  0.8690
 2056TIP3   OH2 6110   2.041   6.975   2.115  0.1573  0.2796  0.2708
 2056TIP3    H1 6111   2.072   6.940   2.032 -3.2728  0.1099 -1.0335
 2056TIP3    H2 6112   2.033   6.899   2.172 -0.6546 -0.1073 -0.3406
 2057TIP3   OH2 6113   6.289   0.968   3.437  0.3903  0.1680 -0.9768
 2057TIP3    H1 6114   6.320   1.015   3.514  1.2483  0.1065 -1.2755
 2057TIP3    H2 6115   6.297   0.875   3.462  3.0039  0.0699 -1.9882
 2058TIP3   OH2 6116   5.642   1.546   5.852  0.5144 -0.2675 -0.4475
 2058TIP3    H1 6117   5.588   1.606   5.801 -1.8431 -1.5340  0.4527
 2058TIP3    H2 6118   5.681   1.488   5.788  0.5711  0.4649 -1.0868
 2059TIP3   OH2 6119   8.419   6.927   3.948  0.4255 -0.1307 -0.0270
 2059TIP3    H1 6120   8.402   6.936   3.854  0.4840 -1.2022 -0.1454
 2059TIP3    H2 6121   8.465   7.007   3.972  1.7708 -0.5407 -1.2296
 2060TIP3   OH2 6122   5.723   1.193   2.958  0.1994  0.4788  0.0313
 2060TIP3    H1 6123   5.632   1.202   2.930 -0.1745  1.4445  1.4913
 2060TIP3    H2 6124   5.752   1.283   2.972  1.1157  0.1249  0.3837
 2061TIP3   OH2 6125   1.464   0.540   3.236  0.0062 -0.8943 -0.3721
 2061TIP3    H1 6126   1.508   0.556   3.152  0.2990 -0.0974 -0.0701
 2061TIP3    H2 6127   1.524   0.574   3.302 -0.7552 -0.4321  0.0927
 2062TIP3   OH2 6128   4.084   2.190   2.868 -0.6018 -0.0754  0.2607
 2062TIP3    H1 6129   4.040   2.207   2.952 -0.7086 -1.3759  0.4805
 2062TIP3    H2 6130   4.133   2.110   2.883 -0.2309 -0.0435 -0.7820
 2063TIP3   OH2 6131   4.379   3.071   3.034 -0.1409 -0.0913  0.1413
 2063TIP3    H1 6132   4.402   3.138   3.097 -0.1798 -0.8019  0.9191
 2063TIP3    H2 6133   4.314   3.112   2.977  0.6846  0.8945 -0.1028
 2064TIP3   OH2 6134   4.662   0.536   1.322  0.1914  0.3049 -0.5150
 2064TIP3    H1 6135   4.747   0.575   1.340 -0.0615  1.7633 -2.4239
 2064TIP3    H2 6136   4.609   0.558   1.399  1.8546 -1.6652  1.2513
 2065TIP3   OH2 6137   3.446   1.311   4.549 -0.2740  0.7957 -0.4247
 2065TIP3    H1 6138   3.420   1.381   4.489 -1.2226  0.0729 -0.8660
 2065TIP3    H2 6139   3.478   1.241   4.491  1.3431  1.1284  0.0444
 2066TIP3   OH2 6140   1.808   7.543   2.582 -0.3466 -0.0912  0.5670
 2066TIP3    H1 6141   1.809   7.607   2.512 -0.6539  0.5850  1.1715
 2066TIP3    H2 6142   1.830   7.460   2.540 -3.1699 -0.1946 -0.8189
 2067TIP3   OH2 6143   1.456   6.918   4.588 -0.2606  0.0088  0.0867
 2067TIP3    H1 6144   1.396   6.845   4.571  0.7746 -1.1184  1.1722
 2067TIP3    H2 6145   1.536   6.895   4.540 -0.2271  0.8426 -0.2623
 2068TIP3   OH2 6146   0.073   6.626   0.668 -0.0967  0.1214 -0.3310
 2068TIP3    H1 6147   0.138   6.598   0.604  2.0839  1.7295  1.0947
 2068TIP3    H2 6148  -0.005   6.647   0.617  0.0905 -2.9011 -1.9750
 2069TIP3   OH2 6149   4.935   1.637   2.784  0.2512 -0.2594 -1.1058
 2069TIP3    H1 6150   4.868   1.670   2.844  1.1276  0.3773 -0.4699
 2069TIP3    H2 6151   4.993   1.584   2.839  0.8960  0.0858 -1.4521
 2070TIP3   OH2 6152   7.780   3.578   5.628 -0.2575 -0.0539 -1.0838
 2070TIP3    H1 6153   7.828   3.497   5.645  0.1580  0.4828  0.3453
 2070TIP3    H2 6154   7.845   3.637   5.589 -0.2771 -0.0202 -1.0654
 2071TIP3   OH2 6155   2.024   7.852   2.065 -0.0706 -0.3254  0.0576
 2071TIP3    H1 6156   2.113   7.819   2.052  0.7647  1.2943  1.4290
 2071TIP3    H2 6157   1.978   7.782   2.111  0.9002 -0.6185  0.5917
 2072TIP3   OH2 6158   4.116   0.872   3.869 -0.2650  0.4511 -0.5944
 2072TIP3    H1 6159   4.115   0.777   3.872 -2.6449  0.3637 -2.7644
 2072TIP3    H2 6160   4.043   0.899   3.924  1.0913  1.1080  0.9442
 2073TIP3   OH2 6161   5.076   1.070   2.408 -0.3011 -0.4668 -0.8262
 2073TIP3    H1 6162   5.013   1.103   2.472  0.4572 -0.6802  0.0424
 2073TIP3    H2 6163   5.025   1.057   2.328 -1.2180 -0.0318 -0.3167
 2074TIP3   OH2 6164  -0.020   6.724   4.610  0.4946 -0.0337 -0.1118
 2074TIP3    H1 6165   0.043   6.664   4.650  0.3015 -0.4308 -0.4020
 2074TIP3    H2 6166   0.033   6.777   4.550  0.1300 -2.1182 -2.2954
 2075TIP3   OH2 6167   2.390   7.244   4.948 -0.3044  0.1518  0.5375
 2075TIP3    H1 6168   2.378   7.227   5.042 -2.1997  0.4861  0.3810
 2075TIP3    H2 6169   2.475   7.287   4.942  0.5782 -1.3562  1.9181
 2076TIP3   OH2 6170   4.856   1.113   5.208  0.0219 -0.2791  0.0880
 2076TIP3    H1 6171   4.769   1.143   5.182  0.2028  0.0965 -0.0980
 2076TIP3    H2 6172   4.913   1.138   5.135  0.6983  1.6544  1.2489
 2077TIP3   OH2 6173   6.080   0.534   1.982 -0.3257  0.2575  0.1153
 2077TIP3    H1 6174   6.110   0.458   1.933 -0.9594 -0.7223  1.1966
 2077TIP3    H2 6175   5.988   0.515   2.000 -1.6665  3.2318 -3.2194
 2078TIP3   OH2 6176   1.165   5.747   3.488  0.2821  0.0877  0.2233
 2078TIP3    H1 6177   1.081   5.768   3.529  0.1204  0.6728 -0.4019
 2078TIP3    H2 6178   1.143   5.727   3.397  0.8640  0.6182 -0.0402
 2079TIP3   OH2 6179   1.795   6.374   3.270 -0.2828 -0.6528  0.2999
 2079TIP3    H1 6180   1.853   6.315   3.222 -0.6475 -0.3328 -0.5522
 2079TIP3    H2 6181   1.722   6.389   3.211 -0.5446  0.0727  0.7975
 2080TIP3   OH2 6182   2.200   7.563   2.695 -0.2527 -0.5482 -0.1099
 2080TIP3    H1 6183   2.280   7.615   2.699  0.0227 -0.5783 -3.6651
 2080TIP3    H2 6184   2.222   7.481   2.740 -0.1988  1.6154  4.1178
 2081TIP3   OH2 6185   1.476   6.664   2.383  0.0246  0.5166 -0.0875
 2081TIP3    H1 6186   1.565   6.690   2.359  0.0519  0.5946  0.1002
 2081TIP3    H2 6187   1.428   6.746   2.392 -0.1979  0.4570 -0.6929
 2082TIP3   OH2 6188   1.420   7.190   3.684  0.4322  0.2414  0.1601
 2082TIP3    H1 6189   1.470   7.137   3.746  0.6125  0.5867  0.3069
 2082TIP3    H2 6190   1.481   7.207   3.613  0.4641  0.5096  0.2535
 2083TIP3   OH2 6191   0.745   7.303   3.358 -0.0475 -0.3973 -0.2219
 2083TIP3    H1 6192   0.741   7.316   3.263 -1.5163 -0.4521 -0.1817
 2083TIP3    H2 6193   0.828   7.258   3.373  0.4521  0.1246 -1.4240
 2084TIP3   OH2 6194   6.363   1.472   3.175 -0.1705  0.4731  0.1753
 2084TIP3    H1 6195   6.438   1.526   3.199  0.4112 -0.5002  0.5301
 2084TIP3    H2 6196   6.347   1.417   3.251 -1.2079  0.6301  0.0806
 2085TIP3   OH2 6197   6.260   5.308   6.819 -0.4302  0.0097 -0.0865
 2085TIP3    H1 6198   6.278   5.270   6.732  0.5128  0.1095  0.0613
 2085TIP3    H2 6199   6.201   5.382   6.801  1.8890  1.7027 -0.9599
 2086TIP3   OH2 6200   1.185   5.994   4.394  0.3100 -0.5198 -0.1729
 2086TIP3    H1 6201   1.143   5.990   4.308  2.5557 -0.8866 -1.2984
 2086TIP3    H2 6202   1.278   6.008   4.374  0.9668 -1.4036  2.1790
 2087TIP3   OH2 6203   4.781   1.520   5.131  0.4832  0.6362  0.1698
 2087TIP3    H1 6204   4.713   1.468   5.088  0.4592 -0.1098  1.0972
 2087TIP3    H2 6205   4.776   1.495   5.223  1.0357  1.6644  0.4886
 2088TIP3   OH2 6206   8.035   0.717   2.938  0.7079  0.3628 -0.7867
 2088TIP3    H1 6207   7.979   0.673   2.874 -0.0372  1.1044 -0.6476
 2088TIP3    H2 6208   8.013   0.674   3.021 -0.3716  1.2947 -0.5693
 2089TIP3   OH2 6209   4.714   0.131   2.658  0.1942 -0.0385 -0.2751
 2089TIP3    H1 6210   4.777   0.111   2.589  0.5120 -2.2828  0.6253
 2089TIP3    H2 6211   4.745   0.082   2.734 -2.4902 -1.0039  0.2544
 2090TIP3   OH2 6212   1.267   7.255   4.018  0.1225  0.1260 -0.2512
 2090TIP3    H1 6213   1.200   7.309   3.976  0.2214 -0.1450 -0.7622
 2090TIP3    H2 6214   1.234   7.165   4.010  1.7783 -0.2927 -2.8621
 2091TIP3   OH2 6215   5.113   0.483   1.026  0.1366 -0.3509 -0.3756
 2091TIP3    H1 6216   5.043   0.473   0.961 -0.3580 -0.4488  0.1653
 2091TIP3    H2 6217   5.132   0.577   1.026 -1.4267 -0.0060  0.9350
 2092TIP3   OH2 6218   5.581   0.374   3.906  0.0403 -0.1653 -0.3043
 2092TIP3    H1 6219   5.565   0.285   3.875  0.8191 -0.0456 -1.0998
 2092TIP3    H2 6220   5.610   0.421   3.827 -1.2917  1.0326 -0.1024
 2093TIP3   OH2 6221   4.786   0.995   3.508  0.0617  0.4757  0.5138
 2093TIP3    H1 6222   4.876   0.979   3.480  1.0130  1.1092  3.0628
 2093TIP3    H2 6223   4.794   1.056   3.581 -2.5288  1.4255  0.0638
 2094TIP3   OH2 6224   4.463   0.372   3.290  0.5239  0.0669 -0.2632
 2094TIP3    H1 6225   4.479   0.458   3.251  1.5392 -0.3948 -0.8770
 2094TIP3    H2 6226   4.452   0.314   3.215 -1.1045 -0.1859  0.1453
 2095TIP3   OH2 6227   3.917   0.099   3.752  0.1166  0.0813  0.4491
 2095TIP3    H1 6228   3.994   0.109   3.696  1.1751 -1.0158  1.6835
 2095TIP3    H2 6229   3.859   0.040   3.704  0.2486  0.5061 -0.2442
 2096TIP3   OH2 6230   3.984   5.499   3.963 -0.3944  0.6578  0.3803
 2096TIP3    H1 6231   3.986   5.541   4.049 -0.0007  2.0771 -0.3069
 2096TIP3    H2 6232   4.058   5.439   3.963 -0.2779  0.7991  0.9620
 2097TIP3   OH2 6233   3.427   7.030   2.617  0.3712 -0.4308 -0.1652
 2097TIP3    H1 6234   3.478   7.004   2.540 -1.0291  0.1200 -1.2933
 2097TIP3    H2 6235   3.356   6.966   2.620  0.7705 -0.8345  1.0619
 2098TIP3   OH2 6236   8.378   7.646   3.542 -0.1994  0.0161 -0.2859
 2098TIP3    H1 6237   8.284   7.632   3.542 -0.2316  0.2307 -0.2775
 2098TIP3    H2 6238   8.415   7.565   3.576 -0.3695 -0.1530 -0.5011
 2099TIP3   OH2 6239   5.967   2.389   5.293  0.0602  0.9392 -0.7903
 2099TIP3    H1 6240   5.905   2.416   5.361  1.7911  1.3088  0.6968
 2099TIP3    H2 6241   5.988   2.298   5.315  0.5702  1.0348 -0.8797
 2100TIP3   OH2 6242   5.106   0.923   3.732  0.2386 -0.8780 -0.1610
 2100TIP3    H1 6243   5.153   0.904   3.651  0.7583 -1.1995  0.2103
 2100TIP3    H2 6244   5.078   1.014   3.723  1.0922 -0.6297 -0.3043
 2101TIP3   OH2 6245   4.875   0.091   2.417  0.1564 -0.2992  0.4525
 2101TIP3    H1 6246   4.834   0.100   2.331  2.2426  1.1343 -0.4347
 2101TIP3    H2 6247   4.965   0.121   2.404  0.2739  0.7953  3.3418
 2102TIP3   OH2 6248   6.464   0.724   2.061  0.2861 -0.6561 -0.1397
 2102TIP3    H1 6249   6.553   0.759   2.059 -0.1615  0.5454  0.4912
 2102TIP3    H2 6250   6.408   0.796   2.033 -0.4660 -1.5262 -0.9277
 2103TIP3   OH2 6251   0.542   7.555   0.676  0.0940  0.2145  0.0791
 2103TIP3    H1 6252   0.501   7.475   0.709  0.1629 -0.0618 -0.4970
 2103TIP3    H2 6253   0.597   7.585   0.748 -0.3167  0.0148  0.4786
 2104TIP3   OH2 6254   4.160   0.017   4.416 -0.5552  0.3195  0.3334
 2104TIP3    H1 6255   4.217  -0.056   4.391 -0.4597  0.2314  0.8115
 2104TIP3    H2 6256   4.172   0.081   4.346 -2.0499 -0.8767 -1.0538
 2105TIP3   OH2 6257   8.166   7.075   3.297 -0.7170  0.0184  0.4914
 2105TIP3    H1 6258   8.178   7.113   3.384 -3.0366  0.2763  0.7481
 2105TIP3    H2 6259   8.216   6.993   3.299  2.6208  1.9996  0.6341
 2106TIP3   OH2 6260   4.065   0.370   3.382 -0.0733 -0.0202 -0.3882
 2106TIP3    H1 6261   4.038   0.364   3.474 -1.4564 -1.0839 -0.8480
 2106TIP3    H2 6262   4.091   0.281   3.358  0.9054  0.3829 -0.8461
 2107TIP3   OH2 6263   1.547   7.972   1.117 -0.2770 -0.0201 -0.2401
 2107TIP3    H1 6264   1.642   7.971   1.104 -0.1960  0.4643  0.2562
 2107TIP3    H2 6265   1.531   8.056   1.161 -0.7513 -0.7684  1.0259
 2108TIP3   OH2 6266   1.211   6.549   3.219 -0.5125 -0.1477  0.0887
 2108TIP3    H1 6267   1.129   6.557   3.269 -0.0528  2.5612  0.4736
 2108TIP3    H2 6268   1.279   6.569   3.283  0.4500 -1.7117 -0.4120
 2109TIP3   OH2 6269   2.295   0.720   4.046 -0.7136  0.0961  0.5071
 2109TIP3    H1 6270   2.306   0.712   3.951 -1.0156  0.9956  0.3896
 2109TIP3    H2 6271   2.222   0.662   4.067 -2.7225  2.2576 -0.2815
 2110TIP3   OH2 6272   1.726   7.857   0.606  0.6255  0.1233  0.3633
 2110TIP3    H1 6273   1.784   7.928   0.635  0.7635  0.6764 -1.2311
 2110TIP3    H2 6274   1.665   7.846   0.679 -0.3259  2.9034  0.0671
 2111TIP3   OH2 6275   6.516   7.063   4.413  0.3158 -0.5201  0.4659
 2111TIP3    H1 6276   6.537   7.103   4.498 -3.0403  0.8675  0.6856
 2111TIP3    H2 6277   6.554   7.123   4.349  1.3312 -0.6427  0.9388
 2112TIP3   OH2 6278   1.584   1.290   3.820  0.3537 -0.4663  0.0214
 2112TIP3    H1 6279   1.636   1.369   3.810  0.4320 -0.8541 -2.9996
 2112TIP3    H2 6280   1.498   1.321   3.848  0.6646  0.6111 -0.2097
 2113TIP3   OH2 6281   5.051   0.634   3.995 -0.4963  0.3457  0.6588
 2113TIP3    H1 6282   4.991   0.623   3.921  0.5995 -1.6866  0.0251
 2113TIP3    H2 6283   5.107   0.708   3.969 -1.8757  1.4121  0.6883
 2114TIP3   OH2 6284   3.311   1.974   2.833  0.3778 -0.3490 -1.1512
 2114TIP3    H1 6285   3.284   2.065   2.817  0.8756  0.2271  1.0882
 2114TIP3    H2 6286   3.229   1.926   2.840  0.1122 -0.1449 -2.6227
 2115TIP3   OH2 6287   5.213   0.425   4.130 -1.1562 -0.0628  0.1522
 2115TIP3    H1 6288   5.139   0.447   4.187 -2.5315 -0.3593 -1.4507
 2115TIP3    H2 6289   5.209   0.490   4.060 -0.7003 -0.8579 -0.6333
 2116TIP3   OH2 6290   5.472   0.763   4.359 -0.3915  0.3921 -0.0577
 2116TIP3    H1 6291   5.462   0.770   4.454  0.0055  1.0390 -0.0627
 2116TIP3    H2 6292   5.382   0.760   4.326 -0.5398  1.8567  0.2162
 2117TIP3   OH2 6293   3.990   1.510   3.102  0.1894 -0.0285 -0.4199
 2117TIP3    H1 6294   4.028   1.443   3.160  1.4563 -0.1952 -1.4139
 2117TIP3    H2 6295   3.950   1.574   3.162 -0.0037 -1.0587  0.5767
 2118TIP3   OH2 6296   2.527   2.488   4.380 -0.7922  0.0124 -0.5151
 2118TIP3    H1 6297   2.602   2.459   4.328 -1.3767  0.7276 -1.8014
 2118TIP3    H2 6298   2.498   2.569   4.337 -1.8853  0.0979  0.3527
 2119TIP3   OH2 6299   0.640   7.726   2.078 -0.0294 -0.1561  0.2384
 2119TIP3    H1 6300   0.558   7.698   2.035 -1.7777  0.5304  3.0023
 2119TIP3    H2 6301   0.675   7.646   2.116 -1.8803  0.2651  2.9808
 2120TIP3   OH2 6302   3.711   1.024   1.679 -0.3617 -0.5093  0.1141
 2120TIP3    H1 6303   3.734   0.934   1.659 -0.0839 -0.5233  0.4921
 2120TIP3    H2 6304   3.677   1.059   1.597 -1.6917 -1.3422  0.3030
 2121TIP3   OH2 6305   4.547   1.300   1.496  0.0555 -0.4147 -0.0180
 2121TIP3    H1 6306   4.548   1.367   1.564 -1.5766 -0.8319  0.4317
 2121TIP3    H2 6307   4.457   1.300   1.463  0.3972 -1.3989 -0.9839
 2122TIP3   OH2 6308   3.446   0.821   4.010  0.0021 -0.1196 -0.0410
 2122TIP3    H1 6309   3.416   0.872   4.085 -0.1497 -0.5567  0.1931
 2122TIP3    H2 6310   3.453   0.731   4.042 -0.0798 -0.3128 -0.5539
 2123TIP3   OH2 6311   3.729   2.188   3.516 -0.3161  0.2874 -0.0055
 2123TIP3    H1 6312   3.767   2.258   3.463 -0.1843  0.9087  0.8949
 2123TIP3    H2 6313   3.685   2.131   3.453  1.5158 -0.0712 -0.9817
 2124TIP3   OH2 6314   6.012   1.332   3.799 -0.7150  0.0986 -0.3336
 2124TIP3    H1 6315   5.933   1.281   3.815 -0.9662  0.9308  1.1088
 2124TIP3    H2 6316   6.016   1.340   3.703 -2.0021 -0.5223 -0.4456
 2125TIP3   OH2 6317   4.678   0.761   3.605 -0.7805  0.2589 -0.0420
 2125TIP3    H1 6318   4.639   0.804   3.681  3.9062  0.4389  2.4172
 2125TIP3    H2 6319   4.708   0.833   3.549 -0.7360  0.1424 -0.1687
 2126TIP3   OH2 6320   2.473   7.858   1.820  0.0325 -0.1001 -0.5206
 2126TIP3    H1 6321   2.510   7.770   1.819  0.6778  0.1456  1.0650
 2126TIP3    H2 6322   2.549   7.916   1.823 -0.4184  0.4338  1.3714
 2127TIP3   OH2 6323   8.206   1.072   2.985 -0.3428 -0.5013 -0.8117
 2127TIP3    H1 6324   8.117   1.049   3.011  0.1773 -0.2365  1.2926
 2127TIP3    H2 6325   8.232   1.003   2.924 -2.2505 -0.1465 -2.0655
 2128TIP3   OH2 6326   6.501   0.845   2.836  0.3129 -0.8767 -0.4677
 2128TIP3    H1 6327   6.563   0.773   2.824 -0.0271 -1.3287  0.4245
 2128TIP3    H2 6328   6.438   0.812   2.900 -1.8977 -1.0904 -2.6702
 2129TIP3   OH2 6329   0.973   6.658   1.116 -0.8375  0.1394  0.5151
 2129TIP3    H1 6330   1.030   6.730   1.142  0.9511 -1.4482  1.1072
 2129TIP3    H2 6331   0.896   6.668   1.172 -0.7461  1.7519  0.3804
 2130TIP3   OH2 6332   1.702   7.351   2.181 -0.2188  0.2717  0.0092
 2130TIP3    H1 6333   1.670   7.327   2.094  0.2779 -0.7442  0.1048
 2130TIP3    H2 6334   1.795   7.330   2.179  0.3866  2.7841 -0.1107
 2131TIP3   OH2 6335   0.183   0.998   5.039 -0.1286 -0.0229 -0.7582
 2131TIP3    H1 6336   0.177   0.902   5.032 -1.3779 -0.0922  1.0927
 2131TIP3    H2 6337   0.229   1.014   5.121 -0.3848  0.9759 -0.8035
 2132TIP3   OH2 6338   8.085   0.572   3.215 -0.2349 -0.4712 -0.0167
 2132TIP3    H1 6339   8.017   0.578   3.282  1.0092  1.6208  1.1356
 2132TIP3    H2 6340   8.167   0.563   3.264  0.3793 -2.7876 -1.3759
 2133TIP3   OH2 6341   6.103   0.927   3.232 -0.1045  0.1041  0.2355
 2133TIP3    H1 6342   6.173   0.887   3.181  0.0941  0.2653  0.3818
 2133TIP3    H2 6343   6.148   0.977   3.300 -0.3258  1.4497 -0.5904
 2134TIP3   OH2 6344   2.640   7.247   2.648 -0.1186 -0.4319  0.0174
 2134TIP3    H1 6345   2.638   7.318   2.584 -2.4142  0.9710  1.5845
 2134TIP3    H2 6346   2.551   7.212   2.648  0.0142 -0.8023  2.0105
 2135TIP3   OH2 6347   8.488   2.756   2.232  0.3480  0.5849  0.3758
 2135TIP3    H1 6348   8.427   2.689   2.201  0.0889  1.2722 -0.6248
 2135TIP3    H2 6349   8.513   2.727   2.319 -0.9884  0.0028  0.5833
 2136TIP3   OH2 6350   4.572   7.933   2.226  0.3487  0.7547  0.4444
 2136TIP3    H1 6351   4.541   7.898   2.143 -0.9990  1.9702  0.4239
 2136TIP3    H2 6352   4.502   7.991   2.256  1.0554  0.7730  2.1518
 2137TIP3   OH2 6353   7.602   2.605   2.243  0.2519 -0.1682 -0.2425
 2137TIP3    H1 6354   7.556   2.533   2.200 -0.5964  0.5996 -0.6284
 2137TIP3    H2 6355   7.637   2.658   2.172 -0.9727  0.9870  0.0054
 2138TIP3   OH2 6356   0.194   0.435   3.185 -1.0035 -0.0086 -0.1270
 2138TIP3    H1 6357   0.132   0.390   3.242 -1.6803 -0.8719 -1.5239
 2138TIP3    H2 6358   0.151   0.438   3.099 -1.0509  3.4582 -0.0526
 2139TIP3   OH2 6359   6.532   0.039   3.468 -0.4156 -0.1423  0.2340
 2139TIP3    H1 6360   6.535   0.115   3.525  0.3970  0.2224 -0.2785
 2139TIP3    H2 6361   6.620   0.001   3.473 -0.5959 -0.6210 -0.0856
 2140TIP3   OH2 6362   6.699   1.021   5.094  0.2810  0.6847  0.5493
 2140TIP3    H1 6363   6.714   0.930   5.121  0.6374  0.7609  0.6086
 2140TIP3    H2 6364   6.641   1.057   5.160  0.4383  0.6088  0.7272
 2141TIP3   OH2 6365   2.845   6.610   1.208  0.6081  0.0283 -0.8255
 2141TIP3    H1 6366   2.848   6.656   1.124 -0.4488 -1.6025 -1.7741
 2141TIP3    H2 6367   2.796   6.530   1.190 -0.3310  0.0294  1.5433
 2142TIP3   OH2 6368   3.835   0.741   0.481  0.3280 -0.0322  0.0986
 2142TIP3    H1 6369   3.930   0.752   0.484  0.6858 -1.6974 -2.4980
 2142TIP3    H2 6370   3.823   0.646   0.479 -1.4527  0.1573  1.2228
 2143TIP3   OH2 6371   6.054   0.694   2.316 -0.5790  0.3012 -1.3149
 2143TIP3    H1 6372   6.020   0.746   2.244  0.6210  1.0961 -1.3332
 2143TIP3    H2 6373   6.047   0.752   2.393 -0.5261 -0.0156 -1.0694
 2144TIP3   OH2 6374   7.164   0.787   4.578  0.3502  0.1094 -0.2083
 2144TIP3    H1 6375   7.170   0.793   4.483  1.0361  0.6231 -0.1385
 2144TIP3    H2 6376   7.224   0.716   4.601 -0.4568 -0.5838 -0.2282
 2145TIP3   OH2 6377   4.400   6.769   1.968  0.0444  0.2349  0.3491
 2145TIP3    H1 6378   4.405   6.852   2.017  0.0021  1.0554 -1.0157
 2145TIP3    H2 6379   4.380   6.703   2.035  1.1131  1.1603  1.6096
 2146TIP3   OH2 6380   5.168   0.698   0.646 -0.3323 -0.2944 -0.1647
 2146TIP3    H1 6381   5.097   0.752   0.681 -0.9133 -0.1933 -1.4885
 2146TIP3    H2 6382   5.238   0.706   0.711 -0.6806  1.4569  0.0166
 2147TIP3   OH2 6383   7.814   0.681   3.940 -0.5335  0.0861  0.2942
 2147TIP3    H1 6384   7.883   0.683   4.007 -0.6249 -0.4560  0.4038
 2147TIP3    H2 6385   7.734   0.697   3.989 -0.8265 -2.1927  0.6076
 2148TIP3   OH2 6386   3.990   0.877   1.746  0.9352 -0.2765 -0.6344
 2148TIP3    H1 6387   3.992   0.949   1.682  1.8028  0.4718  0.2084
 2148TIP3    H2 6388   4.069   0.890   1.798  0.6574 -1.3636  0.0671
 2149TIP3   OH2 6389   4.850   7.520   2.226  0.0827  1.1192 -0.1136
 2149TIP3    H1 6390   4.875   7.457   2.159  1.1901  1.5343 -0.1071
 2149TIP3    H2 6391   4.891   7.487   2.306 -0.4944  1.0980  0.1722
 2150TIP3   OH2 6392   7.562   0.636   0.334 -0.0175  0.2640 -0.2184
 2150TIP3    H1 6393   7.483   0.585   0.352 -0.5745  0.5942 -1.6884
 2150TIP3    H2 6394   7.608   0.586   0.267  0.6464  0.4569  0.0917
 2151TIP3   OH2 6395   6.071   2.132   2.268 -0.3089  0.1854 -0.2695
 2151TIP3    H1 6396   6.145   2.100   2.215 -0.1853 -1.8956  1.1044
 2151TIP3    H2 6397   6.014   2.175   2.205  1.3191  0.4550 -1.6136
 2152TIP3   OH2 6398   4.911   7.726   4.790 -0.2477 -0.5122  0.1810
 2152TIP3    H1 6399   4.864   7.750   4.870 -0.4377  1.1394 -0.4048
 2152TIP3    H2 6400   5.001   7.710   4.819 -0.2985  0.1493  0.7364
 2153TIP3   OH2 6401   3.140   6.933   3.705 -0.4909 -0.3674  0.5118
 2153TIP3    H1 6402   3.068   6.919   3.767 -1.5336  2.0462 -0.0990
 2153TIP3    H2 6403   3.144   6.852   3.654 -1.2727 -1.3971  2.0519
 2154TIP3   OH2 6404   4.026   7.487   2.445  0.4211 -0.0736  0.1028
 2154TIP3    H1 6405   3.968   7.561   2.467 -0.2639 -0.3661 -0.7097
 2154TIP3    H2 6406   4.111   7.527   2.432 -0.0226  0.6330 -0.6849
 2155TIP3   OH2 6407   5.811   0.378   4.038 -0.2301 -0.1170 -0.2106
 2155TIP3    H1 6408   5.746   0.342   3.978 -0.8671  1.7999 -0.6802
 2155TIP3    H2 6409   5.781   0.467   4.057  0.6997 -0.2031  1.8541
 2156TIP3   OH2 6410   4.258   7.879   4.438 -0.3074 -0.3197  0.3641
 2156TIP3    H1 6411   4.243   7.874   4.343  1.5120  0.6519 -0.0009
 2156TIP3    H2 6412   4.170   7.884   4.476 -1.0106  3.0505 -1.5102
 2157TIP3   OH2 6413   2.922   3.872   6.492 -0.2589 -0.3800 -0.4800
 2157TIP3    H1 6414   2.973   3.838   6.565 -0.0254 -0.9637 -0.9045
 2157TIP3    H2 6415   2.879   3.795   6.455 -1.1419  0.0527 -0.3686
 2158TIP3   OH2 6416   8.297   1.886   3.950  0.3181  0.3387 -0.0743
 2158TIP3    H1 6417   8.250   1.935   4.018 -1.4629  1.3310 -1.9630
 2158TIP3    H2 6418   8.276   1.794   3.969 -0.0392  0.5877  0.7966
 2159TIP3   OH2 6419   0.296   1.757   2.018  0.0692 -0.0838 -0.5608
 2159TIP3    H1 6420   0.235   1.826   2.043  0.7665  0.5351 -0.5788
 2159TIP3    H2 6421   0.240   1.681   2.001 -0.6350  0.2653  0.1760
 2160TIP3   OH2 6422   7.562   0.920   4.030  0.1131 -0.5724  0.1792
 2160TIP3    H1 6423   7.543   0.916   4.124  1.2282 -2.1923  0.3767
 2160TIP3    H2 6424   7.486   0.880   3.988 -0.0334 -0.5897  0.4609
 2161TIP3   OH2 6425   6.133   0.314   1.536 -0.2265 -0.2645 -0.0272
 2161TIP3    H1 6426   6.181   0.378   1.485 -0.2689  0.2539  0.5789
 2161TIP3    H2 6427   6.154   0.230   1.495  0.6423  0.0263 -0.1851
 2162TIP3   OH2 6428   8.182   1.237   1.440  0.3643  0.5645  0.2699
 2162TIP3    H1 6429   8.120   1.310   1.439  0.8160  0.9512  0.2499
 2162TIP3    H2 6430   8.254   1.266   1.384  1.4571  0.8936  1.8029
 2163TIP3   OH2 6431   6.684   1.099   2.851  0.2509 -0.0854 -0.5433
 2163TIP3    H1 6432   6.715   1.160   2.918 -0.5096  1.1580 -1.3102
 2163TIP3    H2 6433   6.688   1.013   2.894  2.9750  0.2667 -0.0387
 2164TIP3   OH2 6434   2.923   3.423   4.959 -0.0037  0.1017  0.1517
 2164TIP3    H1 6435   2.854   3.440   4.895  1.0313  0.9461 -0.7571
 2164TIP3    H2 6436   3.002   3.462   4.921  0.4895  1.2580  2.2754
 2165TIP3   OH2 6437   8.341   0.891   4.639 -0.6978  0.2527 -0.4681
 2165TIP3    H1 6438   8.399   0.966   4.622 -2.1978  1.6846  0.5392
 2165TIP3    H2 6439   8.373   0.855   4.722  0.0501 -0.2411 -0.9721
 2166TIP3   OH2 6440   6.732   1.511   1.377 -0.0917 -0.4944 -0.5955
 2166TIP3    H1 6441   6.659   1.456   1.349  0.0369 -2.0876  2.0364
 2166TIP3    H2 6442   6.694   1.568   1.444  1.1722 -1.7013  1.1693
 2167TIP3   OH2 6443   1.402   2.448   3.407 -0.2322 -0.3057 -0.7524
 2167TIP3    H1 6444   1.360   2.482   3.486  1.2444  0.2289 -0.1785
 2167TIP3    H2 6445   1.353   2.489   3.335 -2.0578 -1.3746 -0.1513
 2168TIP3   OH2 6446   6.488   1.818   3.472 -0.7100 -0.2852 -0.3287
 2168TIP3    H1 6447   6.546   1.872   3.526  1.3488  0.4526 -3.1593
 2168TIP3    H2 6448   6.411   1.873   3.458 -1.5166 -0.6788  2.1749
 2169TIP3   OH2 6449   2.649   7.865   1.210  0.3887 -0.2255 -0.5905
 2169TIP3    H1 6450   2.610   7.785   1.176  2.1037 -1.5780  0.5050
 2169TIP3    H2 6451   2.717   7.888   1.146 -0.1831  0.4414 -0.9677
 2170TIP3   OH2 6452   4.726   1.278   1.817 -0.6508 -0.0936  0.0228
 2170TIP3    H1 6453   4.821   1.284   1.827 -0.4855 -1.6940 -0.4507
 2170TIP3    H2 6454   4.701   1.361   1.777  0.8100 -0.4355 -1.6667
 2171TIP3   OH2 6455   7.347   0.070   3.255 -0.1792  0.2568  0.1906
 2171TIP3    H1 6456   7.420   0.049   3.313 -1.8061  1.7730  2.8808
 2171TIP3    H2 6457   7.285  -0.001   3.268  0.8590 -1.1972 -2.3306
 2172TIP3   OH2 6458   5.801   2.684   5.411 -0.1835  0.3207 -0.2672
 2172TIP3    H1 6459   5.712   2.700   5.378 -0.1319  1.1110 -0.0429
 2172TIP3    H2 6460   5.805   2.733   5.493  0.1953 -0.3785  0.1361
 2173TIP3   OH2 6461   6.351   0.521   3.676 -0.3382  0.3734  0.1700
 2173TIP3    H1 6462   6.285   0.479   3.621  1.0558 -0.1020 -1.1648
 2173TIP3    H2 6463   6.367   0.606   3.635 -0.4514  0.6879  0.7606
 2174TIP3   OH2 6464   6.860   0.947   3.463 -0.0903  0.0535  0.7575
 2174TIP3    H1 6465   6.893   1.030   3.428 -0.1996  0.7787  2.3017
 2174TIP3    H2 6466   6.789   0.923   3.404  0.4524  0.6587 -0.1531
 2175TIP3   OH2 6467   6.062   0.285   3.287 -0.0120 -0.6323  0.2745
 2175TIP3    H1 6468   6.142   0.316   3.243  0.0590 -0.6444  0.3923
 2175TIP3    H2 6469   6.030   0.361   3.333  0.7998 -1.0210  1.5060
 2176TIP3   OH2 6470   0.615   0.981   3.005 -0.2280  0.3546  0.1283
 2176TIP3    H1 6471   0.645   1.035   3.078 -1.1772  1.1037 -0.0243
 2176TIP3    H2 6472   0.665   1.014   2.930 -1.3521  1.5681 -0.1149
 2177TIP3   OH2 6473   8.193   2.636   3.233 -0.1469  0.5392  0.3354
 2177TIP3    H1 6474   8.200   2.563   3.172 -1.5773  1.1769 -0.5969
 2177TIP3    H2 6475   8.178   2.594   3.318  1.1876 -0.3167  0.1666
 2178TIP3   OH2 6476   8.410   0.478   3.080 -0.3380  0.4500  0.8615
 2178TIP3    H1 6477   8.424   0.564   3.120 -0.7429  0.4187  1.0698
 2178TIP3    H2 6478   8.421   0.493   2.986  1.5248  0.3530  1.0305
 2179TIP3   OH2 6479   1.809   6.778   3.042  0.0818 -0.0381  0.5979
 2179TIP3    H1 6480   1.759   6.697   3.047 -0.4697  0.2213 -0.5862
 2179TIP3    H2 6481   1.746   6.844   3.013  1.2901  0.0982 -1.8300
 2180TIP3   OH2 6482   4.390   0.448   1.112 -0.2647  0.5595  0.0142
 2180TIP3    H1 6483   4.405   0.436   1.018  0.3023 -0.7257  0.2622
 2180TIP3    H2 6484   4.440   0.527   1.134 -0.3468  0.8341 -0.7355
 2181TIP3   OH2 6485   6.985   0.980   5.392 -0.1557 -0.3486 -0.0848
 2181TIP3    H1 6486   6.998   0.918   5.321 -0.6389  0.6371 -1.0589
 2181TIP3    H2 6487   6.894   0.967   5.419 -0.5894  0.6406 -1.0084
 2182TIP3   OH2 6488   3.950   0.268   2.340  0.1408 -0.1921 -0.0566
 2182TIP3    H1 6489   4.034   0.252   2.384 -0.7463  3.1668  3.1072
 2182TIP3    H2 6490   3.892   0.201   2.374  0.4312  0.1223  1.0655
 2183TIP3   OH2 6491   2.034   7.843   2.469 -0.2277 -0.0729 -0.3889
 2183TIP3    H1 6492   2.019   7.936   2.450  1.6051  0.2015 -0.5691
 2183TIP3    H2 6493   2.110   7.819   2.415 -0.3994 -1.5622  0.0044
 2184TIP3   OH2 6494   6.273   0.341   0.458  0.1641  0.0207  0.0903
 2184TIP3    H1 6495   6.364   0.332   0.487  0.0690 -2.3472 -0.2875
 2184TIP3    H2 6496   6.253   0.258   0.416 -1.9676  0.7922 -0.4587
 2185TIP3   OH2 6497   7.606   1.724   4.494  0.5176 -0.1513  0.2418
 2185TIP3    H1 6498   7.669   1.652   4.495  1.2650  0.4756 -0.4658
 2185TIP3    H2 6499   7.659   1.802   4.507 -0.1388  0.3671 -0.1772
 2186TIP3   OH2 6500   6.383   0.296   3.473  0.2223 -0.2041 -0.4750
 2186TIP3    H1 6501   6.434   0.275   3.395  1.8281  0.1742  0.4478
 2186TIP3    H2 6502   6.448   0.322   3.538 -1.2803  1.9969  0.2081
 2187TIP3   OH2 6503   5.991   0.238   2.133 -0.2314  0.0016 -0.3714
 2187TIP3    H1 6504   6.019   0.171   2.196  0.4058  0.7114  0.1101
 2187TIP3    H2 6505   5.997   0.320   2.182  1.2081  0.6715 -1.6503
 2188TIP3   OH2 6506   6.833   0.798   4.422 -0.2668  0.1568 -0.1365
 2188TIP3    H1 6507   6.821   0.847   4.504  0.1241 -1.3247  0.8283
 2188TIP3    H2 6508   6.921   0.820   4.394 -0.1364  0.1177  0.2344
 2189TIP3   OH2 6509   0.919   0.150   2.833 -0.1251  0.1567  0.1543
 2189TIP3    H1 6510   0.861   0.176   2.905  0.0671 -1.0077  0.7331
 2189TIP3    H2 6511   0.869   0.167   2.754 -0.6417  0.6874  0.5887
 2190TIP3   OH2 6512   8.446   2.566   6.155  0.0416  0.0475 -0.0025
 2190TIP3    H1 6513   8.504   2.602   6.088  0.0890 -0.2247 -0.1079
 2190TIP3    H2 6514   8.505   2.535   6.224  0.0663 -0.8874 -0.4312
 2191TIP3   OH2 6515   5.898   1.750   3.960  0.2486  0.3801 -0.0361
 2191TIP3    H1 6516   5.980   1.707   3.983  0.5441  0.8507 -0.2026
 2191TIP3    H2 6517   5.904   1.837   3.999 -0.5247  0.1323  0.6523
 2192TIP3   OH2 6518   0.280   0.393   4.630  0.0809  0.1564 -0.6142
 2192TIP3    H1 6519   0.301   0.484   4.608 -0.2519  0.3080 -0.3004
 2192TIP3    H2 6520   0.323   0.342   4.561 -0.4454  0.6015 -1.2839
 2193TIP3   OH2 6521   4.574   6.884   1.311 -0.2242  0.0745  0.5518
 2193TIP3    H1 6522   4.516   6.936   1.365 -0.7792  0.4013 -0.3378
 2193TIP3    H2 6523   4.642   6.853   1.370 -0.9771  0.1794  1.4836
 2194TIP3   OH2 6524   5.879   1.118   5.298  0.1512  0.3239 -0.4525
 2194TIP3    H1 6525   5.873   1.031   5.260  1.1138 -0.1413  0.4253
 2194TIP3    H2 6526   5.973   1.133   5.308 -0.0782  0.4804  1.6133
 2195TIP3   OH2 6527   7.095   1.546   4.859  0.0834  0.0210 -0.0585
 2195TIP3    H1 6528   7.151   1.502   4.795 -1.3609  0.0280 -1.3516
 2195TIP3    H2 6529   7.032   1.479   4.886 -0.3953  0.5050  0.0367
 2196TIP3   OH2 6530   6.556   1.355   3.912  0.1351 -0.2228  0.0609
 2196TIP3    H1 6531   6.643   1.365   3.951  1.5731 -1.7597 -2.5568
 2196TIP3    H2 6532   6.518   1.279   3.955  0.4363 -0.0555  0.6191
 2197TIP3   OH2 6533   0.700   0.633   2.373  0.0141  0.0915 -0.5882
 2197TIP3    H1 6534   0.777   0.605   2.424 -0.0312 -0.9116 -1.0573
 2197TIP3    H2 6535   0.707   0.585   2.291  0.4235  2.1824 -1.8123
 2198TIP3   OH2 6536   2.315   4.371   6.156 -0.2714 -0.1430 -0.1413
 2198TIP3    H1 6537   2.359   4.407   6.233  0.2042  1.6965 -1.2565
 2198TIP3    H2 6538   2.379   4.381   6.086 -1.3413 -0.2867 -1.1401
 2199TIP3   OH2 6539   3.627   6.530   2.363 -0.3770 -0.5359  0.1455
 2199TIP3    H1 6540   3.686   6.510   2.435  1.4186 -1.9048 -1.6502
 2199TIP3    H2 6541   3.679   6.515   2.284 -2.2519  1.0412 -1.4497
 2200TIP3   OH2 6542   5.044   1.632   2.520  0.1469 -0.1778  0.2264
 2200TIP3    H1 6543   5.008   1.630   2.608 -0.0428  0.3880  0.1571
 2200TIP3    H2 6544   4.989   1.571   2.470  0.8350 -1.2299  0.7191
 2201TIP3   OH2 6545   6.513   0.815   1.393 -0.8106  0.0090 -0.1599
 2201TIP3    H1 6546   6.529   0.851   1.305 -0.6144 -0.3288 -0.2639
 2201TIP3    H2 6547   6.570   0.738   1.398  0.0210  0.6563  0.6692
 2202TIP3   OH2 6548   6.228   1.664   1.216  0.3094 -0.4956  0.2782
 2202TIP3    H1 6549   6.232   1.721   1.293 -0.5898 -2.8010  2.0722
 2202TIP3    H2 6550   6.150   1.694   1.168 -0.4257 -0.4954  1.4591
 2203TIP3   OH2 6551   5.834   0.314   4.828 -0.1209 -0.5383  0.5930
 2203TIP3    H1 6552   5.849   0.396   4.874  0.6546 -0.1666 -0.3178
 2203TIP3    H2 6553   5.838   0.337   4.735  1.2497 -1.8072  0.3247
 2204TIP3   OH2 6554   0.327   4.902   6.619  0.2356  0.4519  0.2832
 2204TIP3    H1 6555   0.326   4.813   6.585 -1.1327  2.0541 -4.1676
 2204TIP3    H2 6556   0.234   4.927   6.623  0.6243  1.8410  0.9944
 2205TIP3   OH2 6557   0.491   0.632   4.768  0.1223  0.4014 -0.2285
 2205TIP3    H1 6558   0.513   0.720   4.800  1.4063 -0.5983  1.7548
 2205TIP3    H2 6559   0.406   0.613   4.807  0.4177  0.2860  0.3719
 2206TIP3   OH2 6560   4.487   0.684   0.183 -0.8038 -0.0296 -0.6740
 2206TIP3    H1 6561   4.403   0.655   0.148 -1.2459 -0.3505  0.5969
 2206TIP3    H2 6562   4.463   0.740   0.258  0.0992  0.5503 -0.8176
 2207TIP3   OH2 6563   6.423   1.315   4.600  0.7276 -0.1164  0.0595
 2207TIP3    H1 6564   6.511   1.328   4.564  0.8821 -0.3316  0.3530
 2207TIP3    H2 6565   6.368   1.376   4.551  0.9879 -0.1871 -0.3280
 2208TIP3   OH2 6566   3.962   7.969   1.810 -0.2031 -0.2011 -0.2425
 2208TIP3    H1 6567   3.893   8.036   1.810 -2.0061 -1.9438  2.1431
 2208TIP3    H2 6568   3.919   7.889   1.779  1.5074 -0.6618 -1.5218
 2209TIP3   OH2 6569   0.306   4.250   6.674 -0.7612  0.1388  0.0948
 2209TIP3    H1 6570   0.361   4.293   6.740  0.4231  0.0406 -0.8222
 2209TIP3    H2 6571   0.367   4.207   6.615 -1.8514 -0.6191 -0.5076
 2210TIP3   OH2 6572   4.759   2.189   4.096  0.0104  0.5607 -0.2514
 2210TIP3    H1 6573   4.812   2.224   4.168 -0.4806  1.0265 -0.1090
 2210TIP3    H2 6574   4.812   2.118   4.059  0.5886  0.8058  0.0952
 2211TIP3   OH2 6575   3.819   1.423   0.548 -0.2347  0.0868 -0.3659
 2211TIP3    H1 6576   3.770   1.371   0.484 -1.0933  0.7066 -0.2190
 2211TIP3    H2 6577   3.858   1.359   0.607  1.7770 -0.5918 -2.3427
 2212TIP3   OH2 6578   0.353   0.938   2.642 -0.2200 -0.2456 -0.0998
 2212TIP3    H1 6579   0.377   1.029   2.623  0.3401 -0.8389 -2.2978
 2212TIP3    H2 6580   0.425   0.886   2.606  0.2905 -1.5097  2.5989
 2213TIP3   OH2 6581   8.298   0.669   2.434 -0.1822 -0.3940 -0.1564
 2213TIP3    H1 6582   8.239   0.619   2.378 -1.6617 -0.8599  1.7355
 2213TIP3    H2 6583   8.386   0.639   2.412 -0.7502 -0.6499 -2.1023
 2214TIP3   OH2 6584   8.326   0.326   2.804 -0.2314 -0.3388  0.0695
 2214TIP3    H1 6585   8.365   0.271   2.872  0.6253 -0.9989 -0.9472
 2214TIP3    H2 6586   8.367   0.412   2.816  0.1226 -0.5251  0.1998
 2215TIP3   OH2 6587   4.082   6.551   3.597 -0.2129 -0.1275 -0.0286
 2215TIP3    H1 6588   4.171   6.566   3.567 -0.1256 -0.1078  0.2455
 2215TIP3    H2 6589   4.091   6.520   3.687 -0.5194  0.6656  0.2856
 2216TIP3   OH2 6590   1.579   7.273   2.659  0.4813  0.0700  0.2376
 2216TIP3    H1 6591   1.539   7.189   2.634 -0.3442 -0.3902  2.9135
 2216TIP3    H2 6592   1.644   7.250   2.725  1.3215  1.4161 -0.0952
 2217TIP3   OH2 6593   3.569   7.033   2.376 -0.1429 -0.1825  0.0846
 2217TIP3    H1 6594   3.517   7.003   2.302 -0.3124  0.5553 -0.1024
 2217TIP3    H2 6595   3.629   7.098   2.339  1.4053 -1.5160  0.1664
 2218TIP3   OH2 6596   7.698   0.064   5.034  0.0093 -0.2655 -0.3484
 2218TIP3    H1 6597   7.721   0.136   4.974  1.5467 -0.5528 -0.1355
 2218TIP3    H2 6598   7.782   0.038   5.073 -0.5355 -2.1891 -0.4297
 2219TIP3   OH2 6599   6.957   0.076   2.067  0.5274 -0.1464  0.2000
 2219TIP3    H1 6600   7.053   0.077   2.066  0.5252  1.4456 -0.2568
 2219TIP3    H2 6601   6.932   0.146   2.006 -0.9201  0.3339  1.3191
 2220TIP3   OH2 6602   3.334   7.865   1.324 -0.1332  0.6009 -0.8302
 2220TIP3    H1 6603   3.256   7.914   1.350 -0.4049  0.9060 -2.1679
 2220TIP3    H2 6604   3.340   7.878   1.229 -0.0120 -1.6410 -1.1687
 2221TIP3   OH2 6605   7.704   3.869   3.062 -0.1452  0.3396  0.3517
 2221TIP3    H1 6606   7.718   3.797   3.000 -0.2695 -2.0302  2.9755
 2221TIP3    H2 6607   7.790   3.884   3.102 -0.5250  0.2801  1.2114
 2222TIP3   OH2 6608   4.062   7.873   2.208 -0.2178  0.2899 -0.1631
 2222TIP3    H1 6609   4.080   7.927   2.131 -1.4976  0.4149 -0.3729
 2222TIP3    H2 6610   3.994   7.812   2.179 -0.3448  0.0079  0.7282
 2223TIP3   OH2 6611   4.726   0.114   1.763 -0.4073 -0.4582 -0.4920
 2223TIP3    H1 6612   4.634   0.092   1.782 -1.3290 -0.8406 -4.9876
 2223TIP3    H2 6613   4.773   0.031   1.775 -0.0235  0.3057  4.5574
 2224TIP3   OH2 6614   5.721   1.883   3.306 -0.2293 -0.0054  0.2831
 2224TIP3    H1 6615   5.785   1.951   3.284 -1.5192  0.9469 -0.6111
 2224TIP3    H2 6616   5.646   1.932   3.340 -1.7497 -0.8581 -1.7453
 2225TIP3   OH2 6617   0.482   4.214   6.481  0.1820  0.1038  0.3154
 2225TIP3    H1 6618   0.464   4.301   6.445 -1.0447  0.4734  1.7534
 2225TIP3    H2 6619   0.575   4.199   6.463  0.2999  1.5321 -0.3177
 2226TIP3   OH2 6620   4.963   1.877   4.339  0.2090  0.3342 -0.0334
 2226TIP3    H1 6621   5.045   1.829   4.327  0.9741  1.2529  1.4441
 2226TIP3    H2 6622   4.990   1.966   4.360 -1.2047  1.1974 -1.7331
 2227TIP3   OH2 6623   8.315   0.502   1.119 -0.0504 -0.0852 -0.0566
 2227TIP3    H1 6624   8.235   0.463   1.083  0.1300  0.9482 -1.6443
 2227TIP3    H2 6625   8.386   0.447   1.085  0.0275  0.0137 -0.0532
 2228TIP3   OH2 6626   3.447   0.186   3.989  0.1044 -0.1766  0.2181
 2228TIP3    H1 6627   3.366   0.197   3.938 -0.4456 -0.5611  0.9955
 2228TIP3    H2 6628   3.508   0.248   3.950 -0.6452  0.2960 -0.2238
 2229TIP3   OH2 6629   7.789   3.131   5.933 -0.2623 -0.2092  0.3918
 2229TIP3    H1 6630   7.837   3.211   5.956  0.8289 -0.3509 -1.3088
 2229TIP3    H2 6631   7.723   3.160   5.870 -0.2521 -0.5598  0.2228
 2230TIP3   OH2 6632   7.374   0.522   6.134  0.0214  0.2464 -0.2862
 2230TIP3    H1 6633   7.355   0.497   6.043  0.1466  1.2980 -0.6111
 2230TIP3    H2 6634   7.296   0.498   6.183  0.2440 -1.0264 -0.5313
 2231TIP3   OH2 6635   4.906   1.007   2.204  0.1468 -0.2217 -0.0248
 2231TIP3    H1 6636   4.932   0.918   2.180 -1.9004 -0.8671  0.0790
 2231TIP3    H2 6637   4.812   1.010   2.187 -0.3663  0.9979  2.8135
 2232TIP3   OH2 6638   8.295   1.264   3.983  0.6770 -0.6616  0.0231
 2232TIP3    H1 6639   8.301   1.333   3.917  0.6587 -1.3840 -0.7271
 2232TIP3    H2 6640   8.204   1.267   4.013  0.2511 -1.4254 -1.1622
 2233TIP3   OH2 6641   5.991   1.383   3.537  0.6941 -0.6960 -0.1331
 2233TIP3    H1 6642   5.989   1.466   3.490  0.5706 -1.1377 -0.9072
 2233TIP3    H2 6643   5.954   1.319   3.477 -0.5046 -1.0624  0.9695
 2234TIP3   OH2 6644   6.789   3.145   2.978 -0.1817  0.2169 -0.5925
 2234TIP3    H1 6645   6.771   3.178   3.066  0.2678 -1.5802  0.2094
 2234TIP3    H2 6646   6.860   3.201   2.946  0.3555  0.2507  0.6017
 2235TIP3   OH2 6647   6.045   1.644   3.382 -0.7043  0.1062  0.3621
 2235TIP3    H1 6648   6.132   1.611   3.405 -1.2898 -2.2763 -0.7175
 2235TIP3    H2 6649   6.062   1.721   3.327  0.6807  1.1686  2.2088
 2236TIP3   OH2 6650   0.631   0.882   4.410 -0.1890  0.1015  0.1337
 2236TIP3    H1 6651   0.579   0.943   4.462 -1.3469 -0.6095 -0.1665
 2236TIP3    H2 6652   0.619   0.912   4.320  0.6681  0.4864  0.1463
 2237TIP3   OH2 6653   6.664   1.092   4.092 -0.0858  0.1723 -0.0226
 2237TIP3    H1 6654   6.609   1.019   4.066 -0.9400  0.9819 -0.5431
 2237TIP3    H2 6655   6.752   1.068   4.063 -0.5098 -0.2820 -0.9407
 2238TIP3   OH2 6656   6.655   0.589   3.814 -0.4012 -0.2277  0.3604
 2238TIP3    H1 6657   6.578   0.574   3.868 -0.0920 -2.6789  0.1513
 2238TIP3    H2 6658   6.729   0.574   3.873 -0.0553  0.7013  0.1827
 2239TIP3   OH2 6659   4.522   6.947   3.137  0.6074  0.1759 -0.0670
 2239TIP3    H1 6660   4.439   6.932   3.090  0.7604 -0.9760  0.0208
 2239TIP3    H2 6661   4.586   6.965   3.068  0.9902 -2.2509 -0.3642
 2240TIP3   OH2 6662   5.360   2.935   3.638 -0.5352  0.5505 -0.1627
 2240TIP3    H1 6663   5.411   3.005   3.597 -2.2112  1.9159 -0.0030
 2240TIP3    H2 6664   5.314   2.894   3.565  2.4382 -2.1312 -0.5922
 2241TIP3   OH2 6665   2.949   1.039   5.491  0.7043  0.2068  0.0030
 2241TIP3    H1 6666   2.900   0.968   5.532 -0.6293  1.2428  0.2226
 2241TIP3    H2 6667   2.968   1.007   5.403  0.6911 -0.6958  0.3280
 2242TIP3   OH2 6668   7.502   2.127   5.464  0.5316  0.1190  0.4977
 2242TIP3    H1 6669   7.533   2.198   5.522  1.5407  1.0563 -1.1492
 2242TIP3    H2 6670   7.571   2.061   5.469  0.5854  0.1696  0.4339
 2243TIP3   OH2 6671   7.131   1.394   2.372  0.1739  0.2876 -0.2237
 2243TIP3    H1 6672   7.083   1.458   2.424 -0.0137  1.8818 -2.3259
 2243TIP3    H2 6673   7.216   1.434   2.357 -0.0053  0.1234 -1.7119
 2244TIP3   OH2 6674   3.104   7.535   0.780 -0.4289  0.0497  0.2942
 2244TIP3    H1 6675   3.094   7.441   0.794  0.5296  0.2830  2.8540
 2244TIP3    H2 6676   3.026   7.574   0.821 -0.6297  0.4198 -0.4173
 2245TIP3   OH2 6677   6.114   1.246   3.237 -0.1564  0.0155  0.4699
 2245TIP3    H1 6678   6.113   1.233   3.142 -1.4928 -0.3675  0.5330
 2245TIP3    H2 6679   6.033   1.206   3.268 -0.3089  1.1803  1.6402
 2246TIP3   OH2 6680   5.118   0.864   1.696 -0.0394 -0.1242  0.1420
 2246TIP3    H1 6681   5.031   0.880   1.659  0.0789  1.9615  0.6799
 2246TIP3    H2 6682   5.111   0.896   1.786  0.3859 -2.8714  1.2094
 2247TIP3   OH2 6683   1.006   3.048   3.814 -0.1364 -0.6109  0.0467
 2247TIP3    H1 6684   0.933   2.998   3.778 -0.1263 -1.1321  0.7406
 2247TIP3    H2 6685   0.974   3.138   3.820 -1.1411 -1.0460  1.4691
 2248TIP3   OH2 6686   7.913   2.189   3.680  0.3595  0.1750 -0.2816
 2248TIP3    H1 6687   7.922   2.272   3.633 -0.9235  1.1541  1.1757
 2248TIP3    H2 6688   7.998   2.175   3.721  0.5595  0.8056 -0.4772
 2249TIP3   OH2 6689   7.743   1.395   3.862 -0.7936  0.1951  0.2252
 2249TIP3    H1 6690   7.764   1.410   3.954  0.0998  0.4405 -0.0165
 2249TIP3    H2 6691   7.657   1.437   3.850 -0.5592  0.8363  0.7586
 2250TIP3   OH2 6692   7.798  -0.013   5.671  0.2771  0.3631 -0.6432
 2250TIP3    H1 6693   7.889  -0.009   5.642  0.6757  0.3274  0.6042
 2250TIP3    H2 6694   7.799   0.026   5.758 -0.5453 -1.5866  0.2454
 2251TIP3   OH2 6695   6.046   0.248   2.422 -0.4862  0.3740  0.1702
 2251TIP3    H1 6696   6.132   0.237   2.381 -1.0989 -0.3787 -0.9253
 2251TIP3    H2 6697   6.066   0.279   2.511  1.0217 -2.5148  0.8859
 2252TIP3   OH2 6698   0.709   1.181   3.497 -0.1443 -0.5480  0.0696
 2252TIP3    H1 6699   0.742   1.108   3.549  0.4137 -0.5419 -0.2706
 2252TIP3    H2 6700   0.688   1.249   3.562 -0.4017 -0.9076  0.3627
 2253TIP3   OH2 6701   8.176   0.313   3.106 -0.0941  0.1663  0.3745
 2253TIP3    H1 6702   8.266   0.331   3.134  0.9038  0.6124 -2.8698
 2253TIP3    H2 6703   8.128   0.394   3.126  0.6908  0.6472  0.3312
 2254TIP3   OH2 6704   5.041   6.444   6.161  0.0221  0.7802 -0.2210
 2254TIP3    H1 6705   5.129   6.424   6.192 -0.1739  1.2968  0.6818
 2254TIP3    H2 6706   5.051   6.459   6.067  0.7443 -0.0552 -0.2864
 2255TIP3   OH2 6707   6.105   0.299   1.203 -0.5138  0.3159 -0.1259
 2255TIP3    H1 6708   6.140   0.307   1.115 -1.7519  0.1979 -0.6312
 2255TIP3    H2 6709   6.011   0.316   1.194 -0.5021  1.2304  1.3066
 2256TIP3   OH2 6710   8.099   2.985   3.731  0.9202 -0.2572  0.3626
 2256TIP3    H1 6711   8.041   3.059   3.716 -0.6154 -1.6314 -0.6774
 2256TIP3    H2 6712   8.170   2.996   3.668  0.1671 -0.2016 -0.4791
 2257TIP3   OH2 6713   3.523   6.974   3.413  0.3964  0.1981 -0.2420
 2257TIP3    H1 6714   3.455   6.952   3.348  0.2267 -1.5943  0.5032
 2257TIP3    H2 6715   3.499   7.061   3.444 -0.6591  0.2493 -1.1555
 2258TIP3   OH2 6716   6.172   1.226   3.997 -0.0246 -0.7469  0.5613
 2258TIP3    H1 6717   6.131   1.262   3.918 -0.9738  1.3870  1.9758
 2258TIP3    H2 6718   6.131   1.140   4.009 -0.3528 -0.8031 -0.8854
 2259TIP3   OH2 6719   7.076   2.375   4.918 -0.0104 -0.0170  0.0755
 2259TIP3    H1 6720   7.006   2.312   4.938  0.5090 -1.1426 -1.5207
 2259TIP3    H2 6721   7.082   2.374   4.822  0.6196  1.8115  0.0814
 2260TIP3   OH2 6722   1.475   7.461   3.778 -0.0720 -0.0972 -0.4140
 2260TIP3    H1 6723   1.447   7.373   3.755 -1.5634 -0.1616  1.4797
 2260TIP3    H2 6724   1.457   7.514   3.701 -3.2716 -0.6186 -0.0981
 2261TIP3   OH2 6725   7.178   0.539   3.616  0.3932 -0.0832  0.2301
 2261TIP3    H1 6726   7.194   0.457   3.571  2.1040  0.6318 -0.4977
 2261TIP3    H2 6727   7.244   0.543   3.685  2.4141  2.1167 -1.7426
 2262TIP3   OH2 6728   3.078   7.612   1.893  0.7891 -0.8071 -0.0666
 2262TIP3    H1 6729   3.144   7.673   1.859 -1.8324  0.4714 -3.1271
 2262TIP3    H2 6730   3.105   7.527   1.859  0.8607 -0.2697 -1.4233
 2263TIP3   OH2 6731   4.629   2.643   1.999  0.4058 -0.6380 -0.1917
 2263TIP3    H1 6732   4.619   2.658   1.906 -0.3519 -0.4656 -0.0838
 2263TIP3    H2 6733   4.552   2.682   2.039  0.8307 -0.5105  0.5285
 2264TIP3   OH2 6734   5.409   2.253   3.129 -0.0720 -0.0044  0.4626
 2264TIP3    H1 6735   5.348   2.179   3.126  1.7159 -1.5097  0.4579
 2264TIP3    H2 6736   5.410   2.286   3.039  1.6231 -2.1054 -0.3523
 2265TIP3   OH2 6737   6.020   1.044   3.572  0.1059  0.2974  0.1311
 2265TIP3    H1 6738   5.973   1.058   3.654 -0.5769  0.2107 -0.2399
 2265TIP3    H2 6739   6.065   0.960   3.585 -3.8584 -2.2278 -1.2937
 2266TIP3   OH2 6740   2.231   7.681   3.866 -0.2912  0.3275 -0.6440
 2266TIP3    H1 6741   2.178   7.756   3.839 -1.9943 -0.8438 -0.5702
 2266TIP3    H2 6742   2.236   7.688   3.961 -1.5160 -0.3570 -0.5260
 2267TIP3   OH2 6743   4.811   0.455   3.557  0.0695  0.2581  0.2494
 2267TIP3    H1 6744   4.821   0.516   3.630 -0.4426 -0.4978  0.9603
 2267TIP3    H2 6745   4.720   0.467   3.528  0.3165  0.6700 -0.3749
 2268TIP3   OH2 6746   4.966   1.147   3.881  0.4472  0.1754  0.4267
 2268TIP3    H1 6747   4.916   1.186   3.954 -1.0313 -0.6190 -0.1363
 2268TIP3    H2 6748   5.057   1.168   3.901  0.0764 -0.0118  2.5080
 2269TIP3   OH2 6749   5.399   0.928   4.848 -0.0495 -0.5521 -0.1284
 2269TIP3    H1 6750   5.472   0.983   4.876 -1.0638  0.0638  1.3833
 2269TIP3    H2 6751   5.350   0.982   4.787 -0.5005 -0.1459  0.5982
 2270TIP3   OH2 6752   7.275   1.726   3.233  0.0333  0.1189 -0.8647
 2270TIP3    H1 6753   7.371   1.721   3.233  0.1970  2.6649 -0.9279
 2270TIP3    H2 6754   7.256   1.819   3.221 -2.4324 -0.1039  0.9784
 2271TIP3   OH2 6755   5.024   3.140   5.173  0.0038 -0.3019 -0.1229
 2271TIP3    H1 6756   4.970   3.215   5.198  0.7888 -0.4106  2.0208
 2271TIP3    H2 6757   5.111   3.161   5.207  0.5454 -1.5603 -0.7178
 2272TIP3   OH2 6758   6.782   0.841   2.971  0.4501  0.4302 -0.1294
 2272TIP3    H1 6759   6.864   0.799   2.997 -0.5100 -0.1859  1.9941
 2272TIP3    H2 6760   6.732   0.771   2.928  0.4941  0.4634 -0.2350
 2273TIP3   OH2 6761   4.981   1.848   3.290  0.0562 -0.3856 -0.2825
 2273TIP3    H1 6762   5.010   1.883   3.374  0.1998  0.8615 -0.8467
 2273TIP3    H2 6763   4.889   1.873   3.283  0.2534  0.1752 -0.8468
 2274TIP3   OH2 6764   6.710   0.745   5.189  0.0396  0.4313  0.3302
 2274TIP3    H1 6765   6.714   0.698   5.272 -0.0337 -0.5403 -0.2145
 2274TIP3    H2 6766   6.802   0.759   5.164  0.0683  1.2740  0.8712
 2275TIP3   OH2 6767   7.988   2.410   2.146 -0.2831  0.5709  0.0825
 2275TIP3    H1 6768   8.033   2.494   2.151  0.6958  0.0616  0.1104
 2275TIP3    H2 6769   7.921   2.414   2.213 -1.4825  2.0446 -1.1678
 2276TIP3   OH2 6770   6.611   0.107   1.525  0.0050 -0.1984 -0.1418
 2276TIP3    H1 6771   6.603   0.172   1.456  1.1126 -0.8947 -0.9398
 2276TIP3    H2 6772   6.657   0.033   1.484 -0.3247 -1.0728  1.0198
 2277TIP3   OH2 6773   6.162   7.943   2.339  0.3234 -0.1180 -0.1532
 2277TIP3    H1 6774   6.215   7.910   2.411  0.5988  1.9550  0.6104
 2277TIP3    H2 6775   6.076   7.902   2.351  0.7205 -0.7226  0.6488
 2278TIP3   OH2 6776   6.189   0.568   1.041  0.5301 -0.4379 -0.4707
 2278TIP3    H1 6777   6.206   0.479   1.010 -0.9040 -0.3648 -1.5022
 2278TIP3    H2 6778   6.250   0.622   0.991  1.4127 -0.8293  0.1684
 2279TIP3   OH2 6779   7.072   1.418   4.048 -0.1156  0.0621  0.5251
 2279TIP3    H1 6780   7.086   1.423   4.143  1.2961 -1.2181  0.4076
 2279TIP3    H2 6781   7.152   1.454   4.010 -1.0846  1.4887 -0.2019
 2280TIP3   OH2 6782   7.475   1.480   3.760  0.3081  0.0413 -0.7173
 2280TIP3    H1 6783   7.483   1.576   3.757  0.1949  0.1198  1.0616
 2280TIP3    H2 6784   7.423   1.458   3.682  0.5535  1.3904 -1.2887
 2281TIP3   OH2 6785   0.937   0.603   3.276  0.1909  0.3445  0.3607
 2281TIP3    H1 6786   0.888   0.575   3.199  1.1470 -2.1184  0.6060
 2281TIP3    H2 6787   1.024   0.565   3.266  0.4506  0.2707  2.4681
 2282TIP3   OH2 6788   7.313   1.547   4.008  0.6320  0.1147 -0.8931
 2282TIP3    H1 6789   7.350   1.613   4.066  0.9037  0.6528 -1.6718
 2282TIP3    H2 6790   7.382   1.530   3.944  0.3649 -0.5343 -1.0153
 2283TIP3   OH2 6791   0.317   0.097   4.098 -0.5732 -0.2095  0.2380
 2283TIP3    H1 6792   0.367   0.175   4.072 -1.0566 -0.4562 -1.5160
 2283TIP3    H2 6793   0.280   0.064   4.016 -4.1882  0.3644  1.5069
 2284TIP3   OH2 6794   5.051   7.689   2.944 -0.3054 -0.0350  0.3108
 2284TIP3    H1 6795   5.062   7.621   2.877 -0.7911  0.1411  0.0496
 2284TIP3    H2 6796   5.098   7.655   3.020 -3.0163 -2.0683  1.1598
 2285TIP3   OH2 6797   8.215   1.549   3.222  0.0529 -0.3565 -0.2389
 2285TIP3    H1 6798   8.216   1.487   3.149 -1.8457  1.2456 -1.6922
 2285TIP3    H2 6799   8.170   1.503   3.293 -1.7663 -0.4788 -1.4601
 2286TIP3   OH2 6800   6.666   0.328   4.083  0.5947 -0.4903  0.8097
 2286TIP3    H1 6801   6.710   0.411   4.099 -0.7651 -0.0393  2.3884
 2286TIP3    H2 6802   6.592   0.350   4.027  0.0298 -0.5669  1.5180
 2287TIP3   OH2 6803   4.068   1.922   2.441  0.3343  0.2495 -0.0011
 2287TIP3    H1 6804   4.129   1.991   2.464  0.3891 -0.0141  0.6488
 2287TIP3    H2 6805   4.029   1.895   2.524 -1.2690  0.9759 -0.4878
 2288TIP3   OH2 6806   8.169   0.671   4.414  0.4432  0.1333 -0.3005
 2288TIP3    H1 6807   8.177   0.623   4.496  0.7429  2.0680  0.8132
 2288TIP3    H2 6808   8.259   0.686   4.387  0.3461  0.3686 -0.4866
 2289TIP3   OH2 6809   0.790   1.843   2.326 -0.0153  0.3071 -0.0053
 2289TIP3    H1 6810   0.831   1.779   2.383  1.1251  0.4163 -0.6735
 2289TIP3    H2 6811   0.802   1.927   2.371  1.0162  0.4128 -0.4530
 2290TIP3   OH2 6812   4.705   2.146   3.232  0.5792 -0.4713 -1.0944
 2290TIP3    H1 6813   4.670   2.235   3.229  1.5841 -0.0119  0.0002
 2290TIP3    H2 6814   4.794   2.156   3.267 -0.0418 -2.0978  1.0768
 2291TIP3   OH2 6815   4.524   7.710   2.790 -0.1149 -0.2448 -0.4643
 2291TIP3    H1 6816   4.584   7.637   2.772 -0.7280 -0.7977 -0.2936
 2291TIP3    H2 6817   4.480   7.685   2.871  1.1166  1.2526  0.6733
 2292TIP3   OH2 6818   7.125   4.252   3.292  0.4087 -0.3265  0.0704
 2292TIP3    H1 6819   7.178   4.174   3.308  1.6000  0.2498 -0.8993
 2292TIP3    H2 6820   7.086   4.274   3.376  2.0474 -0.5503  0.9032
 2293TIP3   OH2 6821   6.770   1.938   4.539  0.1384  0.3554 -0.3269
 2293TIP3    H1 6822   6.859   1.959   4.508 -0.3261  1.1477 -1.1450
 2293TIP3    H2 6823   6.718   1.931   4.460 -0.6716  0.5308  0.1832
 2294TIP3   OH2 6824   0.554   0.573   5.430 -0.1101  0.2865 -0.6750
 2294TIP3    H1 6825   0.528   0.564   5.521  2.2279  1.9789  0.1999
 2294TIP3    H2 6826   0.586   0.663   5.422  2.9294 -0.8395 -2.2729
 2295TIP3   OH2 6827   7.614   1.403   4.504  0.0752 -0.1807  0.0958
 2295TIP3    H1 6828   7.594   1.390   4.596 -0.7754  1.1579  0.1151
 2295TIP3    H2 6829   7.531   1.386   4.459  0.8595 -2.3965 -0.5946
 2296TIP3   OH2 6830   7.415   1.887   2.232  0.1232 -0.1442  0.7487
 2296TIP3    H1 6831   7.410   1.794   2.255 -0.5914 -0.8432 -2.0095
 2296TIP3    H2 6832   7.326   1.911   2.207  0.7236  0.6826 -0.6566
 2297TIP3   OH2 6833   7.740   2.108   1.526 -0.5217 -0.4664  0.2673
 2297TIP3    H1 6834   7.695   2.071   1.450  3.4819 -3.0206 -0.9923
 2297TIP3    H2 6835   7.768   2.032   1.577  1.2745  1.0744  1.6371
 2298TIP3   OH2 6836   7.391   2.221   4.901 -0.2133  0.3025 -0.0804
 2298TIP3    H1 6837   7.437   2.188   4.978  3.2337  0.9718 -1.7565
 2298TIP3    H2 6838   7.380   2.315   4.918  1.0754  0.5611 -0.6316
 2299TIP3   OH2 6839   5.748   5.848   2.387  0.4821  0.5478  0.2442
 2299TIP3    H1 6840   5.660   5.884   2.376 -0.0020 -0.7817 -0.2924
 2299TIP3    H2 6841   5.739   5.785   2.458  1.4394  1.8364  1.5271
 2300TIP3   OH2 6842   4.854   7.977   2.237 -0.1623  0.2423  0.3908
 2300TIP3    H1 6843   4.764   7.947   2.247 -0.3026  0.9375  1.2710
 2300TIP3    H2 6844   4.896   7.911   2.182 -0.9525 -0.5819  0.7802
 2301TIP3   OH2 6845   7.863   3.217   4.290  0.2307 -0.1679  0.0336
 2301TIP3    H1 6846   7.952   3.241   4.267  0.0776  1.3165  0.9509
 2301TIP3    H2 6847   7.817   3.300   4.301 -1.4567 -0.9030 -1.1335
 2302TIP3   OH2 6848   8.106   1.855   1.647 -0.3799 -0.4596 -0.2866
 2302TIP3    H1 6849   8.012   1.853   1.664 -0.3258 -0.3853  0.0255
 2302TIP3    H2 6850   8.146   1.836   1.731 -0.0934  1.3742  0.0066
 2303TIP3   OH2 6851   0.243   2.257   2.092  0.1377  0.2022  0.6209
 2303TIP3    H1 6852   0.210   2.174   2.126 -2.3531  1.0321  0.2815
 2303TIP3    H2 6853   0.276   2.236   2.005 -1.4296 -0.2270  0.1289
 2304TIP3   OH2 6854   1.699   0.710   2.206 -0.5254  0.4650 -0.2248
 2304TIP3    H1 6855   1.698   0.736   2.297 -0.4513 -0.7850  0.1505
 2304TIP3    H2 6856   1.609   0.684   2.187 -0.5241  0.6449 -0.4745
 2305TIP3   OH2 6857   6.259   4.014   3.544  0.1773 -0.0320  0.5447
 2305TIP3    H1 6858   6.282   4.086   3.602  0.7086  1.3651 -1.3355
 2305TIP3    H2 6859   6.320   4.022   3.471 -0.1634 -2.0382  0.0245
 2306TIP3   OH2 6860   0.400   1.466   3.506  0.2418  0.5570  0.2367
 2306TIP3    H1 6861   0.370   1.508   3.587 -0.5049  0.4858 -0.0047
 2306TIP3    H2 6862   0.324   1.466   3.449 -0.4537 -3.2046  1.0348
 2307TIP3   OH2 6863   0.874   4.273   3.915 -0.0218  0.3808  0.4712
 2307TIP3    H1 6864   0.813   4.213   3.958 -0.8859  0.7336 -0.2511
 2307TIP3    H2 6865   0.868   4.354   3.965 -0.7088  0.6553 -0.0514
 2308TIP3   OH2 6866   1.223   0.679   1.889 -0.1789 -0.4595  0.0747
 2308TIP3    H1 6867   1.160   0.686   1.961 -0.8277  0.2119 -0.5486
 2308TIP3    H2 6868   1.249   0.587   1.888  0.1071 -0.4090  1.3922
 2309TIP3   OH2 6869   0.890   2.188   2.215 -0.7830  0.1735 -0.1018
 2309TIP3    H1 6870   0.949   2.132   2.165 -0.5398 -0.0439  0.4137
 2309TIP3    H2 6871   0.934   2.273   2.216 -0.9596  0.2690 -0.5540
 2310TIP3   OH2 6872   1.227   1.109   2.626 -0.2526  0.0936 -0.4279
 2310TIP3    H1 6873   1.171   1.175   2.667 -2.8696 -1.8310 -0.8196
 2310TIP3    H2 6874   1.302   1.159   2.593 -1.9527  2.8133 -0.3191
 2311TIP3   OH2 6875   2.252   1.548   4.536  0.0487 -0.1902 -0.5024
 2311TIP3    H1 6876   2.157   1.542   4.524 -0.0187  0.2902 -0.1971
 2311TIP3    H2 6877   2.269   1.497   4.615  0.1305 -0.8297 -0.9228
 2312TIP3   OH2 6878   2.787   1.974   3.062 -0.5628 -0.4280  0.2295
 2312TIP3    H1 6879   2.822   2.055   3.027 -0.3978 -0.7679 -0.4009
 2312TIP3    H2 6880   2.864   1.923   3.088 -0.6205 -0.8585 -0.4454
 2313TIP3   OH2 6881   0.095   3.042   5.752  0.2597  0.3629  0.6673
 2313TIP3    H1 6882   0.039   3.114   5.724  0.2957  0.3296  0.5138
 2313TIP3    H2 6883   0.046   2.963   5.728 -0.3549  0.3343  1.9580
 2314TIP3   OH2 6884   6.314   7.657   1.086 -0.0145  0.0274 -0.4231
 2314TIP3    H1 6885   6.348   7.728   1.033 -0.1279 -0.7176 -1.4948
 2314TIP3    H2 6886   6.391   7.610   1.118  0.0452  0.3277 -0.1206
 2315TIP3   OH2 6887   1.257   1.484   2.798 -0.0940  0.3225 -0.8801
 2315TIP3    H1 6888   1.241   1.553   2.862  1.1180  0.2248 -0.4446
 2315TIP3    H2 6889   1.180   1.427   2.803 -0.0683  0.3975  0.3877
 2316TIP3   OH2 6890   6.836   7.516   2.245 -0.0765 -0.0457 -0.3707
 2316TIP3    H1 6891   6.861   7.591   2.298  0.0870  1.4417 -2.5065
 2316TIP3    H2 6892   6.743   7.531   2.224 -0.0386 -0.4255 -0.8176
 2317TIP3   OH2 6893   7.550   0.151   4.527  0.0379  0.5468  0.2155
 2317TIP3    H1 6894   7.600   0.071   4.546 -1.8244 -1.0033 -1.2808
 2317TIP3    H2 6895   7.498   0.166   4.606  0.0986  0.0672  0.3467
 2318TIP3   OH2 6896   2.164   2.185   4.546 -0.2972  0.7429 -0.3834
 2318TIP3    H1 6897   2.256   2.185   4.524 -0.0533  0.3958  0.5913
 2318TIP3    H2 6898   2.119   2.211   4.466  0.7514  2.4820 -0.4360
 2319TIP3   OH2 6899   0.913   0.287   1.259 -0.3245 -0.2714 -0.2386
 2319TIP3    H1 6900   0.927   0.219   1.193 -2.3762 -2.3034  1.3664
 2319TIP3    H2 6901   0.889   0.239   1.338 -0.0625  2.2446  1.4130
 2320TIP3   OH2 6902   8.270   5.544   3.173 -0.0136 -0.1582 -0.4604
 2320TIP3    H1 6903   8.227   5.572   3.254  1.2322 -0.1236  0.2014
 2320TIP3    H2 6904   8.199   5.537   3.109 -1.0085 -0.1653  0.6296
 2321TIP3   OH2 6905   1.359   1.501   3.395  0.1114  0.7667 -0.1468
 2321TIP3    H1 6906   1.402   1.582   3.422  1.7862  0.1950 -0.9921
 2321TIP3    H2 6907   1.383   1.491   3.303 -1.2358  0.0334 -0.4261
 2322TIP3   OH2 6908   0.569   2.066   5.162 -0.0569 -0.9155  0.2605
 2322TIP3    H1 6909   0.628   2.140   5.179  1.1998 -1.9178  0.3021
 2322TIP3    H2 6910   0.485   2.107   5.139  0.5810  0.5176  0.4510
 2323TIP3   OH2 6911   7.365   7.526   2.784 -0.0968 -0.0396  0.2051
 2323TIP3    H1 6912   7.428   7.563   2.845  0.0217 -1.1367  0.7546
 2323TIP3    H2 6913   7.330   7.449   2.829  1.2308 -1.8486 -1.7866
 2324TIP3   OH2 6914   8.199   2.733   3.740  0.2100  0.4699 -0.0869
 2324TIP3    H1 6915   8.175   2.825   3.742 -1.3695  0.2002 -3.3551
 2324TIP3    H2 6916   8.294   2.733   3.724  0.2761  1.4937  0.2668
 2325TIP3   OH2 6917   6.431   6.824   3.760 -0.0026  0.2123 -0.0685
 2325TIP3    H1 6918   6.498   6.864   3.815 -0.1114 -0.7994  0.8270
 2325TIP3    H2 6919   6.429   6.732   3.788 -1.5487  0.1594 -0.2957
 2326TIP3   OH2 6920   5.520   7.328   4.826  0.4733 -1.0023 -0.4399
 2326TIP3    H1 6921   5.572   7.280   4.890  3.4162  0.1724 -1.8345
 2326TIP3    H2 6922   5.524   7.273   4.747  0.3334 -0.4751 -0.8135
 2327TIP3   OH2 6923   1.210   4.200   3.617  0.0165 -0.4296  0.2420
 2327TIP3    H1 6924   1.123   4.160   3.616 -0.5621  0.7748  1.3336
 2327TIP3    H2 6925   1.212   4.255   3.538 -0.2944 -0.3137  0.3127
 2328TIP3   OH2 6926   1.249   1.365   3.763  0.0292  0.0197 -0.3534
 2328TIP3    H1 6927   1.294   1.448   3.779 -1.8494  0.8130  0.9320
 2328TIP3    H2 6928   1.157   1.385   3.778 -0.5042 -2.1607 -0.6577
 2329TIP3   OH2 6929   1.730   3.101   3.696 -0.0602 -0.0142 -0.3799
 2329TIP3    H1 6930   1.642   3.092   3.659 -0.8606 -0.7054  1.5868
 2329TIP3    H2 6931   1.722   3.172   3.760  1.1025  0.6838 -1.0083
 2330TIP3   OH2 6932   0.895   3.202   4.515 -0.0439 -0.1110 -0.6838
 2330TIP3    H1 6933   0.921   3.154   4.593  1.2327 -0.0054 -1.0285
 2330TIP3    H2 6934   0.977   3.216   4.467 -0.5887  1.2089 -1.2614
 2331TIP3   OH2 6935   1.587   2.057   3.100  0.4285 -0.5118 -0.5177
 2331TIP3    H1 6936   1.605   2.113   3.024 -0.5963  0.3990 -0.0994
 2331TIP3    H2 6937   1.609   2.110   3.175 -2.6538  0.1673 -0.0315
 2332TIP3   OH2 6938   0.438   4.301   3.959  0.3352  0.3725 -0.2780
 2332TIP3    H1 6939   0.494   4.244   3.906 -0.0753 -0.0998 -0.2076
 2332TIP3    H2 6940   0.406   4.244   4.029 -0.1772  0.6600 -0.2828
 2333TIP3   OH2 6941   7.115   7.826   2.155 -0.2797  0.4283  0.3029
 2333TIP3    H1 6942   7.097   7.760   2.221 -0.3802 -0.3842 -0.5260
 2333TIP3    H2 6943   7.193   7.872   2.186  0.2722 -0.6223  0.4612
 2334TIP3   OH2 6944   2.435   1.640   2.694 -0.5806  0.0732  0.0821
 2334TIP3    H1 6945   2.471   1.563   2.739 -0.2774 -0.1647 -0.5598
 2334TIP3    H2 6946   2.413   1.609   2.606  0.6158  0.9880 -0.5629
 2335TIP3   OH2 6947   0.652   2.102   3.849 -0.4180  0.0236 -0.0540
 2335TIP3    H1 6948   0.719   2.138   3.908 -0.5091  0.2332 -0.0805
 2335TIP3    H2 6949   0.697   2.030   3.804 -0.6672 -0.8744  1.0853
 2336TIP3   OH2 6950   0.002   0.915   5.377  0.2798 -0.3190  0.5473
 2336TIP3    H1 6951   0.039   0.901   5.289  1.8306  0.6536  1.0234
 2336TIP3    H2 6952   0.050   0.854   5.433 -0.6381 -0.8625  0.7582
 2337TIP3   OH2 6953   0.189   3.854   3.838 -0.0896 -0.2700  0.2008
 2337TIP3    H1 6954   0.106   3.808   3.826  0.7169 -1.6038 -0.4591
 2337TIP3    H2 6955   0.252   3.784   3.855  0.9690  0.6969  0.3148
 2338TIP3   OH2 6956   8.114   7.740   2.510  0.4751 -0.1091  0.4166
 2338TIP3    H1 6957   8.024   7.707   2.510 -0.0226  1.1987  0.3161
 2338TIP3    H2 6958   8.154   7.703   2.432 -0.7444  1.2712 -0.8971
 2339TIP3   OH2 6959   1.092   2.853   2.903  0.0669 -0.3913 -0.4779
 2339TIP3    H1 6960   1.036   2.775   2.898  0.5837 -0.9155  1.4071
 2339TIP3    H2 6961   1.179   2.822   2.880  0.3693 -0.4966  0.7723
 2340TIP3   OH2 6962   6.790   1.882   3.955  0.3932 -0.5492 -0.4263
 2340TIP3    H1 6963   6.698   1.896   3.934  1.0062  1.7409 -1.8407
 2340TIP3    H2 6964   6.796   1.789   3.978 -2.5106 -0.3943  1.1673
 2341TIP3   OH2 6965   8.371   3.937   3.610  0.3513 -0.0255 -0.4681
 2341TIP3    H1 6966   8.463   3.960   3.626 -0.3200  2.7879 -0.4116
 2341TIP3    H2 6967   8.347   3.987   3.532 -0.6143 -2.2523 -1.6488
 2342TIP3   OH2 6968   1.914   1.058   2.868 -0.0786 -0.3384  0.6179
 2342TIP3    H1 6969   1.940   0.996   2.937 -1.6734 -2.2656 -0.4731
 2342TIP3    H2 6970   1.927   1.011   2.786  0.6984  1.5332 -0.3734
 2343TIP3   OH2 6971   0.367   7.930   2.681  0.2634 -0.0264  0.5318
 2343TIP3    H1 6972   0.375   7.836   2.693  1.3058 -0.1287 -0.7826
 2343TIP3    H2 6973   0.277   7.944   2.653 -0.3737 -0.4308  2.3067
 2344TIP3   OH2 6974   8.299   2.407   1.573  0.8154 -0.2207  0.8451
 2344TIP3    H1 6975   8.288   2.499   1.598 -1.1238  0.1047 -1.0011
 2344TIP3    H2 6976   8.354   2.411   1.494 -2.7197 -0.2225 -1.7490
 2345TIP3   OH2 6977   8.083   2.850   1.890  0.1002  0.3292 -0.2016
 2345TIP3    H1 6978   7.988   2.857   1.887  0.0242 -0.1644  0.9056
 2345TIP3    H2 6979   8.106   2.809   1.806 -0.9078 -1.9891  0.6088
 2346TIP3   OH2 6980   2.918   2.219   1.768  0.2799  0.2942 -0.2808
 2346TIP3    H1 6981   2.945   2.156   1.834 -1.0170 -2.9720 -2.7460
 2346TIP3    H2 6982   2.989   2.218   1.703 -0.1388  0.7682 -0.7510
 2347TIP3   OH2 6983   0.148   0.800   3.946 -0.2990 -0.2898  0.0717
 2347TIP3    H1 6984   0.200   0.861   4.000 -0.3516  0.8888 -1.1792
 2347TIP3    H2 6985   0.187   0.807   3.859 -1.5513 -0.5988 -0.5135
 2348TIP3   OH2 6986   1.554   0.018   5.596  0.0440 -0.8483 -0.5260
 2348TIP3    H1 6987   1.460   0.029   5.588 -0.0187 -0.4620  0.6805
 2348TIP3    H2 6988   1.581  -0.018   5.511 -0.8420  1.3170 -1.7758
 2349TIP3   OH2 6989   8.290   2.117   4.497  0.3485 -0.2436  0.9710
 2349TIP3    H1 6990   8.202   2.153   4.510  0.1894  0.0682 -0.8524
 2349TIP3    H2 6991   8.345   2.193   4.482  1.0760 -0.3954  2.7719
 2350TIP3   OH2 6992   0.540   2.488   4.217 -0.1037 -0.2828  0.1607
 2350TIP3    H1 6993   0.452   2.451   4.206 -0.2002 -0.1627  0.5443
 2350TIP3    H2 6994   0.571   2.454   4.301  1.1159 -2.1654 -1.0195
 2351TIP3   OH2 6995   0.866   0.348   5.054  0.3503  0.0636 -0.0144
 2351TIP3    H1 6996   0.934   0.395   5.101 -0.6338  1.0234  0.4754
 2351TIP3    H2 6997   0.786   0.363   5.105  0.0458 -2.3259  0.2711
 2352TIP3   OH2 6998   2.731   0.884   3.505 -0.2904  0.0465  0.3396
 2352TIP3    H1 6999   2.686   0.811   3.464 -1.4622  0.8263  0.2280
 2352TIP3    H2 7000   2.824   0.862   3.497 -0.6318 -1.5202  0.4847
 2353TIP3   OH2 7001   1.482   1.747   3.507  0.5397 -0.4441  0.0781
 2353TIP3    H1 7002   1.577   1.742   3.499  0.4439 -0.5542 -1.1664
 2353TIP3    H2 7003   1.464   1.837   3.535  0.9921 -0.3657  0.1196
 2354TIP3   OH2 7004   0.859   0.709   3.852  0.4921 -0.2421  0.7292
 2354TIP3    H1 7005   0.943   0.755   3.848 -0.0745  0.8333  1.0851
 2354TIP3    H2 7006   0.832   0.716   3.943 -1.6356  2.4374 -0.0505
 2355TIP3   OH2 7007   8.193   2.878   4.512 -0.0566 -0.2108 -0.0637
 2355TIP3    H1 7008   8.230   2.953   4.559  0.2137  0.4291 -1.2876
 2355TIP3    H2 7009   8.109   2.908   4.481  0.3897 -0.1600 -1.2267
 2356TIP3   OH2 7010   8.272   2.518   4.898 -0.1108  0.3159  0.2561
 2356TIP3    H1 7011   8.352   2.527   4.845 -1.3729  1.3235 -1.5279
 2356TIP3    H2 7012   8.231   2.438   4.865  1.2625 -1.4872  2.7383
 2357TIP3   OH2 7013   0.588  -0.013   5.084 -0.1186  0.3516  0.3091
 2357TIP3    H1 7014   0.658   0.012   5.144  0.8604 -1.9281  0.1618
 2357TIP3    H2 7015   0.569   0.067   5.035  4.1911  0.4463 -1.4480
 2358TIP3   OH2 7016   0.815   1.291   4.494  0.7712 -0.6478 -0.8708
 2358TIP3    H1 7017   0.895   1.327   4.456  1.6122 -2.2053 -0.5752
 2358TIP3    H2 7018   0.758   1.274   4.419  1.1083 -0.5228 -1.1539
 2359TIP3   OH2 7019   5.361   7.102   2.604 -0.7541 -0.2563 -0.1793
 2359TIP3    H1 7020   5.386   7.193   2.622  0.3651 -0.8129  1.1097
 2359TIP3    H2 7021   5.392   7.086   2.515 -0.2868  0.3833 -0.1307
 2360TIP3   OH2 7022   0.439   0.661   2.416  0.6396  0.2501 -0.2934
 2360TIP3    H1 7023   0.533   0.664   2.398  0.6704 -1.6440 -0.5298
 2360TIP3    H2 7024   0.398   0.674   2.330  0.7407 -2.2850 -0.7728
 2361TIP3   OH2 7025   8.137   1.035   5.588  0.5639  0.0810 -0.1564
 2361TIP3    H1 7026   8.048   1.020   5.622  0.6322  0.9976  0.4489
 2361TIP3    H2 7027   8.129   1.025   5.493  0.3325 -2.3580  0.1001
 2362TIP3   OH2 7028   1.426   1.510   3.119  0.2740  0.4048  0.4772
 2362TIP3    H1 7029   1.456   1.589   3.074  1.0474  0.3519  0.8849
 2362TIP3    H2 7030   1.458   1.438   3.065  2.1356  0.3134  1.6342
 2363TIP3   OH2 7031   1.449   1.173   5.155  0.2659 -0.2960  0.2552
 2363TIP3    H1 7032   1.516   1.115   5.118  0.8912  0.5515  0.0253
 2363TIP3    H2 7033   1.373   1.161   5.099  0.6115 -0.3947 -0.1968
 2364TIP3   OH2 7034   1.855   4.077   3.211  0.2416  0.3155 -0.0575
 2364TIP3    H1 7035   1.831   4.170   3.211 -0.2560  0.1896  0.7021
 2364TIP3    H2 7036   1.800   4.039   3.142  0.2283  0.5282 -0.1668
 2365TIP3   OH2 7037   1.152   0.275   3.410 -0.3486 -0.2560 -0.1510
 2365TIP3    H1 7038   1.194   0.232   3.484 -0.8094  0.5398  0.5854
 2365TIP3    H2 7039   1.058   0.263   3.425 -0.4447 -0.1570 -0.6446
 2366TIP3   OH2 7040   6.572   7.330   2.451  0.2236  0.0877 -0.1879
 2366TIP3    H1 7041   6.526   7.337   2.367 -2.8586  1.7885  1.5533
 2366TIP3    H2 7042   6.602   7.419   2.468  1.1246 -0.3225  0.3573
 2367TIP3   OH2 7043   6.964   0.146   5.306 -1.0477  0.1308 -0.2279
 2367TIP3    H1 7044   6.948   0.058   5.274  0.9441  0.0815 -1.1535
 2367TIP3    H2 7045   7.005   0.192   5.233  0.0580  1.1477  1.0026
 2368TIP3   OH2 7046   1.777   1.756   5.393  0.2664  0.4430  0.3011
 2368TIP3    H1 7047   1.793   1.683   5.453 -0.1581 -1.4294 -1.7976
 2368TIP3    H2 7048   1.691   1.737   5.355  1.2888  0.6087 -2.2033
 2369TIP3   OH2 7049   2.012   4.360   4.371 -0.1937 -0.0481  0.0766
 2369TIP3    H1 7050   1.934   4.374   4.424 -0.5721  2.4464 -1.0639
 2369TIP3    H2 7051   1.979   4.355   4.281  0.8874  0.3199 -0.3474
 2370TIP3   OH2 7052   0.925   4.490   4.109  0.0159  0.6581  0.2908
 2370TIP3    H1 7053   0.904   4.563   4.167  2.5554  0.3911  1.6130
 2370TIP3    H2 7054   0.987   4.526   4.046  1.4650 -0.3546  1.0923
 2371TIP3   OH2 7055   1.438   0.710   1.453  0.2243  0.0673  0.4720
 2371TIP3    H1 7056   1.471   0.795   1.482  0.0514 -0.1023  1.1718
 2371TIP3    H2 7057   1.364   0.732   1.396  0.2836  0.3896  0.5161
 2372TIP3   OH2 7058   2.918   0.621   3.200 -0.0689 -0.9555  0.2833
 2372TIP3    H1 7059   2.922   0.682   3.274  1.8571 -1.8554  0.9771
 2372TIP3    H2 7060   2.998   0.638   3.150 -0.4445 -1.6200 -0.5641
 2373TIP3   OH2 7061   1.109   1.871   3.897 -0.4398  0.3139  0.0880
 2373TIP3    H1 7062   1.074   1.783   3.912  1.9079 -0.4783  1.2080
 2373TIP3    H2 7063   1.190   1.856   3.848 -0.7360  1.9497 -0.9155
 2374TIP3   OH2 7064   2.799   0.555   3.841 -0.6412 -0.3659  0.1632
 2374TIP3    H1 7065   2.748   0.475   3.849  0.1442 -0.8273  0.6138
 2374TIP3    H2 7066   2.881   0.528   3.800 -1.2865  0.6016 -1.7999
 2375TIP3   OH2 7067   6.037   1.607   4.227 -0.2760 -0.5354  0.1682
 2375TIP3    H1 7068   5.972   1.675   4.208 -1.7620 -1.3162  2.2902
 2375TIP3    H2 7069   5.992   1.525   4.208  0.5116 -1.0300  0.4233
 2376TIP3   OH2 7070   0.351   1.332   3.091 -0.1901 -0.5325 -0.0134
 2376TIP3    H1 7071   0.277   1.287   3.132 -0.4044 -1.5078 -1.4357
 2376TIP3    H2 7072   0.423   1.320   3.153 -1.3943  1.1798  1.8046
 2377TIP3   OH2 7073   3.131   0.374   3.309  0.0355  0.1555  0.0020
 2377TIP3    H1 7074   3.118   0.385   3.214  0.6648 -0.3247 -0.1427
 2377TIP3    H2 7075   3.209   0.320   3.316 -0.4610 -0.4719  0.7831
 2378TIP3   OH2 7076   2.018   1.963   2.645  0.3893  0.2657  0.8795
 2378TIP3    H1 7077   2.076   1.888   2.648  1.4140  1.0571  1.0035
 2378TIP3    H2 7078   2.021   1.992   2.554 -1.4782 -0.9707  0.3898
 2379TIP3   OH2 7079   2.201   1.524   3.170 -0.7649 -0.2486 -0.0926
 2379TIP3    H1 7080   2.277   1.472   3.194 -0.3890  0.6075  0.6329
 2379TIP3    H2 7081   2.196   1.518   3.075  0.4237 -0.0292 -0.1789
 2380TIP3   OH2 7082   2.922   3.190   1.403  0.0073  0.5002 -0.1994
 2380TIP3    H1 7083   2.935   3.107   1.449  2.3390  0.1925 -1.3253
 2380TIP3    H2 7084   3.011   3.218   1.379 -0.7956  3.0431 -0.3207
 2381TIP3   OH2 7085   1.638   2.385   3.853 -0.3944 -0.2675  0.1940
 2381TIP3    H1 7086   1.660   2.464   3.804 -2.2017  0.7153  0.9224
 2381TIP3    H2 7087   1.689   2.316   3.812  1.3936  1.3180 -0.3091
 2382TIP3   OH2 7088   0.049   7.083   3.385  0.6725  0.3302 -0.3433
 2382TIP3    H1 7089  -0.025   7.061   3.441  0.6428 -0.0464 -0.5281
 2382TIP3    H2 7090   0.113   7.013   3.402  0.7772  0.3726 -0.5651
 2383TIP3   OH2 7091   1.682   1.141   3.190  0.1335  0.4160  0.4123
 2383TIP3    H1 7092   1.597   1.126   3.148 -0.1345 -0.8024  1.3589
 2383TIP3    H2 7093   1.660   1.164   3.280  0.8611 -1.4826  1.0787
 2384TIP3   OH2 7094   1.846   1.007   5.368 -0.6292 -0.5955 -0.3388
 2384TIP3    H1 7095   1.913   1.040   5.428 -3.2816 -0.0965  2.4981
 2384TIP3    H2 7096   1.847   1.069   5.295  0.8554  0.3523  0.4497
 2385TIP3   OH2 7097   2.049   1.281   2.823  0.0773  0.0564 -0.1925
 2385TIP3    H1 7098   2.013   1.336   2.892  0.2027  1.4444 -1.1942
 2385TIP3    H2 7099   2.001   1.199   2.829 -1.4451  0.9609  0.1236
 2386TIP3   OH2 7100   1.249   1.965   4.885 -0.3784 -0.1298 -0.4983
 2386TIP3    H1 7101   1.337   1.990   4.860  0.0071 -1.2378 -0.2661
 2386TIP3    H2 7102   1.251   1.964   4.981 -0.3517 -1.1378 -0.5015
 2387TIP3   OH2 7103   7.322   7.115   3.934 -0.0118 -0.0569  0.0186
 2387TIP3    H1 7104   7.357   7.193   3.892  1.0423  0.1053  1.1660
 2387TIP3    H2 7105   7.378   7.044   3.903 -0.8476 -0.3467 -0.8708
 2388TIP3   OH2 7106   1.424   0.276   3.254 -0.0838  0.3467 -0.1185
 2388TIP3    H1 7107   1.403   0.274   3.347  0.7104 -0.7878  0.0425
 2388TIP3    H2 7108   1.436   0.368   3.234 -3.5226  0.9411  0.1592
 2389TIP3   OH2 7109   2.391   2.716   4.306  0.1750  1.1444  0.0292
 2389TIP3    H1 7110   2.402   2.800   4.350 -1.2994  1.8491 -0.8947
 2389TIP3    H2 7111   2.413   2.735   4.214 -0.8408  0.6941 -0.3091
 2390TIP3   OH2 7112   7.921   2.973   4.444 -0.0720  0.0368  0.1009
 2390TIP3    H1 7113   7.912   3.062   4.410 -0.5876 -0.1361 -0.2223
 2390TIP3    H2 7114   7.851   2.965   4.508 -0.5658 -0.4298 -0.5008
 2391TIP3   OH2 7115   2.556   3.794   4.516 -0.3000  0.1769  0.0904
 2391TIP3    H1 7116   2.461   3.799   4.510 -0.2295  1.7525  0.1227
 2391TIP3    H2 7117   2.580   3.864   4.577  0.9803  0.7819 -1.0786
 2392TIP3   OH2 7118   3.003   2.982   3.729  0.7242 -0.5956  0.6477
 2392TIP3    H1 7119   2.985   2.931   3.808  1.6503 -1.5895  0.2302
 2392TIP3    H2 7120   3.086   3.025   3.747  1.3870 -1.5271 -0.1161
 2393TIP3   OH2 7121   6.224   7.408   1.043 -0.0454  0.3128  0.1089
 2393TIP3    H1 7122   6.256   7.498   1.043 -1.9033  0.9968  0.7260
 2393TIP3    H2 7123   6.176   7.400   0.961 -1.4576  0.4695  0.9141
 2394TIP3   OH2 7124   0.105   0.390   6.391 -0.0768  0.0374  0.2671
 2394TIP3    H1 7125   0.113   0.316   6.330 -0.7540  1.3240 -1.4435
 2394TIP3    H2 7126   0.133   0.355   6.475  1.8693 -1.5311 -0.9928
 2395TIP3   OH2 7127   4.000   2.796   5.271 -0.4302 -0.2735 -0.5225
 2395TIP3    H1 7128   3.947   2.854   5.326  1.3604  0.4335  0.4889
 2395TIP3    H2 7129   3.978   2.708   5.302 -1.6798 -0.0495 -0.7333
 2396TIP3   OH2 7130   7.079   2.567   5.087  0.1371  0.2803 -0.1623
 2396TIP3    H1 7131   7.009   2.534   5.143  2.6583 -3.1468  1.1338
 2396TIP3    H2 7132   7.082   2.507   5.012  0.7683  1.2211 -0.9115
 2397TIP3   OH2 7133   3.179   6.341   0.082  0.0789  0.3992  0.0054
 2397TIP3    H1 7134   3.235   6.361   0.158  1.6749 -1.0236 -0.7598
 2397TIP3    H2 7135   3.111   6.284   0.117  1.3054 -0.9605  0.2310
 2398TIP3   OH2 7136   2.439   1.503   5.501  0.1262 -0.0786 -0.0333
 2398TIP3    H1 7137   2.534   1.514   5.499  0.1304 -0.2067 -0.5003
 2398TIP3    H2 7138   2.404   1.589   5.477  0.1433 -0.5621 -1.8449
 2399TIP3   OH2 7139   7.212   1.211   5.199  0.7955  0.5437 -0.0608
 2399TIP3    H1 7140   7.138   1.162   5.163  1.5711 -0.5255 -0.2172
 2399TIP3    H2 7141   7.266   1.145   5.241  1.7936  1.2897 -0.1639
 2400TIP3   OH2 7142   0.473   0.744   3.040 -0.3763  0.3532  0.6089
 2400TIP3    H1 7143   0.544   0.684   3.064  1.2694  1.3976 -1.4801
 2400TIP3    H2 7144   0.517   0.826   3.019 -2.2276  1.0977 -0.4953
 2401TIP3   OH2 7145   3.574   5.582   0.056 -0.1869 -0.4301  0.2254
 2401TIP3    H1 7146   3.589   5.644   0.128  0.1346 -1.7220  1.2809
 2401TIP3    H2 7147   3.490   5.608   0.019 -0.7889 -0.3357  1.6619
 2402TIP3   OH2 7148   8.364   2.168   2.861 -0.5662 -0.2707 -0.1436
 2402TIP3    H1 7149   8.373   2.126   2.776  0.3507 -1.4050  0.4992
 2402TIP3    H2 7150   8.312   2.106   2.913 -1.2453  0.4795  0.0938
 2403TIP3   OH2 7151   1.541   2.028   3.512  0.0485  0.0052  0.3284
 2403TIP3    H1 7152   1.608   2.081   3.469 -0.2383  0.1918  0.1045
 2403TIP3    H2 7153   1.513   2.081   3.587 -0.2793  0.2009  0.0714
 2404TIP3   OH2 7154   2.717   1.166   4.408  0.2624 -0.0945 -0.1282
 2404TIP3    H1 7155   2.622   1.156   4.398  0.0371  2.4109 -0.8723
 2404TIP3    H2 7156   2.729   1.189   4.500 -0.0324  1.1260 -0.3789
 2405TIP3   OH2 7157   0.441   0.330   4.384 -0.0022 -0.4303  0.2034
 2405TIP3    H1 7158   0.508   0.261   4.383 -1.0960 -1.5138  1.2758
 2405TIP3    H2 7159   0.492   0.411   4.386  1.3079 -1.1622 -1.3565
 2406TIP3   OH2 7160   0.857   1.319   5.407 -0.0413  0.3323 -0.3519
 2406TIP3    H1 7161   0.834   1.342   5.317  2.2488  1.5848 -0.6429
 2406TIP3    H2 7162   0.795   1.368   5.461 -1.1801 -0.1357 -1.2046
 2407TIP3   OH2 7163   0.332   2.241   6.348 -0.0242  0.2507 -0.8890
 2407TIP3    H1 7164   0.366   2.252   6.259  3.3714  1.2960  0.4178
 2407TIP3    H2 7165   0.293   2.325   6.370 -1.0125 -0.0631 -1.4631
 2408TIP3   OH2 7166   5.632   7.757   4.621  0.3258  0.2768  0.0138
 2408TIP3    H1 7167   5.577   7.791   4.692  2.4720 -0.6267  2.1656
 2408TIP3    H2 7168   5.657   7.835   4.571 -2.6953  0.7241 -0.8925
 2409TIP3   OH2 7169   1.091   0.224   3.889  0.3565 -0.0358  0.3188
 2409TIP3    H1 7170   1.067   0.203   3.799  0.2226 -0.1956  0.3909
 2409TIP3    H2 7171   1.130   0.143   3.923 -2.4591 -0.9959  1.3924
 2410TIP3   OH2 7172   3.182   2.679   2.640 -0.0884 -0.2253  0.1537
 2410TIP3    H1 7173   3.186   2.713   2.729 -0.4007  0.4064 -0.0724
 2410TIP3    H2 7174   3.098   2.709   2.606  0.3298  0.1245 -0.5922
 2411TIP3   OH2 7175   8.019   1.115   6.634 -0.2573  0.0629  0.0997
 2411TIP3    H1 7176   8.054   1.049   6.575  0.8879 -0.4829  1.3535
 2411TIP3    H2 7177   8.092   1.135   6.693 -1.1614  1.1036  0.8843
 2412TIP3   OH2 7178   2.739   4.268   2.333 -0.4106 -0.5917 -0.1270
 2412TIP3    H1 7179   2.684   4.347   2.331 -0.4096 -0.5239  1.6587
 2412TIP3    H2 7180   2.718   4.222   2.253 -1.3611  0.6048 -0.5778
 2413TIP3   OH2 7181   2.479   3.450   4.645 -0.2514  0.0058  0.3060
 2413TIP3    H1 7182   2.461   3.526   4.590 -0.1834  1.4330  2.1934
 2413TIP3    H2 7183   2.393   3.423   4.677 -0.1794 -0.1643  0.3555
 2414TIP3   OH2 7184   4.843   0.909   3.925 -0.2632  0.2286  0.1658
 2414TIP3    H1 7185   4.876   0.890   4.013 -0.5090 -2.5256 -0.2708
 2414TIP3    H2 7186   4.891   0.987   3.897  0.7492  0.3797  2.2411
 2415TIP3   OH2 7187   6.413   2.568   4.329  0.2491  0.9211 -0.1449
 2415TIP3    H1 7188   6.433   2.480   4.361  0.1585  0.3666 -1.5707
 2415TIP3    H2 7189   6.335   2.594   4.377  1.3075  0.9625  1.6124
 2416TIP3   OH2 7190   0.542   2.197   2.999 -0.5747  0.4659  0.9112
 2416TIP3    H1 7191   0.505   2.110   3.012 -0.3694  0.6029  2.4812
 2416TIP3    H2 7192   0.502   2.251   3.067  0.3532  1.2742  0.8262
 2417TIP3   OH2 7193   2.143   2.455   4.745  0.3635  0.3196  0.6192
 2417TIP3    H1 7194   2.183   2.520   4.802  1.4582 -0.7251  1.0870
 2417TIP3    H2 7195   2.181   2.472   4.658  0.6385  0.3310  0.7393
 2418TIP3   OH2 7196   2.843   0.198   4.670 -0.6451 -0.2208  0.4938
 2418TIP3    H1 7197   2.811   0.283   4.700 -0.6540 -0.0250 -0.0582
 2418TIP3    H2 7198   2.835   0.202   4.575  0.1342 -0.5280  0.4108
 2419TIP3   OH2 7199   0.951   1.753   1.807 -0.1690  0.0903 -0.7656
 2419TIP3    H1 7200   1.005   1.688   1.761 -2.9397 -1.9102 -1.3417
 2419TIP3    H2 7201   0.986   1.755   1.896  0.0310 -2.1636 -0.7619
 2420TIP3   OH2 7202   6.696   6.661   2.648 -0.4000 -0.5892  0.2009
 2420TIP3    H1 7203   6.775   6.714   2.659  0.3897 -1.6080 -0.5013
 2420TIP3    H2 7204   6.722   6.573   2.673 -1.1720 -1.0427 -0.5799
 2421TIP3   OH2 7205   7.157   0.825   4.285 -0.7689  0.3568 -0.0361
 2421TIP3    H1 7206   7.134   0.918   4.293 -2.4855  0.0453 -1.2916
 2421TIP3    H2 7207   7.093   0.789   4.225  0.5189 -1.4464 -0.3614
 2422TIP3   OH2 7208   8.092   1.319   2.635  0.4869  0.0591  0.0746
 2422TIP3    H1 7209   8.086   1.224   2.645  2.7726 -0.0853  0.3244
 2422TIP3    H2 7210   8.021   1.341   2.576 -3.1228 -1.1898  3.6894
 2423TIP3   OH2 7211   2.193   1.912   4.559 -0.0156  0.0289  0.0199
 2423TIP3    H1 7212   2.185   1.909   4.463  0.1985 -0.7748  0.0215
 2423TIP3    H2 7213   2.162   1.999   4.583  0.7461  0.5489 -0.8539
 2424TIP3   OH2 7214   0.571   1.056   1.790 -0.1113 -0.3801  1.1628
 2424TIP3    H1 7215   0.573   0.978   1.735 -0.8661 -1.0808  2.1161
 2424TIP3    H2 7216   0.511   1.034   1.861 -1.5707  1.6397  0.5908
 2425TIP3   OH2 7217   3.081   0.796   1.358 -0.3551 -0.0300  0.3138
 2425TIP3    H1 7218   2.986   0.798   1.373 -0.4744  0.9061 -0.5066
 2425TIP3    H2 7219   3.119   0.793   1.446 -1.1416 -0.4890  0.6443
 2426TIP3   OH2 7220   1.882   0.127   3.236  0.2184 -0.4107 -0.1677
 2426TIP3    H1 7221   1.931   0.206   3.257  1.2889 -0.8160 -1.1281
 2426TIP3    H2 7222   1.808   0.158   3.183 -0.7219  0.2199  1.4628
 2427TIP3   OH2 7223   5.248   6.658   2.729  0.1893  0.0033 -0.2528
 2427TIP3    H1 7224   5.203   6.686   2.649 -0.1758  0.5282  0.1328
 2427TIP3    H2 7225   5.320   6.720   2.740  0.6244 -0.4484 -0.5155
 2428TIP3   OH2 7226   1.013   1.031   3.437 -0.3328  0.2089  0.2193
 2428TIP3    H1 7227   0.957   0.978   3.380 -0.2615 -1.2741  1.4801
 2428TIP3    H2 7228   1.102   1.009   3.410 -0.3173  0.1927  0.2830
 2429TIP3   OH2 7229   1.362   2.286   2.475  0.2787  0.0258 -0.0606
 2429TIP3    H1 7230   1.347   2.312   2.566  0.9833  1.0638 -0.2320
 2429TIP3    H2 7231   1.313   2.351   2.423  1.0632  0.3104 -0.4550
 2430TIP3   OH2 7232   1.508   2.049   5.663  0.3777 -0.0153  0.1059
 2430TIP3    H1 7233   1.590   2.018   5.699 -0.5902 -1.4171  1.1707
 2430TIP3    H2 7234   1.468   2.100   5.733  0.4097  0.7706 -0.4498
 2431TIP3   OH2 7235   8.340   1.048   2.343 -0.0244  0.1468  0.4151
 2431TIP3    H1 7236   8.345   1.046   2.439  0.9548  1.3901  0.3945
 2431TIP3    H2 7237   8.426   1.017   2.314  0.0017  0.6768 -0.0639
 2432TIP3   OH2 7238   1.562   1.868   3.897  0.8613  0.0733  0.0855
 2432TIP3    H1 7239   1.541   1.953   3.936  1.1927 -0.2879  1.0580
 2432TIP3    H2 7240   1.654   1.853   3.921  0.7482 -0.6428  0.0551
 2433TIP3   OH2 7241   7.107   7.990   5.036 -0.4102 -0.7200  0.0118
 2433TIP3    H1 7242   7.053   8.053   4.989 -0.2166 -0.4837  0.1060
 2433TIP3    H2 7243   7.052   7.912   5.043 -0.3947 -0.8034 -0.7218
 2434TIP3   OH2 7244   0.070   6.755   2.358 -0.1685 -0.1960  0.1119
 2434TIP3    H1 7245   0.067   6.721   2.447  1.7326  2.9583  1.4451
 2434TIP3    H2 7246  -0.010   6.806   2.348  0.0967  0.2612  0.3415
 2435TIP3   OH2 7247   7.142   7.461   3.922 -0.1041  0.0900 -0.5296
 2435TIP3    H1 7248   7.159   7.436   3.831 -0.8276 -0.0046 -0.6423
 2435TIP3    H2 7249   7.178   7.549   3.930 -1.0178  0.5431 -1.2242
 2436TIP3   OH2 7250   0.577   2.891   3.210 -0.0959  0.0655  0.3792
 2436TIP3    H1 7251   0.582   2.904   3.305  1.9990  0.6098  0.2249
 2436TIP3    H2 7252   0.624   2.809   3.195 -0.2103  0.1077 -0.2152
 2437TIP3   OH2 7253   6.795   3.576   4.425 -0.5866 -0.4017  0.3660
 2437TIP3    H1 7254   6.769   3.659   4.463  2.4712  0.9093 -0.2810
 2437TIP3    H2 7255   6.767   3.510   4.489 -2.9318  1.0913  0.9171
 2438TIP3   OH2 7256   6.222   7.825   3.976  0.5111 -0.0464 -0.2356
 2438TIP3    H1 7257   6.163   7.822   4.051  1.8594  1.8929  0.9480
 2438TIP3    H2 7258   6.177   7.774   3.908 -2.4766  1.3050  0.6433
 2439TIP3   OH2 7259   1.339   1.398   4.445 -0.3817 -0.1800 -0.3926
 2439TIP3    H1 7260   1.382   1.414   4.528  0.3651 -0.5172 -0.7139
 2439TIP3    H2 7261   1.282   1.322   4.461 -0.8123  0.2334  0.0151
 2440TIP3   OH2 7262   4.371   6.585   2.175 -0.6294 -0.1667 -0.0044
 2440TIP3    H1 7263   4.458   6.615   2.200 -1.1788  0.1631  1.5656
 2440TIP3    H2 7264   4.363   6.499   2.214 -0.3251 -0.9931 -1.7099
 2441TIP3   OH2 7265   1.081   2.061   5.311  0.2986 -0.1578  0.1216
 2441TIP3    H1 7266   1.141   2.005   5.262 -0.3615 -3.0011  2.4564
 2441TIP3    H2 7267   1.131   2.089   5.388 -0.1296  0.6129  0.1263
 2442TIP3   OH2 7268   0.053   1.412   4.849 -0.2288  0.3080  0.1402
 2442TIP3    H1 7269  -0.025   1.382   4.895 -0.5964  0.1996 -0.5461
 2442TIP3    H2 7270   0.025   1.421   4.758  0.5882  0.1489 -0.1294
 2443TIP3   OH2 7271   3.976   2.151   3.116  0.0370 -0.1116  0.5820
 2443TIP3    H1 7272   3.890   2.185   3.141  0.2042 -0.2787  1.3905
 2443TIP3    H2 7273   4.034   2.177   3.188  0.9335  1.0876 -0.5310
 2444TIP3   OH2 7274   1.544   0.808   4.124  0.1314  0.4958 -0.3382
 2444TIP3    H1 7275   1.506   0.895   4.115  0.6293  0.6626 -0.8478
 2444TIP3    H2 7276   1.629   0.814   4.081 -0.2272 -0.4932 -1.2441
 2445TIP3   OH2 7277   2.535   0.173   4.641 -0.1214  0.3112 -0.4450
 2445TIP3    H1 7278   2.527   0.268   4.639 -0.7406  0.2496 -1.6610
 2445TIP3    H2 7279   2.533   0.147   4.549 -2.4326 -1.0603 -0.0748
 2446TIP3   OH2 7280   1.230   0.591   3.808  0.3862 -0.0991  0.2346
 2446TIP3    H1 7281   1.207   0.682   3.788  0.0885 -0.5038 -1.3254
 2446TIP3    H2 7282   1.210   0.581   3.901  2.6900  2.1093  0.9988
 2447TIP3   OH2 7283   0.715   6.825   2.136  0.0219 -0.1620  0.2362
 2447TIP3    H1 7284   0.685   6.871   2.058 -0.2095 -1.0643 -0.2105
 2447TIP3    H2 7285   0.655   6.853   2.205  0.0999  0.4790  0.0516
 2448TIP3   OH2 7286   1.372   1.780   2.294 -0.0228  0.5050 -0.0936
 2448TIP3    H1 7287   1.439   1.779   2.362 -0.7187 -1.2723  0.5975
 2448TIP3    H2 7288   1.308   1.845   2.323  0.1243  0.3735  0.5211
 2449TIP3   OH2 7289   1.093   2.541   3.034 -0.1427  0.3849  0.7762
 2449TIP3    H1 7290   1.037   2.470   3.003 -0.0968  0.0759  1.3921
 2449TIP3    H2 7291   1.037   2.590   3.095 -1.3950  3.0571 -2.3785
 2450TIP3   OH2 7292   2.203   0.781   2.799 -0.2326  0.7492 -0.2731
 2450TIP3    H1 7293   2.295   0.805   2.807  0.0961 -0.6283  0.1394
 2450TIP3    H2 7294   2.200   0.724   2.722 -0.5405 -0.1817  0.4218
 2451TIP3   OH2 7295   2.558   2.420   3.709 -0.3833  0.5217 -0.3095
 2451TIP3    H1 7296   2.649   2.449   3.709 -0.4432  0.7053  0.8416
 2451TIP3    H2 7297   2.508   2.496   3.678 -0.1574  0.4448 -0.8649
 2452TIP3   OH2 7298   2.433   0.798   2.380  0.5335 -0.0277 -0.3511
 2452TIP3    H1 7299   2.517   0.813   2.425  0.1967  1.2794 -0.1304
 2452TIP3    H2 7300   2.373   0.861   2.420 -0.6739 -1.2304 -0.2254
 2453TIP3   OH2 7301   5.108   2.375   4.144  0.6258  0.0802  0.1261
 2453TIP3    H1 7302   5.029   2.361   4.196  1.3453 -1.6250  0.7797
 2453TIP3    H2 7303   5.088   2.453   4.092 -1.4718 -0.2969  0.3097
 2454TIP3   OH2 7304   2.285   1.755   3.853 -0.2728 -0.2011 -0.3987
 2454TIP3    H1 7305   2.276   1.708   3.770  2.6049 -0.5131 -0.5763
 2454TIP3    H2 7306   2.341   1.699   3.906 -2.3361 -0.1485  1.9247
 2455TIP3   OH2 7307   0.985   1.014   2.963 -0.2872  0.1782 -0.2819
 2455TIP3    H1 7308   0.995   1.066   3.043 -1.2143 -1.5839  1.0134
 2455TIP3    H2 7309   0.910   1.053   2.918 -1.5457 -0.5708  1.1285
 2456TIP3   OH2 7310   2.210   0.042   4.083  0.3927 -0.5190 -0.8189
 2456TIP3    H1 7311   2.223   0.131   4.116  1.0264 -0.9779  0.1861
 2456TIP3    H2 7312   2.213   0.051   3.988  0.0993  0.5898 -0.7327
 2457TIP3   OH2 7313   1.628   0.642   3.429  0.0522  0.2193 -0.3339
 2457TIP3    H1 7314   1.570   0.630   3.504  1.8881 -0.4915  1.0194
 2457TIP3    H2 7315   1.639   0.737   3.422 -0.2791  0.2980  0.1983
 2458TIP3   OH2 7316   6.050   7.500   3.234 -0.3257  0.3177  0.0037
 2458TIP3    H1 7317   6.104   7.572   3.201 -0.0181 -1.2999 -3.2458
 2458TIP3    H2 7318   6.100   7.421   3.213 -2.3322 -1.0371  0.1880
 2459TIP3   OH2 7319   3.825   0.701   3.215  0.1735 -0.5657 -0.1394
 2459TIP3    H1 7320   3.811   0.746   3.132 -2.1049  0.4160  0.7308
 2459TIP3    H2 7321   3.877   0.624   3.193  0.5079  0.2517 -2.2934
 2460TIP3   OH2 7322   1.278   1.036   3.347 -0.2072  0.1927 -0.1903
 2460TIP3    H1 7323   1.331   1.038   3.267 -0.7021 -0.1515 -0.5328
 2460TIP3    H2 7324   1.321   1.097   3.406  0.0958  0.5387 -0.7637
 2461TIP3   OH2 7325   1.936   1.460   1.570  0.0704  0.5109 -0.2554
 2461TIP3    H1 7326   1.936   1.490   1.661 -2.5146 -0.1977  0.0183
 2461TIP3    H2 7327   1.881   1.523   1.524 -2.9179 -1.9887 -0.2662
 2462TIP3   OH2 7328   7.762   6.515   2.157 -0.2094  0.0494 -0.0830
 2462TIP3    H1 7329   7.746   6.447   2.223  4.2140 -2.0529 -1.0248
 2462TIP3    H2 7330   7.748   6.471   2.074 -1.3913  1.4791 -0.6615
 2463TIP3   OH2 7331   6.624   6.947   2.560  0.2510  0.2947 -0.2971
 2463TIP3    H1 7332   6.680   6.873   2.539  0.3965  0.0728  0.8374
 2463TIP3    H2 7333   6.547   6.936   2.504  0.4297 -0.5150 -0.3829
 2464TIP3   OH2 7334   1.094   1.266   4.151 -0.0608  0.5588 -0.2519
 2464TIP3    H1 7335   1.186   1.270   4.124 -0.2649  0.3797 -1.0037
 2464TIP3    H2 7336   1.078   1.174   4.171 -0.5117  0.2853 -1.7556
 2465TIP3   OH2 7337   0.763   1.068   2.803 -0.1411 -0.3603 -0.1820
 2465TIP3    H1 7338   0.714   1.148   2.782 -1.4355 -1.1679 -0.3397
 2465TIP3    H2 7339   0.776   1.026   2.718 -0.7268 -1.0120  0.0437
 2466TIP3   OH2 7340   0.108   7.527   5.049 -0.4479  0.2270  0.4440
 2466TIP3    H1 7341   0.061   7.556   4.971  1.0312  1.2821 -0.0723
 2466TIP3    H2 7342   0.194   7.498   5.016  0.7204  2.0191  1.8309
 2467TIP3   OH2 7343   2.474   0.707   3.440 -0.6090  0.1729 -0.2470
 2467TIP3    H1 7344   2.514   0.620   3.444 -0.6049  0.1823 -0.0695
 2467TIP3    H2 7345   2.446   0.725   3.530  0.4979  0.8695 -0.0353
 2468TIP3   OH2 7346   2.781   2.438   2.673 -0.2661  0.3370 -0.4641
 2468TIP3    H1 7347   2.698   2.389   2.674 -0.6882  1.0462  0.2977
 2468TIP3    H2 7348   2.791   2.465   2.582 -0.4309 -0.4889 -0.7359
 2469TIP3   OH2 7349   1.486   1.609   1.338  0.6016  0.5467  0.5433
 2469TIP3    H1 7350   1.405   1.656   1.361  0.5730  0.0033  1.6014
 2469TIP3    H2 7351   1.457   1.519   1.324  0.8073  0.6421 -0.5044
 2470TIP3   OH2 7352   3.301   1.389   2.894  0.3082  0.1847 -0.9713
 2470TIP3    H1 7353   3.326   1.450   2.964  0.6454 -1.6625  0.5535
 2470TIP3    H2 7354   3.370   1.400   2.828  0.9592  0.6529 -0.2229
 2471TIP3   OH2 7355   0.459   0.601   3.884 -0.0178 -0.0992 -0.0797
 2471TIP3    H1 7356   0.447   0.674   3.824 -1.6513 -0.2968 -0.0210
 2471TIP3    H2 7357   0.522   0.632   3.949  1.4013  0.2770 -1.6266
 2472TIP3   OH2 7358   2.383   1.544   3.436 -0.3565  0.1084  0.0514
 2472TIP3    H1 7359   2.388   1.612   3.369  0.2904  0.7633  0.7502
 2472TIP3    H2 7360   2.457   1.486   3.418 -1.1963 -0.7187 -0.8488
 2473TIP3   OH2 7361   2.706   2.279   1.201  0.0292 -0.0078 -0.2925
 2473TIP3    H1 7362   2.745   2.294   1.287  0.3130 -0.4574 -0.3389
 2473TIP3    H2 7363   2.657   2.359   1.182  0.8970  0.5500 -0.2106
 2474TIP3   OH2 7364   1.437   7.969   4.926 -0.5625  0.3110  0.8105
 2474TIP3    H1 7365   1.481   7.895   4.968  1.3761  0.0021 -1.6650
 2474TIP3    H2 7366   1.345   7.962   4.954  0.1872 -1.2578  2.9870
 2475TIP3   OH2 7367   1.902   2.064   3.147 -0.6509  0.1595 -0.2889
 2475TIP3    H1 7368   1.974   2.052   3.085 -0.2381  0.3693  0.1483
 2475TIP3    H2 7369   1.827   2.022   3.104 -0.5389  0.8862 -1.2249
 2476TIP3   OH2 7370   5.667   7.378   1.577 -0.4935 -0.0661  0.3423
 2476TIP3    H1 7371   5.630   7.290   1.569 -2.7907  0.9436 -0.7615
 2476TIP3    H2 7372   5.640   7.408   1.664  1.0676 -0.7913  1.0786
 2477TIP3   OH2 7373   3.127   0.648   0.983  0.2553 -0.0388  0.1249
 2477TIP3    H1 7374   3.181   0.580   0.942  0.2328  1.6549 -2.8288
 2477TIP3    H2 7375   3.045   0.647   0.934 -0.2571  1.2391  0.9344
 2478TIP3   OH2 7376   1.749   1.917   1.433 -0.0267  0.1411  0.3458
 2478TIP3    H1 7377   1.750   1.967   1.515 -0.2679  1.1069 -0.2354
 2478TIP3    H2 7378   1.838   1.927   1.398 -0.0954  0.2149  0.1936
 2479TIP3   OH2 7379   0.425   2.542   3.016  0.3057  0.2829 -0.6569
 2479TIP3    H1 7380   0.417   2.512   2.926  1.8472 -0.2242 -0.6475
 2479TIP3    H2 7381   0.368   2.618   3.022  0.8418  0.8284 -2.3048
 2480TIP3   OH2 7382   8.281   7.466   4.788  0.4267  0.0119 -0.2267
 2480TIP3    H1 7383   8.213   7.464   4.855  1.0814 -0.6184  0.4271
 2480TIP3    H2 7384   8.239   7.509   4.713 -0.4810  0.2245  0.3882
 2481TIP3   OH2 7385   2.353   0.204   2.965 -0.3258 -0.2777 -0.3340
 2481TIP3    H1 7386   2.275   0.178   3.014  0.2548 -0.3598  0.5794
 2481TIP3    H2 7387   2.328   0.198   2.873 -1.5490  0.1849 -0.0392
 2482TIP3   OH2 7388   4.500   2.436   4.174 -0.2445  0.0021 -0.0655
 2482TIP3    H1 7389   4.486   2.507   4.112  0.2897  0.2791  0.1277
 2482TIP3    H2 7390   4.480   2.356   4.124 -1.5704  0.3300 -0.0544
 2483TIP3   OH2 7391   1.850   2.559   2.133 -0.2047 -1.0508 -0.7274
 2483TIP3    H1 7392   1.914   2.507   2.086 -1.4426 -1.0361 -2.4841
 2483TIP3    H2 7393   1.793   2.495   2.176 -1.2420 -1.1711 -2.2321
 2484TIP3   OH2 7394   2.062   2.704   3.759 -0.6549 -0.2757 -0.5343
 2484TIP3    H1 7395   2.026   2.791   3.776 -0.1707  0.1417 -1.6254
 2484TIP3    H2 7396   2.076   2.666   3.846 -0.3578  0.9389 -0.0491
 2485TIP3   OH2 7397   1.363   3.570   2.324 -0.3685 -0.0270  0.3206
 2485TIP3    H1 7398   1.405   3.523   2.396  2.1988 -0.1796 -1.2356
 2485TIP3    H2 7399   1.354   3.660   2.355 -0.4368 -0.3670  1.2927
 2486TIP3   OH2 7400   7.477   7.946   2.561 -0.3503  0.1981 -0.5977
 2486TIP3    H1 7401   7.429   8.021   2.526 -1.5044 -0.8144 -1.1956
 2486TIP3    H2 7402   7.411   7.893   2.605  0.3591 -0.7893 -0.7147
 2487TIP3   OH2 7403   2.156   2.846   4.706  0.4687  0.2666 -0.0886
 2487TIP3    H1 7404   2.160   2.935   4.741 -1.6282  0.5978 -0.6155
 2487TIP3    H2 7405   2.095   2.852   4.633 -0.3541 -1.7775  0.4041
 2488TIP3   OH2 7406   1.364   2.882   2.867 -0.6099 -0.3693 -0.2084
 2488TIP3    H1 7407   1.380   2.973   2.841 -1.6530  0.3745  1.6823
 2488TIP3    H2 7408   1.396   2.830   2.793 -0.9650  1.5745 -1.7656
 2489TIP3   OH2 7409   3.514   4.460   5.012  0.1033 -0.0038  0.3974
 2489TIP3    H1 7410   3.466   4.398   5.066 -1.5137 -1.0190 -2.1067
 2489TIP3    H2 7411   3.451   4.530   4.995 -0.5987 -1.3692 -2.9593
 2490TIP3   OH2 7412   1.589   1.752   4.300  0.3666 -0.0705  0.0679
 2490TIP3    H1 7413   1.681   1.736   4.318  0.3512 -0.1212  0.1016
 2490TIP3    H2 7414   1.565   1.688   4.234  0.7387  0.9172 -1.0376
 2491TIP3   OH2 7415   0.885   3.098   2.085  0.3061  0.1933 -0.5358
 2491TIP3    H1 7416   0.977   3.087   2.111 -0.2782  1.4831  2.2551
 2491TIP3    H2 7417   0.835   3.078   2.164 -1.7534  1.1781 -1.5474
 2492TIP3   OH2 7418   2.962   3.453   3.588  0.1590 -0.1032  0.1770
 2492TIP3    H1 7419   3.044   3.471   3.634 -1.0673  1.2148  1.9097
 2492TIP3    H2 7420   2.922   3.381   3.638 -0.9595  1.0127  0.8980
 2493TIP3   OH2 7421   3.715   0.449   3.389  0.0843 -0.4720 -0.3029
 2493TIP3    H1 7422   3.769   0.432   3.466 -0.6578  0.6422  0.4764
 2493TIP3    H2 7423   3.765   0.513   3.338 -0.7519  1.0192  0.7172
 2494TIP3   OH2 7424   0.427   7.969   2.984  0.6308  0.4462 -0.1083
 2494TIP3    H1 7425   0.427   7.997   2.892  0.3675  0.5722 -0.0733
 2494TIP3    H2 7426   0.467   8.042   3.031  4.8676 -1.4275 -0.6185
 2495TIP3   OH2 7427   8.153   5.977   4.685  0.2398 -0.1080  0.6877
 2495TIP3    H1 7428   8.123   5.920   4.615 -1.9720  2.5827 -0.6399
 2495TIP3    H2 7429   8.083   5.973   4.750  0.9147 -0.2664  1.4120
 2496TIP3   OH2 7430   1.069   0.929   5.153  0.1457 -0.4433  0.5725
 2496TIP3    H1 7431   1.056   0.894   5.064  1.2191  1.3832 -0.3500
 2496TIP3    H2 7432   1.146   0.883   5.185  1.6358  1.0798 -0.6873
 2497TIP3   OH2 7433   1.625   2.225   5.042  0.1371 -0.1173 -0.0992
 2497TIP3    H1 7434   1.567   2.153   5.015  0.8192 -0.2982 -1.1371
 2497TIP3    H2 7435   1.652   2.265   4.959  0.8467  0.4679  0.4140
 2498TIP3   OH2 7436   1.152   7.469   2.621 -0.0092  0.0500 -0.8795
 2498TIP3    H1 7437   1.240   7.497   2.647  0.5604 -2.3924 -0.0600
 2498TIP3    H2 7438   1.164   7.432   2.533 -0.5473  1.2630 -1.4756
 2499TIP3   OH2 7439   1.818   1.677   3.123 -0.1474 -0.0715 -0.1059
 2499TIP3    H1 7440   1.864   1.729   3.189  0.2999 -1.0834  0.3918
 2499TIP3    H2 7441   1.819   1.588   3.158  1.0098 -0.8152 -1.9418
 2500TIP3   OH2 7442   0.623   4.523   1.988  0.0196 -0.4060 -0.1567
 2500TIP3    H1 7443   0.620   4.434   2.025 -0.5037  0.1851  1.2698
 2500TIP3    H2 7444   0.697   4.564   2.032  1.2854 -0.6488 -2.0344
 2501TIP3   OH2 7445   2.882   0.207   3.524 -0.4974  0.1123 -0.4621
 2501TIP3    H1 7446   2.936   0.168   3.593  1.5274 -0.3252 -2.2305
 2501TIP3    H2 7447   2.795   0.169   3.538 -0.4194  0.8772  2.4948
 2502TIP3   OH2 7448   1.849   3.418   4.021  0.5550 -0.7012 -0.3912
 2502TIP3    H1 7449   1.833   3.497   4.073  0.2885 -1.6752  1.0442
 2502TIP3    H2 7450   1.770   3.408   3.969  0.8415  0.3180 -1.0400
 2503TIP3   OH2 7451   2.801   0.345   2.910  0.2530 -0.3454  0.5799
 2503TIP3    H1 7452   2.737   0.284   2.948  1.2743 -0.8991  1.4494
 2503TIP3    H2 7453   2.886   0.307   2.932  0.9002  1.2682  0.9328
 2504TIP3   OH2 7454   0.383   3.575   3.134 -0.1199  0.2568  0.6959
 2504TIP3    H1 7455   0.342   3.530   3.208  0.9336  0.8669  1.6671
 2504TIP3    H2 7456   0.458   3.620   3.172  0.6164  0.3290 -0.8068
 2505TIP3   OH2 7457   1.727   2.794   2.032  0.2848  0.1733 -0.6670
 2505TIP3    H1 7458   1.756   2.877   2.070 -1.3350  0.8247 -0.8401
 2505TIP3    H2 7459   1.772   2.728   2.084  0.2661  1.1199  0.5797
 2506TIP3   OH2 7460   0.633   0.147   1.769  0.0056  0.2280  0.2323
 2506TIP3    H1 7461   0.692   0.222   1.769  0.0415  0.2016 -0.4484
 2506TIP3    H2 7462   0.657   0.097   1.848  0.7557  0.3208  0.0677
 2507TIP3   OH2 7463   3.695   1.196   4.643 -0.7172 -0.2272  0.3621
 2507TIP3    H1 7464   3.609   1.234   4.629 -0.9245 -0.3563  1.2612
 2507TIP3    H2 7465   3.755   1.271   4.642 -1.1654  0.2013  2.5180
 2508TIP3   OH2 7466   1.849   2.740   3.494  0.1091  0.4974  0.1540
 2508TIP3    H1 7467   1.776   2.781   3.447 -0.3294  1.0197  1.2964
 2508TIP3    H2 7468   1.878   2.670   3.435 -2.3551 -0.7710  0.3675
 2509TIP3   OH2 7469   0.796   0.450   3.981 -0.4216  0.2676 -0.0582
 2509TIP3    H1 7470   0.758   0.533   4.009 -2.5145 -0.7779  0.3059
 2509TIP3    H2 7471   0.838   0.470   3.897 -0.6896  1.7273  0.1358
 2510TIP3   OH2 7472   3.706   4.305   2.934 -0.1069 -0.2046  0.8625
 2510TIP3    H1 7473   3.776   4.294   2.870 -0.4852  0.2002  0.3676
 2510TIP3    H2 7474   3.703   4.399   2.949 -0.1548 -0.2824  1.3228
 2511TIP3   OH2 7475   1.075   0.687   4.610  0.6568  0.0062 -0.4708
 2511TIP3    H1 7476   1.075   0.612   4.550 -1.0915 -0.8153  0.5233
 2511TIP3    H2 7477   0.982   0.705   4.624  1.0191  3.4891 -2.0882
 2512TIP3   OH2 7478   3.889   0.747   4.168 -0.3788  0.0201 -0.1295
 2512TIP3    H1 7479   3.972   0.773   4.206 -1.3788  1.8722  0.8721
 2512TIP3    H2 7480   3.824   0.771   4.234 -1.8444  0.1804 -1.6027
 2513TIP3   OH2 7481   4.496   0.069   2.836  0.4680 -0.1469 -0.6160
 2513TIP3    H1 7482   4.465   0.029   2.755 -0.6512 -1.0803  0.2525
 2513TIP3    H2 7483   4.567   0.127   2.808  1.4624 -1.9487 -2.0438
 2514TIP3   OH2 7484   2.628   1.918   3.482 -0.0790  0.5475  0.2608
 2514TIP3    H1 7485   2.609   1.853   3.414 -0.6235 -0.1771  1.1029
 2514TIP3    H2 7486   2.549   1.923   3.535  0.5056  0.7646  1.1323
 2515TIP3   OH2 7487   8.002   7.565   3.146 -0.0423  0.0146  0.5583
 2515TIP3    H1 7488   7.986   7.560   3.051  1.6286  0.1760  0.2479
 2515TIP3    H2 7489   8.048   7.484   3.167  0.3353  0.3591  1.0761
 2516TIP3   OH2 7490   0.837   2.495   2.854  0.0570  0.3687 -0.5453
 2516TIP3    H1 7491   0.746   2.522   2.844  0.1042  0.0978 -1.7347
 2516TIP3    H2 7492   0.832   2.402   2.874 -0.0740  1.0365  2.9157
 2517TIP3   OH2 7493   0.001   7.394   2.591 -0.1518 -0.4843  0.2530
 2517TIP3    H1 7494  -0.051   7.363   2.517  0.4902 -1.5806  0.2427
 2517TIP3    H2 7495   0.068   7.326   2.603  0.2048  0.0515  1.3633
 2518TIP3   OH2 7496   2.595   2.171   4.961  0.3995  0.2658 -0.0477
 2518TIP3    H1 7497   2.617   2.099   4.902  1.5496  0.4104  0.1886
 2518TIP3    H2 7498   2.501   2.161   4.978 -0.1251  0.7042 -2.5131
 2519TIP3   OH2 7499   2.209   3.273   4.396 -0.8094 -0.0013 -0.1651
 2519TIP3    H1 7500   2.124   3.231   4.408 -1.0428  0.3596 -0.5519
 2519TIP3    H2 7501   2.211   3.342   4.462  0.4872 -2.0078  1.9830
 2520TIP3   OH2 7502   1.125   7.460   3.902 -0.4724 -0.1017  0.1294
 2520TIP3    H1 7503   1.038   7.425   3.920 -0.9420  1.4658  0.9164
 2520TIP3    H2 7504   1.119   7.493   3.812 -1.0670  1.1025  0.5959
 2521TIP3   OH2 7505   2.091   0.136   2.912 -0.4118  0.2455 -0.0681
 2521TIP3    H1 7506   2.128   0.188   2.841 -0.3631  0.2339 -0.0511
 2521TIP3    H2 7507   2.002   0.117   2.883  0.3167 -1.6351 -1.1410
 2522TIP3   OH2 7508   4.795   1.855   3.746  0.2305 -0.5264  0.2310
 2522TIP3    H1 7509   4.868   1.796   3.728  1.1321  0.5424  0.3213
 2522TIP3    H2 7510   4.717   1.804   3.725  0.9118 -2.2825  1.7357
 2523TIP3   OH2 7511   8.508   2.628   2.506 -0.0590  0.4217 -0.0259
 2523TIP3    H1 7512   8.412   2.624   2.505 -0.0953  1.1363 -2.0782
 2523TIP3    H2 7513   8.533   2.580   2.585 -2.0939 -0.0370  0.3757
 2524TIP3   OH2 7514   2.488   1.155   2.773  0.2388 -0.2305 -0.0410
 2524TIP3    H1 7515   2.551   1.098   2.817 -0.0527 -0.4408  0.1097
 2524TIP3    H2 7516   2.409   1.101   2.765  0.6663 -0.5971 -1.9046
 2525TIP3   OH2 7517   2.722   0.221   3.832  0.0342  0.0806 -0.3153
 2525TIP3    H1 7518   2.661   0.159   3.791  1.7737 -1.3576 -0.8179
 2525TIP3    H2 7519   2.803   0.171   3.842  1.3985  2.2091 -0.4504
 2526TIP3   OH2 7520   3.561   1.120   2.539  0.2350  0.2357 -0.3298
 2526TIP3    H1 7521   3.501   1.150   2.471 -0.5691  0.8791  0.6507
 2526TIP3    H2 7522   3.586   1.032   2.512 -0.3426  0.3562 -1.2758
 2527TIP3   OH2 7523   2.235   1.507   2.878  0.2415  0.6583 -0.2476
 2527TIP3    H1 7524   2.321   1.464   2.873 -0.1639 -0.1230 -0.5577
 2527TIP3    H2 7525   2.173   1.441   2.847 -0.7705  0.3696  2.2783
 2528TIP3   OH2 7526   3.649   1.878   3.970 -0.3245 -0.1142  0.3298
 2528TIP3    H1 7527   3.690   1.884   3.884  1.9285  0.8236  1.4243
 2528TIP3    H2 7528   3.555   1.879   3.952  0.1089  0.4308 -2.0832
 2529TIP3   OH2 7529   5.208   1.330   3.509 -0.3512  0.1005 -0.0776
 2529TIP3    H1 7530   5.175   1.343   3.598 -0.8213 -0.9615 -0.0888
 2529TIP3    H2 7531   5.280   1.392   3.501 -0.6446  0.5767  0.8651
 2530TIP3   OH2 7532   3.189   0.642   3.033  0.2629 -0.2969  0.3059
 2530TIP3    H1 7533   3.260   0.644   3.097  0.4399 -1.3911  0.1454
 2530TIP3    H2 7534   3.173   0.549   3.017 -1.2396 -0.0645  0.3806
 2531TIP3   OH2 7535   1.762   3.985   1.621 -0.3790 -0.8019  0.5135
 2531TIP3    H1 7536   1.700   4.045   1.579  0.9212  0.8440  0.9029
 2531TIP3    H2 7537   1.714   3.902   1.627 -1.7452 -0.1886 -1.2390
 2532TIP3   OH2 7538   1.103   3.138   3.070  0.1096  0.5495  0.1211
 2532TIP3    H1 7539   1.057   3.174   2.994  0.9784  1.0636 -0.1719
 2532TIP3    H2 7540   1.177   3.196   3.083 -1.0928  1.6166  2.5731
 2533TIP3   OH2 7541   2.603   3.445   3.709  0.8330  0.5707 -0.2886
 2533TIP3    H1 7542   2.676   3.501   3.684  1.4340 -1.6160 -3.6559
 2533TIP3    H2 7543   2.525   3.497   3.688  1.3513  2.2298  1.7234
 2534TIP3   OH2 7544   4.450   1.009   4.497  0.3497  0.9780  0.0477
 2534TIP3    H1 7545   4.459   0.973   4.585  1.2989  1.7355  0.2815
 2534TIP3    H2 7546   4.410   1.095   4.510 -3.2164 -0.5342 -0.6264
 2535TIP3   OH2 7547   0.726   1.461   2.497 -0.0683 -0.1481  0.6876
 2535TIP3    H1 7548   0.772   1.541   2.473  0.6688 -0.7794 -0.0731
 2535TIP3    H2 7549   0.647   1.462   2.442 -0.0391  0.0400  0.6485
 2536TIP3   OH2 7550   2.715   1.624   0.271 -0.3620 -0.0746  0.0459
 2536TIP3    H1 7551   2.633   1.575   0.279 -0.3570  0.0610  0.9359
 2536TIP3    H2 7552   2.692   1.714   0.294 -0.5158  0.5044 -2.2472
 2537TIP3   OH2 7553   0.835   1.540   3.405 -0.9815  0.2117 -0.2353
 2537TIP3    H1 7554   0.781   1.489   3.465  2.3984 -0.5928  2.2932
 2537TIP3    H2 7555   0.908   1.482   3.384  1.6572  3.0498  0.7273
 2538TIP3   OH2 7556   0.641   7.379   4.404 -0.3784  0.3118 -0.9845
 2538TIP3    H1 7557   0.641   7.464   4.447  0.6608 -0.3029  0.2779
 2538TIP3    H2 7558   0.594   7.322   4.465  0.9596 -0.5311 -0.7147
 2539TIP3   OH2 7559   0.541   2.796   5.118 -0.1549  0.1141 -0.6314
 2539TIP3    H1 7560   0.534   2.718   5.173 -1.9376  0.5340 -0.2003
 2539TIP3    H2 7561   0.484   2.860   5.161 -0.9884  0.6994 -2.5418
 2540TIP3   OH2 7562   8.349   1.627   5.536  0.3120  0.4097 -0.4303
 2540TIP3    H1 7563   8.276   1.611   5.597 -0.3764 -1.4310 -1.7012
 2540TIP3    H2 7564   8.345   1.721   5.519 -1.9867  0.3097 -0.7156
 2541TIP3   OH2 7565   2.846   2.775   3.584  0.5406  0.0811 -0.3354
 2541TIP3    H1 7566   2.868   2.760   3.493 -1.7367  1.0908 -1.0942
 2541TIP3    H2 7567   2.855   2.870   3.596  1.2466 -0.0982  0.5972
 2542TIP3   OH2 7568   0.376   7.659   2.631  0.2758  0.3025  0.0197
 2542TIP3    H1 7569   0.347   7.665   2.540  1.6990  0.2177 -0.4542
 2542TIP3    H2 7570   0.410   7.570   2.640  0.6837  0.4986  0.4548
 2543TIP3   OH2 7571   1.925   0.845   3.663 -0.0202 -0.1015  0.4808
 2543TIP3    H1 7572   1.982   0.914   3.696  0.5210 -0.6264  0.6477
 2543TIP3    H2 7573   1.968   0.764   3.689 -1.4443 -0.4985  1.6002
 2544TIP3   OH2 7574   3.402   1.636   3.004 -1.1398 -0.3578  0.5744
 2544TIP3    H1 7575   3.484   1.652   2.957 -1.6325 -0.6099 -0.3974
 2544TIP3    H2 7576   3.412   1.683   3.087 -0.3261  0.2652  0.1360
 2545TIP3   OH2 7577   3.117   0.621   2.265  0.1918  0.2219 -0.0489
 2545TIP3    H1 7578   3.138   0.713   2.250  0.0726  0.4882  1.2739
 2545TIP3    H2 7579   3.192   0.572   2.232  1.4098  0.9539  1.6002
 2546TIP3   OH2 7580   2.033   6.855   5.471 -0.0408  0.0953 -0.9159
 2546TIP3    H1 7581   2.110   6.908   5.488  0.5613 -1.1852  0.3844
 2546TIP3    H2 7582   1.963   6.897   5.521  0.6553 -0.8999  0.9106
 2547TIP3   OH2 7583   0.894   3.624   1.864 -0.2927 -0.4632  0.0346
 2547TIP3    H1 7584   0.842   3.543   1.861  0.0783 -0.6922 -0.2250
 2547TIP3    H2 7585   0.903   3.649   1.772  0.3149 -0.5884  0.0625
 2548TIP3   OH2 7586   7.641   6.781   2.410  0.0897  0.5568 -0.5718
 2548TIP3    H1 7587   7.732   6.764   2.437 -0.7072  1.8135  3.2230
 2548TIP3    H2 7588   7.636   6.876   2.402 -1.0037  0.5379 -0.1876
 2549TIP3   OH2 7589   8.513   7.064   4.595 -0.4713  0.4253 -0.3106
 2549TIP3    H1 7590   8.419   7.075   4.577 -0.9304 -1.2167  0.9286
 2549TIP3    H2 7591   8.535   7.135   4.654 -0.8554  1.0403 -0.9047
 2550TIP3   OH2 7592   3.950   3.067   1.952 -0.2988 -0.1945  0.0016
 2550TIP3    H1 7593   4.014   3.138   1.961  1.8255 -2.3967  3.5969
 2550TIP3    H2 7594   3.873   3.098   2.000  0.8480 -0.4832  2.1034
 2551TIP3   OH2 7595   1.114   0.856   2.651  0.2003  0.0989  0.0454
 2551TIP3    H1 7596   1.048   0.887   2.589 -0.9829  0.6115  1.5030
 2551TIP3    H2 7597   1.157   0.936   2.682  1.7129 -0.2556 -1.0984
 2552TIP3   OH2 7598   7.424   0.659   2.549  0.3045  0.1097  1.0053
 2552TIP3    H1 7599   7.495   0.619   2.499 -0.5821 -0.6819  0.3724
 2552TIP3    H2 7600   7.349   0.600   2.538 -0.2400  0.5181  2.3191
 2553TIP3   OH2 7601   2.243   1.545   3.668  0.2835 -0.2583 -0.0754
 2553TIP3    H1 7602   2.258   1.453   3.687  1.1788  0.3403  2.2955
 2553TIP3    H2 7603   2.271   1.557   3.577 -1.5228 -2.6746 -0.9875
 2554TIP3   OH2 7604   2.251   0.301   4.048 -0.1808  0.2755 -0.2541
 2554TIP3    H1 7605   2.212   0.388   4.053 -0.9484  0.0667 -2.1808
 2554TIP3    H2 7606   2.323   0.311   3.986 -1.3529 -0.8347 -1.8163
 2555TIP3   OH2 7607   0.720   2.410   5.168  0.4503 -0.7335 -0.2056
 2555TIP3    H1 7608   0.759   2.335   5.213 -0.7596 -0.7259  0.8886
 2555TIP3    H2 7609   0.793   2.470   5.153  0.7531 -0.4084  2.4142
 2556TIP3   OH2 7610   1.643   3.279   3.453  0.4193  0.4922  0.1779
 2556TIP3    H1 7611   1.588   3.217   3.501 -1.0539  2.3708  1.0093
 2556TIP3    H2 7612   1.682   3.334   3.521 -0.3174  2.0722 -0.6236
 2557TIP3   OH2 7613   1.061   1.315   3.367  0.5500 -0.2725  0.0860
 2557TIP3    H1 7614   1.081   1.228   3.401  0.2989  0.0818  1.1630
 2557TIP3    H2 7615   1.085   1.311   3.275 -1.1577 -2.0421 -0.3055
 2558TIP3   OH2 7616   3.359   1.003   6.030 -0.2903  0.0658  0.2341
 2558TIP3    H1 7617   3.281   0.951   6.010  1.1075 -2.0136  0.1572
 2558TIP3    H2 7618   3.363   1.005   6.126  1.8772 -3.4162  0.2840
 2559TIP3   OH2 7619   3.317   2.331   3.678 -0.1150 -0.1626  0.0638
 2559TIP3    H1 7620   3.405   2.304   3.706 -0.6473  0.8856  2.8052
 2559TIP3    H2 7621   3.317   2.426   3.685 -0.8120  0.0360 -2.0491
 2560TIP3   OH2 7622   1.535   3.921   6.055  0.1324 -0.0707 -0.1166
 2560TIP3    H1 7623   1.595   3.896   6.125  0.8320 -1.5120 -1.1978
 2560TIP3    H2 7624   1.448   3.896   6.088  0.3163  0.3571  0.7102
 2561TIP3   OH2 7625   3.052   1.893   2.843  0.4252  0.2198  0.4147
 2561TIP3    H1 7626   2.992   1.965   2.822  0.5275  0.0665 -0.4159
 2561TIP3    H2 7627   3.043   1.833   2.770 -0.6928 -1.2843  1.7539
 2562TIP3   OH2 7628   1.305   2.799   3.902 -0.0559 -0.0371 -0.4993
 2562TIP3    H1 7629   1.291   2.873   3.842 -0.5509  0.2320 -0.0551
 2562TIP3    H2 7630   1.244   2.815   3.973  0.8483 -0.1178  0.3025
 2563TIP3   OH2 7631   1.968   1.470   2.145 -0.4885  0.1031  0.0361
 2563TIP3    H1 7632   1.916   1.435   2.217 -0.3241 -1.1006 -0.4230
 2563TIP3    H2 7633   2.035   1.523   2.187 -1.1386  0.4015  0.7068
 2564TIP3   OH2 7634   2.910   1.842   3.450 -0.2931  0.1115 -0.1112
 2564TIP3    H1 7635   2.937   1.770   3.507  0.8745 -1.0763 -2.0971
 2564TIP3    H2 7636   2.815   1.837   3.448 -0.2137 -1.6418 -0.5105
 2565TIP3   OH2 7637   3.481   4.000   5.833  0.5381 -0.6610  0.3067
 2565TIP3    H1 7638   3.563   4.000   5.883  0.6978  1.9042  0.1103
 2565TIP3    H2 7639   3.414   4.023   5.896  0.4381  0.4022 -0.1658
 2566TIP3   OH2 7640   2.817   0.076   1.133  0.6220 -0.3199  0.6196
 2566TIP3    H1 7641   2.861   0.000   1.095  2.5741  1.4112 -0.7283
 2566TIP3    H2 7642   2.758   0.107   1.065  1.9551  1.0402  0.0413
 2567TIP3   OH2 7643   3.207   0.114   3.582  0.0998 -0.1438  0.0031
 2567TIP3    H1 7644   3.231   0.176   3.650  0.9687 -1.6907  1.1306
 2567TIP3    H2 7645   3.267   0.132   3.510 -0.4663  1.1298 -0.1554
 2568TIP3   OH2 7646   0.733   7.277   3.061 -0.6005  0.2552 -0.0626
 2568TIP3    H1 7647   0.666   7.215   3.034 -1.8333  1.2481  0.6784
 2568TIP3    H2 7648   0.719   7.353   3.004  1.0756 -0.2253 -1.1571
 2569TIP3   OH2 7649   2.288   2.570   2.907  0.1833 -0.3625  0.2472
 2569TIP3    H1 7650   2.238   2.546   2.828  0.6608  1.6421 -0.6775
 2569TIP3    H2 7651   2.379   2.573   2.878  0.6514 -1.9703  1.4623
 2570TIP3   OH2 7652   1.677   1.237   2.143 -0.0719  0.3009 -0.0575
 2570TIP3    H1 7653   1.611   1.288   2.097  0.3809  2.7366  1.8906
 2570TIP3    H2 7654   1.717   1.182   2.075 -0.2557  2.8506 -2.3054
 2571TIP3   OH2 7655   3.037   0.763   4.975  0.3053  0.0169 -0.5235
 2571TIP3    H1 7656   3.021   0.805   4.891  1.6593 -1.1969 -1.4077
 2571TIP3    H2 7657   2.981   0.685   4.974  1.0722 -0.5359 -0.7309
 2572TIP3   OH2 7658   0.505   6.821   3.699 -0.4858 -0.3965  0.4398
 2572TIP3    H1 7659   0.535   6.763   3.630  1.2015  0.8807  0.0660
 2572TIP3    H2 7660   0.478   6.763   3.769 -1.3985 -1.6805 -0.9667
 2573TIP3   OH2 7661   0.693   1.382   3.898 -0.3287 -0.4027  0.4925
 2573TIP3    H1 7662   0.708   1.467   3.941 -0.5678 -0.3399  0.4564
 2573TIP3    H2 7663   0.598   1.378   3.887 -0.3292 -0.7474  0.6336
 2574TIP3   OH2 7664   4.178   0.941   3.119 -0.1887  0.2010  0.4747
 2574TIP3    H1 7665   4.161   0.849   3.098  0.8630 -0.2059  1.3502
 2574TIP3    H2 7666   4.212   0.978   3.038 -3.9835  0.7445 -0.9761
 2575TIP3   OH2 7667   2.649   0.969   3.746 -0.5256 -0.0491  0.4802
 2575TIP3    H1 7668   2.683   1.055   3.769 -0.7488  0.3030 -0.5123
 2575TIP3    H2 7669   2.688   0.948   3.661 -3.6054  0.8665 -1.2326
 2576TIP3   OH2 7670   1.199   2.330   4.086  0.3558 -0.2793 -0.3629
 2576TIP3    H1 7671   1.119   2.382   4.083  1.0677  0.9223  0.7929
 2576TIP3    H2 7672   1.170   2.241   4.064 -0.8821  0.5563 -2.2745
 2577TIP3   OH2 7673   1.313   1.117   4.520  0.2346  0.8212 -0.4982
 2577TIP3    H1 7674   1.281   1.030   4.497  1.3728  0.4593 -0.7755
 2577TIP3    H2 7675   1.301   1.123   4.615 -0.0021  0.4187 -0.5038
 2578TIP3   OH2 7676   3.537   2.225   4.983  0.7138 -0.7671 -0.1262
 2578TIP3    H1 7677   3.450   2.250   5.015  0.6180 -0.1240 -0.8633
 2578TIP3    H2 7678   3.598   2.281   5.032  0.7149 -1.2859  0.4592
 2579TIP3   OH2 7679   4.510   0.318   4.474  0.2338  0.3089  0.3796
 2579TIP3    H1 7680   4.504   0.381   4.546  2.5030  1.1260 -0.1067
 2579TIP3    H2 7681   4.526   0.372   4.397  1.2708 -0.8136 -0.1968
 2580TIP3   OH2 7682   2.505   1.667   4.569 -0.0315  0.6766  0.2551
 2580TIP3    H1 7683   2.533   1.714   4.490  2.4733 -0.9870  0.1101
 2580TIP3    H2 7684   2.421   1.627   4.543 -0.0205  1.4421 -1.0384
 2581TIP3   OH2 7685   0.316   1.433   5.714 -0.4646  0.1123  0.4519
 2581TIP3    H1 7686   0.257   1.446   5.640 -1.3530  1.8891  1.4316
 2581TIP3    H2 7687   0.352   1.345   5.701 -1.0904  0.1492 -1.7249
 2582TIP3   OH2 7688   0.554   0.968   3.668  0.3079  0.2424  0.3535
 2582TIP3    H1 7689   0.641   0.929   3.657 -1.0498 -3.1746  0.9107
 2582TIP3    H2 7690   0.522   0.980   3.579 -0.7921 -3.7846  0.1201
 2583TIP3   OH2 7691   2.533   4.517   2.832 -0.1245  0.3739 -0.4175
 2583TIP3    H1 7692   2.446   4.521   2.871  0.3477  2.4540  0.5206
 2583TIP3    H2 7693   2.583   4.462   2.892 -0.2124  1.0635  0.3106
 2584TIP3   OH2 7694   0.064   3.119   3.540 -0.3881  0.1487  0.3107
 2584TIP3    H1 7695  -0.005   3.183   3.555 -1.8772 -2.0040  2.9223
 2584TIP3    H2 7696   0.043   3.079   3.455  1.0413  3.6061 -1.7781
 2585TIP3   OH2 7697   1.428   1.693   4.507 -0.3753 -0.4295  0.3529
 2585TIP3    H1 7698   1.388   1.607   4.493 -1.8886  0.4997 -1.2423
 2585TIP3    H2 7699   1.435   1.730   4.420 -0.9465  1.5909  1.1502
 2586TIP3   OH2 7700   0.020   7.787   3.876  0.1445 -0.0471  0.1229
 2586TIP3    H1 7701   0.044   7.747   3.960  2.4988  0.4276 -0.2829
 2586TIP3    H2 7702   0.095   7.770   3.819 -1.6157 -0.7830 -2.0626
 2587TIP3   OH2 7703   2.196   1.772   2.767  0.0817 -0.7573 -0.0427
 2587TIP3    H1 7704   2.280   1.741   2.732  1.2041  0.9616  1.0794
 2587TIP3    H2 7705   2.159   1.695   2.810  0.9609 -1.5984 -0.7498
 2588TIP3   OH2 7706   1.069   2.136   3.773  0.2700 -0.1138  0.3035
 2588TIP3    H1 7707   1.138   2.075   3.801 -1.2944 -2.5924 -1.1014
 2588TIP3    H2 7708   1.035   2.172   3.854  2.8391  0.7296  1.0538
 2589TIP3   OH2 7709   3.182   2.199   3.985  0.6474  0.6217  0.1550
 2589TIP3    H1 7710   3.122   2.238   3.922  1.1973 -0.1828 -0.8691
 2589TIP3    H2 7711   3.260   2.176   3.934  0.7292 -0.8956  0.9435
 2590TIP3   OH2 7712   4.195   3.490   3.957  0.5907  0.6157  0.2257
 2590TIP3    H1 7713   4.191   3.447   3.872  0.6064 -0.4077  0.7389
 2590TIP3    H2 7714   4.273   3.546   3.951  0.4093  0.7958 -0.5399
 2591TIP3   OH2 7715   3.543   3.633   2.593  0.0357 -0.7850  0.1184
 2591TIP3    H1 7716   3.474   3.696   2.613  0.0934 -0.2478 -1.3309
 2591TIP3    H2 7717   3.500   3.548   2.597 -0.7362 -0.4472 -0.8565
 2592TIP3   OH2 7718   3.701   0.802   4.356 -0.5624  0.4527  0.0715
 2592TIP3    H1 7719   3.739   0.817   4.442  1.4230 -2.2541 -0.2531
 2592TIP3    H2 7720   3.618   0.758   4.374 -0.1781 -0.0555  0.6136
 2593TIP3   OH2 7721   2.257   4.133   4.179 -0.2261 -0.4236 -1.1784
 2593TIP3    H1 7722   2.286   4.139   4.088  0.2973 -1.0129 -1.0513
 2593TIP3    H2 7723   2.304   4.058   4.214  1.7270  1.4811  0.3885
 2594TIP3   OH2 7724   2.537   0.009   4.052 -0.1327  0.4995  0.0437
 2594TIP3    H1 7725   2.614  -0.028   4.095 -0.3406  0.9681  0.8384
 2594TIP3    H2 7726   2.521   0.091   4.099 -1.0716  0.4343 -0.1564
 2595TIP3   OH2 7727   4.985   1.455   4.927  0.0605 -0.5836 -0.6009
 2595TIP3    H1 7728   4.930   1.507   4.986 -0.4522 -1.1469 -0.5773
 2595TIP3    H2 7729   5.048   1.518   4.892 -1.1406  0.2686 -1.2960
 2596TIP3   OH2 7730   0.964   1.674   4.222  0.0660 -0.4418  0.4075
 2596TIP3    H1 7731   1.005   1.760   4.232 -3.9219  1.7276 -0.3992
 2596TIP3    H2 7732   0.962   1.659   4.127 -1.3025 -0.2745  0.3892
 2597TIP3   OH2 7733   2.122   0.803   3.242 -0.6555 -0.2267  0.3467
 2597TIP3    H1 7734   2.207   0.774   3.211 -1.5464 -0.3695 -2.0863
 2597TIP3    H2 7735   2.141   0.862   3.315  1.5952  1.0305 -1.2075
 2598TIP3   OH2 7736   0.218   7.649   5.263 -0.0241  0.4290  0.1951
 2598TIP3    H1 7737   0.168   7.579   5.221  0.3206  0.1111  0.3114
 2598TIP3    H2 7738   0.296   7.659   5.208  0.4233  0.0201  0.7563
 2599TIP3   OH2 7739   0.044   6.667   4.290  0.2404 -0.2191  0.3836
 2599TIP3    H1 7740   0.075   6.730   4.355 -1.4331  0.3074  0.6977
 2599TIP3    H2 7741  -0.038   6.704   4.258 -0.8587 -2.2963  0.6845
 2600TIP3   OH2 7742   1.399   1.578   3.781 -0.6012 -0.1911 -0.0314
 2600TIP3    H1 7743   1.367   1.651   3.726 -1.8850 -0.6955  0.0182
 2600TIP3    H2 7744   1.494   1.583   3.774 -0.6854  1.1703 -0.4621
 2601TIP3   OH2 7745   1.146   2.283   5.128  0.8309  0.3744 -0.1517
 2601TIP3    H1 7746   1.132   2.362   5.180 -1.2580  0.9899 -1.5908
 2601TIP3    H2 7747   1.154   2.213   5.193  1.1467  1.5213  1.0745
 2602TIP3   OH2 7748   2.984   0.757   3.457  0.2608 -0.2728  0.0915
 2602TIP3    H1 7749   3.072   0.773   3.490  0.7149 -2.3385 -0.0627
 2602TIP3    H2 7750   2.950   0.687   3.513 -2.1378  1.9620  1.5770
 2603TIP3   OH2 7751   6.929   8.006   3.941  0.7581  0.0254  0.1185
 2603TIP3    H1 7752   6.935   7.918   3.905  0.2945  0.4740 -1.0833
 2603TIP3    H2 7753   6.876   7.997   4.020  1.6682 -0.9447  0.6302
 2604TIP3   OH2 7754   4.343   0.120   3.787 -0.3938  0.4987  0.2868
 2604TIP3    H1 7755   4.365   0.054   3.853  1.3749  1.6897  0.9299
 2604TIP3    H2 7756   4.273   0.171   3.827 -0.1399  0.4787  0.7596
 2605TIP3   OH2 7757   2.738   1.069   4.149 -0.4703  0.3014  0.3067
 2605TIP3    H1 7758   2.751   1.106   4.237 -0.7902  1.2108 -0.0203
 2605TIP3    H2 7759   2.657   1.110   4.119 -1.5483 -1.6656  0.4490
 2606TIP3   OH2 7760   0.262   2.936   3.897  0.3804 -0.7773 -0.9032
 2606TIP3    H1 7761   0.330   2.870   3.907  1.1484  0.1420 -0.0552
 2606TIP3    H2 7762   0.271   2.992   3.974 -2.4556 -1.6574  0.1452
 2607TIP3   OH2 7763   8.501   6.528   3.903 -0.5869 -0.0342  0.2857
 2607TIP3    H1 7764   8.484   6.445   3.948  1.3820 -1.4910 -1.5088
 2607TIP3    H2 7765   8.423   6.542   3.848 -0.0403 -1.8743 -1.0348
 2608TIP3   OH2 7766   2.886   0.572   2.095  0.5974  0.0342  0.2661
 2608TIP3    H1 7767   2.867   0.628   2.020  1.9537 -0.2207 -0.2812
 2608TIP3    H2 7768   2.835   0.493   2.079  1.6550 -0.4268 -0.9063
 2609TIP3   OH2 7769   0.602   2.404   4.489 -0.4275 -0.3136  0.4420
 2609TIP3    H1 7770   0.532   2.414   4.554 -0.2627 -1.0981  0.7457
 2609TIP3    H2 7771   0.653   2.329   4.520 -0.0306 -0.3561 -0.3056
 2610TIP3   OH2 7772   2.268   2.957   3.313  0.0210 -0.4568 -0.0894
 2610TIP3    H1 7773   2.259   2.913   3.229 -0.3332 -0.2354 -0.1666
 2610TIP3    H2 7774   2.189   2.935   3.361 -0.7924  1.1874 -0.6388
 2611TIP3   OH2 7775   1.726   1.466   2.834  0.1121 -0.4867  0.0877
 2611TIP3    H1 7776   1.714   1.393   2.773 -1.8289 -0.7372  0.7264
 2611TIP3    H2 7777   1.736   1.425   2.919 -0.1829 -0.0506  0.3377
 2612TIP3   OH2 7778   1.425   1.740   5.901  0.5757  0.0539 -0.3675
 2612TIP3    H1 7779   1.369   1.670   5.933 -0.1367  1.2868  1.1424
 2612TIP3    H2 7780   1.508   1.727   5.947  0.5895 -0.0526 -0.4212
 2613TIP3   OH2 7781   1.971   2.860   3.239  0.0880 -0.0651 -0.0654
 2613TIP3    H1 7782   1.905   2.817   3.186  1.2813 -2.4517  0.3210
 2613TIP3    H2 7783   1.936   2.949   3.254 -1.7985 -0.4565 -1.9642
 2614TIP3   OH2 7784   1.404   7.893   3.999  0.3444  0.0198 -0.6038
 2614TIP3    H1 7785   1.308   7.887   4.003  0.4168 -1.1690 -0.5788
 2614TIP3    H2 7786   1.430   7.915   4.089  0.3046 -3.0068  0.2036
 2615TIP3   OH2 7787   3.765   2.851   4.189  0.0701 -0.2877 -0.8210
 2615TIP3    H1 7788   3.761   2.845   4.093  0.0188 -0.0936 -0.8318
 2615TIP3    H2 7789   3.674   2.841   4.217 -0.0960  0.9030 -0.8718
 2616TIP3   OH2 7790   1.628   3.340   3.198  0.1017 -0.7261 -0.0229
 2616TIP3    H1 7791   1.614   3.309   3.287  1.0036 -0.7780  0.1085
 2616TIP3    H2 7792   1.715   3.308   3.175  1.0009  1.5432  0.0647
 2617TIP3   OH2 7793   1.320   0.910   1.295 -0.8766  0.2629  0.0524
 2617TIP3    H1 7794   1.253   0.974   1.319 -1.1694 -0.2667  0.6425
 2617TIP3    H2 7795   1.318   0.909   1.199 -0.3638  1.6663  0.0146
 2618TIP3   OH2 7796   3.281   3.177   3.221  0.0680 -0.0007  0.1036
 2618TIP3    H1 7797   3.261   3.271   3.219 -0.0127  0.0156  1.3038
 2618TIP3    H2 7798   3.229   3.143   3.295  0.9503 -0.7827  0.3729
 2619TIP3   OH2 7799   0.457   7.372   2.658  0.1111 -0.4194 -0.0062
 2619TIP3    H1 7800   0.512   7.309   2.613  1.3308  0.1927  0.6042
 2619TIP3    H2 7801   0.489   7.372   2.748  1.5554  2.5751 -0.4496
 2620TIP3   OH2 7802   1.135   3.212   4.355  0.0592 -0.2521  0.6604
 2620TIP3    H1 7803   1.089   3.158   4.291 -0.7413  0.4180  0.6682
 2620TIP3    H2 7804   1.171   3.284   4.303  1.1928 -0.8212  0.6369
 2621TIP3   OH2 7805   0.883   4.206   1.678  0.6408 -0.1741 -0.5834
 2621TIP3    H1 7806   0.789   4.213   1.659  0.8408  1.0607 -1.1700
 2621TIP3    H2 7807   0.888   4.208   1.773  0.0693 -0.1967 -0.5493
 2622TIP3   OH2 7808   0.431   0.368   3.378 -0.1413 -0.1222 -0.0240
 2622TIP3    H1 7809   0.354   0.416   3.349 -1.3959 -1.3292  1.2605
 2622TIP3    H2 7810   0.420   0.358   3.472  1.0615 -1.2268  0.0249
 2623TIP3   OH2 7811   1.762   0.194   2.429 -0.5824 -0.7027  0.0884
 2623TIP3    H1 7812   1.810   0.203   2.511  1.8022  0.0473 -1.3389
 2623TIP3    H2 7813   1.729   0.282   2.410  3.1316  0.2963 -2.2196
 2624TIP3   OH2 7814   0.348   6.594   2.131 -0.2209 -0.0352 -0.2370
 2624TIP3    H1 7815   0.411   6.611   2.061 -0.8005  0.3515 -0.6810
 2624TIP3    H2 7816   0.354   6.500   2.147 -0.2443 -0.1650 -0.9672
 2625TIP3   OH2 7817   0.959   1.644   2.437 -0.4049 -0.0487 -0.0003
 2625TIP3    H1 7818   1.017   1.575   2.404 -0.9852 -1.1490  1.2120
 2625TIP3    H2 7819   1.000   1.671   2.519  0.0347  1.3555 -0.6680
 2626TIP3   OH2 7820   8.208   7.673   4.302 -0.5340  0.0820 -0.1592
 2626TIP3    H1 7821   8.147   7.692   4.230  0.6739 -2.0877 -1.8252
 2626TIP3    H2 7822   8.275   7.741   4.295 -0.0235 -0.5457 -1.5992
 2627TIP3   OH2 7823   0.197   0.070   3.562 -0.3204  0.6968  0.1228
 2627TIP3    H1 7824   0.218   0.054   3.470 -4.2291 -1.6802 -0.4741
 2627TIP3    H2 7825   0.169   0.161   3.564 -2.8866  0.0208 -1.6752
 2628TIP3   OH2 7826   1.210   2.032   5.562 -0.3219  0.2550  0.3682
 2628TIP3    H1 7827   1.195   1.965   5.629  0.2202 -0.1363  0.1016
 2628TIP3    H2 7828   1.303   2.023   5.540 -0.3837  0.7082 -0.0870
 2629TIP3   OH2 7829   6.350   6.769   2.942  0.7072 -0.0325  0.0193
 2629TIP3    H1 7830   6.410   6.831   2.985 -0.1935  0.5087  0.5000
 2629TIP3    H2 7831   6.279   6.757   3.005 -0.5427  0.6267 -1.2435
 2630TIP3   OH2 7832   2.161   3.567   2.363 -0.3505  0.3597 -0.2697
 2630TIP3    H1 7833   2.112   3.609   2.435  0.7650  1.3026 -0.0439
 2630TIP3    H2 7834   2.238   3.622   2.352 -0.9923  0.8108 -2.8835
 2631TIP3   OH2 7835   2.565   1.477   3.740  0.7306  0.5277 -0.0847
 2631TIP3    H1 7836   2.521   1.543   3.687  2.1335  2.1367  0.7370
 2631TIP3    H2 7837   2.657   1.483   3.714  0.8850 -1.0820  0.0349
 2632TIP3   OH2 7838   3.269   1.044   2.684 -0.0481  0.0599  0.2661
 2632TIP3    H1 7839   3.321   1.118   2.654 -1.9885  1.1142 -0.5703
 2632TIP3    H2 7840   3.296   0.972   2.627  1.2425  0.3136  0.5354
 2633TIP3   OH2 7841   4.514   2.346   2.897 -0.2256 -0.0304 -0.5801
 2633TIP3    H1 7842   4.608   2.362   2.899 -0.5657  2.0462  0.4024
 2633TIP3    H2 7843   4.482   2.399   2.825 -0.7979  0.1731 -0.1795
 2634TIP3   OH2 7844   3.345   1.878   1.550  0.5385  0.3022 -0.3057
 2634TIP3    H1 7845   3.345   1.795   1.598 -0.8229  0.2313 -0.3798
 2634TIP3    H2 7846   3.377   1.942   1.613  1.6056 -0.2816 -0.2460
 2635TIP3   OH2 7847   1.092   1.538   5.224  0.0031 -0.2328  0.1845
 2635TIP3    H1 7848   1.038   1.586   5.162 -1.2730 -0.7012  0.9111
 2635TIP3    H2 7849   1.053   1.450   5.227  1.3809 -0.8576  0.0115
 2636TIP3   OH2 7850   2.542   5.078   0.268  0.1637 -0.5715 -0.5200
 2636TIP3    H1 7851   2.593   4.998   0.267 -0.0759 -0.7386  0.3345
 2636TIP3    H2 7852   2.601   5.145   0.233  1.3567 -0.5285  1.5100
 2637TIP3   OH2 7853   0.881   3.664   3.172  0.2612  0.0522  0.4218
 2637TIP3    H1 7854   0.907   3.573   3.186  3.3012  0.8721  0.5985
 2637TIP3    H2 7855   0.885   3.675   3.077  0.6499  0.1798  0.4498
 2638TIP3   OH2 7856   3.108   0.262   1.717  0.1312  0.1105 -0.5244
 2638TIP3    H1 7857   3.099   0.279   1.811 -1.5960 -1.6148 -0.3628
 2638TIP3    H2 7858   3.043   0.319   1.676 -0.2142 -0.2981 -0.5494
 2639TIP3   OH2 7859   3.586   2.091   2.006  0.3478 -0.1035  0.4073
 2639TIP3    H1 7860   3.636   2.041   2.071  1.4542  1.4758  0.8136
 2639TIP3    H2 7861   3.647   2.102   1.933 -0.1454  0.0161  0.0128
 2640TIP3   OH2 7862   6.461   0.387   2.899  0.0430 -0.7065  0.0458
 2640TIP3    H1 7863   6.508   0.306   2.882  0.0067 -0.4215 -1.4827
 2640TIP3    H2 7864   6.410   0.403   2.819  1.8356  2.0076 -0.6195
 2641TIP3   OH2 7865   3.378   1.867   3.912 -0.1959  0.6258  0.0899
 2641TIP3    H1 7866   3.395   1.959   3.892 -0.7484  0.5893 -0.5486
 2641TIP3    H2 7867   3.288   1.865   3.943 -0.2310  0.2786 -0.0294
 2642TIP3   OH2 7868   0.961   7.882   4.873 -0.9254  0.0049  0.5340
 2642TIP3    H1 7869   1.030   7.941   4.840  0.9330 -2.1831  0.4088
 2642TIP3    H2 7870   0.945   7.822   4.801 -2.0065 -0.3717  1.0785
 2643TIP3   OH2 7871   3.177   1.351   3.148 -0.4225 -0.1565  0.1005
 2643TIP3    H1 7872   3.085   1.358   3.175  0.0020  2.2260  1.0099
 2643TIP3    H2 7873   3.227   1.361   3.229  0.7073  0.8320 -0.7108
 2644TIP3   OH2 7874   3.874   0.193   1.542  0.1178  0.0576  0.3300
 2644TIP3    H1 7875   3.896   0.284   1.523  0.3690  0.1423  1.0231
 2644TIP3    H2 7876   3.802   0.198   1.605 -0.6556 -0.2270 -0.5040
 2645TIP3   OH2 7877   3.899   2.336   0.499  0.3510  0.4800  0.1809
 2645TIP3    H1 7878   3.904   2.383   0.416 -1.2809 -0.2574 -0.3575
 2645TIP3    H2 7879   3.990   2.326   0.527  1.0214 -0.6107 -2.2791
 2646TIP3   OH2 7880   4.991   2.380   3.100  0.3035  0.5648 -0.1274
 2646TIP3    H1 7881   5.063   2.321   3.078  0.4428  0.2449  1.1793
 2646TIP3    H2 7882   4.963   2.352   3.187 -3.1228 -1.0758 -1.6434
 2647TIP3   OH2 7883   6.240   2.069   2.049 -0.1904  0.6202 -0.3787
 2647TIP3    H1 7884   6.277   2.072   1.960 -0.2637 -0.4827 -0.4619
 2647TIP3    H2 7885   6.201   2.155   2.062 -2.4319 -0.0080 -2.4215
 2648TIP3   OH2 7886   2.248   7.791   1.941  0.1693  0.3487  0.5280
 2648TIP3    H1 7887   2.334   7.811   1.904  0.3737 -0.2889  0.6614
 2648TIP3    H2 7888   2.241   7.696   1.937 -0.8545  0.4380 -0.2010
 2649TIP3   OH2 7889   3.548   1.561   1.188  0.2103  0.2210 -0.4537
 2649TIP3    H1 7890   3.469   1.514   1.159 -0.8917  1.9650 -0.3438
 2649TIP3    H2 7891   3.562   1.627   1.120  1.1759  0.3890 -0.0953
 2650TIP3   OH2 7892   3.990   1.873   1.354 -0.9386  0.3968  0.5900
 2650TIP3    H1 7893   3.976   1.966   1.336 -1.9102  0.3574  1.0917
 2650TIP3    H2 7894   4.053   1.845   1.288 -1.3786  1.1910 -0.1830
 2651TIP3   OH2 7895   6.052   2.521   1.063 -0.0389 -0.2185  0.4396
 2651TIP3    H1 7896   6.072   2.432   1.092  0.7872 -0.3086 -0.3680
 2651TIP3    H2 7897   5.957   2.523   1.054 -0.0871 -0.9190  0.7972
 2652TIP3   OH2 7898   2.958   1.207   4.855  0.1410 -0.5971  0.2993
 2652TIP3    H1 7899   2.982   1.171   4.941  2.3296 -0.1611 -0.0793
 2652TIP3    H2 7900   3.033   1.185   4.799 -0.9527 -0.2503 -1.3188
 2653TIP3   OH2 7901   4.629   2.907   2.157  0.1171 -0.1417  0.4536
 2653TIP3    H1 7902   4.537   2.883   2.164  0.3788 -0.8041  1.7105
 2653TIP3    H2 7903   4.670   2.869   2.235  1.0915  1.8378  0.9308
 2654TIP3   OH2 7904   3.713   0.262   4.543  0.0247 -0.0441 -0.6492
 2654TIP3    H1 7905   3.806   0.272   4.524  0.2507 -2.6272 -1.1992
 2654TIP3    H2 7906   3.710   0.231   4.634 -0.3482  0.6023 -0.4352
 2655TIP3   OH2 7907   4.090   0.587   1.115  0.0968  0.5154 -0.3067
 2655TIP3    H1 7908   4.081   0.682   1.119 -2.4682  0.3643 -1.5909
 2655TIP3    H2 7909   4.117   0.562   1.204 -0.1839  2.3262  0.3092
 2656TIP3   OH2 7910   4.279   1.648   3.090 -0.5754  0.3763  0.3033
 2656TIP3    H1 7911   4.239   1.659   3.004 -1.1631 -0.9997  0.3937
 2656TIP3    H2 7912   4.324   1.731   3.107 -1.5008  1.0998 -0.7840
 2657TIP3   OH2 7913   4.115   1.933   3.296  0.1049  0.2279 -0.2965
 2657TIP3    H1 7914   4.123   1.997   3.226 -1.4442 -0.0887 -0.7842
 2657TIP3    H2 7915   4.202   1.893   3.302  1.0607  2.2925 -0.0348
 2658TIP3   OH2 7916   5.356   1.320   2.704  0.1448  0.1570  0.3930
 2658TIP3    H1 7917   5.448   1.308   2.680 -0.0788  0.3515 -0.5810
 2658TIP3    H2 7918   5.332   1.405   2.666 -0.3533  0.2526  0.9101
 2659TIP3   OH2 7919   6.153   0.814   3.690 -0.1304  0.7069  0.2054
 2659TIP3    H1 7920   6.120   0.728   3.715 -0.8484  0.8103 -0.3706
 2659TIP3    H2 7921   6.239   0.820   3.732  0.5735 -0.8849 -0.9597
 2660TIP3   OH2 7922   4.167   0.886   4.251  0.6247  0.1249  0.4766
 2660TIP3    H1 7923   4.167   0.973   4.211 -0.6231 -0.2053 -0.2787
 2660TIP3    H2 7924   4.257   0.855   4.242  0.8290  0.9020 -0.2113
 2661TIP3   OH2 7925   4.305   2.996   2.338  0.5602 -0.1656  0.4039
 2661TIP3    H1 7926   4.337   2.919   2.290  1.3809  0.5592 -0.2221
 2661TIP3    H2 7927   4.301   3.065   2.272  3.7943  1.4281  1.7880
 2662TIP3   OH2 7928   6.919   0.976   3.732  0.2752  0.4685 -0.2866
 2662TIP3    H1 7929   6.912   0.981   3.637  0.0179 -0.3549 -0.3103
 2662TIP3    H2 7930   6.904   1.066   3.762 -2.0174  0.3067 -0.8725
 2663TIP3   OH2 7931   1.437   7.483   2.604  0.4249  0.7091 -0.9237
 2663TIP3    H1 7932   1.494   7.508   2.677 -1.5442  3.1725 -0.1956
 2663TIP3    H2 7933   1.476   7.401   2.571  3.5819  1.5907  0.4007
 2664TIP3   OH2 7934   4.495   3.014   1.185 -0.2491 -0.3766 -0.1976
 2664TIP3    H1 7935   4.462   3.027   1.095  1.4124  0.4197 -0.7048
 2664TIP3    H2 7936   4.528   3.100   1.210 -0.5003 -0.6610  1.1113
 2665TIP3   OH2 7937   4.943   1.565   2.047 -0.3414  0.2198 -0.6274
 2665TIP3    H1 7938   5.013   1.541   1.987  0.4985  1.1559 -0.0365
 2665TIP3    H2 7939   4.898   1.637   2.004  0.2548  0.8845 -0.1521
 2666TIP3   OH2 7940   5.017   2.234   2.028 -0.0636 -0.1777  0.1169
 2666TIP3    H1 7941   4.962   2.207   2.101 -0.0537 -0.2764  0.0882
 2666TIP3    H2 7942   5.104   2.199   2.048  0.0562  0.2227  0.3007
 2667TIP3   OH2 7943   7.012   0.743   3.084 -0.3000  0.3895 -0.5841
 2667TIP3    H1 7944   7.009   0.721   3.177 -1.7486 -2.5304 -1.2791
 2667TIP3    H2 7945   7.077   0.683   3.048 -0.5987  0.7342 -1.6932
 2668TIP3   OH2 7946   6.766   1.277   3.034  0.2593  0.0032 -0.1709
 2668TIP3    H1 7947   6.737   1.258   3.123 -0.3286 -2.4681 -0.8568
 2668TIP3    H2 7948   6.862   1.273   3.039  0.2776  1.1085  0.5913
 2669TIP3   OH2 7949   3.550   1.525   2.310 -0.0246 -0.2855  0.4133
 2669TIP3    H1 7950   3.625   1.465   2.302  0.3575  0.1334  0.8187
 2669TIP3    H2 7951   3.573   1.582   2.383 -0.4025  0.3439  0.0398
 2670TIP3   OH2 7952   1.336   0.945   1.929 -0.2023 -0.1911  0.0023
 2670TIP3    H1 7953   1.431   0.959   1.926 -0.1393 -0.3996  0.7143
 2670TIP3    H2 7954   1.322   0.863   1.882 -0.1670  0.4296 -1.1080
 2671TIP3   OH2 7955   3.886   2.448   3.794 -0.3381  1.1233 -0.1140
 2671TIP3    H1 7956   3.800   2.489   3.784 -2.1808 -2.3386  0.4782
 2671TIP3    H2 7957   3.899   2.444   3.889 -0.3174  0.1377 -0.1540
 2672TIP3   OH2 7958   5.110   0.389   2.616  0.4461  0.0154 -0.1231
 2672TIP3    H1 7959   5.015   0.374   2.613  0.2962  0.8779  0.0890
 2672TIP3    H2 7960   5.119   0.484   2.626  1.3462  0.0016 -0.7057
 2673TIP3   OH2 7961   3.585   3.488   3.200 -0.3291  0.1161  0.1079
 2673TIP3    H1 7962   3.629   3.408   3.229 -0.7050  0.1333  0.7397
 2673TIP3    H2 7963   3.532   3.514   3.275  0.8480  1.7205  0.4216
 2674TIP3   OH2 7964   3.418   0.882   3.350 -0.0314 -0.4611 -0.1343
 2674TIP3    H1 7965   3.466   0.841   3.278  1.2513 -0.6419  0.7920
 2674TIP3    H2 7966   3.453   0.971   3.354  0.1097 -0.5374  0.4247
 2675TIP3   OH2 7967   0.698   6.873   3.923  0.0651  0.0362 -0.2537
 2675TIP3    H1 7968   0.656   6.955   3.949  1.1300  0.5876 -0.2582
 2675TIP3    H2 7969   0.652   6.847   3.842 -0.2531  0.6323 -0.2636
 2676TIP3   OH2 7970   5.152   1.864   2.081  0.0973  0.2034 -0.2573
 2676TIP3    H1 7971   5.126   1.798   2.017  1.1751 -0.0579 -0.4366
 2676TIP3    H2 7972   5.071   1.884   2.128 -0.8187  0.7972 -2.0433
 2677TIP3   OH2 7973   3.076   0.880   2.841  0.6008 -0.1642 -0.3386
 2677TIP3    H1 7974   3.146   0.923   2.792 -0.5601  0.0454 -1.8623
 2677TIP3    H2 7975   3.119   0.810   2.890  1.7323 -0.6188 -1.9709
 2678TIP3   OH2 7976   6.384   1.249   2.673  0.1194  0.2627 -0.3030
 2678TIP3    H1 7977   6.333   1.170   2.655  2.6998 -1.0741 -1.9219
 2678TIP3    H2 7978   6.419   1.236   2.761 -1.1890  0.6008  0.2878
 2679TIP3   OH2 7979   3.806   1.487   2.855 -0.4164  0.1049  0.3940
 2679TIP3    H1 7980   3.882   1.524   2.899 -0.9317  0.9253  0.5960
 2679TIP3    H2 7981   3.731   1.536   2.889 -0.7690  1.2047 -1.8352
 2680TIP3   OH2 7982   5.822   1.288   1.792 -0.1511 -0.1524 -0.0737
 2680TIP3    H1 7983   5.841   1.263   1.883  0.1042 -0.0560 -0.0988
 2680TIP3    H2 7984   5.743   1.239   1.770  0.3901 -1.0180 -0.1474
 2681TIP3   OH2 7985   1.396   1.262   3.504 -0.4743 -0.2498  0.1562
 2681TIP3    H1 7986   1.390   1.348   3.462  0.2982 -0.5346 -0.5562
 2681TIP3    H2 7987   1.392   1.281   3.598 -2.4428  0.3679 -0.0368
 2682TIP3   OH2 7988   2.679   0.878   2.504 -0.2377  0.1459 -0.1347
 2682TIP3    H1 7989   2.645   0.967   2.506  0.3922  0.3912 -0.3037
 2682TIP3    H2 7990   2.724   0.867   2.588 -0.9497 -0.2609  0.1928
 2683TIP3   OH2 7991   4.928   2.175   2.480 -0.6009  0.4028 -0.6103
 2683TIP3    H1 7992   4.986   2.230   2.533 -0.0937 -0.5593 -0.1472
 2683TIP3    H2 7993   4.987   2.110   2.440 -1.3172 -0.4374 -0.3146
 2684TIP3   OH2 7994   7.132   1.185   3.288  0.6808 -0.1724  0.2755
 2684TIP3    H1 7995   7.105   1.120   3.222 -0.1953  2.0673 -1.6303
 2684TIP3    H2 7996   7.051   1.230   3.311  1.2671  0.1744  1.6888
 2685TIP3   OH2 7997   4.707   3.880   2.839 -0.9425  0.3027  0.0591
 2685TIP3    H1 7998   4.649   3.804   2.849  1.9313 -1.7604  1.6227
 2685TIP3    H2 7999   4.749   3.868   2.754  0.5961 -0.6827  0.9340
 2686TIP3   OH2 8000   3.987   2.971   3.761 -0.0212  0.2741 -0.0476
 2686TIP3    H1 8001   3.908   2.977   3.707 -0.7429  1.4709  1.1000
 2686TIP3    H2 8002   3.973   3.035   3.830  2.8083  1.8785 -0.8886
 2687TIP3   OH2 8003   5.434   3.734   1.613 -0.0926 -0.4613 -0.3824
 2687TIP3    H1 8004   5.405   3.655   1.569  0.3787 -0.3985 -0.8086
 2687TIP3    H2 8005   5.372   3.801   1.586  0.0175 -0.4927 -0.7152
 2688TIP3   OH2 8006   3.870   2.596   1.990  0.0320 -0.0392 -0.2532
 2688TIP3    H1 8007   3.902   2.682   2.017  2.1537 -0.0812 -2.4508
 2688TIP3    H2 8008   3.908   2.535   2.053 -2.1741  0.6517  1.8328
 2689TIP3   OH2 8009   4.997   2.868   2.367 -0.4424 -0.9449 -0.0898
 2689TIP3    H1 8010   5.089   2.842   2.365 -0.3165 -0.5838  0.8107
 2689TIP3    H2 8011   4.949   2.786   2.355 -0.0014 -1.0822 -0.9497
 2690TIP3   OH2 8012   4.250   2.633   5.174  0.3032 -0.0025  0.5906
 2690TIP3    H1 8013   4.188   2.572   5.134 -0.0472  0.7933 -0.0841
 2690TIP3    H2 8014   4.279   2.588   5.254 -1.6918 -0.0660  1.3052
 2691TIP3   OH2 8015   3.465   3.222   2.657  0.2262  0.4004  0.0953
 2691TIP3    H1 8016   3.375   3.192   2.665  1.0506 -2.2105 -0.0247
 2691TIP3    H2 8017   3.458   3.307   2.612 -2.2009  0.6476  0.8603
 2692TIP3   OH2 8018   4.895   3.099   3.624 -0.2411  0.3748 -0.2694
 2692TIP3    H1 8019   4.849   3.035   3.680 -1.0736  0.7009 -0.5722
 2692TIP3    H2 8020   4.949   3.046   3.566 -0.2958 -0.0217  0.0415
 2693TIP3   OH2 8021   4.622   0.101   4.127  0.5572 -0.4187  0.1883
 2693TIP3    H1 8022   4.594   0.065   4.211  2.4992 -1.0220  0.6156
 2693TIP3    H2 8023   4.676   0.032   4.089 -0.1233 -0.0593 -1.4618
 2694TIP3   OH2 8024   7.234   3.794   6.616  0.1621 -0.0432  0.1793
 2694TIP3    H1 8025   7.205   3.703   6.619 -1.5936  0.4918  0.0422
 2694TIP3    H2 8026   7.221   3.820   6.525 -0.1963  0.5916  0.4082
 2695TIP3   OH2 8027   4.440   1.068   3.071 -0.4652  0.1594  0.2792
 2695TIP3    H1 8028   4.528   1.107   3.066 -0.4284  0.2374  1.5217
 2695TIP3    H2 8029   4.425   1.053   3.164 -1.5634 -0.3528  0.0306
 2696TIP3   OH2 8030   3.562   0.205   4.250 -0.4684  0.4182  0.2033
 2696TIP3    H1 8031   3.537   0.190   4.159 -1.1424 -1.2542  0.6264
 2696TIP3    H2 8032   3.577   0.299   4.256 -1.4211  0.7017 -1.3907
 2697TIP3   OH2 8033   5.474   2.359   1.595  0.0397  0.0938  0.2884
 2697TIP3    H1 8034   5.388   2.348   1.635  0.1032  0.4091  0.5104
 2697TIP3    H2 8035   5.479   2.452   1.572 -0.2382 -0.1926 -1.0034
 2698TIP3   OH2 8036   3.597   7.766   2.004  0.0057  0.2773 -0.0867
 2698TIP3    H1 8037   3.565   7.848   2.040  1.3873  0.4034  0.8678
 2698TIP3    H2 8038   3.642   7.792   1.923 -0.7735  0.2785 -0.5365
 2699TIP3   OH2 8039   4.641   1.580   3.561 -0.0124  0.0615  0.8694
 2699TIP3    H1 8040   4.609   1.643   3.626 -2.3765  1.4287 -1.5488
 2699TIP3    H2 8041   4.571   1.515   3.555 -0.6373  0.9496 -1.6512
 2700TIP3   OH2 8042   4.594   1.288   2.066  0.3323  0.0609  0.0362
 2700TIP3    H1 8043   4.555   1.376   2.066 -0.4720 -0.2679  1.8607
 2700TIP3    H2 8044   4.661   1.291   1.998  2.0946  2.8968  1.8196
 2701TIP3   OH2 8045   4.578   1.918   2.703  0.4105  0.5982 -0.1996
 2701TIP3    H1 8046   4.565   1.854   2.634 -0.2900  2.4907 -1.8761
 2701TIP3    H2 8047   4.544   1.875   2.782 -2.5506 -0.1247 -1.7755
 2702TIP3   OH2 8048   7.849   7.644   2.485  0.8920 -0.7279 -0.1985
 2702TIP3    H1 8049   7.887   7.571   2.435  0.3046 -1.1121 -0.0863
 2702TIP3    H2 8050   7.754   7.631   2.479  0.7557  0.5117 -0.8882
 2703TIP3   OH2 8051   3.360   0.979   3.799  0.6964  0.1705 -0.4092
 2703TIP3    H1 8052   3.398   0.919   3.864  0.3420  0.1791 -0.1951
 2703TIP3    H2 8053   3.431   1.041   3.780  0.9871 -0.1689 -0.4544
 2704TIP3   OH2 8054   0.528   7.518   2.946  0.1257 -0.0064  0.1381
 2704TIP3    H1 8055   0.490   7.437   2.980  1.4419 -0.3145  0.8560
 2704TIP3    H2 8056   0.488   7.587   2.999 -0.8063 -0.1862 -0.3101
 2705TIP3   OH2 8057   4.918   3.665   3.096 -0.0053  1.1237 -0.0726
 2705TIP3    H1 8058   5.012   3.673   3.105 -0.0245 -0.4213  1.9064
 2705TIP3    H2 8059   4.904   3.575   3.066 -0.8051  1.7863 -1.8211
 2706TIP3   OH2 8060   3.247   1.731   2.602  0.4081  0.1257  0.6811
 2706TIP3    H1 8061   3.191   1.684   2.664  0.6503 -1.0678  0.0124
 2706TIP3    H2 8062   3.189   1.794   2.560 -0.7195 -1.9004 -0.8449
 2707TIP3   OH2 8063   5.293   1.300   0.534  0.7950  0.3081 -0.2971
 2707TIP3    H1 8064   5.375   1.333   0.498  0.7017 -0.9326 -1.6859
 2707TIP3    H2 8065   5.291   1.208   0.509 -0.1456 -0.1352  1.3417
 2708TIP3   OH2 8066   2.881   7.097   2.570  0.4801  0.0713 -0.1719
 2708TIP3    H1 8067   2.961   7.145   2.589  0.1768  0.4711  0.1000
 2708TIP3    H2 8068   2.812   7.146   2.614  0.0861 -0.2824 -0.3862
 2709TIP3   OH2 8069   2.410   1.788   2.333 -0.6275  0.0010 -0.0595
 2709TIP3    H1 8070   2.443   1.878   2.333 -0.6107 -0.0043  0.4182
 2709TIP3    H2 8071   2.316   1.796   2.315 -0.2618 -0.0268 -2.0957
 2710TIP3   OH2 8072   3.974   2.266   5.190 -0.0720 -0.3268 -0.5331
 2710TIP3    H1 8073   4.031   2.317   5.132 -0.1965  0.5662  0.1244
 2710TIP3    H2 8074   4.025   2.256   5.270 -0.9041  0.6353  0.1268
 2711TIP3   OH2 8075   4.144   2.223   3.348  0.1273  0.4262  0.8236
 2711TIP3    H1 8076   4.215   2.214   3.411 -0.5579  0.9911  1.6856
 2711TIP3    H2 8077   4.079   2.277   3.392 -1.4190 -1.1729  0.5537
 2712TIP3   OH2 8078   6.191   1.467   2.971  0.0334 -0.9208  0.2911
 2712TIP3    H1 8079   6.246   1.461   3.049 -0.3918  0.9377  0.7543
 2712TIP3    H2 8080   6.253   1.486   2.900  0.3303 -1.8258  0.3046
 2713TIP3   OH2 8081   2.997   1.258   1.904 -0.1152  0.0573  0.4555
 2713TIP3    H1 8082   3.092   1.269   1.899 -0.2980  1.5798  0.0905
 2713TIP3    H2 8083   2.982   1.215   1.988  1.0130 -1.7064 -0.2145
 2714TIP3   OH2 8084   4.089   1.990   3.561 -0.5720  0.7309  0.1382
 2714TIP3    H1 8085   4.070   1.896   3.567  2.1816  0.0920 -0.4985
 2714TIP3    H2 8086   4.088   2.008   3.467  2.3426  0.5406  0.0341
 2715TIP3   OH2 8087   3.099   1.934   3.981 -0.4966 -0.3739 -0.6113
 2715TIP3    H1 8088   3.092   2.026   4.007 -1.4527  0.0967 -2.4838
 2715TIP3    H2 8089   3.033   1.923   3.912 -0.4061 -2.4702 -0.3868
 2716TIP3   OH2 8090   3.654   1.811   2.115 -0.5262 -0.2216 -0.0934
 2716TIP3    H1 8091   3.572   1.770   2.143  0.7817 -1.5382  1.9458
 2716TIP3    H2 8092   3.692   1.749   2.053 -0.5620 -0.1204 -0.2163
 2717TIP3   OH2 8093   4.437   0.622   5.391 -0.2021  0.1795 -0.5550
 2717TIP3    H1 8094   4.489   0.691   5.351  0.4454  1.0703  1.7197
 2717TIP3    H2 8095   4.501   0.568   5.438 -0.9070 -0.9114 -0.8394
 2718TIP3   OH2 8096   4.154   2.632   1.374  0.2369 -0.0646  0.2981
 2718TIP3    H1 8097   4.109   2.707   1.412 -0.3681 -0.3248  0.0988
 2718TIP3    H2 8098   4.096   2.602   1.304 -0.5857 -2.0511  1.7966
 2719TIP3   OH2 8099   3.674   1.100   1.414  0.5393 -0.5039 -0.3522
 2719TIP3    H1 8100   3.666   1.189   1.379 -1.2637 -0.1257  0.9671
 2719TIP3    H2 8101   3.614   1.048   1.361 -1.8797 -0.0109  1.7760
 2720TIP3   OH2 8102   3.181   1.214   4.671  0.3881 -0.1250  0.0731
 2720TIP3    H1 8103   3.143   1.294   4.634 -0.3346 -0.4954  0.0168
 2720TIP3    H2 8104   3.221   1.170   4.597  0.2234 -0.1345 -0.0105
 2721TIP3   OH2 8105   3.847   2.374   2.457 -0.8010  0.5520  0.0028
 2721TIP3    H1 8106   3.795   2.430   2.515 -0.4838  0.9234 -0.0687
 2721TIP3    H2 8107   3.882   2.307   2.515 -0.9219  0.6159  0.1499
 2722TIP3   OH2 8108   3.486   3.188   3.800 -0.2389 -0.0069 -0.4841
 2722TIP3    H1 8109   3.483   3.102   3.842 -1.2754 -0.4406 -1.4126
 2722TIP3    H2 8110   3.488   3.169   3.706  0.1507  0.9776 -0.6835
 2723TIP3   OH2 8111   2.130   1.042   3.789 -0.1389  0.6968  0.1714
 2723TIP3    H1 8112   2.147   1.062   3.881  0.9503  4.9238 -0.8640
 2723TIP3    H2 8113   2.211   1.002   3.757  0.1575  0.9507  0.6006
 2724TIP3   OH2 8114   5.210   2.076   3.252 -0.3298  0.0340  0.3736
 2724TIP3    H1 8115   5.152   2.076   3.329 -0.3014 -1.8077  0.4138
 2724TIP3    H2 8116   5.273   2.006   3.270 -0.9313 -1.0950 -1.7687
 2725TIP3   OH2 8117   3.973   2.195   2.613  0.1103  0.0288  0.5839
 2725TIP3    H1 8118   3.986   2.194   2.708  0.1917 -0.4055  0.5683
 2725TIP3    H2 8119   4.059   2.212   2.576 -0.3230  2.6067  0.6594
 2726TIP3   OH2 8120   4.407   0.721   2.136 -0.6500  0.0318  0.0352
 2726TIP3    H1 8121   4.320   0.755   2.112 -0.5116  0.4504  0.1272
 2726TIP3    H2 8122   4.404   0.629   2.111 -1.4965 -0.2194  1.0272
 2727TIP3   OH2 8123   6.410   3.253   3.384  0.2601 -0.1735  0.1816
 2727TIP3    H1 8124   6.340   3.294   3.434  0.3282 -1.4275  1.3332
 2727TIP3    H2 8125   6.478   3.320   3.379  0.3094 -0.0826  1.8856
 2728TIP3   OH2 8126   5.765   1.669   2.249  0.1059 -0.0271 -0.2954
 2728TIP3    H1 8127   5.681   1.701   2.216  0.3904 -0.8147 -1.7915
 2728TIP3    H2 8128   5.828   1.737   2.224  0.4361 -0.9514 -2.0089
 2729TIP3   OH2 8129   2.475   2.081   1.886  0.0608  0.0793  0.8981
 2729TIP3    H1 8130   2.515   2.146   1.945  0.7090 -0.1469  0.7060
 2729TIP3    H2 8131   2.389   2.064   1.925 -0.4324  1.6365  0.5217
 2730TIP3   OH2 8132   3.544   1.003   2.843  0.2940 -0.2701  0.5968
 2730TIP3    H1 8133   3.496   1.044   2.771  0.7337 -1.3562 -0.3475
 2730TIP3    H2 8134   3.611   0.950   2.799 -0.8174 -2.6958  1.6911
 2731TIP3   OH2 8135   6.730   1.629   2.323  0.0758  0.1248 -0.0759
 2731TIP3    H1 8136   6.743   1.534   2.323 -0.3515  0.0135 -3.2069
 2731TIP3    H2 8137   6.635   1.640   2.332  0.1481  0.2648  0.5200
 2732TIP3   OH2 8138   4.759   1.215   3.666 -0.1462  0.0043 -0.2479
 2732TIP3    H1 8139   4.802   1.222   3.752 -0.0509  1.0692 -0.3786
 2732TIP3    H2 8140   4.789   1.291   3.617 -1.2342  0.1183 -0.7676
 2733TIP3   OH2 8141   4.205   2.647   4.036 -0.4219 -0.1288  0.3926
 2733TIP3    H1 8142   4.126   2.624   3.988 -0.6706 -1.6138  1.5050
 2733TIP3    H2 8143   4.202   2.743   4.041 -1.1455 -0.0447 -1.2425
 2734TIP3   OH2 8144   4.977   3.172   2.796  0.2280 -0.1603 -0.3020
 2734TIP3    H1 8145   4.997   3.085   2.832 -1.5600 -1.4009 -2.2190
 2734TIP3    H2 8146   4.908   3.206   2.852 -0.1822 -0.6608 -0.4980
 2735TIP3   OH2 8147   4.627   2.087   0.903 -0.0326 -0.0824  1.0620
 2735TIP3    H1 8148   4.665   2.133   0.978 -0.3842 -0.1493  1.2800
 2735TIP3    H2 8149   4.551   2.138   0.878 -1.3200 -1.3586  2.2727
 2736TIP3   OH2 8150   6.683   0.880   1.993  0.0762  0.0821  0.2820
 2736TIP3    H1 8151   6.670   0.962   2.041 -0.3246 -0.4222  1.0562
 2736TIP3    H2 8152   6.767   0.846   2.026 -0.3544 -0.4233  0.8644
 2737TIP3   OH2 8153   3.528   3.172   2.258 -0.2654  0.4512 -0.3699
 2737TIP3    H1 8154   3.459   3.107   2.248 -0.3065  0.2574  1.0138
 2737TIP3    H2 8155   3.555   3.193   2.169  0.6098 -2.3848 -0.8156
 2738TIP3   OH2 8156   3.344   1.803   4.704 -0.0227 -0.1752 -0.4756
 2738TIP3    H1 8157   3.429   1.815   4.661 -0.3143 -1.3186 -1.3888
 2738TIP3    H2 8158   3.326   1.710   4.696 -0.7029 -0.1794  0.9972
 2739TIP3   OH2 8159   4.445   0.658   2.934  0.1399  0.0795 -0.5507
 2739TIP3    H1 8160   4.500   0.600   2.880  0.2005  0.7448 -1.2158
 2739TIP3    H2 8161   4.498   0.736   2.947  0.2177 -0.1675  0.6985
 2740TIP3   OH2 8162   2.316   0.202   5.345  0.4267 -0.6562  0.6974
 2740TIP3    H1 8163   2.380   0.171   5.409  2.6163  2.4316  0.0939
 2740TIP3    H2 8164   2.269   0.272   5.390  0.1160 -0.3069 -0.1618
 2741TIP3   OH2 8165   3.980   3.222   3.551 -0.0121  0.2266 -0.0516
 2741TIP3    H1 8166   3.887   3.232   3.568  0.0950  0.5043  0.3900
 2741TIP3    H2 8167   4.006   3.304   3.508  0.3423  0.8192  1.2474
 2742TIP3   OH2 8168   2.724   1.106   0.715 -0.4752 -0.1009  0.6619
 2742TIP3    H1 8169   2.675   1.149   0.786 -0.5726  0.9964 -0.0571
 2742TIP3    H2 8170   2.743   1.177   0.653 -0.2433 -1.0197 -0.3278
 2743TIP3   OH2 8171   8.298   7.968   3.251  0.0771 -0.4118 -0.3220
 2743TIP3    H1 8172   8.269   7.886   3.290  0.2778 -0.3476 -0.0432
 2743TIP3    H2 8173   8.260   8.036   3.306  0.0923 -0.3190 -0.4249
 2744TIP3   OH2 8174   0.458   7.622   1.889  0.1399 -0.3834  0.1826
 2744TIP3    H1 8175   0.507   7.583   1.816  1.1128  1.8564 -0.4063
 2744TIP3    H2 8176   0.433   7.709   1.857  0.1587  0.4305  2.3391
 2745TIP3   OH2 8177   5.336   1.064   4.385  0.0367 -0.0159  0.1084
 2745TIP3    H1 8178   5.283   0.997   4.342 -0.5372 -0.3097  1.2446
 2745TIP3    H2 8179   5.401   1.090   4.319 -1.6612  0.5161 -1.3691
 2746TIP3   OH2 8180   3.968   1.894   2.968 -0.0580 -0.1218  0.1160
 2746TIP3    H1 8181   3.950   1.981   3.003 -0.1329  0.3741 -1.1355
 2746TIP3    H2 8182   4.030   1.856   3.030 -0.9381  0.3638  1.3097
 2747TIP3   OH2 8183   7.334   8.011   0.794 -0.2009 -0.0816  0.2748
 2747TIP3    H1 8184   7.354   7.959   0.716 -0.6706 -1.7849  1.2684
 2747TIP3    H2 8185   7.411   8.067   0.805  0.5145 -0.8643 -0.5676
 2748TIP3   OH2 8186   0.831   7.184   2.661  0.3160 -0.5781 -0.0645
 2748TIP3    H1 8187   0.900   7.185   2.595  2.7413 -1.8464  2.3583
 2748TIP3    H2 8188   0.788   7.100   2.650 -0.2885 -0.1599 -0.9837
 2749TIP3   OH2 8189   3.722   2.104   2.556  0.4531  0.1433 -0.3338
 2749TIP3    H1 8190   3.806   2.135   2.591  0.4458 -2.0440  1.7348
 2749TIP3    H2 8191   3.738   2.093   2.462  2.0168  1.2258 -0.2144
 2750TIP3   OH2 8192   4.423   1.219   3.462  0.2059  0.2704 -0.1355
 2750TIP3    H1 8193   4.381   1.148   3.414 -0.7380  0.5995  0.1964
 2750TIP3    H2 8194   4.490   1.253   3.402  0.5906 -0.8291 -0.3289
 2751TIP3   OH2 8195   3.149   1.131   3.693 -0.3915  0.1583  0.0447
 2751TIP3    H1 8196   3.201   1.064   3.736  0.7187  0.6751 -0.4867
 2751TIP3    H2 8197   3.212   1.198   3.667 -1.4042  1.1155  0.0120
 2752TIP3   OH2 8198   3.377   3.354   4.220 -0.2824 -0.0894  0.2638
 2752TIP3    H1 8199   3.421   3.437   4.239  0.0449  0.4559 -2.6858
 2752TIP3    H2 8200   3.299   3.380   4.170  0.4320 -1.6337 -1.6714
 2753TIP3   OH2 8201   5.938   3.332   2.217  0.0488  0.4630 -0.7447
 2753TIP3    H1 8202   5.912   3.343   2.308 -0.1360  0.0385 -0.7424
 2753TIP3    H2 8203   5.991   3.409   2.197  2.0557 -0.6036  0.4066
 2754TIP3   OH2 8204   4.684   3.700   0.893  0.1510 -0.0914 -0.0035
 2754TIP3    H1 8205   4.597   3.661   0.894  0.6967 -1.3272  0.0517
 2754TIP3    H2 8206   4.681   3.767   0.962  0.1198 -2.0550  1.9473
 2755TIP3   OH2 8207   1.782   6.914   1.651 -0.0384  0.3887 -0.4203
 2755TIP3    H1 8208   1.870   6.942   1.674  1.4913 -1.0759 -4.1238
 2755TIP3    H2 8209   1.746   6.986   1.599  1.0467 -1.2039 -3.4677
 2756TIP3   OH2 8210   6.028   2.357   3.235 -0.2238  0.4457  0.7193
 2756TIP3    H1 8211   5.979   2.317   3.163 -1.1452  0.4537  1.3366
 2756TIP3    H2 8212   6.005   2.450   3.231  2.3561  1.0610 -1.0686
 2757TIP3   OH2 8213   1.219   7.786   3.132 -0.5433  0.2321 -0.3432
 2757TIP3    H1 8214   1.301   7.784   3.083 -0.5704 -1.3159 -0.3554
 2757TIP3    H2 8215   1.172   7.862   3.097  1.3966  1.8888  0.5353
 2758TIP3   OH2 8216   3.269   0.507   3.655  0.0439  0.1991  0.4502
 2758TIP3    H1 8217   3.257   0.601   3.642  1.4625  0.1525 -1.3605
 2758TIP3    H2 8218   3.302   0.475   3.571 -2.8544 -2.3779  0.2131
 2759TIP3   OH2 8219   3.132   2.143   1.966  0.4332 -0.4257 -0.1349
 2759TIP3    H1 8220   3.212   2.104   2.001  1.2318  1.0302 -0.3102
 2759TIP3    H2 8221   3.154   2.235   1.952 -0.7667 -0.3660 -1.7543
 2760TIP3   OH2 8222   5.666   1.466   2.971 -0.1537  0.3807 -0.1373
 2760TIP3    H1 8223   5.606   1.532   2.937 -1.5843  0.4735  2.4716
 2760TIP3    H2 8224   5.720   1.513   3.035 -3.1519 -1.4812  3.9577
 2761TIP3   OH2 8225   3.017   1.532   0.471 -0.6247  0.0557  0.0802
 2761TIP3    H1 8226   3.025   1.461   0.408 -1.5414 -0.4773  0.5699
 2761TIP3    H2 8227   3.107   1.551   0.497 -0.2106  0.4760 -1.6038
 2762TIP3   OH2 8228   6.656   0.624   2.835  0.1167 -0.5492  0.6081
 2762TIP3    H1 8229   6.651   0.599   2.742 -0.1674 -2.2636  1.0690
 2762TIP3    H2 8230   6.675   0.542   2.880 -0.1073  0.2259  2.1177
 2763TIP3   OH2 8231   3.261   0.095   1.543 -0.4337  0.4661  0.8704
 2763TIP3    H1 8232   3.211   0.155   1.487 -2.2120 -1.6349  0.1321
 2763TIP3    H2 8233   3.248   0.128   1.632 -1.4440  1.1270  0.4837
 2764TIP3   OH2 8234   3.748   1.897   4.356  0.2085  0.1162 -0.1202
 2764TIP3    H1 8235   3.797   1.837   4.299  0.4667  1.0496 -0.8978
 2764TIP3    H2 8236   3.801   1.977   4.357 -2.0837  1.7499 -2.3191
 2765TIP3   OH2 8237   3.086   1.102   3.014 -0.2027 -0.4674 -0.5884
 2765TIP3    H1 8238   3.016   1.129   3.073  1.2245  1.2274  0.3797
 2765TIP3    H2 8239   3.043   1.045   2.950 -2.8672  2.2558 -1.3095
 2766TIP3   OH2 8240   3.609   0.453   4.369  0.0400  0.0425 -1.0723
 2766TIP3    H1 8241   3.564   0.522   4.418 -0.7779 -0.4848 -1.0754
 2766TIP3    H2 8242   3.621   0.382   4.432 -0.6776 -0.4894 -1.5212
 2767TIP3   OH2 8243   4.242   2.119   2.547 -0.3548 -0.0295  0.2220
 2767TIP3    H1 8244   4.292   2.097   2.626  0.0008  1.8167  0.5571
 2767TIP3    H2 8245   4.308   2.151   2.485 -0.8183  0.0338 -0.2452
 2768TIP3   OH2 8246   4.764   0.263   2.929 -0.0718 -0.3241 -0.1701
 2768TIP3    H1 8247   4.833   0.245   2.866  0.2175 -0.1737  0.1017
 2768TIP3    H2 8248   4.773   0.194   2.995 -0.9787 -1.0482 -0.7835
 2769TIP3   OH2 8249   2.434   3.210   2.136 -0.2331  0.6182  0.7120
 2769TIP3    H1 8250   2.427   3.273   2.207 -2.1832  1.2860 -0.0143
 2769TIP3    H2 8251   2.360   3.232   2.078  0.1442 -1.1665 -0.4818
 2770TIP3   OH2 8252   4.626   2.046   3.632  0.2997  0.8336  0.3844
 2770TIP3    H1 8253   4.710   2.009   3.657  0.6151  0.9331 -0.5089
 2770TIP3    H2 8254   4.615   2.122   3.690  0.9673  1.0036  0.2927
 2771TIP3   OH2 8255   3.668   0.410   3.945 -0.0535 -0.4613 -0.3110
 2771TIP3    H1 8256   3.657   0.493   3.899 -2.6368 -0.6758 -0.1514
 2771TIP3    H2 8257   3.706   0.434   4.030  0.6297  0.3690 -0.8473
 2772TIP3   OH2 8258   6.585   4.783   6.218 -0.6765 -0.1710 -0.6972
 2772TIP3    H1 8259   6.645   4.786   6.293 -0.9255  2.6668 -0.5565
 2772TIP3    H2 8260   6.628   4.723   6.157  1.5953  0.6231  0.0294
 2773TIP3   OH2 8261   4.288   1.488   3.314 -0.3004  0.2969  0.5241
 2773TIP3    H1 8262   4.373   1.446   3.300 -0.3685 -0.0456  1.1282
 2773TIP3    H2 8263   4.268   1.530   3.230  0.1869 -0.1210  0.1945
 2774TIP3   OH2 8264   2.613   1.811   1.583 -0.4574  0.0731 -0.1782
 2774TIP3    H1 8265   2.693   1.792   1.534  0.3986  0.5076  1.0274
 2774TIP3    H2 8266   2.586   1.898   1.553 -0.6202 -0.1738 -0.7587
 2775TIP3   OH2 8267   4.272   1.057   3.331 -0.1712 -0.6368 -0.6190
 2775TIP3    H1 8268   4.306   0.995   3.395 -2.2536 -0.9558  0.2252
 2775TIP3    H2 8269   4.246   1.004   3.256  0.5938 -0.4757 -0.9944
 2776TIP3   OH2 8270   5.150   1.903   2.562  1.1050  0.2921 -0.0095
 2776TIP3    H1 8271   5.181   1.965   2.497  0.9362 -1.2188 -1.5912
 2776TIP3    H2 8272   5.169   1.817   2.523 -1.7492 -0.6462  0.5670
 2777TIP3   OH2 8273   5.353   1.369   1.771 -0.2048 -0.5844  0.0223
 2777TIP3    H1 8274   5.403   1.405   1.845 -0.8864 -1.5167  0.9616
 2777TIP3    H2 8275   5.262   1.395   1.788 -0.3939 -0.9728 -0.3695
 2778TIP3   OH2 8276   4.641   0.904   5.436 -0.1784  0.0825  0.2833
 2778TIP3    H1 8277   4.673   0.941   5.518  0.5540 -0.4796  0.2587
 2778TIP3    H2 8278   4.584   0.971   5.399  0.0342  0.6106  0.9133
 2779TIP3   OH2 8279   3.811   0.107   3.354  0.4914  0.1573  0.0793
 2779TIP3    H1 8280   3.900   0.105   3.320  0.4615 -0.4433  0.0292
 2779TIP3    H2 8281   3.820   0.138   3.444  0.5700  1.7440 -0.4678
 2780TIP3   OH2 8282   4.866   1.421   3.110 -0.0714 -0.7732 -0.1274
 2780TIP3    H1 8283   4.927   1.438   3.039 -0.1546 -1.4436 -0.3598
 2780TIP3    H2 8284   4.842   1.329   3.100  0.0342 -0.9134  0.8561
 2781TIP3   OH2 8285   0.647   7.940   3.608  0.3422  0.4499 -0.1254
 2781TIP3    H1 8286   0.600   7.931   3.691 -0.0364  2.2250 -0.1376
 2781TIP3    H2 8287   0.644   7.852   3.569 -0.7321 -0.0465  1.0603
 2782TIP3   OH2 8288   0.849   7.479   2.634 -0.1805 -0.2974 -0.2597
 2782TIP3    H1 8289   0.941   7.501   2.623 -0.2205  0.0729  0.1747
 2782TIP3    H2 8290   0.850   7.386   2.659  0.0323 -0.5058 -1.0105
 2783TIP3   OH2 8291   5.179   3.100   4.315  0.0037  0.1873 -0.0723
 2783TIP3    H1 8292   5.104   3.077   4.370 -1.4427 -1.5458 -2.6341
 2783TIP3    H2 8293   5.211   3.183   4.351 -2.2184  0.2146  1.9914
 2784TIP3   OH2 8294   4.758   2.325   3.756 -0.5283 -0.2100  0.2375
 2784TIP3    H1 8295   4.763   2.376   3.837  0.5004 -0.5804  0.4169
 2784TIP3    H2 8296   4.699   2.375   3.699  2.1636  2.3672 -0.4301
 2785TIP3   OH2 8297   3.373   1.153   2.332  0.2047  0.4346 -0.2325
 2785TIP3    H1 8298   3.440   1.169   2.265 -0.1669 -0.4372 -0.8267
 2785TIP3    H2 8299   3.299   1.207   2.304  0.3265  0.6805 -0.0856
 2786TIP3   OH2 8300  -0.001   7.198   3.902  0.3219 -0.0020  0.0914
 2786TIP3    H1 8301  -0.060   7.230   3.834  2.3322 -0.2927 -1.8075
 2786TIP3    H2 8302   0.066   7.266   3.911  0.8128 -0.5672  0.8418
 2787TIP3   OH2 8303   3.132   1.647   6.643 -0.0883  0.2870  0.4884
 2787TIP3    H1 8304   3.072   1.635   6.718 -1.1313 -0.4174 -0.4316
 2787TIP3    H2 8305   3.110   1.733   6.609  0.7676  0.8385  1.3220
 2788TIP3   OH2 8306   5.509   2.602   3.710 -0.8142 -0.5098  0.0149
 2788TIP3    H1 8307   5.524   2.560   3.794 -0.6295 -2.3572 -0.9013
 2788TIP3    H2 8308   5.568   2.677   3.709  0.1389 -1.2351  0.9987
 2789TIP3   OH2 8309   3.654   1.944   1.097  0.3960  0.6605 -0.2656
 2789TIP3    H1 8310   3.626   1.933   1.188 -0.3575  0.7032 -0.4888
 2789TIP3    H2 8311   3.683   1.857   1.070 -0.6074  0.3638 -0.3883
 2790TIP3   OH2 8312   4.499   1.713   2.520  0.5952 -0.3667 -0.6776
 2790TIP3    H1 8313   4.560   1.654   2.475  2.6394  1.7104 -0.7189
 2790TIP3    H2 8314   4.477   1.779   2.454 -1.9794 -1.2323 -0.7495
 2791TIP3   OH2 8315   2.253   1.236   4.362 -0.2763  0.3207 -0.0250
 2791TIP3    H1 8316   2.165   1.269   4.341 -0.6838 -0.5231  0.3409
 2791TIP3    H2 8317   2.240   1.180   4.438  0.6640  0.5934  0.3419
 2792TIP3   OH2 8318   5.322   3.964   2.545 -0.2440 -0.0716 -0.7705
 2792TIP3    H1 8319   5.325   3.906   2.622 -2.2221 -0.4713 -0.9512
 2792TIP3    H2 8320   5.244   4.017   2.559 -0.4145  0.1060 -2.3306
 2793TIP3   OH2 8321   6.797   2.518   2.004 -0.1338 -0.1390  0.0935
 2793TIP3    H1 8322   6.703   2.501   2.016 -0.1724 -0.4064 -0.5640
 2793TIP3    H2 8323   6.800   2.605   1.964 -0.1718 -0.7141 -1.1805
 2794TIP3   OH2 8324   3.189   2.025   3.278  0.1902 -0.2337  0.5541
 2794TIP3    H1 8325   3.145   2.039   3.362  1.5976 -0.2730  1.3200
 2794TIP3    H2 8326   3.228   2.109   3.256 -0.0541 -0.2611  0.0090
 2795TIP3   OH2 8327   4.065   3.781   1.117  0.5208  0.1385  0.2834
 2795TIP3    H1 8328   4.157   3.808   1.128 -0.2544  2.7139  0.7489
 2795TIP3    H2 8329   4.015   3.848   1.163 -1.6283 -1.0083 -0.3382
 2796TIP3   OH2 8330   6.966   1.142   2.424  0.1973 -0.2842 -0.1748
 2796TIP3    H1 8331   6.999   1.089   2.497 -2.2568  0.8553  1.8207
 2796TIP3    H2 8332   7.031   1.211   2.413  1.3043 -1.2799 -0.0452
 2797TIP3   OH2 8333   5.963   2.103   1.635 -0.2398  0.3798  0.0448
 2797TIP3    H1 8334   5.894   2.117   1.699 -0.0302 -1.0092  0.5827
 2797TIP3    H2 8335   5.978   2.009   1.635  0.8964  0.5432 -0.8655
 2798TIP3   OH2 8336   4.350   3.426   2.661 -0.2284 -0.1984  0.4228
 2798TIP3    H1 8337   4.271   3.460   2.619 -0.1005 -0.1421  0.2221
 2798TIP3    H2 8338   4.421   3.483   2.628  0.0218 -0.8210 -0.1154
 2799TIP3   OH2 8339   4.963   0.536   2.107  0.3421  0.1568 -0.0475
 2799TIP3    H1 8340   4.926   0.491   2.031 -0.0841  2.7885 -1.4645
 2799TIP3    H2 8341   4.895   0.531   2.174 -1.2346  1.9811 -1.4746
 2800TIP3   OH2 8342   5.831   0.893   3.220  0.3178 -0.2006  0.1123
 2800TIP3    H1 8343   5.924   0.899   3.239  0.4941 -0.5939 -0.6166
 2800TIP3    H2 8344   5.819   0.941   3.138 -0.3217  0.8742  0.8226
 2801TIP3   OH2 8345   4.461   4.251   2.072  0.0836 -0.1881 -0.4337
 2801TIP3    H1 8346   4.456   4.284   1.983 -0.2812 -1.6172 -0.9627
 2801TIP3    H2 8347   4.522   4.177   2.067 -1.8805 -1.8762 -0.0303
 2802TIP3   OH2 8348   4.069   2.701   3.768  0.1211 -0.1782 -0.2996
 2802TIP3    H1 8349   4.008   2.638   3.729  1.3812  0.8863 -4.1145
 2802TIP3    H2 8350   4.026   2.786   3.758 -0.3220 -0.0414  2.3250
 2803TIP3   OH2 8351   3.694   1.023   3.527  0.0639  0.8039  0.0583
 2803TIP3    H1 8352   3.698   1.024   3.623 -1.2983 -0.7758  0.1686
 2803TIP3    H2 8353   3.755   0.954   3.501  0.7783  1.5428 -0.2457
 2804TIP3   OH2 8354   5.565   1.086   3.173  0.0051  0.1472  0.7010
 2804TIP3    H1 8355   5.601   1.106   3.087 -0.3541  0.0561  0.5255
 2804TIP3    H2 8356   5.511   1.008   3.159  1.0634 -0.7088  1.2909
 2805TIP3   OH2 8357   6.262   2.965   1.244 -0.3071  0.2186  0.9288
 2805TIP3    H1 8358   6.274   2.883   1.196 -0.0734 -0.5693  2.3000
 2805TIP3    H2 8359   6.172   2.962   1.275 -0.0296  0.0632  1.7363
 2806TIP3   OH2 8360   7.397   0.876   3.627  0.2242  0.0559  0.5179
 2806TIP3    H1 8361   7.366   0.806   3.570  2.2091  0.0184 -0.5493
 2806TIP3    H2 8362   7.333   0.879   3.698 -1.9399 -0.3381 -1.3606
 2807TIP3   OH2 8363   5.682   0.601   3.445  0.0466 -0.2645  0.2213
 2807TIP3    H1 8364   5.768   0.628   3.414  0.9416 -2.3190  0.7924
 2807TIP3    H2 8365   5.631   0.681   3.448  1.7763  0.9030 -0.6509
 2808TIP3   OH2 8366   4.960   1.656   3.728  0.8535 -0.3533 -0.3254
 2808TIP3    H1 8367   4.961   1.569   3.768 -0.2637 -0.6058 -0.8361
 2808TIP3    H2 8368   5.028   1.652   3.661  0.2943 -1.0812 -0.8544
 2809TIP3   OH2 8369   5.399   0.995   5.165 -0.2613 -0.2635  0.1344
 2809TIP3    H1 8370   5.402   0.966   5.257 -0.9674 -1.0161 -0.0656
 2809TIP3    H2 8371   5.399   0.913   5.115  0.1594  0.1496 -0.5368
 2810TIP3   OH2 8372   4.217   0.820   1.855 -0.4763 -0.5219  0.0603
 2810TIP3    H1 8373   4.288   0.851   1.800  2.1667 -1.3943  2.8782
 2810TIP3    H2 8374   4.217   0.725   1.843 -0.3083 -0.6492  1.0785
 2811TIP3   OH2 8375   1.901   5.638   1.640  0.4076  0.0912  0.0426
 2811TIP3    H1 8376   1.903   5.543   1.641  0.8664  0.0411 -2.7823
 2811TIP3    H2 8377   1.831   5.661   1.579  0.6671  1.5588  0.2712
 2812TIP3   OH2 8378   1.654   7.055   2.226 -0.4001 -0.0261  0.0839
 2812TIP3    H1 8379   1.648   7.025   2.135 -0.3269 -0.4299  0.2130
 2812TIP3    H2 8380   1.739   7.097   2.232  0.3467 -1.5683  0.4356
 2813TIP3   OH2 8381   5.436   2.163   2.459  0.3848 -0.5317 -0.0219
 2813TIP3    H1 8382   5.455   2.256   2.456 -1.9366 -0.0550 -0.3216
 2813TIP3    H2 8383   5.440   2.141   2.552  1.7885 -0.3399 -0.0241
 2814TIP3   OH2 8384   3.810   0.771   2.403  0.0323 -0.3409 -0.4689
 2814TIP3    H1 8385   3.718   0.798   2.401  0.5203  1.4930  0.4048
 2814TIP3    H2 8386   3.848   0.811   2.325  0.0753 -1.1421 -0.8559
 2815TIP3   OH2 8387   8.050   7.339   2.632 -0.2642  0.5651  0.5559
 2815TIP3    H1 8388   8.054   7.250   2.597 -0.9050  0.6895  0.1532
 2815TIP3    H2 8389   8.020   7.392   2.558  1.6331  1.3821  0.3308
 2816TIP3   OH2 8390   4.512   3.892   3.233 -0.2639 -0.4437 -0.0473
 2816TIP3    H1 8391   4.593   3.842   3.243 -0.5905 -0.9156  0.2310
 2816TIP3    H2 8392   4.514   3.955   3.306  0.4481  0.3760 -0.7615
 2817TIP3   OH2 8393   1.604   1.833   2.475  0.0995 -0.5007 -0.3524
 2817TIP3    H1 8394   1.581   1.767   2.541 -1.8064 -0.6975 -1.1931
 2817TIP3    H2 8395   1.645   1.904   2.524 -0.5763 -0.9970  0.9305
 2818TIP3   OH2 8396   3.791   2.615   2.647 -1.1118  0.2796 -0.3255
 2818TIP3    H1 8397   3.837   2.664   2.715 -1.0650 -0.4840  0.1957
 2818TIP3    H2 8398   3.791   2.674   2.571 -0.9817  1.0487  0.2670
 2819TIP3   OH2 8399   5.396   1.499   3.404  0.3319  0.1405  0.5461
 2819TIP3    H1 8400   5.469   1.478   3.345  0.1003 -2.7162  1.2339
 2819TIP3    H2 8401   5.436   1.505   3.491  0.5460  3.6240  0.2692
 2820TIP3   OH2 8402   6.674   2.899   3.231  0.4849  0.1875 -0.4046
 2820TIP3    H1 8403   6.635   2.986   3.237 -1.2238 -0.5859 -0.2157
 2820TIP3    H2 8404   6.718   2.886   3.315  0.6491  0.8269 -0.3951
 2821TIP3   OH2 8405   4.839   3.389   4.144  0.0335  0.3939 -0.4453
 2821TIP3    H1 8406   4.803   3.336   4.215  0.6051  1.0765  0.3618
 2821TIP3    H2 8407   4.818   3.340   4.065  1.7027 -1.7393  0.3704
 2822TIP3   OH2 8408   5.453   0.702   3.702 -0.4324 -0.3642  0.4147
 2822TIP3    H1 8409   5.408   0.772   3.655  1.1224  0.2359 -0.2127
 2822TIP3    H2 8410   5.487   0.744   3.781  1.3497 -0.1707 -0.4449
 2823TIP3   OH2 8411   3.193   0.310   2.388  0.0289 -0.0849  0.5165
 2823TIP3    H1 8412   3.253   0.377   2.356  1.3136 -2.2564 -1.8159
 2823TIP3    H2 8413   3.249   0.237   2.413 -1.5071 -1.4777  0.0038
 2824TIP3   OH2 8414   2.420   2.829   4.072  0.4441 -0.0898 -0.3936
 2824TIP3    H1 8415   2.350   2.884   4.107 -0.1761 -1.3510  0.3813
 2824TIP3    H2 8416   2.449   2.875   3.993 -0.4247  1.0636 -0.0658
 2825TIP3   OH2 8417   5.282   2.729   2.338 -0.5059  0.5396 -0.7418
 2825TIP3    H1 8418   5.344   2.800   2.318 -2.1655  2.0071 -0.7893
 2825TIP3    H2 8419   5.243   2.706   2.254 -0.8483  0.3926 -0.5428
 2826TIP3   OH2 8420   3.273   3.445   3.368 -0.5577 -0.3091 -0.0406
 2826TIP3    H1 8421   3.247   3.514   3.307 -0.8748 -1.6843 -1.4999
 2826TIP3    H2 8422   3.202   3.443   3.433  1.0342  2.9237  1.9557
 2827TIP3   OH2 8423   6.135   3.044   2.899 -0.1847 -0.2886  0.6139
 2827TIP3    H1 8424   6.197   3.059   2.970 -0.9702 -1.6562  1.6198
 2827TIP3    H2 8425   6.144   2.951   2.878 -0.3544 -0.0223 -0.7031
 2828TIP3   OH2 8426   2.754   2.387   4.232  0.4058 -0.6448 -0.3138
 2828TIP3    H1 8427   2.722   2.455   4.173 -0.9135 -0.7223  0.2936
 2828TIP3    H2 8428   2.737   2.305   4.186 -1.6506 -0.7752  0.5929
 2829TIP3   OH2 8429   4.636   0.472   2.843 -0.3221  0.0502  0.2476
 2829TIP3    H1 8430   4.720   0.517   2.850 -0.7498  0.8443  0.2896
 2829TIP3    H2 8431   4.651   0.386   2.884  1.4864 -1.2503 -3.0093
 2830TIP3   OH2 8432   3.653   0.071   1.718  0.5533 -0.0029 -0.4197
 2830TIP3    H1 8433   3.590   0.000   1.706  0.7476  0.1130 -2.3730
 2830TIP3    H2 8434   3.731   0.028   1.753  0.9461 -0.9089 -2.3546
 2831TIP3   OH2 8435   1.840   7.826   3.395  0.2355  0.6219  0.0853
 2831TIP3    H1 8436   1.934   7.817   3.377  0.1842 -1.1199  0.5542
 2831TIP3    H2 8437   1.836   7.872   3.479  0.6574  0.8153  0.0044
 2832TIP3   OH2 8438   4.143   0.331   2.095  0.0171 -1.0725  0.0947
 2832TIP3    H1 8439   4.100   0.348   2.011 -0.2394 -3.7922 -0.3464
 2832TIP3    H2 8440   4.071   0.310   2.155  0.2546  0.2449  0.8663
 2833TIP3   OH2 8441   4.229   1.057   4.811  0.1179 -0.1760  0.6591
 2833TIP3    H1 8442   4.261   1.147   4.813  0.2987 -0.2444  0.8486
 2833TIP3    H2 8443   4.143   1.063   4.770  1.8005 -0.4114 -3.1477
 2834TIP3   OH2 8444   7.640   6.556   4.975 -0.5436  0.0590  0.3029
 2834TIP3    H1 8445   7.717   6.558   5.032 -0.2705  0.2547 -0.0690
 2834TIP3    H2 8446   7.672   6.517   4.893 -0.7195  0.5985 -0.0235
 2835TIP3   OH2 8447   0.536   7.150   2.523 -0.1707 -0.0601 -0.5381
 2835TIP3    H1 8448   0.615   7.097   2.524  0.1371  0.4059  1.2712
 2835TIP3    H2 8449   0.465   7.087   2.513  0.1727 -0.8454  1.7547
 2836TIP3   OH2 8450   3.698   0.432   1.573 -0.0012 -0.4894  0.5497
 2836TIP3    H1 8451   3.668   0.499   1.512  0.9998 -3.3819 -3.3580
 2836TIP3    H2 8452   3.631   0.364   1.568  0.5857 -1.1797  1.9856
 2837TIP3   OH2 8453   4.484   2.614   4.579  0.2112  0.2556  0.5943
 2837TIP3    H1 8454   4.558   2.673   4.566  0.0385  0.7374  1.7674
 2837TIP3    H2 8455   4.488   2.554   4.505  2.3844 -0.3447  1.1661
 2838TIP3   OH2 8456   0.790   6.131   2.038 -0.0392  0.8511 -0.0169
 2838TIP3    H1 8457   0.719   6.071   2.063  0.9025 -0.2407  0.0822
 2838TIP3    H2 8458   0.840   6.144   2.118  0.5637  0.6652 -0.3584
 2839TIP3   OH2 8459   2.632   1.264   0.375 -0.7009 -0.6579 -0.0437
 2839TIP3    H1 8460   2.690   1.277   0.449 -1.1193  0.0952  0.1583
 2839TIP3    H2 8461   2.686   1.285   0.298 -0.6860 -0.0189  0.1384
 2840TIP3   OH2 8462   0.172   7.166   2.634 -0.3784  0.4170 -0.2093
 2840TIP3    H1 8463   0.186   7.187   2.726  0.4510  0.3077 -0.3028
 2840TIP3    H2 8464   0.256   7.187   2.592 -0.3325 -0.7602 -0.7192
 2841TIP3   OH2 8465   4.194   1.145   3.859  0.6787  0.3084 -0.3076
 2841TIP3    H1 8466   4.166   1.054   3.875 -2.0353  1.1396 -0.0977
 2841TIP3    H2 8467   4.194   1.185   3.946  0.7625  0.8021 -0.5386
 2842TIP3   OH2 8468   4.093   2.484   2.856 -0.2191  0.3516 -0.0252
 2842TIP3    H1 8469   4.068   2.472   2.947  1.4917 -0.6243  0.3592
 2842TIP3    H2 8470   4.091   2.395   2.819 -1.2510  0.7829 -1.0429
 2843TIP3   OH2 8471   6.041   1.453   1.648 -0.0432  0.6661 -0.2034
 2843TIP3    H1 8472   6.046   1.451   1.744 -0.7718  1.7591 -0.1250
 2843TIP3    H2 8473   5.982   1.382   1.626  0.7666 -0.1077  0.1046
 2844TIP3   OH2 8474   3.524   1.199   1.763  0.0007 -0.0226  0.0934
 2844TIP3    H1 8475   3.461   1.128   1.766  1.6300 -1.4370  1.8498
 2844TIP3    H2 8476   3.609   1.156   1.759  0.8930  1.8501 -2.2120
 2845TIP3   OH2 8477   5.557   1.668   2.639  0.0166  0.5241 -0.1964
 2845TIP3    H1 8478   5.498   1.612   2.589  0.8006 -0.9414  0.5053
 2845TIP3    H2 8479   5.499   1.719   2.696 -0.8181  1.6199 -1.9864
 2846TIP3   OH2 8480   4.208   0.400   2.636  0.2283  0.2595 -0.2855
 2846TIP3    H1 8481   4.281   0.431   2.583  0.4125  2.2741  1.0626
 2846TIP3    H2 8482   4.142   0.469   2.628 -2.1907 -2.2157 -2.6903
 2847TIP3   OH2 8483   4.391   0.570   3.498  0.4729  0.1917 -0.1242
 2847TIP3    H1 8484   4.316   0.575   3.439 -0.5198 -0.2607  1.0742
 2847TIP3    H2 8485   4.423   0.481   3.489 -0.3248 -0.1994  0.7717
 2848TIP3   OH2 8486   5.031   1.257   4.714 -0.5350 -0.2675 -0.1649
 2848TIP3    H1 8487   4.974   1.333   4.713 -0.9569 -0.5857 -1.3419
 2848TIP3    H2 8488   5.120   1.294   4.716 -0.7411  0.2583 -0.4961
 2849TIP3   OH2 8489   5.951   1.178   2.694 -0.2119  0.0774  0.0653
 2849TIP3    H1 8490   5.877   1.122   2.670  0.9800 -1.2065 -0.6980
 2849TIP3    H2 8491   5.981   1.145   2.779  0.0230  0.0444 -0.0296
 2850TIP3   OH2 8492   7.443   2.849   1.876  0.3476 -0.0376  0.3912
 2850TIP3    H1 8493   7.385   2.904   1.929 -0.9644  0.1846 -1.2284
 2850TIP3    H2 8494   7.513   2.908   1.848  1.1052 -0.1820  1.9425
 2851TIP3   OH2 8495   4.262   3.495   1.976 -0.1269  0.0944 -0.3308
 2851TIP3    H1 8496   4.214   3.553   1.916 -0.9234 -0.2935 -0.0761
 2851TIP3    H2 8497   4.233   3.520   2.063  0.9683  0.5975 -0.1003
 2852TIP3   OH2 8498   2.217   7.858   0.218  0.0972 -0.0002  0.2464
 2852TIP3    H1 8499   2.287   7.893   0.272  1.8872 -0.9608 -1.3895
 2852TIP3    H2 8500   2.150   7.927   0.218  1.5394  1.4360  0.8805
 2853TIP3   OH2 8501   5.970   1.785   1.768 -0.2205  0.4756 -0.3071
 2853TIP3    H1 8502   6.056   1.792   1.726 -0.7061 -0.1211 -1.4269
 2853TIP3    H2 8503   5.980   1.830   1.852  1.3720 -0.1535 -0.1501
 2854TIP3   OH2 8504   3.432   0.774   0.867 -0.2726 -0.6059 -0.0508
 2854TIP3    H1 8505   3.407   0.800   0.955  0.6395  1.2928 -0.3033
 2854TIP3    H2 8506   3.354   0.790   0.814  0.1310  1.3734 -0.1188
 2855TIP3   OH2 8507   7.264   0.966   2.388 -0.4225 -0.2800 -0.4449
 2855TIP3    H1 8508   7.247   1.046   2.339 -0.0453 -0.4416 -0.8419
 2855TIP3    H2 8509   7.309   0.994   2.467  0.3356 -0.1646 -0.9108
 2856TIP3   OH2 8510   7.099   2.250   2.809  0.0853 -0.2791  0.1443
 2856TIP3    H1 8511   7.142   2.326   2.848  0.2433 -0.1624 -0.2562
 2856TIP3    H2 8512   7.146   2.174   2.843 -2.4472 -0.4240  3.5906
 2857TIP3   OH2 8513   5.563   2.693   2.429  0.9584 -0.0243 -0.5466
 2857TIP3    H1 8514   5.611   2.748   2.491  0.9705 -0.7350  0.0869
 2857TIP3    H2 8515   5.474   2.728   2.429  1.1114  0.3656 -0.6011
 2858TIP3   OH2 8516   5.915   2.095   3.329  0.0525  0.1199 -0.1925
 2858TIP3    H1 8517   5.978   2.157   3.293  0.3597 -0.3135 -0.4035
 2858TIP3    H2 8518   5.910   2.118   3.422 -0.2033  0.7739 -0.3667
 2859TIP3   OH2 8519   8.236   1.981   2.996  0.4566  0.2612  0.1718
 2859TIP3    H1 8520   8.146   1.958   3.017  0.3026 -1.1461 -1.8766
 2859TIP3    H2 8521   8.284   1.898   3.005  1.4864  0.9184  0.8730
 2860TIP3   OH2 8522   6.555   0.126   1.770  0.2304  0.2144 -0.1933
 2860TIP3    H1 8523   6.538   0.219   1.787 -0.0736  0.4804 -1.8030
 2860TIP3    H2 8524   6.576   0.122   1.676 -0.4595 -1.4242 -0.3089
 2861TIP3   OH2 8525   1.413   1.090   3.097  0.1011  0.4407  0.0411
 2861TIP3    H1 8526   1.361   1.042   3.032  0.9010 -1.0683  0.4864
 2861TIP3    H2 8527   1.420   1.179   3.062  0.8827 -0.4592 -2.1436
 2862TIP3   OH2 8528   2.568   6.451   1.737  0.3807 -0.4869 -0.0106
 2862TIP3    H1 8529   2.510   6.430   1.809  0.8519 -1.2352  0.1500
 2862TIP3    H2 8530   2.655   6.456   1.776  0.4393  0.6410 -0.2441
 2863TIP3   OH2 8531   6.038   3.602   3.156  0.5008  0.0731 -0.2521
 2863TIP3    H1 8532   5.995   3.617   3.072  2.3417 -0.3349 -1.2988
 2863TIP3    H2 8533   6.024   3.509   3.174 -0.4370  0.2958  0.2293
 2864TIP3   OH2 8534   4.482   2.197   4.048 -0.2281  0.5745 -0.3122
 2864TIP3    H1 8535   4.453   2.117   4.091 -1.5002  0.9367 -0.4762
 2864TIP3    H2 8536   4.577   2.199   4.062 -0.3080 -0.5171  0.4239
 2865TIP3   OH2 8537   5.592   0.766   3.922  0.9998 -0.2757 -0.0019
 2865TIP3    H1 8538   5.542   0.841   3.955  2.2087  0.6659 -0.2901
 2865TIP3    H2 8539   5.641   0.734   3.998  0.1133 -1.0922  0.2395
 2866TIP3   OH2 8540   6.883   1.471   4.523 -0.0973  0.3648 -0.3056
 2866TIP3    H1 8541   6.814   1.513   4.472  1.3844  2.2692 -0.7986
 2866TIP3    H2 8542   6.902   1.534   4.593 -0.8824 -1.4404  1.5805
 2867TIP3   OH2 8543   6.075   1.116   1.039  0.1577 -0.8873  0.0538
 2867TIP3    H1 8544   6.063   1.036   0.989 -0.1118 -1.2032  0.6130
 2867TIP3    H2 8545   6.163   1.108   1.077  0.4512 -0.5451 -0.5467
 2868TIP3   OH2 8546   5.067   1.546   1.543  0.4502  0.1879  0.2827
 2868TIP3    H1 8547   5.071   1.635   1.506  0.6715 -0.1714 -0.5810
 2868TIP3    H2 8548   5.011   1.498   1.482  1.3636 -0.5891  0.0471
 2869TIP3   OH2 8549   4.284   3.942   3.511  0.8616  0.0859  0.3794
 2869TIP3    H1 8550   4.343   3.869   3.527  0.5636 -0.4954 -1.0834
 2869TIP3    H2 8551   4.333   4.001   3.454  0.3324  0.0018 -0.1627
 2870TIP3   OH2 8552   6.343   0.979   2.627 -0.5568  0.0155 -0.5541
 2870TIP3    H1 8553   6.407   0.963   2.696 -0.1130  0.6379 -0.8187
 2870TIP3    H2 8554   6.259   0.954   2.665 -0.3380  0.5313  0.2632
 2871TIP3   OH2 8555   6.234   2.511   2.325 -0.4042 -0.4024 -0.0113
 2871TIP3    H1 8556   6.233   2.596   2.282  0.6734  0.2265  1.1584
 2871TIP3    H2 8557   6.324   2.479   2.314 -0.3567 -0.6324  0.9851
 2872TIP3   OH2 8558   4.294   3.152   3.413  0.0897 -0.3885 -0.6596
 2872TIP3    H1 8559   4.291   3.226   3.474  1.9752 -0.3854 -0.5368
 2872TIP3    H2 8560   4.320   3.191   3.330  3.1359 -1.1262 -0.1348
 2873TIP3   OH2 8561   7.486   0.686   2.835  0.1789  0.1289 -0.2028
 2873TIP3    H1 8562   7.487   0.606   2.783  0.4416  0.9447 -1.4758
 2873TIP3    H2 8563   7.402   0.686   2.879  0.1786 -0.8428 -0.2067
 2874TIP3   OH2 8564   6.008   3.526   4.051 -0.0211  0.1957 -0.1638
 2874TIP3    H1 8565   5.980   3.516   4.142 -0.1455  0.1665 -0.2052
 2874TIP3    H2 8566   6.031   3.619   4.043  0.3211  0.1248 -0.0091
 2875TIP3   OH2 8567   6.987   1.685   1.316  0.3783  0.3335  0.0713
 2875TIP3    H1 8568   6.892   1.678   1.322  0.3713 -0.4362 -0.9695
 2875TIP3    H2 8569   7.018   1.669   1.405 -0.3882 -0.5516  0.1768
 2876TIP3   OH2 8570   6.620   4.067   1.814  0.9362 -0.0308 -0.1488
 2876TIP3    H1 8571   6.573   4.041   1.735  0.1196 -0.0406  0.3366
 2876TIP3    H2 8572   6.590   4.156   1.831  0.9121 -0.1244  0.2971
 2877TIP3   OH2 8573   6.381   0.726   2.354 -0.1605  0.2905  0.0790
 2877TIP3    H1 8574   6.377   0.686   2.267 -0.7712 -1.4309  0.8966
 2877TIP3    H2 8575   6.459   0.783   2.350  0.1849 -0.2676 -1.3761
 2878TIP3   OH2 8576   3.700   7.749   0.960 -0.3421 -0.6552  0.2791
 2878TIP3    H1 8577   3.717   7.766   1.053 -0.6746 -2.2602  0.6487
 2878TIP3    H2 8578   3.722   7.831   0.916 -0.7443  0.3010  1.8416
 2879TIP3   OH2 8579   7.333   4.632   3.544  0.4845 -0.2649 -0.2133
 2879TIP3    H1 8580   7.368   4.684   3.471 -0.9700  0.7609 -0.1809
 2879TIP3    H2 8581   7.400   4.640   3.612  1.1378  0.0441 -0.8815
 2880TIP3   OH2 8582   7.550   2.050   3.153  0.6388 -0.3704 -0.2028
 2880TIP3    H1 8583   7.557   1.962   3.115  0.4444 -0.5458  0.1746
 2880TIP3    H2 8584   7.456   2.068   3.154  0.6577 -0.2935  0.0395
 2881TIP3   OH2 8585   7.408   0.958   0.687 -0.3887 -0.1154 -0.4223
 2881TIP3    H1 8586   7.381   0.878   0.642 -1.7416 -1.1496  2.0893
 2881TIP3    H2 8587   7.493   0.936   0.725 -0.9069 -0.5068  0.5386
 2882TIP3   OH2 8588   4.861   1.952   3.986  0.1046  0.3680 -0.4996
 2882TIP3    H1 8589   4.805   1.884   4.024 -0.7328  0.9999 -0.5836
 2882TIP3    H2 8590   4.842   1.950   3.892 -1.1420  1.7972 -0.3005
 2883TIP3   OH2 8591   6.935   2.119   4.890 -0.1293 -0.2079  0.2096
 2883TIP3    H1 8592   6.920   2.036   4.935 -1.5114 -0.2447 -0.2925
 2883TIP3    H2 8593   6.853   2.136   4.842 -0.1870  1.8666  0.9891
 2884TIP3   OH2 8594   5.424   1.572   4.417  0.2090  0.5622  0.0455
 2884TIP3    H1 8595   5.343   1.619   4.400  0.2612  0.2988 -1.0057
 2884TIP3    H2 8596   5.493   1.633   4.393  0.2874  0.2395 -0.5747
 2885TIP3   OH2 8597   6.016   2.765   3.806 -0.1998  0.0645  0.0762
 2885TIP3    H1 8598   6.071   2.727   3.738 -0.4604  0.0614 -0.1372
 2885TIP3    H2 8599   6.033   2.859   3.801 -1.8184  0.3213 -1.4669
 2886TIP3   OH2 8600   0.085   1.945   2.405 -0.2093  0.4877 -0.2035
 2886TIP3    H1 8601   0.068   1.965   2.497 -2.4407 -0.2546 -0.4197
 2886TIP3    H2 8602   0.009   1.981   2.358  0.0307 -0.7120 -1.5489
 2887TIP3   OH2 8603   4.327   0.909   2.558  0.7713 -1.3054 -0.6864
 2887TIP3    H1 8604   4.356   0.917   2.467  0.7485  1.0903 -0.5197
 2887TIP3    H2 8605   4.231   0.914   2.552  0.8289  0.2516 -0.4224
 2888TIP3   OH2 8606   4.988   3.969   4.046  0.2766  0.0118  0.0171
 2888TIP3    H1 8607   4.977   4.051   4.094  0.1846  1.4866 -2.3918
 2888TIP3    H2 8608   4.925   3.976   3.973  1.6468 -1.3116 -1.3295
 2889TIP3   OH2 8609   5.350   3.821   2.951 -0.5528 -0.0288  0.4823
 2889TIP3    H1 8610   5.436   3.803   2.990 -0.4331  1.7309  1.1155
 2889TIP3    H2 8611   5.349   3.771   2.869  1.3371  0.4262  0.1607
 2890TIP3   OH2 8612   5.934   4.005   3.423 -0.4102  0.0835  0.5252
 2890TIP3    H1 8613   5.934   4.053   3.505 -1.0429 -0.1808  0.6787
 2890TIP3    H2 8614   6.006   3.941   3.433  0.9140  1.4683  0.0319
 2891TIP3   OH2 8615   6.261   1.183   0.076 -0.1195 -0.3103  0.0933
 2891TIP3    H1 8616   6.288   1.091   0.085  1.2360 -0.0870 -1.5642
 2891TIP3    H2 8617   6.325   1.232   0.128 -0.3783 -0.2242  0.3334
 2892TIP3   OH2 8618   0.167   0.443   2.618 -0.0589 -0.1130 -0.3319
 2892TIP3    H1 8619   0.252   0.479   2.643  0.1904 -0.4597 -0.6670
 2892TIP3    H2 8620   0.187   0.357   2.580 -0.4605  0.2120 -1.3106
 2893TIP3   OH2 8621   4.984   0.417   0.501 -0.2724 -0.0888  0.2007
 2893TIP3    H1 8622   4.894   0.444   0.516 -0.2735 -0.0934  0.2023
 2893TIP3    H2 8623   4.997   0.342   0.558 -0.8403 -1.2410 -1.1500
 2894TIP3   OH2 8624   7.269   0.957   3.027 -0.3687 -0.0674 -0.5610
 2894TIP3    H1 8625   7.358   0.993   3.019 -1.9798  4.5208  0.2940
 2894TIP3    H2 8626   7.279   0.882   3.085  3.2308 -0.8784 -2.0819
 2895TIP3   OH2 8627   5.960   3.405   3.625 -0.8282  0.1846  0.8057
 2895TIP3    H1 8628   5.990   3.389   3.714  1.2258  2.4890  0.5746
 2895TIP3    H2 8629   5.930   3.495   3.626 -0.7909  0.2230 -0.8325
 2896TIP3   OH2 8630   7.971   1.184   2.329 -0.4979  0.5819 -0.1862
 2896TIP3    H1 8631   7.942   1.098   2.297  1.0807 -0.1223  0.1909
 2896TIP3    H2 8632   8.014   1.164   2.412 -0.1867  1.7617 -0.0604
 2897TIP3   OH2 8633   6.010   1.917   2.603  0.2080 -0.1706  0.3486
 2897TIP3    H1 8634   6.090   1.963   2.629  1.0612 -1.4715  0.0910
 2897TIP3    H2 8635   6.003   1.845   2.665  0.7270 -1.6522 -1.2550
 2898TIP3   OH2 8636   1.597   7.348   6.319 -0.4007  0.2541  0.3870
 2898TIP3    H1 8637   1.654   7.423   6.335  0.5010  0.4268 -3.2186
 2898TIP3    H2 8638   1.511   7.387   6.303 -0.3563  0.3988  0.4979
 2899TIP3   OH2 8639   6.835   3.005   2.631 -0.2755 -0.2995 -0.0111
 2899TIP3    H1 8640   6.848   2.912   2.649  1.1506 -0.3287 -1.1094
 2899TIP3    H2 8641   6.740   3.015   2.620 -0.5769 -1.3467  1.5397
 2900TIP3   OH2 8642   0.414   1.404   3.895  0.0078 -0.0442  0.1606
 2900TIP3    H1 8643   0.322   1.389   3.875 -0.1645 -2.1072  2.3645
 2900TIP3    H2 8644   0.417   1.494   3.928 -0.9962  0.4651 -1.1110
 2901TIP3   OH2 8645   6.299   2.537   3.947 -0.5670  0.1985 -0.1653
 2901TIP3    H1 8646   6.226   2.590   3.916  0.3065  0.8864 -1.0842
 2901TIP3    H2 8647   6.332   2.494   3.867  0.3783  0.3340  0.1493
 2902TIP3   OH2 8648   5.312   2.449   1.901  0.1910  0.2048  0.2219
 2902TIP3    H1 8649   5.287   2.433   1.992 -0.5507 -1.4840 -0.2808
 2902TIP3    H2 8650   5.271   2.379   1.851  0.2852  1.3374 -1.4796
 2903TIP3   OH2 8651   4.318   1.921   1.815  0.0509 -0.0760  0.0256
 2903TIP3    H1 8652   4.359   1.999   1.853 -2.8711  1.6941 -0.2637
 2903TIP3    H2 8653   4.233   1.953   1.783 -1.0009 -3.3064 -0.5268
 2904TIP3   OH2 8654   4.508   7.641   3.342  0.3185  0.0016  0.1027
 2904TIP3    H1 8655   4.499   7.548   3.325 -0.2791  0.0934 -0.0725
 2904TIP3    H2 8656   4.425   7.680   3.314 -0.5593  0.2277  2.8707
 2905TIP3   OH2 8657   4.606   0.513   4.319  0.7564 -0.1135  0.0055
 2905TIP3    H1 8658   4.572   0.525   4.230 -0.2504  1.3566  0.5699
 2905TIP3    H2 8659   4.693   0.552   4.317  0.0837  1.4163  0.0836
 2906TIP3   OH2 8660   8.247   0.722   3.677  0.6242 -0.3341 -0.1795
 2906TIP3    H1 8661   8.197   0.770   3.612 -0.1113 -1.2951 -0.3420
 2906TIP3    H2 8662   8.214   0.754   3.761  1.0871  0.4092 -0.2817
 2907TIP3   OH2 8663   6.966   3.565   1.097 -0.4356 -0.0141  0.0100
 2907TIP3    H1 8664   6.937   3.654   1.117 -1.0405 -0.3501  0.6299
 2907TIP3    H2 8665   6.887   3.519   1.069 -1.1341 -1.6900  4.3000
 2908TIP3   OH2 8666   8.074   0.184   2.768 -0.0577 -0.1583 -0.6204
 2908TIP3    H1 8667   8.144   0.239   2.803 -1.5510  3.1869 -2.5607
 2908TIP3    H2 8668   8.045   0.131   2.842  3.2253 -0.2372  0.6717
 2909TIP3   OH2 8669   4.574   2.462   3.596  0.3839 -0.5382 -0.5132
 2909TIP3    H1 8670   4.635   2.490   3.529  0.4198  1.4087  0.2798
 2909TIP3    H2 8671   4.489   2.496   3.567  0.3306 -0.0440  0.1940
 2910TIP3   OH2 8672   7.835   1.502   2.007  0.3954  0.2695  0.2911
 2910TIP3    H1 8673   7.740   1.496   2.017  0.0883  1.5329 -1.5892
 2910TIP3    H2 8674   7.850   1.585   1.962  2.7369  2.1379  4.2011
 2911TIP3   OH2 8675   7.261   2.124   3.177 -0.3410  0.4471 -0.1890
 2911TIP3    H1 8676   7.166   2.115   3.176 -0.2913 -0.3458  1.9268
 2911TIP3    H2 8677   7.280   2.180   3.252  1.1891 -3.8798  2.8721
 2912TIP3   OH2 8678   5.077   1.550   0.758  0.0268  0.1616  0.0646
 2912TIP3    H1 8679   5.150   1.550   0.820 -0.1609 -0.8108  0.3002
 2912TIP3    H2 8680   5.010   1.605   0.799  0.3076  0.3718  0.2405
 2913TIP3   OH2 8681   5.187   1.274   2.056 -0.2743  0.0553  0.8919
 2913TIP3    H1 8682   5.263   1.229   2.092  0.6233  2.5992  2.3154
 2913TIP3    H2 8683   5.145   1.314   2.132 -1.6991  0.6393 -0.1787
 2914TIP3   OH2 8684   6.010   1.809   2.877 -0.5231 -0.2828 -0.1934
 2914TIP3    H1 8685   6.089   1.852   2.907 -2.0502  2.4121  0.1276
 2914TIP3    H2 8686   6.015   1.721   2.914  2.3356 -0.2122 -0.2918
 2915TIP3   OH2 8687   5.653   1.121   2.251 -0.1257 -0.3467 -0.8339
 2915TIP3    H1 8688   5.740   1.144   2.284 -1.1112 -0.2127  1.8022
 2915TIP3    H2 8689   5.639   1.032   2.281 -0.7579 -0.5164 -1.6049
 2916TIP3   OH2 8690   3.476   1.956   1.763  0.0701  0.2540 -0.0242
 2916TIP3    H1 8691   3.525   1.877   1.787 -1.4869 -1.5081 -2.4386
 2916TIP3    H2 8692   3.451   1.994   1.847  2.1818 -0.9702  1.2032
 2917TIP3   OH2 8693   5.088   2.906   1.775 -0.2676  0.3658  0.5762
 2917TIP3    H1 8694   5.030   2.863   1.838 -0.5776  0.5034  0.3860
 2917TIP3    H2 8695   5.049   2.992   1.760 -2.0961 -0.8807 -2.3376
 2918TIP3   OH2 8696   4.974   0.557   3.207  0.0832  0.4107 -0.2147
 2918TIP3    H1 8697   5.042   0.562   3.275  0.2331 -2.1944 -0.1282
 2918TIP3    H2 8698   4.962   0.463   3.191 -1.6357  0.9058 -2.1217
 2919TIP3   OH2 8699   8.399   1.613   3.409 -0.2128 -0.0485  0.4016
 2919TIP3    H1 8700   8.343   1.585   3.337 -0.0332 -0.5468  0.4504
 2919TIP3    H2 8701   8.368   1.700   3.432  1.0496  0.9768 -1.6241
 2920TIP3   OH2 8702   4.538   7.345   3.723 -0.1142  0.7886  0.1821
 2920TIP3    H1 8703   4.562   7.423   3.674  3.0168  1.0278  1.9805
 2920TIP3    H2 8704   4.620   7.297   3.735 -1.7429 -2.1025  0.2827
 2921TIP3   OH2 8705   0.099   7.053   2.066  0.3105 -0.2762  0.3845
 2921TIP3    H1 8706   0.181   7.042   2.115  0.9144  2.3700  0.0242
 2921TIP3    H2 8707   0.126   7.060   1.975 -0.5852 -2.2423 -0.0585
 2922TIP3   OH2 8708   6.127   1.599   3.910 -0.2446  0.3040 -0.4835
 2922TIP3    H1 8709   6.117   1.519   3.859  0.6168  0.7920 -1.4484
 2922TIP3    H2 8710   6.199   1.646   3.867  1.2180  0.2264  1.8210
 2923TIP3   OH2 8711   3.358   0.461   2.234 -0.2235  0.3035  0.0901
 2923TIP3    H1 8712   3.436   0.516   2.249  0.9729 -1.1983 -0.5083
 2923TIP3    H2 8713   3.390   0.390   2.178 -1.5716 -1.4425  1.4884
 2924TIP3   OH2 8714   2.590   7.850   3.809 -0.8219 -0.2362 -0.2016
 2924TIP3    H1 8715   2.525   7.905   3.852 -0.0254 -0.0390  0.7686
 2924TIP3    H2 8716   2.670   7.903   3.808 -0.3755 -0.9064 -0.3769
 2925TIP3   OH2 8717   5.461   3.186   3.527 -0.2391 -0.0831 -0.5849
 2925TIP3    H1 8718   5.402   3.252   3.564  0.4410  1.4922 -2.2441
 2925TIP3    H2 8719   5.546   3.204   3.569  0.2077  0.8356 -1.8472
 2926TIP3   OH2 8720   5.886   0.783   2.091  0.4496  0.4708  0.2858
 2926TIP3    H1 8721   5.891   0.762   1.998 -0.7665  0.1211  0.2830
 2926TIP3    H2 8722   5.800   0.750   2.118  0.3973  1.4087  1.3156
 2927TIP3   OH2 8723   6.976   1.699   2.005  0.3422 -0.3625 -0.2968
 2927TIP3    H1 8724   6.955   1.637   2.076  0.4925  0.3935  0.4208
 2927TIP3    H2 8725   7.022   1.646   1.940  0.5245 -1.0009  0.3387
 2928TIP3   OH2 8726   6.166   2.585   3.659 -0.0153 -0.0712 -0.0759
 2928TIP3    H1 8727   6.240   2.526   3.644  0.4075  0.9295 -2.0519
 2928TIP3    H2 8728   6.103   2.562   3.590 -0.5865  0.6134  0.2156
 2929TIP3   OH2 8729   6.868   1.756   4.728  0.0530 -0.0581  0.3189
 2929TIP3    H1 8730   6.843   1.817   4.660 -0.5468  1.3992  1.8137
 2929TIP3    H2 8731   6.963   1.748   4.720 -0.2264 -1.6687 -2.0952
 2930TIP3   OH2 8732   5.144   0.848   0.143  0.0604 -0.7101 -0.4156
 2930TIP3    H1 8733   5.203   0.915   0.109  1.0517 -1.2233  0.2876
 2930TIP3    H2 8734   5.173   0.833   0.232 -1.9879  0.0049  0.4038
 2931TIP3   OH2 8735   6.703   3.588   3.582 -0.3859  0.1769  0.1688
 2931TIP3    H1 8736   6.761   3.556   3.651  1.6766  1.6550 -0.8351
 2931TIP3    H2 8737   6.620   3.605   3.627  0.1297 -1.3317  1.7540
 2932TIP3   OH2 8738   0.316   2.435   3.434  0.1735  0.1572  0.6454
 2932TIP3    H1 8739   0.320   2.427   3.338  0.8689  3.1568  0.3933
 2932TIP3    H2 8740   0.399   2.474   3.458 -1.2293  2.2672  2.1749
 2933TIP3   OH2 8741   4.536   2.621   1.203  0.0946  0.3381  0.1032
 2933TIP3    H1 8742   4.615   2.575   1.177  0.2884  0.6488  0.1276
 2933TIP3    H2 8743   4.480   2.620   1.126 -0.5432 -1.2654  0.5647
 2934TIP3   OH2 8744   6.763   0.885   0.658 -0.5368 -0.7597 -0.3514
 2934TIP3    H1 8745   6.735   0.853   0.572 -2.2971 -0.7258  0.1828
 2934TIP3    H2 8746   6.826   0.819   0.688  1.6893  0.2991 -2.5300
 2935TIP3   OH2 8747   2.370   7.817   1.564 -0.1679 -0.2285 -0.0085
 2935TIP3    H1 8748   2.375   7.880   1.636  2.5832 -1.8772  1.3335
 2935TIP3    H2 8749   2.335   7.737   1.604 -0.7515 -0.4856 -1.0086
 2936TIP3   OH2 8750   5.496   3.395   3.162 -0.2890 -0.0707 -0.2088
 2936TIP3    H1 8751   5.421   3.453   3.149  0.0531  0.1991 -0.9867
 2936TIP3    H2 8752   5.457   3.308   3.173 -0.8297  0.3581  1.3955
 2937TIP3   OH2 8753   6.508   0.910   1.116  0.4485 -0.6138 -0.4857
 2937TIP3    H1 8754   6.546   0.970   1.052  0.5373 -0.1106  0.0332
 2937TIP3    H2 8755   6.450   0.854   1.065  1.1609 -0.7637 -1.1371
 2938TIP3   OH2 8756   5.797   2.540   1.247 -0.0331 -0.9729 -0.1887
 2938TIP3    H1 8757   5.776   2.485   1.323  0.6199 -1.2908 -0.2366
 2938TIP3    H2 8758   5.717   2.540   1.195 -0.1722 -1.5312  0.0206
 2939TIP3   OH2 8759   0.920   0.756   2.917  0.1736  0.4929 -0.2185
 2939TIP3    H1 8760   0.918   0.850   2.937 -2.1309  0.9603 -2.2900
 2939TIP3    H2 8761   0.970   0.750   2.836 -0.7439  0.1047 -0.7640
 2940TIP3   OH2 8762   7.149   1.037   1.129 -0.3152  0.7966  0.7464
 2940TIP3    H1 8763   7.156   0.978   1.204  0.9678 -0.8109 -0.5922
 2940TIP3    H2 8764   7.090   0.992   1.069  0.7894  0.7945 -0.3544
 2941TIP3   OH2 8765   4.700   4.767   3.119  0.3470 -0.0925  0.2845
 2941TIP3    H1 8766   4.752   4.757   3.198 -1.7509  0.0968  1.7207
 2941TIP3    H2 8767   4.727   4.693   3.064  1.3817 -0.5822  1.4156
 2942TIP3   OH2 8768   6.357   3.166   1.906  0.0870 -0.4365  0.1404
 2942TIP3    H1 8769   6.378   3.188   1.997 -0.5169  1.4262 -0.1361
 2942TIP3    H2 8770   6.423   3.102   1.881  1.1996  0.1851  1.4127
 2943TIP3   OH2 8771   4.147   1.545   0.582 -0.6697 -0.2657 -0.3038
 2943TIP3    H1 8772   4.226   1.598   0.587 -0.3870 -0.7353  0.2568
 2943TIP3    H2 8773   4.076   1.608   0.569 -0.2949  0.2126 -0.0259
 2944TIP3   OH2 8774   4.972   1.113   0.440  0.2120 -0.1085 -0.2174
 2944TIP3    H1 8775   5.048   1.162   0.472  1.3052 -1.1309 -1.2168
 2944TIP3    H2 8776   5.001   1.023   0.435 -1.2589 -0.6074 -0.0824
 2945TIP3   OH2 8777   6.502   2.037   1.485  0.4142  0.3793 -0.1900
 2945TIP3    H1 8778   6.597   2.049   1.480  0.5174 -0.8453 -1.3143
 2945TIP3    H2 8779   6.479   2.067   1.573  2.3239 -2.4791  1.3558
 2946TIP3   OH2 8780   4.297   1.367   1.440 -0.3737  0.0095 -0.3172
 2946TIP3    H1 8781   4.256   1.441   1.484 -0.2497  0.4729 -0.9696
 2946TIP3    H2 8782   4.273   1.378   1.348  0.8828  0.0612 -0.6486
 2947TIP3   OH2 8783   6.289   1.499   4.165 -0.2954 -0.0311  0.2132
 2947TIP3    H1 8784   6.198   1.526   4.160 -0.2507  0.0669 -0.0688
 2947TIP3    H2 8785   6.324   1.514   4.077 -0.2657 -1.0078  0.0554
 2948TIP3   OH2 8786   5.744   1.651   0.879  0.4130  0.1439 -0.0786
 2948TIP3    H1 8787   5.761   1.739   0.844  0.3538 -0.0167 -0.5195
 2948TIP3    H2 8788   5.657   1.629   0.846  1.0641 -0.6981 -1.2642
 2949TIP3   OH2 8789   6.521   2.140   3.401  0.1670  0.2176  0.3279
 2949TIP3    H1 8790   6.431   2.110   3.415  0.3701 -1.5093 -1.8446
 2949TIP3    H2 8791   6.511   2.229   3.367 -0.6975  0.3295  0.8663
 2950TIP3   OH2 8792   5.623   4.498   1.675  0.0099 -0.2558 -0.3376
 2950TIP3    H1 8793   5.668   4.448   1.744 -1.2326 -0.7185  0.1400
 2950TIP3    H2 8794   5.631   4.590   1.704  1.5245 -0.2266 -0.7769
 2951TIP3   OH2 8795   5.715   2.383   3.207 -0.0018  0.8828  0.0024
 2951TIP3    H1 8796   5.665   2.402   3.286  0.4849 -0.0916  0.5497
 2951TIP3    H2 8797   5.713   2.288   3.199 -0.2830  0.9788 -1.3237
 2952TIP3   OH2 8798   7.169   1.299   1.161  0.5395 -0.4884 -0.1406
 2952TIP3    H1 8799   7.088   1.335   1.126  1.4331  1.3903 -0.3453
 2952TIP3    H2 8800   7.157   1.204   1.157 -1.2599 -0.2421 -1.0608
 2953TIP3   OH2 8801   6.592   5.655   3.181 -0.7021  0.0329  0.5631
 2953TIP3    H1 8802   6.577   5.587   3.114  1.1939 -0.0365  0.1595
 2953TIP3    H2 8803   6.678   5.632   3.218 -1.5312  0.3459  2.7057
 2954TIP3   OH2 8804   5.453   0.882   2.901  0.4625  0.2706  0.0335
 2954TIP3    H1 8805   5.383   0.817   2.911  0.8625 -0.0722  0.6409
 2954TIP3    H2 8806   5.407   0.966   2.897  0.0419  0.0885  0.9248
 2955TIP3   OH2 8807   5.769   0.968   1.816  0.0172 -0.4170  0.0902
 2955TIP3    H1 8808   5.681   1.005   1.825 -0.4631 -1.7693  1.2512
 2955TIP3    H2 8809   5.764   0.911   1.740 -0.4898 -1.4680  0.8904
 2956TIP3   OH2 8810   6.289   2.161   0.999  0.0508  0.2892 -0.0437
 2956TIP3    H1 8811   6.333   2.233   1.045  0.3071 -0.2806  0.5946
 2956TIP3    H2 8812   6.345   2.085   1.013 -1.3030 -0.5185  1.0456
 2957TIP3   OH2 8813   7.793   2.789   1.809  0.1220 -0.0974  0.4502
 2957TIP3    H1 8814   7.748   2.790   1.893  0.5816  0.2189  0.6933
 2957TIP3    H2 8815   7.830   2.702   1.802  2.3260  0.7011  1.7724
 2958TIP3   OH2 8816   8.366   3.501   1.915  0.3971 -0.3399  0.6871
 2958TIP3    H1 8817   8.354   3.594   1.930  0.3334 -0.0737 -0.9052
 2958TIP3    H2 8818   8.281   3.462   1.933  0.3571 -0.0503  1.1154
 2959TIP3   OH2 8819   6.354   2.345   3.077  0.0243  0.2609 -0.2616
 2959TIP3    H1 8820   6.294   2.419   3.086  1.0450  0.9868  0.7647
 2959TIP3    H2 8821   6.421   2.376   3.016  1.6201  0.9837  1.8083
 2960TIP3   OH2 8822   6.619   0.362   3.653 -0.4332  0.0221  0.6143
 2960TIP3    H1 8823   6.618   0.444   3.702  1.6527 -0.4252  1.4976
 2960TIP3    H2 8824   6.583   0.297   3.714  1.1514 -0.3319  1.2096
 2961TIP3   OH2 8825   4.962   3.436   3.456  0.5129 -0.2908 -0.1696
 2961TIP3    H1 8826   4.907   3.440   3.378  0.1447  0.2072  0.1126
 2961TIP3    H2 8827   4.900   3.427   3.528  0.7474  1.2004  0.2271
 2962TIP3   OH2 8828   7.040   1.468   2.756  0.2627 -0.2185 -0.4774
 2962TIP3    H1 8829   7.025   1.557   2.726  0.7281  0.1510  0.3448
 2962TIP3    H2 8830   7.005   1.412   2.687 -2.8775  0.5822  0.3872
 2963TIP3   OH2 8831   3.868   1.710   2.332  0.2183 -0.2809  0.1700
 2963TIP3    H1 8832   3.818   1.712   2.413 -1.7859 -0.4087 -1.0097
 2963TIP3    H2 8833   3.932   1.780   2.340 -0.8972  0.6264  1.2903
 2964TIP3   OH2 8834   3.415   0.512   3.175  0.1199 -0.4039  0.5548
 2964TIP3    H1 8835   3.483   0.445   3.172 -0.6825 -1.2397  0.9487
 2964TIP3    H2 8836   3.373   0.500   3.260 -2.4528 -1.8252 -0.8447
 2965TIP3   OH2 8837   6.152   2.731   3.087  0.2390  0.4162 -0.0724
 2965TIP3    H1 8838   6.246   2.745   3.090  0.3703 -0.6228  1.1535
 2965TIP3    H2 8839   6.130   2.730   2.994  1.3314  1.2922 -0.3448
 2966TIP3   OH2 8840   7.523   1.713   3.158 -0.0065  0.0991 -0.8265
 2966TIP3    H1 8841   7.473   1.714   3.076 -0.1714 -0.3745 -0.7349
 2966TIP3    H2 8842   7.614   1.705   3.130 -0.1678 -1.5160 -0.9326
 2967TIP3   OH2 8843   3.952   0.390   0.986  0.6767 -0.4208  0.2748
 2967TIP3    H1 8844   4.002   0.460   1.026 -0.7012  0.4888  0.4318
 2967TIP3    H2 8845   3.903   0.350   1.058 -1.0212  0.5668 -0.2878
 2968TIP3   OH2 8846   3.920   0.607   1.741 -0.4463 -0.4555 -0.4909
 2968TIP3    H1 8847   3.824   0.605   1.746 -0.3295 -0.0446  2.5780
 2968TIP3    H2 8848   3.941   0.699   1.724 -0.5449 -0.1411  1.0080
 2969TIP3   OH2 8849   6.410   3.185   2.814  0.3736 -0.4487  0.2700
 2969TIP3    H1 8850   6.393   3.261   2.869 -0.0770 -0.1534 -0.2679
 2969TIP3    H2 8851   6.405   3.110   2.873 -1.7783 -0.2866  0.3249
 2970TIP3   OH2 8852   5.283   0.237   3.314 -0.0044  0.1913 -0.3641
 2970TIP3    H1 8853   5.378   0.246   3.313  0.0500 -0.4058 -0.3324
 2970TIP3    H2 8854   5.257   0.261   3.403  0.0635  0.8742 -0.5223
 2971TIP3   OH2 8855   4.753   2.330   1.760 -0.3605 -0.4274 -0.4425
 2971TIP3    H1 8856   4.662   2.353   1.742 -0.1145  0.8578 -0.1327
 2971TIP3    H2 8857   4.793   2.317   1.674 -0.1842  1.6697 -0.7003
 2972TIP3   OH2 8858   6.038   6.836   3.569  0.1959 -0.0265 -0.1394
 2972TIP3    H1 8859   5.982   6.771   3.527 -1.3800  0.4647  1.1223
 2972TIP3    H2 8860   5.992   6.919   3.555  1.4021  0.6159 -0.3948
 2973TIP3   OH2 8861   0.258   3.714   4.600  0.3214 -0.2970 -0.1249
 2973TIP3    H1 8862   0.192   3.700   4.668 -0.5235 -0.8388 -1.0589
 2973TIP3    H2 8863   0.276   3.808   4.603  0.5546 -0.3659  1.0868
 2974TIP3   OH2 8864   4.263   0.300   1.762 -0.2354 -0.1653  0.2042
 2974TIP3    H1 8865   4.344   0.254   1.782 -0.3822 -0.3368  0.4187
 2974TIP3    H2 8866   4.205   0.233   1.727 -0.4331 -0.1358  0.4687
 2975TIP3   OH2 8867   6.943   2.275   3.123  0.1349  0.3177 -0.4858
 2975TIP3    H1 8868   6.879   2.342   3.146  3.6095  3.8884 -0.6372
 2975TIP3    H2 8869   6.967   2.294   3.033  1.7408 -0.6522 -0.2875
 2976TIP3   OH2 8870   1.889   7.844   5.066  0.2183 -0.4118 -0.0703
 2976TIP3    H1 8871   1.981   7.848   5.039 -0.3298  1.9772 -1.6712
 2976TIP3    H2 8872   1.871   7.750   5.073  2.2398 -0.9610 -1.5983
 2977TIP3   OH2 8873   4.799   3.999   3.842  0.3475 -0.1518  0.1610
 2977TIP3    H1 8874   4.780   3.977   3.750 -0.8152  0.2005  0.3088
 2977TIP3    H2 8875   4.726   3.961   3.891  2.3703 -2.7117  1.2472
 2978TIP3   OH2 8876   5.611   4.360   1.181  0.2105  0.0055 -0.3618
 2978TIP3    H1 8877   5.622   4.454   1.164  0.1643 -0.1134 -1.0849
 2978TIP3    H2 8878   5.541   4.333   1.120  0.4107 -0.5514 -0.3475
 2979TIP3   OH2 8879   7.247   1.501   2.066 -0.0102 -0.4522 -0.3844
 2979TIP3    H1 8880   7.298   1.421   2.056 -1.1888 -1.0036 -2.4607
 2979TIP3    H2 8881   7.157   1.470   2.078 -0.4228  0.5501 -0.8458
 2980TIP3   OH2 8882   7.575   1.292   3.079  0.4619  0.4565 -0.1892
 2980TIP3    H1 8883   7.648   1.290   3.141 -0.7089 -2.0769  1.1600
 2980TIP3    H2 8884   7.586   1.213   3.025 -0.0507  1.2265 -1.4605
 2981TIP3   OH2 8885   4.771   1.857   1.315 -0.0573  0.3427 -0.0574
 2981TIP3    H1 8886   4.856   1.830   1.347  0.0576 -1.7729 -2.0179
 2981TIP3    H2 8887   4.787   1.886   1.225 -1.1732  1.2541  0.0257
 2982TIP3   OH2 8888   6.174   2.083   3.923  0.7307  0.1758 -0.3143
 2982TIP3    H1 8889   6.244   2.038   3.971  0.2520  0.1725  0.3827
 2982TIP3    H2 8890   6.176   2.043   3.836  2.2148  0.8276 -0.6085
 2983TIP3   OH2 8891   5.420   0.518   1.372  0.0170  0.3447  0.4333
 2983TIP3    H1 8892   5.480   0.542   1.443  0.4951 -0.9123  0.4722
 2983TIP3    H2 8893   5.336   0.504   1.416  0.2246 -0.0658  0.7044
 2984TIP3   OH2 8894   6.774   1.995   2.668  0.3580  0.2455 -0.3470
 2984TIP3    H1 8895   6.801   2.016   2.758  0.2137 -1.0855  0.0162
 2984TIP3    H2 8896   6.856   1.977   2.622  0.3290 -0.7555 -0.0306
 2985TIP3   OH2 8897   5.683   1.807   1.473 -0.0278 -0.2580  0.5349
 2985TIP3    H1 8898   5.673   1.841   1.563  0.6827 -0.8596  0.8463
 2985TIP3    H2 8899   5.764   1.847   1.442 -1.0628  1.1578 -0.4022
 2986TIP3   OH2 8900   5.818   1.974   2.115 -0.1558  0.2333  0.0434
 2986TIP3    H1 8901   5.900   1.928   2.132 -1.8371 -3.0233 -0.3347
 2986TIP3    H2 8902   5.760   1.948   2.187 -1.9353 -0.2286 -1.5295
 2987TIP3   OH2 8903   5.125   2.310   2.603  0.6147  0.2870  0.1164
 2987TIP3    H1 8904   5.072   2.388   2.590  0.2666 -0.1956 -1.4736
 2987TIP3    H2 8905   5.212   2.343   2.624  0.3681  1.1030 -0.1209
 2988TIP3   OH2 8906   5.152   0.761   2.071  0.2642 -0.1008 -0.1631
 2988TIP3    H1 8907   5.134   0.841   2.022  0.2148 -1.0760 -1.7614
 2988TIP3    H2 8908   5.079   0.703   2.051  0.2938 -0.5480  0.9895
 2989TIP3   OH2 8909   7.637   0.428   3.352  0.0327 -0.6572 -0.0396
 2989TIP3    H1 8910   7.697   0.369   3.397  1.5205  0.6948 -0.2213
 2989TIP3    H2 8911   7.693   0.492   3.308 -1.5296  1.0406  0.3274
 2990TIP3   OH2 8912   7.002   1.029   3.094 -0.3593 -0.1035 -0.1079
 2990TIP3    H1 8913   6.919   0.995   3.060  0.2718  0.3177 -2.1583
 2990TIP3    H2 8914   7.065   0.961   3.073  0.2892  0.7746 -1.0404
 2991TIP3   OH2 8915   6.285   1.720   3.695 -0.3981  0.1422 -0.2023
 2991TIP3    H1 8916   6.334   1.800   3.675  1.3368 -0.7779  0.2265
 2991TIP3    H2 8917   6.300   1.663   3.620  0.3636 -0.6705  0.5480
 2992TIP3   OH2 8918   4.507   0.352   0.517  0.3560 -0.0771  0.0296
 2992TIP3    H1 8919   4.491   0.300   0.596 -1.3933  1.0713  0.4642
 2992TIP3    H2 8920   4.441   0.422   0.520  2.5638  2.1241 -0.5805
 2993TIP3   OH2 8921   8.020   1.083   3.922 -0.0328  0.2780  0.3883
 2993TIP3    H1 8922   8.042   1.124   3.839 -0.3829 -1.7062 -0.7129
 2993TIP3    H2 8923   8.025   1.154   3.986 -0.0009  1.8781 -1.3508
 2994TIP3   OH2 8924   7.320   0.442   4.186  0.5221  0.1696  0.5786
 2994TIP3    H1 8925   7.379   0.367   4.173 -0.3615 -0.6410  1.1660
 2994TIP3    H2 8926   7.316   0.453   4.281  0.5533  0.9016  0.5001
 2995TIP3   OH2 8927   7.396   1.726   3.603  0.3652 -0.1906  0.1676
 2995TIP3    H1 8928   7.444   1.674   3.539 -1.0158 -0.5769 -0.5635
 2995TIP3    H2 8929   7.440   1.811   3.603  1.8079 -0.9224  0.4097
 2996TIP3   OH2 8930   6.291   0.666   2.601 -0.1018 -0.4553  0.4107
 2996TIP3    H1 8931   6.294   0.739   2.662  0.3863  0.1823 -0.3615
 2996TIP3    H2 8932   6.336   0.698   2.523  0.3073 -1.6497  0.1358
 2997TIP3   OH2 8933   6.807   1.778   3.516 -0.1838 -0.5090 -0.2539
 2997TIP3    H1 8934   6.854   1.780   3.433  1.5972 -1.0951  0.7159
 2997TIP3    H2 8935   6.800   1.870   3.542  1.2883 -0.4608  0.0441
 2998TIP3   OH2 8936   5.784   1.197   3.870  0.1615  0.4621  0.7419
 2998TIP3    H1 8937   5.785   1.157   3.957  1.3218 -1.3502 -0.0943
 2998TIP3    H2 8938   5.734   1.136   3.816 -0.9244  1.7867  0.1989
 2999TIP3   OH2 8939   6.518   4.659   1.765 -0.3709  0.1436 -0.4300
 2999TIP3    H1 8940   6.529   4.662   1.860  2.0230 -1.7078 -0.5968
 2999TIP3    H2 8941   6.590   4.713   1.731  1.1194 -2.2783 -1.2534
 3000TIP3   OH2 8942   3.467   3.332   4.523  0.3260  0.0982 -0.0822
 3000TIP3    H1 8943   3.477   3.304   4.614  1.1298  0.9948  0.1196
 3000TIP3    H2 8944   3.378   3.366   4.517  0.2517 -0.0256  0.3509
 3001TIP3   OH2 8945   5.882   2.140   1.367  0.3953  0.1681  0.3266
 3001TIP3    H1 8946   5.791   2.168   1.357  0.4617 -0.2018 -1.5085
 3001TIP3    H2 8947   5.905   2.165   1.456 -1.0309  1.6347  0.3094
 3002TIP3   OH2 8948   5.883   3.120   2.859  0.1007 -0.4027 -0.0023
 3002TIP3    H1 8949   5.825   3.085   2.927  0.8159 -2.9032 -0.6291
 3002TIP3    H2 8950   5.969   3.083   2.879  1.4153  2.8276  0.5851
 3003TIP3   OH2 8951   0.262   2.056   2.945  0.6372 -0.1491 -0.0532
 3003TIP3    H1 8952   0.217   1.984   2.900  0.7391  0.1601 -0.6505
 3003TIP3    H2 8953   0.313   2.100   2.876 -1.2960  1.9728 -0.1720
 3004TIP3   OH2 8954   0.636   1.031   2.505 -0.5356  0.5189  0.0978
 3004TIP3    H1 8955   0.647   1.029   2.410  1.0089  0.4222  0.2678
 3004TIP3    H2 8956   0.575   1.103   2.520 -1.6764 -0.1898 -1.0391
 3005TIP3   OH2 8957   5.684   1.534   1.436 -0.2951  0.0842  0.0516
 3005TIP3    H1 8958   5.772   1.539   1.401 -0.2182  1.2973  0.3819
 3005TIP3    H2 8959   5.674   1.614   1.489 -1.4333 -0.2404  0.3589
 3006TIP3   OH2 8960   3.328   7.674   0.836 -0.7165  0.1014  0.0332
 3006TIP3    H1 8961   3.323   7.735   0.910  0.0231 -0.9478  0.9507
 3006TIP3    H2 8962   3.248   7.621   0.844 -0.1190 -0.7014  0.6856
 3007TIP3   OH2 8963   6.065   4.127   0.138  0.1170  0.3340  0.2148
 3007TIP3    H1 8964   6.124   4.131   0.063  0.1186  0.1453  0.2067
 3007TIP3    H2 8965   6.108   4.066   0.198  0.0808  0.4299  0.3392
 3008TIP3   OH2 8966   8.264   4.531   1.690 -0.3835  0.2639 -0.4515
 3008TIP3    H1 8967   8.312   4.486   1.759 -2.6976 -1.0833  0.3414
 3008TIP3    H2 8968   8.267   4.472   1.615 -0.2728  0.4438 -0.5886
 3009TIP3   OH2 8969   7.157   1.910   2.088  0.4675  0.0510 -0.8283
 3009TIP3    H1 8970   7.065   1.883   2.085 -0.1541  1.6586  2.3255
 3009TIP3    H2 8971   7.165   1.974   2.017 -0.8219 -0.1234 -1.1397
 3010TIP3   OH2 8972   5.631   1.258   1.340  0.8976  0.2685 -0.1288
 3010TIP3    H1 8973   5.638   1.182   1.398 -0.4749 -0.5150 -0.9445
 3010TIP3    H2 8974   5.716   1.262   1.296  0.9158 -0.9430 -0.2311
 3011TIP3   OH2 8975   6.723   2.305   1.005  0.1098 -0.4485  0.3465
 3011TIP3    H1 8976   6.742   2.398   1.018 -0.0556 -0.5489  1.3243
 3011TIP3    H2 8977   6.689   2.276   1.089  0.2873 -1.4288  0.0770
 3012TIP3   OH2 8978   4.797   2.480   1.182  0.2295  0.4069 -0.7878
 3012TIP3    H1 8979   4.851   2.521   1.249  1.4896 -1.9959 -0.2720
 3012TIP3    H2 8980   4.834   2.512   1.099  2.2773 -0.9574 -0.4275
 3013TIP3   OH2 8981   7.315   1.412   3.021  0.0185  0.1375  0.2506
 3013TIP3    H1 8982   7.395   1.364   3.000  0.1139  0.4458 -0.0947
 3013TIP3    H2 8983   7.344   1.500   3.043 -0.3902  0.8595 -1.9683
 3014TIP3   OH2 8984   4.733   1.768   4.397 -0.1380  0.3415  0.2380
 3014TIP3    H1 8985   4.721   1.771   4.492  0.7904  1.9207  0.3126
 3014TIP3    H2 8986   4.816   1.813   4.382  0.1628 -0.6812 -1.2517
 3015TIP3   OH2 8987   2.264   3.564   6.604 -0.0185  0.2757 -0.6701
 3015TIP3    H1 8988   2.300   3.643   6.645 -1.9316  0.9184 -0.1798
 3015TIP3    H2 8989   2.331   3.537   6.541  0.7576  2.1615 -0.6734
 3016TIP3   OH2 8990   6.243   1.851   1.721  0.3302 -0.3305 -0.0308
 3016TIP3    H1 8991   6.256   1.940   1.753 -1.8155 -0.1588  0.4015
 3016TIP3    H2 8992   6.306   1.798   1.771  0.7264  0.7366  0.6072
 3017TIP3   OH2 8993   6.155   3.735   1.756 -0.0787  0.1607  0.0973
 3017TIP3    H1 8994   6.093   3.752   1.827 -1.2182 -0.7419 -0.6606
 3017TIP3    H2 8995   6.162   3.639   1.754  0.7780  0.2304 -0.3123
 3018TIP3   OH2 8996   5.035   3.774   2.558  0.2877  0.2382  0.4996
 3018TIP3    H1 8997   4.984   3.696   2.580  1.5957 -0.6479  0.4100
 3018TIP3    H2 8998   4.971   3.845   2.560 -0.4538 -0.4273  3.0980
 3019TIP3   OH2 8999   7.089   1.796   5.487  0.0405 -0.7899 -0.4395
 3019TIP3    H1 9000   7.032   1.733   5.531  0.4439 -0.1131  1.1058
 3019TIP3    H2 9001   7.147   1.828   5.557  0.9391  0.0442 -1.5582
 3020TIP3   OH2 9002   5.518   2.234   3.835  0.5495 -0.5116  0.0558
 3020TIP3    H1 9003   5.435   2.196   3.866  0.5544 -0.8583 -0.3601
 3020TIP3    H2 9004   5.494   2.282   3.756  0.7857 -0.7800 -0.1753
 3021TIP3   OH2 9005   7.966   1.697   3.433  0.0379  0.3651  0.2958
 3021TIP3    H1 9006   7.919   1.776   3.456  0.4106  1.0770 -1.2999
 3021TIP3    H2 9007   7.898   1.637   3.402 -0.1180  0.4441  0.4852
 3022TIP3   OH2 9008   5.078   1.438   2.954 -0.0206 -0.1459 -0.2332
 3022TIP3    H1 9009   5.147   1.499   2.929 -1.0236  1.3832  0.6488
 3022TIP3    H2 9010   5.123   1.355   2.968  1.7182  0.9500  0.7889
 3023TIP3   OH2 9011   3.245   3.074   4.510 -0.4161  0.2949  0.5519
 3023TIP3    H1 9012   3.337   3.058   4.488 -0.2480  2.4057 -0.4684
 3023TIP3    H2 9013   3.248   3.135   4.584 -1.0023 -0.7823  1.4717
 3024TIP3   OH2 9014   3.609   7.700   4.754 -0.0677  0.0953  0.3310
 3024TIP3    H1 9015   3.575   7.773   4.703  0.0741 -0.6267 -0.8273
 3024TIP3    H2 9016   3.685   7.734   4.799  0.3048  0.5212 -0.6199
 3025TIP3   OH2 9017   7.805   0.126   2.439  0.2511 -0.3241  0.0480
 3025TIP3    H1 9018   7.823   0.055   2.501  1.0614 -0.0762  0.1046
 3025TIP3    H2 9019   7.751   0.086   2.371  0.4829 -0.9255  0.2180
 3026TIP3   OH2 9020   5.660   0.070   1.397 -0.5774 -0.5088 -0.4548
 3026TIP3    H1 9021   5.573   0.089   1.432 -0.4621 -0.0527 -0.4069
 3026TIP3    H2 9022   5.643   0.029   1.312 -0.8758 -3.0387  0.8089
 3027TIP3   OH2 9023   5.350   2.069   2.855  0.2539  0.2294 -0.2246
 3027TIP3    H1 9024   5.355   1.981   2.819 -1.5876 -0.3238  0.8538
 3027TIP3    H2 9025   5.441   2.100   2.856  1.0876 -2.1711  0.6764
 3028TIP3   OH2 9026   0.123   1.183   4.334 -0.3728  0.2672  0.9910
 3028TIP3    H1 9027   0.091   1.267   4.302  2.5756  0.8865 -0.4429
 3028TIP3    H2 9028   0.064   1.118   4.295 -0.5428  1.4311 -0.7250
 3029TIP3   OH2 9029   6.048   3.809   3.849  0.2673 -0.2458  0.4972
 3029TIP3    H1 9030   6.107   3.808   3.924  0.6980 -0.4258  0.1511
 3029TIP3    H2 9031   6.105   3.804   3.773 -0.1293  0.6146  0.1354
 3030TIP3   OH2 9032   6.473   3.973   4.060  0.8036 -0.3468 -0.2555
 3030TIP3    H1 9033   6.492   3.997   4.151  0.1694  1.8484 -0.6656
 3030TIP3    H2 9034   6.441   4.054   4.020 -0.5727 -1.7125 -1.9983
 3031TIP3   OH2 9035   6.090   2.527   2.557  0.5483 -0.7190  0.1748
 3031TIP3    H1 9036   6.026   2.463   2.526 -2.2925  1.2417  1.7959
 3031TIP3    H2 9037   6.170   2.506   2.508 -1.7960 -2.0832 -3.2788
 3032TIP3   OH2 9038   4.512   2.378   4.459  0.6958  0.0302  0.2138
 3032TIP3    H1 9039   4.510   2.391   4.365 -0.6901 -1.0252  0.0748
 3032TIP3    H2 9040   4.584   2.317   4.474 -0.9755 -2.1839 -0.5128
 3033TIP3   OH2 9041   8.320   1.255   3.344 -0.2202 -0.1220 -0.8246
 3033TIP3    H1 9042   8.239   1.304   3.359  0.3544  0.7007 -0.3579
 3033TIP3    H2 9043   8.381   1.291   3.408  0.9124  0.1838 -2.0676
 3034TIP3   OH2 9044   5.358   2.133   4.472 -0.0431  0.1572  0.1855
 3034TIP3    H1 9045   5.421   2.069   4.503  1.1078  0.5275 -1.3283
 3034TIP3    H2 9046   5.384   2.215   4.515  0.0831  0.1585  0.1078
 3035TIP3   OH2 9047   4.807   4.734   3.382  0.1993 -0.2846  0.5575
 3035TIP3    H1 9048   4.863   4.777   3.446  1.2608 -2.0398  0.8605
 3035TIP3    H2 9049   4.721   4.729   3.423  0.5618 -0.2567  1.3188
 3036TIP3   OH2 9050   7.311   2.111   2.439  0.7916 -0.3700  0.1847
 3036TIP3    H1 9051   7.225   2.090   2.476  0.9343  0.0971  0.7887
 3036TIP3    H2 9052   7.338   2.031   2.393  0.0258 -0.5051 -0.0286
 3037TIP3   OH2 9053   4.206   3.185   1.685  0.7567  0.0738 -0.6182
 3037TIP3    H1 9054   4.294   3.146   1.694  0.1189 -1.4099 -0.6211
 3037TIP3    H2 9055   4.172   3.148   1.604 -0.3137 -0.2644 -0.0199
 3038TIP3   OH2 9056   0.059   4.777   1.631 -0.2730  0.0222 -0.0744
 3038TIP3    H1 9057   0.051   4.684   1.653 -0.1257 -0.3610 -1.5671
 3038TIP3    H2 9058  -0.032   4.808   1.625 -0.3976 -0.6075 -1.8586
 3039TIP3   OH2 9059   7.536   1.967   3.553  0.4397 -0.2104 -0.4339
 3039TIP3    H1 9060   7.598   2.009   3.494  0.7001  0.5658  0.3672
 3039TIP3    H2 9061   7.473   2.036   3.576  0.8300 -0.2485  0.8355
 3040TIP3   OH2 9062   4.493   1.900   3.438 -0.2503  0.2078 -0.0066
 3040TIP3    H1 9063   4.455   1.828   3.488 -0.8331 -0.1740 -0.9749
 3040TIP3    H2 9064   4.530   1.958   3.504 -1.0110 -0.2719  0.8606
 3041TIP3   OH2 9065   1.509   7.545   3.225  0.3979 -0.2397  0.0673
 3041TIP3    H1 9066   1.463   7.566   3.144 -1.3514 -0.3220  1.0022
 3041TIP3    H2 9067   1.596   7.516   3.197 -0.3396 -0.7424 -1.7919
 3042TIP3   OH2 9068   0.338   1.008   2.310 -0.0769  0.6328  0.1258
 3042TIP3    H1 9069   0.375   0.920   2.300 -0.1203  0.2946  2.5503
 3042TIP3    H2 9070   0.410   1.067   2.288  0.0742 -0.0035 -1.1150
 3043TIP3   OH2 9071   7.670   0.041   3.924 -0.3396  0.1862 -0.2139
 3043TIP3    H1 9072   7.711   0.025   3.839  2.1311  0.2322  0.9186
 3043TIP3    H2 9073   7.621  -0.040   3.942  2.3981 -1.4545  0.1120
 3044TIP3   OH2 9074   5.945   2.007   4.010  0.4497 -0.2877 -0.1904
 3044TIP3    H1 9075   5.880   2.077   4.000  0.2440 -0.2458  1.4004
 3044TIP3    H2 9076   6.029   2.050   3.993  0.1145 -0.2778 -1.9651
 3045TIP3   OH2 9077   6.723   1.362   2.228  0.2760 -0.1005  0.4151
 3045TIP3    H1 9078   6.675   1.367   2.146 -0.0011  0.0155  0.5836
 3045TIP3    H2 9079   6.658   1.332   2.292  0.2530  0.7114  0.7816
 3046TIP3   OH2 9080   5.630   1.297   2.608 -0.2377  1.0589  0.5764
 3046TIP3    H1 9081   5.670   1.370   2.561  0.8025  0.5331  0.6328
 3046TIP3    H2 9082   5.702   1.258   2.657 -0.2600 -1.5124 -1.3403
 3047TIP3   OH2 9083   6.089   3.069   1.828  0.4010 -0.0895 -0.4867
 3047TIP3    H1 9084   6.053   3.030   1.907 -0.8340  0.3100 -0.8353
 3047TIP3    H2 9085   6.173   3.106   1.855  0.6516 -1.2201  0.2943
 3048TIP3   OH2 9086   6.786   0.306   3.224  0.5289  0.3317 -0.2799
 3048TIP3    H1 9087   6.760   0.293   3.315  0.4265 -1.6132 -0.5645
 3048TIP3    H2 9088   6.865   0.254   3.214 -1.1147 -1.9391 -2.0708
 3049TIP3   OH2 9089   7.610   2.570   2.994 -0.1042  0.0903 -0.4419
 3049TIP3    H1 9090   7.567   2.651   3.019  1.5625  1.1676 -0.9649
 3049TIP3    H2 9091   7.569   2.545   2.911 -0.8764  0.1948 -0.0911
 3050TIP3   OH2 9092   4.124   3.381   0.704 -0.0860 -0.3683  0.1496
 3050TIP3    H1 9093   4.077   3.455   0.666  1.3216 -0.4365 -1.8004
 3050TIP3    H2 9094   4.092   3.305   0.656  1.4013 -0.5094 -0.6477
 3051TIP3   OH2 9095   3.992   0.554   2.525  0.5914  0.1855  1.0221
 3051TIP3    H1 9096   4.028   0.565   2.437  0.5759 -3.3250  0.4961
 3051TIP3    H2 9097   3.897   0.545   2.510  0.5448 -0.0100  1.4620
 3052TIP3   OH2 9098   0.247   3.746   6.466 -0.1081 -0.3922 -0.6642
 3052TIP3    H1 9099   0.240   3.813   6.397 -2.1801 -1.0714 -1.1655
 3052TIP3    H2 9100   0.225   3.793   6.547  0.7792  0.0484 -0.6676
 3053TIP3   OH2 9101   4.739   0.917   0.897 -0.0756  0.1318 -0.3606
 3053TIP3    H1 9102   4.798   0.988   0.922 -1.8785  1.5263  0.0692
 3053TIP3    H2 9103   4.690   0.952   0.822 -0.2897 -1.0496 -0.7896
 3054TIP3   OH2 9104   6.138   4.901   2.406  0.1100  0.3179  0.2031
 3054TIP3    H1 9105   6.193   4.894   2.484  1.8650 -2.6050 -1.2328
 3054TIP3    H2 9106   6.056   4.857   2.429 -0.1814  1.2585  1.0257
 3055TIP3   OH2 9107   6.041   2.816   2.519 -0.3794  0.2460 -0.0548
 3055TIP3    H1 9108   6.091   2.839   2.440 -2.6394 -0.8227 -1.8780
 3055TIP3    H2 9109   6.055   2.722   2.530  0.6300  0.5540  1.3543
 3056TIP3   OH2 9110   6.337   1.292   4.871  0.4829  0.1063 -0.4292
 3056TIP3    H1 9111   6.412   1.348   4.891 -0.3422  0.9645  0.3584
 3056TIP3    H2 9112   6.359   1.250   4.788  0.3380  3.0558 -2.0387
 3057TIP3   OH2 9113   6.732   0.960   1.527 -0.0037  0.1709  0.2782
 3057TIP3    H1 9114   6.651   0.924   1.493  0.0851 -0.6679  0.9449
 3057TIP3    H2 9115   6.765   1.016   1.456 -1.7409  1.4627  0.4446
 3058TIP3   OH2 9116   7.046   1.904   2.805  0.3490  0.1097  0.3897
 3058TIP3    H1 9117   7.134   1.933   2.830  1.2725  1.1269 -3.6122
 3058TIP3    H2 9118   7.039   1.926   2.712 -3.6997 -1.1081  0.2925
 3059TIP3   OH2 9119   6.993   1.616   2.505 -0.6400 -0.3237  0.5777
 3059TIP3    H1 9120   6.924   1.625   2.439  1.1482 -0.5372 -1.3744
 3059TIP3    H2 9121   7.008   1.705   2.537 -1.3373 -0.1837  0.5334
 3060TIP3   OH2 9122   1.718   3.342   1.760 -0.1350  0.1596 -0.0468
 3060TIP3    H1 9123   1.756   3.425   1.731 -0.1452 -0.3459 -1.5579
 3060TIP3    H2 9124   1.760   3.324   1.844  2.8539 -0.2930 -1.5830
 3061TIP3   OH2 9125   7.194   1.423   0.107  0.1341 -0.1031 -0.1474
 3061TIP3    H1 9126   7.283   1.453   0.088 -0.0685  0.1084 -0.7757
 3061TIP3    H2 9127   7.147   1.433   0.024  0.1838 -2.6582 -0.5407
 3062TIP3   OH2 9128   5.996   2.891   1.374 -0.1422  0.1952 -0.0056
 3062TIP3    H1 9129   6.025   2.800   1.369 -2.7952 -0.6199 -1.3747
 3062TIP3    H2 9130   5.995   2.911   1.468  1.5834 -0.7691  0.2422
 3063TIP3   OH2 9131   6.462   3.225   2.159 -0.1608  0.3440  0.8863
 3063TIP3    H1 9132   6.556   3.212   2.171 -0.1135 -0.4134 -0.1840
 3063TIP3    H2 9133   6.447   3.317   2.180  0.8116  0.4636  1.0859
 3064TIP3   OH2 9134   8.317   6.042   1.303 -0.1304 -0.1996 -0.3050
 3064TIP3    H1 9135   8.381   5.977   1.330 -0.3802 -0.7978 -1.1022
 3064TIP3    H2 9136   8.234   5.994   1.299 -0.6247  0.5593  0.6935
 3065TIP3   OH2 9137   1.287   1.807   1.382  0.3597  0.1217 -0.2908
 3065TIP3    H1 9138   1.196   1.799   1.412  0.2861 -2.4251 -1.0703
 3065TIP3    H2 9139   1.282   1.862   1.304 -0.5829 -0.2615 -0.5142
 3066TIP3   OH2 9140   8.033   1.677   1.034 -0.0890  0.1267  0.3066
 3066TIP3    H1 9141   8.086   1.737   0.982 -0.1069  0.6765  0.9276
 3066TIP3    H2 9142   7.946   1.716   1.033 -0.0720  0.1760  0.8146
 3067TIP3   OH2 9143   6.786   3.369   2.545 -0.3218  0.0594 -0.0080
 3067TIP3    H1 9144   6.746   3.323   2.619 -0.7515 -0.4336 -0.5404
 3067TIP3    H2 9145   6.717   3.373   2.479  0.9895 -2.3156 -1.5972
 3068TIP3   OH2 9146   7.232   4.087   0.393  0.0155 -0.1178  0.6804
 3068TIP3    H1 9147   7.266   4.114   0.308 -0.4891 -0.5138  0.3442
 3068TIP3    H2 9148   7.303   4.104   0.455 -0.2643  1.8962  0.4817
 3069TIP3   OH2 9149   6.516   2.393   1.944  0.1920  0.0601  0.2016
 3069TIP3    H1 9150   6.471   2.342   2.012  1.9468 -0.7768  0.7654
 3069TIP3    H2 9151   6.509   2.338   1.866  0.0943  0.0015  0.2511
 3070TIP3   OH2 9152   3.692   1.744   6.917  0.4819 -0.4626 -0.2350
 3070TIP3    H1 9153   3.644   1.682   6.972 -1.2649 -0.0641 -1.2522
 3070TIP3    H2 9154   3.644   1.745   6.834  0.9235  1.6488 -0.5142
 3071TIP3   OH2 9155   0.965   2.773   0.160  0.0123 -0.5088  0.4042
 3071TIP3    H1 9156   1.031   2.727   0.212  0.7088  0.4426  0.3744
 3071TIP3    H2 9157   0.988   2.752   0.069  0.1166 -0.3816  0.4018
 3072TIP3   OH2 9158   0.803   2.869   3.727  0.1639 -0.1860  0.4369
 3072TIP3    H1 9159   0.794   2.776   3.747 -0.5866 -0.2134  0.0113
 3072TIP3    H2 9160   0.720   2.892   3.683  0.2720  0.7194  0.6965
 3073TIP3   OH2 9161   6.848   2.323   1.439 -0.2961 -0.1315  0.5333
 3073TIP3    H1 9162   6.763   2.368   1.444  0.6973  1.6990  1.3707
 3073TIP3    H2 9163   6.912   2.389   1.465  1.5739 -1.0019 -1.6836
 3074TIP3   OH2 9164   6.568   1.771   1.230  0.0579 -0.1220 -0.1491
 3074TIP3    H1 9165   6.488   1.719   1.233 -0.5197  0.7961  0.9185
 3074TIP3    H2 9166   6.607   1.759   1.317  2.1036 -2.1186 -1.2988
 3075TIP3   OH2 9167   7.564   1.729   1.174  0.2259 -0.0785 -0.3286
 3075TIP3    H1 9168   7.595   1.639   1.181  0.8012  0.1778  0.6182
 3075TIP3    H2 9169   7.510   1.731   1.096  1.7319 -0.7990 -1.4050
 3076TIP3   OH2 9170   0.732   2.156   1.635  0.2315  0.7474  0.3521
 3076TIP3    H1 9171   0.753   2.088   1.698  0.1236 -0.3833 -0.8235
 3076TIP3    H2 9172   0.710   2.109   1.554 -0.7844  2.1234 -0.1989
 3077TIP3   OH2 9173   6.240   3.758   3.653 -0.2062  0.4238  0.3029
 3077TIP3    H1 9174   6.187   3.714   3.586  0.9924 -0.5493 -0.0370
 3077TIP3    H2 9175   6.250   3.848   3.622 -0.0279  0.0882 -0.6176
 3078TIP3   OH2 9176   5.456   1.681   5.690 -0.5591 -1.1839  0.0097
 3078TIP3    H1 9177   5.473   1.742   5.618  1.3800 -1.2941  0.3405
 3078TIP3    H2 9178   5.381   1.718   5.736 -0.5531 -0.0365 -0.8911
 3079TIP3   OH2 9179   1.457   3.400   1.675 -0.4220 -0.2212  0.2290
 3079TIP3    H1 9180   1.522   3.330   1.685 -1.6265 -1.4411 -0.3014
 3079TIP3    H2 9181   1.489   3.453   1.603 -0.5599 -1.4636 -0.7681
 3080TIP3   OH2 9182   7.694   3.823   1.587  0.5856 -0.4839 -0.7616
 3080TIP3    H1 9183   7.629   3.807   1.518  0.2749 -1.0119 -0.3578
 3080TIP3    H2 9184   7.652   3.886   1.645  0.4051 -0.8659 -0.4713
 3081TIP3   OH2 9185   0.213   1.586   3.678 -0.1926  0.2292 -0.1020
 3081TIP3    H1 9186   0.203   1.658   3.741 -0.8110 -0.9015  1.1135
 3081TIP3    H2 9187   0.196   1.626   3.593 -2.3016  1.1604  0.7198
 3082TIP3   OH2 9188   6.460   2.617   1.746  0.1149  0.2123  0.2502
 3082TIP3    H1 9189   6.501   2.570   1.674 -2.3084 -0.1191 -0.9735
 3082TIP3    H2 9190   6.452   2.552   1.816  0.5199 -0.0592  0.0428
 3083TIP3   OH2 9191   7.247   2.610   1.892  0.2442  0.4866  0.3553
 3083TIP3    H1 9192   7.198   2.622   1.973 -0.3127  0.2482  0.0566
 3083TIP3    H2 9193   7.332   2.651   1.909 -0.3325  1.5962  0.6037
 3084TIP3   OH2 9194   0.339   3.326   3.307 -0.1566 -0.1367  0.3956
 3084TIP3    H1 9195   0.400   3.291   3.372 -0.8931  0.8344  1.6328
 3084TIP3    H2 9196   0.327   3.255   3.244 -0.2156 -1.4694  1.8762
 3085TIP3   OH2 9197   0.414   4.956   0.267 -0.2256 -0.0086  0.3357
 3085TIP3    H1 9198   0.414   5.003   0.184  0.3817  0.6110  0.6860
 3085TIP3    H2 9199   0.427   4.864   0.243  0.8479  0.2842 -0.1891
 3086TIP3   OH2 9200   4.096   6.082   6.923  0.8952 -0.3301 -0.0817
 3086TIP3    H1 9201   4.138   6.020   6.863  0.0866 -0.2638 -0.7236
 3086TIP3    H2 9202   4.056   6.148   6.865  0.2971 -0.1468  0.5389
 3087TIP3   OH2 9203   7.073   2.548   0.851  0.1802 -0.1499 -0.1707
 3087TIP3    H1 9204   6.990   2.530   0.896 -0.7442  2.6286 -0.6408
 3087TIP3    H2 9205   7.116   2.463   0.846 -2.2121 -1.5018  0.9289
 3088TIP3   OH2 9206   8.297   0.497   4.735 -0.8832  0.1439 -0.4791
 3088TIP3    H1 9207   8.330   0.560   4.800 -0.0751 -0.5783 -0.1772
 3088TIP3    H2 9208   8.376   0.454   4.702 -1.4971 -1.4251  0.0518
 3089TIP3   OH2 9209   1.123   1.604   3.243  0.0515 -0.1875  0.0887
 3089TIP3    H1 9210   1.132   1.661   3.319 -1.2699 -1.4892  1.2418
 3089TIP3    H2 9211   1.167   1.523   3.268  0.2386 -0.3715 -0.8140
 3090TIP3   OH2 9212   8.423   1.585   3.828 -0.8197 -0.1429  0.2480
 3090TIP3    H1 9213   8.480   1.662   3.825 -2.2824  1.0111  1.1009
 3090TIP3    H2 9214   8.372   1.597   3.908 -1.3594 -1.7969  0.1566
 3091TIP3   OH2 9215   7.842   0.874   4.770 -0.1752 -0.0239  0.2361
 3091TIP3    H1 9216   7.778   0.897   4.702 -0.4335 -0.4859  0.3244
 3091TIP3    H2 9217   7.926   0.885   4.727 -0.3155  0.5090  0.0944
 3092TIP3   OH2 9218   5.963   1.499   3.149 -0.5146  0.6541  0.5712
 3092TIP3    H1 9219   6.010   1.459   3.221 -0.4094  0.5641  0.4522
 3092TIP3    H2 9220   6.025   1.497   3.075 -1.5847 -1.8131 -0.3106
 3093TIP3   OH2 9221   6.099   0.903   0.856 -0.3425 -0.3062 -0.2509
 3093TIP3    H1 9222   6.077   0.813   0.882 -1.6074  0.2702  0.7515
 3093TIP3    H2 9223   6.090   0.903   0.761 -1.2808 -1.0065 -0.1735
 3094TIP3   OH2 9224   5.386   0.100   1.301  0.4779  0.1885  0.1073
 3094TIP3    H1 9225   5.391   0.017   1.255 -1.1038  0.4853 -0.6353
 3094TIP3    H2 9226   5.384   0.166   1.231  1.7129  0.8536  0.6836
 3095TIP3   OH2 9227   5.499   1.325   4.540 -0.0775  0.4207  0.4549
 3095TIP3    H1 9228   5.590   1.318   4.510 -0.2193 -0.2274  0.1857
 3095TIP3    H2 9229   5.468   1.407   4.501 -0.1597 -0.2445 -0.8901
 3096TIP3   OH2 9230   6.125   0.568   2.888  0.0855  0.0538  1.3114
 3096TIP3    H1 9231   6.051   0.548   2.831 -0.1057  0.4733  1.4087
 3096TIP3    H2 9232   6.089   0.562   2.977  0.0522  0.7029  1.3468
 3097TIP3   OH2 9233   0.999   4.171   2.375  0.8684  0.0233 -0.6202
 3097TIP3    H1 9234   1.061   4.237   2.344  1.2099 -0.4142 -0.8782
 3097TIP3    H2 9235   1.050   4.117   2.437  0.5907  0.0090 -0.4016
 3098TIP3   OH2 9236   0.387   2.120   1.230 -1.0643 -0.7456 -0.4350
 3098TIP3    H1 9237   0.312   2.071   1.196 -1.3934  0.4989 -1.5189
 3098TIP3    H2 9238   0.445   2.131   1.154 -0.5809 -0.2256  0.0043
 3099TIP3   OH2 9239   8.140   3.502   2.643 -0.5949 -0.7072  0.5321
 3099TIP3    H1 9240   8.063   3.532   2.595 -0.7459 -0.7256  0.7605
 3099TIP3    H2 9241   8.115   3.511   2.735  0.0942  0.4039  0.6195
 3100TIP3   OH2 9242   0.111   0.342   4.091 -0.3474 -0.4233  0.1554
 3100TIP3    H1 9243   0.106   0.302   4.004  0.6599  1.6986 -0.9099
 3100TIP3    H2 9244   0.077   0.430   4.079 -1.7549 -0.6309  2.2981
 3101TIP3   OH2 9245   7.269   0.172   2.624 -0.0493 -0.0807 -0.0587
 3101TIP3    H1 9246   7.281   0.263   2.651  0.9674  0.2784 -1.6399
 3101TIP3    H2 9247   7.251   0.125   2.705  2.7727  0.9650  1.2702
 3102TIP3   OH2 9248   0.200   0.671   2.987 -0.4788  0.0233  0.1275
 3102TIP3    H1 9249   0.190   0.766   2.986  1.4207  0.2487  0.3807
 3102TIP3    H2 9250   0.294   0.657   2.992 -0.7982 -1.8750  1.4713
 3103TIP3   OH2 9251   7.489   5.211   3.903 -0.4689  0.6129 -0.6534
 3103TIP3    H1 9252   7.499   5.186   3.811  1.5694 -0.4293 -0.2026
 3103TIP3    H2 9253   7.568   5.262   3.922 -0.6016  0.3495  0.6510
 3104TIP3   OH2 9254   5.831   2.338   2.522  0.5697  0.0998  0.6376
 3104TIP3    H1 9255   5.871   2.365   2.439  1.9458  0.0400  1.2699
 3104TIP3    H2 9256   5.833   2.242   2.519  0.1712  0.0940  0.5307
 3105TIP3   OH2 9257   7.230   2.409   1.645 -0.0225  0.1112  0.3898
 3105TIP3    H1 9258   7.313   2.454   1.627 -0.4634  1.5568  1.8196
 3105TIP3    H2 9259   7.223   2.408   1.740 -1.8669  0.4180  0.2797
 3106TIP3   OH2 9260   5.780   1.863   0.667 -0.5918 -0.1226  0.2187
 3106TIP3    H1 9261   5.816   1.951   0.663  0.1562 -0.3297  1.9192
 3106TIP3    H2 9262   5.829   1.814   0.600  1.3380 -0.0498  1.5378
 3107TIP3   OH2 9263   6.767   2.720   2.593  0.2564  0.3103  0.4575
 3107TIP3    H1 9264   6.753   2.627   2.576  0.6054  0.2220  0.6552
 3107TIP3    H2 9265   6.685   2.750   2.633 -0.1617  0.2739 -0.3566
 3108TIP3   OH2 9266   7.166   2.961   1.369  0.2865  0.2129 -0.3157
 3108TIP3    H1 9267   7.113   2.999   1.299 -0.5900  3.3486  1.9794
 3108TIP3    H2 9268   7.118   2.882   1.395 -2.2456  1.9189  0.3623
 3109TIP3   OH2 9269   5.369   7.435   0.484 -0.0452  0.1600  0.4025
 3109TIP3    H1 9270   5.355   7.348   0.445  0.7082 -0.2262  0.9885
 3109TIP3    H2 9271   5.280   7.469   0.498 -0.3777 -1.1950  1.6927
 3110TIP3   OH2 9272   6.845   3.120   1.488 -0.2388 -0.6102 -0.3873
 3110TIP3    H1 9273   6.761   3.164   1.478 -0.4277 -0.4993  1.4249
 3110TIP3    H2 9274   6.847   3.055   1.418 -1.9985 -0.8778 -0.2053
 3111TIP3   OH2 9275   0.596   3.677   1.781 -0.2600  0.6487  0.1651
 3111TIP3    H1 9276   0.623   3.585   1.780 -0.2139  0.6541  0.7273
 3111TIP3    H2 9277   0.508   3.677   1.742 -0.0145  0.4471 -0.3872
 3112TIP3   OH2 9278   6.345   4.099   2.072  0.0205 -0.3354 -0.0624
 3112TIP3    H1 9279   6.357   4.030   2.007  0.1523 -0.9359  0.5995
 3112TIP3    H2 9280   6.402   4.075   2.145  0.4542  0.7335 -0.0336
 3113TIP3   OH2 9281   5.349   3.537   1.447  0.1768  0.4159  0.0024
 3113TIP3    H1 9282   5.429   3.487   1.461  2.0145  2.6198 -2.0752
 3113TIP3    H2 9283   5.328   3.524   1.354 -0.2588  2.0798 -0.1527
 3114TIP3   OH2 9284   7.228   1.845   1.714  0.3991  0.1303  0.2470
 3114TIP3    H1 9285   7.186   1.923   1.750 -0.7861 -0.7271  0.7749
 3114TIP3    H2 9286   7.163   1.809   1.652 -0.3590 -2.1053  2.2673
 3115TIP3   OH2 9287   0.384   3.110   3.093 -0.2711  0.3362  0.2229
 3115TIP3    H1 9288   0.384   3.073   3.004 -3.1979 -2.0138  1.0973
 3115TIP3    H2 9289   0.448   3.058   3.141 -0.1620  0.2590 -0.0053
 3116TIP3   OH2 9290   7.663   1.963   2.364 -0.2678  0.0897 -0.3057
 3116TIP3    H1 9291   7.587   1.966   2.305 -0.0323  1.6830 -0.5685
 3116TIP3    H2 9292   7.730   2.016   2.320  0.2858  0.3967  0.8654
 3117TIP3   OH2 9293   7.447   2.500   0.875 -0.3753 -0.7830 -0.2890
 3117TIP3    H1 9294   7.398   2.482   0.955  1.2287 -0.9971  0.6696
 3117TIP3    H2 9295   7.396   2.568   0.831 -1.5066 -0.9787  0.6922
 3118TIP3   OH2 9296   5.524   3.254   1.872  0.4857  0.6845 -0.2560
 3118TIP3    H1 9297   5.503   3.334   1.822  0.6888  0.8182 -0.1308
 3118TIP3    H2 9298   5.601   3.278   1.923  0.7542  0.2982 -0.4794
 3119TIP3   OH2 9299   6.980   1.673   1.585 -0.3274  0.1153 -0.3460
 3119TIP3    H1 9300   7.015   1.609   1.646  0.6989 -0.6625 -1.7289
 3119TIP3    H2 9301   6.887   1.651   1.577 -0.6475  0.6995  1.4930
 3120TIP3   OH2 9302   6.999   1.788   3.324  0.2701 -0.2616  0.5347
 3120TIP3    H1 9303   7.016   1.725   3.254  0.7291  0.3251  0.1061
 3120TIP3    H2 9304   6.983   1.871   3.279  0.3447  0.0753  1.1130
 3121TIP3   OH2 9305   6.098   2.292   1.959 -0.2074 -0.1415 -0.6102
 3121TIP3    H1 9306   6.008   2.262   1.944 -0.9015  0.2645  2.4243
 3121TIP3    H2 9307   6.109   2.365   1.898 -2.4833  0.8045  0.0276
 3122TIP3   OH2 9308   0.513   2.186   0.275 -0.0924  0.3751  0.1693
 3122TIP3    H1 9309   0.518   2.254   0.208  0.9849 -0.4122 -0.5754
 3122TIP3    H2 9310   0.588   2.203   0.332  0.3449 -0.3422 -0.1828
 3123TIP3   OH2 9311   7.277   2.052   2.899  0.2371 -0.0884 -0.5444
 3123TIP3    H1 9312   7.349   2.105   2.863  0.5331 -0.5134 -0.5859
 3123TIP3    H2 9313   7.271   2.078   2.990  0.2266  0.1877 -0.6238
 3124TIP3   OH2 9314   5.651   2.331   1.810 -0.1462 -0.0766 -0.0890
 3124TIP3    H1 9315   5.709   2.403   1.788 -1.6026  0.8675 -0.9287
 3124TIP3    H2 9316   5.588   2.328   1.738 -1.3914 -0.8091  0.9992
 3125TIP3   OH2 9317   6.000   1.397   2.495 -0.3382  0.4041  0.0397
 3125TIP3    H1 9318   5.910   1.431   2.495  0.1598  1.7415  0.0128
 3125TIP3    H2 9319   5.996   1.320   2.552 -1.2511  1.1064  0.9450
 3126TIP3   OH2 9320   6.312   3.846   1.991 -0.0237 -0.1284  0.0707
 3126TIP3    H1 9321   6.288   3.787   2.064 -1.9902 -0.3540 -0.7355
 3126TIP3    H2 9322   6.310   3.790   1.914 -1.8964  0.9796 -0.7052
 3127TIP3   OH2 9323   6.090   4.607   1.570  0.0669  0.9603  0.2606
 3127TIP3    H1 9324   6.077   4.702   1.567 -0.8312  0.8276 -0.3888
 3127TIP3    H2 9325   6.138   4.587   1.490 -0.7508  0.7275 -0.1776
 3128TIP3   OH2 9326   6.750   3.703   2.943  0.0021  0.1898 -0.4603
 3128TIP3    H1 9327   6.767   3.766   2.873  0.2074 -1.4926 -1.9644
 3128TIP3    H2 9328   6.837   3.669   2.966  0.0086  1.2204  1.1012
 3129TIP3   OH2 9329   7.068   3.178   2.062 -0.0634  0.0945 -0.2763
 3129TIP3    H1 9330   6.988   3.214   2.101  0.2627  1.0826 -0.4898
 3129TIP3    H2 9331   7.082   3.232   1.984  1.4828  0.7325  0.4274
 3130TIP3   OH2 9332   6.856   3.704   3.401 -0.0291  0.1095 -0.1046
 3130TIP3    H1 9333   6.773   3.676   3.440 -0.7587  1.4768 -0.6361
 3130TIP3    H2 9334   6.922   3.650   3.444 -1.3236 -2.0156 -0.7286
 3131TIP3   OH2 9335   6.978   3.451   0.852  0.0492  0.3264  0.2577
 3131TIP3    H1 9336   6.910   3.518   0.843 -1.0775 -0.5230  2.2197
 3131TIP3    H2 9337   7.030   3.479   0.927 -0.7727 -1.2519  1.4459
 3132TIP3   OH2 9338   7.933   3.735   1.672 -0.1907  0.7049 -0.2131
 3132TIP3    H1 9339   7.928   3.734   1.768 -0.9900 -1.2837 -0.2481
 3132TIP3    H2 9340   7.842   3.747   1.645  0.0160  1.0866 -0.7293
 3133TIP3   OH2 9341   8.474   3.198   2.775 -0.6064 -0.0529 -0.1270
 3133TIP3    H1 9342   8.386   3.164   2.794  0.4651 -2.6830  0.2941
 3133TIP3    H2 9343   8.519   3.196   2.859  0.3244 -0.1343 -0.6284
 3134TIP3   OH2 9344   6.575   4.144   2.315 -0.0829  0.0116  0.2953
 3134TIP3    H1 9345   6.495   4.133   2.367  0.2053  1.6395  1.1129
 3134TIP3    H2 9346   6.601   4.055   2.291  0.2667 -0.8610  3.6820
 3135TIP3   OH2 9347   6.983   0.648   1.711  0.2640  0.1804  0.2357
 3135TIP3    H1 9348   6.989   0.720   1.774 -0.3273  0.6830 -0.2764
 3135TIP3    H2 9349   7.025   0.574   1.755  1.0226  0.8825  0.7074
 3136TIP3   OH2 9350   8.004   0.898   4.347  0.2836  0.0625 -0.1908
 3136TIP3    H1 9351   8.077   0.836   4.348  1.0128  0.9116  1.5456
 3136TIP3    H2 9352   7.969   0.892   4.259  2.5629 -0.2463 -1.1051
 3137TIP3   OH2 9353   6.840   0.252   0.685  0.5522  0.1138  0.6233
 3137TIP3    H1 9354   6.836   0.270   0.591  2.7982 -1.0863  0.2556
 3137TIP3    H2 9355   6.779   0.314   0.724  0.6068  1.5588 -1.5103
 3138TIP3   OH2 9356   7.382   4.313   2.448  0.3359 -0.1881 -0.0516
 3138TIP3    H1 9357   7.331   4.393   2.459  0.6117  0.1757 -1.3463
 3138TIP3    H2 9358   7.423   4.299   2.534  0.5731  1.2558  0.0854
 3139TIP3   OH2 9359   5.316   7.642   2.019 -0.3860  0.1715 -0.1810
 3139TIP3    H1 9360   5.264   7.638   1.939  0.7424 -0.3008 -0.9080
 3139TIP3    H2 9361   5.397   7.687   1.993  0.3550 -0.7567  0.4792
 3140TIP3   OH2 9362   6.842   3.576   4.112  0.1480  0.1293 -0.0358
 3140TIP3    H1 9363   6.916   3.613   4.160 -0.1815 -0.9487  1.3169
 3140TIP3    H2 9364   6.765   3.614   4.154 -0.1196  0.0290 -0.4327
 3141TIP3   OH2 9365   4.996   3.503   1.051  0.3673  0.2163  0.1443
 3141TIP3    H1 9366   5.034   3.553   0.979 -0.8780  0.0244 -0.6593
 3141TIP3    H2 9367   4.938   3.440   1.009 -1.3096  0.8958  1.3668
 3142TIP3   OH2 9368   6.556   1.364   1.219 -0.6775 -0.2400 -0.2023
 3142TIP3    H1 9369   6.481   1.392   1.271  0.5583  2.4172  0.2594
 3142TIP3    H2 9370   6.522   1.352   1.131 -1.8942 -0.4368  0.2786
 3143TIP3   OH2 9371   5.032   2.307   1.104 -0.0321 -0.3191 -0.2539
 3143TIP3    H1 9372   4.938   2.292   1.118  0.0425 -0.7309 -0.1829
 3143TIP3    H2 9373   5.036   2.392   1.060 -0.2548  1.1292  2.3912
 3144TIP3   OH2 9374   7.616   3.310   1.887 -0.1359  0.1174  0.1011
 3144TIP3    H1 9375   7.696   3.263   1.911 -0.7947 -1.0780 -0.0138
 3144TIP3    H2 9376   7.627   3.332   1.795  0.6866  1.2597  0.4500
 3145TIP3   OH2 9377   7.675   2.001   1.826 -0.0649  0.1173 -0.1419
 3145TIP3    H1 9378   7.597   1.958   1.861  0.4932 -0.4101  0.4741
 3145TIP3    H2 9379   7.643   2.052   1.752 -1.0121 -0.0100  0.1718
 3146TIP3   OH2 9380   7.395   2.344   3.339 -0.0780 -0.3066 -0.3974
 3146TIP3    H1 9381   7.442   2.337   3.255  0.3629  0.9258 -0.2645
 3146TIP3    H2 9382   7.326   2.408   3.322 -0.3110 -0.4482  0.0346
 3147TIP3   OH2 9383   0.178   2.967   2.198  0.0791 -0.1976 -0.3961
 3147TIP3    H1 9384   0.103   2.910   2.216 -0.1271  0.1698 -0.0800
 3147TIP3    H2 9385   0.163   3.000   2.110 -1.1510  1.4252  0.3878
 3148TIP3   OH2 9386   7.993   1.540   3.900 -0.6634 -0.2475 -1.0221
 3148TIP3    H1 9387   7.954   1.618   3.862 -1.8420  0.2165  1.0385
 3148TIP3    H2 9388   7.943   1.467   3.863 -2.2876  0.2395  0.1845
 3149TIP3   OH2 9389   6.634   1.006   0.871  0.5110  0.0565  0.2136
 3149TIP3    H1 9390   6.671   0.958   0.798 -1.1826 -1.0261  0.0552
 3149TIP3    H2 9391   6.540   1.009   0.854 -0.0159 -0.8307  2.6700
 3150TIP3   OH2 9392   0.585   0.039   3.814  0.1211  0.3485 -0.1967
 3150TIP3    H1 9393   0.548  -0.037   3.858 -0.2806  1.8957  2.2264
 3150TIP3    H2 9394   0.672   0.048   3.853  2.2785 -1.8596 -4.1518
 3151TIP3   OH2 9395   7.129   3.811   2.280 -0.5951  0.3976 -0.0335
 3151TIP3    H1 9396   7.139   3.723   2.317 -1.4009  0.1824 -0.3140
 3151TIP3    H2 9397   7.181   3.810   2.200 -1.0742 -0.0181 -0.3461
 3152TIP3   OH2 9398   5.490   2.976   2.763  0.0854  0.1001  0.0875
 3152TIP3    H1 9399   5.399   2.964   2.738 -0.1586  1.1788  0.4197
 3152TIP3    H2 9400   5.529   2.889   2.755 -0.5994 -0.0710 -1.5711
 3153TIP3   OH2 9401   5.113   5.079   0.315  0.5192  0.2946  0.3806
 3153TIP3    H1 9402   5.070   4.995   0.301  0.8347  0.5197 -2.3042
 3153TIP3    H2 9403   5.205   5.057   0.325  0.6030  0.3069 -0.3305
 3154TIP3   OH2 9404   7.117   2.736   2.416  0.0669  0.5652 -0.1569
 3154TIP3    H1 9405   7.142   2.696   2.499  1.0488 -2.1749 -1.6709
 3154TIP3    H2 9406   7.184   2.802   2.400  0.5999  0.2183  0.6244
 3155TIP3   OH2 9407   6.721   2.447   2.576 -0.1168 -0.9169 -0.2481
 3155TIP3    H1 9408   6.687   2.424   2.490  1.0912 -0.6174 -0.8067
 3155TIP3    H2 9409   6.800   2.394   2.587 -0.0545 -0.6757  0.5186
 3156TIP3   OH2 9410   1.671   4.327   1.010 -0.0746  0.3343  0.0866
 3156TIP3    H1 9411   1.668   4.417   0.977 -1.3292 -0.2319 -1.4518
 3156TIP3    H2 9412   1.708   4.334   1.097 -2.6202  2.6783  1.0476
 3157TIP3   OH2 9413   8.465   3.375   2.145  0.5179  0.4199 -0.0340
 3157TIP3    H1 9414   8.425   3.442   2.091  0.2832 -0.1366 -0.5570
 3157TIP3    H2 9415   8.473   3.415   2.232 -0.9787  0.6074  0.0229
 3158TIP3   OH2 9416   0.521   2.777   0.444 -0.2948 -0.1042  0.0190
 3158TIP3    H1 9417   0.519   2.844   0.512  0.2968  1.2176 -1.2313
 3158TIP3    H2 9418   0.492   2.697   0.487 -1.5008  1.0705  1.4122
 3159TIP3   OH2 9419   7.803   2.425   2.338 -0.0048  0.1700 -0.7777
 3159TIP3    H1 9420   7.720   2.471   2.328  0.1687  0.5332 -0.5393
 3159TIP3    H2 9421   7.852   2.476   2.403 -0.1736 -0.8400  0.1696
 3160TIP3   OH2 9422  -0.014   3.533   2.969  0.2455 -0.4792 -0.4340
 3160TIP3    H1 9423  -0.015   3.499   2.880 -0.0943  1.5979 -1.2512
 3160TIP3    H2 9424   0.058   3.596   2.971 -0.2427  0.0748  0.5152
 3161TIP3   OH2 9425   6.798   2.812   2.012  0.0865  0.0365  0.0254
 3161TIP3    H1 9426   6.797   2.846   2.102  0.7504  1.8063 -0.6169
 3161TIP3    H2 9427   6.726   2.858   1.968 -1.3851 -2.1239  0.0819
 3162TIP3   OH2 9428   7.464   0.200   4.250 -0.1098 -0.4996 -0.2928
 3162TIP3    H1 9429   7.422   0.120   4.281 -0.6081 -0.4790 -0.9102
 3162TIP3    H2 9430   7.505   0.237   4.328  2.0340 -2.4990 -0.4174
 3163TIP3   OH2 9431   8.292   1.300   2.182 -0.3623 -0.3178  0.1946
 3163TIP3    H1 9432   8.198   1.315   2.172 -0.2747  0.2257  0.1275
 3163TIP3    H2 9433   8.299   1.219   2.232 -0.8595 -0.6123 -0.2121
 3164TIP3   OH2 9434   6.733   3.083   2.218 -0.6493 -0.0026 -0.1545
 3164TIP3    H1 9435   6.797   3.124   2.160 -1.5562  0.6890 -0.6728
 3164TIP3    H2 9436   6.781   3.010   2.258  0.8499  1.2768  0.4518
 3165TIP3   OH2 9437   6.515   0.457   2.140 -0.1717 -0.4786 -0.3954
 3165TIP3    H1 9438   6.526   0.552   2.148  1.3771 -0.7013  0.1060
 3165TIP3    H2 9439   6.420   0.445   2.136 -0.4078  1.0337  0.2851
 3166TIP3   OH2 9440   7.128   2.691   0.637  0.2076  0.8487  0.1206
 3166TIP3    H1 9441   7.105   2.634   0.711  0.5664  0.6611  0.0909
 3166TIP3    H2 9442   7.218   2.719   0.656  0.5496  0.2387 -0.5941
 3167TIP3   OH2 9443   8.103   2.110   3.903 -0.0251  0.8179 -0.1173
 3167TIP3    H1 9444   8.142   2.047   3.843  1.1825  0.3860  1.1095
 3167TIP3    H2 9445   8.121   2.075   3.990 -2.6315  0.9079  0.5078
 3168TIP3   OH2 9446   6.314   7.563   1.534 -0.7443 -0.8860 -0.0715
 3168TIP3    H1 9447   6.358   7.482   1.510  2.5589  0.1264  2.2526
 3168TIP3    H2 9448   6.365   7.598   1.607 -1.4545  3.7915 -1.6124
 3169TIP3   OH2 9449   8.438   1.357   1.945  0.4656  0.2510 -0.1857
 3169TIP3    H1 9450   8.364   1.335   2.002 -0.1117  0.0104 -1.0337
 3169TIP3    H2 9451   8.453   1.278   1.894  2.2434 -0.2083  0.9998
 3170TIP3   OH2 9452   1.638   4.916   1.212  0.1970  0.1069  0.3139
 3170TIP3    H1 9453   1.685   4.997   1.193 -0.3382  0.2687 -0.3683
 3170TIP3    H2 9454   1.608   4.885   1.127  0.6119 -0.9510  0.5409
 3171TIP3   OH2 9455   8.025   2.648   5.643 -0.1295  0.1494 -0.3958
 3171TIP3    H1 9456   7.940   2.691   5.646  0.0539  0.4153  1.7754
 3171TIP3    H2 9457   8.018   2.585   5.571 -1.6582  1.1542 -1.1492
 3172TIP3   OH2 9458   7.989   2.466   2.928 -0.1842 -0.3459 -0.0640
 3172TIP3    H1 9459   8.069   2.414   2.929  0.3428  0.4126  3.2509
 3172TIP3    H2 9460   8.017   2.552   2.897  0.1846 -0.2450  0.5398
 3173TIP3   OH2 9461   7.771   4.446   3.926 -0.5126  0.2773 -0.5255
 3173TIP3    H1 9462   7.770   4.352   3.912  0.2463  0.2913 -0.6628
 3173TIP3    H2 9463   7.848   4.462   3.980  0.4978  1.0426 -2.1364
 3174TIP3   OH2 9464   2.515   6.449   2.292 -0.1792 -0.5045 -0.1340
 3174TIP3    H1 9465   2.591   6.499   2.322  0.7127 -2.4586  0.9638
 3174TIP3    H2 9466   2.443   6.481   2.346  0.0400  0.6701 -0.5107
 3175TIP3   OH2 9467   7.936   1.897   2.906 -0.4854  0.0567 -0.0138
 3175TIP3    H1 9468   7.946   1.950   2.827  0.3763  0.7062  0.5260
 3175TIP3    H2 9469   8.002   1.829   2.897 -0.5551 -0.0181  0.0371
 3176TIP3   OH2 9470   6.992   3.204   2.496 -0.0863  0.0754  0.0736
 3176TIP3    H1 9471   6.919   3.263   2.514 -1.0216 -0.6398 -1.3038
 3176TIP3    H2 9472   6.969   3.123   2.540  0.3659  0.1690  0.4874
 3177TIP3   OH2 9473   1.282   3.043   3.774  0.7297 -0.2388 -0.2610
 3177TIP3    H1 9474   1.313   3.112   3.833  2.4261  1.5391 -3.1212
 3177TIP3    H2 9475   1.187   3.052   3.774  0.8835  1.5343  0.0783
 3178TIP3   OH2 9476   3.844   1.489   3.676 -0.7056  0.2339 -0.5257
 3178TIP3    H1 9477   3.876   1.404   3.646  0.4450  0.5318 -0.1685
 3178TIP3    H2 9478   3.751   1.475   3.692 -0.1038 -1.5794  1.6984
 3179TIP3   OH2 9479   0.244   4.633   4.392  0.1177  0.7399 -0.0819
 3179TIP3    H1 9480   0.297   4.625   4.471  1.2796 -1.8321 -1.0616
 3179TIP3    H2 9481   0.154   4.627   4.423  0.5589 -0.1592  1.0598
 3180TIP3   OH2 9482   1.610   0.856   3.197 -0.2036 -0.1269 -0.6731
 3180TIP3    H1 9483   1.530   0.891   3.159  1.2646  0.9907 -2.8407
 3180TIP3    H2 9484   1.659   0.933   3.227  0.9990 -0.6270 -1.2930
 3181TIP3   OH2 9485   8.250   3.384   4.057  0.6045  0.2816  0.3860
 3181TIP3    H1 9486   8.287   3.450   4.116  0.1825  0.1315  0.8207
 3181TIP3    H2 9487   8.234   3.431   3.975 -0.8568  1.0341  1.0749
 3182TIP3   OH2 9488   7.544   3.952   3.407 -0.5419 -0.1112  0.7144
 3182TIP3    H1 9489   7.568   3.940   3.499  1.1582 -0.6641  0.2343
 3182TIP3    H2 9490   7.617   4.004   3.371 -1.0405 -0.1722 -0.3817
 3183TIP3   OH2 9491   1.202   3.002   3.471  0.3619 -0.0564  0.3090
 3183TIP3    H1 9492   1.148   3.070   3.511  0.0172 -0.6979  0.9337
 3183TIP3    H2 9493   1.263   3.050   3.415  0.2732  0.7876  0.9255
 3184TIP3   OH2 9494   7.677   4.270   3.578  0.1585  0.0349  0.1371
 3184TIP3    H1 9495   7.730   4.235   3.650 -1.3260 -1.1636  0.6885
 3184TIP3    H2 9496   7.711   4.227   3.500 -1.5121 -2.5652  0.7801
 3185TIP3   OH2 9497   0.360   2.736   4.725  0.0169 -0.3206 -0.6223
 3185TIP3    H1 9498   0.391   2.649   4.749  2.1035  0.2250 -1.2720
 3185TIP3    H2 9499   0.288   2.719   4.664 -1.3398 -1.5994  1.2801
 3186TIP3   OH2 9500   0.652   3.511   3.660 -0.0597 -0.0265  0.1464
 3186TIP3    H1 9501   0.708   3.518   3.583  0.0637 -2.3268  0.0110
 3186TIP3    H2 9502   0.705   3.465   3.725 -1.5312 -1.6945  0.2187
 3187TIP3   OH2 9503   0.019   3.798   4.168 -0.4596  0.5951 -0.2847
 3187TIP3    H1 9504   0.114   3.797   4.154 -0.3201  1.3234  0.5085
 3187TIP3    H2 9505  -0.006   3.706   4.170  0.4680  0.3492  0.9093
 3188TIP3   OH2 9506   2.418   2.326   1.529 -0.2666 -0.3203 -0.2170
 3188TIP3    H1 9507   2.413   2.420   1.514  0.8903 -0.5761 -2.3047
 3188TIP3    H2 9508   2.327   2.299   1.543 -0.7584  0.8597 -1.1038
 3189TIP3   OH2 9509   0.852   4.030   4.272 -0.3660 -0.5067  0.3624
 3189TIP3    H1 9510   0.841   3.964   4.203 -1.8494 -0.2204  0.3209
 3189TIP3    H2 9511   0.912   4.094   4.234 -2.3579  0.4479 -1.2463
 3190TIP3   OH2 9512   1.664   3.568   3.344  0.2956 -0.2183  0.1208
 3190TIP3    H1 9513   1.738   3.602   3.293 -0.6925  0.1008 -1.1281
 3190TIP3    H2 9514   1.651   3.479   3.311  0.6583 -0.5737  0.9326
 3191TIP3   OH2 9515   0.574   3.138   1.940 -0.0147 -0.3871  0.0418
 3191TIP3    H1 9516   0.636   3.100   2.002  0.4678 -1.2161 -0.9490
 3191TIP3    H2 9517   0.554   3.067   1.879 -0.3440  0.4802 -0.8646
 3192TIP3   OH2 9518   1.623   0.408   4.156 -0.3210 -0.4135 -0.4000
 3192TIP3    H1 9519   1.553   0.473   4.161  0.3168  0.1045  3.8859
 3192TIP3    H2 9520   1.579   0.326   4.134 -1.8482  0.4537 -0.6118
 3193TIP3   OH2 9521   8.098   1.399   3.420  0.0491 -0.2541 -0.1436
 3193TIP3    H1 9522   8.147   1.450   3.484 -2.3295  0.2483  1.3674
 3193TIP3    H2 9523   8.006   1.414   3.443 -0.7686 -3.4147 -1.1129
 3194TIP3   OH2 9524   2.193   4.976   2.675  0.2484 -0.4307 -0.6542
 3194TIP3    H1 9525   2.184   4.998   2.583 -0.3409 -0.8215 -0.6930
 3194TIP3    H2 9526   2.280   4.937   2.682 -0.4899 -2.3380 -1.4536
 3195TIP3   OH2 9527   0.601   2.490   4.932  0.1338 -0.0012 -0.1009
 3195TIP3    H1 9528   0.688   2.492   4.891 -0.0814  0.7386 -0.5248
 3195TIP3    H2 9529   0.618   2.463   5.022  0.7872 -0.0159 -0.2233
 3196TIP3   OH2 9530   8.161   3.439   4.371  1.0246 -0.5824  0.1824
 3196TIP3    H1 9531   8.153   3.362   4.315  2.4189 -1.0169  0.5365
 3196TIP3    H2 9532   8.229   3.414   4.435 -0.5965 -0.1482  2.1272
 3197TIP3   OH2 9533   0.274   2.352   4.330  0.6979  0.2107 -0.3910
 3197TIP3    H1 9534   0.260   2.257   4.329  1.9308  0.0165  0.0895
 3197TIP3    H2 9535   0.270   2.376   4.423 -1.0451  0.8613 -0.6133
 3198TIP3   OH2 9536   8.149   3.415   2.044  0.1332  0.2435 -0.0286
 3198TIP3    H1 9537   8.106   3.333   2.070  0.6460  0.0708  0.2800
 3198TIP3    H2 9538   8.139   3.472   2.120 -1.3986  0.9460 -0.7184
 3199TIP3   OH2 9539   0.783   1.207   4.158 -0.2103 -0.3374  0.4866
 3199TIP3    H1 9540   0.808   1.282   4.103 -2.9573  0.9768  0.9665
 3199TIP3    H2 9541   0.772   1.135   4.097 -0.3450  0.3626 -0.3194
 3200TIP3   OH2 9542   7.915   4.880   3.240  0.6276  0.6482  0.2829
 3200TIP3    H1 9543   7.849   4.915   3.300 -0.1153 -1.1614  0.5455
 3200TIP3    H2 9544   7.986   4.851   3.297  0.1304 -0.6256  0.2716
 3201TIP3   OH2 9545   3.276   1.780   4.197  0.0481  0.5330 -0.5683
 3201TIP3    H1 9546   3.242   1.861   4.160  1.3573  1.2908 -0.1771
 3201TIP3    H2 9547   3.205   1.746   4.251 -0.8068  0.9806 -1.4071
 3202TIP3   OH2 9548   7.946   3.930   3.185  0.3002  0.3333  0.0740
 3202TIP3    H1 9549   8.032   3.887   3.184  0.9291  1.5626  0.8087
 3202TIP3    H2 9550   7.958   4.010   3.134 -0.7527 -0.0952 -0.8846
 3203TIP3   OH2 9551   1.313   3.792   3.218  0.0162 -0.0201  0.4095
 3203TIP3    H1 9552   1.221   3.795   3.243  0.1944 -0.7578  1.1937
 3203TIP3    H2 9553   1.323   3.862   3.154 -0.8845  0.6791  1.0136
 3204TIP3   OH2 9554   8.230   4.644   4.596  0.7523 -0.4319 -0.2043
 3204TIP3    H1 9555   8.163   4.593   4.641  0.2712  0.2043 -0.1898
 3204TIP3    H2 9556   8.218   4.733   4.629  1.1709 -0.1880 -0.7052
 3205TIP3   OH2 9557   1.245   2.993   1.752 -0.1159 -0.4860  0.3170
 3205TIP3    H1 9558   1.240   3.055   1.679 -0.1742 -3.4473 -2.3216
 3205TIP3    H2 9559   1.337   2.993   1.777 -0.1947  0.9609  0.6493
 3206TIP3   OH2 9560   6.855   4.312   5.450 -0.0397 -0.8066 -0.4064
 3206TIP3    H1 9561   6.823   4.353   5.370  0.5273  1.3416  0.4236
 3206TIP3    H2 9562   6.884   4.386   5.505  3.1741 -2.4494  0.2307
 3207TIP3   OH2 9563   1.665   2.187   2.820  0.1785  0.0763  0.0151
 3207TIP3    H1 9564   1.666   2.111   2.762  1.8333  0.9852 -1.2010
 3207TIP3    H2 9565   1.745   2.235   2.798 -0.4292  1.7473  1.3194
 3208TIP3   OH2 9566   7.965   3.434   4.974 -0.4840 -0.1176  0.0561
 3208TIP3    H1 9567   7.973   3.388   4.890 -0.1484 -0.9020  0.5104
 3208TIP3    H2 9568   7.873   3.427   4.997 -0.6429  0.4050 -0.4193
 3209TIP3   OH2 9569   7.952   2.829   3.115  0.5327 -0.2317 -0.0502
 3209TIP3    H1 9570   7.933   2.839   3.022  0.2809 -0.1252  0.0097
 3209TIP3    H2 9571   7.896   2.757   3.144 -1.2974  1.3526  0.5480
 3210TIP3   OH2 9572   0.779   4.486   4.969  0.6654 -0.0542  0.3365
 3210TIP3    H1 9573   0.762   4.538   4.890  0.1997  1.2470  1.2697
 3210TIP3    H2 9574   0.729   4.405   4.955 -1.8792  1.4160  0.5826
 3211TIP3   OH2 9575   2.798   1.410   4.263 -0.1483 -0.0457 -0.5743
 3211TIP3    H1 9576   2.792   1.319   4.293 -0.0306 -0.9369 -3.0805
 3211TIP3    H2 9577   2.784   1.404   4.168  1.6029  2.3551 -1.0224
 3212TIP3   OH2 9578   7.174   2.090   1.902  0.5260  0.0030 -0.3682
 3212TIP3    H1 9579   7.240   2.159   1.909  0.0497  0.6145 -1.7519
 3212TIP3    H2 9580   7.097   2.134   1.865 -0.7574 -0.6479  1.4499
 3213TIP3   OH2 9581   0.929   4.541   0.744  0.0285 -0.4497  0.2347
 3213TIP3    H1 9582   0.848   4.491   0.752  0.1700 -1.1532 -2.2206
 3213TIP3    H2 9583   0.997   4.483   0.777 -0.0997 -1.0470 -0.5258
 3214TIP3   OH2 9584   8.423   4.530   3.477  0.1564  0.2015  0.6264
 3214TIP3    H1 9585   8.333   4.546   3.504 -0.0923 -0.8505  0.4416
 3214TIP3    H2 9586   8.471   4.518   3.560 -0.8309 -4.2020  0.6540
 3215TIP3   OH2 9587   8.330   4.887   3.861  0.2189 -0.3968  0.4529
 3215TIP3    H1 9588   8.284   4.968   3.884  3.1297  1.0623  1.2804
 3215TIP3    H2 9589   8.279   4.818   3.904 -2.3589  0.9238 -0.3607
 3216TIP3   OH2 9590   7.513   5.533   4.035  0.4852  0.4304 -0.3904
 3216TIP3    H1 9591   7.426   5.574   4.034  1.0177  1.5760 -1.2279
 3216TIP3    H2 9592   7.574   5.606   4.035  1.4517 -0.3527 -1.3723
 3217TIP3   OH2 9593   8.112   2.477   5.847  0.0031  0.3214 -0.2443
 3217TIP3    H1 9594   8.046   2.503   5.911  1.1007 -0.1005  1.0871
 3217TIP3    H2 9595   8.090   2.525   5.767  0.0156  2.6875  1.1635
 3218TIP3   OH2 9596   7.324   3.135   1.867  0.4459 -0.1633  0.4951
 3218TIP3    H1 9597   7.339   3.224   1.898 -3.1393  0.8910 -0.6033
 3218TIP3    H2 9598   7.274   3.093   1.937  1.2630 -1.0222  0.5799
 3219TIP3   OH2 9599   2.196   4.300   2.448 -0.1308 -0.9214 -0.2338
 3219TIP3    H1 9600   2.170   4.392   2.450 -0.0014 -0.8485 -1.4497
 3219TIP3    H2 9601   2.195   4.277   2.355 -0.8058 -2.3297  0.1054
 3220TIP3   OH2 9602   2.049   2.298   3.877  0.4152 -0.3653 -0.0747
 3220TIP3    H1 9603   2.104   2.376   3.873 -0.5847  0.3237 -0.3535
 3220TIP3    H2 9604   1.990   2.314   3.950 -0.3836 -0.4681 -0.6948
 3221TIP3   OH2 9605   0.452   2.116   3.291 -0.0361  0.1035  0.1840
 3221TIP3    H1 9606   0.530   2.172   3.302 -0.6731  0.9074  0.6844
 3221TIP3    H2 9607   0.388   2.173   3.248 -1.6519  0.6360  3.1507
 3222TIP3   OH2 9608   0.688   3.131   5.156  0.0869  0.5913 -0.0001
 3222TIP3    H1 9609   0.775   3.155   5.187 -0.1919  0.6852  0.7264
 3222TIP3    H2 9610   0.703   3.091   5.071  1.0211 -1.1828  0.9762
 3223TIP3   OH2 9611   6.772   2.084   2.149  0.2035 -0.3108 -0.3142
 3223TIP3    H1 9612   6.774   2.031   2.228  2.5990 -0.2152 -0.2689
 3223TIP3    H2 9613   6.829   2.159   2.169  0.3142  0.0468 -1.8849
 3224TIP3   OH2 9614   0.459   3.026   4.083  0.0331 -0.0261 -0.2680
 3224TIP3    H1 9615   0.442   3.066   4.168 -0.0329 -1.5410  0.4474
 3224TIP3    H2 9616   0.540   3.067   4.053 -0.2163  0.8841  0.2884
 3225TIP3   OH2 9617   0.359   4.925   5.834 -0.9069 -0.6006 -0.2364
 3225TIP3    H1 9618   0.383   4.927   5.742  0.8248 -2.3505  0.1357
 3225TIP3    H2 9619   0.273   4.883   5.836 -1.8161  1.1492 -1.1717
 3226TIP3   OH2 9620   8.059   5.014   3.913 -0.4487  0.2661  0.0229
 3226TIP3    H1 9621   8.083   5.095   3.957  0.6670  0.2562 -0.5621
 3226TIP3    H2 9622   7.998   4.971   3.973  1.8377 -0.2468  2.0412
 3227TIP3   OH2 9623   7.640   7.799   2.189  0.4742  0.3816 -0.0951
 3227TIP3    H1 9624   7.660   7.795   2.282  1.0229  1.7100 -0.1384
 3227TIP3    H2 9625   7.722   7.776   2.145  0.0207 -0.9729 -0.2593
 3228TIP3   OH2 9626   0.890   2.918   3.135  0.1030 -0.4632  0.3522
 3228TIP3    H1 9627   0.818   2.928   3.073 -0.1127 -0.0315  0.6652
 3228TIP3    H2 9628   0.847   2.895   3.218  0.1775  1.5045  0.9617
 3229TIP3   OH2 9629   1.809   1.789   2.032  0.3033 -0.2504 -0.5247
 3229TIP3    H1 9630   1.745   1.773   1.963  0.6934  1.0809 -1.2096
 3229TIP3    H2 9631   1.892   1.798   1.986  0.9437 -1.6465  0.3359
 3230TIP3   OH2 9632   0.659   1.534   6.272 -0.1775  0.4947  0.2588
 3230TIP3    H1 9633   0.752   1.555   6.261  0.1329 -0.3513  1.2437
 3230TIP3    H2 9634   0.621   1.549   6.185  0.8794  0.8369 -0.1537
 3231TIP3   OH2 9635   0.320   3.659   1.711 -0.3632 -0.0951  0.2233
 3231TIP3    H1 9636   0.303   3.753   1.717  0.4443  0.1651 -1.2009
 3231TIP3    H2 9637   0.297   3.636   1.621 -3.7327 -1.9649  1.4740
 3232TIP3   OH2 9638   7.000   3.931   2.519  0.0847 -0.1934  0.2682
 3232TIP3    H1 9639   7.075   3.900   2.469 -0.4121 -0.8507 -0.0748
 3232TIP3    H2 9640   7.009   4.026   2.521  0.4317 -0.2107 -0.5505
 3233TIP3   OH2 9641   0.939   3.658   4.718 -0.0814 -0.3608  0.2679
 3233TIP3    H1 9642   0.894   3.676   4.635  1.8055 -0.9955 -0.9150
 3233TIP3    H2 9643   0.889   3.708   4.783 -0.7528  1.3145 -1.4676
 3234TIP3   OH2 9644   8.231   2.481   3.922  0.2991  0.1929 -0.1636
 3234TIP3    H1 9645   8.239   2.536   3.844 -1.2387  1.1417  0.3241
 3234TIP3    H2 9646   8.249   2.539   3.995  0.7306 -0.4507  0.2429
 3235TIP3   OH2 9647   2.837   2.100   3.467 -0.1904 -0.0364 -0.1051
 3235TIP3    H1 9648   2.885   2.018   3.478  0.6125  0.4930  0.3818
 3235TIP3    H2 9649   2.751   2.073   3.433 -0.6322 -1.2267  1.8832
 3236TIP3   OH2 9650   8.015   2.335   4.059  0.5188 -0.3554 -0.3349
 3236TIP3    H1 9651   7.992   2.259   4.006 -0.5256  0.6247 -1.3079
 3236TIP3    H2 9652   8.095   2.368   4.018  0.6644 -0.6014 -0.2525
 3237TIP3   OH2 9653   6.494   1.973   2.399 -0.0332  0.3619  0.3690
 3237TIP3    H1 9654   6.486   2.031   2.475  0.2699  1.0905 -0.1501
 3237TIP3    H2 9655   6.582   1.936   2.406  1.2345  2.9138 -1.3571
 3238TIP3   OH2 9656   0.217   4.975   4.318  0.5401  0.0346 -0.2962
 3238TIP3    H1 9657   0.162   4.988   4.241  1.5234 -1.2958 -1.2537
 3238TIP3    H2 9658   0.221   4.880   4.329  1.9256  0.1404  0.2629
 3239TIP3   OH2 9659   0.905   5.396   6.143 -0.3938 -0.5242  0.0964
 3239TIP3    H1 9660   0.881   5.326   6.083 -0.5165 -0.5748  0.2043
 3239TIP3    H2 9661   0.915   5.473   6.087 -2.2092 -0.1695  0.2224
 3240TIP3   OH2 9662   1.804   1.741   3.553 -0.1062 -0.1216 -0.0223
 3240TIP3    H1 9663   1.856   1.736   3.472  0.0143 -1.5516  0.1280
 3240TIP3    H2 9664   1.858   1.793   3.612 -0.3394  1.2216 -0.9609
 3241TIP3   OH2 9665   0.522   1.731   4.628 -0.2466  0.0193 -0.4370
 3241TIP3    H1 9666   0.427   1.737   4.642 -0.3646 -0.3265 -1.0603
 3241TIP3    H2 9667   0.533   1.656   4.571  0.5165 -0.6879  0.6164
 3242TIP3   OH2 9668   0.866   2.243   2.932  0.5558 -0.0856  0.0326
 3242TIP3    H1 9669   0.824   2.157   2.937  0.0209  0.0623 -1.7550
 3242TIP3    H2 9670   0.959   2.225   2.944  0.3166 -0.7496  1.0085
 3243TIP3   OH2 9671   6.979   4.040   2.191  0.0372  0.5299  0.2212
 3243TIP3    H1 9672   7.025   3.960   2.218 -0.7547  0.3100  0.9383
 3243TIP3    H2 9673   7.017   4.109   2.246 -0.9579  0.2307  1.3031
 3244TIP3   OH2 9674   7.767   3.878   1.248 -0.0341  0.0995  0.1946
 3244TIP3    H1 9675   7.684   3.834   1.264 -0.2733  0.5265  0.1394
 3244TIP3    H2 9676   7.747   3.971   1.258  0.5973  0.1621  0.8676
 3245TIP3   OH2 9677   1.260   3.904   4.918 -0.1559  0.4873  0.4258
 3245TIP3    H1 9678   1.233   3.971   4.855 -2.1674 -0.2783  0.4414
 3245TIP3    H2 9679   1.228   3.935   5.002 -1.2760 -0.5675  0.4068
 3246TIP3   OH2 9680   0.315   4.399   3.071 -0.0121 -0.0194  0.0031
 3246TIP3    H1 9681   0.385   4.334   3.062 -1.2161 -1.2449 -0.7480
 3246TIP3    H2 9682   0.297   4.427   2.981  0.5355  1.4084  0.3282
 3247TIP3   OH2 9683   3.842   4.585   1.419 -0.6555  0.3456 -0.3318
 3247TIP3    H1 9684   3.805   4.509   1.375 -1.6072  0.6602 -0.0972
 3247TIP3    H2 9685   3.779   4.606   1.489 -0.6027  1.5467 -0.6193
 3248TIP3   OH2 9686   8.291   2.942   3.536  0.1727 -1.0235 -0.7740
 3248TIP3    H1 9687   8.256   2.878   3.474 -0.0394 -1.1523 -0.5214
 3248TIP3    H2 9688   8.297   3.023   3.485 -0.6809 -0.9509 -0.7644
 3249TIP3   OH2 9689   7.934   3.441   1.867  0.0222 -0.1866 -0.0606
 3249TIP3    H1 9690   7.982   3.442   1.949 -0.5407  0.9359  0.2669
 3249TIP3    H2 9691   7.986   3.495   1.808  0.2182 -0.6582 -0.3207
 3250TIP3   OH2 9692   0.065   3.153   1.996 -0.2629  0.0967 -0.4903
 3250TIP3    H1 9693   0.079   3.239   2.037 -0.1767 -0.1615  0.0266
 3250TIP3    H2 9694  -0.009   3.116   2.044  1.2710 -1.1537  0.9428
 3251TIP3   OH2 9695   7.808   3.318   3.106 -0.9194  0.3937 -0.1252
 3251TIP3    H1 9696   7.850   3.242   3.145 -1.3143 -0.0005 -0.4692
 3251TIP3    H2 9697   7.759   3.283   3.032 -2.0677  0.8185  0.4350
 3252TIP3   OH2 9698   8.140   3.211   1.369 -0.5535 -0.1335 -0.1749
 3252TIP3    H1 9699   8.208   3.249   1.314 -0.0795  0.7322  1.0008
 3252TIP3    H2 9700   8.075   3.178   1.306 -0.1562  1.0673 -1.2435
 3253TIP3   OH2 9701   7.401   3.418   4.015  0.3343 -0.1374  0.5737
 3253TIP3    H1 9702   7.451   3.417   3.933 -1.2935  0.6520 -0.4664
 3253TIP3    H2 9703   7.466   3.402   4.083  1.7000 -0.9357 -0.8811
 3254TIP3   OH2 9704   2.711   1.348   4.009  0.3138  0.5185  0.0805
 3254TIP3    H1 9705   2.741   1.288   3.941  1.8480  1.4581 -0.0947
 3254TIP3    H2 9706   2.629   1.310   4.039 -0.3892  0.0607 -2.2726
 3255TIP3   OH2 9707   0.228   4.052   2.635 -0.1038  0.3956  0.4572
 3255TIP3    H1 9708   0.196   4.104   2.561 -0.3775 -0.3042  0.0865
 3255TIP3    H2 9709   0.243   3.965   2.599  2.8830  0.8361  0.4366
 3256TIP3   OH2 9710   0.859   5.055   2.690  0.4118  0.1347 -0.2140
 3256TIP3    H1 9711   0.924   5.010   2.637  0.3138  0.2643 -0.4466
 3256TIP3    H2 9712   0.891   5.145   2.696  1.6343 -0.3916  1.8897
 3257TIP3   OH2 9713   6.588   0.888   2.313 -0.3655 -0.0050  0.6754
 3257TIP3    H1 9714   6.541   0.961   2.355  0.8895  1.4329 -0.3680
 3257TIP3    H2 9715   6.676   0.922   2.298  0.2960 -1.8217  0.3417
 3258TIP3   OH2 9716   8.293   3.983   2.249 -0.4820  0.2267  0.5302
 3258TIP3    H1 9717   8.351   4.059   2.250 -0.6891  0.3836  0.7643
 3258TIP3    H2 9718   8.324   3.928   2.321  0.2897 -0.3848 -0.2493
 3259TIP3   OH2 9719   7.421   4.704   4.080 -0.0797 -0.3662  0.1894
 3259TIP3    H1 9720   7.492   4.645   4.106 -0.9082 -1.9737 -1.1093
 3259TIP3    H2 9721   7.457   4.752   4.005  0.5419  0.6700  1.1496
 3260TIP3   OH2 9722   7.527   2.934   0.275 -0.2339 -0.4631 -0.3715
 3260TIP3    H1 9723   7.571   2.931   0.190  0.2088 -0.0814 -0.1562
 3260TIP3    H2 9724   7.447   2.882   0.262  0.6407 -1.7767 -0.5352
 3261TIP3   OH2 9725   0.542   3.169   3.468 -0.3598  0.2995 -0.8677
 3261TIP3    H1 9726   0.463   3.130   3.506 -0.5345  1.1745 -0.3210
 3261TIP3    H2 9727   0.609   3.158   3.535  0.2003 -1.1516 -1.6418
 3262TIP3   OH2 9728   1.057   2.304   2.466  0.1743 -0.2158  0.5221
 3262TIP3    H1 9729   1.062   2.337   2.377 -0.6977  0.1719  0.6110
 3262TIP3    H2 9730   0.998   2.365   2.511  1.6903  0.4011  1.7119
 3263TIP3   OH2 9731   7.166   3.561   2.434 -0.6913 -0.2577 -0.0723
 3263TIP3    H1 9732   7.185   3.486   2.378  0.2612 -0.2007  0.1683
 3263TIP3    H2 9733   7.072   3.555   2.450 -1.1126  0.1189 -2.2453
 3264TIP3   OH2 9734   3.631   5.431   2.213  0.5064 -0.4047 -0.2898
 3264TIP3    H1 9735   3.642   5.496   2.143 -3.0702 -0.5419 -1.1082
 3264TIP3    H2 9736   3.658   5.477   2.292  0.3759  1.2921 -1.1923
 3265TIP3   OH2 9737   1.590   5.201   5.352 -0.2568  0.1116  0.7603
 3265TIP3    H1 9738   1.504   5.169   5.381 -0.5166  0.3603  0.2592
 3265TIP3    H2 9739   1.573   5.286   5.313  0.3157  0.4633  1.2567
 3266TIP3   OH2 9740   0.818   5.968   3.020  0.3328  0.4625 -0.6346
 3266TIP3    H1 9741   0.820   5.969   3.115 -0.9139  0.6727 -0.5969
 3266TIP3    H2 9742   0.736   6.012   2.997 -0.1173 -0.8944 -1.7575
 3267TIP3   OH2 9743   6.769   3.336   1.981  0.3712  0.0262 -0.5254
 3267TIP3    H1 9744   6.710   3.392   1.932  0.0614 -0.7395 -1.0390
 3267TIP3    H2 9745   6.814   3.284   1.914  0.9091 -0.0868 -0.0815
 3268TIP3   OH2 9746   7.096   2.711   2.123 -0.2436 -0.5817  0.1129
 3268TIP3    H1 9747   7.009   2.678   2.102 -0.1567 -0.5956 -0.2242
 3268TIP3    H2 9748   7.108   2.691   2.216 -1.3974  1.1968  0.6728
 3269TIP3   OH2 9749   7.953   3.886   2.614  0.1097 -0.0695  0.6394
 3269TIP3    H1 9750   7.880   3.948   2.610 -1.1085 -1.2636  2.9430
 3269TIP3    H2 9751   8.026   3.936   2.651 -0.1824  0.5756  0.3496
 3270TIP3   OH2 9752   8.385   3.568   3.355  0.0394 -0.2496  0.9191
 3270TIP3    H1 9753   8.387   3.604   3.444  0.2440 -1.6907  1.5204
 3270TIP3    H2 9754   8.477   3.546   3.337 -0.1837 -1.1565  0.8682
 3271TIP3   OH2 9755   2.532   1.018   2.160 -0.1123  0.1319  0.0254
 3271TIP3    H1 9756   2.468   1.021   2.230  0.6430 -0.0882  0.7335
 3271TIP3    H2 9757   2.486   0.978   2.087 -0.5826 -0.6309  0.7368
 3272TIP3   OH2 9758   6.869   5.263   1.921 -0.4277 -0.0263 -0.2600
 3272TIP3    H1 9759   6.907   5.254   2.008  1.1632 -1.3927 -1.0705
 3272TIP3    H2 9760   6.832   5.352   1.920  1.5242  0.8380  1.0255
 3273TIP3   OH2 9761   0.417   2.981   2.830 -0.2131 -0.0321 -0.5797
 3273TIP3    H1 9762   0.367   3.042   2.775  0.1108  0.2277 -0.5852
 3273TIP3    H2 9763   0.403   2.895   2.789 -0.9669 -0.0162 -0.3565
 3274TIP3   OH2 9764   0.883   3.875   1.406  0.6042 -0.1634 -0.1059
 3274TIP3    H1 9765   0.923   3.884   1.493  0.3661 -0.0832 -0.0021
 3274TIP3    H2 9766   0.945   3.823   1.356 -0.5991 -2.7641  1.0032
 3275TIP3   OH2 9767   1.357   3.286   3.083  0.2154  0.1752  0.6038
 3275TIP3    H1 9768   1.339   3.379   3.069 -1.8660 -0.4198 -0.9789
 3275TIP3    H2 9769   1.448   3.283   3.113  1.0173  2.5447 -1.4311
 3276TIP3   OH2 9770   6.837   4.929   1.089 -0.2950 -0.3233 -0.1743
 3276TIP3    H1 9771   6.800   4.936   1.177  1.2848 -1.1448  0.5715
 3276TIP3    H2 9772   6.875   5.015   1.072  0.1342 -0.4228  0.2793
 3277TIP3   OH2 9773   2.056   3.920   2.350 -0.0904  0.0553 -0.4960
 3277TIP3    H1 9774   2.109   3.976   2.292 -1.4215  0.0489 -1.7495
 3277TIP3    H2 9775   1.972   3.965   2.357 -0.9591 -1.4369 -1.0050
 3278TIP3   OH2 9776   1.046   2.269   4.581 -0.6790 -0.0444  0.1391
 3278TIP3    H1 9777   0.981   2.321   4.627 -3.5788 -0.5688 -3.1629
 3278TIP3    H2 9778   1.061   2.316   4.499  0.9290 -1.4791 -0.4311
 3279TIP3   OH2 9779   0.081   3.973   3.180  0.4117 -0.0383  0.2991
 3279TIP3    H1 9780   0.133   3.934   3.250 -1.6182 -1.8577  0.8690
 3279TIP3    H2 9781   0.097   3.917   3.105 -1.5812 -1.3061  0.7917
 3280TIP3   OH2 9782   6.505   3.763   2.614  0.1443  0.0776 -0.2039
 3280TIP3    H1 9783   6.601   3.757   2.612  0.1672  0.6086 -0.8524
 3280TIP3    H2 9784   6.488   3.840   2.668  0.1456  1.4240 -2.0957
 3281TIP3   OH2 9785   6.430   4.067   2.804 -0.2240  0.7533 -0.4646
 3281TIP3    H1 9786   6.363   4.128   2.835 -0.5973  0.6314 -1.0464
 3281TIP3    H2 9787   6.389   3.981   2.809  0.1396  0.5960 -0.1165
 3282TIP3   OH2 9788   8.203   2.909   3.258 -0.1380 -0.0084 -0.3716
 3282TIP3    H1 9789   8.202   2.814   3.247 -1.2296 -0.0227 -0.1691
 3282TIP3    H2 9790   8.141   2.941   3.192  1.4671  0.6938 -1.5797
 3283TIP3   OH2 9791   8.298   5.615   3.603 -0.0382  0.2179  0.4332
 3283TIP3    H1 9792   8.353   5.553   3.556 -1.4752  0.9415 -2.3734
 3283TIP3    H2 9793   8.226   5.563   3.638  1.0200 -0.3254  1.8192
 3284TIP3   OH2 9794   5.038   4.157   1.512 -0.6382 -0.4129  0.0767
 3284TIP3    H1 9795   5.049   4.134   1.419 -1.5409  1.8744 -0.6252
 3284TIP3    H2 9796   5.074   4.245   1.520 -1.4101 -0.2239  1.7085
 3285TIP3   OH2 9797   2.620   4.036   3.751  0.1928 -0.5645 -0.0134
 3285TIP3    H1 9798   2.712   4.012   3.762  0.2892 -0.6715 -0.9868
 3285TIP3    H2 9799   2.578   3.955   3.722  0.2068  0.0005 -1.6700
 3286TIP3   OH2 9800   1.023   3.644   1.603  0.1150 -0.7335  0.2144
 3286TIP3    H1 9801   0.939   3.654   1.558 -0.5422 -3.0433  0.8272
 3286TIP3    H2 9802   1.074   3.587   1.545  0.6953 -0.5647  0.5630
 3287TIP3   OH2 9803   2.202   3.288   1.519  0.1826 -0.2190 -0.4457
 3287TIP3    H1 9804   2.161   3.349   1.581  3.1904  2.5169 -1.0018
 3287TIP3    H2 9805   2.269   3.244   1.571  1.8977  1.2047 -1.4164
 3288TIP3   OH2 9806   7.704   4.758   4.738 -0.1708  0.3291 -0.5232
 3288TIP3    H1 9807   7.738   4.809   4.665 -0.4873 -2.6169 -2.8281
 3288TIP3    H2 9808   7.620   4.800   4.760  1.1646  2.8435 -0.0197
 3289TIP3   OH2 9809   0.177   4.260   3.277  0.1608  0.6022 -0.4331
 3289TIP3    H1 9810   0.209   4.286   3.191 -0.6729  0.0326 -0.9190
 3289TIP3    H2 9811   0.206   4.169   3.287  1.0882  0.9664  0.2997
 3290TIP3   OH2 9812   0.704   3.235   4.032 -0.1571 -0.3670  0.1700
 3290TIP3    H1 9813   0.763   3.283   3.974 -1.4152 -0.3017 -1.0828
 3290TIP3    H2 9814   0.665   3.303   4.088  0.7710 -0.3857  0.8522
 3291TIP3   OH2 9815   8.462   2.929   5.008 -0.2395  1.1577 -0.0804
 3291TIP3    H1 9816   8.473   2.951   5.100  0.4074  0.6448 -0.0296
 3291TIP3    H2 9817   8.369   2.910   4.999 -0.1230  0.1577  0.7054
 3292TIP3   OH2 9818   7.577   1.498   2.822 -0.3399 -0.0541 -0.0382
 3292TIP3    H1 9819   7.547   1.588   2.835 -0.4041 -0.0736 -0.0515
 3292TIP3    H2 9820   7.636   1.481   2.895  1.0980  0.6148 -1.0105
 3293TIP3   OH2 9821   7.701   4.012   5.150  0.0416 -0.6411 -0.5356
 3293TIP3    H1 9822   7.615   4.052   5.154  0.2228 -0.3091  0.1268
 3293TIP3    H2 9823   7.693   3.933   5.203 -0.2403 -1.3431 -1.6198
 3294TIP3   OH2 9824   7.505   1.677   5.146 -0.2415  0.7699 -0.1798
 3294TIP3    H1 9825   7.528   1.615   5.215 -0.4193  3.1859  2.1072
 3294TIP3    H2 9826   7.416   1.653   5.121 -0.7454  0.8224  1.5179
 3295TIP3   OH2 9827   1.441   4.632   5.570 -0.2869 -0.5877 -0.1697
 3295TIP3    H1 9828   1.403   4.544   5.572 -0.8998 -0.3445 -0.8538
 3295TIP3    H2 9829   1.479   4.640   5.483  2.2411 -1.1876  0.8241
 3296TIP3   OH2 9830   0.141   4.871   1.170 -0.0003 -0.7802  0.3711
 3296TIP3    H1 9831   0.100   4.804   1.224 -0.1410 -1.9506 -1.1621
 3296TIP3    H2 9832   0.199   4.822   1.111 -0.5938  0.3746 -1.1951
 3297TIP3   OH2 9833   0.815   4.583   3.686 -0.2953 -0.1466 -0.1615
 3297TIP3    H1 9834   0.806   4.496   3.647 -0.2963  0.6257 -1.9374
 3297TIP3    H2 9835   0.759   4.639   3.633  0.6188  1.1775  0.2382
 3298TIP3   OH2 9836   1.838   5.047   5.006  0.3882  0.7250 -0.4456
 3298TIP3    H1 9837   1.928   5.025   5.030  0.5291  1.3095 -0.4385
 3298TIP3    H2 9838   1.827   5.137   5.035 -0.1725  0.6845 -0.5312
 3299TIP3   OH2 9839   8.418   3.869   4.684  0.1135 -0.7898  0.1829
 3299TIP3    H1 9840   8.424   3.868   4.589 -1.1329  0.3618  0.0793
 3299TIP3    H2 9841   8.380   3.954   4.705 -1.9681 -2.0048  1.5489
 3300TIP3   OH2 9842   8.314   3.873   3.295 -0.2158 -0.2007  0.0661
 3300TIP3    H1 9843   8.409   3.858   3.294 -0.3824 -1.3136 -0.0242
 3300TIP3    H2 9844   8.277   3.789   3.322 -1.3415 -0.8194 -3.1314
 3301TIP3   OH2 9845   7.303   4.372   5.428  0.3360 -0.6870 -0.4022
 3301TIP3    H1 9846   7.381   4.415   5.462 -0.5188  2.1372 -1.8202
 3301TIP3    H2 9847   7.318   4.366   5.334 -0.7170 -1.1123 -0.5536
 3302TIP3   OH2 9848   5.023   3.430   3.913  0.0055  0.0592 -0.3311
 3302TIP3    H1 9849   5.046   3.342   3.881  1.2682  0.4628 -0.5488
 3302TIP3    H2 9850   5.101   3.460   3.959  0.0545  1.6102 -1.4173
 3303TIP3   OH2 9851   0.045   5.009   4.099 -0.0463  0.1770  0.2087
 3303TIP3    H1 9852  -0.047   4.987   4.083 -0.0853  1.2213 -1.1706
 3303TIP3    H2 9853   0.093   4.951   4.040  0.1635 -0.1480  0.6993
 3304TIP3   OH2 9854   8.285   4.382   3.052 -0.2121  0.0700 -0.3419
 3304TIP3    H1 9855   8.205   4.384   3.000  1.6247 -2.3530 -3.4512
 3304TIP3    H2 9856   8.333   4.460   3.024 -0.9406  0.8772  0.6383
 3305TIP3   OH2 9857   7.214   2.947   2.057  0.1058  0.3616 -0.3843
 3305TIP3    H1 9858   7.181   2.866   2.095  0.7038 -0.0217 -0.6710
 3305TIP3    H2 9859   7.175   3.016   2.110 -0.2069 -0.1201  0.0202
 3306TIP3   OH2 9860   0.708   4.281   4.295 -0.2070 -0.3189  0.2276
 3306TIP3    H1 9861   0.729   4.191   4.274 -0.4180 -0.3358  0.0850
 3306TIP3    H2 9862   0.792   4.326   4.297 -0.2067 -0.2576 -0.9262
 3307TIP3   OH2 9863   7.137   2.613   6.412 -0.5013 -0.1348 -0.4735
 3307TIP3    H1 9864   7.225   2.646   6.395 -0.2627 -0.7496 -0.4219
 3307TIP3    H2 9865   7.079   2.682   6.378 -0.0086  0.4722 -0.1124
 3308TIP3   OH2 9866   8.188   4.053   4.142 -0.2353 -0.5972 -0.1592
 3308TIP3    H1 9867   8.146   4.114   4.082  0.9584  0.4744  0.0740
 3308TIP3    H2 9868   8.216   4.107   4.215  0.7199 -1.4536  0.1127
 3309TIP3   OH2 9869   6.343   2.391   3.609  0.0164 -0.6124 -0.1699
 3309TIP3    H1 9870   6.350   2.375   3.515  0.6817 -1.0021 -0.0544
 3309TIP3    H2 9871   6.418   2.346   3.647  0.0055 -0.0753  0.5026
 3310TIP3   OH2 9872   7.366   0.758   3.915 -0.2367  0.5546 -0.7896
 3310TIP3    H1 9873   7.356   0.669   3.950 -0.2249  0.9382  0.2155
 3310TIP3    H2 9874   7.285   0.773   3.866 -0.6848  0.3599 -0.1160
 3311TIP3   OH2 9875   1.088   5.958   4.134  0.3447 -0.5333 -0.7048
 3311TIP3    H1 9876   1.105   5.865   4.148  1.2993 -0.3987 -0.9112
 3311TIP3    H2 9877   1.101   5.970   4.040  0.2135 -0.1932 -0.6802
 3312TIP3   OH2 9878   7.910   4.486   3.192 -0.0681 -0.4187  0.6148
 3312TIP3    H1 9879   7.934   4.551   3.126 -0.1161 -3.1034 -2.1604
 3312TIP3    H2 9880   7.831   4.522   3.234  0.9090  2.0924  0.3719
 3313TIP3   OH2 9881   2.397   3.388   2.980  0.3256 -0.5910  0.8638
 3313TIP3    H1 9882   2.391   3.392   3.076  0.2473  1.9871  0.7722
 3313TIP3    H2 9883   2.471   3.328   2.964  1.8073  0.7108  2.5890
 3314TIP3   OH2 9884   1.183   3.817   2.924  0.0403  0.0357  0.4798
 3314TIP3    H1 9885   1.110   3.877   2.913  0.3346  0.3806  0.3875
 3314TIP3    H2 9886   1.259   3.874   2.940  0.1669 -0.3450  1.2675
 3315TIP3   OH2 9887   2.611   3.486   2.719  0.7467  0.4109  0.2422
 3315TIP3    H1 9888   2.605   3.422   2.648 -0.9862  0.4561  0.3448
 3315TIP3    H2 9889   2.687   3.458   2.770  1.3927 -0.2085 -1.0465
 3316TIP3   OH2 9890   2.872   3.227   3.681 -0.6740 -0.1174 -0.2921
 3316TIP3    H1 9891   2.796   3.194   3.633 -0.6264 -0.7741  0.0902
 3316TIP3    H2 9892   2.930   3.152   3.689 -0.4593  0.1191  0.3669
 3317TIP3   OH2 9893   0.066   3.376   1.454  0.5929 -0.2660  0.2271
 3317TIP3    H1 9894   0.059   3.371   1.549  3.3932 -0.4214  0.4544
 3317TIP3    H2 9895   0.160   3.371   1.436  0.0984 -0.3797 -2.5599
 3318TIP3   OH2 9896   0.086   3.985   1.493  0.7504  0.3032 -0.3919
 3318TIP3    H1 9897   0.018   3.955   1.553  0.6690  1.7266  0.2513
 3318TIP3    H2 9898   0.156   4.016   1.550  1.5304 -0.2515 -1.0478
 3319TIP3   OH2 9899   0.977   3.211   2.846  0.4187 -0.2033 -0.0232
 3319TIP3    H1 9900   0.975   3.290   2.791  0.4152  0.0431  0.3301
 3319TIP3    H2 9901   0.886   3.183   2.852  0.2419  0.5382  0.9573
 3320TIP3   OH2 9902   0.593   3.973   4.499  0.2003 -0.0787  0.3592
 3320TIP3    H1 9903   0.542   3.970   4.580 -1.2790  0.7887 -0.5348
 3320TIP3    H2 9904   0.682   3.992   4.529 -0.4136  0.7059  1.7670
 3321TIP3   OH2 9905   1.996   1.057   4.027  0.2112 -0.0343  0.4093
 3321TIP3    H1 9906   1.948   1.133   3.995 -0.2517 -0.4099  0.2100
 3321TIP3    H2 9907   1.938   0.982   4.009 -0.5423 -0.1386  3.1109
 3322TIP3   OH2 9908   3.311   5.092   4.798  0.1512  0.6613 -0.0339
 3322TIP3    H1 9909   3.370   5.038   4.745 -1.1744 -1.1193  0.2815
 3322TIP3    H2 9910   3.365   5.168   4.823  0.7475  1.6571 -4.0619
 3323TIP3   OH2 9911   0.623   3.891   3.081  0.4728  0.0538  0.4409
 3323TIP3    H1 9912   0.671   3.837   3.018  0.5169 -1.6567  1.9000
 3323TIP3    H2 9913   0.582   3.828   3.140 -1.9972  1.5408  0.3906
 3324TIP3   OH2 9914   1.339   2.793   1.567 -0.4928  0.4452 -0.0654
 3324TIP3    H1 9915   1.293   2.857   1.620  1.0051  2.0667 -0.6899
 3324TIP3    H2 9916   1.394   2.745   1.629 -0.5183  0.7372  0.1813
 3325TIP3   OH2 9917   0.830   3.561   3.422 -0.4184 -0.0412 -0.4736
 3325TIP3    H1 9918   0.844   3.638   3.476 -0.0097  1.3464 -2.4949
 3325TIP3    H2 9919   0.917   3.523   3.411 -0.0605  1.2438 -2.3702
 3326TIP3   OH2 9920   0.915   3.380   5.031 -0.1975  0.4109 -0.1694
 3326TIP3    H1 9921   0.837   3.364   4.977 -0.4790  0.4881  0.2076
 3326TIP3    H2 9922   0.988   3.381   4.969 -0.4908  0.2783 -0.5197
 3327TIP3   OH2 9923   0.072   1.019   3.497 -0.7202 -0.0563 -0.0756
 3327TIP3    H1 9924   0.055   0.926   3.513  0.1962 -0.5203 -1.6927
 3327TIP3    H2 9925  -0.014   1.056   3.477 -1.2635 -0.3002  1.7822
 3328TIP3   OH2 9926   0.274   0.956   4.147  0.1274 -0.3052  0.3494
 3328TIP3    H1 9927   0.282   0.885   4.211  0.0402 -0.2571  0.4137
 3328TIP3    H2 9928   0.299   1.035   4.195  0.5079 -0.3332  0.1972
 3329TIP3   OH2 9929   2.041   4.641   4.257 -0.0381 -0.3104  0.0623
 3329TIP3    H1 9930   2.059   4.581   4.330 -0.3150 -0.1189  0.2884
 3329TIP3    H2 9931   1.949   4.662   4.266  0.5330  1.8087  1.2285
 3330TIP3   OH2 9932   0.585   2.884   4.847 -0.1684 -0.2908 -0.2235
 3330TIP3    H1 9933   0.578   2.850   4.936  0.2556 -1.3995 -0.6142
 3330TIP3    H2 9934   0.494   2.887   4.815 -0.3916  0.7975  0.4916
 3331TIP3   OH2 9935   1.297   3.504   2.760 -0.3614  0.5136 -0.4552
 3331TIP3    H1 9936   1.208   3.502   2.724 -0.3971 -0.7376 -0.3097
 3331TIP3    H2 9937   1.285   3.505   2.855 -0.2281 -0.0676 -0.4277
 3332TIP3   OH2 9938   7.960   3.378   3.815 -0.0208 -0.9162 -0.5039
 3332TIP3    H1 9939   7.893   3.411   3.875  1.0855 -2.6138  1.7038
 3332TIP3    H2 9940   8.040   3.424   3.840  0.3665 -1.3338 -0.9540
 3333TIP3   OH2 9941   8.407   4.313   3.321 -0.3837 -0.0825  0.6340
 3333TIP3    H1 9942   8.497   4.282   3.326 -0.6023 -1.1600 -1.3776
 3333TIP3    H2 9943   8.402   4.386   3.383  1.9807  0.2982  0.4014
 3334TIP3   OH2 9944   7.994   3.133   1.131  0.9540 -0.5129 -0.7172
 3334TIP3    H1 9945   7.987   3.125   1.036 -1.3898 -0.4402 -0.5795
 3334TIP3    H2 9946   7.989   3.228   1.147 -2.0357 -0.6802 -0.3436
 3335TIP3   OH2 9947   0.511   4.895   6.044  0.2724 -0.0798  0.3065
 3335TIP3    H1 9948   0.474   4.927   5.961  0.2851  0.5131  0.5248
 3335TIP3    H2 9949   0.443   4.911   6.109  0.8522  0.8843  0.6810
 3336TIP3   OH2 9950   7.955   3.551   4.569  0.0272 -0.3739 -0.2923
 3336TIP3    H1 9951   7.919   3.636   4.542  0.2832  0.8001  2.8422
 3336TIP3    H2 9952   8.042   3.548   4.529 -0.6630  0.0553 -1.8468
 3337TIP3   OH2 9953   8.303   3.056   0.998 -0.3227 -0.0209  0.1712
 3337TIP3    H1 9954   8.226   3.029   0.949  0.3525  0.6824 -1.3102
 3337TIP3    H2 9955   8.297   3.151   1.002  1.7277  0.2465 -2.1213
 3338TIP3   OH2 9956   0.288   1.825   4.300 -0.4061  0.3066  0.5491
 3338TIP3    H1 9957   0.278   1.810   4.206 -0.0720  0.5469  0.4707
 3338TIP3    H2 9958   0.345   1.754   4.330  0.9530  1.2308  0.2289
 3339TIP3   OH2 9959   7.789   5.550   3.390 -0.0907  0.1208  0.0386
 3339TIP3    H1 9960   7.750   5.636   3.400 -2.4698 -1.1096  2.0050
 3339TIP3    H2 9961   7.801   5.518   3.480  0.4072 -1.7255 -0.6505
 3340TIP3   OH2 9962   0.691   2.804   4.024 -0.3243 -0.3949  0.1446
 3340TIP3    H1 9963   0.753   2.731   4.033  0.0473 -0.0343  0.5583
 3340TIP3    H2 9964   0.608   2.762   4.001 -0.0497 -0.9259  0.0988
 3341TIP3   OH2 9965   7.260   4.999   3.183 -0.4630 -0.2030  0.2770
 3341TIP3    H1 9966   7.351   4.993   3.155 -0.2072 -0.4756  1.1571
 3341TIP3    H2 9967   7.262   4.976   3.276 -1.3473  0.3766  0.4400
 3342TIP3   OH2 9968   0.569   3.795   4.288  0.6601 -0.5438  0.4483
 3342TIP3    H1 9969   0.645   3.824   4.238  1.0435  0.2879  1.4746
 3342TIP3    H2 9970   0.573   3.846   4.369 -2.2787  1.2105 -0.4229
 3343TIP3   OH2 9971   2.491   4.666   3.637 -0.2955 -0.6461  0.6208
 3343TIP3    H1 9972   2.444   4.742   3.669  2.2597  0.5337  1.6763
 3343TIP3    H2 9973   2.506   4.611   3.714 -0.1857 -1.1362  0.2593
 3344TIP3   OH2 9974   1.340   2.364   4.387 -0.4638 -0.2378  0.4168
 3344TIP3    H1 9975   1.283   2.314   4.329 -1.0944  0.1952  0.6550
 3344TIP3    H2 9976   1.376   2.299   4.447  0.5391 -0.7625 -0.7152
 3345TIP3   OH2 9977   1.216   3.525   3.022  0.0825  0.2281  0.4667
 3345TIP3    H1 9978   1.134   3.491   3.055 -0.0590 -0.0573 -0.1700
 3345TIP3    H2 9979   1.193   3.609   2.982  0.1108  0.1860  0.3602
 3346TIP3   OH2 9980   2.552   2.410   3.231 -0.4166 -0.1619 -0.7933
 3346TIP3    H1 9981   2.616   2.347   3.265  0.0796  1.5464  1.5347
 3346TIP3    H2 9982   2.604   2.469   3.177  0.0812  1.4397  1.3863
 3347TIP3   OH2 9983   1.028   1.329   1.704  0.6729  0.1958 -0.5283
 3347TIP3    H1 9984   0.958   1.272   1.673  0.4095  0.2114  0.0416
 3347TIP3    H2 9985   1.108   1.279   1.688  0.4358 -0.3923  0.0952
 3348TIP3   OH2 9986   0.034   3.076   1.697 -0.4442  0.3195 -0.4739
 3348TIP3    H1 9987   0.045   3.072   1.792 -2.1852 -2.6749 -0.3262
 3348TIP3    H2 9988  -0.018   3.155   1.682  0.8141  1.4407  0.9373
 3349TIP3   OH2 9989   0.487   1.693   4.000  0.3602 -0.1783 -0.5701
 3349TIP3    H1 9990   0.519   1.761   4.059  0.0135 -0.9838  0.5648
 3349TIP3    H2 9991   0.471   1.739   3.918 -0.4242  1.2409  0.3490
 3350TIP3   OH2 9992   6.692   5.003   2.349 -0.1450  0.3052 -0.2144
 3350TIP3    H1 9993   6.630   4.986   2.279  1.3778  0.2679 -1.5703
 3350TIP3    H2 9994   6.772   4.958   2.322  0.9417  1.6040  0.7794
 3351TIP3   OH2 9995   8.108   4.517   0.993 -0.7682 -0.4237 -0.4708
 3351TIP3    H1 9996   8.075   4.607   0.999  1.4948  0.4785 -0.6869
 3351TIP3    H2 9997   8.104   4.484   1.083 -0.4901  0.3227 -0.1772
 3352TIP3   OH2 9998   7.589   1.498   5.356 -0.5531  0.1768  0.4192
 3352TIP3    H1 9999   7.675   1.527   5.386  0.7025 -2.8794  0.0444
 3352TIP3    H210000   7.555   1.444   5.427 -2.1320  1.2554  0.5142
 3353TIP3   OH210001   8.342   1.847   4.519 -0.4776  0.3857 -0.2189
 3353TIP3    H110002   8.354   1.940   4.502 -1.6045  0.3769 -1.1506
 3353TIP3    H210003   8.367   1.804   4.438 -3.0035  0.1286 -0.9264
 3354TIP3   OH210004   0.609   4.117   5.295 -0.2682  0.0145  0.0078
 3354TIP3    H110005   0.618   4.039   5.240  1.9533  0.1745  0.0966
 3354TIP3    H210006   0.633   4.087   5.383  2.6012  1.1903 -0.3042
 3355TIP3   OH210007   1.950   4.899   2.002  0.3130 -0.1993  0.4143
 3355TIP3    H110008   2.005   4.822   1.988 -1.2124 -1.3612  0.6908
 3355TIP3    H210009   1.947   4.942   1.916  1.6921 -0.0750  0.4100
 3356TIP3   OH210010   1.126   5.173   3.505  0.2399 -0.8148  0.3856
 3356TIP3    H110011   1.067   5.170   3.581  0.5574 -0.2424  0.6577
 3356TIP3    H210012   1.176   5.092   3.512  1.4661  0.0307  1.7714
 3357TIP3   OH210013   2.210   2.738   3.137 -0.2641  0.5715 -0.7292
 3357TIP3    H110014   2.231   2.709   3.048 -0.6913 -0.1979 -0.5867
 3357TIP3    H210015   2.114   2.744   3.139 -0.5325 -2.8179  0.6759
 3358TIP3   OH210016   1.175   4.340   3.834  0.1017  0.2232  0.5941
 3358TIP3    H110017   1.166   4.268   3.896 -0.2360 -0.4794 -0.2777
 3358TIP3    H210018   1.184   4.298   3.749 -0.1650  1.2121  0.0743
 3359TIP3   OH210019   3.591   1.177   2.147  0.1243  0.3526 -0.1942
 3359TIP3    H110020   3.561   1.232   2.075  1.4560 -0.1546 -1.1451
 3359TIP3    H210021   3.683   1.199   2.158 -0.1125  0.5928  1.5229
 3360TIP3   OH210022   0.449   5.406   3.451 -0.1351 -0.0195  0.1011
 3360TIP3    H110023   0.501   5.366   3.521  2.7522  1.3646 -1.1347
 3360TIP3    H210024   0.464   5.351   3.375  0.9212  1.3083 -0.6829
 3361TIP3   OH210025   1.321   2.021   1.662 -0.4922 -0.0080 -0.1089
 3361TIP3    H110026   1.248   1.970   1.627 -1.4439  0.5847  1.0179
 3361TIP3    H210027   1.397   1.964   1.650 -1.1516 -0.7005 -1.1112
 3362TIP3   OH210028   0.402   2.877   2.494  0.3895 -0.1164  0.0645
 3362TIP3    H110029   0.336   2.832   2.546 -0.1285 -0.3633 -0.7942
 3362TIP3    H210030   0.382   2.970   2.505 -0.7322 -0.2212 -0.9905
 3363TIP3   OH210031   7.293   5.280   1.846 -0.0181  0.0271 -0.1025
 3363TIP3    H110032   7.364   5.326   1.890  0.3580 -1.2804  0.7046
 3363TIP3    H210033   7.282   5.199   1.897 -0.1860 -1.0952 -1.8862
 3364TIP3   OH210034   0.323   4.759   3.261  0.1807  0.7402  0.6339
 3364TIP3    H110035   0.381   4.693   3.224 -0.9389 -0.0880  0.3353
 3364TIP3    H210036   0.369   4.790   3.339  1.1831  0.3587  0.2029
 3365TIP3   OH210037   2.227   3.922   3.781  0.2692  0.3035 -0.0476
 3365TIP3    H110038   2.286   3.896   3.710 -0.1614  1.7128 -0.9326
 3365TIP3    H210039   2.269   3.888   3.860  1.6547  0.2356 -0.7937
 3366TIP3   OH210040   3.606   3.182   4.203  0.2138  0.3243  0.2594
 3366TIP3    H110041   3.528   3.233   4.228  0.1766  0.8877 -0.9810
 3366TIP3    H210042   3.622   3.126   4.279 -2.2850 -0.8624 -0.0153
 3367TIP3   OH210043   2.484   2.905   2.882  0.7740  0.3936 -0.2227
 3367TIP3    H110044   2.509   2.970   2.948 -0.5351 -0.5308  1.2186
 3367TIP3    H210045   2.394   2.880   2.906  0.7832 -0.9714 -1.5415
 3368TIP3   OH210046   3.325   1.538   4.033 -0.3355  0.5937  0.2308
 3368TIP3    H110047   3.245   1.536   3.980  0.8338  0.4110 -1.5812
 3368TIP3    H210048   3.346   1.631   4.040  1.8653  0.4538 -3.3633
 3369TIP3   OH210049   0.466   2.698   3.879  0.2713  0.9159 -0.2441
 3369TIP3    H110050   0.397   2.633   3.897  1.0954  0.1745  0.2859
 3369TIP3    H210051   0.513   2.664   3.804  1.3113  0.3997  0.6277
 3370TIP3   OH210052   1.827   3.094   3.306 -0.4263  0.3295  0.4866
 3370TIP3    H110053   1.889   3.091   3.379 -1.3289  0.5893  1.2720
 3370TIP3    H210054   1.747   3.129   3.343 -0.9248  0.4075 -0.6220
 3371TIP3   OH210055   1.869   5.372   1.677 -0.1970  0.0999 -0.1324
 3371TIP3    H110056   1.828   5.303   1.624 -0.4778 -0.2789  0.5807
 3371TIP3    H210057   1.935   5.326   1.728 -0.5338  0.3277  0.5067
 3372TIP3   OH210058   2.682   3.119   3.539  0.0966  0.0758 -0.0582
 3372TIP3    H110059   2.628   3.140   3.462  1.4109  0.1835 -0.9532
 3372TIP3    H210060   2.623   3.069   3.596 -0.6440 -0.7119 -1.4922
 3373TIP3   OH210061   1.477   2.709   1.798  0.5498 -0.9590  0.1378
 3373TIP3    H110062   1.535   2.644   1.837  0.6395 -2.0316 -1.7420
 3373TIP3    H210063   1.525   2.791   1.806  0.8151 -1.2578  1.7296
 3374TIP3   OH210064   2.988   5.456   3.757 -0.2938  0.1561  0.1170
 3374TIP3    H110065   2.987   5.362   3.743  3.5273  0.1585 -0.6775
 3374TIP3    H210066   2.942   5.493   3.681  0.5697 -0.9287 -0.9354
 3375TIP3   OH210067   2.112   1.166   2.293 -0.0141 -0.1339 -0.1285
 3375TIP3    H110068   2.021   1.154   2.319  0.2804 -2.0621  0.1199
 3375TIP3    H210069   2.108   1.179   2.198 -0.4946 -1.2556 -0.2790
 3376TIP3   OH210070   2.317   3.191   3.884  0.2274 -0.5345 -0.3479
 3376TIP3    H110071   2.261   3.179   3.960  0.8609 -0.3480  0.1568
 3376TIP3    H210072   2.294   3.278   3.850 -0.4735 -0.8624 -0.7303
 3377TIP3   OH210073   0.769   5.238   5.028 -0.4748  0.1339 -0.7081
 3377TIP3    H110074   0.710   5.306   4.995 -0.7403  0.1913 -0.1104
 3377TIP3    H210075   0.727   5.205   5.106 -0.9447 -1.5817 -1.6741
 3378TIP3   OH210076   2.541   4.009   1.490  0.2533 -0.9154 -0.4287
 3378TIP3    H110077   2.467   3.994   1.550  0.4084 -1.5252 -0.3819
 3378TIP3    H210078   2.590   3.926   1.492  2.1784  0.2184  1.2595
 3379TIP3   OH210079   4.151   2.614   2.349 -0.1437 -0.8335 -0.3422
 3379TIP3    H110080   4.191   2.627   2.435  0.1139  0.0240 -0.5880
 3379TIP3    H210081   4.198   2.675   2.292 -1.6670  0.0284 -0.6780
 3380TIP3   OH210082   2.052   2.130   3.652 -0.3476  0.2546  0.2633
 3380TIP3    H110083   2.137   2.086   3.658  0.1771  1.0846 -0.8559
 3380TIP3    H210084   2.054   2.196   3.721 -0.3075 -0.0894  0.5938
 3381TIP3   OH210085   1.928   2.562   3.289 -0.0973 -0.1395  0.0625
 3381TIP3    H110086   1.905   2.607   3.208  1.6248  2.2242  0.8582
 3381TIP3    H210087   1.986   2.490   3.261  0.3987  0.5917 -0.8018
 3382TIP3   OH210088   2.801   3.456   0.937 -0.2392  0.6732 -0.0111
 3382TIP3    H110089   2.731   3.519   0.917  0.7572  1.8933  0.2905
 3382TIP3    H210090   2.780   3.425   1.025 -0.1322  1.4327  0.2923
 3383TIP3   OH210091   3.430   4.753   4.445 -0.0816  0.2472  0.7798
 3383TIP3    H110092   3.482   4.777   4.368  4.2487 -1.0749  3.0840
 3383TIP3    H210093   3.365   4.692   4.412  1.1368  0.3584 -1.9832
 3384TIP3   OH210094   3.021   3.828   3.279 -0.0277 -0.2535 -0.3043
 3384TIP3    H110095   2.935   3.800   3.311  0.1883  0.6380  1.0936
 3384TIP3    H210096   3.009   3.919   3.254  0.8038  0.2295  1.0230
 3385TIP3   OH210097   0.648   5.854   1.004 -0.6309  0.3713  0.2542
 3385TIP3    H110098   0.644   5.940   0.964  2.4018  1.4756  2.1707
 3385TIP3    H210099   0.573   5.852   1.064 -2.3718  0.5291 -1.8657
 3386TIP3   OH210100   1.157   3.100   2.148  0.0788  0.2032 -0.2956
 3386TIP3    H110101   1.209   3.026   2.179 -0.7229  0.3350  1.4385
 3386TIP3    H210102   1.220   3.172   2.140  0.3369  0.1153  0.8770
 3387TIP3   OH210103   3.801   6.015   3.746  0.1237 -0.4248 -0.6810
 3387TIP3    H110104   3.731   6.022   3.681 -0.5094  3.2074  0.2971
 3387TIP3    H210105   3.882   6.009   3.694 -0.5144  0.5893 -1.8207
 3388TIP3   OH210106   2.952   3.800   1.706  0.6525 -0.0227  0.0077
 3388TIP3    H110107   3.020   3.822   1.770  1.2237 -1.8293  0.0235
 3388TIP3    H210108   2.995   3.812   1.621  0.1023  1.6863 -0.0484
 3389TIP3   OH210109   2.753   5.170   0.917  0.2554 -0.0419 -0.3294
 3389TIP3    H110110   2.681   5.112   0.942 -0.7133  0.6758 -1.4005
 3389TIP3    H210111   2.821   5.154   0.984 -0.7319 -1.0001  0.4711
 3390TIP3   OH210112   2.863   4.292   0.301 -0.0283  0.3563 -0.0153
 3390TIP3    H110113   2.905   4.293   0.387 -0.8193 -1.1779  0.3979
 3390TIP3    H210114   2.909   4.223   0.253 -1.9203 -1.1990  0.3682
 3391TIP3   OH210115   0.878   6.157   4.775  0.4164 -0.0545  0.4606
 3391TIP3    H110116   0.940   6.146   4.702 -0.4257  0.0529 -0.2811
 3391TIP3    H210117   0.828   6.235   4.751  0.0401 -0.1042  1.0969
 3392TIP3   OH210118   2.032   1.955   1.834  0.8762  0.4868 -0.2442
 3392TIP3    H110119   2.118   1.993   1.812  0.6007 -0.0657 -2.4079
 3392TIP3    H210120   1.976   2.031   1.850  1.8578  0.8417  1.5272
 3393TIP3   OH210121   3.590   4.618   5.447 -0.6443  0.5992 -0.0934
 3393TIP3    H110122   3.646   4.686   5.412 -1.9719  1.8206  0.1055
 3393TIP3    H210123   3.501   4.649   5.431 -1.2687 -0.8019  0.5373
 3394TIP3   OH210124   1.372   4.761   3.907  0.2920 -0.6119  0.2077
 3394TIP3    H110125   1.420   4.736   3.986  0.1294  0.2264  0.5765
 3394TIP3    H210126   1.303   4.820   3.938  0.9126  0.6236 -0.6752
 3395TIP3   OH210127   4.724   3.327   0.710  0.5809 -0.1170  0.1061
 3395TIP3    H110128   4.757   3.399   0.656  0.6979  0.8885  1.4865
 3395TIP3    H210129   4.629   3.339   0.710  0.6729  0.7352  1.2568
 3396TIP3   OH210130   1.856   5.789   3.802  0.3495  0.0353 -0.5923
 3396TIP3    H110131   1.870   5.801   3.896 -2.0316 -1.8006  0.0481
 3396TIP3    H210132   1.923   5.727   3.775  0.0726 -0.6350  0.2418
 3397TIP3   OH210133   0.216   5.183   3.828  0.3853 -0.1906 -0.6535
 3397TIP3    H110134   0.237   5.273   3.850 -0.9028 -0.0738  0.2095
 3397TIP3    H210135   0.237   5.174   3.735  2.2952  0.4451 -0.2939
 3398TIP3   OH210136   1.947   4.444   3.365 -0.5113  0.0658  0.3545
 3398TIP3    H110137   1.934   4.539   3.359 -1.2139 -0.0213  0.4251
 3398TIP3    H210138   1.876   4.407   3.314  0.2939 -0.4096 -0.4302
 3399TIP3   OH210139   0.662   4.342   3.077  0.1706 -0.2956 -0.2739
 3399TIP3    H110140   0.745   4.367   3.037  0.3389  0.8548  0.7559
 3399TIP3    H210141   0.602   4.333   3.004  1.2547 -1.4203 -1.0633
 3400TIP3   OH210142   0.363   1.346   0.614 -0.1594  0.2287  0.3744
 3400TIP3    H110143   0.349   1.436   0.645 -2.6016  0.4763 -1.3402
 3400TIP3    H210144   0.293   1.295   0.656  0.5970 -0.6948  0.5343
 3401TIP3   OH210145   1.676   3.832   3.024 -0.1993  0.1089 -0.6096
 3401TIP3    H110146   1.661   3.818   2.930 -0.4788  0.2863 -0.5926
 3401TIP3    H210147   1.645   3.922   3.039 -2.7511 -0.8621  0.2162
 3402TIP3   OH210148   8.223   5.089   3.412 -0.1814 -0.7445  0.2074
 3402TIP3    H110149   8.206   5.108   3.504  1.7302  1.4175  0.1514
 3402TIP3    H210150   8.141   5.109   3.368 -0.5403 -0.0348  1.1881
 3403TIP3   OH210151   3.564   6.433   4.572  0.0227 -0.6035 -0.1278
 3403TIP3    H110152   3.584   6.428   4.666  0.9120 -2.0937 -0.3791
 3403TIP3    H210153   3.622   6.502   4.540 -0.1059 -0.2581  0.3715
 3404TIP3   OH210154   2.165   7.252   2.596  0.2163 -0.2159 -0.0710
 3404TIP3    H110155   2.101   7.281   2.531 -0.4015 -2.7492 -0.6688
 3404TIP3    H210156   2.118   7.188   2.650  2.3596 -2.7314 -1.0134
 3405TIP3   OH210157   6.856   6.549   0.418  0.4583  0.4977  0.2942
 3405TIP3    H110158   6.763   6.564   0.434  0.4329 -0.8633  1.3997
 3405TIP3    H210159   6.862   6.545   0.322 -0.5922  0.6756  0.2049
 3406TIP3   OH210160   2.335   4.881   3.033  0.4094 -0.4119 -0.6541
 3406TIP3    H110161   2.369   4.942   3.098  1.2068 -1.3269 -0.2026
 3406TIP3    H210162   2.248   4.857   3.066 -0.2108  1.0017 -1.1982
 3407TIP3   OH210163   2.653   3.262   1.470  0.6499 -0.6703 -0.5068
 3407TIP3    H110164   2.599   3.326   1.423  0.0671 -1.7982 -1.4076
 3407TIP3    H210165   2.740   3.271   1.430  0.6862 -0.1395 -0.3194
 3408TIP3   OH210166   2.149   5.128   3.355 -0.1469  0.0533  0.2344
 3408TIP3    H110167   2.080   5.063   3.370 -1.0122  0.5706 -1.3720
 3408TIP3    H210168   2.120   5.175   3.277  1.5708  0.9089  0.1056
 3409TIP3   OH210169   3.741   4.714   4.254 -0.1664  0.2013 -0.3443
 3409TIP3    H110170   3.694   4.770   4.192 -0.7282  1.8002  1.4855
 3409TIP3    H210171   3.683   4.638   4.266 -2.0738  1.8577  1.4013
 3410TIP3   OH210172   0.235   3.075   2.654  0.1052 -0.0360 -0.2133
 3410TIP3    H110173   0.209   3.106   2.567 -1.5980 -2.6223 -0.6888
 3410TIP3    H210174   0.168   3.110   2.712  0.8409  1.0954 -0.0416
 3411TIP3   OH210175   2.640   4.990   4.484  0.5942  0.6348 -0.3677
 3411TIP3    H110176   2.636   5.067   4.540  0.2192  1.2190 -1.1983
 3411TIP3    H210177   2.730   4.987   4.452  0.7711  0.3784  0.1555
 3412TIP3   OH210178   3.694   3.699   1.946  0.2413 -0.6611  0.1562
 3412TIP3    H110179   3.716   3.713   2.038 -1.6836  0.6306  0.4488
 3412TIP3    H210180   3.756   3.755   1.898  0.9727 -1.0177  0.6712
 3413TIP3   OH210181   3.332   4.813   2.934  0.2344 -0.1290 -0.0455
 3413TIP3    H110182   3.277   4.870   2.881 -0.6840 -0.8943  0.0704
 3413TIP3    H210183   3.271   4.749   2.972  1.0683 -0.4178  0.8292
 3414TIP3   OH210184   3.131   4.043   3.157  0.0212 -0.0156 -0.4902
 3414TIP3    H110185   3.202   3.986   3.127 -0.3405 -0.9289  0.3839
 3414TIP3    H210186   3.077   4.056   3.079  2.0914  2.1396 -1.6362
 3415TIP3   OH210187   3.247   1.511   2.346 -0.0376 -0.6442  0.7934
 3415TIP3    H110188   3.198   1.570   2.403  0.0751 -0.8366  1.0875
 3415TIP3    H210189   3.339   1.529   2.365 -0.0069 -1.2427  1.2200
 3416TIP3   OH210190   1.211   2.884   3.205 -0.3634  0.0617 -0.1319
 3416TIP3    H110191   1.306   2.878   3.217 -0.3939  1.8290  1.1517
 3416TIP3    H210192   1.176   2.888   3.294 -1.4844  1.5396 -0.6239
 3417TIP3   OH210193   0.219   3.741   2.957 -0.0668 -0.1798 -0.1069
 3417TIP3    H110194   0.254   3.754   2.868  1.3628  0.8385  0.5866
 3417TIP3    H210195   0.295   3.713   3.008 -0.2870  1.9403  1.4101
 3418TIP3   OH210196   7.795   5.510   1.479 -0.2211 -0.8290  0.3245
 3418TIP3    H110197   7.770   5.444   1.544 -0.4436 -1.3474 -0.2775
 3418TIP3    H210198   7.880   5.480   1.447 -0.0289 -0.4762  0.5107
 3419TIP3   OH210199   3.413   3.066   1.383 -0.0617 -0.4759 -0.2257
 3419TIP3    H110200   3.429   3.071   1.477 -4.0277 -1.2185  0.5552
 3419TIP3    H210201   3.473   2.997   1.353  2.3546  0.8258  1.4100
 3420TIP3   OH210202   2.371   2.989   1.863 -0.8290  0.0517  0.3236
 3420TIP3    H110203   2.452   3.012   1.908  1.2808 -2.4191 -2.0266
 3420TIP3    H210204   2.371   3.044   1.784 -1.1078 -0.4075  0.0006
 3421TIP3   OH210205   2.131   4.816   4.556  0.1229 -0.0748  0.1465
 3421TIP3    H110206   2.077   4.745   4.590  0.4583 -1.0539 -1.3015
 3421TIP3    H210207   2.071   4.868   4.503 -0.3180  1.2389  1.9066
 3422TIP3   OH210208   2.166   3.697   2.931 -0.1714  0.0930  0.0412
 3422TIP3    H110209   2.207   3.641   2.866 -0.0734 -0.3028  0.4453
 3422TIP3    H210210   2.182   3.786   2.900 -1.9580 -0.1378 -1.6096
 3423TIP3   OH210211   0.454   3.595   4.076  0.4398 -0.2708 -0.2204
 3423TIP3    H110212   0.494   3.524   4.126 -0.6384  0.4997  1.7881
 3423TIP3    H210213   0.432   3.661   4.142  1.0180  1.7463 -1.9867
 3424TIP3   OH210214   1.137   3.619   3.700  0.6907 -0.1388 -0.3750
 3424TIP3    H110215   1.113   3.528   3.714  0.1526 -0.1487 -1.3376
 3424TIP3    H210216   1.233   3.618   3.699  0.7142 -0.4649  1.0311
 3425TIP3   OH210217   2.678   4.340   2.982  0.1416  0.5706  0.0008
 3425TIP3    H110218   2.653   4.354   3.073 -2.2851 -0.6979 -0.4384
 3425TIP3    H210219   2.729   4.259   2.983 -1.8431 -0.6955 -0.0702
 3426TIP3   OH210220   1.480   3.151   2.087 -0.1130  0.0293 -0.1497
 3426TIP3    H110221   1.416   3.215   2.115  0.3501 -0.5464  2.3983
 3426TIP3    H210222   1.555   3.164   2.146  0.5375 -1.8763 -0.4975
 3427TIP3   OH210223   7.019   2.934   0.617  0.1884  0.2350 -0.3175
 3427TIP3    H110224   6.923   2.927   0.619  0.1876  0.5333  1.1070
 3427TIP3    H210225   7.049   2.843   0.627  0.0585  0.3404  1.1244
 3428TIP3   OH210226   2.432   0.439   2.806  0.0040  0.1493  0.3285
 3428TIP3    H110227   2.438   0.392   2.723  1.4077 -0.0552  0.5460
 3428TIP3    H210228   2.434   0.371   2.873 -2.9619  0.1557  0.5257
 3429TIP3   OH210229   3.186   3.110   3.496  0.2276  0.2119  0.3177
 3429TIP3    H110230   3.172   3.174   3.566 -1.1277 -1.1278  1.3162
 3429TIP3    H210231   3.102   3.108   3.449  1.0207  0.8535 -1.1388
 3430TIP3   OH210232   1.762   2.145   3.715 -0.3214 -0.2113  0.1033
 3430TIP3    H110233   1.765   2.060   3.760 -0.5193 -0.8628 -1.1013
 3430TIP3    H210234   1.835   2.143   3.654 -2.0980 -0.7524 -2.0797
 3431TIP3   OH210235   3.562   5.731   3.833 -0.2522  0.6392 -0.3202
 3431TIP3    H110236   3.486   5.739   3.892  0.2996  1.9080  0.2335
 3431TIP3    H210237   3.541   5.788   3.760 -0.1319  0.4431 -0.5083
 3432TIP3   OH210238   0.796   4.577   4.428  0.8317 -0.4989  0.4153
 3432TIP3    H110239   0.863   4.616   4.371  0.5446 -0.5471  0.0446
 3432TIP3    H210240   0.714   4.616   4.399  0.7681 -0.0004  1.2596
 3433TIP3   OH210241   2.774   5.920   2.283 -0.1464  0.1632 -0.1399
 3433TIP3    H110242   2.701   5.981   2.269  1.3042  1.7937 -0.8622
 3433TIP3    H210243   2.824   5.957   2.355  1.4743  0.5645 -1.4242
 3434TIP3   OH210244   0.234   1.637   3.167 -0.7132  0.0872  0.3008
 3434TIP3    H110245   0.246   1.550   3.130 -0.5444  0.3845 -0.3372
 3434TIP3    H210246   0.321   1.663   3.198 -0.4684  0.6277 -0.8192
 3435TIP3   OH210247   2.111   3.344   2.932  0.0860 -0.0190 -0.9559
 3435TIP3    H110248   2.193   3.374   2.972 -0.1957 -0.2228 -0.2178
 3435TIP3    H210249   2.076   3.282   2.995 -1.6973  1.6359 -0.2589
 3436TIP3   OH210250   7.350   4.118   3.022 -0.0631  0.0955 -0.3660
 3436TIP3    H110251   7.275   4.174   3.004  0.2578  1.3530  1.9725
 3436TIP3    H210252   7.334   4.039   2.970 -2.7110  0.5724 -0.3712
 3437TIP3   OH210253   3.084   5.243   5.016  0.2031 -0.5752  0.3939
 3437TIP3    H110254   3.013   5.241   5.081 -0.1440  1.1211  0.0913
 3437TIP3    H210255   3.080   5.157   4.974 -0.7740 -1.0164  1.3383
 3438TIP3   OH210256   3.406   2.876   2.428 -0.0713 -0.1350  0.5225
 3438TIP3    H110257   3.484   2.832   2.395 -1.0476 -1.3052 -0.2445
 3438TIP3    H210258   3.416   2.874   2.523 -0.4882 -2.7865  0.5468
 3439TIP3   OH210259   2.744   3.643   1.873 -0.4730 -0.0684 -0.0769
 3439TIP3    H110260   2.815   3.667   1.814 -0.3274  0.1885  0.2037
 3439TIP3    H210261   2.695   3.724   1.887 -1.8645 -0.6123 -1.6732
 3440TIP3   OH210262   1.784   3.405   2.010 -1.1507  0.5849  0.2855
 3440TIP3    H110263   1.836   3.381   2.087 -0.8241  1.0627  0.2154
 3440TIP3    H210264   1.704   3.445   2.046 -1.9975 -1.1928  0.4153
 3441TIP3   OH210265   8.513   2.996   1.411  0.6520  0.2308  0.2226
 3441TIP3    H110266   8.523   3.057   1.338  0.5162 -0.1548 -0.1194
 3441TIP3    H210267   8.420   2.973   1.410  0.7919 -0.3374  0.0669
 3442TIP3   OH210268   2.652   4.825   0.243 -0.2626 -0.4707 -0.7673
 3442TIP3    H110269   2.586   4.767   0.204 -0.9101  0.9838 -1.8698
 3442TIP3    H210270   2.707   4.767   0.295 -1.5059 -1.9337 -1.0493
 3443TIP3   OH210271   1.002   3.243   2.394 -0.1668 -0.1217 -0.0288
 3443TIP3    H110272   1.034   3.188   2.322 -0.2126 -1.3113  0.8338
 3443TIP3    H210273   1.059   3.221   2.468 -0.1234  1.0906  0.3060
 3444TIP3   OH210274   1.931   3.021   3.539 -0.2303 -0.3320  0.2539
 3444TIP3    H110275   1.904   2.929   3.530  0.1528 -0.4672  0.4857
 3444TIP3    H210276   1.878   3.054   3.611 -0.7191 -0.2365 -0.1479
 3445TIP3   OH210277   2.337   4.145   2.980  0.4526  0.1036  0.0931
 3445TIP3    H110278   2.342   4.112   3.070  1.0019  0.2262  0.1109
 3445TIP3    H210279   2.357   4.239   2.988 -1.0003  0.4249  0.0312
 3446TIP3   OH210280   3.480   4.518   1.391  0.1283  0.6893 -0.4768
 3446TIP3    H110281   3.544   4.469   1.339  1.2860  0.8069  0.8118
 3446TIP3    H210282   3.406   4.459   1.400  0.6171  0.0162 -0.8121
 3447TIP3   OH210283   3.587   2.210   3.008 -0.3830 -0.2652 -0.0093
 3447TIP3    H110284   3.493   2.227   3.002 -0.0375  1.3304 -1.3058
 3447TIP3    H210285   3.628   2.283   2.961  1.4501 -1.6244 -0.5869
 3448TIP3   OH210286   3.137   2.779   1.539  0.0849 -0.0288 -0.0700
 3448TIP3    H110287   3.131   2.779   1.443  0.9713  1.0057 -0.1343
 3448TIP3    H210288   3.231   2.778   1.557 -0.0926 -1.7437  0.8114
 3449TIP3   OH210289   0.056   3.448   1.720  0.0472 -0.2531 -0.3776
 3449TIP3    H110290   0.010   3.442   1.804  0.0915 -1.9727 -0.4526
 3449TIP3    H210291   0.113   3.524   1.729 -1.8983  1.1651  0.1691
 3450TIP3   OH210292   2.874   4.062   2.498  0.1426 -0.6885 -0.7086
 3450TIP3    H110293   2.931   4.008   2.443 -2.0203 -2.0004 -1.7571
 3450TIP3    H210294   2.840   4.129   2.438 -0.4071 -0.7014 -0.4137
 3451TIP3   OH210295   8.031   5.115   1.962  0.0927  0.1708  0.2568
 3451TIP3    H110296   7.995   5.030   1.987  0.6631  0.0497  0.6996
 3451TIP3    H210297   8.082   5.097   1.883  1.8894 -0.3212  1.4735
 3452TIP3   OH210298   1.277   4.856   0.068 -0.1869  0.4004 -0.3806
 3452TIP3    H110299   1.213   4.927   0.075 -0.4227  0.3251 -1.7086
 3452TIP3    H210300   1.247   4.791   0.132 -0.6878  0.9365 -0.0590
 3453TIP3   OH210301   1.659   6.194   2.739 -0.2825 -0.5438 -0.0958
 3453TIP3    H110302   1.684   6.114   2.786 -2.2808 -0.8422  0.5327
 3453TIP3    H210303   1.604   6.164   2.667 -1.4858  0.2864  0.4569
 3454TIP3   OH210304   0.552   4.999   4.892  0.2692 -0.2484  0.0918
 3454TIP3    H110305   0.558   4.918   4.843 -2.7127  0.2468 -1.1888
 3454TIP3    H210306   0.602   4.982   4.972  0.8530 -2.8481 -0.7763
 3455TIP3   OH210307   0.229   4.522   1.706  0.2244  0.0560  0.5338
 3455TIP3    H110308   0.304   4.463   1.705  0.0785 -0.1285 -0.6318
 3455TIP3    H210309   0.185   4.506   1.622  1.6771  3.7435 -1.0382
 3456TIP3   OH210310   8.016   3.900   1.375  1.2530 -0.2139 -0.1752
 3456TIP3    H110311   7.976   3.878   1.459  2.8888  1.5767  1.1307
 3456TIP3    H210312   7.943   3.910   1.315 -0.1124  0.9736  1.6527
 3457TIP3   OH210313   3.316   4.044   3.913  0.4846 -0.5267  0.2437
 3457TIP3    H110314   3.226   4.061   3.940  1.4551  0.8231  2.7860
 3457TIP3    H210315   3.320   3.950   3.898 -0.9854 -0.7900  1.4327
 3458TIP3   OH210316   0.814   1.131   6.680 -0.1161  0.5188  0.1972
 3458TIP3    H110317   0.792   1.209   6.730 -0.6553  0.7439 -0.3965
 3458TIP3    H210318   0.750   1.128   6.609  1.2419  0.7310 -1.0587
 3459TIP3   OH210319   8.334   4.092   1.938 -0.1246 -0.3539  0.3124
 3459TIP3    H110320   8.285   4.049   1.868  1.5964 -3.2493  0.7890
 3459TIP3    H210321   8.317   4.039   2.015  0.7087  0.8322  1.3300
 3460TIP3   OH210322   7.824   2.971   4.143 -0.5075 -0.0224 -0.0066
 3460TIP3    H110323   7.844   3.043   4.204  0.3685  1.0263 -1.5011
 3460TIP3    H210324   7.903   2.963   4.090 -0.3460 -2.5544  0.5599
 3461TIP3   OH210325   0.128   5.863   1.897  0.4598 -0.0466 -0.0785
 3461TIP3    H110326   0.070   5.905   1.960  1.4961 -1.3111  1.7378
 3461TIP3    H210327   0.069   5.809   1.843 -0.2349 -0.1277  0.7591
 3462TIP3   OH210328   4.527   4.449   1.609  0.5454  0.1369 -0.5135
 3462TIP3    H110329   4.480   4.515   1.661  0.3886  0.0040 -0.4848
 3462TIP3    H210330   4.490   4.459   1.521  1.0151  0.5584 -0.6666
 3463TIP3   OH210331   3.078   3.133   3.010  0.0177  0.0933  0.0092
 3463TIP3    H110332   3.143   3.139   3.080 -0.5218  0.1650  0.5101
 3463TIP3    H210333   3.012   3.198   3.033 -0.9374 -0.9528  0.2589
 3464TIP3   OH210334   0.429   5.469   1.384 -0.6598  0.1096  0.0667
 3464TIP3    H110335   0.474   5.549   1.358 -0.5301 -0.3116 -1.0236
 3464TIP3    H210336   0.351   5.466   1.328 -1.4281  0.2274  1.1155
 3465TIP3   OH210337   3.595   3.643   3.507 -0.3991  0.1772  0.3689
 3465TIP3    H110338   3.506   3.679   3.510 -0.5039 -0.0648  0.1954
 3465TIP3    H210339   3.609   3.609   3.596 -0.7578 -0.4432  0.1881
 3466TIP3   OH210340   3.787   1.947   3.760  0.4457 -0.0937  0.8960
 3466TIP3    H110341   3.871   1.990   3.750  0.4237 -0.1836  0.2986
 3466TIP3    H210342   3.730   1.991   3.697  0.0062  0.0666  1.3992
 3467TIP3   OH210343   3.310   4.141   1.614  0.6068  0.2308 -0.2455
 3467TIP3    H110344   3.303   4.082   1.540  2.8350  0.8191 -0.9869
 3467TIP3    H210345   3.285   4.227   1.579  0.5671  0.3091 -0.0265
 3468TIP3   OH210346   2.896   0.927   3.988 -0.4219 -0.2501 -0.4280
 3468TIP3    H110347   2.809   0.954   4.017 -0.7369 -1.8751  0.2260
 3468TIP3    H210348   2.954   0.953   4.060 -0.8658 -2.1493  0.6562
 3469TIP3   OH210349   2.755   4.921   3.320  0.2293  0.0365 -0.2569
 3469TIP3    H110350   2.737   4.834   3.284  0.7751 -0.9272  1.7159
 3469TIP3    H210351   2.673   4.948   3.360  0.1493  0.3098 -0.5996
 3470TIP3   OH210352   2.828   1.722   4.098 -0.0574 -0.1213  0.0978
 3470TIP3    H110353   2.822   1.647   4.157 -0.2162 -1.6761 -1.8503
 3470TIP3    H210354   2.919   1.751   4.107  0.1288 -0.8143  0.5170
 3471TIP3   OH210355   1.052   3.853   3.266  0.0919  0.0457 -0.0555
 3471TIP3    H110356   0.980   3.800   3.234 -0.0056  0.1175  0.0467
 3471TIP3    H210357   1.016   3.942   3.271 -0.2631 -0.1838  1.4818
 3472TIP3   OH210358   2.534   4.967   3.503 -0.1905  0.6191 -0.4246
 3472TIP3    H110359   2.478   5.026   3.553 -0.4750  0.5659 -0.6770
 3472TIP3    H210360   2.584   4.919   3.569  0.2452  1.3409 -0.2338
 3473TIP3   OH210361   3.985   0.977   2.736  0.0915  0.6856 -0.0516
 3473TIP3    H110362   3.928   1.047   2.767 -0.1255  0.6710 -0.4023
 3473TIP3    H210363   4.062   0.981   2.791 -0.6119  0.1633  0.9801
 3474TIP3   OH210364   4.971   4.568   3.227 -0.3511 -0.0179 -0.4749
 3474TIP3    H110365   4.915   4.607   3.294 -0.0801  1.1495 -0.9136
 3474TIP3    H210366   4.910   4.539   3.159 -0.5736 -0.5884 -0.0333
 3475TIP3   OH210367   8.080   5.292   1.718 -0.7952  0.1520  0.7222
 3475TIP3    H110368   7.988   5.314   1.704 -1.3748 -1.6680  1.5632
 3475TIP3    H210369   8.115   5.277   1.630 -1.4074  0.4707  0.4232
 3476TIP3   OH210370   0.793   2.845   3.405 -0.6010 -0.7198  0.4453
 3476TIP3    H110371   0.849   2.798   3.466  0.4388  1.5317  1.2680
 3476TIP3    H210372   0.734   2.896   3.460  1.6181  2.8426 -0.3498
 3477TIP3   OH210373   3.920   4.271   2.736  0.0081 -0.0336  0.2921
 3477TIP3    H110374   3.983   4.339   2.758 -1.5539  1.1613  1.1434
 3477TIP3    H210375   3.893   4.292   2.647 -0.3014  0.3198  0.4698
 3478TIP3   OH210376   2.213   1.178   1.167  0.1509 -0.2446 -0.1524
 3478TIP3    H110377   2.150   1.228   1.116  0.3684 -1.4842 -1.6730
 3478TIP3    H210378   2.212   1.219   1.254 -0.6934  1.4840 -0.9578
 3479TIP3   OH210379   4.005   3.610   2.749  0.2388  0.5731  0.7485
 3479TIP3    H110380   3.986   3.689   2.699  0.5455 -0.2530 -0.6871
 3479TIP3    H210381   3.925   3.558   2.743  1.2128 -0.7617 -1.2522
 3480TIP3   OH210382   1.672   3.786   5.868 -0.0812  0.0659  0.0938
 3480TIP3    H110383   1.604   3.812   5.931 -0.4211 -1.2092  0.2600
 3480TIP3    H210384   1.745   3.845   5.886 -0.7736  0.7859  0.5947
 3481TIP3   OH210385   0.098   5.222   2.546  0.4755  0.0929 -0.0493
 3481TIP3    H110386   0.037   5.185   2.482 -0.5542  0.5259  0.6669
 3481TIP3    H210387   0.072   5.182   2.629  1.2375  0.2015  0.2437
 3482TIP3   OH210388   0.949   3.628   0.730 -0.2743  0.2813  0.1979
 3482TIP3    H110389   1.025   3.682   0.707  0.6500 -1.1025 -0.0176
 3482TIP3    H210390   0.931   3.577   0.651 -0.3542 -0.6489  0.8111
 3483TIP3   OH210391   3.456   5.695   5.042 -0.0253 -0.5634 -0.0457
 3483TIP3    H110392   3.449   5.616   4.988 -0.6771 -1.2327  0.9762
 3483TIP3    H210393   3.547   5.694   5.074  0.2057 -0.4533 -0.6983
 3484TIP3   OH210394   1.014   3.843   0.937 -0.0374 -0.2061  0.4748
 3484TIP3    H110395   1.016   3.770   0.875 -0.1486 -0.4843  0.7916
 3484TIP3    H210396   1.085   3.901   0.909 -1.0418  0.4311 -0.8080
 3485TIP3   OH210397   2.054   2.967   3.896  0.4868  0.4206  0.6868
 3485TIP3    H110398   1.991   3.027   3.937 -1.2098 -0.8325 -0.0066
 3485TIP3    H210399   2.118   2.949   3.965 -1.1464  0.0077  2.1427
 3486TIP3   OH210400   1.438   3.123   3.996  0.6659  0.2739  0.0478
 3486TIP3    H110401   1.363   3.088   4.044 -2.1563 -0.1465 -4.3295
 3486TIP3    H210402   1.515   3.092   4.044 -1.9277 -2.4161  2.6359
 3487TIP3   OH210403   1.492   4.576   2.454  0.0665 -0.4279  0.7582
 3487TIP3    H110404   1.516   4.632   2.380  0.5138 -0.1433  1.1174
 3487TIP3    H210405   1.535   4.616   2.529  0.1757 -1.1012  1.0611
 3488TIP3   OH210406   0.988   3.359   1.398  0.8855  0.1298  0.2160
 3488TIP3    H110407   0.934   3.410   1.337  0.5277  0.2274  0.6193
 3488TIP3    H210408   0.952   3.271   1.394  0.0889  0.4072  1.2070
 3489TIP3   OH210409   4.161   4.096   1.790 -0.3311 -0.0273 -0.4702
 3489TIP3    H110410   4.146   4.163   1.856  0.6484 -0.4512  0.1928
 3489TIP3    H210411   4.145   4.013   1.835 -0.2028 -0.2955 -0.9124
 3490TIP3   OH210412   1.334   3.405   3.568 -0.4138  0.0190  0.0745
 3490TIP3    H110413   1.380   3.465   3.508 -0.9017  2.0267  1.6769
 3490TIP3    H210414   1.354   3.439   3.655  2.0905 -4.1428  1.2490
 3491TIP3   OH210415   1.081   4.812   2.231  0.3331 -0.9555 -0.2707
 3491TIP3    H110416   1.170   4.847   2.235  0.4899 -1.2821 -0.7803
 3491TIP3    H210417   1.041   4.856   2.156  0.9339 -2.7381 -1.6980
 3492TIP3   OH210418   7.506   3.557   1.656  0.7239 -0.2260  0.3485
 3492TIP3    H110419   7.558   3.609   1.717 -0.5840  2.5426 -0.8131
 3492TIP3    H210420   7.570   3.505   1.608  2.2762  1.7131  0.2517
 3493TIP3   OH210421   0.506   4.739   4.206 -0.1884  0.1334 -0.1714
 3493TIP3    H110422   0.507   4.647   4.230 -0.8656  0.0900 -0.2852
 3493TIP3    H210423   0.416   4.755   4.177  0.3763  0.3979 -1.8239
 3494TIP3   OH210424   3.617   3.363   2.445 -0.2379  0.0144 -0.0361
 3494TIP3    H110425   3.600   3.302   2.373 -0.4233  1.0213 -0.8481
 3494TIP3    H210426   3.558   3.437   2.429  1.7947  1.5716 -0.4761
 3495TIP3   OH210427   3.435   3.215   0.793 -0.1031 -0.1839  0.2776
 3495TIP3    H110428   3.485   3.152   0.845  1.2065 -0.0967 -0.8431
 3495TIP3    H210429   3.426   3.291   0.850 -0.2268 -0.7543  1.0291
 3496TIP3   OH210430   3.903   3.595   2.424 -0.1225  0.1386 -0.4860
 3496TIP3    H110431   3.875   3.505   2.408 -0.6718  0.5049 -1.6330
 3496TIP3    H210432   3.994   3.587   2.452 -0.8206 -0.9238  1.5197
 3497TIP3   OH210433   2.864   5.508   3.993  0.3347  0.1429  0.1481
 3497TIP3    H110434   2.922   5.486   3.920  0.1175 -0.2826  0.0978
 3497TIP3    H210435   2.823   5.590   3.967 -1.3271 -1.0612 -1.1954
 3498TIP3   OH210436   3.007   6.224   2.668  0.4614 -0.0246 -0.0286
 3498TIP3    H110437   2.986   6.220   2.762  0.9940  1.2956  0.1668
 3498TIP3    H210438   3.035   6.315   2.654  2.4733 -0.7641 -1.0170
 3499TIP3   OH210439   3.002   6.905   2.725  0.2815 -0.0836  0.2433
 3499TIP3    H110440   2.947   6.936   2.797  0.2393 -1.7864  0.9763
 3499TIP3    H210441   2.960   6.941   2.647  0.3726  1.8492  1.0506
 3500TIP3   OH210442   1.665   3.539   1.038 -0.0960 -0.4159  0.4473
 3500TIP3    H110443   1.655   3.606   0.969 -0.2153 -0.8429  0.0460
 3500TIP3    H210444   1.596   3.476   1.019 -1.6070  0.6102  2.3057
 3501TIP3   OH210445   4.674   4.526   2.281 -0.2600  0.1991 -0.7307
 3501TIP3    H110446   4.594   4.568   2.312 -1.1244 -1.0816 -1.1717
 3501TIP3    H210447   4.744   4.568   2.331 -1.5120 -0.9181  2.0676
 3502TIP3   OH210448   2.856   3.335   2.735 -0.5351  0.4787  0.1144
 3502TIP3    H110449   2.879   3.335   2.828 -1.3286  0.2797  0.3213
 3502TIP3    H210450   2.829   3.245   2.717 -1.1493  0.7026 -0.1065
 3503TIP3   OH210451   2.630   3.403   2.426  0.5924  0.5577 -0.3687
 3503TIP3    H110452   2.536   3.387   2.423  0.9318 -1.5814 -0.4223
 3503TIP3    H210453   2.670   3.323   2.391  2.4479  1.2476  0.0664
 3504TIP3   OH210454   2.935   3.960   3.777  0.7988 -0.9531 -0.3516
 3504TIP3    H110455   3.009   4.008   3.740  0.8535 -1.2645 -0.6566
 3504TIP3    H210456   2.944   3.970   3.871  0.9179 -0.5274 -0.4104
 3505TIP3   OH210457   1.097   4.902   2.791  0.6294 -0.3731  0.2500
 3505TIP3    H110458   1.087   4.926   2.699 -0.2340 -0.8838  0.1991
 3505TIP3    H210459   1.098   4.986   2.838 -0.3470 -0.1571 -0.0989
 3506TIP3   OH210460   1.419   3.552   3.790 -0.0700  0.2173  0.2463
 3506TIP3    H110461   1.483   3.619   3.766 -0.8861  1.0982  0.4847
 3506TIP3    H210462   1.373   3.590   3.865 -1.0497 -0.2965 -0.0926
 3507TIP3   OH210463   1.579   5.727   4.195  0.1587 -0.7328  0.4484
 3507TIP3    H110464   1.513   5.796   4.200 -1.0751 -1.7825 -0.5519
 3507TIP3    H210465   1.655   5.762   4.240 -1.4104  0.1559  2.5133
 3508TIP3   OH210466   2.758   3.569   4.500 -0.0273 -0.8020  0.1780
 3508TIP3    H110467   2.844   3.575   4.542  0.2323  0.5455 -0.5353
 3508TIP3    H210468   2.723   3.658   4.503 -1.9202 -1.5676  1.5218
 3509TIP3   OH210469   2.530   3.338   1.896  0.1026 -0.0285 -0.0725
 3509TIP3    H110470   2.557   3.370   1.982  1.8352 -1.0845 -0.2017
 3509TIP3    H210471   2.533   3.242   1.904 -1.3858 -0.1620 -0.8106
 3510TIP3   OH210472   2.366   4.398   1.630 -0.2595 -0.0833  0.0616
 3510TIP3    H110473   2.407   4.479   1.600  0.3880 -0.8949 -1.3057
 3510TIP3    H210474   2.436   4.334   1.629 -1.1527 -1.0598 -0.5238
 3511TIP3   OH210475   8.273   4.937   2.224 -0.1623 -0.1944 -0.0891
 3511TIP3    H110476   8.216   4.879   2.275 -0.7170  0.8251  0.4501
 3511TIP3    H210477   8.293   4.887   2.145 -0.7484 -1.0723  0.3095
 3512TIP3   OH210478   8.145   4.753   1.784 -0.6946  0.2259 -0.2472
 3512TIP3    H110479   8.207   4.786   1.850 -2.1226 -2.7101  2.7027
 3512TIP3    H210480   8.195   4.686   1.737 -0.7442 -0.1725  0.2568
 3513TIP3   OH210481   3.792   5.384   2.828 -0.0123 -0.1368 -0.4978
 3513TIP3    H110482   3.819   5.448   2.893  1.1294 -1.0436 -0.0716
 3513TIP3    H210483   3.729   5.431   2.773 -1.0427  0.6215  1.2781
 3514TIP3   OH210484   1.349   3.764   2.557 -0.2964 -0.7336 -0.3628
 3514TIP3    H110485   1.444   3.774   2.559 -0.3775 -0.0915  1.9402
 3514TIP3    H210486   1.326   3.740   2.647 -2.5507  1.4843 -0.2934
 3515TIP3   OH210487   2.800   2.480   2.391 -0.4392  0.4850  0.0082
 3515TIP3    H110488   2.737   2.507   2.324 -1.0167 -1.3390 -0.1993
 3515TIP3    H210489   2.862   2.424   2.345 -0.0661  0.3099  0.7176
 3516TIP3   OH210490   1.051   4.393   1.631 -0.0028  0.1831  0.5265
 3516TIP3    H110491   0.992   4.329   1.669 -0.5116  0.2571 -0.1365
 3516TIP3    H210492   1.040   4.383   1.537  1.0908  0.1524  0.3998
 3517TIP3   OH210493   1.810   2.223   5.249 -0.0421  0.0621  0.4870
 3517TIP3    H110494   1.884   2.283   5.241 -0.8736  1.0622  0.1791
 3517TIP3    H210495   1.770   2.221   5.162 -1.0662  0.4455  0.9362
 3518TIP3   OH210496   1.920   4.031   1.247  0.1141 -0.3116 -0.6495
 3518TIP3    H110497   1.994   4.032   1.186  0.5586 -1.5964 -0.1385
 3518TIP3    H210498   1.949   3.977   1.320 -0.7697  0.4511  0.2842
 3519TIP3   OH210499   3.676   2.731   2.160  0.3781 -0.2598 -0.6458
 3519TIP3    H110500   3.737   2.689   2.100 -1.1541 -1.9761 -1.0666
 3519TIP3    H210501   3.717   2.724   2.246  2.4448  1.9313 -1.4162
 3520TIP3   OH210502   3.236   5.266   4.502 -0.1276 -0.7329 -0.4330
 3520TIP3    H110503   3.312   5.213   4.526  1.2673  1.5681  0.4205
 3520TIP3    H210504   3.190   5.280   4.585  0.1545  0.3339 -0.4504
 3521TIP3   OH210505   2.085   3.305   3.395 -0.6437  0.1434 -0.1944
 3521TIP3    H110506   2.064   3.303   3.488  0.9423 -1.1134  0.1556
 3521TIP3    H210507   2.174   3.270   3.390 -0.6902  0.2769 -2.1682
 3522TIP3   OH210508   0.408   3.865   2.425 -0.5913  0.1132 -0.4941
 3522TIP3    H110509   0.387   3.888   2.334  0.7943 -0.9917 -1.1078
 3522TIP3    H210510   0.503   3.876   2.431 -0.6274 -0.1748  0.7238
 3523TIP3   OH210511   7.829   1.917   3.526 -0.2670  0.1004 -0.8438
 3523TIP3    H110512   7.862   1.981   3.589 -0.7073 -0.4299 -0.0751
 3523TIP3    H210513   7.784   1.970   3.460 -0.5571  0.5845 -0.2609
 3524TIP3   OH210514   2.514   5.242   3.976 -0.3322  0.4512 -0.0401
 3524TIP3    H110515   2.508   5.298   3.899 -0.1765 -1.1541 -1.2374
 3524TIP3    H210516   2.607   5.228   3.989 -0.4086 -0.3625 -0.3592
 3525TIP3   OH210517   4.556   4.156   3.915  0.0382  0.5574 -0.0870
 3525TIP3    H110518   4.586   4.070   3.946  0.4326  0.5137 -0.5700
 3525TIP3    H210519   4.584   4.217   3.983 -1.4412  0.1432  0.9138
 3526TIP3   OH210520   2.187   2.144   2.363  0.2800  0.1172 -0.0296
 3526TIP3    H110521   2.095   2.167   2.373  0.3629  0.7098 -0.5532
 3526TIP3    H210522   2.235   2.225   2.384  0.6308  0.0906 -0.6928
 3527TIP3   OH210523   2.890   3.716   4.263  0.0134 -0.0944  0.8062
 3527TIP3    H110524   2.895   3.789   4.324  1.8879  0.7679 -0.3472
 3527TIP3    H210525   2.866   3.641   4.318  0.9730  0.7983  2.4926
 3528TIP3   OH210526   4.058   3.995   3.202  0.2960  0.1181 -0.0201
 3528TIP3    H110527   4.046   3.916   3.150 -0.4950  0.5645 -0.5276
 3528TIP3    H210528   4.049   3.967   3.292 -0.0485 -0.3567 -0.2040
 3529TIP3   OH210529   1.798   4.522   3.044  0.0366  0.3919  0.4529
 3529TIP3    H110530   1.781   4.599   2.991 -1.7922  0.4420  1.0596
 3529TIP3    H210531   1.748   4.536   3.124  1.2249 -0.5497  1.3910
 3530TIP3   OH210532   0.552   4.771   3.078  0.0097 -0.1893  0.2260
 3530TIP3    H110533   0.596   4.853   3.056 -0.3397 -0.6454 -2.2178
 3530TIP3    H210534   0.533   4.730   2.994 -2.4808 -1.3894  1.3392
 3531TIP3   OH210535   2.428   2.105   3.361  0.0426  0.0554 -0.6416
 3531TIP3    H110536   2.505   2.091   3.305  0.5536 -1.2247  0.3757
 3531TIP3    H210537   2.354   2.077   3.307  0.4261 -0.1445 -1.0645
 3532TIP3   OH210538   1.500   2.875   2.318 -0.2163  0.7376 -0.0670
 3532TIP3    H110539   1.506   2.966   2.290  0.1408  0.5266 -0.6757
 3532TIP3    H210540   1.560   2.869   2.393  0.0920  0.8985 -0.2990
 3533TIP3   OH210541   2.478   0.919   3.275 -0.2393 -0.4411 -0.2947
 3533TIP3    H110542   2.489   0.841   3.330 -0.3033 -0.5638 -0.4539
 3533TIP3    H210543   2.433   0.982   3.331 -0.1268 -0.4946 -0.1428
 3534TIP3   OH210544   4.018   3.932   3.446  0.0309  0.5345  0.4496
 3534TIP3    H110545   4.097   3.912   3.495 -1.0573  2.1187  2.9681
 3534TIP3    H210546   3.946   3.904   3.503 -1.2722 -0.5098 -1.6080
 3535TIP3   OH210547   3.929   4.758   2.491 -0.1702  0.3690 -0.0527
 3535TIP3    H110548   3.834   4.752   2.502 -0.4012  2.1660 -0.7470
 3535TIP3    H210549   3.960   4.795   2.574 -0.0535 -0.3965  0.2446
 3536TIP3   OH210550   1.409   2.154   3.731  0.2214  0.1156 -0.0280
 3536TIP3    H110551   1.472   2.144   3.802 -0.2240  1.1568  0.5303
 3536TIP3    H210552   1.379   2.245   3.738 -2.3002 -0.7098  0.5156
 3537TIP3   OH210553   2.503   0.580   3.736 -0.1969  0.2230  0.5137
 3537TIP3    H110554   2.560   0.572   3.660 -0.2488  0.4611  0.4486
 3537TIP3    H210555   2.547   0.645   3.792 -1.5280  2.1141 -0.5635
 3538TIP3   OH210556   3.579   4.753   2.845 -0.5783 -0.1644 -0.4694
 3538TIP3    H110557   3.495   4.785   2.876 -0.1230  1.2384 -0.6248
 3538TIP3    H210558   3.571   4.753   2.749  0.3193  2.1014 -0.5795
 3539TIP3   OH210559   1.983   1.351   3.248 -0.5542  0.4090  0.3004
 3539TIP3    H110560   1.912   1.400   3.289  0.3584  0.1864  2.2184
 3539TIP3    H210561   2.053   1.416   3.237 -0.3774  0.2000  0.1955
 3540TIP3   OH210562   0.047   4.105   4.828  0.2153 -0.1788 -0.6414
 3540TIP3    H110563   0.009   4.192   4.841  1.5606  0.3984 -0.4470
 3540TIP3    H210564   0.034   4.060   4.911 -1.6711 -0.6456 -1.1699
 3541TIP3   OH210565   1.764   5.567   2.269  0.2289  0.3718  0.4478
 3541TIP3    H110566   1.778   5.535   2.179 -0.1725  0.4704  0.3519
 3541TIP3    H210567   1.841   5.536   2.317  1.2564  1.7042 -0.2951
 3542TIP3   OH210568   8.480   4.968   3.460  0.0519  0.4100 -0.0597
 3542TIP3    H110569   8.469   4.879   3.428  0.0753  0.4720 -0.2418
 3542TIP3    H210570   8.394   5.009   3.446  0.1037  0.4794 -0.1778
 3543TIP3   OH210571   4.407   5.518   2.471  0.1084  0.0325  0.3611
 3543TIP3    H110572   4.336   5.521   2.535 -0.8987  1.0713 -0.7802
 3543TIP3    H210573   4.467   5.587   2.499  1.4952 -1.8863  2.2402
 3544TIP3   OH210574   4.316   2.000   3.730  0.0051 -0.3435  0.2757
 3544TIP3    H110575   4.224   2.004   3.703  0.5402 -0.4560 -1.6471
 3544TIP3    H210576   4.347   2.090   3.723  0.3493 -0.4981 -0.2276
 3545TIP3   OH210577   8.121   3.740   4.218  0.5484  0.5124  0.4794
 3545TIP3    H110578   8.199   3.699   4.256  0.1593 -0.3757  0.3173
 3545TIP3    H210579   8.151   3.826   4.189  0.8184  1.3339  3.0202
 3546TIP3   OH210580   1.840   4.116   2.312 -0.6626 -0.7618  0.2970
 3546TIP3    H110581   1.808   4.103   2.223  0.4151  0.6939 -0.3245
 3546TIP3    H210582   1.821   4.207   2.332 -0.0553 -0.8244  1.1985
 3547TIP3   OH210583   3.966   4.764   4.086  0.0568 -0.1040  0.7354
 3547TIP3    H110584   3.899   4.787   4.150  0.1351  1.5770  0.2418
 3547TIP3    H210585   4.041   4.819   4.109  0.0837  0.5194 -0.8022
 3548TIP3   OH210586   3.537   6.039   2.682 -0.2702 -0.3143 -0.1783
 3548TIP3    H110587   3.580   6.113   2.638  1.0850 -0.3360  1.0655
 3548TIP3    H210588   3.470   6.080   2.737 -0.1388 -0.0604 -0.2024
 3549TIP3   OH210589   1.310   6.654   2.963  0.5339  0.1329  0.2953
 3549TIP3    H110590   1.307   6.569   2.918 -0.2783  0.6750 -0.6900
 3549TIP3    H210591   1.263   6.639   3.045 -2.6901  0.4794 -1.3823
 3550TIP3   OH210592   0.938   4.638   1.903 -0.7189  0.3655  0.2214
 3550TIP3    H110593   0.847   4.645   1.874 -0.3934 -0.9193 -1.1654
 3550TIP3    H210594   0.990   4.669   1.829  0.1057 -2.3605 -0.4003
 3551TIP3   OH210595   2.694   4.330   3.262 -0.6452  0.6205  0.3976
 3551TIP3    H110596   2.664   4.385   3.334  0.0458  3.1778 -1.1796
 3551TIP3    H210597   2.789   4.335   3.266 -0.5675 -0.7507  0.4281
 3552TIP3   OH210598   4.478   3.773   3.544 -0.3311  0.4025 -0.5109
 3552TIP3    H110599   4.528   3.747   3.621 -0.8684  0.9909  0.0475
 3552TIP3    H210600   4.502   3.710   3.477 -0.6845 -0.7713  0.4534
 3553TIP3   OH210601   2.250   2.521   5.088  0.3258  0.3320  0.2335
 3553TIP3    H110602   2.288   2.588   5.032  1.1614  0.7300  1.2514
 3553TIP3    H210603   2.274   2.438   5.046  1.8177  0.6003  0.5353
 3554TIP3   OH210604   1.983   2.807   6.036 -0.1919  0.6613  0.4967
 3554TIP3    H110605   1.980   2.827   6.130 -0.2251 -1.5868  1.0010
 3554TIP3    H210606   1.911   2.858   5.998 -1.2928  0.2490  1.9776
 3555TIP3   OH210607   3.474   5.342   3.299 -0.4927 -0.8994  0.3416
 3555TIP3    H110608   3.449   5.301   3.382 -3.3920 -0.2071 -0.1468
 3555TIP3    H210609   3.465   5.272   3.234  0.3094 -1.0377  0.3741
 3556TIP3   OH210610   1.383   1.805   2.727 -0.1918 -0.2806  0.1122
 3556TIP3    H110611   1.448   1.759   2.781  2.7771  1.6601 -1.6647
 3556TIP3    H210612   1.340   1.866   2.787  1.5686  0.3582  0.7499
 3557TIP3   OH210613   2.244   0.583   3.787  0.4118  0.4630 -0.0556
 3557TIP3    H110614   2.338   0.569   3.785  0.1390 -1.5942  0.5373
 3557TIP3    H210615   2.214   0.563   3.698  0.2303 -1.2331  0.3802
 3558TIP3   OH210616   1.961   3.461   2.230 -0.0736 -0.2635  0.2834
 3558TIP3    H110617   2.042   3.477   2.278 -0.6106  1.2510  0.7119
 3558TIP3    H210618   1.893   3.507   2.280 -0.9837 -0.4096 -0.7862
 3559TIP3   OH210619   2.353   0.728   3.134 -0.3686  0.2297  0.2957
 3559TIP3    H110620   2.396   0.783   3.200 -0.3363 -0.7974  1.1499
 3559TIP3    H210621   2.415   0.726   3.060  0.2515  0.2179  0.8079
 3560TIP3   OH210622   7.050   0.858   1.900 -0.1454 -0.1096 -0.1902
 3560TIP3    H110623   7.051   0.941   1.948 -0.3780 -0.0422 -0.2992
 3560TIP3    H210624   7.129   0.860   1.846 -0.0118 -0.0759  0.0049
 3561TIP3   OH210625   2.755   2.502   3.421 -0.1889 -0.3196 -0.7551
 3561TIP3    H110626   2.663   2.527   3.417 -0.5598 -1.3148  1.0361
 3561TIP3    H210627   2.803   2.584   3.417 -1.2996  0.5557  2.5111
 3562TIP3   OH210628   1.117   3.481   3.411  0.3089 -0.1739  0.1311
 3562TIP3    H110629   1.155   3.416   3.470  1.2209 -0.3346 -0.6265
 3562TIP3    H210630   1.191   3.510   3.356 -0.4306  0.3064 -0.6214
 3563TIP3   OH210631   2.024   6.036   1.598 -0.3827  0.0332 -0.1431
 3563TIP3    H110632   2.069   6.118   1.581 -3.6996  1.8613 -0.5924
 3563TIP3    H210633   2.035   6.020   1.692 -0.4797  1.4930  0.1199
 3564TIP3   OH210634   2.043   6.605   3.293 -0.0343 -0.6163  0.2517
 3564TIP3    H110635   2.125   6.557   3.304  0.1559 -1.0613 -2.7365
 3564TIP3    H210636   1.978   6.554   3.341  1.0793 -1.2877  1.0495
 3565TIP3   OH210637   2.193   3.294   3.672 -0.1781  0.1054  0.2634
 3565TIP3    H110638   2.212   3.201   3.690 -2.6761 -0.8414 -1.7483
 3565TIP3    H210639   2.263   3.322   3.613 -0.7837 -1.2372 -1.1277
 3566TIP3   OH210640   1.218   3.026   4.106 -0.2676 -0.0923 -0.0452
 3566TIP3    H110641   1.202   2.945   4.156  1.0913 -1.1500 -1.2552
 3566TIP3    H210642   1.135   3.073   4.109 -0.4567 -0.4845  2.5406
 3567TIP3   OH210643   2.284   4.786   3.413 -0.0012 -0.4324  0.3941
 3567TIP3    H110644   2.222   4.729   3.458 -2.0390  0.6566 -0.9354
 3567TIP3    H210645   2.273   4.872   3.455  1.2493 -0.4188  0.7238
 3568TIP3   OH210646   4.122   2.923   4.293  0.0703 -0.0888 -0.3426
 3568TIP3    H110647   4.123   2.937   4.388  0.8560 -2.0928 -0.0421
 3568TIP3    H210648   4.188   2.856   4.278 -1.5943 -1.3783 -2.0687
 3569TIP3   OH210649   3.353   5.854   6.265  0.4057 -0.6050 -0.1121
 3569TIP3    H110650   3.358   5.850   6.361  1.5855 -1.4696 -0.1991
 3569TIP3    H210651   3.413   5.925   6.241  0.0716 -0.3549 -0.2133
 3570TIP3   OH210652   3.052   3.305   0.951  0.4399 -0.5196 -0.0232
 3570TIP3    H110653   2.961   3.334   0.958  0.8750  0.7552  0.5336
 3570TIP3    H210654   3.049   3.211   0.969 -0.4213 -0.0029  2.7240
 3571TIP3   OH210655   4.373   2.213   3.489 -0.2564  0.7978 -0.3389
 3571TIP3    H110656   4.400   2.229   3.580 -3.0820  0.1537  0.6888
 3571TIP3    H210657   4.432   2.144   3.459  0.7180  1.0114  1.0188
 3572TIP3   OH210658   3.899   4.242   3.409 -0.3051  0.5247  0.1299
 3572TIP3    H110659   3.879   4.231   3.316  1.2110  0.6069 -0.2204
 3572TIP3    H210660   3.823   4.288   3.445 -1.9660 -1.5686 -0.5684
 3573TIP3   OH210661   3.048   5.584   2.636  0.0942  0.5465 -0.0479
 3573TIP3    H110662   3.089   5.550   2.557 -1.2363  0.5934 -0.7690
 3573TIP3    H210663   2.988   5.514   2.663 -0.9001  1.3502 -0.1872
 3574TIP3   OH210664   2.698   5.510   2.674  0.5644  0.1929  0.6384
 3574TIP3    H110665   2.784   5.471   2.688  1.2016  1.6389  0.8423
 3574TIP3    H210666   2.689   5.575   2.743  0.1821  1.4974 -0.6184
 3575TIP3   OH210667   1.528   2.387   2.927  0.2236  0.0544  0.0237
 3575TIP3    H110668   1.574   2.467   2.901  1.7157  0.0130  2.4449
 3575TIP3    H210669   1.579   2.316   2.887  1.5995  0.0750  1.7039
 3576TIP3   OH210670   4.551   3.629   3.761 -1.1362 -0.4852 -0.1289
 3576TIP3    H110671   4.637   3.625   3.803 -0.9381  2.2827 -0.1695
 3576TIP3    H210672   4.538   3.542   3.722  1.6727 -0.8775 -0.2347
 3577TIP3   OH210673   4.412   5.895   3.125  0.4289 -0.4448 -0.1078
 3577TIP3    H110674   4.337   5.925   3.177  1.4936  0.9946  0.6203
 3577TIP3    H210675   4.385   5.808   3.093 -0.7593 -0.7929  1.7549
 3578TIP3   OH210676   4.245   3.558   3.677  0.7034  0.1744  0.1289
 3578TIP3    H110677   4.203   3.482   3.637 -0.1240 -0.1259  1.5280
 3578TIP3    H210678   4.339   3.543   3.665  0.5521 -1.1307  0.4730
 3579TIP3   OH210679   5.052   3.374   2.059  0.0467 -0.2159 -0.1697
 3579TIP3    H110680   4.958   3.366   2.073  0.0058  1.3749  0.5965
 3579TIP3    H210681   5.079   3.289   2.025 -1.0695 -1.8802  2.9184
 3580TIP3   OH210682   3.401   5.230   3.538 -0.1324  0.0374 -0.1129
 3580TIP3    H110683   3.423   5.298   3.602  1.6936  0.6722 -1.3760
 3580TIP3    H210684   3.426   5.148   3.581  0.9777  0.4477  0.0461
 3581TIP3   OH210685   6.054   1.865   4.611  0.2008 -0.1915  0.0559
 3581TIP3    H110686   6.097   1.824   4.536  2.7000  0.8322  0.8802
 3581TIP3    H210687   6.100   1.831   4.687 -0.6236  0.7288  0.9910
 3582TIP3   OH210688   4.590   4.884   2.462 -0.0480  0.1800 -0.6840
 3582TIP3    H110689   4.634   4.840   2.534 -0.1067  0.6864 -0.3322
 3582TIP3    H210690   4.570   4.972   2.496  1.5055  1.0276 -1.8962
 3583TIP3   OH210691   2.853   3.286   0.095 -0.2954  0.1752  0.9895
 3583TIP3    H110692   2.939   3.284   0.136  0.1031 -1.9714  0.1484
 3583TIP3    H210693   2.812   3.203   0.121 -0.9921 -0.1069 -0.9101
 3584TIP3   OH210694   4.292   4.165   3.219  0.5953 -0.0638 -0.4495
 3584TIP3    H110695   4.247   4.173   3.303  1.0601 -0.0603 -0.1952
 3584TIP3    H210696   4.253   4.088   3.178  0.2310  0.0499 -0.3173
 3585TIP3   OH210697   5.509   5.045   1.939 -0.3518  0.2848 -0.1442
 3585TIP3    H110698   5.485   5.132   1.970  1.8534  0.3914  1.3345
 3585TIP3    H210699   5.553   5.060   1.855 -0.2727  0.5634 -0.0520
 3586TIP3   OH210700   3.928   3.610   1.578  0.2620 -0.4660  0.1235
 3586TIP3    H110701   3.991   3.545   1.547 -0.0876 -0.9835  0.4986
 3586TIP3    H210702   3.857   3.608   1.515  0.2591 -0.4346  0.1256
 3587TIP3   OH210703   3.397   5.635   2.187 -0.2711  0.2831 -0.1093
 3587TIP3    H110704   3.402   5.676   2.274 -1.7735 -1.5782  0.8919
 3587TIP3    H210705   3.479   5.587   2.179 -0.1509  0.4114  0.3203
 3588TIP3   OH210706   2.791   4.743   1.815  0.7945 -0.5140  0.0156
 3588TIP3    H110707   2.816   4.699   1.734  2.0539  0.4939 -0.1695
 3588TIP3    H210708   2.841   4.825   1.814 -1.6531  1.0576  0.2253
 3589TIP3   OH210709   2.340   1.261   2.393  0.1635  0.4059  0.6681
 3589TIP3    H110710   2.248   1.248   2.373  0.2227  0.3439  0.4333
 3589TIP3    H210711   2.348   1.355   2.408  0.1074  0.4444  0.4554
 3590TIP3   OH210712   2.821   4.159   2.762  0.4433 -0.4290 -0.2734
 3590TIP3    H110713   2.730   4.130   2.754 -0.3145  1.6830  0.3389
 3590TIP3    H210714   2.861   4.135   2.679 -0.7589 -1.0495 -0.6922
 3591TIP3   OH210715   3.805   4.845   2.967  0.2749  0.7801  0.3063
 3591TIP3    H110716   3.741   4.804   2.908  0.6984  0.1483  0.2831
 3591TIP3    H210717   3.772   4.934   2.980 -0.1272  0.7424 -0.4303
 3592TIP3   OH210718   2.097   5.261   2.545 -0.4366 -0.2163 -0.1725
 3592TIP3    H110719   2.177   5.312   2.560 -1.0550  0.8960 -0.6211
 3592TIP3    H210720   2.127   5.182   2.499  0.5063 -0.2196  0.4240
 3593TIP3   OH210721   3.050   3.962   2.299  0.1683  0.0241 -0.5337
 3593TIP3    H110722   3.080   3.880   2.340  1.7353  0.1404 -1.4256
 3593TIP3    H210723   3.120   4.025   2.317 -0.8441  1.0768 -0.2053
 3594TIP3   OH210724   5.791   2.473   2.103  0.1945  0.2319 -0.4923
 3594TIP3    H110725   5.741   2.397   2.134 -1.6695  1.7169  0.2978
 3594TIP3    H210726   5.804   2.457   2.009 -0.8711 -0.6969 -0.4891
 3595TIP3   OH210727   4.465   3.197   2.715  0.6453 -0.4752  0.2027
 3595TIP3    H110728   4.441   3.283   2.682  2.0296 -0.2553 -0.2595
 3595TIP3    H210729   4.391   3.171   2.771 -0.6543  0.1489 -1.2075
 3596TIP3   OH210730   3.173   4.789   0.292 -0.1191 -0.4921  0.0438
 3596TIP3    H110731   3.160   4.694   0.290  0.0096 -0.5153  0.4938
 3596TIP3    H210732   3.099   4.822   0.343  0.0013 -0.3716  0.1372
 3597TIP3   OH210733   3.860   6.503   1.807 -0.3466 -0.0339  0.1759
 3597TIP3    H110734   3.862   6.517   1.712 -1.7872  2.2661  0.4369
 3597TIP3    H210735   3.943   6.538   1.838  0.1441 -0.8231 -0.2148
 3598TIP3   OH210736   3.183   2.909   1.920 -0.3512 -0.0227  0.1462
 3598TIP3    H110737   3.193   3.004   1.920  0.5457 -0.1096  0.7299
 3598TIP3    H210738   3.099   2.893   1.964 -0.1561  0.4646  0.6924
 3599TIP3   OH210739   3.609   3.300   2.893 -0.1963  0.0746 -0.0520
 3599TIP3    H110740   3.594   3.269   2.804  0.2912  0.1768 -0.1758
 3599TIP3    H210741   3.644   3.224   2.939 -0.6136 -0.0266  0.1001
 3600TIP3   OH210742   4.897   2.729   2.915  0.3660 -0.0645 -0.2076
 3600TIP3    H110743   4.945   2.653   2.882 -0.2226  0.2322 -1.7500
 3600TIP3    H210744   4.872   2.704   3.004  0.4654 -1.5474 -0.5802
 3601TIP3   OH210745   5.527   3.093   1.324  0.1035  0.2677  0.3495
 3601TIP3    H110746   5.488   3.177   1.352  0.4465  0.7728 -0.6601
 3601TIP3    H210747   5.457   3.049   1.276  0.1280  0.2693  0.3123
 3602TIP3   OH210748   3.160   4.934   2.087  0.3213 -0.2041 -0.6281
 3602TIP3    H110749   3.209   4.949   2.006  2.5590 -0.8603  0.5704
 3602TIP3    H210750   3.075   4.977   2.072  1.5867  1.7868 -2.4038
 3603TIP3   OH210751   2.730   1.527   2.651 -0.2578  0.4679  0.5729
 3603TIP3    H110752   2.660   1.530   2.716 -0.0394  0.3020  0.8176
 3603TIP3    H210753   2.705   1.592   2.585 -0.2880  0.9159  1.0181
 3604TIP3   OH210754   3.374   5.799   4.030  0.0303  0.1443 -0.3091
 3604TIP3    H110755   3.350   5.887   4.000  0.6301 -0.2993 -2.2134
 3604TIP3    H210756   3.401   5.810   4.121  1.0373  2.1003 -0.8198
 3605TIP3   OH210757   2.846   4.174   3.554  0.1255  0.2555  0.2152
 3605TIP3    H110758   2.901   4.152   3.479  0.7348  0.9399  0.4526
 3605TIP3    H210759   2.880   4.119   3.625 -0.4482 -0.3890 -0.0090
 3606TIP3   OH210760   3.564   1.897   2.684 -0.2673  0.0924  0.2246
 3606TIP3    H110761   3.479   1.913   2.725 -0.8792 -1.1620 -0.5293
 3606TIP3    H210762   3.593   1.983   2.654 -1.7943  0.3721 -0.5087
 3607TIP3   OH210763   3.033   1.710   0.027 -0.0287 -0.8227  0.4862
 3607TIP3    H110764   2.984   1.703   0.108  0.2515 -0.2907  0.7083
 3607TIP3    H210765   2.988   1.779  -0.022 -0.7062 -1.7244 -0.1802
 3608TIP3   OH210766   2.557   2.676   1.478  0.3183 -0.0626 -0.2761
 3608TIP3    H110767   2.525   2.765   1.492 -0.0130 -0.1223 -0.6448
 3608TIP3    H210768   2.494   2.636   1.418  1.7439  0.2265 -2.0449
 3609TIP3   OH210769   4.261   7.849   6.487  0.3771 -0.4478 -0.4404
 3609TIP3    H110770   4.241   7.770   6.538  0.0748 -0.4020 -0.4822
 3609TIP3    H210771   4.188   7.856   6.425  1.2550 -1.0575 -1.5466
 3610TIP3   OH210772   2.524   3.438   3.273 -0.3222  0.6687  0.1229
 3610TIP3    H110773   2.547   3.516   3.222 -0.2701  1.4350  1.2731
 3610TIP3    H210774   2.598   3.378   3.260  0.6774  1.6816  0.9235
 3611TIP3   OH210775   5.047   3.656   3.750 -0.5586  0.1133 -0.0229
 3611TIP3    H110776   5.141   3.665   3.733 -0.7413  1.4252 -0.4299
 3611TIP3    H210777   5.038   3.571   3.791  1.0548  0.8000  1.8196
 3612TIP3   OH210778   2.419   5.286   2.873 -0.3258  0.2113  0.0072
 3612TIP3    H110779   2.467   5.279   2.956  0.1734  2.3546 -0.0601
 3612TIP3    H210780   2.477   5.246   2.808 -0.3566 -0.7427  0.5681
 3613TIP3   OH210781   5.419   3.467   2.355 -0.4818 -0.2548 -0.0075
 3613TIP3    H110782   5.471   3.450   2.276 -0.3537  1.2380 -0.2568
 3613TIP3    H210783   5.341   3.413   2.344 -1.1972  1.1108 -1.8952
 3614TIP3   OH210784   1.847   3.253   3.042 -0.2459 -0.3149 -0.4915
 3614TIP3    H110785   1.899   3.197   3.100 -3.0343 -1.9906  0.5114
 3614TIP3    H210786   1.909   3.317   3.008  2.2454 -1.6416  1.3918
 3615TIP3   OH210787   4.467   4.718   1.735  0.1797 -0.5322 -0.4484
 3615TIP3    H110788   4.468   4.735   1.640  0.0953 -0.9806 -0.5298
 3615TIP3    H210789   4.384   4.755   1.765 -0.5963 -1.9087 -0.8353
 3616TIP3   OH210790   3.443   4.412   2.879 -0.3546 -0.4696 -0.1797
 3616TIP3    H110791   3.525   4.366   2.895 -0.0271  0.5919  1.3291
 3616TIP3    H210792   3.447   4.489   2.936 -1.8018  0.3202 -1.1029
 3617TIP3   OH210793   5.046   6.302   2.499  0.4946  0.7722 -0.3399
 3617TIP3    H110794   5.052   6.318   2.593  0.9671  0.1288 -0.2586
 3617TIP3    H210795   4.968   6.247   2.489  1.3871 -0.5511 -0.1379
 3618TIP3   OH210796   1.726   4.037   2.079  0.3124 -0.0497 -0.1938
 3618TIP3    H110797   1.781   4.031   2.000  0.4418 -0.9740 -0.0401
 3618TIP3    H210798   1.654   3.976   2.063  0.5184 -0.4969  0.5371
 3619TIP3   OH210799   2.926   6.654   3.974 -0.1606 -0.2876 -0.2263
 3619TIP3    H110800   3.007   6.624   3.933 -0.5876 -0.9228 -0.6150
 3619TIP3    H210801   2.858   6.600   3.934 -0.7410  0.0467  0.3107
 3620TIP3   OH210802   3.238   3.785   2.416 -0.7469  0.1886  0.1835
 3620TIP3    H110803   3.314   3.813   2.365 -0.2160 -1.6213 -0.0562
 3620TIP3    H210804   3.268   3.787   2.507 -0.2005 -1.1428  0.0388
 3621TIP3   OH210805   4.661   6.498   6.810  0.1537  0.2759  0.2560
 3621TIP3    H110806   4.705   6.576   6.844  0.4633  0.5382 -0.7427
 3621TIP3    H210807   4.568   6.520   6.816  0.1805  0.1372  1.3620
 3622TIP3   OH210808   4.941   4.259   4.647 -0.0272 -0.0977 -0.5741
 3622TIP3    H110809   4.874   4.231   4.584 -1.0585 -0.5134  0.6631
 3622TIP3    H210810   5.024   4.234   4.607 -0.8118 -3.1066 -0.4741
 3623TIP3   OH210811   3.660   6.808   3.726 -0.4918  0.4444 -0.3349
 3623TIP3    H110812   3.581   6.803   3.779 -0.5698  0.4522 -0.4510
 3623TIP3    H210813   3.731   6.812   3.790 -0.5254 -0.4373 -0.2395
 3624TIP3   OH210814   1.868   1.317   3.971  0.0047  0.0113 -0.1339
 3624TIP3    H110815   1.872   1.410   3.992  0.5365 -0.1035  0.2621
 3624TIP3    H210816   1.912   1.309   3.886  0.2262  0.0755 -0.0242
 3625TIP3   OH210817   6.552   2.893   2.667 -0.1463 -0.1606  0.5347
 3625TIP3    H110818   6.505   2.890   2.750 -2.7764 -2.6508 -0.9773
 3625TIP3    H210819   6.496   2.943   2.609  0.2473 -0.9894 -0.5821
 3626TIP3   OH210820   6.418   1.197   2.943 -0.1553  0.7528 -0.6527
 3626TIP3    H110821   6.500   1.170   2.985  0.3273  0.8291 -1.5078
 3626TIP3    H210822   6.392   1.276   2.990  1.3809  1.9166 -1.6923
 3627TIP3   OH210823   2.422   2.147   1.261 -0.1289 -0.1373  0.5191
 3627TIP3    H110824   2.491   2.190   1.211 -0.9949  1.3471  0.5829
 3627TIP3    H210825   2.362   2.218   1.286 -0.1012 -0.9390  3.0275
 3628TIP3   OH210826   4.230   3.233   2.863  0.7363  0.0779  0.7694
 3628TIP3    H110827   4.137   3.229   2.839  1.3415  0.1965 -1.7478
 3628TIP3    H210828   4.259   3.319   2.833  1.6780  0.0216  1.4999
 3629TIP3   OH210829   3.494   2.764   2.912 -1.0528 -0.4941 -0.5265
 3629TIP3    H110830   3.405   2.781   2.882 -0.8667 -0.4351 -1.0518
 3629TIP3    H210831   3.508   2.826   2.984 -0.5267  1.2993 -2.1502
 3630TIP3   OH210832   4.790   4.112   1.090 -0.7395 -0.3815 -0.0031
 3630TIP3    H110833   4.811   4.203   1.068  0.0794 -0.9580 -1.7208
 3630TIP3    H210834   4.842   4.094   1.168 -0.1324  0.3281 -0.2329
 3631TIP3   OH210835   2.477   5.363   2.561 -0.1029 -0.5585 -0.4196
 3631TIP3    H110836   2.545   5.416   2.604  0.5028  1.0971 -3.3365
 3631TIP3    H210837   2.510   5.273   2.567  0.4094 -0.2750  1.6709
 3632TIP3   OH210838   4.647   5.396   2.543  0.1680  0.1916 -0.6002
 3632TIP3    H110839   4.561   5.416   2.507  1.5732  0.3787 -4.1158
 3632TIP3    H210840   4.670   5.311   2.504  1.1150 -0.4321  1.2259
 3633TIP3   OH210841   4.482   5.836   3.924  0.4888  0.0454  0.3548
 3633TIP3    H110842   4.416   5.866   3.861 -1.0387 -1.9741  0.9084
 3633TIP3    H210843   4.543   5.909   3.933 -3.0906  2.9875  1.7749
 3634TIP3   OH210844   3.374   4.804   3.475  0.2879 -0.9686  0.5688
 3634TIP3    H110845   3.339   4.811   3.387 -0.0085 -2.6360  0.5323
 3634TIP3    H210846   3.336   4.878   3.523 -1.8972 -1.7392  0.0780
 3635TIP3   OH210847   4.642   4.049   2.168 -0.0167 -0.0199  0.3101
 3635TIP3    H110848   4.719   3.996   2.188  0.1858 -0.1276 -0.6968
 3635TIP3    H210849   4.571   4.008   2.218  0.4677 -0.2420  0.8206
 3636TIP3   OH210850   3.260   1.062   0.901  0.5229  0.5600  0.7544
 3636TIP3    H110851   3.188   1.123   0.883  0.6156  0.1627 -1.0738
 3636TIP3    H210852   3.232   1.013   0.978 -0.6321  1.2449  0.7719
 3637TIP3   OH210853   2.624   3.714   2.875  0.3185  0.3710 -0.0380
 3637TIP3    H110854   2.697   3.749   2.825  0.6458 -0.2205  0.0243
 3637TIP3    H210855   2.599   3.634   2.829  1.1570 -0.6304  1.2033
 3638TIP3   OH210856   5.625   2.457   2.719  0.1992  0.2924 -0.1057
 3638TIP3    H110857   5.714   2.455   2.683 -0.0213 -0.3233 -0.6442
 3638TIP3    H210858   5.637   2.449   2.813  0.6838 -0.6292 -0.2383
 3639TIP3   OH210859   3.691   5.484   2.509  0.1643 -0.1049  0.3526
 3639TIP3    H110860   3.744   5.547   2.461  0.5806  0.2858  1.3021
 3639TIP3    H210861   3.641   5.538   2.571 -2.0496 -0.3649 -1.1485
 3640TIP3   OH210862   2.748   2.602   4.081 -0.3174  0.2737  0.4532
 3640TIP3    H110863   2.820   2.662   4.103 -0.0749  0.3946 -0.6252
 3640TIP3    H210864   2.734   2.616   3.987  0.7704 -2.4785 -0.1581
 3641TIP3   OH210865   1.128   4.794   3.034 -0.2257 -0.1933  0.5401
 3641TIP3    H110866   1.106   4.827   2.947 -0.5973  1.0222  1.0955
 3641TIP3    H210867   1.055   4.736   3.056  0.5227 -1.5988 -0.5062
 3642TIP3   OH210868   4.748   4.338   4.909 -0.5677 -0.0882  0.0563
 3642TIP3    H110869   4.801   4.269   4.869  0.1928 -0.3485  1.4685
 3642TIP3    H210870   4.665   4.335   4.862 -0.0532 -1.0329 -0.8205
 3643TIP3   OH210871   3.973   3.964   2.501 -0.1072 -1.2844  0.0296
 3643TIP3    H110872   3.974   3.953   2.596 -0.9260  2.1695  0.5109
 3643TIP3    H210873   4.038   4.033   2.485 -3.5185  1.7515 -1.3158
 3644TIP3   OH210874   3.536   4.172   3.853 -0.0879 -0.2283 -0.3052
 3644TIP3    H110875   3.452   4.128   3.864 -0.0891 -0.4633 -1.2330
 3644TIP3    H210876   3.577   4.128   3.779  0.3593  0.6358 -0.5776
 3645TIP3   OH210877   3.426   3.547   2.305  0.7485 -0.1193 -0.1191
 3645TIP3    H110878   3.365   3.534   2.377 -0.2091 -1.0354 -1.0706
 3645TIP3    H210879   3.431   3.642   2.295 -0.7942 -0.0336 -0.2397
 3646TIP3   OH210880   3.690   5.488   3.251 -0.3871 -0.4862  0.1475
 3646TIP3    H110881   3.604   5.450   3.235 -2.0376  2.0455  2.4469
 3646TIP3    H210882   3.698   5.490   3.346  1.5328  0.7404 -0.0089
 3647TIP3   OH210883   0.329   3.274   1.322  0.2913  0.3394  0.1244
 3647TIP3    H110884   0.391   3.211   1.286  0.3849  0.6376 -0.2288
 3647TIP3    H210885   0.245   3.250   1.283  0.5678  1.2960 -1.0956
 3648TIP3   OH210886   2.678   3.980   4.306 -0.1392 -0.7370  0.1222
 3648TIP3    H110887   2.679   4.071   4.336 -1.2466 -0.6108 -0.1792
 3648TIP3    H210888   2.710   3.930   4.381 -0.2721 -0.1744  0.5620
 3649TIP3   OH210889   3.428   2.799   1.936 -0.4585 -0.1313 -0.6186
 3649TIP3    H110890   3.348   2.851   1.928 -0.0881  0.8983  1.8365
 3649TIP3    H210891   3.444   2.794   2.031  2.0621 -0.7958 -1.0353
 3650TIP3   OH210892   5.840   2.147   1.887  0.2151 -0.0332  0.2512
 3650TIP3    H110893   5.762   2.200   1.871 -1.2778 -2.4309 -0.6498
 3650TIP3    H210894   5.818   2.094   1.963  1.1642 -0.3810  0.2847
 3651TIP3   OH210895   2.192   2.218   2.808 -0.4238 -0.2222 -0.3027
 3651TIP3    H110896   2.264   2.156   2.796 -1.0521 -1.0343  0.0248
 3651TIP3    H210897   2.225   2.300   2.773  0.6233 -0.6082 -0.2547
 3652TIP3   OH210898   4.088   2.339   1.941 -0.4949  0.4702 -0.0159
 3652TIP3    H110899   4.154   2.403   1.912  0.8237 -0.3657  1.0920
 3652TIP3    H210900   4.072   2.361   2.033 -2.0136  0.8643 -0.3589
 3653TIP3   OH210901   2.363   3.304   3.479  0.2587 -0.0026 -0.0246
 3653TIP3    H110902   2.395   3.378   3.428  0.2472 -0.7377 -1.1014
 3653TIP3    H210903   2.430   3.236   3.467  1.3283  0.4929  2.6015
 3654TIP3   OH210904   3.934   2.480   3.113  0.2466  0.3782 -0.3287
 3654TIP3    H110905   3.952   2.565   3.152  2.7315 -1.7458  3.4397
 3654TIP3    H210906   3.848   2.455   3.148  0.4854  0.4101  0.2792
 3655TIP3   OH210907   3.789   4.919   0.059 -0.3485 -0.3246 -0.0536
 3655TIP3    H110908   3.806   5.012   0.045 -0.0038 -0.6758 -2.2590
 3655TIP3    H210909   3.702   4.905   0.022 -0.8181 -0.6895  1.1746
 3656TIP3   OH210910   2.262   5.686   2.269  0.3407  0.4107 -0.3137
 3656TIP3    H110911   2.335   5.672   2.208  1.2137 -0.7010  0.9394
 3656TIP3    H210912   2.184   5.662   2.219  0.9620  0.3306 -1.2597
 3657TIP3   OH210913   3.208   3.234   2.421  0.5507  0.2777  0.3969
 3657TIP3    H110914   3.247   3.186   2.347  0.9983  2.2445 -0.6796
 3657TIP3    H210915   3.156   3.169   2.468 -0.8899 -0.6935 -2.4682
 3658TIP3   OH210916   4.012   5.745   3.862  0.4318 -0.4188 -0.1834
 3658TIP3    H110917   3.945   5.807   3.890 -0.5377 -1.4555 -0.1656
 3658TIP3    H210918   3.980   5.660   3.891  1.8768 -0.9114  0.0314
 3659TIP3   OH210919   3.366   2.468   4.063  0.5377  0.0027 -0.3740
 3659TIP3    H110920   3.325   2.390   4.101  2.9624 -1.2234 -0.2123
 3659TIP3    H210921   3.402   2.439   3.979  0.7221  1.1575 -0.7098
 3660TIP3   OH210922   3.962   2.443   2.221  0.0313 -0.1256 -0.4838
 3660TIP3    H110923   4.042   2.491   2.243  0.0462 -0.0701 -0.6626
 3660TIP3    H210924   3.921   2.426   2.306  0.7694 -1.0794 -0.3092
 3661TIP3   OH210925   2.734   3.666   3.581  0.4874 -0.1964 -0.7453
 3661TIP3    H110926   2.739   3.697   3.491  0.0954 -0.9723 -1.0405
 3661TIP3    H210927   2.819   3.623   3.597  0.7695  0.4332 -0.5609
 3662TIP3   OH210928   3.213   4.500   3.587  0.4051  0.2925  0.2886
 3662TIP3    H110929   3.309   4.500   3.594  0.6088 -0.8639 -2.1058
 3662TIP3    H210930   3.195   4.512   3.494 -1.5569 -6.7541 -0.5755
 3663TIP3   OH210931   2.453   6.246   4.256  0.5526 -0.0720 -0.3628
 3663TIP3    H110932   2.510   6.265   4.181  1.0846 -0.1202  0.0272
 3663TIP3    H210933   2.400   6.324   4.267 -1.5203 -1.1029 -2.5640
 3664TIP3   OH210934   0.312   4.259   3.611  0.4431 -0.5307  0.7258
 3664TIP3    H110935   0.294   4.343   3.570  0.9283 -0.6461  0.2828
 3664TIP3    H210936   0.407   4.255   3.618  0.4071 -0.8982  1.0555
 3665TIP3   OH210937   2.945   4.430   2.391 -0.0591 -0.1690  0.3131
 3665TIP3    H110938   2.896   4.490   2.447 -1.6749 -0.2946 -0.9329
 3665TIP3    H210939   2.879   4.369   2.357  1.2223 -1.3653 -0.0972
 3666TIP3   OH210940   3.780   5.111   3.037 -0.5410  0.6635 -0.3799
 3666TIP3    H110941   3.758   5.167   2.962 -0.7843 -1.0494 -1.6384
 3666TIP3    H210942   3.696   5.081   3.070 -0.3637 -0.3865 -0.8574
 3667TIP3   OH210943   2.330   3.533   2.758  0.3229  0.0827  0.2181
 3667TIP3    H110944   2.329   3.485   2.841 -0.4547 -0.2062  0.0430
 3667TIP3    H210945   2.408   3.501   2.713 -0.0964 -0.8905  0.1771
 3668TIP3   OH210946   4.488   6.189   1.094  0.2392 -0.5572 -0.3442
 3668TIP3    H110947   4.547   6.172   1.168 -0.5918  1.7286  0.8927
 3668TIP3    H210948   4.432   6.112   1.090  0.0582 -0.5560  1.6535
 3669TIP3   OH210949   2.312   4.952   2.157 -0.5067 -0.5515 -0.0855
 3669TIP3    H110950   2.358   5.036   2.150  1.0389 -1.2494  1.3514
 3669TIP3    H210951   2.319   4.913   2.070 -1.9378  1.1462 -0.9965
 3670TIP3   OH210952   3.402   5.828   1.566 -0.7801  0.0423 -0.5522
 3670TIP3    H110953   3.334   5.769   1.533 -2.5086  1.7559 -0.1051
 3670TIP3    H210954   3.448   5.857   1.488  1.3161 -3.2817 -0.6653
 3671TIP3   OH210955   2.341   3.845   3.239  0.1939 -0.6901  0.2376
 3671TIP3    H110956   2.309   3.901   3.310  0.5005 -2.6424  1.9751
 3671TIP3    H210957   2.267   3.786   3.220  0.1044 -0.1637 -1.0942
 3672TIP3   OH210958   3.672   4.102   0.025 -0.1256  0.0438 -0.1154
 3672TIP3    H110959   3.651   4.192   0.047 -0.5484 -0.0535 -0.1191
 3672TIP3    H210960   3.589   4.056   0.030 -0.1883 -0.0248 -1.6967
 3673TIP3   OH210961   3.127   4.139   3.686  0.3695  0.1290 -0.2781
 3673TIP3    H110962   3.134   4.230   3.716  0.5101 -0.2787  0.9487
 3673TIP3    H210963   3.217   4.107   3.687  0.5775  0.5830 -2.6674
 3674TIP3   OH210964   1.481   2.903   3.124  0.1329  0.1192  0.0438
 3674TIP3    H110965   1.430   2.876   3.047 -2.0509  1.0816  1.1200
 3674TIP3    H210966   1.522   2.985   3.098 -1.9463  1.3192  0.4260
 3675TIP3   OH210967   0.634   3.915   1.950 -0.1408  0.6315 -0.3934
 3675TIP3    H110968   0.673   3.971   1.883  2.1233 -1.3390 -0.7820
 3675TIP3    H210969   0.598   3.841   1.901 -0.8504  0.4827  0.3345
 3676TIP3   OH210970   3.358   5.395   0.718  0.0337 -0.4259  0.2726
 3676TIP3    H110971   3.292   5.460   0.696  0.1200 -0.8117 -1.1957
 3676TIP3    H210972   3.441   5.438   0.699  0.1757 -0.2319  1.3210
 3677TIP3   OH210973   2.954   2.989   1.581  0.1982 -0.2380 -0.2247
 3677TIP3    H110974   2.878   2.936   1.606  0.1344 -0.6269 -1.2081
 3677TIP3    H210975   3.020   2.926   1.552  0.7091  0.1265  0.1324
 3678TIP3   OH210976   6.514   3.873   1.353 -0.0540  0.0418 -0.4920
 3678TIP3    H110977   6.497   3.943   1.290 -0.7225  1.4411  1.2173
 3678TIP3    H210978   6.481   3.907   1.436  0.3830 -1.9741  0.5256
 3679TIP3   OH210979   1.877   2.636   4.001  0.1186  0.0021  0.5430
 3679TIP3    H110980   1.858   2.668   3.913  0.4595  0.7940  0.7527
 3679TIP3    H210981   1.925   2.554   3.987 -0.7243 -0.4029  0.0032
 3680TIP3   OH210982   6.196   3.980   3.117  0.5177 -0.0516  0.3614
 3680TIP3    H110983   6.242   4.004   3.197  0.7953 -2.1888  0.8849
 3680TIP3    H210984   6.210   3.885   3.109 -0.8821 -0.1449 -1.3374
 3681TIP3   OH210985   4.259   2.998   3.713 -0.2187  0.0142  1.0106
 3681TIP3    H110986   4.264   3.080   3.665 -0.9755 -0.5079  0.0062
 3681TIP3    H210987   4.168   2.969   3.702  0.6967 -2.2935 -0.9458
 3682TIP3   OH210988   4.344   3.604   2.426  0.1294 -0.6190  0.5458
 3682TIP3    H110989   4.271   3.635   2.480 -0.0897 -1.6869  0.8712
 3682TIP3    H210990   4.421   3.646   2.464 -0.4019  1.1985 -0.3323
 3683TIP3   OH210991   5.855   0.327   0.292 -0.0467  0.3485 -0.3978
 3683TIP3    H110992   5.842   0.342   0.198 -0.1281  1.2380 -0.2434
 3683TIP3    H210993   5.882   0.236   0.297 -0.6439  0.1122 -1.2341
 3684TIP3   OH210994   4.018   3.106   1.415  0.0958 -0.0560  0.4729
 3684TIP3    H110995   4.002   3.016   1.442 -0.2685 -1.0414 -2.7563
 3684TIP3    H210996   3.931   3.143   1.399  0.3261 -0.0890 -0.9815
 3685TIP3   OH210997   5.921   3.661   3.675 -0.0781  0.0245 -0.1323
 3685TIP3    H110998   5.967   3.719   3.736  0.3315 -1.2961  0.8430
 3685TIP3    H210999   5.838   3.643   3.718  0.8996 -2.2931  0.8996
 3686TIP3   OH211000   5.879   4.045   3.901 -0.9749 -0.3241  0.0468
 3686TIP3    H111001   5.888   4.104   3.825 -0.6275  1.0922  1.1704
 3686TIP3    H211002   5.909   3.960   3.868 -1.6997  0.0480 -1.6684
 3687TIP3   OH211003   3.488   4.455   3.868  0.1849  0.0129  0.2265
 3687TIP3    H111004   3.579   4.438   3.843  0.6466  0.7521  1.3578
 3687TIP3    H211005   3.456   4.371   3.900  1.6085  0.5302  3.2161
 3688TIP3   OH211006   4.466   4.733   3.274 -0.8962 -0.2854 -0.1860
 3688TIP3    H111007   4.405   4.690   3.215 -0.1546 -0.2546 -0.9992
 3688TIP3    H211008   4.510   4.799   3.219 -1.2061  0.7208  0.7493
 3689TIP3   OH211009   2.990   2.594   1.805 -0.2528 -0.2455 -0.8868
 3689TIP3    H111010   3.027   2.586   1.893 -0.3937 -3.3326 -1.0623
 3689TIP3    H211011   3.026   2.676   1.772  2.5580 -0.7269  0.7843
 3690TIP3   OH211012   2.736   2.778   1.966  0.5132  0.1773 -0.2155
 3690TIP3    H111013   2.819   2.793   2.011  0.7465  0.9090 -0.8864
 3690TIP3    H211014   2.670   2.808   2.028  0.9472  3.6739 -1.3417
 3691TIP3   OH211015   3.484   3.035   3.564  0.3681 -0.5898  0.1598
 3691TIP3    H111016   3.505   2.953   3.519  0.0917 -0.6359  0.1142
 3691TIP3    H211017   3.437   3.087   3.499  0.2075 -0.5476  0.3102
 3692TIP3   OH211018   4.246   3.208   2.188 -0.8034  0.6251 -0.0690
 3692TIP3    H111019   4.248   3.209   2.093  1.7704 -0.4023 -0.0445
 3692TIP3    H211020   4.325   3.255   2.215  0.7424 -2.7025  1.4943
 3693TIP3   OH211021   3.096   5.930   1.871  0.0422 -0.0793  0.1068
 3693TIP3    H111022   3.059   5.978   1.945 -2.3380 -1.5405 -0.0784
 3693TIP3    H211023   3.139   5.854   1.911 -1.2799 -0.8912  0.0249
 3694TIP3   OH211024   2.003   3.599   1.932 -0.0166  0.2936  0.6236
 3694TIP3    H111025   2.049   3.647   2.002  0.2309 -1.6738  1.8458
 3694TIP3    H211026   1.925   3.564   1.975  0.0387 -0.7790 -0.1413
 3695TIP3   OH211027   4.598   5.903   3.336 -0.2452 -0.1918  0.0992
 3695TIP3    H111028   4.549   5.926   3.257 -1.2725 -0.2092  0.7276
 3695TIP3    H211029   4.682   5.949   3.326 -0.9180  0.9636 -0.3152
 3696TIP3   OH211030   3.704   4.116   1.949  0.2488  0.4245 -0.0647
 3696TIP3    H111031   3.671   4.157   2.029 -1.7271 -0.8230 -0.2052
 3696TIP3    H211032   3.674   4.172   1.878  0.1355  0.3492 -0.0756
 3697TIP3   OH211033   4.079   2.752   3.178  0.7440 -0.5532 -0.1978
 3697TIP3    H111034   4.091   2.841   3.143  0.2482 -0.8963 -1.2599
 3697TIP3    H211035   4.093   2.762   3.272  1.4571  0.5147 -0.3957
 3698TIP3   OH211036   3.671   3.857   2.928  0.0894  0.3327 -0.4014
 3698TIP3    H111037   3.689   3.766   2.953 -0.3786 -0.0806 -1.5026
 3698TIP3    H211038   3.684   3.858   2.833 -0.7718  1.2004 -0.5205
 3699TIP3   OH211039   5.889   4.384   2.945  0.8000 -0.0002  0.2854
 3699TIP3    H111040   5.919   4.442   3.016  2.1177  0.5414 -0.6835
 3699TIP3    H211041   5.913   4.296   2.975  0.5988  0.1435  0.8842
 3700TIP3   OH211042   2.199   4.008   1.573  0.0246 -0.6111  0.3478
 3700TIP3    H111043   2.180   4.018   1.479 -1.6582 -0.1754  0.7208
 3700TIP3    H211044   2.162   3.923   1.596  3.0663 -2.1099  0.0042
 3701TIP3   OH211045   4.936   6.024   2.369  0.4055  0.3583  0.0394
 3701TIP3    H111046   4.976   5.960   2.429 -0.7405  0.4289  0.8823
 3701TIP3    H211047   4.983   6.010   2.286 -1.2007 -3.0336 -0.3997
 3702TIP3   OH211048   1.695   5.022   2.837 -0.3807 -0.4655 -0.1268
 3702TIP3    H111049   1.777   5.054   2.798 -0.6737 -1.1717 -1.3770
 3702TIP3    H211050   1.654   5.099   2.874  0.4035  0.0652 -0.3425
 3703TIP3   OH211051   3.939   2.447   4.060 -0.0466 -0.0097 -0.2154
 3703TIP3    H111052   4.019   2.466   4.108  0.7586 -3.0194 -0.2838
 3703TIP3    H211053   3.879   2.412   4.127 -1.2780  2.1097 -0.1825
 3704TIP3   OH211054   3.322   3.467   2.546 -0.3366  0.4744 -0.5281
 3704TIP3    H111055   3.264   3.486   2.620  1.1079  0.2184  0.6991
 3704TIP3    H211056   3.272   3.407   2.491 -1.9244  1.6916 -0.4199
 3705TIP3   OH211057   2.272   6.223   2.342  0.0801 -0.4858 -0.1010
 3705TIP3    H111058   2.217   6.282   2.291  0.4742 -0.6990 -0.7669
 3705TIP3    H211059   2.236   6.136   2.326  0.2375 -0.5580 -0.0614
 3706TIP3   OH211060   3.786   3.462   2.686  0.1955  0.4160  0.3035
 3706TIP3    H111061   3.715   3.503   2.636  0.1566  1.5993  1.2920
 3706TIP3    H211062   3.790   3.372   2.653 -0.3291  0.9569 -1.2666
 3707TIP3   OH211063   3.523   4.169   0.584  0.0645  0.0586 -0.0216
 3707TIP3    H111064   3.616   4.164   0.563 -0.4393 -0.2540 -2.2912
 3707TIP3    H211065   3.495   4.078   0.589 -0.0774  0.1470  0.9430
 3708TIP3   OH211066   3.549   1.945   3.006 -0.2530  0.0875 -0.1629
 3708TIP3    H111067   3.484   1.951   2.936 -1.7893 -0.6839  1.1633
 3708TIP3    H211068   3.568   2.036   3.028 -1.5317  0.3162  0.0297
 3709TIP3   OH211069   3.191   3.468   2.796 -0.0723 -0.3429  0.2705
 3709TIP3    H111070   3.255   3.430   2.857 -1.4070 -0.0344  1.8816
 3709TIP3    H211071   3.182   3.559   2.824  1.5309  0.6736 -2.2862
 3710TIP3   OH211072   3.407   4.107   2.017  0.4922 -0.5728 -0.4396
 3710TIP3    H111073   3.429   4.015   2.007  0.5187 -0.6534  0.2852
 3710TIP3    H211074   3.442   4.131   2.103 -1.3938 -0.4656  0.3244
 3711TIP3   OH211075   5.859   1.903   6.145  0.5408 -0.0207  0.2615
 3711TIP3    H111076   5.855   1.988   6.100 -0.3731 -0.4295 -0.4483
 3711TIP3    H211077   5.770   1.888   6.175  0.8614 -0.3996  1.0314
 3712TIP3   OH211078   4.770   3.398   3.664 -0.0332 -0.1886  0.3048
 3712TIP3    H111079   4.676   3.395   3.652 -0.3530  1.4348  2.1018
 3712TIP3    H211080   4.791   3.321   3.716 -0.2664 -0.8798 -0.6117
 3713TIP3   OH211081   2.902   2.084   2.734  0.2845  0.1658 -0.4401
 3713TIP3    H111082   2.956   2.125   2.667  0.9579  0.9715  0.5927
 3713TIP3    H211083   2.903   2.145   2.807 -1.1702 -0.2903 -0.0103
 3714TIP3   OH211084   2.534   2.566   1.873 -0.8404  0.2526 -0.3179
 3714TIP3    H111085   2.582   2.641   1.908 -0.0686 -0.7550  0.8253
 3714TIP3    H211086   2.598   2.520   1.818 -0.4473 -1.0656  1.1711
 3715TIP3   OH211087   4.985   2.958   3.358  0.7721 -0.5881  0.2283
 3715TIP3    H111088   4.898   2.959   3.318  0.4657 -4.2344  0.6347
 3715TIP3    H211089   5.038   3.016   3.304 -1.6808  0.9863 -0.5420
 3716TIP3   OH211090   4.407   4.198   3.657 -0.2156 -0.5201  0.2879
 3716TIP3    H111091   4.345   4.222   3.588  0.0402  0.1835  0.2913
 3716TIP3    H211092   4.465   4.133   3.617  1.8062  2.0620 -1.1362
 3717TIP3   OH211093   4.461   4.566   4.139  0.5573  0.1587 -0.5175
 3717TIP3    H111094   4.531   4.598   4.197  0.3217  0.0499 -0.1771
 3717TIP3    H211095   4.430   4.486   4.180  0.6460 -0.1242 -0.9933
 3718TIP3   OH211096   4.325   2.603   3.098  0.3291 -0.1791 -0.2105
 3718TIP3    H111097   4.333   2.509   3.115 -0.9675 -0.0834  1.0410
 3718TIP3    H211098   4.231   2.616   3.084  0.5351  0.8974 -0.6026
 3719TIP3   OH211099   2.656   2.852   3.183  0.3371  0.0150  0.4783
 3719TIP3    H111100   2.649   2.946   3.198  0.6157  0.1170 -0.0533
 3719TIP3    H211101   2.580   2.816   3.229 -0.6507  0.6440 -0.6243
 3720TIP3   OH211102   4.052   7.062   0.766 -0.5893  0.5686  0.3037
 3720TIP3    H111103   4.070   7.020   0.850  0.5825  1.0982  0.3192
 3720TIP3    H211104   3.964   7.031   0.743 -1.0332  0.6339  1.8511
 3721TIP3   OH211105   2.557   5.279   3.117  0.7041  0.2348  0.3573
 3721TIP3    H111106   2.537   5.190   3.145 -0.9533  0.3584 -0.3845
 3721TIP3    H211107   2.531   5.334   3.191 -1.0616  0.3251 -0.2925
 3722TIP3   OH211108   3.759   5.852   3.439  0.3792 -0.1462 -0.1365
 3722TIP3    H111109   3.702   5.928   3.448  0.5088  0.0173 -0.6998
 3722TIP3    H211110   3.840   5.877   3.484 -0.6604 -1.0935  2.3774
 3723TIP3   OH211111   3.098   5.560   2.362  0.3886  0.1517  0.0559
 3723TIP3    H111112   3.182   5.603   2.349  0.4560  0.2498  0.7702
 3723TIP3    H211113   3.035   5.614   2.315  0.1017  2.4013  2.8680
 3724TIP3   OH211114   4.029   4.916   2.671  0.0538 -0.1547  0.4959
 3724TIP3    H111115   4.046   4.914   2.765  1.2221 -0.8139  0.2842
 3724TIP3    H211116   4.084   4.987   2.639 -0.5056  0.2079  0.3444
 3725TIP3   OH211117   3.888   5.878   3.096  0.4330  0.0835 -0.0650
 3725TIP3    H111118   3.972   5.919   3.113  0.4369 -0.5351  1.4832
 3725TIP3    H211119   3.850   5.863   3.182 -1.0032 -0.1967 -0.7180
 3726TIP3   OH211120   5.853   4.795   4.353  0.2481  0.5161  0.2699
 3726TIP3    H111121   5.770   4.780   4.398 -0.8966  3.0667 -0.8933
 3726TIP3    H211122   5.918   4.798   4.423 -0.8451 -0.1518  1.3170
 3727TIP3   OH211123   2.811   2.016   2.264 -0.1090 -0.2302  0.1036
 3727TIP3    H111124   2.852   2.086   2.314 -0.6840  0.2836 -0.1377
 3727TIP3    H211125   2.879   1.985   2.205  0.1410  0.1450  0.1957
 3728TIP3   OH211126   4.756   2.548   2.670  0.0992  0.2243 -0.1598
 3728TIP3    H111127   4.668   2.516   2.650  1.5097 -2.3457 -2.6297
 3728TIP3    H211128   4.773   2.515   2.759 -1.3663  0.6416  0.2920
 3729TIP3   OH211129   2.271   0.996   2.446 -0.7681  0.2693  0.4528
 3729TIP3    H111130   2.302   1.084   2.425 -2.8418  1.0469  0.6051
 3729TIP3    H211131   2.222   1.007   2.527 -1.4223 -0.9626  0.2240
 3730TIP3   OH211132   4.237   5.332   2.000  0.5878  0.3139 -0.7877
 3730TIP3    H111133   4.311   5.380   2.039 -0.0858  2.0514 -1.6038
 3730TIP3    H211134   4.162   5.359   2.052  0.0129  1.0423 -1.9923
 3731TIP3   OH211135   3.815   2.510   1.571 -0.1601 -0.1305 -0.1647
 3731TIP3    H111136   3.723   2.501   1.595  0.3397 -0.6543  1.7217
 3731TIP3    H211137   3.819   2.587   1.515 -1.4127  1.4408  1.8211
 3732TIP3   OH211138   5.636   2.708   2.136 -0.6773  0.4503  0.3517
 3732TIP3    H111139   5.709   2.648   2.121 -1.2886 -0.3927  0.6914
 3732TIP3    H211140   5.631   2.717   2.232 -0.5241  1.1217  0.2979
 3733TIP3   OH211141   3.769   1.678   0.672 -0.2900 -0.2929 -0.1915
 3733TIP3    H111142   3.848   1.732   0.674  1.9882 -3.4976  4.1356
 3733TIP3    H211143   3.798   1.594   0.636 -1.5923 -1.6275  1.7806
 3734TIP3   OH211144   4.107   4.771   3.829  0.5430  0.1637  0.1903
 3734TIP3    H111145   4.151   4.853   3.806  0.4926 -0.2586 -1.4972
 3734TIP3    H211146   4.069   4.788   3.915 -1.3460  2.6754 -1.0747
 3735TIP3   OH211147   5.193   3.298   3.524 -0.5649 -0.6314  0.3804
 3735TIP3    H111148   5.108   3.326   3.489 -0.4387 -1.4088 -0.5630
 3735TIP3    H211149   5.177   3.285   3.617 -1.3345 -0.1648  0.3178
 3736TIP3   OH211150   3.198   0.463   4.125  0.2674 -0.5326  0.3851
 3736TIP3    H111151   3.276   0.500   4.083 -0.1731 -0.8087 -0.6917
 3736TIP3    H211152   3.142   0.538   4.143  1.1493 -0.2332  1.9604
 3737TIP3   OH211153   4.536   2.132   1.342 -0.4193 -0.3409  0.2756
 3737TIP3    H111154   4.494   2.053   1.375  0.8480 -0.1361  2.4532
 3737TIP3    H211155   4.470   2.201   1.354 -0.4423 -0.5124  1.1643
 3738TIP3   OH211156   3.908   1.711   3.279 -0.0929  0.3764  0.7883
 3738TIP3    H111157   3.984   1.767   3.293  0.7025 -0.7660  1.0895
 3738TIP3    H211158   3.856   1.719   3.360 -0.1514  0.9268  0.6979
 3739TIP3   OH211159   4.614   3.703   2.300  0.2937 -0.4261 -0.2565
 3739TIP3    H111160   4.559   3.780   2.309  0.6101 -0.4233  2.0734
 3739TIP3    H211161   4.590   3.665   2.216  1.6463  3.3756 -2.4890
 3740TIP3   OH211162   5.267   3.367   1.757  0.2876  0.2038 -0.2462
 3740TIP3    H111163   5.328   3.431   1.795  0.7183 -1.1592  1.4410
 3740TIP3    H211164   5.245   3.309   1.830 -2.8475  0.5033 -0.8753
 3741TIP3   OH211165   6.278   3.903   4.319 -0.3250  0.0279 -0.1855
 3741TIP3    H111166   6.357   3.957   4.329 -0.2748 -0.1146  0.1703
 3741TIP3    H211167   6.303   3.817   4.352 -0.4318 -0.1952 -0.6788
 3742TIP3   OH211168   5.228   1.664   2.957 -0.5246 -0.5149  0.3559
 3742TIP3    H111169   5.306   1.685   3.008 -1.2177  1.1226  0.7770
 3742TIP3    H211170   5.169   1.738   2.972 -0.5545  0.2934 -3.2517
 3743TIP3   OH211171   1.955   7.276   4.364  0.3254  0.3923 -0.1596
 3743TIP3    H111172   1.956   7.317   4.450  0.3861 -0.1927  0.1192
 3743TIP3    H211173   2.038   7.229   4.359 -0.7218 -1.5540  0.4218
 3744TIP3   OH211174   1.958   3.439   3.768 -0.3254 -0.0184 -0.6787
 3744TIP3    H111175   2.026   3.372   3.769 -0.3443 -0.0342  1.6967
 3744TIP3    H211176   1.929   3.445   3.859  0.2458  3.8045 -0.6776
 3745TIP3   OH211177   4.861   4.720   4.138 -0.3239  0.2193  0.6920
 3745TIP3    H111178   4.852   4.797   4.194 -0.5539  1.2017 -0.6846
 3745TIP3    H211179   4.948   4.728   4.100 -0.0299 -0.6334  1.1710
 3746TIP3   OH211180   5.747   1.590   1.842 -0.6150 -0.0520  1.0789
 3746TIP3    H111181   5.832   1.628   1.818 -1.4009  1.3704  0.4998
 3746TIP3    H211182   5.749   1.502   1.806 -0.2403  0.7274 -0.8671
 3747TIP3   OH211183   3.160   3.655   3.677 -0.2785 -0.3165 -0.6567
 3747TIP3    H111184   3.195   3.699   3.755 -2.6130  0.4237  0.0339
 3747TIP3    H211185   3.179   3.715   3.605 -0.5750  0.3382 -0.1997
 3748TIP3   OH211186   5.573   3.195   1.032 -0.7471  0.0916  0.3147
 3748TIP3    H111187   5.602   3.201   1.123  0.4193  0.9641 -0.1107
 3748TIP3    H211188   5.610   3.272   0.989  0.5456 -1.4544 -1.4160
 3749TIP3   OH211189   3.576   2.540   3.077  0.0287 -0.2854 -0.4770
 3749TIP3    H111190   3.543   2.610   3.021  0.8800 -0.4353 -1.1699
 3749TIP3    H211191   3.644   2.497   3.025 -0.5538 -1.6944 -0.1000
 3750TIP3   OH211192   4.368   2.823   4.711  0.1802  0.0874 -0.6748
 3750TIP3    H111193   4.401   2.743   4.671 -1.1682 -0.1181 -1.4350
 3750TIP3    H211194   4.413   2.828   4.795  0.8300 -1.0776 -0.9350
 3751TIP3   OH211195   4.533   4.883   4.711  0.0522 -0.2415  0.3115
 3751TIP3    H111196   4.627   4.867   4.722  0.3085  0.3116 -0.9976
 3751TIP3    H211197   4.522   4.977   4.726 -0.4292 -0.4346  1.2524
 3752TIP3   OH211198   3.092   4.668   2.697  0.3023  0.4729 -0.0783
 3752TIP3    H111199   3.057   4.724   2.767 -1.5872 -1.0791  0.2467
 3752TIP3    H211200   3.066   4.712   2.616 -0.4268  0.5445  0.1856
 3753TIP3   OH211201   3.982   3.938   2.785 -1.0235 -0.4394 -0.0195
 3753TIP3    H111202   4.068   3.968   2.817 -0.2061 -0.2680 -2.2935
 3753TIP3    H211203   3.923   4.010   2.805 -0.0572  0.6330 -0.9195
 3754TIP3   OH211204   5.710   4.131   2.809  0.8331  0.1360 -0.4032
 3754TIP3    H111205   5.783   4.177   2.767  0.1304  0.2033 -1.5770
 3754TIP3    H211206   5.738   4.039   2.811  1.5064  0.3510  0.3774
 3755TIP3   OH211207   3.622   6.704   5.289  0.2632 -0.4737  0.7029
 3755TIP3    H111208   3.683   6.702   5.362  0.8970  0.9830  0.2331
 3755TIP3    H211209   3.631   6.792   5.252 -1.7228 -0.4152  0.2850
 3756TIP3   OH211210   2.167   5.003   4.238  0.4202 -0.4678 -0.5900
 3756TIP3    H111211   2.226   4.936   4.271  0.1679  0.1246  1.0999
 3756TIP3    H211212   2.079   4.970   4.258  0.3055  0.5413  0.6258
 3757TIP3   OH211213   4.282   5.177   1.325  0.0370 -0.0217 -0.1783
 3757TIP3    H111214   4.343   5.163   1.397 -0.8132  2.5783  1.1306
 3757TIP3    H211215   4.197   5.152   1.360 -0.3497  1.0671 -0.2998
 3758TIP3   OH211216   4.317   4.792   2.078  0.4934  0.4860  0.4648
 3758TIP3    H111217   4.279   4.806   2.164 -0.0384  0.4800  0.2334
 3758TIP3    H211218   4.327   4.697   2.071 -1.2363  0.3405 -0.2252
 3759TIP3   OH211219   4.693   4.731   1.921  0.7118  0.1694  0.0691
 3759TIP3    H111220   4.692   4.643   1.959 -0.0123  0.7884  1.5306
 3759TIP3    H211221   4.625   4.729   1.854 -0.0936 -0.0658  0.8787
 3760TIP3   OH211222   3.327   4.846   1.889  0.1641  0.2587  0.1574
 3760TIP3    H111223   3.330   4.774   1.951 -0.2775  0.5947  0.5725
 3760TIP3    H211224   3.414   4.886   1.893 -0.0190  0.5868  0.9270
 3761TIP3   OH211225   2.709   1.559   2.992 -0.0191  0.0990 -0.1420
 3761TIP3    H111226   2.803   1.565   3.008 -0.3656  0.6542  1.8318
 3761TIP3    H211227   2.687   1.642   2.949 -0.1441  1.4126  2.3794
 3762TIP3   OH211228   2.622   4.282   1.554 -0.4612  0.4311 -0.1943
 3762TIP3    H111229   2.598   4.191   1.536  0.5786 -0.2755  1.7747
 3762TIP3    H211230   2.693   4.301   1.492  1.0466 -0.9653  1.0432
 3763TIP3   OH211231   4.371   2.476   5.379  0.0645 -0.1407  0.5451
 3763TIP3    H111232   4.407   2.405   5.325  0.0776  1.2626 -1.3690
 3763TIP3    H211233   4.334   2.432   5.455  1.0068 -2.1057 -0.0926
 3764TIP3   OH211234   4.443   0.778   4.209 -0.6159 -0.0104 -0.3439
 3764TIP3    H111235   4.438   0.873   4.204  2.7596  0.2035 -0.5834
 3764TIP3    H211236   4.507   0.753   4.142  0.5169 -2.2017  1.4778
 3765TIP3   OH211237   5.239   2.431   2.157  0.2301  0.0557  0.0620
 3765TIP3    H111238   5.146   2.453   2.162  0.3962  0.6474  0.5728
 3765TIP3    H211239   5.274   2.456   2.242  0.6158 -1.3205  0.3179
 3766TIP3   OH211240   3.469   3.772   1.106  0.2164 -0.0867  0.3003
 3766TIP3    H111241   3.434   3.775   1.195  1.3476 -1.6260  0.8254
 3766TIP3    H211242   3.484   3.863   1.083 -3.6049  0.6368  0.2358
 3767TIP3   OH211243   6.232   1.454   2.178 -0.3536  0.0564 -0.3645
 3767TIP3    H111244   6.236   1.373   2.127 -0.7230  0.5058 -1.1268
 3767TIP3    H211245   6.146   1.491   2.156 -1.3647 -0.7237  2.1174
 3768TIP3   OH211246   4.256   2.127   2.054 -0.0473  0.3937 -0.0919
 3768TIP3    H111247   4.185   2.139   1.991 -1.1737 -0.9344  0.9031
 3768TIP3    H211248   4.275   2.216   2.086  1.6021  1.3321 -3.3714
 3769TIP3   OH211249   4.993   4.699   3.747  0.3673 -0.1021 -0.3240
 3769TIP3    H111250   5.083   4.682   3.719  0.0054  1.0134 -2.2263
 3769TIP3    H211251   4.999   4.776   3.804  0.6760 -0.4016  0.0564
 3770TIP3   OH211252   5.071   1.908   3.031 -0.3077  0.2222  0.1167
 3770TIP3    H111253   5.134   1.939   3.096 -0.5343 -0.5240  0.7017
 3770TIP3    H211254   4.994   1.884   3.082 -1.3472  1.8105 -0.6615
 3771TIP3   OH211255   3.010   5.902   4.074  0.5446  0.6008  0.0637
 3771TIP3    H111256   3.071   5.903   4.148 -0.4376 -1.0585  0.9320
 3771TIP3    H211257   2.965   5.986   4.079  0.4527  0.4855  1.4044
 3772TIP3   OH211258   4.387   1.908   3.195  0.0563 -0.0066 -0.3979
 3772TIP3    H111259   4.445   1.885   3.268  0.8316  0.2816 -0.9117
 3772TIP3    H211260   4.427   1.986   3.156 -0.1526 -0.3582 -1.3341
 3773TIP3   OH211261   1.687   2.659   2.852  0.3107  0.1642 -0.1635
 3773TIP3    H111262   1.615   2.656   2.790  0.1399  0.3672  0.0203
 3773TIP3    H211263   1.764   2.679   2.799 -0.0988  1.9767 -0.1004
 3774TIP3   OH211264   3.671   5.174   0.976 -0.1603 -0.0623 -0.0187
 3774TIP3    H111265   3.749   5.167   1.031 -0.2455 -2.8917 -0.1650
 3774TIP3    H211266   3.705   5.198   0.890  0.1147  2.8913  0.8790
 3775TIP3   OH211267   2.980   5.229   0.782  0.0823 -0.1100  0.2918
 3775TIP3    H111268   2.893   5.247   0.816 -1.0223 -2.2629 -1.2475
 3775TIP3    H211269   3.033   5.207   0.859 -1.5469 -1.8127  0.9671
 3776TIP3   OH211270   5.779   1.738   3.096 -0.2837 -0.4696  0.2559
 3776TIP3    H111271   5.768   1.784   3.179  1.6114  0.4909 -0.0064
 3776TIP3    H211272   5.853   1.679   3.110  1.4362  1.2305 -1.3616
 3777TIP3   OH211273   2.899   4.605   0.811  0.0992  0.3359  0.9041
 3777TIP3    H111274   2.881   4.699   0.814  0.3859  0.4273  0.0191
 3777TIP3    H211275   2.977   4.598   0.755 -1.7124 -0.6806 -1.5602
 3778TIP3   OH211276   5.407   2.942   2.222 -0.7398 -0.0571 -0.2178
 3778TIP3    H111277   5.382   2.979   2.137 -0.8938  0.5494  0.0960
 3778TIP3    H211278   5.502   2.931   2.216 -1.0051 -2.0460 -1.2829
 3779TIP3   OH211279   3.501   5.109   5.476 -0.0576 -0.1022  0.1530
 3779TIP3    H111280   3.487   5.090   5.569 -0.5397  0.0961  0.1261
 3779TIP3    H211281   3.563   5.182   5.476  0.1395 -0.2733  0.3167
 3780TIP3   OH211282   3.381   1.758   0.928 -0.6308 -0.0564  0.1344
 3780TIP3    H111283   3.298   1.722   0.894 -0.9960  1.0012 -0.1167
 3780TIP3    H211284   3.355   1.809   1.005 -0.3567  1.1909 -0.5919
 3781TIP3   OH211285   1.166   0.164   6.676  0.0700  0.3218 -0.3174
 3781TIP3    H111286   1.166   0.138   6.584 -0.1296  1.2865 -0.6019
 3781TIP3    H211287   1.141   0.257   6.674  1.3412  0.6950  0.6047
 3782TIP3   OH211288   2.751   2.502   1.713 -0.3595 -0.0295 -0.5111
 3782TIP3    H111289   2.827   2.551   1.745  1.3344 -2.0617 -1.2823
 3782TIP3    H211290   2.775   2.410   1.726 -3.3445 -0.7038  0.6344
 3783TIP3   OH211291   6.090   5.352   2.474 -0.7107  0.1724 -0.5122
 3783TIP3    H111292   6.034   5.358   2.551 -1.0325  1.8701 -0.8488
 3783TIP3    H211293   6.098   5.443   2.443  1.2865 -0.1822 -1.1364
 3784TIP3   OH211294   4.650   1.343   2.805  0.3497 -0.2339  0.0187
 3784TIP3    H111295   4.585   1.395   2.853 -1.8928 -1.4518 -1.6426
 3784TIP3    H211296   4.635   1.364   2.713 -0.0199 -3.1280 -0.6237
 3785TIP3   OH211297   2.654   6.149   1.697  0.0942  0.0379  0.1326
 3785TIP3    H111298   2.665   6.233   1.741  1.1196 -0.5725  1.0812
 3785TIP3    H211299   2.739   6.132   1.656 -0.2682 -0.2859 -0.4910
 3786TIP3   OH211300   3.987   5.850   1.585  0.2251  0.7015  0.0296
 3786TIP3    H111301   4.059   5.892   1.633 -0.0156  1.2992 -0.1307
 3786TIP3    H211302   3.937   5.804   1.652  0.7524  0.2827  0.1436
 3787TIP3   OH211303   2.219   0.893   6.025  0.0296 -0.2617  0.1114
 3787TIP3    H111304   2.179   0.823   6.076 -2.0888  0.0438 -1.0823
 3787TIP3    H211305   2.165   0.970   6.043 -0.0940  0.0963 -1.7367
 3788TIP3   OH211306   4.897   2.963   0.865 -0.8951 -0.5214 -0.2256
 3788TIP3    H111307   4.986   2.968   0.829 -1.1121  0.8416 -0.6272
 3788TIP3    H211308   4.907   2.987   0.957 -0.7261 -1.1972 -0.0708
 3789TIP3   OH211309   6.872   2.323   4.115  0.4141 -0.3469 -0.2825
 3789TIP3    H111310   6.931   2.256   4.080  0.9369 -0.0164 -0.0493
 3789TIP3    H211311   6.889   2.323   4.209 -0.1910 -0.4699 -0.1764
 3790TIP3   OH211312   6.104   1.938   0.866 -0.1516 -0.0070  0.1456
 3790TIP3    H111313   6.191   1.975   0.852 -0.5400  1.4027  1.3693
 3790TIP3    H211314   6.119   1.843   0.870  1.0643  0.0933 -1.4415
 3791TIP3   OH211315   5.580   3.462   1.535  0.0514 -0.4245 -0.1896
 3791TIP3    H111316   5.626   3.493   1.613 -0.2135  1.7360 -0.8762
 3791TIP3    H211317   5.647   3.417   1.484  0.8606  0.5829 -0.0305
 3792TIP3   OH211318   4.444   3.558   1.353 -0.1893 -0.4689  0.1635
 3792TIP3    H111319   4.402   3.515   1.428  0.4916 -0.2128  0.6892
 3792TIP3    H211320   4.437   3.652   1.371 -0.3156 -0.3944 -0.2529
 3793TIP3   OH211321   5.749   1.537   2.495  0.2496  0.1720 -0.2276
 3793TIP3    H111322   5.745   1.592   2.416 -0.0616 -0.9673 -1.0120
 3793TIP3    H211323   5.694   1.582   2.558 -0.3032  0.5762 -0.9865
 3794TIP3   OH211324   3.895   2.231   1.556  0.5719  0.4889  0.0219
 3794TIP3    H111325   3.860   2.320   1.556  1.7887  0.9854 -0.2242
 3794TIP3    H211326   3.819   2.175   1.573 -0.4796  1.4554 -1.4164
 3795TIP3   OH211327   5.083   3.541   4.477  0.2794 -0.1099 -0.6628
 3795TIP3    H111328   5.079   3.633   4.506  0.1050 -0.1758 -0.4774
 3795TIP3    H211329   5.013   3.498   4.526  0.9708 -0.5399 -0.0626
 3796TIP3   OH211330   7.080   2.760   3.023  0.3007 -0.2582 -0.3448
 3796TIP3    H111331   6.991   2.794   3.031  0.4099 -0.0100 -0.1620
 3796TIP3    H211332   7.071   2.680   2.972 -0.2458 -1.1477  1.1113
 3797TIP3   OH211333   6.171   5.153   1.841 -0.1272  0.4404 -0.1091
 3797TIP3    H111334   6.202   5.088   1.904 -0.5878 -0.6474 -0.9763
 3797TIP3    H211335   6.105   5.204   1.889  0.2562  0.2876  0.5871
 3798TIP3   OH211336   3.597   6.444   0.672 -0.0615 -0.0096 -0.4592
 3798TIP3    H111337   3.584   6.538   0.683 -2.0479 -0.2035 -0.9290
 3798TIP3    H211338   3.545   6.403   0.741  2.2612 -0.7431  0.9098
 3799TIP3   OH211339   5.859   0.953   2.954  0.0046 -0.0373 -0.0648
 3799TIP3    H111340   5.806   1.032   2.960  0.9027  0.5165  0.5487
 3799TIP3    H211341   5.946   0.983   2.927 -0.0213 -0.9590 -1.2328
 3800TIP3   OH211342   3.790   1.426   1.947  0.6299 -0.7381  0.0717
 3800TIP3    H111343   3.842   1.345   1.954  0.4489 -0.9077 -0.5690
 3800TIP3    H211344   3.851   1.495   1.971  0.8251 -1.0494  0.4923
 3801TIP3   OH211345   3.323   5.766   0.364  0.3306 -0.1321 -0.3362
 3801TIP3    H111346   3.234   5.775   0.395  0.9028  0.8599  1.0622
 3801TIP3    H211347   3.339   5.672   0.363 -0.7185 -0.3122 -0.5955
 3802TIP3   OH211348   2.337   2.386   1.940 -0.0315  0.1001 -0.1149
 3802TIP3    H111349   2.396   2.455   1.911  1.2388 -1.6978 -1.8856
 3802TIP3    H211350   2.381   2.346   2.015 -0.3503  0.6215  0.3528
 3803TIP3   OH211351   5.816   2.877   1.140  0.3761 -0.2457 -0.4621
 3803TIP3    H111352   5.867   2.854   1.218  0.0726  0.9907  0.1182
 3803TIP3    H211353   5.735   2.827   1.149  0.1662  0.2091  0.2431
 3804TIP3   OH211354   7.064   4.207   3.855 -0.0103  0.3138 -0.0122
 3804TIP3    H111355   6.981   4.164   3.877  0.1628 -0.5821 -1.0405
 3804TIP3    H211356   7.085   4.259   3.933 -0.5414 -0.9995  1.0401
 3805TIP3   OH211357   6.267   3.823   2.877  0.7874 -0.7298  0.4651
 3805TIP3    H111358   6.182   3.864   2.895  0.8912 -0.3411  0.0613
 3805TIP3    H211359   6.268   3.746   2.934 -0.2450 -1.2695 -0.2331
 3806TIP3   OH211360   6.283   5.398   3.109 -0.1135 -0.1522 -0.0414
 3806TIP3    H111361   6.286   5.482   3.062  1.4096  0.2280  0.6866
 3806TIP3    H211362   6.350   5.345   3.066  1.3420  0.2199  1.7135
 3807TIP3   OH211363   5.828   4.064   0.744 -0.3587  0.4919 -0.6129
 3807TIP3    H111364   5.868   4.108   0.818  0.8218  1.3098 -1.7023
 3807TIP3    H211365   5.776   3.994   0.782 -0.2883  1.3116  1.0053
 3808TIP3   OH211366   6.889   3.822   1.150  0.2456 -0.7861 -0.4422
 3808TIP3    H111367   6.862   3.864   1.068 -1.8759 -0.7969  0.2161
 3808TIP3    H211368   6.929   3.891   1.201 -2.7927  0.3867  0.4446
 3809TIP3   OH211369   4.351   5.044   3.075  0.2592 -0.0895  0.3659
 3809TIP3    H111370   4.278   5.019   3.019  0.5604  0.9521 -0.5252
 3809TIP3    H211371   4.429   5.021   3.024  0.5477 -0.8916  1.1699
 3810TIP3   OH211372   5.781   3.329   2.004  0.4724 -0.3023 -0.1141
 3810TIP3    H111373   5.840   3.337   2.079  0.7925  0.2454 -0.4232
 3810TIP3    H211374   5.839   3.322   1.928  0.1370  0.4027 -0.4358
 3811TIP3   OH211375   6.470   1.172   1.488  0.4573 -0.4794  0.5149
 3811TIP3    H111376   6.437   1.175   1.578 -1.6147 -2.7358 -0.1205
 3811TIP3    H211377   6.407   1.118   1.441  2.0454 -0.1489 -2.0907
 3812TIP3   OH211378   5.759   2.844   2.569 -0.3961  0.6145  0.3300
 3812TIP3    H111379   5.852   2.823   2.559 -0.4216  1.1615 -1.1223
 3812TIP3    H211380   5.751   2.933   2.536 -1.4705  0.5234  0.3294
 3813TIP3   OH211381   5.450   5.597   1.189 -0.1045  0.7738  0.2892
 3813TIP3    H111382   5.414   5.677   1.227 -1.4107  1.3057 -1.9858
 3813TIP3    H211383   5.493   5.626   1.109  1.3262 -0.5216  0.5616
 3814TIP3   OH211384   6.408   4.074   3.309  0.0654  0.4827 -0.5820
 3814TIP3    H111385   6.416   4.161   3.269  0.0546  0.8993  0.3226
 3814TIP3    H211386   6.492   4.031   3.289 -0.3683  0.2685 -2.0253
 3815TIP3   OH211387   5.681   4.912   2.593 -0.3529  0.6378 -0.2831
 3815TIP3    H111388   5.623   4.860   2.649  0.6139 -0.8312 -0.6310
 3815TIP3    H211389   5.668   4.877   2.505  1.9305 -0.5215 -0.1849
 3816TIP3   OH211390   6.327   3.986   0.913 -0.0595 -0.3534  0.2493
 3816TIP3    H111391   6.236   3.965   0.893 -0.1311  0.0817  0.1143
 3816TIP3    H211392   6.322   4.057   0.978  0.1808 -0.4097  0.3324
 3817TIP3   OH211393   3.899   4.570   0.679  0.1181  0.3942  0.1122
 3817TIP3    H111394   3.824   4.528   0.636  0.5269 -0.5131  0.2792
 3817TIP3    H211395   3.887   4.663   0.662 -1.4159  0.3183  0.7043
 3818TIP3   OH211396   3.429   5.981   1.775 -0.1364 -0.1127 -0.0437
 3818TIP3    H111397   3.525   5.981   1.764  0.3344  4.6462  2.8208
 3818TIP3    H211398   3.396   5.970   1.686  3.1398  1.3383 -1.5596
 3819TIP3   OH211399   7.764   3.386   1.179  0.3217  0.3174  1.0510
 3819TIP3    H111400   7.693   3.346   1.229 -0.1363 -0.3751 -0.1367
 3819TIP3    H211401   7.805   3.447   1.240 -0.4535 -0.2540  2.1570
 3820TIP3   OH211402   3.914   1.891   1.930 -0.4408  0.2509  0.0440
 3820TIP3    H111403   3.898   1.977   1.891  0.9495  1.1404  1.3871
 3820TIP3    H211404   3.949   1.910   2.017 -2.2581 -1.6844  1.2427
 3821TIP3   OH211405   4.742   7.602   2.592 -0.1299 -0.1290 -0.1452
 3821TIP3    H111406   4.756   7.575   2.683 -1.5687 -0.9621 -0.1609
 3821TIP3    H211407   4.800   7.546   2.541  2.5888  2.0707  0.4478
 3822TIP3   OH211408   6.073   5.423   2.911  0.2345 -0.1598 -0.4076
 3822TIP3    H111409   6.099   5.336   2.880  1.0043  0.1930 -0.7637
 3822TIP3    H211410   6.139   5.446   2.976 -0.5634 -0.2807  0.4552
 3823TIP3   OH211411   7.566   6.770   0.917 -0.4179  0.2464  0.2341
 3823TIP3    H111412   7.600   6.859   0.921  0.2944  0.0260 -0.7020
 3823TIP3    H211413   7.491   6.776   0.857  0.1181  0.0743 -0.4633
 3824TIP3   OH211414   4.281   1.977   2.856  0.0871 -0.2614  0.5877
 3824TIP3    H111415   4.358   2.000   2.906  0.3022 -1.3707  0.7788
 3824TIP3    H211416   4.293   1.885   2.833 -0.3854  0.0068 -0.8064
 3825TIP3   OH211417   5.124   0.254   5.554  0.4177 -0.0053  0.0867
 3825TIP3    H111418   5.127   0.221   5.464  1.6329 -0.5137  0.3079
 3825TIP3    H211419   5.033   0.241   5.580 -0.4302  2.0393 -1.7520
 3826TIP3   OH211420   5.024   4.814   2.784 -0.3135 -0.2859 -0.0733
 3826TIP3    H111421   5.020   4.909   2.785 -0.5371 -0.3018  0.5800
 3826TIP3    H211422   4.994   4.790   2.696  1.0129  0.2981 -0.6867
 3827TIP3   OH211423   4.479   3.139   1.664  0.8240 -0.0588 -0.2692
 3827TIP3    H111424   4.538   3.208   1.693  0.7325  1.0945 -2.6828
 3827TIP3    H211425   4.536   3.078   1.616  0.7645 -1.2588  1.1379
 3828TIP3   OH211426   5.628   3.528   2.134 -0.3018  0.1369 -0.1062
 3828TIP3    H111427   5.673   3.459   2.086 -0.6804  0.0368 -0.3199
 3828TIP3    H211428   5.626   3.602   2.074 -1.0523 -0.0894 -0.3646
 3829TIP3   OH211429   3.782   4.323   0.765  0.4025  0.1377 -0.2761
 3829TIP3    H111430   3.839   4.395   0.793 -0.9431  1.8572 -1.7800
 3829TIP3    H211431   3.711   4.367   0.717 -1.0448 -2.1160 -0.2572
 3830TIP3   OH211432   4.333   5.170   2.361  0.3525 -0.1718  0.1113
 3830TIP3    H111433   4.413   5.137   2.320 -0.2117 -1.6579  0.1602
 3830TIP3    H211434   4.264   5.154   2.296 -0.4382 -1.9388  1.3319
 3831TIP3   OH211435   5.350   5.497   1.437  0.2027 -0.3145  0.3377
 3831TIP3    H111436   5.421   5.513   1.374  1.3456  0.9873  1.8987
 3831TIP3    H211437   5.314   5.584   1.455 -1.6662 -0.9383 -0.2520
 3832TIP3   OH211438   1.963   1.633   5.248  0.2029  0.1450 -0.0388
 3832TIP3    H111439   1.928   1.599   5.165 -1.3543 -0.5625  0.8711
 3832TIP3    H211440   1.887   1.674   5.290  1.0713  0.8451  0.8597
 3833TIP3   OH211441   6.839   4.248   0.409  0.0605 -0.2820  0.2147
 3833TIP3    H111442   6.763   4.264   0.354 -0.0517 -1.7425 -0.0728
 3833TIP3    H211443   6.815   4.285   0.495 -0.3416  0.6564 -0.2917
 3834TIP3   OH211444   3.154   1.581   2.043  0.4626 -0.0247  0.2006
 3834TIP3    H111445   3.113   1.644   1.984  1.2432  1.2502  0.9943
 3834TIP3    H211446   3.086   1.559   2.106  0.6352  1.1978  0.8258
 3835TIP3   OH211447   3.892   4.687   3.228  0.6952 -0.3545 -0.0505
 3835TIP3    H111448   3.968   4.734   3.196  0.2945 -1.2540 -2.4331
 3835TIP3    H211449   3.918   4.655   3.315  1.7933  2.1733  0.5806
 3836TIP3   OH211450   5.491   3.483   3.515 -0.1257 -0.0701 -0.6750
 3836TIP3    H111451   5.436   3.452   3.443 -0.2590  0.5023 -0.8252
 3836TIP3    H211452   5.580   3.482   3.479  0.1738 -2.4842  0.0702
 3837TIP3   OH211453   7.458   3.579   3.600  0.4996  0.4640  0.6390
 3837TIP3    H111454   7.406   3.650   3.636 -0.9362  0.0128 -0.5182
 3837TIP3    H211455   7.419   3.560   3.515  2.1793 -0.2862  0.0008
 3838TIP3   OH211456   5.945   4.355   1.615  0.4537  0.4437  0.4997
 3838TIP3    H111457   5.958   4.428   1.676  1.4698  0.9230 -0.2885
 3838TIP3    H211458   5.896   4.392   1.542  2.1475  0.6807 -0.5432
 3839TIP3   OH211459   7.804   1.337   1.516  0.2241 -0.0028 -0.3379
 3839TIP3    H111460   7.851   1.417   1.494 -0.5769  0.5278 -0.1222
 3839TIP3    H211461   7.712   1.361   1.513  0.0300 -0.0248  3.1616
 3840TIP3   OH211462   3.800   1.355   2.295 -0.1408 -0.3214  0.0148
 3840TIP3    H111463   3.889   1.368   2.263 -0.3086  0.1892 -0.2463
 3840TIP3    H211464   3.804   1.380   2.387  0.1583 -1.0217  0.1932
 3841TIP3   OH211465   5.139   3.098   3.164 -0.2564  0.0352 -0.1091
 3841TIP3    H111466   5.233   3.102   3.182 -0.5944 -0.4873  1.9764
 3841TIP3    H211467   5.119   3.183   3.124  0.7079  1.1044  1.5686
 3842TIP3   OH211468   3.113   3.531   2.259 -0.1499  0.0939  0.2024
 3842TIP3    H111469   3.037   3.506   2.313  1.1787 -0.4508  1.8411
 3842TIP3    H211470   3.170   3.454   2.262 -0.9574 -0.7726 -3.7039
 3843TIP3   OH211471   6.037   2.612   1.668  0.0065 -0.1190  0.2310
 3843TIP3    H111472   6.059   2.576   1.582 -2.0651  1.2319 -0.9175
 3843TIP3    H211473   6.081   2.696   1.671 -0.4962  0.1488  0.1861
 3844TIP3   OH211474   4.504   2.808   3.046 -0.6340  0.3746 -0.1105
 3844TIP3    H111475   4.447   2.740   3.085  0.0322  0.2291  0.6258
 3844TIP3    H211476   4.443   2.873   3.011 -1.2641  0.0590  0.3867
 3845TIP3   OH211477   5.128   3.110   2.009 -0.0978 -0.0603  0.1713
 3845TIP3    H111478   5.203   3.057   1.982  0.6993  1.5760 -0.9759
 3845TIP3    H211479   5.058   3.086   1.948 -0.1932 -0.8493  0.5901
 3846TIP3   OH211480   5.550   4.572   1.416  0.2142  0.2751 -0.4589
 3846TIP3    H111481   5.583   4.543   1.501 -1.1379 -0.3889 -0.1421
 3846TIP3    H211482   5.468   4.617   1.436  0.3915  0.9937 -1.3238
 3847TIP3   OH211483   5.499   0.133   1.942  0.3364 -0.7912  0.0325
 3847TIP3    H111484   5.405   0.127   1.957  0.1373 -1.0904 -1.2864
 3847TIP3    H211485   5.538   0.082   2.013 -0.4736 -0.5169  0.6899
 3848TIP3   OH211486   5.920   4.252   2.075  0.5149 -0.7099  0.1406
 3848TIP3    H111487   5.993   4.197   2.046  1.4896  0.4982  0.2764
 3848TIP3    H211488   5.902   4.221   2.164  1.1353 -0.7433  0.2607
 3849TIP3   OH211489   3.082   3.700   2.891  0.2363 -0.4405 -0.1988
 3849TIP3    H111490   3.065   3.793   2.881  0.3909 -0.4938 -0.9671
 3849TIP3    H211491   3.012   3.657   2.842  1.1745 -0.6927 -1.3432
 3850TIP3   OH211492   4.102   2.990   3.065  0.0497  0.0857  0.0376
 3850TIP3    H111493   4.099   3.045   3.143 -0.5552  0.3586 -0.1730
 3850TIP3    H211494   4.195   2.982   3.044  0.2673 -0.5568  1.1779
 3851TIP3   OH211495   6.947   4.169   0.803 -0.5405  0.2597 -0.0638
 3851TIP3    H111496   7.032   4.208   0.823 -0.3917 -1.1724  2.3030
 3851TIP3    H211497   6.959   4.129   0.717  0.9198  0.8157 -0.1335
 3852TIP3   OH211498   3.105   5.116   1.584 -0.3228  0.3262  0.1407
 3852TIP3    H111499   3.086   5.210   1.574 -0.2390  0.2210 -1.1456
 3852TIP3    H211500   3.192   5.105   1.546 -1.3106 -0.6662 -1.8866
 3853TIP3   OH211501   2.630   4.495   1.735  0.0208 -0.3510  0.0276
 3853TIP3    H111502   2.641   4.466   1.826 -0.1842  0.6760  0.3857
 3853TIP3    H211503   2.629   4.414   1.684 -1.7124 -1.0715  1.1363
 3854TIP3   OH211504   5.195   2.939   2.666 -0.5708  0.0876  0.1289
 3854TIP3    H111505   5.157   2.970   2.748  1.9661  1.7113  0.7490
 3854TIP3    H211506   5.173   3.007   2.603 -0.4660  0.0265  0.0259
 3855TIP3   OH211507   4.579   4.085   1.285  0.1491 -0.6804 -0.4339
 3855TIP3    H111508   4.641   4.131   1.342  0.9099 -2.7664  0.4486
 3855TIP3    H211509   4.609   4.105   1.196  0.6494  0.2638 -0.0584
 3856TIP3   OH211510   4.202   1.091   6.635  0.4619 -0.0576 -0.6720
 3856TIP3    H111511   4.294   1.097   6.609  0.3174  0.5140 -1.0627
 3856TIP3    H211512   4.187   0.997   6.647  1.6946 -0.0001  1.5858
 3857TIP3   OH211513   4.901   3.919   2.218  0.1499 -0.2813 -0.2432
 3857TIP3    H111514   4.930   3.845   2.166 -0.6217 -0.8990  0.2131
 3857TIP3    H211515   4.978   3.942   2.271  1.5010  1.4570 -2.8830
 3858TIP3   OH211516   3.157   4.622   3.345  0.2527  0.2599 -0.3573
 3858TIP3    H111517   3.245   4.590   3.368  0.3320  0.9055  0.2519
 3858TIP3    H211518   3.156   4.623   3.250  0.6572 -0.4352 -0.3758
 3859TIP3   OH211519   5.505   1.485   1.981 -0.0483  0.8911 -0.0846
 3859TIP3    H111520   5.569   1.546   1.945  1.0232 -0.1419  0.0677
 3859TIP3    H211521   5.509   1.499   2.076 -0.6980  1.4600 -0.1367
 3860TIP3   OH211522   7.154   2.264   0.802  0.1853 -0.0476 -0.0081
 3860TIP3    H111523   7.102   2.272   0.721  0.7240 -0.0031 -0.3505
 3860TIP3    H211524   7.234   2.219   0.775  0.3625 -0.0401  0.5057
 3861TIP3   OH211525   5.644   4.488   2.396 -0.3184 -0.3336  0.4672
 3861TIP3    H111526   5.623   4.518   2.485 -0.2634 -0.2558  0.4541
 3861TIP3    H211527   5.570   4.432   2.372 -0.3273 -0.3659  0.5669
 3862TIP3   OH211528   8.480   3.610   0.347  0.0462  0.0609 -0.1684
 3862TIP3    H111529   8.530   3.686   0.376  1.6062 -0.9145 -0.2253
 3862TIP3    H211530   8.456   3.630   0.257  1.2690  0.0833 -0.4955
 3863TIP3   OH211531   5.699   3.634   2.405 -0.1581  0.1878  0.8872
 3863TIP3    H111532   5.628   3.698   2.415 -1.2751 -1.2910  3.0220
 3863TIP3    H211533   5.680   3.590   2.322 -0.9311  0.7884  0.7395
 3864TIP3   OH211534   4.380   4.324   1.819  0.1772  0.6803  0.0141
 3864TIP3    H111535   4.349   4.234   1.812 -1.1545  1.1326 -0.0964
 3864TIP3    H211536   4.425   4.341   1.736 -0.8840  0.6025 -0.5856
 3865TIP3   OH211537   4.894   5.561   1.696 -0.4467  0.5870  0.0110
 3865TIP3    H111538   4.936   5.645   1.680  0.6883 -0.2584 -1.5925
 3865TIP3    H211539   4.864   5.532   1.609 -1.1951 -0.4775  0.6082
 3866TIP3   OH211540   3.959   3.334   2.131 -0.0319 -0.1863  0.1249
 3866TIP3    H111541   4.028   3.274   2.160  2.0500  2.5023  0.8916
 3866TIP3    H211542   3.918   3.364   2.212  0.2324  0.9372 -0.1609
 3867TIP3   OH211543   3.997   3.978   0.614 -0.0733 -0.0300  0.1932
 3867TIP3    H111544   4.073   3.959   0.669  0.0942  1.5195  0.5218
 3867TIP3    H211545   4.022   4.057   0.567 -0.6072 -0.7894 -1.3939
 3868TIP3   OH211546   5.211   4.517   2.729  0.3031  0.3967  0.3613
 3868TIP3    H111547   5.273   4.550   2.794  0.0842  2.1459 -0.2965
 3868TIP3    H211548   5.233   4.564   2.649 -1.7275  0.8726  0.0597
 3869TIP3   OH211549   5.334   3.099   2.430 -0.2334  0.5979 -0.3757
 3869TIP3    H111550   5.245   3.131   2.413 -0.6772 -0.0562  0.6858
 3869TIP3    H211551   5.351   3.039   2.357  0.0833  2.1831 -1.6264
 3870TIP3   OH211552   3.742   3.577   2.948 -0.4641  0.4233  0.2720
 3870TIP3    H111553   3.746   3.513   2.877 -0.0284 -0.1999  0.8430
 3870TIP3    H211554   3.709   3.527   3.023  0.6020  0.6726  0.9215
 3871TIP3   OH211555   6.282   2.126   1.779  0.0278 -0.5204 -0.4721
 3871TIP3    H111556   6.222   2.164   1.714 -0.6438 -1.7613 -0.5828
 3871TIP3    H211557   6.368   2.159   1.753 -0.3693 -0.1946 -1.4006
 3872TIP3   OH211558   6.215   4.860   3.694 -0.3434  0.3079 -0.5425
 3872TIP3    H111559   6.189   4.841   3.784  1.6253  0.5283  0.0932
 3872TIP3    H211560   6.242   4.775   3.658  1.6181  0.6680  0.0167
 3873TIP3   OH211561   6.857   2.026   1.347 -0.8501 -0.0708 -0.3913
 3873TIP3    H111562   6.953   2.023   1.354 -0.8857  0.3416  0.3711
 3873TIP3    H211563   6.835   2.119   1.354 -1.2160 -0.0337 -1.9840
 3874TIP3   OH211564   7.327   3.062   3.308  0.5400 -0.0917  0.0009
 3874TIP3    H111565   7.311   3.072   3.214 -2.4696 -0.7556  0.3879
 3874TIP3    H211566   7.356   2.972   3.318  0.8076 -0.0380 -0.2806
 3875TIP3   OH211567   0.890   1.762   5.659  0.1238  0.1458  0.1896
 3875TIP3    H111568   0.883   1.823   5.586  1.9331  2.1632  1.6526
 3875TIP3    H211569   0.869   1.813   5.736  0.4493 -1.3864  1.3246
 3876TIP3   OH211570   6.013   3.989   1.160 -0.3447 -0.0006 -0.1913
 3876TIP3    H111571   5.934   3.953   1.201 -0.8117  1.7814  0.5511
 3876TIP3    H211572   6.072   4.006   1.234 -0.1378  0.7185 -0.5189
 3877TIP3   OH211573   2.512   1.015   6.304 -0.1715 -0.1674 -0.7483
 3877TIP3    H111574   2.573   0.943   6.319  1.0905  0.7580 -1.3270
 3877TIP3    H211575   2.475   1.034   6.390  2.3103  0.9492  0.1435
 3878TIP3   OH211576   5.841   5.120   2.366 -0.2027  0.1274  0.4581
 3878TIP3    H111577   5.907   5.144   2.431 -0.3625  0.3002  0.5595
 3878TIP3    H211578   5.877   5.151   2.283  0.7898 -1.6497  0.2185
 3879TIP3   OH211579   4.182   4.371   2.772  0.1416 -0.0343 -0.0295
 3879TIP3    H111580   4.241   4.311   2.726  0.2786  0.0698  0.0101
 3879TIP3    H211581   4.205   4.457   2.737 -0.0173  0.0001 -0.0466
 3880TIP3   OH211582   6.247   2.804   1.642  0.4982 -0.0496 -0.1495
 3880TIP3    H111583   6.287   2.887   1.615  1.0987 -0.0665  0.6862
 3880TIP3    H211584   6.321   2.744   1.655  0.2513  0.0728  1.9545
 3881TIP3   OH211585   5.340   4.545   0.096 -0.1287  0.4242  0.6633
 3881TIP3    H111586   5.386   4.562   0.014 -1.9430  0.1580 -0.4397
 3881TIP3    H211587   5.396   4.482   0.142 -0.1831 -1.1929 -1.3911
 3882TIP3   OH211588   6.678   3.946   3.244 -0.1158 -0.7860  0.2020
 3882TIP3    H111589   6.730   3.965   3.166 -0.6294 -1.0950 -0.2209
 3882TIP3    H211590   6.737   3.963   3.318  0.0741  0.4321 -0.2270
 3883TIP3   OH211591   3.068   1.752   5.159  0.0420 -0.0653 -0.4561
 3883TIP3    H111592   3.000   1.819   5.148 -1.6531 -1.9192 -1.4526
 3883TIP3    H211593   3.146   1.802   5.184 -1.7414  2.0699  1.0211
 3884TIP3   OH211594   6.543   5.299   2.679  0.2772  0.0173  0.3404
 3884TIP3    H111595   6.474   5.345   2.632  0.7830  1.1189  0.6544
 3884TIP3    H211596   6.552   5.347   2.762  3.1358  1.4750 -0.7523
 3885TIP3   OH211597   6.327   5.247   0.971  0.6307 -0.0196  0.0868
 3885TIP3    H111598   6.306   5.191   1.045  2.1479  0.4830  0.9220
 3885TIP3    H211599   6.385   5.314   1.007  1.8218 -0.0783 -1.6515
 3886TIP3   OH211600   2.961   3.146   3.366 -0.4665  0.2335  0.0963
 3886TIP3    H111601   2.957   3.233   3.326  0.3903  0.6219  0.8298
 3886TIP3    H211602   2.875   3.133   3.406 -0.3913  0.9927  0.4998
 3887TIP3   OH211603   5.158   3.656   2.330  0.2822  0.0219 -0.0237
 3887TIP3    H111604   5.207   3.579   2.358 -0.9475 -1.0665 -0.7847
 3887TIP3    H211605   5.135   3.700   2.412  4.2553  1.6966  0.2708
 3888TIP3   OH211606   4.670   6.168   1.303 -0.3962  0.0108 -0.3198
 3888TIP3    H111607   4.742   6.130   1.253 -1.3182 -0.9247 -0.9806
 3888TIP3    H211608   4.701   6.255   1.328  0.1915  0.4021 -2.3275
 3889TIP3   OH211609   4.776   2.411   2.364 -0.6522  0.0647  0.5412
 3889TIP3    H111610   4.769   2.351   2.290 -1.2195  1.8594 -0.8793
 3889TIP3    H211611   4.791   2.353   2.439  0.5922 -1.7511 -1.0310
 3890TIP3   OH211612   5.028   3.794   1.675  0.1495  0.0467 -0.2739
 3890TIP3    H111613   4.995   3.710   1.643 -0.1320  0.3544 -0.8006
 3890TIP3    H211614   5.095   3.770   1.739 -0.3476 -0.5830  0.0210
 3891TIP3   OH211615   7.975   4.982   0.829  0.1105  0.4139  0.2539
 3891TIP3    H111616   8.048   5.043   0.816  0.0980  0.4176  0.1991
 3891TIP3    H211617   7.899   5.028   0.793  0.4163 -0.3529 -1.4504
 3892TIP3   OH211618   5.049   4.500   0.765 -0.2706 -0.0182 -0.2819
 3892TIP3    H111619   5.136   4.484   0.801  0.1581  1.5632 -0.6008
 3892TIP3    H211620   5.042   4.441   0.690 -0.1074 -1.3218  0.7128
 3893TIP3   OH211621   4.285   2.937   1.882 -0.1597 -0.4049  0.2025
 3893TIP3    H111622   4.305   2.881   1.957  1.8120  1.7356  1.3449
 3893TIP3    H211623   4.245   3.015   1.921 -0.6761  0.0218 -1.1518
 3894TIP3   OH211624   6.176   2.799   2.209  0.4524 -0.0715 -0.0045
 3894TIP3    H111625   6.215   2.786   2.122  3.1106  0.5842  1.0542
 3894TIP3    H211626   6.196   2.890   2.231  1.5320 -0.8045  2.1307
 3895TIP3   OH211627   6.172   4.912   1.540  0.2798 -0.4686  0.0774
 3895TIP3    H111628   6.181   4.885   1.632  1.0673  1.1653  0.5046
 3895TIP3    H211629   6.101   4.977   1.542  0.1539 -0.5911 -0.5070
 3896TIP3   OH211630   3.569   1.968   4.929 -0.2460 -0.4006  0.3298
 3896TIP3    H111631   3.643   1.953   4.870 -0.4771  0.5958 -0.2189
 3896TIP3    H211632   3.567   2.063   4.941 -0.6887 -0.5289  1.3172
 3897TIP3   OH211633   7.058   4.050   6.054  0.2252  0.3164 -0.2563
 3897TIP3    H111634   7.142   4.095   6.043 -0.0230  1.3726  1.8298
 3897TIP3    H211635   7.059   3.980   5.989  2.4484  0.7136 -0.6810
 3898TIP3   OH211636   0.122   1.493   1.740  0.0898  0.1168  0.4293
 3898TIP3    H111637   0.086   1.554   1.804 -0.6084  1.1466 -0.9377
 3898TIP3    H211638   0.165   1.548   1.675  0.4867 -0.9099 -0.1961
 3899TIP3   OH211639   4.706   2.847   1.269  0.5261  0.3406 -0.1466
 3899TIP3    H111640   4.620   2.874   1.237  0.3630 -1.0924 -0.9875
 3899TIP3    H211641   4.694   2.754   1.291  0.9079  1.0014  3.0911
 3900TIP3   OH211642   4.852   4.515   1.558 -0.0914 -0.4712  0.3096
 3900TIP3    H111643   4.880   4.482   1.472  0.3078  0.0313  0.2403
 3900TIP3    H211644   4.757   4.505   1.559 -0.2366  0.7117 -0.7003
 3901TIP3   OH211645   5.109   3.543   1.595 -0.1313  0.0653 -0.0058
 3901TIP3    H111646   5.153   3.474   1.645  2.9146  1.4028 -0.6798
 3901TIP3    H211647   5.174   3.569   1.530 -1.5536  2.9311 -0.3310
 3902TIP3   OH211648   5.661   4.157   0.466  0.3000 -0.2772 -0.5187
 3902TIP3    H111649   5.687   4.164   0.375  3.0247 -0.0449  0.2424
 3902TIP3    H211650   5.742   4.137   0.514 -0.9625  0.1254  1.9013
 3903TIP3   OH211651   8.141   2.024   4.179  0.2974  0.0911 -0.8966
 3903TIP3    H111652   8.114   2.106   4.221  0.8966  0.2856 -0.8820
 3903TIP3    H211653   8.106   1.955   4.236 -1.9705  0.3061 -2.0171
 3904TIP3   OH211654   4.434   3.977   0.529 -0.2240  0.4906  0.2233
 3904TIP3    H111655   4.521   3.945   0.554  0.2271  0.6303 -1.1649
 3904TIP3    H211656   4.426   3.957   0.436 -1.2066  1.5688  0.0625
 3905TIP3   OH211657   5.086   5.738   2.256  0.3124  0.2598  0.5519
 3905TIP3    H111658   5.128   5.666   2.302 -3.5603 -1.6356  1.2670
 3905TIP3    H211659   5.081   5.809   2.321 -0.0824 -0.4615  1.3089
 3906TIP3   OH211660   5.208   2.076   2.342  0.1462  0.4313  0.4379
 3906TIP3    H111661   5.211   2.111   2.253  1.8454  0.4061  0.4735
 3906TIP3    H211662   5.296   2.089   2.376  0.3061 -2.2065  1.1214
 3907TIP3   OH211663   4.667   3.609   0.602  0.1655  0.0798 -0.1691
 3907TIP3    H111664   4.680   3.636   0.693  1.1668  2.5498 -0.9880
 3907TIP3    H211665   4.708   3.679   0.551 -1.6467 -0.5383 -2.5540
 3908TIP3   OH211666   5.999   3.748   1.961 -0.0546 -0.0038 -0.6140
 3908TIP3    H111667   5.905   3.763   1.951 -0.8220 -2.8686  1.7255
 3908TIP3    H211668   6.007   3.695   2.040  3.5835  0.5273 -0.5329
 3909TIP3   OH211669   6.222   1.405   1.050  0.0516  0.4952  0.6015
 3909TIP3    H111670   6.259   1.463   1.117 -1.5378  1.2524  0.8675
 3909TIP3    H211671   6.146   1.366   1.092 -0.9921  1.0097 -0.7571
 3910TIP3   OH211672   5.783   4.045   3.208 -0.2596 -0.4073  0.3818
 3910TIP3    H111673   5.798   4.033   3.302  1.7257 -0.2204  0.1047
 3910TIP3    H211674   5.765   3.957   3.175 -1.0815 -0.4574  0.9494
 3911TIP3   OH211675   2.536   3.152   1.143  0.4984 -0.1244 -0.2814
 3911TIP3    H111676   2.529   3.057   1.135 -0.1929  0.0328 -1.7703
 3911TIP3    H211677   2.473   3.175   1.211  0.4429 -0.6925 -0.1375
 3912TIP3   OH211678   4.899   5.685   1.974 -0.5959 -0.1355  0.1819
 3912TIP3    H111679   4.805   5.665   1.980 -1.6324  3.8947 -0.9568
 3912TIP3    H211680   4.913   5.706   1.882  1.0852  0.8585  0.6436
 3913TIP3   OH211681   7.442   2.464   0.562 -0.4645 -0.1888  0.7526
 3913TIP3    H111682   7.474   2.460   0.652 -0.0931  1.9196  0.7453
 3913TIP3    H211683   7.516   2.497   0.512 -0.7029 -1.2606 -0.3265
 3914TIP3   OH211684   7.096   3.718   2.723  0.0793  0.2679 -0.5992
 3914TIP3    H111685   7.016   3.679   2.687  0.8808  0.4660 -2.6646
 3914TIP3    H211686   7.109   3.797   2.672  2.5911 -0.7168 -1.5379
 3915TIP3   OH211687   4.271   3.728   2.797  0.1732 -0.2757 -0.4194
 3915TIP3    H111688   4.271   3.764   2.886 -0.1889 -1.4016  0.0468
 3915TIP3    H211689   4.182   3.696   2.783  0.2118 -0.0567 -1.2168
 3916TIP3   OH211690   4.949   3.132   1.777  0.6059 -0.2723 -0.0554
 3916TIP3    H111691   4.870   3.078   1.787  0.7196 -0.0693  2.0516
 3916TIP3    H211692   4.916   3.217   1.749  0.2300 -0.7074 -0.9592
 3917TIP3   OH211693   4.987   4.167   2.132 -0.0856 -0.1823 -0.1988
 3917TIP3    H111694   5.019   4.166   2.042  1.5494 -0.1672  0.3701
 3917TIP3    H211695   4.964   4.076   2.150 -2.6208  0.1812 -1.3773
 3918TIP3   OH211696   4.199   0.541   6.956  1.2009 -0.1025  0.0095
 3918TIP3    H111697   4.231   0.628   6.981  1.0333 -0.3460  1.0787
 3918TIP3    H211698   4.222   0.533   6.863  1.1442  1.1194 -0.1253
 3919TIP3   OH211699   5.471   3.492   2.632  0.2321  0.0053 -0.6715
 3919TIP3    H111700   5.480   3.402   2.663  2.3765  0.5466  0.3652
 3919TIP3    H211701   5.481   3.486   2.537  1.2605 -0.7640 -0.5277
 3920TIP3   OH211702   8.048   3.458   0.842 -0.0181 -0.0965  0.3315
 3920TIP3    H111703   8.141   3.442   0.822  0.1105  0.0825  0.7687
 3920TIP3    H211704   8.019   3.521   0.776  0.7948  1.6404  1.5811
 3921TIP3   OH211705   6.131   1.817   2.037  0.7885  0.4251 -0.2570
 3921TIP3    H111706   6.153   1.910   2.032 -1.9121  1.2475  1.4682
 3921TIP3    H211707   6.171   1.788   2.119  3.2954 -0.4635 -1.7650
 3922TIP3   OH211708   6.888   1.225   3.414 -0.3453 -0.3097  0.0651
 3922TIP3    H111709   6.863   1.269   3.495 -0.6481 -0.7411  0.2086
 3922TIP3    H211710   6.807   1.220   3.363 -0.4004 -1.0518  0.2194
 3923TIP3   OH211711   5.246   2.961   1.538 -0.0271 -0.0485 -0.5620
 3923TIP3    H111712   5.308   2.890   1.554  1.1452  0.7785 -1.3938
 3923TIP3    H211713   5.166   2.933   1.582  0.9674 -1.0740  0.6336
 3924TIP3   OH211714   7.224   3.392   2.701  0.2816 -0.4646 -0.2503
 3924TIP3    H111715   7.245   3.485   2.693 -0.5876 -0.0319  2.1525
 3924TIP3    H211716   7.134   3.390   2.733  0.2478 -2.1348 -0.3977
 3925TIP3   OH211717   5.595   4.588   0.898 -0.0703  0.3093 -0.1850
 3925TIP3    H111718   5.614   4.599   0.991 -0.4065  1.9718 -0.2833
 3925TIP3    H211719   5.643   4.510   0.872 -1.1981 -1.0336  1.7085
 3926TIP3   OH211720   5.745   1.981   3.765 -0.2186  0.4224  0.4757
 3926TIP3    H111721   5.822   1.924   3.759 -0.3942  0.0932  1.2665
 3926TIP3    H211722   5.763   2.037   3.841 -0.8999  0.1321  0.8502
 3927TIP3   OH211723   4.643   1.588   3.106  0.9600  0.6522  0.8005
 3927TIP3    H111724   4.660   1.681   3.124 -0.3807  0.9483  0.5437
 3927TIP3    H211725   4.730   1.550   3.096  1.5140  1.9840  0.4074
 3928TIP3   OH211726   5.959   1.492   2.128 -0.0631  0.4918 -0.0939
 3928TIP3    H111727   5.886   1.544   2.161 -0.7954 -0.4219 -0.2830
 3928TIP3    H211728   5.919   1.415   2.089  1.0512 -0.5176  0.7078
 3929TIP3   OH211729   7.156   2.389   2.158 -0.0130  0.3225  0.2805
 3929TIP3    H111730   7.095   2.344   2.100 -0.9358  0.8735  0.8034
 3929TIP3    H211731   7.101   2.428   2.226  0.9608  0.4843  0.9989
 3930TIP3   OH211732   4.118   2.272   6.044  0.7547 -0.3640  0.2794
 3930TIP3    H111733   4.034   2.226   6.040  0.6070  0.0030 -1.6688
 3930TIP3    H211734   4.126   2.301   6.135 -0.9634 -0.8798  0.6123
 3931TIP3   OH211735   5.415   2.676   1.965 -0.1289  0.1318 -0.1893
 3931TIP3    H111736   5.480   2.673   2.035  1.1849 -0.1968 -1.3854
 3931TIP3    H211737   5.398   2.584   1.944 -1.0112  0.2162  0.1398
 3932TIP3   OH211738   3.972   2.377   3.496  0.0153  0.2576 -0.4707
 3932TIP3    H111739   3.904   2.434   3.533  2.0355  1.6210  1.2277
 3932TIP3    H211740   3.998   2.321   3.569  0.5160 -0.4704 -1.2059
 3933TIP3   OH211741   5.166   2.699   1.108 -0.1290 -0.1067  0.5260
 3933TIP3    H111742   5.146   2.674   1.018  0.7053  1.3629 -0.0963
 3933TIP3    H211743   5.098   2.762   1.131  0.0467  0.0310  0.6741
 3934TIP3   OH211744   5.568   5.209   0.825 -0.5635  0.1065  0.2276
 3934TIP3    H111745   5.582   5.123   0.785  0.1963  1.0160 -1.5041
 3934TIP3    H211746   5.511   5.256   0.764 -0.2189  1.1500  0.6916
 3935TIP3   OH211747   4.367   3.682   1.748  0.5400  0.5395  0.3693
 3935TIP3    H111748   4.460   3.667   1.764  0.5401 -0.3778 -0.4439
 3935TIP3    H211749   4.342   3.613   1.687 -0.1985  1.9586 -0.9811
 3936TIP3   OH211750   8.345   3.103   6.525 -0.4324  0.4959 -0.1878
 3936TIP3    H111751   8.432   3.064   6.517 -1.1039 -1.1489  0.3065
 3936TIP3    H211752   8.357   3.179   6.583  0.6573  0.2725 -0.1246
 3937TIP3   OH211753   6.193   5.072   0.043  0.4330  0.1920 -0.1657
 3937TIP3    H111754   6.220   5.099   0.131 -1.5149  2.7843 -0.2760
 3937TIP3    H211755   6.246   5.125  -0.016 -0.2009  0.4814 -0.4854
 3938TIP3   OH211756   5.700   4.432   3.238  0.0638  0.7391  0.8579
 3938TIP3    H111757   5.683   4.362   3.175 -1.0277  1.2841  0.5355
 3938TIP3    H211758   5.614   4.472   3.253  0.8992  3.0124 -0.1602
 3939TIP3   OH211759   5.772   5.478   0.565 -0.6629 -0.7776  0.0848
 3939TIP3    H111760   5.703   5.528   0.608 -1.8807 -1.4235 -1.1175
 3939TIP3    H211761   5.816   5.541   0.508 -0.1301 -0.3251  0.9870
 3940TIP3   OH211762   7.056   5.302   1.361 -0.1206 -0.4566  0.5350
 3940TIP3    H111763   7.127   5.348   1.405 -0.0807  1.5004 -1.4575
 3940TIP3    H211764   7.097   5.224   1.325  1.0271  0.5557 -0.4326
 3941TIP3   OH211765   6.251   5.129   1.220  0.5105  0.1050 -0.4463
 3941TIP3    H111766   6.179   5.178   1.259  0.5705  0.6849 -1.0621
 3941TIP3    H211767   6.326   5.148   1.277  0.3241  0.0054 -0.1681
 3942TIP3   OH211768   6.510   2.900   2.939 -0.0764 -0.1087  0.2296
 3942TIP3    H111769   6.449   2.873   3.009  0.7250 -2.7390 -0.0281
 3942TIP3    H211770   6.588   2.846   2.953  0.2233 -0.4682 -2.4930
 3943TIP3   OH211771   5.712   4.308   1.860 -0.4845  0.9207 -0.0056
 3943TIP3    H111772   5.662   4.340   1.936 -0.2305 -1.1707  1.0775
 3943TIP3    H211773   5.801   4.295   1.894 -0.4235 -0.2431 -0.5865
 3944TIP3   OH211774   4.506   4.352   0.518 -0.1856 -0.0489 -0.0228
 3944TIP3    H111775   4.574   4.336   0.453  0.8481  0.9030  0.7905
 3944TIP3    H211776   4.544   4.417   0.577 -1.3087 -0.4788  1.2084
 3945TIP3   OH211777   6.974   3.815   0.719  0.4865 -0.0687  0.4034
 3945TIP3    H111778   6.958   3.880   0.650 -0.0321 -0.4612  0.1502
 3945TIP3    H211779   6.912   3.839   0.788  0.2585 -0.3265  0.2881
 3946TIP3   OH211780   5.238   1.211   0.790  0.0458  0.5779  0.2238
 3946TIP3    H111781   5.148   1.239   0.776 -0.0084  1.0601  1.4566
 3946TIP3    H211782   5.288   1.254   0.720 -0.8141 -0.5161 -1.0860
 3947TIP3   OH211783   6.395   2.995   3.438  0.1313 -0.1373 -0.2368
 3947TIP3    H111784   6.386   3.089   3.419  1.4401 -0.0841 -0.6275
 3947TIP3    H211785   6.351   2.983   3.522 -0.5580  0.7181 -0.4696
 3948TIP3   OH211786   3.286   2.004   2.369 -0.2916  0.2368  0.1692
 3948TIP3    H111787   3.356   2.067   2.351 -0.4683  0.4588  0.2602
 3948TIP3    H211788   3.309   1.928   2.315 -1.2920  1.2220 -1.7164
 3949TIP3   OH211789   6.543   4.070   1.148  0.0663 -0.2991 -0.2159
 3949TIP3    H111790   6.468   4.130   1.153 -0.8221 -1.3680 -0.5708
 3949TIP3    H211791   6.591   4.099   1.070  1.0054  1.4968  1.0059
 3950TIP3   OH211792   5.165   4.077   1.034 -0.2114 -0.1820 -0.1995
 3950TIP3    H111793   5.253   4.057   1.002  0.5653  0.9409  1.1976
 3950TIP3    H211794   5.158   4.172   1.029 -0.5147 -0.0843  1.8103
 3951TIP3   OH211795   4.326   1.919   1.473 -0.6562  0.6874 -0.3387
 3951TIP3    H111796   4.281   1.932   1.390 -1.2489  3.0922  0.3116
 3951TIP3    H211797   4.267   1.955   1.539  0.5425  0.3889  0.9361
 3952TIP3   OH211798   6.335   0.950   1.962  0.1019  0.0979 -0.6779
 3952TIP3    H111799   6.328   0.994   1.877  0.4317  1.2034 -0.1392
 3952TIP3    H211800   6.321   1.020   2.026 -0.8082 -0.8547  0.1665
 3953TIP3   OH211801   3.839   3.216   0.690  0.0407 -0.0559 -0.1307
 3953TIP3    H111802   3.890   3.147   0.647 -1.2845 -1.3065  0.2765
 3953TIP3    H211803   3.758   3.220   0.640  1.3452  3.4734 -2.1735
 3954TIP3   OH211804   6.488   2.172   2.585  0.0704 -0.0988  0.2124
 3954TIP3    H111805   6.423   2.234   2.553  0.2673  0.6701  1.2771
 3954TIP3    H211806   6.572   2.218   2.575  0.5686 -1.3589 -1.8553
 3955TIP3   OH211807   5.303   3.531   2.037  0.2641 -0.2439  0.4269
 3955TIP3    H111808   5.318   3.582   2.117 -0.4357  0.2408  0.2486
 3955TIP3    H211809   5.227   3.477   2.057 -0.3529  0.3984 -0.1568
 3956TIP3   OH211810   5.313   4.813   0.194 -0.2471  0.2932  0.3953
 3956TIP3    H111811   5.329   4.726   0.157  1.4033  0.6615  0.2121
 3956TIP3    H211812   5.377   4.869   0.150 -0.7404  1.4422  1.1377
 3957TIP3   OH211813   7.167   0.748   2.697  0.8606  0.1206 -0.1249
 3957TIP3    H111814   7.242   0.706   2.654  0.0360 -1.5926  0.0657
 3957TIP3    H211815   7.133   0.681   2.756 -2.3538 -0.0157 -1.9994
 3958TIP3   OH211816   5.778   3.856   2.810 -0.8539 -0.2473  0.2415
 3958TIP3    H111817   5.854   3.804   2.786  0.4543  2.0388 -0.6808
 3958TIP3    H211818   5.704   3.794   2.804  0.8613 -2.4440  1.0241
 3959TIP3   OH211819   3.820   5.923   4.045  0.4713  0.1033 -0.3440
 3959TIP3    H111820   3.909   5.950   4.070  0.5590  0.1644 -0.7153
 3959TIP3    H211821   3.809   5.957   3.956  0.0074  0.2572 -0.2297
 3960TIP3   OH211822   3.858   1.744   3.553  0.1866 -0.0461  0.3486
 3960TIP3    H111823   3.828   1.791   3.631 -1.6525  0.7500 -0.8034
 3960TIP3    H211824   3.854   1.651   3.579  0.6421  0.2549  1.5503
 3961TIP3   OH211825   5.034   0.862   0.839  0.4681  0.3439  0.4540
 3961TIP3    H111826   5.063   0.952   0.820  0.6235 -0.0035 -1.0058
 3961TIP3    H211827   4.940   0.863   0.822  0.6075  0.0310 -0.3519
 3962TIP3   OH211828   3.478   1.033   1.146 -0.2749  0.0090 -0.6008
 3962TIP3    H111829   3.403   1.076   1.187 -0.0560 -0.7707  0.6703
 3962TIP3    H211830   3.465   0.940   1.165  1.7712 -0.0043  0.9814
 3963TIP3   OH211831   5.042   4.047   1.773  0.1931 -0.2013 -0.3400
 3963TIP3    H111832   5.022   4.085   1.688  0.0131  1.4877  0.4531
 3963TIP3    H211833   5.043   3.952   1.757  2.2660  0.1541 -2.6692
 3964TIP3   OH211834   6.084   4.589   4.733  0.1722  0.2020  0.5078
 3964TIP3    H111835   6.054   4.566   4.821  0.3536 -0.8210  0.3120
 3964TIP3    H211836   6.039   4.526   4.676 -2.3295  2.7590 -0.4633
 3965TIP3   OH211837   5.640   2.749   2.789 -0.3101 -0.3161  0.6022
 3965TIP3    H111838   5.676   2.796   2.714  0.4154 -1.0817  0.4525
 3965TIP3    H211839   5.643   2.657   2.762 -2.2350 -0.4253  0.6602
 3966TIP3   OH211840   4.915   5.033   1.358 -0.8297  0.1895  0.2057
 3966TIP3    H111841   4.865   5.083   1.293  0.5470  1.1187 -0.1643
 3966TIP3    H211842   4.928   5.094   1.430 -0.5500 -0.1611  0.4534
 3967TIP3   OH211843   6.112   4.041   2.616  0.0129  0.3053  0.0098
 3967TIP3    H111844   6.069   4.123   2.639 -1.2242 -0.7129  1.4507
 3967TIP3    H211845   6.099   3.985   2.692  1.7687 -0.8773 -0.5276
 3968TIP3   OH211846   4.976   4.411   3.518  0.2601  0.0188 -0.4927
 3968TIP3    H111847   4.919   4.469   3.569  1.2031 -0.5652  1.2851
 3968TIP3    H211848   4.921   4.335   3.499  0.3193 -0.4007  0.9291
 3969TIP3   OH211849   6.412   1.784   2.205  0.5377  0.0009  0.0468
 3969TIP3    H111850   6.429   1.727   2.280  0.9161  0.1146  0.0504
 3969TIP3    H211851   6.402   1.871   2.243 -0.5974 -0.1424  0.0990
 3970TIP3   OH211852   4.216   4.486   2.430  0.0194  0.0340 -0.4118
 3970TIP3    H111853   4.240   4.529   2.512 -0.9111  1.4299 -0.8768
 3970TIP3    H211854   4.297   4.443   2.402  0.6824  0.6159  0.5770
 3971TIP3   OH211855   4.660   2.813   2.787  0.0147 -0.1252  0.4335
 3971TIP3    H111856   4.601   2.823   2.862  0.2152  0.3237  0.5338
 3971TIP3    H211857   4.747   2.807   2.825  0.1831  0.7578  0.2103
 3972TIP3   OH211858   5.602   7.229   3.725 -0.3683  0.3344  0.7954
 3972TIP3    H111859   5.567   7.243   3.813 -1.3042 -0.0167  0.4796
 3972TIP3    H211860   5.663   7.155   3.736  0.0448  0.7398  1.2777
 3973TIP3   OH211861   5.897   4.655   0.684  0.1422  0.3386  0.0845
 3973TIP3    H111862   5.982   4.683   0.717  0.2614  2.1723 -1.7050
 3973TIP3    H211863   5.837   4.726   0.705 -0.8842 -0.7651  0.9722
 3974TIP3   OH211864   6.605   4.345   0.304  0.1101  0.0212 -0.0517
 3974TIP3    H111865   6.636   4.397   0.230 -0.7103 -0.0319 -0.4351
 3974TIP3    H211866   6.534   4.292   0.268  0.1559 -0.4952  0.6174
 3975TIP3   OH211867   4.263   4.741   3.453  0.6597  0.6056  0.0195
 3975TIP3    H111868   4.335   4.715   3.395  1.0175  0.6836  0.4316
 3975TIP3    H211869   4.231   4.823   3.415 -0.4923 -0.4282 -1.2987
 3976TIP3   OH211870   6.727   5.702   2.264  0.6720  0.4169 -0.2512
 3976TIP3    H111871   6.808   5.693   2.313  0.1147  0.5242  0.7056
 3976TIP3    H211872   6.734   5.787   2.220  1.2078  0.2811 -0.4260
 3977TIP3   OH211873   3.068   6.307   0.472  0.4345 -0.3508  0.1274
 3977TIP3    H111874   2.975   6.326   0.457 -0.0121 -3.1407 -0.9370
 3977TIP3    H211875   3.070   6.217   0.505  2.7983 -0.6412 -0.6610
 3978TIP3   OH211876   6.721   1.801   1.450 -0.3746 -0.1725 -0.2420
 3978TIP3    H111877   6.679   1.831   1.530  3.8343 -1.1541  2.5179
 3978TIP3    H211878   6.754   1.881   1.409 -0.5042  0.1296  0.2449
 3979TIP3   OH211879   5.117   4.123   0.608 -0.0645  0.1978  0.1711
 3979TIP3    H111880   5.131   4.191   0.542  0.8894  0.7693  0.9551
 3979TIP3    H211881   5.198   4.071   0.606 -0.9479 -1.2042 -0.7269
 3980TIP3   OH211882   7.853   2.577   3.132 -0.6859  0.0546 -0.1944
 3980TIP3    H111883   7.908   2.526   3.073 -0.4283 -0.1688  0.2374
 3980TIP3    H211884   7.769   2.583   3.087  0.4066  2.5319 -2.0460
 3981TIP3   OH211885   4.754   2.210   2.190  0.2163 -0.6487 -0.2070
 3981TIP3    H111886   4.713   2.123   2.190 -0.3429 -0.3864 -0.3164
 3981TIP3    H211887   4.723   2.251   2.109  0.2779 -0.2554 -0.0316
 3982TIP3   OH211888   4.843   2.253   1.390 -0.4709 -0.4866 -0.2815
 3982TIP3    H111889   4.806   2.241   1.303 -0.3669 -0.9745 -0.2633
 3982TIP3    H211890   4.827   2.169   1.434  0.5356 -0.6602 -0.2315
 3983TIP3   OH211891   6.211   2.450   1.498  0.4264 -0.0677  0.5109
 3983TIP3    H111892   6.307   2.451   1.498  0.4554 -1.3865  0.1412
 3983TIP3    H211893   6.185   2.522   1.441  1.2576 -2.1121 -2.5582
 3984TIP3   OH211894   5.441   0.974   4.007 -0.2433 -0.3887 -0.1592
 3984TIP3    H111895   5.392   1.054   3.989 -0.5506 -0.6097 -0.2995
 3984TIP3    H211896   5.486   0.992   4.090 -0.8474 -0.3213  0.1496
 3985TIP3   OH211897   7.405   1.190   3.291  0.0245  0.5321 -0.1125
 3985TIP3    H111898   7.430   1.256   3.227 -0.8624  0.3371 -0.6619
 3985TIP3    H211899   7.314   1.209   3.311  0.0354  0.0371  0.4194
 3986TIP3   OH211900   2.582   2.078   5.814 -0.0796  0.2494 -0.0962
 3986TIP3    H111901   2.543   2.029   5.886 -0.0284  0.1884 -0.1100
 3986TIP3    H211902   2.560   2.028   5.736  1.5104 -0.7356  0.0603
 3987TIP3   OH211903   5.976   4.078   1.578  0.2034 -0.0224  0.3658
 3987TIP3    H111904   5.995   4.172   1.586  2.0492 -0.3161 -0.2511
 3987TIP3    H211905   5.968   4.063   1.483  3.2582 -1.0663  0.2179
 3988TIP3   OH211906   3.812   2.985   2.731 -0.4653 -0.0240  0.0640
 3988TIP3    H111907   3.754   3.049   2.690 -0.0149  0.0550 -0.4520
 3988TIP3    H211908   3.797   2.996   2.825  0.8802  2.0604  0.0735
 3989TIP3   OH211909   6.051   6.327   0.119  0.4353 -0.0216 -0.1436
 3989TIP3    H111910   5.997   6.248   0.124 -0.3090  0.4900  0.0857
 3989TIP3    H211911   6.110   6.320   0.195 -0.8602  0.5211  0.9301
 3990TIP3   OH211912   5.761   2.692   1.575 -0.4432 -0.5390  0.0774
 3990TIP3    H111913   5.748   2.783   1.547  0.3811 -0.1622  0.8842
 3990TIP3    H211914   5.855   2.686   1.592 -0.5679 -1.4297  0.4408
 3991TIP3   OH211915   6.711   3.227   3.228  0.7330 -0.1168  0.0109
 3991TIP3    H111916   6.778   3.238   3.295 -1.1261 -1.9784  2.2709
 3991TIP3    H211917   6.645   3.294   3.248 -0.4477 -1.5115  0.8739
 3992TIP3   OH211918   5.535   2.646   3.432 -0.4787  0.3734 -0.2251
 3992TIP3    H111919   5.506   2.631   3.523  0.1621  0.2955 -0.0303
 3992TIP3    H211920   5.518   2.563   3.388 -3.2422  1.2256 -0.8453
 3993TIP3   OH211921   4.446   3.440   0.860 -0.0385  0.2364  0.2407
 3993TIP3    H111922   4.474   3.391   0.937 -0.3209  0.9141  0.7863
 3993TIP3    H211923   4.356   3.466   0.880 -0.1783  0.2455 -0.4031
 3994TIP3   OH211924   6.396   2.804   3.187 -0.0937 -0.3809 -0.3581
 3994TIP3    H111925   6.485   2.833   3.204 -0.0168 -0.5534 -0.4694
 3994TIP3    H211926   6.372   2.753   3.264  0.3219 -1.3227 -0.8475
 3995TIP3   OH211927   6.214   3.857   1.522 -0.2766 -0.0654 -0.2452
 3995TIP3    H111928   6.254   3.783   1.475 -0.1645  0.3276 -0.7748
 3995TIP3    H211929   6.193   3.822   1.608 -0.3202 -0.7523 -0.5290
 3996TIP3   OH211930   8.260   3.642   2.329 -0.3565  0.2624  0.3853
 3996TIP3    H111931   8.289   3.572   2.386  0.2052 -0.6867 -1.0552
 3996TIP3    H211932   8.253   3.719   2.386 -0.1112 -0.7491  1.7733
 3997TIP3   OH211933   6.590   2.231   1.267  0.6752 -0.1746  0.4077
 3997TIP3    H111934   6.569   2.314   1.311 -3.2506 -0.2610 -1.0764
 3997TIP3    H211935   6.532   2.167   1.308  0.3415 -1.2235 -1.6176
 3998TIP3   OH211936   6.226   3.077   2.256  0.2504  0.2815  0.9102
 3998TIP3    H111937   6.313   3.103   2.228 -0.3940  0.6508 -0.7772
 3998TIP3    H211938   6.205   3.136   2.328  0.2455  2.0945 -0.5436
 3999TIP3   OH211939   0.012   5.345   2.234 -0.3510 -0.1287  0.3701
 3999TIP3    H111940   0.043   5.328   2.323  0.6380  1.7261  0.4006
 3999TIP3    H211941   0.035   5.267   2.184 -1.7214 -1.5758  1.9235
 4000TIP3   OH211942   6.089   6.270   2.237  0.0899 -0.1889 -0.5874
 4000TIP3    H111943   6.015   6.212   2.257 -0.8465  1.3747  0.6059
 4000TIP3    H211944   6.066   6.312   2.154 -0.2013  0.0202 -0.4026
 4001TIP3   OH211945   6.209   4.136   0.402 -0.0385 -0.3080  0.0561
 4001TIP3    H111946   6.270   4.199   0.441 -0.3627 -0.9686  1.6666
 4001TIP3    H211947   6.154   4.107   0.474 -1.5793 -0.5345 -1.1746
 4002TIP3   OH211948   3.685   2.823   2.443 -0.1657 -0.2408 -0.0190
 4002TIP3    H111949   3.675   2.885   2.515 -0.9876 -0.0376 -0.2912
 4002TIP3    H211950   3.770   2.843   2.405  0.1277 -0.1307  0.6903
 4003TIP3   OH211951   7.395   3.127   2.251  0.3016 -0.2879 -0.4855
 4003TIP3    H111952   7.454   3.202   2.256  0.1363 -0.1429 -0.6794
 4003TIP3    H211953   7.438   3.067   2.190  0.6425 -0.5397  0.0048
 4004TIP3   OH211954   0.034   4.316   1.115  0.0821  0.9179  0.0916
 4004TIP3    H111955   0.048   4.408   1.136 -2.5307  1.3410  0.2315
 4004TIP3    H211956   0.011   4.275   1.198 -2.6476  0.9926 -0.5744
 4005TIP3   OH211957   2.211   7.564   6.958 -0.1949 -0.4369 -0.0696
 4005TIP3    H111958   2.174   7.513   6.885  0.1970  0.9593 -1.2618
 4005TIP3    H211959   2.264   7.631   6.916 -0.4318  0.7615  1.5033
 4006TIP3   OH211960   7.186   4.260   0.010  0.0611 -0.2435 -0.1997
 4006TIP3    H111961   7.254   4.249   0.077  0.5828  0.5209 -0.5923
 4006TIP3    H211962   7.179   4.355  -0.000 -1.1464 -0.3238 -0.0894
 4007TIP3   OH211963   7.418   0.896   1.540 -0.3467  0.2274 -0.3182
 4007TIP3    H111964   7.389   0.857   1.622  1.3784 -0.8758 -0.2205
 4007TIP3    H211965   7.474   0.969   1.567 -0.9856  0.8096 -0.5303
 4008TIP3   OH211966   4.609   3.374   1.726 -0.6044  0.6017 -0.0734
 4008TIP3    H111967   4.695   3.344   1.754 -0.5252 -0.8101 -1.7075
 4008TIP3    H211968   4.626   3.458   1.683  0.2327 -0.4128 -1.8132
 4009TIP3   OH211969   3.655   7.823   1.728  0.5629 -0.1141 -0.1328
 4009TIP3    H111970   3.684   7.911   1.705  1.0805 -0.3616 -0.4365
 4009TIP3    H211971   3.600   7.796   1.655  0.1916  0.0586  0.0829
 4010TIP3   OH211972   4.724   0.150   6.752  0.1576  0.8016 -0.2912
 4010TIP3    H111973   4.670   0.123   6.678  1.2824 -1.6111 -0.2682
 4010TIP3    H211974   4.681   0.229   6.785 -1.0815  1.1909 -2.7076
 4011TIP3   OH211975   7.219   4.001   0.014  0.1463 -0.3104 -0.0364
 4011TIP3    H111976   7.293   4.009   0.075  0.9415  0.8174 -1.1133
 4011TIP3    H211977   7.189   4.091   0.001 -0.8079 -0.6708 -0.3422
 4012TIP3   OH211978   6.424   4.478   1.304 -0.1520 -0.1765  0.0550
 4012TIP3    H111979   6.336   4.501   1.332 -0.5698 -1.4922 -0.1255
 4012TIP3    H211980   6.414   4.449   1.214  0.3842 -0.7633  0.1751
 4013TIP3   OH211981   5.431   4.787   2.307 -0.0478 -0.1646  0.1806
 4013TIP3    H111982   5.388   4.844   2.244 -0.2948  1.1552  1.5278
 4013TIP3    H211983   5.519   4.822   2.317 -0.1545 -0.0849  0.9058
 4014TIP3   OH211984   5.745   3.732   1.130  0.0346 -0.6671 -0.0606
 4014TIP3    H111985   5.688   3.754   1.204  0.2754 -1.7216  0.4468
 4014TIP3    H211986   5.759   3.815   1.085 -1.0315 -0.2106  0.4308
 4015TIP3   OH211987   0.604   4.619   1.703  0.4873  0.0737  0.2593
 4015TIP3    H111988   0.613   4.598   1.796  0.3639  1.3639  0.5596
 4015TIP3    H211989   0.527   4.675   1.698  1.1203  0.8751 -0.4958
 4016TIP3   OH211990   7.630   3.718   1.914 -0.1269  0.2918  0.7980
 4016TIP3    H111991   7.647   3.813   1.914 -2.0319  0.6444  1.4814
 4016TIP3    H211992   7.588   3.702   1.998 -1.0519 -0.9602  0.1013
 4017TIP3   OH211993   0.547   4.966   1.863  0.0948  0.2324  0.6995
 4017TIP3    H111994   0.477   4.902   1.854 -0.2804  0.7443 -0.0480
 4017TIP3    H211995   0.555   5.006   1.776  1.1470  0.3396  0.8380
 4018TIP3   OH211996   1.924   4.283   0.570  0.0237  0.0627 -0.4418
 4018TIP3    H111997   1.868   4.207   0.584 -0.2537  0.4483  0.5893
 4018TIP3    H211998   1.996   4.272   0.632 -1.0038  1.5993  1.0525
 4019TIP3   OH211999   8.303   3.192   2.279 -0.3145  0.1353  0.5064
 4019TIP3    H112000   8.361   3.251   2.230 -0.7812  0.3392  0.1997
 4019TIP3    H212001   8.330   3.203   2.370  1.1641 -0.9079  0.2203
 4020TIP3   OH212002   7.683   4.058   0.780  0.1192  0.3633  0.1355
 4020TIP3    H112003   7.695   4.047   0.685  1.0061 -1.5103  0.4318
 4020TIP3    H212004   7.615   3.994   0.802 -1.2257  1.9038  0.5330
 4021TIP3   OH212005   4.944   2.682   6.318  0.2086 -0.7695 -0.3789
 4021TIP3    H112006   4.980   2.665   6.231  0.5516  2.7139 -0.9768
 4021TIP3    H212007   4.860   2.637   6.319  0.0569 -0.5627 -2.6073
 4022TIP3   OH212008   0.060   4.463   1.470  0.6281  0.0725  0.3850
 4022TIP3    H112009   0.018   4.380   1.445  0.7600 -0.1375  0.8604
 4022TIP3    H212010   0.134   4.471   1.410  1.4671 -0.8683  1.2846
 4023TIP3   OH212011   6.763   4.471   0.081  0.2368 -0.3350 -0.5197
 4023TIP3    H112012   6.736   4.513  -0.001  0.9830 -0.7649 -0.9902
 4023TIP3    H212013   6.854   4.445   0.066  0.7860  0.7063  0.8884
 4024TIP3   OH212014   8.311   4.851   1.483 -0.5244  0.4942  0.2249
 4024TIP3    H112015   8.321   4.929   1.428  0.8510  2.0281  2.5977
 4024TIP3    H212016   8.227   4.864   1.527  0.8065  1.8329  2.4267
 4025TIP3   OH212017   6.535   4.214   1.427  0.0514  0.4596  0.1832
 4025TIP3    H112018   6.508   4.300   1.457 -0.6401  0.1787  0.3678
 4025TIP3    H212019   6.579   4.230   1.343  1.9624  1.2499  1.2853
 4026TIP3   OH212020   7.691   4.877   1.265 -0.3889 -0.0601  0.6306
 4026TIP3    H112021   7.783   4.899   1.253 -0.4109 -0.3682 -0.0832
 4026TIP3    H212022   7.647   4.911   1.187 -0.5063 -2.1238 -0.2270
 4027TIP3   OH212023   0.689   4.742   1.240 -0.1768 -0.7921 -0.6600
 4027TIP3    H112024   0.740   4.719   1.318 -0.0278  0.1885 -0.4603
 4027TIP3    H212025   0.701   4.667   1.182  1.2599 -0.7182 -0.4969
 4028TIP3   OH212026   5.253   3.759   5.567 -0.0092 -0.1707 -0.0370
 4028TIP3    H112027   5.214   3.712   5.641 -0.7171  0.3239 -0.0939
 4028TIP3    H212028   5.282   3.842   5.603 -0.4803  0.1287 -0.3427
 4029TIP3   OH212029   6.924   2.797   0.282 -0.4273 -0.0098 -0.1919
 4029TIP3    H112030   6.831   2.781   0.295 -0.8370  0.2981 -2.5344
 4029TIP3    H212031   6.937   2.888   0.310 -1.1686  0.4487 -1.2772
 4030TIP3   OH212032   7.255   4.584   2.752  0.5454 -0.0732 -0.3049
 4030TIP3    H112033   7.231   4.665   2.797 -1.2133 -0.7654  0.0665
 4030TIP3    H212034   7.301   4.532   2.818  2.9882  1.1728 -0.9566
 4031TIP3   OH212035   6.917   5.725   0.747  0.0668  0.3720  0.4999
 4031TIP3    H112036   6.916   5.646   0.801 -1.3997  0.7381  1.0226
 4031TIP3    H212037   6.901   5.694   0.658  0.1788  0.0160  0.6032
 4032TIP3   OH212038   7.637   4.380   0.205  0.4214 -0.2798  0.2068
 4032TIP3    H112039   7.655   4.292   0.236  0.3911 -0.8967 -1.4581
 4032TIP3    H212040   7.715   4.403   0.153 -0.4125 -0.0939 -0.9686
 4033TIP3   OH212041   5.503   5.256   1.240  0.6388 -0.3783  0.1329
 4033TIP3    H112042   5.584   5.296   1.270 -0.1996 -0.7153  3.0184
 4033TIP3    H212043   5.442   5.329   1.229  0.9410 -0.2576 -0.7916
 4034TIP3   OH212044   7.069   4.492   3.571 -0.4783  0.4663  0.3857
 4034TIP3    H112045   7.153   4.512   3.611 -0.7105  2.0986  0.0850
 4034TIP3    H212046   7.039   4.412   3.616  0.8934  0.2729  0.9628
 4035TIP3   OH212047   7.901   5.276   0.557 -0.5925  0.2548 -0.4283
 4035TIP3    H112048   7.831   5.337   0.533 -0.5826 -0.1842 -1.6236
 4035TIP3    H212049   7.881   5.249   0.646 -0.2268  2.5318  0.3886
 4036TIP3   OH212050   6.760   3.758   1.382 -0.3410 -0.3282  0.2134
 4036TIP3    H112051   6.669   3.786   1.392 -0.5166 -0.6049 -0.5594
 4036TIP3    H212052   6.779   3.770   1.288  0.2652 -0.7201  0.2781
 4037TIP3   OH212053   2.001   7.790   6.517 -0.2987  0.2419  0.2580
 4037TIP3    H112054   2.039   7.878   6.518 -0.5987  0.4001 -1.5692
 4037TIP3    H212055   2.045   7.744   6.446 -1.7032 -0.3772 -0.2360
 4038TIP3   OH212056   8.001   2.596   0.799  0.5358 -0.2817 -0.1784
 4038TIP3    H112057   7.960   2.665   0.746  0.6253  0.2019  0.3756
 4038TIP3    H212058   7.950   2.595   0.880  0.6233 -0.7793 -0.1272
 4039TIP3   OH212059   6.638   2.015   0.868  0.3473 -0.0789  0.1661
 4039TIP3    H112060   6.649   1.944   0.805 -1.4330  0.8491 -1.2552
 4039TIP3    H212061   6.584   1.979   0.937  0.7404 -0.5495  0.2306
 4040TIP3   OH212062   7.811   2.140   1.190 -0.5886 -0.1100 -0.3035
 4040TIP3    H112063   7.716   2.139   1.205 -0.7655  0.4402 -1.2861
 4040TIP3    H212064   7.838   2.228   1.217 -0.3525 -0.2854  0.0246
 4041TIP3   OH212065   6.678   2.411   0.446  0.4231 -0.0871 -0.1486
 4041TIP3    H112066   6.710   2.375   0.363 -0.0827  1.8195 -1.2089
 4041TIP3    H212067   6.757   2.436   0.494  0.6825  0.1676 -0.7033
 4042TIP3   OH212068   6.788   2.571   1.088  0.2671  0.3362  0.6576
 4042TIP3    H112069   6.774   2.661   1.118 -1.5816 -0.1784  1.4635
 4042TIP3    H212070   6.818   2.525   1.166 -1.6810 -0.3598  1.0435
 4043TIP3   OH212071   1.408   5.023   0.627 -0.0062  0.2172  0.0001
 4043TIP3    H112072   1.369   4.950   0.674  0.0857  0.7583  0.9451
 4043TIP3    H212073   1.500   4.998   0.615 -0.2320 -0.2908 -0.6425
 4044TIP3   OH212074   8.249   3.405   0.410  0.0799 -0.3932  0.0652
 4044TIP3    H112075   8.224   3.316   0.435 -0.2923 -0.9995 -2.3487
 4044TIP3    H212076   8.197   3.423   0.332 -0.3249  2.2028  0.8960
 4045TIP3   OH212077   3.817   0.598   6.825  0.5897 -0.4491  0.0595
 4045TIP3    H112078   3.867   0.595   6.743  1.2407  0.5213  0.4136
 4045TIP3    H212079   3.812   0.691   6.846  0.1982 -0.6814  0.9932
 4046TIP3   OH212080   6.558   3.674   2.060 -0.1437 -0.0338  0.1655
 4046TIP3    H112081   6.579   3.757   2.103  2.7651 -0.8490  0.4020
 4046TIP3    H212082   6.540   3.698   1.969 -0.8596  1.0287  0.5749
 4047TIP3   OH212083   0.026   5.778   0.211 -0.4355 -0.3524  0.1082
 4047TIP3    H112084   0.077   5.845   0.256 -0.2086 -0.8439  0.5865
 4047TIP3    H212085   0.063   5.775   0.123  0.0443 -0.3574  0.3055
 4048TIP3   OH212086   7.873   4.247   0.928 -0.1963  0.0422  0.8724
 4048TIP3    H112087   7.819   4.187   0.877  1.3986  1.3075 -2.4093
 4048TIP3    H212088   7.820   4.326   0.938  1.1404  1.4985 -2.8358
 4049TIP3   OH212089   7.849   0.795   0.361 -0.0224  0.2611 -0.3518
 4049TIP3    H112090   7.895   0.731   0.416 -1.2797 -0.1547  0.2252
 4049TIP3    H212091   7.855   0.877   0.410 -0.9298 -0.0553  0.2935
 4050TIP3   OH212092   4.714   2.756   0.964 -0.4548 -0.5022 -0.3388
 4050TIP3    H112093   4.778   2.762   1.034 -0.2404 -1.8448 -0.4057
 4050TIP3    H212094   4.748   2.813   0.895 -0.5702  0.6775  0.5582
 4051TIP3   OH212095   5.988   4.390   4.046 -0.1822  0.0770 -0.2265
 4051TIP3    H112096   5.987   4.477   4.086 -2.5737  0.4053 -0.9113
 4051TIP3    H212097   5.991   4.406   3.952  1.7911 -0.6359 -0.2996
 4052TIP3   OH212098   2.436   1.028   6.806  0.0889  0.2444 -0.4818
 4052TIP3    H112099   2.445   1.087   6.882  2.4042 -0.4887 -0.1279
 4052TIP3    H212100   2.371   0.964   6.833  1.1142 -0.1977  1.0441
 4053TIP3   OH212101   7.095   3.034   0.882  0.1311  0.3583 -0.4638
 4053TIP3    H112102   7.094   3.023   0.787 -1.4250  1.0905 -0.5320
 4053TIP3    H212103   7.137   3.119   0.896  0.4304  0.2154 -0.4879
 4054TIP3   OH212104   5.567   2.788   1.234 -0.3506  0.9303  0.6758
 4054TIP3    H112105   5.476   2.815   1.225 -0.1602  1.2842 -0.1916
 4054TIP3    H212106   5.588   2.806   1.326 -1.3002  0.3846  1.0002
 4055TIP3   OH212107   7.507   3.395   0.805  0.3178  0.1389  0.0249
 4055TIP3    H112108   7.581   3.405   0.746 -0.4477  0.5738 -0.8896
 4055TIP3    H212109   7.527   3.317   0.857  1.2526  0.0681 -0.4340
 4056TIP3   OH212110   6.682   5.597   0.519  0.4778  0.1278  0.4241
 4056TIP3    H112111   6.607   5.541   0.499  3.4017 -3.2892 -1.5287
 4056TIP3    H212112   6.676   5.668   0.456 -0.8694 -0.3603 -0.0133
 4057TIP3   OH212113   7.257   4.056   0.724 -0.3756  0.0605 -0.1570
 4057TIP3    H112114   7.262   4.040   0.818 -0.1712 -0.2348 -0.2134
 4057TIP3    H212115   7.173   4.019   0.698  0.2002 -1.1811 -0.3243
 4058TIP3   OH212116   8.368   4.319   2.741 -0.8643 -0.1603 -0.5813
 4058TIP3    H112117   8.384   4.251   2.807  1.7456  0.6281 -0.3375
 4058TIP3    H212118   8.279   4.349   2.759 -1.2099 -1.9024  0.7934
 4059TIP3   OH212119   6.494   2.468   2.782  0.4340  0.0924  0.1739
 4059TIP3    H112120   6.544   2.386   2.782  0.6762  0.2318 -0.9842
 4059TIP3    H212121   6.540   2.524   2.720  0.6510  1.3575  1.4441
 4060TIP3   OH212122   4.767   0.657   5.470 -0.2722  0.6399 -0.2696
 4060TIP3    H112123   4.862   0.665   5.474 -0.2458  0.0259  0.4480
 4060TIP3    H212124   4.736   0.745   5.451  0.3173  1.3549  1.9613
 4061TIP3   OH212125   5.424   2.185   0.850 -0.8189 -0.9072 -0.1234
 4061TIP3    H112126   5.514   2.218   0.849 -1.7429  1.9783  2.6473
 4061TIP3    H212127   5.430   2.096   0.818  3.2478 -1.2271  1.2999
 4062TIP3   OH212128   7.144   2.637   0.374 -0.1206  0.8348  0.0126
 4062TIP3    H112129   7.139   2.652   0.468 -1.3179  1.2003 -0.0944
 4062TIP3    H212130   7.067   2.682   0.339  1.0160  1.8023 -1.2932
 4063TIP3   OH212131   3.693   0.433   5.977 -0.0857  0.1521  0.2927
 4063TIP3    H112132   3.621   0.378   6.008 -0.3805  0.0855 -0.5094
 4063TIP3    H212133   3.731   0.384   5.904  0.2044  0.6106  0.1317
 4064TIP3   OH212134   6.703   4.911   0.846 -0.0001  0.1469 -0.5641
 4064TIP3    H112135   6.757   4.909   0.925 -1.2453  0.3701  0.3091
 4064TIP3    H212136   6.619   4.946   0.875 -0.5086  0.1315 -1.9724
 4065TIP3   OH212137   8.479   4.579   1.090 -0.3818 -0.3205  0.1734
 4065TIP3    H112138   8.458   4.632   1.012  0.6066 -0.0729  0.0745
 4065TIP3    H212139   8.471   4.640   1.163  0.2852 -0.1564  0.1072
 4066TIP3   OH212140   7.005   6.382   3.711  0.8052  0.6801  0.3047
 4066TIP3    H112141   6.965   6.322   3.648  1.1105  0.8010 -0.0036
 4066TIP3    H212142   7.097   6.355   3.715  0.9721  1.2146  0.0607
 4067TIP3   OH212143   6.758   1.541   0.611  0.4843  0.3085  0.0859
 4067TIP3    H112144   6.759   1.477   0.681  0.6181  0.3169  0.0918
 4067TIP3    H212145   6.676   1.524   0.564 -0.5632  1.5759  1.4073
 4068TIP3   OH212146   5.402   1.116   2.142 -0.6251 -0.4855  0.4239
 4068TIP3    H112147   5.386   1.052   2.073  0.9828 -0.3798 -0.0696
 4068TIP3    H212148   5.491   1.097   2.173  0.5820  2.5676 -0.9290
 4069TIP3   OH212149   6.746   5.374   2.300 -0.0608 -0.1083  0.1345
 4069TIP3    H112150   6.721   5.455   2.345  1.0528  1.4231 -1.9655
 4069TIP3    H212151   6.795   5.324   2.366 -0.2002  1.1857  1.2346
 4070TIP3   OH212152   5.332   3.714   2.681  0.0995  0.2823  0.4344
 4070TIP3    H112153   5.252   3.695   2.631  0.6386 -0.2160 -0.2432
 4070TIP3    H212154   5.377   3.630   2.687  0.0093  0.3154  1.8388
 4071TIP3   OH212155   6.287   3.760   2.265  0.4859 -0.1483 -0.1192
 4071TIP3    H112156   6.201   3.790   2.296  0.1766 -1.9660  0.8654
 4071TIP3    H212157   6.350   3.815   2.310 -0.1341  0.6195 -0.1795
 4072TIP3   OH212158   7.607   4.469   1.690  0.1811  0.3526 -0.3991
 4072TIP3    H112159   7.617   4.390   1.638 -1.5982  0.9800 -1.7294
 4072TIP3    H212160   7.549   4.444   1.762  1.0178  0.0156  0.1702
 4073TIP3   OH212161   6.096   1.253   6.598  0.2614 -0.2339 -0.2255
 4073TIP3    H112162   6.080   1.251   6.503 -0.5620 -1.8728 -0.0745
 4073TIP3    H212163   6.025   1.308   6.632 -0.8661 -1.6035 -0.3226
 4074TIP3   OH212164   5.054   1.343   6.827 -0.0967  0.1236 -0.2380
 4074TIP3    H112165   5.025   1.256   6.799 -0.8344  0.3321 -0.1348
 4074TIP3    H212166   5.071   1.333   6.921 -0.2018  0.0896 -0.2217
 4075TIP3   OH212167   6.571   2.964   1.833  0.1041 -0.4041 -1.0816
 4075TIP3    H112168   6.625   3.038   1.804 -2.7855  1.7617 -1.1933
 4075TIP3    H212169   6.540   2.923   1.752  1.7413 -1.7971 -1.0197
 4076TIP3   OH212170   2.518   7.959   5.909  0.1585 -0.1408  0.7082
 4076TIP3    H112171   2.510   7.870   5.942  0.6672  0.6323  3.0735
 4076TIP3    H212172   2.429   7.992   5.908 -0.1990 -1.1168 -1.5497
 4077TIP3   OH212173   7.992   5.733   0.165  0.6326 -0.3973  0.1859
 4077TIP3    H112174   8.057   5.665   0.148  0.3196 -0.4656 -0.7859
 4077TIP3    H212175   8.033   5.791   0.230  1.6633 -0.4211 -0.4397
 4078TIP3   OH212176   7.088   3.295   1.197 -0.3956  0.0393 -0.3837
 4078TIP3    H112177   7.152   3.318   1.129 -0.8306  0.0427 -0.7924
 4078TIP3    H212178   7.047   3.377   1.221 -0.1158  0.0622  0.0101
 4079TIP3   OH212179   4.396   2.540   1.441 -0.3253 -0.3566 -0.5523
 4079TIP3    H112180   4.316   2.592   1.432  0.0210  0.4766  1.0065
 4079TIP3    H212181   4.433   2.539   1.353  0.4693  3.4187 -0.3693
 4080TIP3   OH212182   7.951   5.479   4.044 -0.0563 -0.6366  0.1270
 4080TIP3    H112183   7.898   5.492   4.123 -0.8617 -0.0438 -0.5077
 4080TIP3    H212184   7.990   5.564   4.027  1.2215 -1.0977  0.6561
 4081TIP3   OH212185   4.964   2.616   1.349  0.2126  0.6459  0.4264
 4081TIP3    H112186   5.058   2.611   1.335  0.5665  3.0037  1.6175
 4081TIP3    H212187   4.946   2.710   1.359 -2.4081  0.3308 -0.7355
 4082TIP3   OH212188   0.847   3.749   2.369 -0.9057 -1.0217  0.3345
 4082TIP3    H112189   0.856   3.760   2.274  1.0048 -0.0353  0.5781
 4082TIP3    H212190   0.857   3.655   2.384 -0.0956 -1.0607 -0.3688
 4083TIP3   OH212191   5.425   3.829   0.996 -0.6006  0.5648 -0.7094
 4083TIP3    H112192   5.368   3.782   0.935 -1.7467  1.1388 -0.1016
 4083TIP3    H212193   5.375   3.832   1.078  1.2903 -0.9904  0.5288
 4084TIP3   OH212194   1.105   5.262   0.472  0.0525  0.2239  0.3305
 4084TIP3    H112195   1.037   5.319   0.434  1.3810  0.3978 -1.8957
 4084TIP3    H212196   1.154   5.320   0.531  0.0973  0.8650 -0.3209
 4085TIP3   OH212197   1.980   0.180   5.270  0.4357 -0.4580  0.3013
 4085TIP3    H112198   2.056   0.124   5.255  0.7568 -0.1793  0.9021
 4085TIP3    H212199   1.998   0.226   5.352 -0.1349  0.0147  0.1732
 4086TIP3   OH212200   8.250   3.799   0.748  0.1609 -0.4951 -0.0251
 4086TIP3    H112201   8.192   3.871   0.772  0.4847 -0.7527  1.6407
 4086TIP3    H212202   8.238   3.735   0.818  0.1747 -1.8877 -1.2784
 4087TIP3   OH212203   5.055   3.635   0.837  0.1898  0.2963 -0.0011
 4087TIP3    H112204   5.104   3.684   0.771  0.3230 -0.0189 -0.1363
 4087TIP3    H212205   4.964   3.656   0.820  0.3278  1.6322  0.8464
 4088TIP3   OH212206   0.548   3.127   1.253 -0.1496  0.5022  0.2255
 4088TIP3    H112207   0.573   3.066   1.183 -1.1765  0.8973 -0.4975
 4088TIP3    H212208   0.592   3.093   1.331  0.7276 -0.1449 -0.5432
 4089TIP3   OH212209   6.148   4.426   0.929 -0.1083 -0.3460  0.1608
 4089TIP3    H112210   6.231   4.457   0.963  0.4351  0.2587 -1.6894
 4089TIP3    H212211   6.113   4.499   0.878 -1.5196 -0.7766  0.4760
 4090TIP3   OH212212   8.270   2.693   0.509  0.0077 -0.6667 -0.0460
 4090TIP3    H112213   8.229   2.652   0.433 -1.6567  2.7858 -1.1299
 4090TIP3    H212214   8.349   2.734   0.474  0.3551 -0.8517  0.5165
 4091TIP3   OH212215   7.391   4.931   1.463  0.5942  0.4361 -0.3869
 4091TIP3    H112216   7.436   4.988   1.526  1.5640 -0.2867 -0.3958
 4091TIP3    H212217   7.392   4.845   1.506 -2.0073  0.6748  0.2084
 4092TIP3   OH212218   5.750   3.973   1.298  0.1318 -0.4669  0.1456
 4092TIP3    H112219   5.714   4.058   1.324 -2.1624 -0.9307 -1.2785
 4092TIP3    H212220   5.676   3.913   1.308  0.4911 -1.4815 -2.9024
 4093TIP3   OH212221   5.565   4.451   0.504  0.3403 -0.0112 -1.0690
 4093TIP3    H112222   5.648   4.405   0.512  0.4800  0.0711 -1.9571
 4093TIP3    H212223   5.520   4.434   0.586 -0.1514 -2.7913 -1.8710
 4094TIP3   OH212224   7.197   2.372   0.056 -0.2737 -0.0269 -0.4841
 4094TIP3    H112225   7.217   2.426  -0.020 -2.3845 -0.0305 -1.0986
 4094TIP3    H212226   7.241   2.415   0.129 -0.9830  1.9164 -1.1538
 4095TIP3   OH212227   6.632   3.487   1.767 -0.1479  0.0817 -0.2802
 4095TIP3    H112228   6.558   3.443   1.724 -0.7676 -0.0319  0.8704
 4095TIP3    H212229   6.613   3.580   1.759  0.7012  0.1188 -1.9155
 4096TIP3   OH212230   3.788   0.594   6.177 -0.4085 -0.2730 -0.1128
 4096TIP3    H112231   3.822   0.517   6.224 -2.0333 -0.0408  1.4651
 4096TIP3    H212232   3.741   0.557   6.102  0.8066 -0.7067 -0.6841
 4097TIP3   OH212233   7.499   3.814   4.148  0.1211  0.3320  0.4865
 4097TIP3    H112234   7.507   3.730   4.192  0.8785  0.6706  1.0218
 4097TIP3    H212235   7.522   3.878   4.215 -0.0632  0.9392 -0.0237
 4098TIP3   OH212236   8.450   3.599   0.621 -0.0187  0.4063 -0.4402
 4098TIP3    H112237   8.542   3.612   0.645  0.1075 -1.1191 -0.0412
 4098TIP3    H212238   8.405   3.675   0.658  1.1546  1.4452 -1.1052
 4099TIP3   OH212239   6.879   2.852   2.325  0.3521  0.5877  0.4925
 4099TIP3    H112240   6.942   2.795   2.369  1.2219  0.9728 -0.2294
 4099TIP3    H212241   6.803   2.855   2.384  0.7598 -0.3825  1.0733
 4100TIP3   OH212242   7.350   4.297   0.213  0.3703  0.0985 -0.3882
 4100TIP3    H112243   7.280   4.344   0.258  0.3242 -1.3756  1.1383
 4100TIP3    H212244   7.430   4.344   0.236  0.1983  0.0941  0.2250
 4101TIP3   OH212245   4.391   4.238   2.679 -0.0039  0.3419  0.3637
 4101TIP3    H112246   4.435   4.185   2.746  0.4021  1.9178  1.3921
 4101TIP3    H212247   4.454   4.241   2.607  0.0953 -0.3231  0.4162
 4102TIP3   OH212248   0.442   4.394   1.581 -0.1554 -0.3993 -0.1703
 4102TIP3    H112249   0.465   4.380   1.489  0.5929  0.1775 -0.0784
 4102TIP3    H212250   0.523   4.425   1.621 -0.7652  0.4300  0.4432
 4103TIP3   OH212251   0.460   5.937   1.205 -0.1629 -0.1897  0.1191
 4103TIP3    H112252   0.389   5.945   1.140 -1.9358 -1.4083  1.8444
 4103TIP3    H212253   0.469   6.025   1.241 -1.2071 -0.1382  0.2837
 4104TIP3   OH212254   4.721   3.352   2.354 -0.0575 -0.3545 -0.3958
 4104TIP3    H112255   4.716   3.330   2.447  1.2402 -1.9087 -0.6584
 4104TIP3    H212256   4.791   3.418   2.348 -0.9855  0.6557 -0.1236
 4105TIP3   OH212257   6.498   4.321   0.787 -0.2249 -0.3812  0.4821
 4105TIP3    H112258   6.422   4.291   0.836 -0.4834 -0.9355 -0.2465
 4105TIP3    H212259   6.493   4.417   0.791 -0.3269 -0.4243  1.3987
 4106TIP3   OH212260   0.965   4.103   1.924  0.3196  0.1977 -0.0797
 4106TIP3    H112261   0.988   4.035   1.988 -1.0050 -0.1307  0.0592
 4106TIP3    H212262   0.972   4.185   1.972  2.1542  0.2091 -0.3064
 4107TIP3   OH212263   4.206   7.427   5.626  0.1227 -0.5554 -0.3745
 4107TIP3    H112264   4.286   7.480   5.626 -0.1416 -0.1287  1.1321
 4107TIP3    H212265   4.161   7.452   5.546  0.1412  1.3274  0.1789
 4108TIP3   OH212266   2.235   7.975   5.573  0.2424 -0.2715  0.1605
 4108TIP3    H112267   2.282   8.050   5.608  0.7795 -0.8409  0.6807
 4108TIP3    H212268   2.304   7.914   5.547 -0.1345  0.2770 -2.2161
 4109TIP3   OH212269   6.258   4.691   2.110 -0.5941  0.4296  0.6929
 4109TIP3    H112270   6.175   4.667   2.068  0.4320 -1.8798 -0.1377
 4109TIP3    H212271   6.277   4.616   2.167  1.5927  0.2724 -0.1976
 4110TIP3   OH212272   7.160   4.391   0.875 -0.4400 -0.0912  0.1464
 4110TIP3    H112273   7.139   4.420   0.964 -1.9076  2.8443 -1.0551
 4110TIP3    H212274   7.237   4.443   0.851 -1.6655  1.1646 -1.1979
 4111TIP3   OH212275   6.368   4.614   0.204 -0.1924 -0.5393  0.8973
 4111TIP3    H112276   6.419   4.694   0.217  0.5343 -0.9496  0.6402
 4111TIP3    H212277   6.331   4.596   0.290  0.8870 -0.7505  1.3328
 4112TIP3   OH212278   3.270   7.381   6.222 -0.4476 -0.2082 -0.0306
 4112TIP3    H112279   3.330   7.381   6.297  0.0614  1.9145 -0.4069
 4112TIP3    H212280   3.327   7.381   6.145 -0.9311  0.0094 -0.3950
 4113TIP3   OH212281   6.876   4.148   1.705  0.1139 -0.9304  0.3420
 4113TIP3    H112282   6.797   4.142   1.759  0.1765 -0.8646  0.4405
 4113TIP3    H212283   6.881   4.064   1.660 -1.3079 -0.0939 -1.4538
 4114TIP3   OH212284   6.832   3.983   3.469  0.1105 -0.3430  0.4952
 4114TIP3    H112285   6.865   3.896   3.449 -0.3245 -0.0896 -1.3921
 4114TIP3    H212286   6.783   3.971   3.551 -0.4113 -1.9850 -0.0331
 4115TIP3   OH212287   5.940   1.013   6.101 -0.0299 -0.5681  0.5073
 4115TIP3    H112288   5.886   1.069   6.044  1.6378 -1.0250 -1.5737
 4115TIP3    H212289   5.908   0.924   6.085  1.3241 -0.8456 -0.7575
 4116TIP3   OH212290   7.623   3.581   0.083  0.0650 -0.1154  0.7638
 4116TIP3    H112291   7.717   3.583   0.069 -0.0145  1.3978  0.4214
 4116TIP3    H212292   7.585   3.594  -0.004 -0.4736 -1.4333  0.7889
 4117TIP3   OH212293   8.330   3.275   1.679 -0.0091 -0.2415 -0.2999
 4117TIP3    H112294   8.255   3.304   1.628  0.3014 -0.5015 -0.9110
 4117TIP3    H212295   8.343   3.343   1.745  0.9041  1.1442 -1.8990
 4118TIP3   OH212296   7.041   3.322   2.941 -0.4757 -0.4462 -0.0592
 4118TIP3    H112297   7.017   3.410   2.969 -0.2825  0.1101 -1.5939
 4118TIP3    H212298   7.058   3.274   3.022  1.8693  1.6165  0.7216
 4119TIP3   OH212299   7.547   5.410   2.608  0.4580 -0.3296 -0.9692
 4119TIP3    H112300   7.627   5.461   2.604  0.1750  0.1457 -0.5104
 4119TIP3    H212301   7.556   5.356   2.687 -0.1614  0.5310 -0.3105
 4120TIP3   OH212302   7.117   4.245   3.024 -0.0270  0.4909  0.0120
 4120TIP3    H112303   7.047   4.309   3.009  1.7568  2.9444  1.6685
 4120TIP3    H212304   7.139   4.255   3.117  2.2440 -0.4606 -0.3929
 4121TIP3   OH212305   8.066   5.198   0.349 -0.5512 -0.5264  0.2517
 4121TIP3    H112306   8.032   5.109   0.337 -1.9754 -0.0945  0.9188
 4121TIP3    H212307   8.029   5.226   0.433  1.5079 -0.0349  1.0098
 4122TIP3   OH212308   0.139   1.985   2.110  0.0262 -0.0673  0.6881
 4122TIP3    H112309   0.113   1.973   2.201 -2.8123 -0.1003 -0.0916
 4122TIP3    H212310   0.057   1.994   2.062  1.4887  0.6817 -1.7835
 4123TIP3   OH212311   0.489   3.024   2.201  0.2855  0.2112 -0.2941
 4123TIP3    H112312   0.490   3.098   2.261 -0.1432  0.1511 -0.2099
 4123TIP3    H212313   0.397   3.014   2.177  0.2682 -0.5920  0.0713
 4124TIP3   OH212314   6.565   4.692   3.664  0.4827  0.1919 -0.8077
 4124TIP3    H112315   6.479   4.653   3.678  1.0286 -0.7755 -0.0376
 4124TIP3    H212316   6.617   4.664   3.740  2.1668 -1.2285 -2.4433
 4125TIP3   OH212317   7.545   1.593   3.408  0.1087  0.0723 -0.0641
 4125TIP3    H112318   7.547   1.656   3.336  0.3673 -0.2469 -0.3392
 4125TIP3    H212319   7.486   1.524   3.378 -0.4977  0.3782  0.4048
 4126TIP3   OH212320   7.231   3.377   3.674 -0.2028  0.3212  0.4271
 4126TIP3    H112321   7.266   3.290   3.695 -0.2061  0.7368  2.1550
 4126TIP3    H212322   7.276   3.401   3.593  2.3119  0.1432  1.7159
 4127TIP3   OH212323   7.414   3.093   1.224  0.1129  0.2558  0.0418
 4127TIP3    H112324   7.472   3.140   1.284  0.6227 -0.6964  0.3094
 4127TIP3    H212325   7.341   3.064   1.279 -0.4593  1.1702 -0.2275
 4128TIP3   OH212326   5.467   2.763   0.751  0.1910 -0.4853  0.8840
 4128TIP3    H112327   5.515   2.686   0.719  0.2101  0.2901 -1.0051
 4128TIP3    H212328   5.535   2.819   0.789  0.9535  0.9099 -2.3729
 4129TIP3   OH212329   7.196   3.860   0.951 -0.0009  0.4776  0.0001
 4129TIP3    H112330   7.129   3.799   0.919  0.4281  0.2769 -0.5231
 4129TIP3    H212331   7.211   3.833   1.041  1.0737 -1.0082 -0.5876
 4130TIP3   OH212332   3.882   1.236   6.502  0.9344  0.2750 -0.0735
 4130TIP3    H112333   3.942   1.174   6.460  0.3778 -0.1641 -0.2286
 4130TIP3    H212334   3.840   1.282   6.429  0.7937  0.3005  0.0222
 4131TIP3   OH212335   6.755   4.873   1.387 -0.1721 -0.1494  0.0215
 4131TIP3    H112336   6.741   4.875   1.482 -0.7846 -1.8928 -0.0108
 4131TIP3    H212337   6.667   4.861   1.350 -0.0233  1.2345 -0.8037
 4132TIP3   OH212338   0.275   2.915   0.797  0.0313 -0.0706 -0.1327
 4132TIP3    H112339   0.191   2.905   0.753 -0.8625  0.0713  1.5132
 4132TIP3    H212340   0.275   3.005   0.829  1.3418  0.3185 -1.1905
 4133TIP3   OH212341   6.302   4.310   1.872  0.1763  0.1714 -0.1382
 4133TIP3    H112342   6.283   4.229   1.825 -0.2622  1.7277 -2.7311
 4133TIP3    H212343   6.381   4.290   1.922 -0.7620 -2.3057  0.4516
 4134TIP3   OH212344   7.916   3.988   0.578 -0.1211 -0.5778 -0.3871
 4134TIP3    H112345   7.900   3.907   0.530  1.6330 -0.7052 -0.7805
 4134TIP3    H212346   7.947   3.959   0.664 -1.5330 -0.3391  0.2042
 4135TIP3   OH212347   7.262   3.939   1.389  0.2411  0.1992  0.0459
 4135TIP3    H112348   7.260   3.911   1.481  0.3983  0.5476  0.1553
 4135TIP3    H212349   7.220   3.867   1.341 -1.4647  0.8198  0.5882
 4136TIP3   OH212350   5.674   4.282   3.572  0.3148  0.8153 -0.2336
 4136TIP3    H112351   5.688   4.343   3.645 -2.8549 -1.0009  2.0442
 4136TIP3    H212352   5.600   4.319   3.524 -1.3252 -0.8987  0.8963
 4137TIP3   OH212353   6.473   4.915   1.004  0.3206 -0.3010 -0.0783
 4137TIP3    H112354   6.477   4.950   1.092  0.6742  0.9148 -0.5751
 4137TIP3    H212355   6.501   4.824   1.013 -0.3708 -0.3944  1.1743
 4138TIP3   OH212356   6.864   3.478   2.213  0.0251  0.1632 -0.2355
 4138TIP3    H112357   6.830   3.424   2.142 -0.6786 -3.2049  2.5532
 4138TIP3    H212358   6.958   3.464   2.212 -0.0949 -0.6850  0.1149
 4139TIP3   OH212359   0.059   3.341   0.165 -0.0658 -0.1421  0.3259
 4139TIP3    H112360  -0.031   3.351   0.196 -0.9038  0.5533 -2.2423
 4139TIP3    H212361   0.070   3.410   0.100  2.1838 -0.5121  0.2722
 4140TIP3   OH212362   5.585   1.622   6.128  0.6983  0.3001  0.2211
 4140TIP3    H112363   5.490   1.610   6.137  0.3916  2.7184  0.6853
 4140TIP3    H212364   5.606   1.582   6.043 -1.0425  1.1905 -0.6765
 4141TIP3   OH212365   6.419   2.553   1.229  0.2313  0.5927 -0.2409
 4141TIP3    H112366   6.495   2.531   1.175 -0.3165  1.8822 -1.5317
 4141TIP3    H212367   6.444   2.524   1.317  2.2042  0.9911 -0.6568
 4142TIP3   OH212368   5.517   2.117   1.930 -0.0221  0.0945 -0.2352
 4142TIP3    H112369   5.545   2.130   2.021  0.4348 -2.0509 -0.0296
 4142TIP3    H212370   5.568   2.180   1.879  0.6909  0.3961  0.8470
 4143TIP3   OH212371   0.821   3.758   2.084 -0.7484 -0.1809  0.6119
 4143TIP3    H112372   0.851   3.701   2.012 -0.6744 -0.4873  0.8829
 4143TIP3    H212373   0.754   3.813   2.044 -1.9843 -1.5766  0.7275
 4144TIP3   OH212374   8.219   4.585   2.492  0.1085 -0.5568  0.3806
 4144TIP3    H112375   8.157   4.640   2.443  0.7566  0.0466  0.2244
 4144TIP3    H212376   8.175   4.568   2.575  0.2595  0.9418  0.7913
 4145TIP3   OH212377   7.897   3.623   2.580  0.3234  0.3728  0.1858
 4145TIP3    H112378   7.914   3.716   2.589  2.0684  0.1798 -1.0100
 4145TIP3    H212379   7.819   3.618   2.524  1.3470  1.0793 -1.3363
 4146TIP3   OH212380   8.281   4.287   0.090 -0.2366 -0.5091 -0.5594
 4146TIP3    H112381   8.260   4.317   0.001 -2.8002 -0.6591 -0.0472
 4146TIP3    H212382   8.215   4.220   0.108  0.5098 -0.7536  1.3156
 4147TIP3   OH212383   7.969   3.980   1.972 -0.7679 -0.1018  0.2593
 4147TIP3    H112384   7.929   3.894   1.982  0.2857 -0.4902  1.1799
 4147TIP3    H212385   7.983   4.011   2.062  0.3807  0.3212 -0.0593
 4148TIP3   OH212386   7.240   4.530   3.185 -0.3882  0.1038 -0.3296
 4148TIP3    H112387   7.175   4.601   3.189 -1.4398 -0.7885 -1.2187
 4148TIP3    H212388   7.192   4.453   3.216 -0.2793 -0.9275 -2.6407
 4149TIP3   OH212389   6.058   4.013   2.015 -0.3120 -0.1813 -0.0688
 4149TIP3    H112390   6.056   3.924   1.978 -1.4224 -0.1875 -0.0224
 4149TIP3    H212391   6.149   4.026   2.042  1.1657  0.6858 -4.9469
 4150TIP3   OH212392   2.795   4.406   1.022  0.2466 -0.1588 -0.0023
 4150TIP3    H112393   2.880   4.372   1.049  0.0108 -0.1520  0.7511
 4150TIP3    H212394   2.816   4.479   0.963  0.7582  0.1694  0.5815
 4151TIP3   OH212395   6.871   5.287   3.275  0.0681  0.0124 -0.7756
 4151TIP3    H112396   6.941   5.262   3.216  0.0994 -0.2912 -0.6168
 4151TIP3    H212397   6.876   5.223   3.346 -1.3196 -0.9535 -1.5095
 4152TIP3   OH212398   4.807   1.790   1.667  0.4612 -0.4152 -0.0138
 4152TIP3    H112399   4.895   1.828   1.669  0.2016  0.1738  1.1383
 4152TIP3    H212400   4.800   1.748   1.582  1.1855  1.1520 -0.8659
 4153TIP3   OH212401   7.277   4.211   1.356 -0.3148  0.3381  0.2842
 4153TIP3    H112402   7.275   4.116   1.342  1.4299  0.1481  1.1971
 4153TIP3    H212403   7.185   4.239   1.348 -0.6957 -1.2333 -1.2072
 4154TIP3   OH212404   5.223   0.614   6.144 -0.0672 -0.2451  0.0984
 4154TIP3    H112405   5.133   0.644   6.152  0.2177  0.5124  0.5303
 4154TIP3    H212406   5.275   0.686   6.179  0.6638 -1.0159  0.6071
 4155TIP3   OH212407   3.412   0.243   6.910 -0.6778  0.2068 -0.6141
 4155TIP3    H112408   3.429   0.229   6.817 -1.1869  0.1830 -0.7054
 4155TIP3    H212409   3.491   0.285   6.943  0.2200 -1.3714 -0.6906
 4156TIP3   OH212410   7.387   2.292   1.877  0.4895 -0.1709  0.4226
 4156TIP3    H112411   7.435   2.310   1.796 -1.4308  0.7702 -0.5674
 4156TIP3    H212412   7.415   2.361   1.938  0.6660  0.1574 -0.0272
 4157TIP3   OH212413   7.278   2.582   2.581  0.6702  0.1807 -0.1161
 4157TIP3    H112414   7.301   2.495   2.548  0.2185  0.8004 -2.0864
 4157TIP3    H212415   7.349   2.639   2.551 -0.6135  1.0710 -1.5240
 4158TIP3   OH212416   6.558   4.981   2.892  0.2513  0.2873  0.3521
 4158TIP3    H112417   6.629   5.014   2.947  0.8286 -0.3566 -0.0113
 4158TIP3    H212418   6.587   4.998   2.802  0.6115 -1.3102  0.1500
 4159TIP3   OH212419   6.178   5.349   0.502  0.1504 -0.1365  0.2233
 4159TIP3    H112420   6.161   5.429   0.551 -0.2600  0.0368 -0.1966
 4159TIP3    H212421   6.093   5.306   0.495  0.0367  0.2674 -1.0672
 4160TIP3   OH212422   6.546   3.169   1.044  0.1574  0.4958 -0.1027
 4160TIP3    H112423   6.557   3.074   1.051 -0.0404  0.4382 -0.5698
 4160TIP3    H212424   6.489   3.191   1.118  0.4581  0.2946  0.1901
 4161TIP3   OH212425   8.043   3.560   1.193 -0.9358  0.5303 -0.2080
 4161TIP3    H112426   8.032   3.606   1.110  0.3550  3.2377  1.0404
 4161TIP3    H212427   8.097   3.619   1.246 -0.8616 -1.5926  2.1939
 4162TIP3   OH212428   8.158   3.973   1.748 -0.0785  0.3339 -0.0537
 4162TIP3    H112429   8.113   3.889   1.743 -0.9734  0.8581 -0.7804
 4162TIP3    H212430   8.115   4.019   1.820  1.0918 -0.2110  1.0376
 4163TIP3   OH212431   6.896   4.818   0.667  0.0783  0.6568  0.0379
 4163TIP3    H112432   6.849   4.744   0.628  0.9419  0.6760 -1.0994
 4163TIP3    H212433   6.832   4.861   0.723 -0.3574 -1.1262  0.9551
 4164TIP3   OH212434   7.505   4.026   0.130  0.0738  0.2724  0.5647
 4164TIP3    H112435   7.529   4.094   0.068 -0.4165  0.9543  1.1197
 4164TIP3    H212436   7.568   4.035   0.202  0.6563 -0.5298  0.1697
 4165TIP3   OH212437   1.409   3.581   1.922 -0.1273 -0.3041 -0.8182
 4165TIP3    H112438   1.323   3.609   1.892  0.6759  1.7533 -1.2406
 4165TIP3    H212439   1.441   3.524   1.852 -1.1965 -1.1987 -0.5897
 4166TIP3   OH212440   7.561   5.846   3.077  0.1770 -0.3319  0.1354
 4166TIP3    H112441   7.469   5.839   3.052  0.3297 -1.4740 -0.1313
 4166TIP3    H212442   7.600   5.898   3.007 -0.5029  1.2189  0.8884
 4167TIP3   OH212443   8.435   4.900   0.720 -0.3177 -0.2722 -0.4230
 4167TIP3    H112444   8.374   4.901   0.646 -0.0188 -0.4534 -0.6653
 4167TIP3    H212445   8.406   4.826   0.774 -0.2188 -0.4529 -0.6167
 4168TIP3   OH212446   8.251   5.800   3.002  0.4018  0.2233 -0.3410
 4168TIP3    H112447   8.297   5.722   2.971  0.1929  0.6554 -1.7836
 4168TIP3    H212448   8.290   5.872   2.952 -0.8347  0.7674 -0.5465
 4169TIP3   OH212449   0.986   4.939   2.025 -0.0797  0.0014 -0.3727
 4169TIP3    H112450   1.065   4.905   1.982 -0.4531 -1.7568  0.3137
 4169TIP3    H212451   0.919   4.936   1.957 -0.0375 -0.3166 -0.3981
 4170TIP3   OH212452   1.441   4.532   2.085 -0.4043  0.1568  0.4230
 4170TIP3    H112453   1.405   4.523   1.997  0.8020 -0.2432 -0.0326
 4170TIP3    H212454   1.474   4.445   2.107  0.6772  0.6293  0.6665
 4171TIP3   OH212455   7.705   4.029   2.052  0.0322 -0.3442 -0.1980
 4171TIP3    H112456   7.799   4.035   2.068 -0.4369  2.7851  1.7690
 4171TIP3    H212457   7.664   4.066   2.130 -2.8602 -1.4300 -1.1141
 4172TIP3   OH212458   1.093   5.885   3.155  0.0495  0.9157  0.3796
 4172TIP3    H112459   1.160   5.875   3.086 -0.2883  0.1211  0.1602
 4172TIP3    H212460   1.072   5.795   3.180  0.5493  1.2203  1.9029
 4173TIP3   OH212461   1.294   6.863   2.576  0.1130  0.0135  0.7980
 4173TIP3    H112462   1.275   6.769   2.580  0.7352 -0.1212  0.5765
 4173TIP3    H212463   1.225   6.903   2.629 -1.6382 -0.3569 -1.1440
 4174TIP3   OH212464   1.650   4.659   1.321 -0.5709  0.0107  0.3037
 4174TIP3    H112465   1.636   4.748   1.288 -0.1821  0.5015  1.4269
 4174TIP3    H212466   1.736   4.634   1.289 -1.0322 -0.2978 -0.7231
 4175TIP3   OH212467   7.715   5.180   3.026 -0.1685 -1.0856  0.2782
 4175TIP3    H112468   7.653   5.245   3.059  0.5224 -1.2752  1.9852
 4175TIP3    H212469   7.801   5.213   3.054  0.5431 -0.7741 -2.1143
 4176TIP3   OH212470   8.447   2.791   1.848  0.3727 -0.0602  0.2651
 4176TIP3    H112471   8.418   2.858   1.910  1.5919  0.7931 -0.0805
 4176TIP3    H212472   8.540   2.808   1.835  0.3011 -0.7146 -1.2104
 4177TIP3   OH212473   7.898   6.274   3.525  0.1220  0.0707  0.6776
 4177TIP3    H112474   7.806   6.284   3.501  0.7141  0.7187 -1.3776
 4177TIP3    H212475   7.932   6.363   3.529  0.5234 -0.1354  2.0156
 4178TIP3   OH212476   7.937   6.092   1.989 -0.1888 -0.2580  0.0757
 4178TIP3    H112477   7.875   6.165   1.992  0.4425  0.2239  1.7766
 4178TIP3    H212478   7.913   6.044   1.910 -0.4170  1.9739 -1.2703
 4179TIP3   OH212479   7.009   3.051   3.667  0.3292 -0.5517 -0.4155
 4179TIP3    H112480   7.084   2.994   3.685 -0.4501 -1.0737  1.2130
 4179TIP3    H212481   7.024   3.128   3.723 -0.5080 -0.8067  0.1709
 4180TIP3   OH212482   6.846   5.563   3.285  0.7596 -0.4896  0.4882
 4180TIP3    H112483   6.923   5.557   3.341  1.6122 -0.7733 -0.6887
 4180TIP3    H212484   6.827   5.472   3.261 -0.2872 -0.4727  1.2345
 4181TIP3   OH212485   7.801   7.854   3.253  0.4655 -0.3475 -0.2624
 4181TIP3    H112486   7.817   7.763   3.276  3.2605  0.0896 -0.2943
 4181TIP3    H212487   7.824   7.860   3.160 -2.3872 -0.1717 -1.0267
 4182TIP3   OH212488   1.050   5.440   3.048 -0.0895  0.0348  0.4021
 4182TIP3    H112489   1.088   5.450   2.961  0.5100 -0.9592  0.5396
 4182TIP3    H212490   0.957   5.458   3.036  0.3578  2.1807  0.0015
 4183TIP3   OH212491   1.270   4.944   3.524  0.5921 -0.0336 -0.2259
 4183TIP3    H112492   1.343   4.924   3.583 -1.4818  1.1669  2.9345
 4183TIP3    H212493   1.216   4.865   3.524 -0.5308  0.6899  1.3268
 4184TIP3   OH212494   6.592   4.317   1.955 -0.0800 -0.6196 -0.2019
 4184TIP3    H112495   6.575   4.395   2.008  0.9068  0.3736 -1.3402
 4184TIP3    H212496   6.685   4.298   1.970  0.3647  0.0256 -2.0307
 4185TIP3   OH212497   1.153   4.895   3.991 -0.4502 -0.0456  0.7476
 4185TIP3    H112498   1.059   4.916   3.996 -0.1601  0.9707  2.3030
 4185TIP3    H212499   1.191   4.968   3.944 -0.7592 -1.6311 -2.0644
 4186TIP3   OH212500   1.245   5.658   2.691  0.2510  0.0813  0.2992
 4186TIP3    H112501   1.253   5.641   2.597 -1.4542 -0.6332  0.2697
 4186TIP3    H212502   1.212   5.576   2.727  1.1421  0.2731  1.5667
 4187TIP3   OH212503   0.951   4.321   2.100 -0.5721 -0.0011  0.0094
 4187TIP3    H112504   1.028   4.364   2.139  0.1809 -2.0382  0.8233
 4187TIP3    H212505   0.879   4.346   2.157 -0.1589  0.2989  0.4058
 4188TIP3   OH212506   7.762   7.661   0.447  0.0918  0.6992 -0.2350
 4188TIP3    H112507   7.685   7.631   0.398 -0.8406  2.0578  0.3764
 4188TIP3    H212508   7.759   7.756   0.440  1.5538  0.7753  0.0747
 4189TIP3   OH212509   7.044   4.382   1.638  0.2892 -0.2585  0.3475
 4189TIP3    H112510   6.991   4.460   1.648  0.9340  0.2969 -0.5306
 4189TIP3    H212511   6.982   4.309   1.646 -0.7234  0.3962 -1.4416
 4190TIP3   OH212512   5.953   2.448   2.319  0.3149 -0.0338 -0.0346
 4190TIP3    H112513   5.907   2.472   2.239  0.2663  0.9208  0.2647
 4190TIP3    H212514   6.046   2.459   2.298  0.5233 -3.3292 -1.0765
 4191TIP3   OH212515   7.680   5.271   1.014  0.4273 -0.0425 -0.1864
 4191TIP3    H112516   7.721   5.358   1.017  0.4135 -0.0613  0.7177
 4191TIP3    H212517   7.594   5.288   0.975 -0.1611  0.6056  1.3345
 4192TIP3   OH212518   7.551   4.433   2.234 -0.0564  0.5697 -0.6760
 4192TIP3    H112519   7.490   4.372   2.275 -0.1181 -0.1363 -1.8154
 4192TIP3    H212520   7.508   4.460   2.153  0.1508  1.8224 -0.3841
 4193TIP3   OH212521   0.918   4.368   2.943 -0.4841  0.3037  0.2762
 4193TIP3    H112522   1.004   4.379   2.901 -1.0972 -1.2945 -1.4748
 4193TIP3    H212523   0.862   4.431   2.898 -0.8395 -0.5034 -0.4194
 4194TIP3   OH212524   1.617   5.044   3.494 -0.0064 -0.2296 -0.0974
 4194TIP3    H112525   1.648   5.034   3.404  0.3071  0.6826 -0.0849
 4194TIP3    H212526   1.576   4.959   3.514 -0.3389 -0.3334 -1.1952
 4195TIP3   OH212527   0.856   4.941   3.185  0.4008  0.3619 -0.4168
 4195TIP3    H112528   0.807   4.924   3.105  0.4600 -0.4288 -0.2890
 4195TIP3    H212529   0.899   4.858   3.205 -1.2137 -0.0275  1.5442
 4196TIP3   OH212530   5.758   4.403   0.807  0.1040 -0.0222 -0.8914
 4196TIP3    H112531   5.778   4.409   0.714  0.5570 -1.7174 -0.9130
 4196TIP3    H212532   5.823   4.342   0.842 -2.4071 -2.4115 -0.1901
 4197TIP3   OH212533   1.483   4.825   3.663  0.5246 -0.3215 -0.3342
 4197TIP3    H112534   1.423   4.797   3.733 -1.2576  0.5489 -1.4822
 4197TIP3    H212535   1.570   4.800   3.695 -0.2334  0.2239  2.2944
 4198TIP3   OH212536   0.146   5.948   0.381 -0.3764  0.5627 -0.0998
 4198TIP3    H112537   0.105   5.960   0.467 -1.5740  1.9274 -0.8331
 4198TIP3    H212538   0.237   5.974   0.394 -1.0973  3.0477  0.2239
 4199TIP3   OH212539   8.060   4.974   4.213  0.5007  0.5606  0.1805
 4199TIP3    H112540   8.037   5.058   4.253 -1.0687  0.5924 -0.7445
 4199TIP3    H212541   8.153   4.963   4.233  0.9918  3.0223 -0.5623
 4200TIP3   OH212542   0.262   4.493   1.301 -0.0499  0.3770 -0.1016
 4200TIP3    H112543   0.344   4.530   1.336 -0.0582  1.9661 -1.6577
 4200TIP3    H212544   0.251   4.537   1.216 -0.6391 -2.4902 -1.5792
 4201TIP3   OH212545   1.274   4.736   1.734 -0.2340 -0.0491  0.4722
 4201TIP3    H112546   1.299   4.666   1.795 -1.2526 -0.9224 -0.0877
 4201TIP3    H212547   1.344   4.737   1.668 -1.4872 -2.3046 -0.9500
 4202TIP3   OH212548   1.508   6.620   5.670  0.3271  0.3279  0.0135
 4202TIP3    H112549   1.417   6.646   5.658  1.2044  2.8252 -1.4637
 4202TIP3    H212550   1.527   6.641   5.762 -1.0479 -1.8959  0.8690
 4203TIP3   OH212551   7.353   3.631   2.782 -0.0448  0.5090  0.8606
 4203TIP3    H112552   7.265   3.656   2.755 -1.0031 -2.2455  1.2126
 4203TIP3    H212553   7.349   3.627   2.878  0.4657  0.3994  0.8784
 4204TIP3   OH212554   0.356   5.940   1.739  0.0263  0.5422  0.1674
 4204TIP3    H112555   0.345   6.024   1.783  0.5354  0.2266  0.8983
 4204TIP3    H212556   0.303   5.879   1.789  1.6576 -0.0980  1.1730
 4205TIP3   OH212557   2.590   4.777   4.661 -0.1452  0.2200  0.4523
 4205TIP3    H112558   2.603   4.841   4.731  0.6442  1.0671 -0.4692
 4205TIP3    H212559   2.593   4.827   4.580  2.4008 -1.2073 -0.4033
 4206TIP3   OH212560   8.350   3.324   2.553 -0.0268 -0.1069  0.0025
 4206TIP3    H112561   8.382   3.272   2.627  1.5383  0.7341 -0.0498
 4206TIP3    H212562   8.274   3.371   2.587 -0.7943 -1.5835  0.3591
 4207TIP3   OH212563   8.080   5.585   3.367  0.2461 -0.2684  0.1506
 4207TIP3    H112564   8.013   5.527   3.330  0.1176 -1.1412  1.7008
 4207TIP3    H212565   8.035   5.634   3.436  1.5066 -1.9631  2.2583
 4208TIP3   OH212566   0.546   5.927   4.184 -0.2725 -0.0235  0.2602
 4208TIP3    H112567   0.523   5.896   4.272  0.6636 -0.3279  0.4050
 4208TIP3    H212568   0.639   5.906   4.175  0.0178  1.4069 -0.2159
 4209TIP3   OH212569   0.745   2.243   4.688 -0.0721  0.2114  0.2570
 4209TIP3    H112570   0.800   2.267   4.763  0.1685  0.4126  0.0140
 4209TIP3    H212571   0.715   2.154   4.708 -0.2709  0.3908  0.7498
 4210TIP3   OH212572   6.088   6.823   0.844  0.3612  0.2275 -0.4767
 4210TIP3    H112573   6.077   6.911   0.878  0.4993 -0.8114  2.3980
 4210TIP3    H212574   6.182   6.807   0.845  0.4985  0.7207 -2.8612
 4211TIP3   OH212575   2.183   5.438   2.899 -0.4582 -0.1025  0.5483
 4211TIP3    H112576   2.265   5.391   2.880 -0.5989 -0.3644  0.5953
 4211TIP3    H212577   2.201   5.529   2.873 -0.9972 -0.6591 -1.8179
 4212TIP3   OH212578   0.873   4.534   2.596 -0.2581  0.2212 -0.5790
 4212TIP3    H112579   0.967   4.525   2.611 -0.2870  0.0974 -0.4671
 4212TIP3    H212580   0.864   4.617   2.549  0.0301 -0.4252 -1.7968
 4213TIP3   OH212581   7.733   5.753   2.565 -0.0321 -0.2730  0.1816
 4213TIP3    H112582   7.819   5.756   2.523 -0.5642  1.3781 -0.8055
 4213TIP3    H212583   7.748   5.702   2.645  1.8264 -0.1513 -0.0603
 4214TIP3   OH212584   7.466   5.037   4.937  0.3828  0.3664 -0.1154
 4214TIP3    H112585   7.493   5.051   5.028  0.5378  1.1001 -0.2693
 4214TIP3    H212586   7.541   5.064   4.885  0.8239 -1.3921 -0.4354
 4215TIP3   OH212587   7.950   4.705   3.029  0.2567 -0.0073 -0.3417
 4215TIP3    H112588   7.920   4.746   2.948  0.9031  1.3291  0.0785
 4215TIP3    H212589   7.930   4.770   3.097  0.9855 -0.5389  0.3792
 4216TIP3   OH212590   0.091   4.204   4.013 -0.0829  0.0392  0.5556
 4216TIP3    H112591   0.086   4.266   3.940  0.0601 -2.6248 -1.8321
 4216TIP3    H212592   0.169   4.152   3.995 -0.6755 -1.4077  2.0158
 4217TIP3   OH212593   8.006   6.179   3.142 -0.1848 -0.1037  0.2440
 4217TIP3    H112594   7.986   6.086   3.131 -0.7866  0.0599 -0.0289
 4217TIP3    H212595   8.102   6.182   3.146 -0.1801 -0.8020  0.8976
 4218TIP3   OH212596   7.255   5.846   2.022 -0.6323  0.0807  0.1884
 4218TIP3    H112597   7.165   5.847   2.054 -0.8790 -0.4906 -0.4614
 4218TIP3    H212598   7.258   5.771   1.963  0.0596  0.5723 -0.4081
 4219TIP3   OH212599   8.467   6.108   1.739 -0.3920 -0.0264 -0.3849
 4219TIP3    H112600   8.402   6.037   1.732  0.3364 -0.8685  1.2112
 4219TIP3    H212601   8.528   6.090   1.667 -1.1473 -0.0306 -1.0401
 4220TIP3   OH212602   8.112   5.157   2.266 -0.3211 -0.1939 -0.7082
 4220TIP3    H112603   8.155   5.078   2.236  0.0773 -0.8271  1.4820
 4220TIP3    H212604   8.134   5.223   2.200  0.0263 -1.6872 -2.0985
 4221TIP3   OH212605   1.185   6.514   5.005  0.5353  0.4324  0.0078
 4221TIP3    H112606   1.170   6.436   4.952  0.5169  1.0072 -0.8219
 4221TIP3    H212607   1.242   6.570   4.952  1.5045  0.4923  1.0593
 4222TIP3   OH212608   0.410   4.605   0.368  0.0459  0.0677  0.0588
 4222TIP3    H112609   0.434   4.580   0.457  0.3334  0.6675  0.1504
 4222TIP3    H212610   0.450   4.538   0.313  0.5053  0.1188  0.3248
 4223TIP3   OH212611   0.842   7.774   3.146 -0.0480 -0.2447 -0.2594
 4223TIP3    H112612   0.747   7.759   3.147 -0.0173 -0.4604 -0.5351
 4223TIP3    H212613   0.880   7.687   3.136  0.2410 -0.3846  1.6965
 4224TIP3   OH212614   6.983   7.754   4.645  0.3904  0.3561 -0.5752
 4224TIP3    H112615   6.980   7.730   4.552  0.2976 -0.1454 -0.4455
 4224TIP3    H212616   7.074   7.737   4.671 -0.3319 -2.6730  0.2378
 4225TIP3   OH212617   7.876   5.820   3.839 -0.5691  0.3681 -0.5590
 4225TIP3    H112618   7.857   5.904   3.879 -1.1002 -0.2582  0.5174
 4225TIP3    H212619   7.826   5.820   3.758 -1.7637  0.4756  0.1721
 4226TIP3   OH212620   0.707   7.726   2.759 -0.3007  0.0922 -0.1580
 4226TIP3    H112621   0.652   7.695   2.830 -0.0652 -0.2232 -0.1149
 4226TIP3    H212622   0.751   7.648   2.726 -2.6220 -0.2742 -2.5787
 4227TIP3   OH212623   6.812   3.935   2.003  0.9317  0.4410 -0.7794
 4227TIP3    H112624   6.863   3.984   2.066 -0.5251  2.0509 -0.8009
 4227TIP3    H212625   6.753   4.000   1.964 -1.4234 -1.3855 -0.4324
 4228TIP3   OH212626   7.448   4.923   2.912 -0.2110  0.0019  0.0509
 4228TIP3    H112627   7.495   4.940   2.993 -1.5320 -0.6557  0.9714
 4228TIP3    H212628   7.509   4.872   2.859  0.2143 -0.6105  1.1212
 4229TIP3   OH212629   1.390   4.934   3.041  0.3520  0.0246  0.4058
 4229TIP3    H112630   1.404   4.954   2.948  0.1307 -0.7108  0.2099
 4229TIP3    H212631   1.299   4.907   3.045 -0.2204  1.9583  1.1812
 4230TIP3   OH212632   0.134   6.510   4.677 -0.2379  0.3854 -0.4019
 4230TIP3    H112633   0.173   6.496   4.764 -0.1784 -0.8458 -0.6294
 4230TIP3    H212634   0.205   6.551   4.626  0.5063 -1.1090 -0.5769
 4231TIP3   OH212635   1.247   4.957   1.898 -0.6355 -0.4688 -0.1398
 4231TIP3    H112636   1.253   4.883   1.837  1.4770  0.4219 -1.0787
 4231TIP3    H212637   1.261   5.034   1.842  1.3602  0.3652  1.4736
 4232TIP3   OH212638   0.576   6.083   3.003 -0.4929  0.1774 -0.1494
 4232TIP3    H112639   0.585   6.177   2.987 -2.8393  0.7463  1.5725
 4232TIP3    H212640   0.555   6.077   3.096 -0.1057 -2.0825 -0.1952
 4233TIP3   OH212641   0.211   4.956   1.786 -0.1233  0.3433  0.3760
 4233TIP3    H112642   0.177   4.923   1.869  0.4689  1.2456  0.9819
 4233TIP3    H212643   0.156   4.914   1.719  0.2616 -1.4370  1.1438
 4234TIP3   OH212644   6.746   6.097   1.781 -0.4456 -0.0398  0.3425
 4234TIP3    H112645   6.673   6.060   1.831 -0.2922 -1.2795 -0.3601
 4234TIP3    H212646   6.730   6.070   1.691  0.3068  0.6140  0.0094
 4235TIP3   OH212647   7.664   4.502   3.395 -0.7716  0.2344  0.2886
 4235TIP3    H112648   7.611   4.460   3.329  1.9725 -0.7361 -1.3762
 4235TIP3    H212649   7.663   4.441   3.469 -2.5909  0.6086  0.5945
 4236TIP3   OH212650   0.011   5.573   0.757 -0.5296  0.2105  0.0134
 4236TIP3    H112651   0.022   5.605   0.667  0.3658 -0.3663 -0.0824
 4236TIP3    H212652   0.074   5.625   0.808 -1.6816  1.1822  0.4632
 4237TIP3   OH212653   0.221   4.851   2.615  0.4184  0.6639 -0.9121
 4237TIP3    H112654   0.195   4.858   2.707 -0.0226  1.8003 -1.1133
 4237TIP3    H212655   0.259   4.763   2.607 -0.9554 -0.0273 -0.0064
 4238TIP3   OH212656   8.078   5.495   3.740 -0.0540  0.3358 -0.7122
 4238TIP3    H112657   8.058   5.548   3.817  1.1794 -0.8443  0.4532
 4238TIP3    H212658   7.992   5.473   3.703 -0.8935 -1.9630  2.3327
 4239TIP3   OH212659   8.211   4.106   4.668  0.5354 -0.0070  0.0515
 4239TIP3    H112660   8.187   4.111   4.760 -2.1662 -2.4017 -0.4386
 4239TIP3    H212661   8.229   4.196   4.642  2.6561  0.5479  3.2123
 4240TIP3   OH212662   6.818   4.859   2.683 -0.0120  0.5821 -0.1632
 4240TIP3    H112663   6.776   4.799   2.622  0.1110  0.4370 -0.1027
 4240TIP3    H212664   6.757   4.933   2.689 -0.4607  0.1787  0.2512
 4241TIP3   OH212665   0.025   4.236   4.560  0.4081  0.2535  0.4904
 4241TIP3    H112666   0.060   4.227   4.471  0.9381 -0.0393  0.7258
 4241TIP3    H212667   0.096   4.206   4.617 -0.5158 -1.1799  0.9367
 4242TIP3   OH212668   1.184   4.443   2.848  0.4029 -0.0043 -0.1280
 4242TIP3    H112669   1.187   4.419   2.755 -1.0171  0.7744 -0.3785
 4242TIP3    H212670   1.196   4.538   2.849  0.9012 -0.0677  0.5282
 4243TIP3   OH212671   7.090   3.903   4.551 -0.6170  0.1087 -0.4604
 4243TIP3    H112672   7.006   3.877   4.512 -0.6225  0.2545 -0.5493
 4243TIP3    H212673   7.073   3.906   4.645 -1.5248  2.9533 -0.6502
 4244TIP3   OH212674   8.459   3.056   3.283  0.0364  0.2382  0.0964
 4244TIP3    H112675   8.374   3.013   3.287  0.4320 -0.6232 -0.4625
 4244TIP3    H212676   8.442   3.141   3.244 -0.5501  0.0181 -0.1310
 4245TIP3   OH212677   6.236   3.423   2.835 -0.1380  0.2787 -0.5744
 4245TIP3    H112678   6.244   3.484   2.909 -1.1494 -0.7177  0.3835
 4245TIP3    H212679   6.274   3.470   2.761 -1.2683  2.2376  0.0469
 4246TIP3   OH212680   7.078   5.598   3.422 -0.6966 -0.1524  0.1950
 4246TIP3    H112681   7.119   5.550   3.494  0.5768  0.8429  0.1530
 4246TIP3    H212682   7.105   5.689   3.435 -1.2203  0.1829 -1.0024
 4247TIP3   OH212683   8.015   3.598   2.197  0.3802  0.2869 -0.3652
 4247TIP3    H112684   7.945   3.659   2.219 -0.3438 -0.2557 -1.1695
 4247TIP3    H212685   8.087   3.623   2.255 -0.1705  1.4124 -0.1565
 4248TIP3   OH212686   7.502   7.818   5.104  0.4774 -0.3005 -0.1951
 4248TIP3    H112687   7.581   7.866   5.128  1.2456 -0.7438 -1.8188
 4248TIP3    H212688   7.431   7.864   5.150  1.7413 -0.3606  1.8678
 4249TIP3   OH212689   0.724   4.352   2.476 -0.6456 -0.3316 -0.9328
 4249TIP3    H112690   0.775   4.417   2.525 -0.4424 -1.3913  0.3053
 4249TIP3    H212691   0.656   4.324   2.538 -1.0673 -0.8918 -1.6461
 4250TIP3   OH212692   1.474   5.689   1.752 -0.2969  0.0194  0.3023
 4250TIP3    H112693   1.475   5.694   1.656 -0.4174  0.1734  0.3092
 4250TIP3    H212694   1.383   5.667   1.774  0.4662 -3.6491  0.2069
 4251TIP3   OH212695   0.027   6.381   3.411 -0.0869 -0.3500  0.1880
 4251TIP3    H112696  -0.057   6.370   3.456  0.6515 -0.8230  1.4933
 4251TIP3    H212697   0.092   6.377   3.481  0.8916  2.3916 -0.5137
 4252TIP3   OH212698   2.755   7.158   2.051  0.0517  0.0687 -0.4380
 4252TIP3    H112699   2.787   7.181   1.963  0.4450 -0.3448 -0.4039
 4252TIP3    H212700   2.660   7.145   2.039  0.2823 -1.1783 -1.0557
 4253TIP3   OH212701   0.110   3.156   3.031 -0.2213 -0.2380 -0.1276
 4253TIP3    H112702   0.203   3.137   3.042  0.1886  0.7239 -1.7868
 4253TIP3    H212703   0.068   3.119   3.109  1.3901 -1.7944  0.0132
 4254TIP3   OH212704   7.858   7.113   3.684 -0.4355  0.2447  0.3486
 4254TIP3    H112705   7.946   7.098   3.718 -0.6044  2.8079  2.0884
 4254TIP3    H212706   7.864   7.095   3.590  1.5453 -1.0905  0.7163
 4255TIP3   OH212707   8.361   6.607   3.325 -0.2761  0.2036 -0.3639
 4255TIP3    H112708   8.341   6.588   3.234  0.1179 -0.1509 -0.3765
 4255TIP3    H212709   8.427   6.543   3.350  0.7554  1.2786 -0.2793
 4256TIP3   OH212710   1.153   5.373   1.767  0.1818 -0.1819  0.3682
 4256TIP3    H112711   1.112   5.308   1.710  1.2020 -0.6752  0.1701
 4256TIP3    H212712   1.244   5.343   1.775  1.4006  2.6304 -1.9036
 4257TIP3   OH212713   7.150   5.059   1.320  0.1893  0.0015 -0.4352
 4257TIP3    H112714   7.235   5.023   1.347 -1.0192 -0.8502  2.3873
 4257TIP3    H212715   7.133   5.018   1.235  1.9021 -0.9932 -0.3261
 4258TIP3   OH212716   2.085   5.077   2.999 -0.2082 -0.5761 -0.0590
 4258TIP3    H112717   2.177   5.060   2.983 -0.3372 -0.8506 -0.5238
 4258TIP3    H212718   2.083   5.162   3.041  0.3924 -1.2992  1.4861
 4259TIP3   OH212719   7.685   4.187   4.605  0.0833 -0.3325  0.0348
 4259TIP3    H112720   7.713   4.278   4.610  1.4852 -0.6280 -1.7525
 4259TIP3    H212721   7.595   4.191   4.571 -1.0472  0.4888  2.9910
 4260TIP3   OH212722   7.872   4.768   4.067 -0.4588 -0.3085  0.2620
 4260TIP3    H112723   7.877   4.831   4.139  1.1995 -2.1259  1.8051
 4260TIP3    H212724   7.792   4.791   4.020 -0.4425  2.2540  1.4136
 4261TIP3   OH212725   0.006   5.985   3.687  0.2084  0.1890 -0.2538
 4261TIP3    H112726   0.074   5.945   3.632 -0.8834 -1.8023 -0.2048
 4261TIP3    H212727   0.055   6.037   3.750  1.6036  0.3625 -1.4496
 4262TIP3   OH212728   0.739   6.403   1.948 -0.4014 -0.1085  0.0619
 4262TIP3    H112729   0.806   6.338   1.970 -0.8064  0.1592  2.1543
 4262TIP3    H212730   0.760   6.429   1.858  1.6752 -0.7909  0.3207
 4263TIP3   OH212731   7.596   3.267   2.892 -0.8653 -0.2826 -0.1501
 4263TIP3    H112732   7.588   3.344   2.835 -0.1251  0.1698  0.3490
 4263TIP3    H212733   7.515   3.265   2.942 -0.8349  0.2436 -0.0799
 4264TIP3   OH212734   7.048   3.072   4.108 -0.3477 -0.6272 -0.0371
 4264TIP3    H112735   7.138   3.041   4.102 -0.3095 -0.6474  0.6116
 4264TIP3    H212736   7.056   3.168   4.109 -0.2447 -0.6414  1.2861
 4265TIP3   OH212737   8.015   5.683   1.636 -0.5380  0.1153  0.1005
 4265TIP3    H112738   8.050   5.597   1.612 -0.9006 -0.0610  0.2102
 4265TIP3    H212739   7.998   5.727   1.553 -2.8485 -0.9109 -0.0003
 4266TIP3   OH212740   0.267   4.514   3.962 -0.7486 -0.3078  0.4303
 4266TIP3    H112741   0.229   4.519   3.874  0.5096  0.3449 -0.0913
 4266TIP3    H212742   0.342   4.455   3.953 -0.8480 -0.5510  1.1552
 4267TIP3   OH212743   1.606   4.167   1.459  0.2820  0.1347 -0.1746
 4267TIP3    H112744   1.530   4.222   1.441 -1.2475 -1.6782  0.5921
 4267TIP3    H212745   1.595   4.092   1.400  0.3361 -1.1573  1.4444
 4268TIP3   OH212746   7.570   5.110   0.511  0.0226  0.7415  0.5431
 4268TIP3    H112747   7.615   5.134   0.431 -0.8164 -0.4519 -0.3010
 4268TIP3    H212748   7.623   5.039   0.548  0.8089  1.7715  1.4441
 4269TIP3   OH212749   8.416   4.909   2.911  0.2090  0.0526 -0.6804
 4269TIP3    H112750   8.375   4.922   2.996 -1.8458  0.7419 -1.7377
 4269TIP3    H212751   8.507   4.887   2.931 -0.0953  0.7963  1.6624
 4270TIP3   OH212752   1.312   4.114   2.300  0.2537  0.4631 -0.0801
 4270TIP3    H112753   1.345   4.105   2.390  2.2422 -0.1131 -0.8466
 4270TIP3    H212754   1.258   4.036   2.287 -0.5061  0.8358  0.8115
 4271TIP3   OH212755   3.382   4.287   1.286  0.2343 -0.3454 -0.0425
 4271TIP3    H112756   3.339   4.222   1.231 -1.2820  0.1499  0.5118
 4271TIP3    H212757   3.468   4.301   1.246 -0.6002 -0.4642 -1.9033
 4272TIP3   OH212758   1.169   5.639   2.103  0.0002 -0.0333 -0.5046
 4272TIP3    H112759   1.172   5.544   2.107  1.4865 -0.0078 -0.6789
 4272TIP3    H212760   1.129   5.666   2.186  0.6924 -0.7470  0.0607
 4273TIP3   OH212761   0.741   6.068   0.200  0.0898  0.2334 -0.1862
 4273TIP3    H112762   0.730   6.072   0.295 -2.3420  3.7152 -0.5044
 4273TIP3    H212763   0.833   6.090   0.185  1.0741 -2.5605  1.4110
 4274TIP3   OH212764   0.574   4.722   2.549 -0.0903 -0.1222  0.2382
 4274TIP3    H112765   0.587   4.682   2.463 -1.3128 -2.2044  0.9966
 4274TIP3    H212766   0.542   4.810   2.530 -0.3358 -0.5600 -1.4243
 4275TIP3   OH212767   6.985   1.911   5.780  0.3876 -0.5038  0.1885
 4275TIP3    H112768   7.074   1.885   5.758  0.6275 -0.3106  0.9144
 4275TIP3    H212769   6.963   1.859   5.858  0.6029  0.8899  1.2101
 4276TIP3   OH212770   8.333   3.930   3.961  0.6379 -0.1180 -0.1042
 4276TIP3    H112771   8.402   3.896   4.017  1.2125  2.7992  1.0600
 4276TIP3    H212772   8.282   3.988   4.018  0.2901  1.6752 -2.1806
 4277TIP3   OH212773   0.270   5.480   4.804  0.1599  0.6027 -0.2136
 4277TIP3    H112774   0.229   5.424   4.870  0.8055  1.2007  0.7203
 4277TIP3    H212775   0.229   5.565   4.816  0.7892  0.8953 -0.0963
 4278TIP3   OH212776   0.679   2.508   3.247 -0.4593 -0.0452  0.1480
 4278TIP3    H112777   0.608   2.506   3.182  2.0752  0.2839 -2.7327
 4278TIP3    H212778   0.668   2.427   3.297 -2.7913 -0.0587 -0.3147
 4279TIP3   OH212779   4.755   5.845   3.659  0.8162 -0.4494  0.0029
 4279TIP3    H112780   4.808   5.784   3.608  0.3623 -1.0896  0.2788
 4279TIP3    H212781   4.665   5.829   3.629  0.7599  0.5296 -0.3664
 4280TIP3   OH212782   0.069   5.811   2.801 -0.1413 -0.0767 -0.3195
 4280TIP3    H112783   0.137   5.815   2.733 -0.4845 -0.3784 -0.6792
 4280TIP3    H212784   0.111   5.850   2.879  0.1974  0.4152 -0.7441
 4281TIP3   OH212785   8.416   5.569   4.847  0.1171 -0.1688  0.1349
 4281TIP3    H112786   8.421   5.496   4.785  1.0274  0.4559 -0.5665
 4281TIP3    H212787   8.356   5.631   4.805 -0.0317 -0.1740  0.3447
 4282TIP3   OH212788   1.121   7.874   4.008 -0.0180  0.0276  0.1913
 4282TIP3    H112789   1.072   7.955   3.992 -0.4869 -0.4710 -0.9663
 4282TIP3    H212790   1.055   7.806   4.012  0.3144 -0.2003  1.9769
 4283TIP3   OH212791   0.615   3.347   2.604 -0.2504 -0.1062  0.2989
 4283TIP3    H112792   0.588   3.310   2.520 -0.3509  0.2730  0.1642
 4283TIP3    H212793   0.634   3.271   2.658 -0.4789 -0.3573  0.0298
 4284TIP3   OH212794   1.528   5.709   2.731 -0.0478 -0.7589  0.5125
 4284TIP3    H112795   1.550   5.625   2.693  0.4481 -1.5570  2.5239
 4284TIP3    H212796   1.440   5.697   2.767  0.0834 -0.4688  0.9383
 4285TIP3   OH212797   1.701   4.302   2.547  0.1379  0.2419  0.0239
 4285TIP3    H112798   1.688   4.350   2.465 -0.1271 -0.5430 -0.4022
 4285TIP3    H212799   1.795   4.284   2.550  0.1741  0.4230 -0.0221
 4286TIP3   OH212800   2.481   7.783   2.339  0.1853  0.4093 -0.0949
 4286TIP3    H112801   2.524   7.771   2.424 -2.8580 -0.3465  1.4153
 4286TIP3    H212802   2.489   7.877   2.322 -0.4528  0.8336  1.7850
 4287TIP3   OH212803   1.021   6.503   1.486  0.4311 -0.7642  0.3512
 4287TIP3    H112804   0.997   6.594   1.471  0.9409 -0.5215  0.9587
 4287TIP3    H212805   0.948   6.453   1.450 -0.7215 -0.0668  1.6534
 4288TIP3   OH212806   0.379   6.502   4.206  0.0137  0.5601 -0.0237
 4288TIP3    H112807   0.462   6.546   4.191 -0.1184  0.5450 -0.8250
 4288TIP3    H212808   0.315   6.552   4.154 -0.0647 -0.8021 -1.2480
 4289TIP3   OH212809   8.171   6.535   0.923  0.1832 -0.1849  0.0114
 4289TIP3    H112810   8.233   6.467   0.949  1.2321  0.5899 -0.4427
 4289TIP3    H212811   8.088   6.509   0.964  0.4912 -1.9099 -0.4310
 4290TIP3   OH212812   8.245   5.134   4.493  0.1321 -0.0325  0.0957
 4290TIP3    H112813   8.259   5.056   4.547  2.6152  0.5568  0.3612
 4290TIP3    H212814   8.203   5.197   4.551  0.1256 -0.3949  0.4894
 4291TIP3   OH212815   2.074   7.476   2.414  0.0387 -0.0043 -0.3141
 4291TIP3    H112816   2.161   7.490   2.376  0.7408 -1.1587  0.8273
 4291TIP3    H212817   2.076   7.525   2.496  0.1505 -1.2584  0.4403
 4292TIP3   OH212818   1.234   5.825   2.935  0.0574  0.7437 -0.4614
 4292TIP3    H112819   1.231   5.755   2.869 -0.5275 -1.6892  2.0212
 4292TIP3    H212820   1.323   5.822   2.968 -0.1027  0.8603 -0.0257
 4293TIP3   OH212821   2.325   6.874   3.653 -0.4705 -0.2607 -0.4075
 4293TIP3    H112822   2.234   6.844   3.652 -0.1022 -1.4218 -0.6086
 4293TIP3    H212823   2.376   6.793   3.660  0.5651  0.3260 -1.0351
 4294TIP3   OH212824   1.586   5.168   1.825 -0.0766  0.1175  0.1273
 4294TIP3    H112825   1.562   5.228   1.895 -1.3142  0.2672 -0.4106
 4294TIP3    H212826   1.622   5.224   1.757  3.4777 -0.2715  1.6019
 4295TIP3   OH212827   4.894   6.115   4.274  0.2005 -0.0423 -0.0840
 4295TIP3    H112828   4.872   6.159   4.192  1.7274  1.0545  0.0796
 4295TIP3    H212829   4.809   6.098   4.315 -0.4578  2.4650 -0.3114
 4296TIP3   OH212830   0.546   5.399   2.625 -0.3187  0.3127  0.0924
 4296TIP3    H112831   0.553   5.481   2.673  1.3744 -0.6411  1.5473
 4296TIP3    H212832   0.625   5.396   2.571 -1.1675  0.3879 -1.1709
 4297TIP3   OH212833   0.972   4.414   3.314 -0.1498 -0.2788 -0.6265
 4297TIP3    H112834   0.991   4.336   3.367 -2.2557 -0.9847 -0.8583
 4297TIP3    H212835   1.015   4.397   3.230  1.3294 -0.1575  0.1025
 4298TIP3   OH212836   2.779   5.051   5.348 -0.0461  0.1029 -0.3565
 4298TIP3    H112837   2.824   5.000   5.415 -1.1304 -1.0356 -0.4743
 4298TIP3    H212838   2.704   4.997   5.322  0.6735  0.2465 -2.9272
 4299TIP3   OH212839   2.095   4.280   3.538  0.0397  0.7279  0.0601
 4299TIP3    H112840   2.137   4.215   3.482  1.5801  0.3493  1.6015
 4299TIP3    H212841   2.040   4.331   3.479  1.4214  0.1734 -1.7521
 4300TIP3   OH212842   2.615   4.878   0.512 -0.3749  0.0731  0.1801
 4300TIP3    H112843   2.609   4.786   0.486 -0.9744 -0.3426  1.7158
 4300TIP3    H212844   2.676   4.877   0.586  0.5687  1.0904 -0.5679
 4301TIP3   OH212845   0.087   7.421   0.118 -0.1439 -0.9047 -0.6144
 4301TIP3    H112846   0.147   7.383   0.182 -0.3891 -2.8568 -1.5003
 4301TIP3    H212847   0.032   7.480   0.168  2.0210  0.3564  0.3473
 4302TIP3   OH212848   1.989   4.787   5.154 -0.7159  0.5644  0.6867
 4302TIP3    H112849   2.074   4.745   5.167 -1.1409 -0.9207 -1.0741
 4302TIP3    H212850   1.933   4.748   5.221 -1.0399 -1.5756 -0.7593
 4303TIP3   OH212851   1.592   5.728   3.264  0.0099  0.2477  0.1469
 4303TIP3    H112852   1.673   5.677   3.261  0.1294  0.4571 -0.3455
 4303TIP3    H212853   1.565   5.725   3.355  0.8699  0.6199  0.4256
 4304TIP3   OH212854   0.877   6.915   0.544 -0.2577 -0.3152 -0.1061
 4304TIP3    H112855   0.896   6.881   0.457  1.3084 -0.5291  0.3052
 4304TIP3    H212856   0.802   6.864   0.574 -0.3737 -0.7059 -1.0558
 4305TIP3   OH212857   0.784   5.804   1.951  0.0119  0.1257  0.1812
 4305TIP3    H112858   0.757   5.828   1.863 -0.3152 -0.1379  0.2089
 4305TIP3    H212859   0.867   5.851   1.965 -1.0279  1.9242  0.5432
 4306TIP3   OH212860   0.443   4.957   2.494 -0.0214  0.3573 -0.1028
 4306TIP3    H112861   0.422   5.051   2.497 -1.2546  0.1424 -1.2813
 4306TIP3    H212862   0.367   4.914   2.532  0.5274 -0.1734  0.3982
 4307TIP3   OH212863   1.622   6.331   6.268 -0.5558 -0.2138 -0.1261
 4307TIP3    H112864   1.707   6.288   6.262  0.0970  0.6231  2.3150
 4307TIP3    H212865   1.600   6.328   6.361 -1.7048  2.4031 -0.2486
 4308TIP3   OH212866   7.505   4.245   1.834  0.0727  0.1523 -0.5439
 4308TIP3    H112867   7.598   4.242   1.853 -0.2970 -1.7893  1.0854
 4308TIP3    H212868   7.463   4.263   1.918 -1.0054  1.1730 -1.2898
 4309TIP3   OH212869   2.293   5.364   2.129 -0.1853  0.0797 -0.4398
 4309TIP3    H112870   2.327   5.287   2.083  0.8545 -0.4973  1.2753
 4309TIP3    H212871   2.366   5.397   2.180 -0.1715  3.1278 -2.2383
 4310TIP3   OH212872   1.656   6.278   1.076  0.0733  0.0943  0.1427
 4310TIP3    H112873   1.697   6.270   1.162 -0.9211 -1.5260  0.4858
 4310TIP3    H212874   1.689   6.203   1.026 -1.0611 -0.2180 -0.1556
 4311TIP3   OH212875   1.256   6.812   1.503  0.1601  0.2956 -0.1001
 4311TIP3    H112876   1.254   6.750   1.577 -0.6793  1.9443  1.2905
 4311TIP3    H212877   1.337   6.790   1.457  0.7083 -0.7766  1.3162
 4312TIP3   OH212878   2.132   4.096   3.321 -0.3577 -0.2318  0.6685
 4312TIP3    H112879   2.080   4.072   3.244  1.2033  0.3854 -0.5987
 4312TIP3    H212880   2.130   4.018   3.376  1.0071 -1.7550 -1.3844
 4313TIP3   OH212881   0.048   6.524   0.937 -0.1487  0.2627 -0.4939
 4313TIP3    H112882   0.073   6.554   0.849 -1.7933 -0.3974 -1.2005
 4313TIP3    H212883   0.010   6.602   0.978 -0.8112  0.1778 -0.9331
 4314TIP3   OH212884   3.650   5.247   3.876  0.2038  0.4183 -0.1387
 4314TIP3    H112885   3.708   5.201   3.937  0.2484 -0.0931 -0.5687
 4314TIP3    H212886   3.690   5.334   3.866 -0.2796  0.8067  1.2400
 4315TIP3   OH212887   1.883   7.327   1.192  0.0665  0.0871 -0.1634
 4315TIP3    H112888   1.799   7.284   1.211  0.5941 -0.5944  0.6229
 4315TIP3    H212889   1.912   7.286   1.110 -0.8332  1.0226 -0.9704
 4316TIP3   OH212890   3.721   6.812   2.421  0.0300  0.8026 -0.2966
 4316TIP3    H112891   3.655   6.744   2.434  1.3067 -0.7645 -1.7184
 4316TIP3    H212892   3.670   6.892   2.409 -1.5829 -0.2158 -0.5069
 4317TIP3   OH212893   3.019   6.245   2.931  0.1648 -0.1821  0.5196
 4317TIP3    H112894   3.047   6.212   3.017 -1.6020 -1.3536  0.6568
 4317TIP3    H212895   2.924   6.249   2.937  0.1394  1.6398 -0.7185
 4318TIP3   OH212896   3.152   5.738   1.505 -0.0048 -0.0878 -0.8532
 4318TIP3    H112897   3.087   5.783   1.559  0.0191  0.8763 -1.6132
 4318TIP3    H212898   3.115   5.651   1.490  0.2044 -0.5160  1.0886
 4319TIP3   OH212899   7.607   4.748   1.980  0.9536  0.4605  0.4200
 4319TIP3    H112900   7.669   4.738   1.907  0.4142 -1.2994  0.1754
 4319TIP3    H212901   7.528   4.783   1.940  0.3093 -1.4640 -0.0495
 4320TIP3   OH212902   2.791   6.882   3.219  0.3721  0.0724 -0.3572
 4320TIP3    H112903   2.805   6.835   3.137 -1.0893 -1.0581  0.0106
 4320TIP3    H212904   2.718   6.836   3.260  2.7239 -1.0191  2.8060
 4321TIP3   OH212905   0.229   6.477   5.310 -0.9319  0.1391 -0.7484
 4321TIP3    H112906   0.185   6.434   5.236  1.2914 -1.9251 -0.9033
 4321TIP3    H212907   0.251   6.406   5.370 -1.1412  1.5991  1.0995
 4322TIP3   OH212908   0.618   7.146   0.352 -0.3929  0.5630 -0.6451
 4322TIP3    H112909   0.631   7.120   0.443 -1.0279 -0.1622 -0.7535
 4322TIP3    H212910   0.612   7.241   0.354 -1.8640  0.4540  0.2623
 4323TIP3   OH212911   1.190   4.104   3.993 -0.2839 -0.2100  0.3891
 4323TIP3    H112912   1.138   4.135   4.067 -0.6660  0.8061 -0.2892
 4323TIP3    H212913   1.187   4.009   3.999 -0.1549 -0.1254  1.7837
 4324TIP3   OH212914   2.632   5.947   1.958 -0.3604 -0.0540  0.7006
 4324TIP3    H112915   2.539   5.968   1.958 -0.3039  0.2935 -1.4192
 4324TIP3    H212916   2.668   5.995   1.884  1.7679  0.8255  2.2416
 4325TIP3   OH212917   8.344   5.942   2.744  0.2860  0.6713  0.0835
 4325TIP3    H112918   8.329   5.911   2.654 -0.6676 -1.2951  0.8917
 4325TIP3    H212919   8.421   5.894   2.773  0.3720  1.0356  0.4638
 4326TIP3   OH212920   1.681   4.998   3.178 -0.3198 -0.4009 -0.0966
 4326TIP3    H112921   1.609   4.947   3.141 -0.2065  0.4689 -1.5444
 4326TIP3    H212922   1.696   5.067   3.114  1.8643 -0.6268  0.1565
 4327TIP3   OH212923   1.140   5.319   1.314 -0.5027 -0.6639 -0.4707
 4327TIP3    H112924   1.102   5.364   1.239 -0.3242  0.2984  0.0029
 4327TIP3    H212925   1.159   5.231   1.283  0.1003 -0.1058 -1.7272
 4328TIP3   OH212926   3.138   5.435   1.485 -0.4912 -0.0124 -0.1412
 4328TIP3    H112927   3.124   5.422   1.391 -0.0288  0.2933 -0.2496
 4328TIP3    H212928   3.051   5.425   1.523 -1.1136  2.2876 -0.8681
 4329TIP3   OH212929   7.944   6.149   4.824  0.5129 -0.1459 -0.5676
 4329TIP3    H112930   7.879   6.084   4.796  2.1565 -2.0842  0.0095
 4329TIP3    H212931   7.940   6.146   4.920  0.2330  0.9963 -0.5400
 4330TIP3   OH212932   7.826   3.078   6.897 -0.3620  0.4341 -0.0420
 4330TIP3    H112933   7.834   3.092   6.802  0.2471  0.8370  0.0688
 4330TIP3    H212934   7.916   3.076   6.929 -0.4719 -1.8314  0.2433
 4331TIP3   OH212935   2.983   7.010   2.168 -0.2996 -0.5373 -0.2092
 4331TIP3    H112936   3.045   6.985   2.100  0.7251  1.7313 -0.1423
 4331TIP3    H212937   2.913   7.056   2.121 -0.3826 -0.3586  0.0894
 4332TIP3   OH212938   1.633   7.596   4.597  0.1260  0.1193 -0.4737
 4332TIP3    H112939   1.650   7.665   4.661  1.1266 -1.3675  0.8883
 4332TIP3    H212940   1.639   7.640   4.512  0.3198  1.7913  0.3881
 4333TIP3   OH212941   3.694   4.426   0.517 -0.5943  0.7525 -0.2050
 4333TIP3    H112942   3.747   4.388   0.447 -0.9907 -2.8740  1.3904
 4333TIP3    H212943   3.603   4.413   0.489 -0.7397  1.6570 -0.1876
 4334TIP3   OH212944   3.010   5.869   2.865  0.5131 -0.0082 -0.3150
 4334TIP3    H112945   2.924   5.885   2.827  0.7773  0.9413 -0.5315
 4334TIP3    H212946   3.015   5.927   2.941 -0.6680 -3.1285  2.2488
 4335TIP3   OH212947   1.229   4.481   1.905  0.2839  0.7009  0.0481
 4335TIP3    H112948   1.155   4.468   1.965  1.6490  0.3345  1.6781
 4335TIP3    H212949   1.208   4.428   1.828 -0.9948  0.3606  0.6271
 4336TIP3   OH212950   1.789   5.689   1.396 -0.3394 -0.7373  0.1585
 4336TIP3    H112951   1.700   5.689   1.362 -0.5682 -2.0099  0.7499
 4336TIP3    H212952   1.824   5.603   1.374 -0.0871 -1.1463  2.0674
 4337TIP3   OH212953   3.861   6.561   3.424  0.0073  0.3190 -0.1704
 4337TIP3    H112954   3.940   6.544   3.476  0.0289  0.1153 -0.2683
 4337TIP3    H212955   3.891   6.618   3.353  0.2439 -0.4658 -0.7036
 4338TIP3   OH212956   0.825   5.373   3.384 -0.1108 -0.7722  0.0552
 4338TIP3    H112957   0.824   5.443   3.319  0.2740  1.0587  1.9504
 4338TIP3    H212958   0.918   5.358   3.402 -0.0474 -3.7259 -2.2942
 4339TIP3   OH212959   0.343   6.044   3.745 -0.3113  0.0191 -0.1788
 4339TIP3    H112960   0.291   6.033   3.665 -2.9852 -0.8077  1.6396
 4339TIP3    H212961   0.376   6.134   3.739 -0.5397  0.0015 -2.1671
 4340TIP3   OH212962   2.713   4.047   5.158  0.3552  0.4424 -0.2063
 4340TIP3    H112963   2.628   4.090   5.165  0.5741  0.7318  0.7728
 4340TIP3    H212964   2.706   3.971   5.215  1.3267  1.4198  1.2369
 4341TIP3   OH212965   3.934   3.355   5.193  0.2431 -0.5689  0.1697
 4341TIP3    H112966   3.930   3.450   5.196  0.9008 -0.5478  0.2764
 4341TIP3    H212967   3.843   3.327   5.208  0.0479  0.0373  0.1185
 4342TIP3   OH212968   1.538   5.170   2.294  0.2204  0.6018 -0.1935
 4342TIP3    H112969   1.629   5.175   2.321  0.3401 -0.4918 -0.3979
 4342TIP3    H212970   1.539   5.120   2.213 -0.6204  0.1387  0.0729
 4343TIP3   OH212971   1.876   5.591   1.915 -0.6176 -0.1689  0.9012
 4343TIP3    H112972   1.896   5.498   1.923 -2.0181 -0.4734  1.0751
 4343TIP3    H212973   1.872   5.606   1.821  2.3327  0.3498  0.8213
 4344TIP3   OH212974   3.302   6.123   2.478 -0.2450  0.0850 -0.3718
 4344TIP3    H112975   3.375   6.157   2.531  0.9103  1.2232 -2.6039
 4344TIP3    H212976   3.235   6.099   2.542  1.7378 -0.1599  1.6968
 4345TIP3   OH212977   0.422   6.448   1.668 -0.6277  0.0497 -0.0308
 4345TIP3    H112978   0.505   6.449   1.714 -1.1569 -0.1161  0.9251
 4345TIP3    H212979   0.356   6.464   1.735 -1.4043 -0.1774 -0.7230
 4346TIP3   OH212980   2.171   5.043   2.407  0.2127 -0.2367  0.3343
 4346TIP3    H112981   2.251   5.006   2.370 -0.9270 -1.2546 -1.1639
 4346TIP3    H212982   2.111   5.050   2.333 -0.8911  1.0542  1.3289
 4347TIP3   OH212983   0.358   5.071   0.858 -0.2335  0.4503  0.1755
 4347TIP3    H112984   0.410   5.087   0.779  2.2036 -2.2535  1.1526
 4347TIP3    H212985   0.275   5.037   0.825  0.3676  0.3187 -1.2490
 4348TIP3   OH212986   3.193   2.813   2.895 -0.0437  0.3986  0.4159
 4348TIP3    H112987   3.207   2.776   2.982 -0.6056 -0.6632  0.0737
 4348TIP3    H212988   3.124   2.878   2.906 -0.8988 -0.5268  0.5744
 4349TIP3   OH212989   0.632   5.892   2.612 -0.0784 -0.5465  0.2176
 4349TIP3    H112990   0.606   5.978   2.646 -2.0395 -0.3199 -1.7293
 4349TIP3    H212991   0.646   5.907   2.518 -0.0624 -2.2511 -0.0639
 4350TIP3   OH212992   2.105   3.658   3.280 -0.0208 -0.1092 -0.7431
 4350TIP3    H112993   2.034   3.702   3.233 -0.3193 -0.4443 -0.6097
 4350TIP3    H212994   2.066   3.576   3.311  1.0117 -1.2856 -2.4610
 4351TIP3   OH212995   7.616   5.678   1.348 -0.2205 -0.3151 -0.1632
 4351TIP3    H112996   7.563   5.598   1.343 -2.1422  0.8698  0.7473
 4351TIP3    H212997   7.680   5.661   1.417 -1.0217 -0.8337  0.4522
 4352TIP3   OH212998   1.391   6.304   1.929 -0.4573  0.3108 -0.2162
 4352TIP3    H112999   1.458   6.252   1.975 -0.5855  1.1227  0.9092
 4352TIP3    H213000   1.436   6.339   1.852  0.8718  2.0966  1.3231
 4353TIP3   OH213001   8.042   6.512   4.587 -0.2214 -0.2364  0.2045
 4353TIP3    H113002   8.103   6.554   4.527 -0.9454 -0.3790 -0.6472
 4353TIP3    H213003   8.096   6.451   4.637  0.1445 -1.2427 -1.3825
 4354TIP3   OH213004   3.779   5.895   2.134  0.0575  0.4886  0.4939
 4354TIP3    H113005   3.740   5.979   2.156  0.7630  0.5038  1.7202
 4354TIP3    H213006   3.872   5.913   2.122 -0.0230  0.1437 -0.7319
 4355TIP3   OH213007   2.289   6.374   0.851 -0.0247  0.4518  0.7029
 4355TIP3    H113008   2.204   6.347   0.815  0.5002  1.0041 -1.0184
 4355TIP3    H213009   2.283   6.470   0.855  1.0470  0.6050 -0.8657
 4356TIP3   OH213010   7.990   4.492   1.749 -0.1997  0.5547 -0.4236
 4356TIP3    H113011   8.085   4.496   1.754 -0.2106  0.4101 -0.1299
 4356TIP3    H213012   7.960   4.571   1.794 -0.2670 -0.2696  0.9945
 4357TIP3   OH213013   2.119   4.339   3.159 -0.1997  0.1732  0.0371
 4357TIP3    H113014   2.131   4.266   3.219  1.4426 -1.0957 -1.7507
 4357TIP3    H213015   2.108   4.415   3.215 -0.0419 -1.1757  1.9356
 4358TIP3   OH213016   0.085   5.741   0.974  0.1130 -0.1419 -0.4090
 4358TIP3    H113017   0.166   5.784   0.946  0.6016 -0.5896  0.2867
 4358TIP3    H213018   0.087   5.748   1.069 -1.0760  0.5596 -0.4264
 4359TIP3   OH213019   0.284   6.694   4.912  0.0436  0.3175  0.0527
 4359TIP3    H113020   0.265   6.766   4.851 -0.3476 -0.0215 -0.2316
 4359TIP3    H213021   0.258   6.727   4.997 -0.7696  0.2691 -0.1766
 4360TIP3   OH213022   3.413   6.400   4.215 -0.0108  0.3467 -0.2486
 4360TIP3    H113023   3.402   6.326   4.275 -0.1725  1.3612  0.9797
 4360TIP3    H213024   3.359   6.377   4.139  0.0539 -0.8553  0.0490
 4361TIP3   OH213025   8.068   4.824   2.399 -0.2104 -0.3271 -0.4019
 4361TIP3    H113026   8.004   4.879   2.355  1.4040 -0.1382 -2.5969
 4361TIP3    H213027   8.094   4.874   2.476 -0.7057  0.8079 -0.9622
 4362TIP3   OH213028   1.512   5.962   3.104  1.0376 -0.1480  0.1849
 4362TIP3    H113029   1.515   5.871   3.131 -0.0435 -0.2900 -0.1306
 4362TIP3    H213030   1.555   5.963   3.018  2.4535 -0.0837  0.8925
 4363TIP3   OH213031   1.187   4.107   4.761  0.4770 -0.4857 -0.1021
 4363TIP3    H113032   1.143   4.088   4.678 -0.6843 -0.3525  0.4715
 4363TIP3    H213033   1.123   4.158   4.810  1.6793  0.6001  0.3391
 4364TIP3   OH213034   8.363   4.836   1.988  0.0313  0.0771  0.6053
 4364TIP3    H113035   8.366   4.930   1.971 -0.5793  0.6405  3.3038
 4364TIP3    H213036   8.454   4.813   2.011 -0.0412  0.2552  1.0767
 4365TIP3   OH213037   2.250   3.940   2.799  0.1963  0.4847  0.2049
 4365TIP3    H113038   2.197   3.993   2.740 -0.3742  1.8416  1.9162
 4365TIP3    H213039   2.290   4.002   2.860  2.3085 -0.6921  0.0997
 4366TIP3   OH213040   1.684   6.799   1.219  0.4251 -0.2811 -0.2063
 4366TIP3    H113041   1.625   6.808   1.294  1.1482  0.1553  0.3207
 4366TIP3    H213042   1.628   6.771   1.147 -0.4135  0.0749  0.3043
 4367TIP3   OH213043   2.184   6.582   2.896  0.7246  0.3558 -0.5751
 4367TIP3    H113044   2.154   6.673   2.901 -2.0152 -0.4955 -0.7932
 4367TIP3    H213045   2.140   6.546   2.819  2.1996 -1.0187 -0.8067
 4368TIP3   OH213046   0.769   4.802   3.870 -0.1413 -0.7055 -0.3916
 4368TIP3    H113047   0.673   4.798   3.868 -0.2782  2.2151 -1.3618
 4368TIP3    H213048   0.797   4.730   3.814 -1.8088 -0.6140 -1.3848
 4369TIP3   OH213049   2.091   4.769   3.117 -0.0890 -0.0162  0.4462
 4369TIP3    H113050   2.027   4.796   3.183 -0.4956  0.0100  0.0423
 4369TIP3    H213051   2.043   4.772   3.034  0.3235 -0.3808  0.1910
 4370TIP3   OH213052   0.525   5.328   1.631 -0.0924 -0.7835 -0.3229
 4370TIP3    H113053   0.476   5.354   1.552 -1.1649  0.7926  0.8152
 4370TIP3    H213054   0.461   5.280   1.684 -0.1067  0.3015  0.6687
 4371TIP3   OH213055   1.559   5.321   3.448 -1.0005  0.7827  0.5700
 4371TIP3    H113056   1.629   5.346   3.508 -1.1936  0.8789  0.7551
 4371TIP3    H213057   1.564   5.226   3.443 -0.3357  0.8460 -0.0448
 4372TIP3   OH213058   3.392   5.640   3.232 -0.5760  0.0774 -0.5019
 4372TIP3    H113059   3.406   5.546   3.216 -1.4047  0.0476 -1.0588
 4372TIP3    H213060   3.372   5.645   3.326 -0.6335 -0.3125 -0.4908
 4373TIP3   OH213061   0.675   5.099   3.354 -0.3139  0.0699  0.2886
 4373TIP3    H113062   0.664   5.179   3.302 -3.7939 -0.6246 -0.1357
 4373TIP3    H213063   0.738   5.047   3.304 -0.1569  1.3356 -0.8795
 4374TIP3   OH213064   1.767   2.708   3.103 -0.4682 -0.9041 -0.5868
 4374TIP3    H113065   1.695   2.771   3.109  0.0027 -0.6076  2.6601
 4374TIP3    H213066   1.748   2.657   3.024 -1.1220  2.9291 -3.0325
 4375TIP3   OH213067   3.839   5.559   3.040  0.8033 -0.2537  0.4141
 4375TIP3    H113068   3.780   5.525   3.107 -0.1213  0.4691 -0.0154
 4375TIP3    H213069   3.834   5.654   3.050  0.2221 -0.1174 -1.0436
 4376TIP3   OH213070   4.778   7.416   1.874  0.4776 -0.0555  0.0486
 4376TIP3    H113071   4.817   7.398   1.960  1.2298 -0.4124 -0.3666
 4376TIP3    H213072   4.818   7.352   1.815 -0.5209 -0.2320 -0.4431
 4377TIP3   OH213073   2.767   7.337   2.850  0.2030 -0.8328 -0.5048
 4377TIP3    H113074   2.721   7.301   2.774  0.8131 -0.5333 -1.0185
 4377TIP3    H213075   2.813   7.262   2.888 -2.7347 -1.6841  1.5225
 4378TIP3   OH213076   1.702   5.824   2.531 -0.3361 -0.4763  0.0483
 4378TIP3    H113077   1.625   5.772   2.555 -0.3419 -0.9991 -1.0871
 4378TIP3    H213078   1.679   5.913   2.558 -1.9111 -0.3793 -1.5071
 4379TIP3   OH213079   1.183   5.640   1.797 -0.0638  0.0021  0.3165
 4379TIP3    H113080   1.189   5.647   1.893  1.8084 -1.5188  0.3217
 4379TIP3    H213081   1.171   5.547   1.781  3.9869 -0.3147 -1.1322
 4380TIP3   OH213082   1.426   5.669   3.063 -0.6004 -0.0865  0.2569
 4380TIP3    H113083   1.377   5.592   3.092 -0.4423  0.1864  1.2622
 4380TIP3    H213084   1.498   5.677   3.126  0.0254  0.2368 -0.4955
 4381TIP3   OH213085   1.259   6.492   1.336 -0.3469  0.0335 -0.0306
 4381TIP3    H113086   1.182   6.480   1.392 -0.2979 -0.5584 -0.0809
 4381TIP3    H213087   1.275   6.405   1.299  0.5636  0.0624  0.2683
 4382TIP3   OH213088   1.228   6.140   2.556 -0.0613 -0.1618 -0.9325
 4382TIP3    H113089   1.171   6.070   2.523  0.3389 -0.4925 -0.9204
 4382TIP3    H213090   1.170   6.216   2.564 -1.1592 -1.2103  1.7028
 4383TIP3   OH213091   1.251   7.140   3.017 -1.0786 -0.2068  0.4380
 4383TIP3    H113092   1.159   7.121   2.997 -0.8827  0.0571 -0.7436
 4383TIP3    H213093   1.300   7.079   2.961 -0.5145  0.8570 -0.2403
 4384TIP3   OH213094   7.669   1.728   6.747  0.1164  0.1242 -0.2526
 4384TIP3    H113095   7.692   1.801   6.805  0.1766 -0.2454  0.1991
 4384TIP3    H213096   7.735   1.661   6.768  0.8452  0.4145 -1.5778
 4385TIP3   OH213097   2.297   5.922   3.083 -0.7523  0.1473 -0.6200
 4385TIP3    H113098   2.352   5.994   3.113 -0.4487 -0.6018  0.6717
 4385TIP3    H213099   2.208   5.951   3.102 -0.5272 -0.7337  2.0804
 4386TIP3   OH213100   2.478   7.634   1.221 -0.0138 -0.2897 -0.2395
 4386TIP3    H113101   2.392   7.631   1.263 -0.0587 -3.6186 -0.4464
 4386TIP3    H213102   2.460   7.617   1.129  0.6297  1.7684 -0.7726
 4387TIP3   OH213103   1.777   4.498   2.011  0.3337 -0.2977 -0.2610
 4387TIP3    H113104   1.869   4.481   1.993  0.9446  1.4848  1.0430
 4387TIP3    H213105   1.775   4.586   2.048 -1.4748 -1.5876  2.9527
 4388TIP3   OH213106   5.851   0.568   1.208 -0.0893  0.4145 -0.2235
 4388TIP3    H113107   5.861   0.476   1.184  2.5646  0.0033  2.1554
 4388TIP3    H213108   5.848   0.568   1.303  3.5891  3.0267 -0.0017
 4389TIP3   OH213109   1.554   5.323   1.156 -0.0864 -0.0833 -0.0762
 4389TIP3    H113110   1.550   5.412   1.122  1.5984  0.1858  0.3956
 4389TIP3    H213111   1.641   5.291   1.132 -1.4968 -2.4459 -2.2821
 4390TIP3   OH213112   1.709   6.385   0.731  0.4739  0.0365  0.4272
 4390TIP3    H113113   1.685   6.300   0.768  1.3546 -0.8896 -1.0853
 4390TIP3    H213114   1.742   6.365   0.644 -0.1118  2.0250 -0.2882
 4391TIP3   OH213115   2.689   4.634   3.220 -0.7813  0.0459 -0.1349
 4391TIP3    H113116   2.604   4.647   3.179 -0.9425  0.0329  0.1910
 4391TIP3    H213117   2.668   4.608   3.310 -0.4576 -2.0072 -0.6470
 4392TIP3   OH213118   0.419   5.314   0.359  0.4890 -0.5375 -0.5962
 4392TIP3    H113119   0.473   5.392   0.371 -1.5804  1.0539 -1.3585
 4392TIP3    H213120   0.460   5.267   0.286  1.6105 -0.0644 -0.2841
 4393TIP3   OH213121   4.049   5.611   4.533 -0.4173 -0.1888 -0.4152
 4393TIP3    H113122   4.045   5.558   4.454 -2.6426 -1.2658  0.3840
 4393TIP3    H213123   4.065   5.700   4.501 -0.0441 -0.8090 -1.9891
 4394TIP3   OH213124   3.544   5.984   3.638  0.1795  0.1274  0.1362
 4394TIP3    H113125   3.463   5.937   3.656  0.5876  0.3049  2.5836
 4394TIP3    H213126   3.518   6.056   3.581 -1.3211  0.0566  0.7232
 4395TIP3   OH213127   0.447   5.529   1.837 -0.1095 -0.2514  0.7201
 4395TIP3    H113128   0.357   5.523   1.870  0.2149  0.2919  1.7332
 4395TIP3    H213129   0.454   5.458   1.774 -0.8976 -1.0022  1.4637
 4396TIP3   OH213130   8.398   3.808   2.014 -0.5090  0.7055  0.0580
 4396TIP3    H113131   8.492   3.793   2.016 -0.8624 -1.7441  0.7052
 4396TIP3    H213132   8.369   3.793   2.104 -1.7381 -0.3131 -0.4817
 4397TIP3   OH213133   2.324   5.802   1.970 -0.0293 -0.2115  0.2736
 4397TIP3    H113134   2.339   5.896   1.967 -1.1193  0.0129  1.5496
 4397TIP3    H213135   2.297   5.779   1.882  0.1410  0.6819 -0.0141
 4398TIP3   OH213136   0.396   4.783   2.102  0.0921 -0.0118 -0.5269
 4398TIP3    H113137   0.460   4.736   2.048 -1.6943 -0.9177 -1.8905
 4398TIP3    H213138   0.448   4.848   2.149  2.2853 -1.8313 -0.3271
 4399TIP3   OH213139   3.508   4.112   2.273 -0.2595  0.2559  0.3404
 4399TIP3    H113140   3.526   4.031   2.320 -0.4748  0.7949  1.3709
 4399TIP3    H213141   3.524   4.181   2.338 -3.2151  0.8867  0.4868
 4400TIP3   OH213142   1.566   5.339   1.588 -0.0357  0.2789  0.7645
 4400TIP3    H113143   1.546   5.433   1.595  1.1923  0.6457 -0.3616
 4400TIP3    H213144   1.521   5.311   1.509  0.3688  0.1491  0.5759
 4401TIP3   OH213145   2.630   7.007   4.877 -0.3195  0.1146  0.1065
 4401TIP3    H113146   2.549   7.058   4.873  0.1025  0.7325 -1.1239
 4401TIP3    H213147   2.607   6.921   4.842 -0.7277 -0.1216  0.9448
 4402TIP3   OH213148   1.977   6.315   2.315 -0.4187  0.3138 -0.0882
 4402TIP3    H113149   1.992   6.401   2.354  2.1190 -0.5043  0.8615
 4402TIP3    H213150   1.980   6.255   2.389  0.2085 -0.8497 -1.0497
 4403TIP3   OH213151   1.800   5.514   2.805 -0.2304 -0.5137 -0.0795
 4403TIP3    H113152   1.828   5.442   2.748  0.6515 -0.1550 -0.1093
 4403TIP3    H213153   1.749   5.471   2.874  2.2635 -1.4866  1.2137
 4404TIP3   OH213154   6.751   1.283   6.524 -0.0160 -0.1246 -0.1353
 4404TIP3    H113155   6.675   1.277   6.467 -2.5717  1.4867  2.9401
 4404TIP3    H213156   6.734   1.219   6.593  1.3199  0.4091  0.7047
 4405TIP3   OH213157   4.205   6.239   3.636  0.0343 -0.2387  0.1253
 4405TIP3    H113158   4.296   6.224   3.660  0.2153  0.4006 -0.1715
 4405TIP3    H213159   4.180   6.318   3.684 -0.0457  0.1920 -0.6215
 4406TIP3   OH213160   2.580   4.255   3.585  0.0299 -0.4973  0.2647
 4406TIP3    H113161   2.581   4.172   3.634  0.3817  0.2169  1.4958
 4406TIP3    H213162   2.672   4.271   3.563  0.4976  1.3355  3.1604
 4407TIP3   OH213163   0.534   6.369   3.445  0.4338 -0.3909 -0.0803
 4407TIP3    H113164   0.597   6.417   3.499  0.6393  1.0177 -1.5258
 4407TIP3    H213165   0.501   6.435   3.383 -2.0183 -1.2702  0.2811
 4408TIP3   OH213166   0.614   6.436   2.450  0.1494 -0.5396 -0.0429
 4408TIP3    H113167   0.679   6.367   2.462 -0.3321 -0.9059  0.5232
 4408TIP3    H213168   0.617   6.457   2.357  0.2303 -1.4023 -0.2341
 4409TIP3   OH213169   1.996   5.504   2.365  0.0849  0.0273  0.2371
 4409TIP3    H113170   2.083   5.483   2.398  0.3409  0.5000 -0.1312
 4409TIP3    H213171   2.011   5.564   2.291 -0.5565  0.2604  0.2857
 4410TIP3   OH213172   2.342   6.328   1.116  0.3899  0.3366 -0.0921
 4410TIP3    H113173   2.316   6.326   1.024  0.5687  0.6304 -0.1508
 4410TIP3    H213174   2.260   6.344   1.163  0.2310 -0.2465 -0.1673
 4411TIP3   OH213175   2.924   5.486   3.004  0.8278  0.2005 -0.0494
 4411TIP3    H113176   3.012   5.510   2.975 -0.2041  3.0333 -1.0092
 4411TIP3    H213177   2.866   5.537   2.948 -1.4217 -1.3684  0.8196
 4412TIP3   OH213178   1.248   7.340   0.996  0.4761  0.4587 -0.4650
 4412TIP3    H113179   1.321   7.393   0.965  1.6744 -0.7147  0.2655
 4412TIP3    H213180   1.242   7.359   1.090 -0.0003  0.3498 -0.4682
 4413TIP3   OH213181   0.311   5.987   2.896  0.0297 -0.3937  0.1437
 4413TIP3    H113182   0.281   5.933   2.969  1.5627  0.5869  1.5530
 4413TIP3    H213183   0.401   6.010   2.919  0.0378  1.1852 -1.3408
 4414TIP3   OH213184   1.378   6.325   0.734 -0.2893  0.3172 -0.2932
 4414TIP3    H113185   1.283   6.312   0.736  0.0862 -3.0343  0.8792
 4414TIP3    H213186   1.398   6.365   0.819 -0.5607 -0.0778 -0.0377
 4415TIP3   OH213187   3.212   7.455   4.683 -0.4409 -0.2563  0.2740
 4415TIP3    H113188   3.213   7.383   4.746  0.4187 -0.5260 -0.0358
 4415TIP3    H213189   3.130   7.501   4.699 -0.3095 -0.4338  1.4673
 4416TIP3   OH213190   0.872   5.121   1.089  0.3324  0.4660  0.3323
 4416TIP3    H113191   0.815   5.054   1.051  0.8267  0.1579  0.1356
 4416TIP3    H213192   0.821   5.158   1.161 -0.7805  1.3326 -0.8739
 4417TIP3   OH213193   2.532   6.639   3.526  0.0634  0.0491  0.0632
 4417TIP3    H113194   2.545   6.694   3.603  0.1466  1.4624 -0.9210
 4417TIP3    H213195   2.527   6.550   3.559 -1.5986  0.7864  1.8947
 4418TIP3   OH213196   1.784   3.914   4.084 -0.2528  0.0588  0.1143
 4418TIP3    H113197   1.864   3.950   4.122 -0.5395  1.5443 -0.6516
 4418TIP3    H213198   1.778   3.956   3.998 -2.1637  0.4383  0.4122
 4419TIP3   OH213199   3.421   6.841   3.144  0.2493  0.3458 -0.2162
 4419TIP3    H113200   3.425   6.931   3.110 -1.0325  1.0979  1.4740
 4419TIP3    H213201   3.346   6.843   3.204  0.4621 -1.7636  0.1353
 4420TIP3   OH213202   0.113   5.344   4.415  0.6535 -0.1736  0.0241
 4420TIP3    H113203   0.068   5.409   4.360  1.3671 -0.5234 -0.9825
 4420TIP3    H213204   0.044   5.310   4.472  0.3807  1.8764  0.9848
 4421TIP3   OH213205   0.465   3.870   2.154  0.5809 -0.6163 -0.0382
 4421TIP3    H113206   0.425   3.951   2.185 -2.1511 -0.3479 -3.8959
 4421TIP3    H213207   0.535   3.897   2.095 -0.8778 -0.9900 -1.9897
 4422TIP3   OH213208   0.636   6.320   4.724 -0.2053 -0.7092 -0.0687
 4422TIP3    H113209   0.561   6.340   4.668  0.7077 -1.6255 -1.6393
 4422TIP3    H213210   0.600   6.264   4.793 -1.6844  1.8253  1.3299
 4423TIP3   OH213211   6.616   0.705   6.507 -0.1966 -0.0059  0.2675
 4423TIP3    H113212   6.575   0.619   6.500 -1.8410  0.5829  2.1705
 4423TIP3    H213213   6.710   0.686   6.506 -0.5074 -2.0648  2.6669
 4424TIP3   OH213214   0.020   6.244   2.559 -0.2528 -1.0688  0.3595
 4424TIP3    H113215  -0.046   6.223   2.624 -0.3266 -0.6850  0.4073
 4424TIP3    H213216   0.103   6.239   2.606 -0.3287 -0.4737  0.5637
 4425TIP3   OH213217   0.576   6.017   3.572  0.8310 -0.2178  0.0082
 4425TIP3    H113218   0.622   5.987   3.650 -1.9850 -0.7143  1.5720
 4425TIP3    H213219   0.507   6.075   3.606  1.5239  2.1197 -2.3867
 4426TIP3   OH213220   3.699   5.515   4.672 -0.0918  0.4895 -0.5016
 4426TIP3    H113221   3.689   5.602   4.711  1.4719  1.0777 -1.3469
 4426TIP3    H213222   3.612   5.494   4.638 -0.6958  1.3391  0.4970
 4427TIP3   OH213223   2.140   4.555   2.767  0.5829 -0.2772  0.0761
 4427TIP3    H113224   2.167   4.516   2.850  1.1754 -1.1093 -0.5029
 4427TIP3    H213225   2.211   4.535   2.706 -0.1039 -0.1583 -0.7822
 4428TIP3   OH213226   2.758   5.767   3.955 -0.0442  0.4964 -0.4011
 4428TIP3    H113227   2.828   5.819   3.995 -0.9418 -0.2633  2.2584
 4428TIP3    H213228   2.704   5.831   3.909  0.3404  1.5900  0.6493
 4429TIP3   OH213229   1.740   7.617   5.216  0.1352  0.2668 -0.1607
 4429TIP3    H113230   1.802   7.654   5.279  1.3200  0.1743 -1.2684
 4429TIP3    H213231   1.673   7.575   5.271  0.0100  2.0295  1.0600
 4430TIP3   OH213232   3.443   6.672   4.105  0.4225 -0.0113  0.1566
 4430TIP3    H113233   3.407   6.754   4.139  0.0618 -0.2044  0.2392
 4430TIP3    H213234   3.437   6.611   4.178  1.9014  0.2383  0.5164
 4431TIP3   OH213235   1.709   5.576   3.940 -0.3606 -0.5516  0.0812
 4431TIP3    H113236   1.746   5.601   3.856  1.1472 -1.8724  0.3199
 4431TIP3    H213237   1.669   5.656   3.974  0.5110  0.4133 -1.1213
 4432TIP3   OH213238   1.103   3.850   2.011  0.4589 -0.2658 -0.0804
 4432TIP3    H113239   1.145   3.769   1.983 -0.5423 -1.2592  1.2172
 4432TIP3    H213240   1.027   3.821   2.063  1.1821  1.4868  2.0352
 4433TIP3   OH213241   3.064   5.824   3.832 -0.2971 -0.4162  0.0371
 4433TIP3    H113242   3.033   5.844   3.920 -1.6226 -3.4391  0.3055
 4433TIP3    H213243   2.989   5.844   3.776  0.4414  1.2049 -0.4082
 4434TIP3   OH213244   3.053   4.142   3.395  0.3607  0.4663  0.1717
 4434TIP3    H113245   3.088   4.084   3.327 -0.1917  0.4322 -0.0918
 4434TIP3    H213246   3.108   4.125   3.471  0.0721 -0.5813  0.1664
 4435TIP3   OH213247   0.937   4.448   1.393  0.2438  0.1325 -0.1629
 4435TIP3    H113248   0.897   4.531   1.422 -2.6495 -0.7820 -1.4172
 4435TIP3    H213249   0.865   4.386   1.390  2.4414 -2.6106  1.1279
 4436TIP3   OH213250   8.023   4.697   1.464  0.3227 -0.2399 -0.0975
 4436TIP3    H113251   8.107   4.650   1.466  0.4466  0.0157  2.3098
 4436TIP3    H213252   8.036   4.772   1.521 -1.4051  0.0553 -0.0630
 4437TIP3   OH213253   7.349   7.125   1.901 -0.0077  0.3296 -0.3125
 4437TIP3    H113254   7.349   7.178   1.981 -3.8419 -1.6538  1.1529
 4437TIP3    H213255   7.304   7.178   1.836  0.9951  0.9977 -0.4683
 4438TIP3   OH213256   4.647   0.871   6.850 -0.3304  0.2603  0.5973
 4438TIP3    H113257   4.692   0.791   6.879  0.2242  0.3464 -0.0377
 4438TIP3    H213258   4.625   0.917   6.931  1.9424  0.9054  0.8711
 4439TIP3   OH213259   2.016   6.224   2.617 -0.5332 -0.2195  0.1438
 4439TIP3    H113260   1.972   6.142   2.594 -0.4659 -0.1101 -0.3750
 4439TIP3    H213261   2.059   6.205   2.700 -2.2588 -0.0792  1.0963
 4440TIP3   OH213262   3.667   5.034   2.695 -0.0232  0.4126 -0.0195
 4440TIP3    H113263   3.736   5.097   2.671 -0.6649  0.1685 -2.6371
 4440TIP3    H213264   3.586   5.076   2.667 -0.7159 -0.4433  0.6740
 4441TIP3   OH213265   4.184   4.968   3.305  0.4540  0.5335  0.3551
 4441TIP3    H113266   4.264   4.961   3.254  0.0599  1.1471 -0.3529
 4441TIP3    H213267   4.175   5.061   3.323  0.8786  0.2692  2.0096
 4442TIP3   OH213268   1.449   5.301   2.023 -0.2665 -0.2490  0.0392
 4442TIP3    H113269   1.449   5.367   2.092  0.7361  1.4299 -1.5159
 4442TIP3    H213270   1.359   5.271   2.017 -0.5829  0.4501  1.2615
 4443TIP3   OH213271   2.755   5.481   2.423  0.0565  0.0656  0.4533
 4443TIP3    H113272   2.823   5.545   2.402 -0.6202  1.0012  1.0564
 4443TIP3    H213273   2.734   5.499   2.515 -0.9847 -0.2266  0.2791
 4444TIP3   OH213274   2.597   5.763   0.596  0.1813  0.6715  0.1852
 4444TIP3    H113275   2.511   5.774   0.637 -0.1880  2.0957 -0.9361
 4444TIP3    H213276   2.600   5.671   0.573 -0.0464  0.0614  2.4136
 4445TIP3   OH213277   4.036   6.443   2.168  0.3086  0.3129 -0.1927
 4445TIP3    H113278   4.044   6.520   2.113 -0.2860 -0.9880 -2.1550
 4445TIP3    H213279   4.123   6.403   2.165 -0.4813 -1.3772 -2.7235
 4446TIP3   OH213280   2.670   5.719   0.993 -0.0754  0.1150  0.1471
 4446TIP3    H113281   2.661   5.799   1.044  1.5479  0.9462 -0.8490
 4446TIP3    H213282   2.607   5.658   1.033 -1.2596  1.8354  0.9519
 4447TIP3   OH213283   2.339   3.488   3.939  0.0656 -0.6184 -0.6733
 4447TIP3    H113284   2.420   3.512   3.985 -1.0031 -0.3617  1.0869
 4447TIP3    H213285   2.290   3.435   4.002 -1.1096 -0.8633 -1.7719
 4448TIP3   OH213286   0.792   3.600   1.458 -0.4061 -0.1489  0.7975
 4448TIP3    H113287   0.802   3.624   1.366 -0.9008  1.0557  1.0443
 4448TIP3    H213288   0.719   3.538   1.460 -1.7638  1.4354  0.6263
 4449TIP3   OH213289   1.825   4.338   3.816 -0.3234 -0.5806 -0.2368
 4449TIP3    H113290   1.899   4.289   3.851  1.0851  0.4902 -1.6272
 4449TIP3    H213291   1.828   4.321   3.721 -0.5006  1.2638 -0.5924
 4450TIP3   OH213292   2.293   3.790   4.475 -0.9626 -0.2078  0.7010
 4450TIP3    H113293   2.220   3.843   4.444  0.1220  0.7068 -0.3843
 4450TIP3    H213294   2.262   3.700   4.469 -0.7983 -0.1077 -3.2583
 4451TIP3   OH213295   2.697   6.486   4.659 -0.2026 -0.3268 -0.1108
 4451TIP3    H113296   2.779   6.524   4.629 -0.3564  0.1335  0.0564
 4451TIP3    H213297   2.699   6.396   4.625 -0.6359  0.3560 -1.9956
 4452TIP3   OH213298   2.456   5.297   1.214  0.1204 -0.1744  0.4245
 4452TIP3    H113299   2.419   5.250   1.139 -0.5083  0.5870  0.2496
 4452TIP3    H213300   2.463   5.388   1.185  1.4010 -0.1668  0.7346
 4453TIP3   OH213301   1.304   5.537   2.433 -0.1801 -0.1280 -0.3977
 4453TIP3    H113302   1.355   5.596   2.377  0.8460  1.0062  1.6822
 4453TIP3    H213303   1.363   5.464   2.451  0.2223  0.4747  0.8028
 4454TIP3   OH213304   3.545   4.541   2.494 -0.2655  0.4558 -0.3747
 4454TIP3    H113305   3.467   4.544   2.550  1.2110  1.4025  1.7165
 4454TIP3    H213306   3.594   4.620   2.517  0.9504  0.2612 -2.1945
 4455TIP3   OH213307   3.647   5.564   3.503 -0.0766 -0.9531 -0.2915
 4455TIP3    H113308   3.671   5.657   3.499  2.1230 -1.4571  0.5449
 4455TIP3    H213309   3.568   5.562   3.558  0.7814  0.2694  1.0144
 4456TIP3   OH213310   0.554   5.061   3.005  0.0060 -0.0856 -0.2461
 4456TIP3    H113311   0.498   5.089   2.933 -0.7054  1.1723  0.7786
 4456TIP3    H213312   0.494   5.030   3.073  0.6190 -0.4132  0.1513
 4457TIP3   OH213313   3.333   3.891   5.626 -0.1391  0.0034 -0.4339
 4457TIP3    H113314   3.363   3.932   5.545  1.5110 -1.5311 -0.6399
 4457TIP3    H213315   3.398   3.915   5.691 -1.3545  1.0680  0.4209
 4458TIP3   OH213316   4.471   5.798   3.597 -0.4658  0.6322 -0.3476
 4458TIP3    H113317   4.515   5.770   3.516  0.6809  1.3579  0.0075
 4458TIP3    H213318   4.379   5.808   3.573 -0.3010 -0.1110 -1.3148
 4459TIP3   OH213319   1.340   5.144   3.229 -0.5566 -0.5822 -0.1570
 4459TIP3    H113320   1.370   5.064   3.186 -1.7011 -0.7338 -0.7196
 4459TIP3    H213321   1.251   5.123   3.258 -1.0521  0.6405 -0.7451
 4460TIP3   OH213322   0.366   4.158   2.108 -0.1292  0.1996  0.4213
 4460TIP3    H113323   0.307   4.108   2.052  0.2686  1.3044 -1.0117
 4460TIP3    H213324   0.308   4.212   2.161 -0.4440  1.2854 -0.9840
 4461TIP3   OH213325   3.539   5.532   4.059 -0.0201  0.6017  0.0402
 4461TIP3    H113326   3.605   5.544   3.991  1.4200  0.2446  1.3181
 4461TIP3    H213327   3.458   5.568   4.022  0.6810  0.2305 -1.9003
 4462TIP3   OH213328   1.551   1.930   4.620  0.1147 -0.7459  0.2546
 4462TIP3    H113329   1.596   1.944   4.536  0.6197  0.5577  0.7220
 4462TIP3    H213330   1.520   1.840   4.616  1.6840 -1.2764 -0.6064
 4463TIP3   OH213331   1.775   5.599   3.557  0.1012  0.6474  0.6201
 4463TIP3    H113332   1.762   5.504   3.561 -1.2901  0.7561 -0.7349
 4463TIP3    H213333   1.687   5.635   3.565  0.8273  1.9238  3.2154
 4464TIP3   OH213334   4.830   4.581   0.210  0.5929  0.0201  0.2954
 4464TIP3    H113335   4.773   4.640   0.259  1.8081  1.0795  0.4725
 4464TIP3    H213336   4.807   4.597   0.118  0.2681  0.0929  0.3901
 4465TIP3   OH213337   1.991   4.726   2.540 -0.2266 -0.2565 -0.0266
 4465TIP3    H113338   1.953   4.814   2.536  1.9908  0.8047  1.0184
 4465TIP3    H213339   2.005   4.710   2.633  0.1423 -1.3815 -0.2617
 4466TIP3   OH213340   8.141   6.615   2.415  0.2309  0.3916 -0.3088
 4466TIP3    H113341   8.166   6.650   2.501 -1.5682  0.8203  0.0600
 4466TIP3    H213342   8.163   6.522   2.420  4.4326  1.2459 -1.0653
 4467TIP3   OH213343   2.811   6.396   0.356 -0.5203  0.0687  0.3229
 4467TIP3    H113344   2.734   6.440   0.391 -1.6017 -0.2615 -1.5636
 4467TIP3    H213345   2.798   6.304   0.379 -0.1463  0.1631  0.9323
 4468TIP3   OH213346   7.114   1.671   3.564 -0.0838  0.3561 -0.3860
 4468TIP3    H113347   7.202   1.707   3.552 -0.5496  1.3586 -0.8825
 4468TIP3    H213348   7.062   1.714   3.497 -1.2962  1.0020  0.9367
 4469TIP3   OH213349   0.826   4.591   2.157 -0.6275 -0.2233  0.1562
 4469TIP3    H113350   0.857   4.626   2.240  0.3789 -0.3729 -0.1521
 4469TIP3    H213351   0.896   4.610   2.095 -0.5113 -1.8410 -0.2400
 4470TIP3   OH213352   3.064   5.561   3.458  0.2683 -0.7943  0.0236
 4470TIP3    H113353   3.097   5.475   3.431  1.4787  0.0126 -1.1432
 4470TIP3    H213354   3.018   5.595   3.381 -1.4436 -0.9839  0.9458
 4471TIP3   OH213355   6.571   5.777   2.863  0.1728  0.1406 -0.5207
 4471TIP3    H113356   6.640   5.819   2.915 -0.1993 -0.4503  0.4757
 4471TIP3    H213357   6.601   5.687   2.851 -0.3090 -0.0608 -0.2658
 4472TIP3   OH213358   1.700   6.804   2.348  0.1910 -0.1487  0.3692
 4472TIP3    H113359   1.775   6.767   2.301  0.4592  0.1533  0.5607
 4472TIP3    H213360   1.675   6.881   2.297 -0.0494 -0.3042  0.2524
 4473TIP3   OH213361   7.254   4.372   2.147 -0.4419 -0.4013  0.3736
 4473TIP3    H113362   7.308   4.423   2.087 -0.1990 -0.0671  0.8738
 4473TIP3    H213363   7.281   4.281   2.133 -0.6465 -0.3604 -0.2810
 4474TIP3   OH213364   3.907   6.804   3.027  0.1502 -0.1064  0.2045
 4474TIP3    H113365   3.838   6.841   3.082 -1.7749 -1.1689 -1.4161
 4474TIP3    H213366   3.941   6.879   2.978 -0.6149  0.2499  0.2130
 4475TIP3   OH213367   4.460   0.356   0.197  0.1405 -0.0799 -0.6091
 4475TIP3    H113368   4.367   0.370   0.185  0.2502  0.6669 -0.5997
 4475TIP3    H213369   4.466   0.269   0.238 -0.4757 -0.6591 -1.7140
 4476TIP3   OH213370   1.108   6.206   2.014 -0.1827  0.1041  0.3189
 4476TIP3    H113371   1.067   6.292   2.002 -1.8307 -0.8660 -1.4445
 4476TIP3    H213372   1.193   6.214   1.972  0.2535  1.2732  1.3892
 4477TIP3   OH213373   8.362   5.687   1.180  0.2688  0.4875  0.6990
 4477TIP3    H113374   8.273   5.705   1.210 -0.0653  1.1434 -0.6495
 4477TIP3    H213375   8.352   5.670   1.086  1.5426  0.3492  0.5856
 4478TIP3   OH213376   7.976   4.885   1.265  0.6223 -0.6767  0.0546
 4478TIP3    H113377   8.039   4.954   1.287  0.9007 -1.1576  0.8200
 4478TIP3    H213378   7.995   4.815   1.329  0.0004 -1.2425 -0.3758
 4479TIP3   OH213379   3.898   5.257   3.252  0.1573 -0.4592 -0.1023
 4479TIP3    H113380   3.847   5.337   3.259 -0.5165 -0.9735  0.9263
 4479TIP3    H213381   3.870   5.218   3.169  0.0884  0.0804 -0.3381
 4480TIP3   OH213382   1.681   4.665   3.249  0.3004 -0.1560 -0.3754
 4480TIP3    H113383   1.634   4.741   3.285 -1.6145 -1.3274 -0.3314
 4480TIP3    H213384   1.709   4.616   3.326 -1.3308 -1.1905 -0.4285
 4481TIP3   OH213385   2.785   6.673   3.038 -0.0620  0.0482  0.4372
 4481TIP3    H113386   2.727   6.666   2.963  0.9292 -0.0009 -0.3385
 4481TIP3    H213387   2.772   6.592   3.087  0.2886 -0.5277 -0.4163
 4482TIP3   OH213388   7.273   5.629   3.915 -0.0498  0.5121 -0.2944
 4482TIP3    H113389   7.198   5.573   3.897 -1.3392  2.1979 -0.3756
 4482TIP3    H213390   7.242   5.690   3.982  0.8056  2.0542 -1.2600
 4483TIP3   OH213391   1.659   4.733   2.615  0.1116 -0.1523  0.1509
 4483TIP3    H113392   1.674   4.699   2.703  0.2037  0.2707  0.3025
 4483TIP3    H213393   1.727   4.799   2.603  1.7661 -2.0467 -1.2599
 4484TIP3   OH213394   1.749   4.262   3.536 -0.1742 -0.1085  0.5404
 4484TIP3    H113395   1.706   4.177   3.526 -0.3939 -0.1103  1.4551
 4484TIP3    H213396   1.741   4.304   3.451 -0.2073 -0.9451  0.1337
 4485TIP3   OH213397   1.348   5.421   3.276  0.3996  0.5744 -0.4002
 4485TIP3    H113398   1.412   5.411   3.347  1.1397  1.6220 -0.9162
 4485TIP3    H213399   1.326   5.331   3.252 -1.2476  0.1623  2.3822
 4486TIP3   OH213400   1.632   5.546   2.548  0.2938  0.0719  0.0811
 4486TIP3    H113401   1.655   5.552   2.456  0.3910  0.3883  0.1226
 4486TIP3    H213402   1.715   5.562   2.594 -0.0097  1.2715  0.2341
 4487TIP3   OH213403   7.003   5.898   2.073 -0.2385 -0.0711  0.4767
 4487TIP3    H113404   6.920   5.931   2.107  0.2316 -0.3074  1.9092
 4487TIP3    H213405   7.023   5.954   1.998 -1.6538  0.0227  0.1630
 4488TIP3   OH213406   1.868   4.646   2.317  0.4022 -0.0931 -0.3609
 4488TIP3    H113407   1.829   4.732   2.302 -1.1695 -0.2975  2.2449
 4488TIP3    H213408   1.905   4.652   2.405  1.0058 -1.8179 -0.4811
 4489TIP3   OH213409   2.280   5.997   3.993 -0.2197  0.1189  0.2296
 4489TIP3    H113410   2.292   5.919   4.047 -0.8534  1.0182  1.6824
 4489TIP3    H213411   2.245   5.963   3.910  0.1287 -1.2023  0.6095
 4490TIP3   OH213412   1.426   7.604   1.635 -0.4142 -0.0760  0.1344
 4490TIP3    H113413   1.407   7.557   1.716  1.4941 -0.1068  0.5978
 4490TIP3    H213414   1.366   7.679   1.636 -0.8080 -0.3877  1.2902
 4491TIP3   OH213415   3.779   7.853   2.624  0.1035  0.7413  0.3196
 4491TIP3    H113416   3.787   7.771   2.576 -1.1220 -0.2780  1.7798
 4491TIP3    H213417   3.760   7.919   2.557 -1.5320 -0.6343 -0.6013
 4492TIP3   OH213418   2.489   5.439   3.331 -0.1256  0.0454  0.0360
 4492TIP3    H113419   2.425   5.471   3.395 -1.0096  1.7977 -1.6822
 4492TIP3    H213420   2.561   5.503   3.336  0.1423 -0.2415 -0.1660
 4493TIP3   OH213421   0.450   5.067   3.901  0.5742 -0.0574  0.4923
 4493TIP3    H113422   0.443   5.078   3.996 -2.8047 -1.2339  0.4516
 4493TIP3    H213423   0.385   5.128   3.865 -0.1563 -1.6188 -0.9231
 4494TIP3   OH213424   1.031   5.706   4.828  0.3162  0.1789 -0.5573
 4494TIP3    H113425   1.028   5.690   4.734  0.9615  0.4814 -0.6286
 4494TIP3    H213426   1.070   5.626   4.864  2.9346  1.2779 -0.8527
 4495TIP3   OH213427   5.227   4.294   3.572 -0.0029  0.0825 -0.1504
 4495TIP3    H113428   5.245   4.294   3.666 -0.7623 -1.0165  0.0046
 4495TIP3    H213429   5.134   4.318   3.566 -0.6796 -2.4785 -0.4486
 4496TIP3   OH213430   4.094   4.674   1.753  0.4596 -0.6726 -0.3922
 4496TIP3    H113431   4.155   4.745   1.773  0.9989 -1.1363 -0.3892
 4496TIP3    H213432   4.101   4.662   1.659 -0.7073  0.2578 -0.5964
 4497TIP3   OH213433   2.836   3.836   1.296 -0.3653  0.3833 -0.3630
 4497TIP3    H113434   2.871   3.770   1.237 -0.0987  1.2593 -1.1891
 4497TIP3    H213435   2.884   3.823   1.378 -0.4557 -0.5717 -0.4521
 4498TIP3   OH213436   3.105   4.557   0.611 -0.3587  0.3305 -0.0190
 4498TIP3    H113437   3.101   4.543   0.516 -0.7057 -0.4387  0.1057
 4498TIP3    H213438   3.129   4.471   0.646 -1.2163  0.3729  0.6711
 4499TIP3   OH213439   3.028   7.686   2.185 -0.2714  0.3350 -0.4523
 4499TIP3    H113440   2.980   7.663   2.105  0.2829 -0.1790 -0.6371
 4499TIP3    H213441   3.118   7.658   2.169 -0.4801 -1.2323  0.9463
 4500TIP3   OH213442   3.754   6.497   2.067 -0.0506 -0.2441 -0.8267
 4500TIP3    H113443   3.773   6.516   1.975  0.8108 -0.9680 -0.8132
 4500TIP3    H213444   3.833   6.452   2.099  0.0490  0.8380  0.5281
 4501TIP3   OH213445   5.944   4.880   2.762 -0.3224  0.6845 -0.1072
 4501TIP3    H113446   5.869   4.898   2.704  0.1992  0.4928 -0.8463
 4501TIP3    H213447   5.904   4.856   2.845 -1.0895  0.7682 -0.4455
 4502TIP3   OH213448   3.004   4.274   0.854  0.6668  0.0219 -0.6664
 4502TIP3    H113449   2.961   4.197   0.893  0.4207  2.0640  3.4060
 4502TIP3    H213450   3.097   4.255   0.862  0.6296  0.5859  1.4198
 4503TIP3   OH213451   2.476   5.436   1.862  0.2271 -0.0364  0.2693
 4503TIP3    H113452   2.459   5.357   1.914  0.6390 -0.4007 -0.1448
 4503TIP3    H213453   2.389   5.469   1.840  0.0511 -0.0867  0.8804
 4504TIP3   OH213454   4.961   7.693   1.626  0.4395  0.7453  0.2784
 4504TIP3    H113455   4.879   7.645   1.617  0.9078 -0.2673  1.4043
 4504TIP3    H213456   5.021   7.651   1.564  0.4160  0.8253  0.2014
 4505TIP3   OH213457   2.104   6.277   2.044 -0.3820  0.2557 -0.5076
 4505TIP3    H113458   2.041   6.257   1.976 -0.2201 -1.1067 -0.2758
 4505TIP3    H213459   2.053   6.279   2.125 -0.3589  0.5570 -0.5000
 4506TIP3   OH213460   3.818   6.524   2.579  0.1057 -0.4589 -0.1095
 4506TIP3    H113461   3.890   6.588   2.574 -0.0137 -0.2752  0.5382
 4506TIP3    H213462   3.777   6.541   2.663  0.3005 -1.6410  0.2326
 4507TIP3   OH213463   1.876   0.400   6.148 -0.4812 -0.5885 -0.0560
 4507TIP3    H113464   1.910   0.336   6.085 -0.3834  0.2595 -0.8715
 4507TIP3    H213465   1.851   0.476   6.094  1.3995  0.9008  1.1252
 4508TIP3   OH213466   3.046   5.064   2.557 -0.5135 -0.0795 -0.3139
 4508TIP3    H113467   3.037   4.975   2.522 -0.5559 -0.2039  0.0150
 4508TIP3    H213468   3.074   5.116   2.481  3.6129 -1.1374  0.3408
 4509TIP3   OH213469   7.559   0.328   0.458 -0.2737 -0.5954  0.6739
 4509TIP3    H113470   7.620   0.257   0.438  1.8636  1.5642 -0.7638
 4509TIP3    H213471   7.549   0.325   0.553  1.2546 -1.6580  0.8206
 4510TIP3   OH213472   3.209   7.867   3.830  0.3248  0.2044 -0.2931
 4510TIP3    H113473   3.275   7.858   3.899  1.4437  3.6746 -0.7854
 4510TIP3    H213474   3.252   7.834   3.751  1.9111  3.1818 -0.7778
 4511TIP3   OH213475   2.292   4.462   2.996  0.3100 -0.4364  0.0293
 4511TIP3    H113476   2.228   4.407   3.041  0.8965 -0.6395  0.6104
 4511TIP3    H213477   2.323   4.523   3.063 -2.5615  2.6495 -1.2690
 4512TIP3   OH213478   4.523   6.118   2.719 -0.5950  0.1735 -0.4634
 4512TIP3    H113479   4.612   6.085   2.704  0.3084  2.3451 -0.1646
 4512TIP3    H213480   4.484   6.119   2.632 -0.3718 -0.9179 -0.5822
 4513TIP3   OH213481   2.719   5.667   2.895 -0.1483  0.5107 -0.1963
 4513TIP3    H113482   2.727   5.752   2.852 -0.7604  0.8318  0.3195
 4513TIP3    H213483   2.651   5.680   2.961 -0.8642 -0.6137 -0.6914
 4514TIP3   OH213484   4.997   6.919   0.730 -0.6781  0.1179 -0.1907
 4514TIP3    H113485   4.921   6.939   0.676  0.2965  2.1865 -0.8670
 4514TIP3    H213486   5.062   6.984   0.704  1.2209 -1.4183  0.5837
 4515TIP3   OH213487   4.858   6.021   3.299 -0.7959 -0.2927  0.2516
 4515TIP3    H113488   4.848   6.108   3.337  0.0440 -0.9323  1.9907
 4515TIP3    H213489   4.949   5.997   3.318 -0.8971 -1.3836 -0.5847
 4516TIP3   OH213490   3.833   4.977   4.268 -0.2320 -0.1683 -0.4760
 4516TIP3    H113491   3.869   5.043   4.328  0.0569  1.2913 -2.2101
 4516TIP3    H213492   3.797   4.910   4.325  0.6104  0.8811  1.3341
 4517TIP3   OH213493   2.944   6.592   2.529 -0.4818 -0.2043 -0.3176
 4517TIP3    H113494   2.913   6.672   2.486 -2.3557 -1.6381 -1.7406
 4517TIP3    H213495   3.025   6.570   2.483  0.4862  1.2697  0.6156
 4518TIP3   OH213496   4.761   6.981   5.236 -0.2580  0.2734 -0.1084
 4518TIP3    H113497   4.680   6.942   5.268  0.1866 -0.8823 -0.3721
 4518TIP3    H213498   4.822   6.907   5.229 -0.2602  0.5052 -3.3711
 4519TIP3   OH213499   4.848   0.223   1.059 -0.1041  0.1771  0.0533
 4519TIP3    H113500   4.835   0.312   1.028 -0.7965  0.4918  1.2336
 4519TIP3    H213501   4.858   0.231   1.154  1.6939 -0.7960 -0.0167
 4520TIP3   OH213502   3.474   6.972   0.052 -0.0745 -0.1635 -0.0665
 4520TIP3    H113503   3.546   7.001   0.108  0.8202  0.2979 -1.4147
 4520TIP3    H213504   3.408   7.041   0.059  0.3363  0.2375 -0.1249
 4521TIP3   OH213505   3.329   4.303   2.547  0.0335  0.2250 -0.2524
 4521TIP3    H113506   3.283   4.381   2.578 -0.7635 -0.2142 -0.3019
 4521TIP3    H213507   3.422   4.323   2.559 -0.1424  1.3226 -0.5962
 4522TIP3   OH213508   3.522   5.945   1.336 -0.4225 -0.3736  0.5847
 4522TIP3    H113509   3.558   5.982   1.255 -2.4146  1.1013  0.3604
 4522TIP3    H213510   3.593   5.955   1.400  0.9921 -1.0863 -0.8194
 4523TIP3   OH213511   3.692   6.486   0.395  0.1103  0.1377 -0.5565
 4523TIP3    H113512   3.681   6.459   0.487  2.1932  1.2714  0.0572
 4523TIP3    H213513   3.739   6.569   0.400 -3.1984  2.2376 -2.5519
 4524TIP3   OH213514   3.029   4.595   1.505  0.7090 -0.2447  0.1382
 4524TIP3    H113515   3.079   4.639   1.573  0.2801 -0.8887  0.8735
 4524TIP3    H213516   2.938   4.616   1.525  0.5618 -0.6892 -0.0610
 4525TIP3   OH213517   6.302   7.281   4.329  0.1578  0.2149 -0.3686
 4525TIP3    H113518   6.266   7.231   4.402  0.1159  1.2671  0.3385
 4525TIP3    H213519   6.236   7.349   4.312 -1.0419 -1.5164 -3.0304
 4526TIP3   OH213520   3.806   5.739   1.230  0.5571 -0.2423  0.3163
 4526TIP3    H113521   3.835   5.830   1.230  0.2078 -0.1200 -0.8701
 4526TIP3    H213522   3.773   5.724   1.141 -3.1503 -0.3323  1.6220
 4527TIP3   OH213523   3.306   6.536   3.037  0.4069  0.4930  0.1809
 4527TIP3    H113524   3.368   6.604   3.064 -1.4169  1.7266  1.3561
 4527TIP3    H213525   3.223   6.582   3.027 -0.4972 -1.2800 -0.5863
 4528TIP3   OH213526   6.715   6.330   5.302  0.2413  0.1809 -0.0015
 4528TIP3    H113527   6.713   6.349   5.208  3.3186 -2.7158 -0.7334
 4528TIP3    H213528   6.688   6.239   5.308  0.7985  0.1329  1.8911
 4529TIP3   OH213529   3.746   7.930   3.186 -0.3004  0.6044 -0.7119
 4529TIP3    H113530   3.698   8.013   3.183 -0.5055  0.5436  0.4654
 4529TIP3    H213531   3.679   7.863   3.174 -0.4239  0.5430  0.2899
 4530TIP3   OH213532   3.818   8.005   4.821 -0.2644 -0.2268  0.0771
 4530TIP3    H113533   3.883   7.937   4.806  0.5472  0.6410 -0.4262
 4530TIP3    H213534   3.817   8.017   4.916 -1.7099 -2.1829  0.3119
 4531TIP3   OH213535   1.946   6.975   1.176  0.4648  0.4297  0.2560
 4531TIP3    H113536   1.857   6.940   1.189 -0.1407  1.1172 -1.8283
 4531TIP3    H213537   1.935   7.047   1.115  2.2696  1.6368  1.3061
 4532TIP3   OH213538   4.629   6.662   4.083  0.6725 -0.0469  0.4133
 4532TIP3    H113539   4.616   6.569   4.064  2.2254 -0.5813  1.9145
 4532TIP3    H213540   4.597   6.707   4.004  1.6226 -1.9242 -1.0822
 4533TIP3   OH213541   2.706   6.978   2.884  0.3138  0.3583 -0.7923
 4533TIP3    H113542   2.628   7.014   2.925 -0.6499 -1.9732 -0.4841
 4533TIP3    H213543   2.779   7.012   2.936 -0.7039  0.0978  0.8418
 4534TIP3   OH213544   3.290   6.082   3.058 -0.3160 -0.5990 -0.5369
 4534TIP3    H113545   3.209   6.051   3.097  0.0171 -1.1531 -0.2854
 4534TIP3    H213546   3.355   6.016   3.080  0.6965  0.9051  1.1066
 4535TIP3   OH213547   0.876   5.860   3.581 -0.2098 -0.0320 -0.1335
 4535TIP3    H113548   0.853   5.922   3.650 -0.2484 -0.1597 -0.0307
 4535TIP3    H213549   0.879   5.775   3.626  0.8076  0.0247 -0.0711
 4536TIP3   OH213550   2.082   3.449   1.714 -0.6060 -0.1561  0.3474
 4536TIP3    H113551   2.060   3.485   1.799  0.1222  0.4571  0.2905
 4536TIP3    H213552   2.057   3.518   1.652 -0.9556 -0.5195  0.0849
 4537TIP3   OH213553   2.200   6.262   4.510  0.4480  0.4353 -0.0062
 4537TIP3    H113554   2.204   6.168   4.494 -1.2802  0.3649 -0.2016
 4537TIP3    H213555   2.272   6.280   4.569  0.0392 -1.2307  1.0358
 4538TIP3   OH213556   0.187   2.478   6.335  0.6347  0.3480  0.6436
 4538TIP3    H113557   0.210   2.528   6.413  1.3629  0.2961  0.4656
 4538TIP3    H213558   0.237   2.520   6.265  0.7579 -0.2405  0.3823
 4539TIP3   OH213559   5.252   0.618   3.332  0.0413  0.2557  0.3058
 4539TIP3    H113560   5.214   0.554   3.392 -0.1634 -0.4432 -0.5528
 4539TIP3    H213561   5.327   0.573   3.294 -0.1362  0.5038 -0.3490
 4540TIP3   OH213562   3.888   3.914   1.959 -0.0672  0.9429 -0.2207
 4540TIP3    H113563   3.927   3.916   2.047  0.1939 -0.8375 -0.2854
 4540TIP3    H213564   3.835   3.994   1.955  1.3600  1.9709  0.8866
 4541TIP3   OH213565   2.495   6.445   2.011  0.0616  0.4475 -0.0352
 4541TIP3    H113566   2.446   6.431   2.092  0.8603 -0.7906  0.2434
 4541TIP3    H213567   2.567   6.382   2.015 -0.2214 -0.0214 -1.9704
 4542TIP3   OH213568   5.483   7.879   0.526  0.2758 -0.2798  0.4285
 4542TIP3    H113569   5.550   7.838   0.471 -0.3540 -0.6890 -0.0466
 4542TIP3    H213570   5.483   7.828   0.606  0.6423 -0.1820  0.4922
 4543TIP3   OH213571   0.714   6.169   2.483  0.2115 -0.9521 -0.2286
 4543TIP3    H113572   0.694   6.096   2.425  0.9145 -0.2392 -1.3788
 4543TIP3    H213573   0.784   6.136   2.540  0.2918 -1.2766 -0.5157
 4544TIP3   OH213574   4.015   4.383   1.888 -0.6837 -0.0075  0.3800
 4544TIP3    H113575   3.925   4.415   1.899 -0.4157  0.4836  1.1939
 4544TIP3    H213576   4.038   4.408   1.798 -0.2191  2.8225  1.2341
 4545TIP3   OH213577   3.457   7.314   2.240 -0.3224 -0.4699 -0.2109
 4545TIP3    H113578   3.384   7.363   2.279  0.2511  0.7669 -0.6646
 4545TIP3    H213579   3.437   7.222   2.259 -1.4768 -0.0737  0.5547
 4546TIP3   OH213580   3.029   5.795   0.442  0.0761 -0.0969 -0.0827
 4546TIP3    H113581   2.979   5.787   0.523  1.5807 -1.1588  0.7656
 4546TIP3    H213582   2.985   5.735   0.380 -0.4002 -0.1320  0.2866
 4547TIP3   OH213583   3.947   7.254   1.314  0.6867  0.2195 -0.4827
 4547TIP3    H113584   3.875   7.205   1.274 -0.4890  1.8246 -0.4055
 4547TIP3    H213585   3.975   7.199   1.388 -1.6650  0.3736  0.5809
 4548TIP3   OH213586   4.872   7.081   1.813 -0.2405  0.5106  0.4521
 4548TIP3    H113587   4.950   7.134   1.830 -0.5602  1.5962 -1.3384
 4548TIP3    H213588   4.887   7.000   1.862  1.9763  0.7589  0.2371
 4549TIP3   OH213589   5.005   6.329   1.914  0.1776  0.4926  0.4283
 4549TIP3    H113590   4.936   6.268   1.943  0.5813 -0.1495  0.0668
 4549TIP3    H213591   4.957   6.408   1.887 -0.4096  0.1157  0.3400
 4550TIP3   OH213592   5.451   4.930   3.409 -0.5955  0.1078  0.6051
 4550TIP3    H113593   5.504   4.885   3.475  0.4993  0.0785 -0.2863
 4550TIP3    H213594   5.514   4.960   3.344 -1.8227 -1.2369 -1.2482
 4551TIP3   OH213595   4.339   4.420   3.474  0.3120  0.0403  0.0380
 4551TIP3    H113596   4.267   4.445   3.532 -0.3439 -0.2523 -0.6322
 4551TIP3    H213597   4.297   4.405   3.389  1.1501 -0.2433 -0.3355
 4552TIP3   OH213598   2.718   6.352   2.967 -0.3111  0.0252 -0.0761
 4552TIP3    H113599   2.685   6.364   2.878  0.2483  1.6364 -0.0919
 4552TIP3    H213600   2.649   6.386   3.024 -0.4122 -0.4309  0.0741
 4553TIP3   OH213601   1.656   4.543   3.548  0.2868 -0.4534 -0.2842
 4553TIP3    H113602   1.566   4.512   3.538 -0.4748  0.8924  2.1329
 4553TIP3    H213603   1.703   4.469   3.587 -0.2547 -0.4489  0.3813
 4554TIP3   OH213604   4.485   6.461   4.391 -0.3147 -0.9844 -0.1374
 4554TIP3    H113605   4.398   6.502   4.391  0.3842  0.5456  1.1039
 4554TIP3    H213606   4.484   6.404   4.314 -2.0859 -0.2895 -0.6714
 4555TIP3   OH213607   4.536   5.381   2.812  0.0072 -0.0427 -0.2757
 4555TIP3    H113608   4.512   5.421   2.896 -1.8189  1.8533 -1.6316
 4555TIP3    H213609   4.570   5.454   2.760  0.8574 -1.1392 -1.2615
 4556TIP3   OH213610   6.980   3.328   6.797  0.0407  0.4426 -0.0570
 4556TIP3    H113611   7.003   3.399   6.857  1.4842  1.1945 -1.4695
 4556TIP3    H213612   7.058   3.316   6.742  0.0083 -2.5461  0.4438
 4557TIP3   OH213613   6.379   4.114   2.518  0.0061 -0.0629  0.0469
 4557TIP3    H113614   6.313   4.184   2.513  0.8842  0.7555 -0.4221
 4557TIP3    H213615   6.340   4.049   2.576 -2.4361 -0.9264 -2.4514
 4558TIP3   OH213616   2.482   6.707   3.128  0.4117  0.6493  0.4384
 4558TIP3    H113617   2.507   6.794   3.161  0.2969  1.0780 -0.5956
 4558TIP3    H213618   2.431   6.725   3.049  0.5022 -0.3660  0.1438
 4559TIP3   OH213619   4.443   4.342   2.369 -0.3015  0.3054  0.0539
 4559TIP3    H113620   4.428   4.331   2.275 -0.0198  0.1372  0.0281
 4559TIP3    H213621   4.537   4.356   2.376 -0.5431  1.9803  0.1537
 4560TIP3   OH213622   2.708   4.777   2.377 -0.7545  0.3423 -0.0128
 4560TIP3    H113623   2.621   4.818   2.381 -0.6760  0.5750 -0.6542
 4560TIP3    H213624   2.761   4.837   2.325 -0.3355 -0.0379 -0.0305
 4561TIP3   OH213625   4.093   5.746   3.585 -0.1873 -0.3220 -0.4497
 4561TIP3    H113626   4.123   5.770   3.672  0.0884  0.8825 -0.8655
 4561TIP3    H213627   4.063   5.655   3.593  1.8689 -0.9390  0.3881
 4562TIP3   OH213628   4.810   6.569   3.346 -0.4448 -0.3459  0.1035
 4562TIP3    H113629   4.762   6.611   3.274 -0.7247  0.5827  0.8182
 4562TIP3    H213630   4.886   6.626   3.359 -0.4975 -0.4051  0.6667
 4563TIP3   OH213631   3.594   6.439   3.844  0.0030  0.1118  0.2278
 4563TIP3    H113632   3.630   6.394   3.768  0.8381  0.5402  0.3675
 4563TIP3    H213633   3.555   6.369   3.897  2.1814 -0.5953  0.9363
 4564TIP3   OH213634   2.492   6.294   0.664  0.0668 -0.0338 -0.2204
 4564TIP3    H113635   2.445   6.291   0.747 -0.3896  0.4970 -0.4478
 4564TIP3    H213636   2.465   6.214   0.618 -1.4726  0.7705 -0.7837
 4565TIP3   OH213637   1.781   5.499   5.306  0.5658  0.5029 -0.5068
 4565TIP3    H113638   1.701   5.487   5.254  0.3013 -2.4418  0.5368
 4565TIP3    H213639   1.755   5.560   5.375 -0.3917  0.6618 -1.0019
 4566TIP3   OH213640   2.140   4.622   1.753  0.1035 -0.3953 -0.4801
 4566TIP3    H113641   2.196   4.680   1.701  2.6114 -1.8023  0.5592
 4566TIP3    H213642   2.051   4.654   1.737  1.3682  3.5700 -0.1156
 4567TIP3   OH213643   3.796   6.278   1.046  0.1180 -0.3966  0.0874
 4567TIP3    H113644   3.849   6.308   0.972 -1.1902 -1.0326 -1.1245
 4567TIP3    H213645   3.711   6.320   1.032 -0.2763 -0.9067  0.9712
 4568TIP3   OH213646   4.699   4.217   2.619  0.2084 -1.0381 -0.4248
 4568TIP3    H113647   4.771   4.265   2.660 -1.1122  0.4593  0.2262
 4568TIP3    H213648   4.715   4.223   2.525  0.7356 -0.4156 -0.2949
 4569TIP3   OH213649   1.801   6.103   3.159 -0.0047  0.1564  0.3367
 4569TIP3    H113650   1.744   6.124   3.085 -0.7920 -1.1393  0.5602
 4569TIP3    H213651   1.742   6.067   3.225  1.1851 -2.2137  0.1571
 4570TIP3   OH213652   5.460   4.051   2.042  0.0407  0.7891 -0.3973
 4570TIP3    H113653   5.411   4.074   1.964  1.0778 -0.4533 -1.4461
 4570TIP3    H213654   5.538   4.006   2.009  0.8374  0.8558  1.3162
 4571TIP3   OH213655   4.113   5.387   0.868  0.1684  0.3053 -0.1434
 4571TIP3    H113656   4.111   5.301   0.826  0.9504  1.0062 -1.6425
 4571TIP3    H213657   4.029   5.394   0.913 -0.4573 -0.6804 -1.1393
 4572TIP3   OH213658   4.724   4.689   2.637  0.3231 -0.0050  0.2570
 4572TIP3    H113659   4.779   4.629   2.586 -0.6185 -0.8256  0.2124
 4572TIP3    H213660   4.685   4.635   2.705  0.4424  0.8094  0.9917
 4573TIP3   OH213661   3.232   6.793   2.377  0.3750  0.1251  0.5160
 4573TIP3    H113662   3.256   6.744   2.456  0.3866  0.1158  0.5063
 4573TIP3    H213663   3.303   6.776   2.316 -1.0144 -2.2260 -0.5407
 4574TIP3   OH213664   3.441   6.802   2.849 -0.0902 -0.2418 -0.1326
 4574TIP3    H113665   3.445   6.822   2.943 -0.6560 -1.2422  0.1132
 4574TIP3    H213666   3.528   6.824   2.816  0.5981 -1.3091  0.9260
 4575TIP3   OH213667   2.332   5.065   0.464 -0.3698 -0.5752 -0.0382
 4575TIP3    H113668   2.408   5.071   0.405  0.3294 -1.8202  0.7144
 4575TIP3    H213669   2.260   5.039   0.406  0.2103 -1.3402 -0.4364
 4576TIP3   OH213670   4.086   5.844   2.505 -0.1025 -0.6596 -0.3633
 4576TIP3    H113671   4.085   5.753   2.475  0.3707  0.0772 -2.7242
 4576TIP3    H213672   4.000   5.878   2.481  0.7552  0.3108 -2.2023
 4577TIP3   OH213673   2.648   3.486   2.098 -0.3594 -0.3805 -0.5905
 4577TIP3    H113674   2.704   3.532   2.036 -1.6181 -0.7550 -2.0496
 4577TIP3    H213675   2.662   3.531   2.182  1.1895  0.2786 -1.1932
 4578TIP3   OH213676   4.140   6.288   1.580  0.3939  0.0272 -0.7638
 4578TIP3    H113677   4.187   6.282   1.663  1.1788  1.5059 -1.0786
 4578TIP3    H213678   4.098   6.203   1.569 -0.3474  0.0803  1.5283
 4579TIP3   OH213679   5.060   5.338   2.538 -0.1115  0.3390 -0.0468
 4579TIP3    H113680   4.992   5.405   2.546 -0.9649 -0.5523  0.3731
 4579TIP3    H213681   5.015   5.256   2.560  0.3028 -0.7277 -2.9402
 4580TIP3   OH213682   3.226   5.026   2.762 -0.0068  0.5158  1.1097
 4580TIP3    H113683   3.142   5.052   2.724 -1.0968 -2.2801  1.4277
 4580TIP3    H213684   3.291   5.078   2.715 -1.6274 -0.0658 -1.9197
 4581TIP3   OH213685   4.313   4.397   0.318  0.1709  0.2623  0.0404
 4581TIP3    H113686   4.318   4.347   0.236  1.5460  0.7510 -0.1842
 4581TIP3    H213687   4.377   4.355   0.375  0.2737  0.8650  0.3631
 4582TIP3   OH213688   3.142   4.179   2.049 -0.0300 -0.5211  0.5427
 4582TIP3    H113689   3.230   4.170   2.012 -0.3934  1.1064 -0.8022
 4582TIP3    H213690   3.157   4.190   2.143  1.2147 -0.2725  0.3285
 4583TIP3   OH213691   4.670   6.647   1.935 -0.0844 -0.3494 -0.0117
 4583TIP3    H113692   4.606   6.712   1.907 -0.1241 -0.0405  0.8045
 4583TIP3    H213693   4.651   6.633   2.028  0.5729 -0.7802  0.0570
 4584TIP3   OH213694   4.324   7.020   1.485 -0.1953  0.5718 -0.3295
 4584TIP3    H113695   4.387   7.036   1.556  0.2086 -1.5661 -0.1652
 4584TIP3    H213696   4.327   7.100   1.432  1.7945  0.9820  0.3351
 4585TIP3   OH213697   3.489   5.183   2.230 -0.6399  0.5834  0.3090
 4585TIP3    H113698   3.550   5.256   2.234 -0.1824  0.2264 -0.0984
 4585TIP3    H213699   3.440   5.197   2.149 -1.3000  1.0247  0.7789
 4586TIP3   OH213700   1.556   5.246   3.948  0.3366 -0.1515  0.2425
 4586TIP3    H113701   1.603   5.187   3.889 -0.8508  0.3324 -1.2305
 4586TIP3    H213702   1.615   5.320   3.960  0.7844 -0.4747  0.0330
 4587TIP3   OH213703   4.842   5.354   3.191  0.6943  0.2209 -0.2844
 4587TIP3    H113704   4.763   5.300   3.196  0.0407  1.3053  1.4906
 4587TIP3    H213705   4.914   5.291   3.200 -0.0289 -0.4633  0.8372
 4588TIP3   OH213706   4.014   6.554   1.008 -0.2645 -0.3187 -0.2432
 4588TIP3    H113707   4.093   6.608   1.014 -0.1197 -0.4269 -1.1193
 4588TIP3    H213708   4.047   6.468   0.983 -0.5400 -0.7008  0.6825
 4589TIP3   OH213709   4.444   6.040   2.236 -0.0740  0.3041  0.1710
 4589TIP3    H113710   4.445   6.109   2.302 -0.2556  0.0907  0.3977
 4589TIP3    H213711   4.533   6.003   2.238 -0.2610 -0.1235  0.7424
 4590TIP3   OH213712   5.844   4.819   1.501 -0.0683 -0.0256 -0.0074
 4590TIP3    H113713   5.805   4.847   1.583 -1.8518  0.0931 -0.8860
 4590TIP3    H213714   5.840   4.724   1.503 -1.2964  0.0087 -0.5134
 4591TIP3   OH213715   4.046   5.496   0.315  0.2418  0.0866  0.1362
 4591TIP3    H113716   4.034   5.557   0.242 -0.6327  0.7002  0.7868
 4591TIP3    H213717   4.103   5.428   0.279  1.6634  1.5445 -0.4521
 4592TIP3   OH213718   3.735   6.228   1.362  0.2302  0.5075  0.7176
 4592TIP3    H113719   3.701   6.178   1.436 -0.9654 -0.6007 -0.5419
 4592TIP3    H213720   3.797   6.169   1.319  2.7857  2.0379  2.2239
 4593TIP3   OH213721   2.116   6.556   2.326 -0.2083 -0.2923  0.1437
 4593TIP3    H113722   2.185   6.554   2.392 -1.3481 -2.4993  1.3010
 4593TIP3    H213723   2.163   6.568   2.243  1.3114  1.3089  1.2043
 4594TIP3   OH213724   3.882   7.870   1.462 -0.2392  0.4888 -0.3962
 4594TIP3    H113725   3.965   7.907   1.432  0.6049  0.8477  2.2554
 4594TIP3    H213726   3.907   7.794   1.515 -1.7538 -1.0872 -1.8458
 4595TIP3   OH213727   2.849   7.331   0.968 -0.0920 -0.0563  0.7169
 4595TIP3    H113728   2.914   7.328   1.038 -1.3720  0.3619  1.9672
 4595TIP3    H213729   2.854   7.421   0.936 -0.4710  0.1557  1.2372
 4596TIP3   OH213730   4.408   7.957   1.392 -0.0030  0.1185 -0.1304
 4596TIP3    H113731   4.405   7.981   1.299 -3.1085  0.4100  0.0070
 4596TIP3    H213732   4.425   8.040   1.437 -0.2137  0.2696 -0.3267
 4597TIP3   OH213733   6.177   7.587   3.810  0.0063 -0.1581  0.0070
 4597TIP3    H113734   6.245   7.565   3.747  0.0849  2.1547 -0.7685
 4597TIP3    H213735   6.202   7.542   3.891  1.0487 -1.4036 -1.0059
 4598TIP3   OH213736   1.568   4.178   5.994  0.3327 -0.4235 -0.1788
 4598TIP3    H113737   1.557   4.085   6.014 -1.1613 -0.2470 -0.1302
 4598TIP3    H213738   1.583   4.219   6.079  0.4502 -0.5488 -0.1385
 4599TIP3   OH213739   3.098   5.862   2.598 -0.1227  0.1856 -0.0931
 4599TIP3    H113740   3.074   5.889   2.687  1.1300 -0.1269  0.3435
 4599TIP3    H213741   3.053   5.778   2.586  0.9026 -0.5165  0.8158
 4600TIP3   OH213742   5.102   7.123   1.602 -0.2132 -0.3835 -0.2468
 4600TIP3    H113743   5.025   7.180   1.609  0.2711 -0.0232  2.3119
 4600TIP3    H213744   5.065   7.035   1.590 -0.9994  0.0002 -0.6795
 4601TIP3   OH213745   2.631   5.336   4.480 -0.8344 -0.2205  0.3673
 4601TIP3    H113746   2.654   5.408   4.538  0.4148 -1.4937  1.4882
 4601TIP3    H213747   2.714   5.290   4.465 -1.4009 -0.7677 -1.2632
 4602TIP3   OH213748   4.720   7.535   1.629  0.2540  0.4127 -0.1627
 4602TIP3    H113749   4.627   7.552   1.645  0.3665  0.6277  0.2746
 4602TIP3    H213750   4.753   7.505   1.714  0.5237  0.0775 -0.3882
 4603TIP3   OH213751   1.023   6.033   1.614 -0.0133  0.1589 -0.6928
 4603TIP3    H113752   1.022   6.087   1.535  0.1859  0.1676 -0.6881
 4603TIP3    H213753   0.940   5.985   1.611 -0.5046  0.9738 -0.3492
 4604TIP3   OH213754   2.471   7.100   2.313 -0.4454  0.0402  0.2177
 4604TIP3    H113755   2.447   7.038   2.244  1.2656  1.6021 -1.8531
 4604TIP3    H213756   2.561   7.077   2.335 -0.1571  1.1215  0.1820
 4605TIP3   OH213757   4.913   5.294   3.540  0.0760 -0.3611 -0.0541
 4605TIP3    H113758   4.833   5.312   3.590  0.1967 -0.9196  0.3424
 4605TIP3    H213759   4.890   5.221   3.483 -0.0419  0.2355 -0.7780
 4606TIP3   OH213760   3.266   4.112   2.820  0.5759  0.1491  0.3549
 4606TIP3    H113761   3.273   4.159   2.737  2.3454 -1.3387 -0.3911
 4606TIP3    H213762   3.355   4.115   2.857  0.2991 -1.0241  1.1670
 4607TIP3   OH213763   5.574   6.523   2.648  0.0558 -0.0721  0.0119
 4607TIP3    H113764   5.569   6.433   2.678 -1.4599  0.6312  1.9220
 4607TIP3    H213765   5.564   6.576   2.727 -0.6060  1.7865 -1.2783
 4608TIP3   OH213766   5.059   3.759   2.070 -0.4985  0.6351 -0.0647
 4608TIP3    H113767   5.116   3.757   2.148 -1.3337  0.9461  0.5649
 4608TIP3    H213768   5.120   3.767   1.997  0.3818 -0.8979  0.4605
 4609TIP3   OH213769   4.759   1.615   1.450  0.4380 -0.3193  0.4358
 4609TIP3    H113770   4.798   1.528   1.438  0.6665 -0.2502  0.6869
 4609TIP3    H213771   4.764   1.655   1.363 -0.5056 -0.8999  0.1006
 4610TIP3   OH213772   4.440   4.437   1.368 -0.1790  0.2307  0.6546
 4610TIP3    H113773   4.463   4.470   1.281 -1.4634  2.3008  1.0680
 4610TIP3    H213774   4.381   4.363   1.352  1.2674 -0.7548 -0.2486
 4611TIP3   OH213775   3.333   5.821   3.698  0.2268 -0.6362 -0.5769
 4611TIP3    H113776   3.253   5.817   3.750  2.0669  0.0268  2.4221
 4611TIP3    H213777   3.325   5.749   3.636 -2.1293 -1.3637  0.5217
 4612TIP3   OH213778   2.836   7.086   0.835 -0.5955 -0.1698  0.1447
 4612TIP3    H113779   2.849   7.145   0.910  1.2287  1.7029 -1.5483
 4612TIP3    H213780   2.774   7.132   0.778  0.0741 -0.3222 -0.7264
 4613TIP3   OH213781   3.738   7.322   1.887  0.4022  0.0553  0.4396
 4613TIP3    H113782   3.730   7.343   1.794 -1.2335  2.3201  1.0311
 4613TIP3    H213783   3.712   7.230   1.894 -2.4290  0.7051 -0.9571
 4614TIP3   OH213784   5.335   1.103   6.503 -0.2624  0.1441  0.4448
 4614TIP3    H113785   5.270   1.128   6.568  0.0782  2.6846 -0.0967
 4614TIP3    H213786   5.398   1.049   6.550 -1.8930 -0.9625  1.3560
 4615TIP3   OH213787   4.738   4.918   1.540  0.1450 -0.1393 -0.4359
 4615TIP3    H113788   4.799   4.971   1.488 -1.3198  0.2032 -1.8475
 4615TIP3    H213789   4.653   4.930   1.497 -1.2816  0.8151  2.5537
 4616TIP3   OH213790   2.909   4.545   3.424 -0.2915  0.4529  0.3667
 4616TIP3    H113791   2.999   4.557   3.392  0.0514  0.2365  1.2231
 4616TIP3    H213792   2.854   4.557   3.347  0.4887  0.4152 -0.2031
 4617TIP3   OH213793   1.024   6.388   1.050  0.8096 -0.0146  0.1346
 4617TIP3    H113794   0.952   6.402   1.111 -0.9940 -0.5723 -1.7863
 4617TIP3    H213795   1.062   6.475   1.036 -1.2936  0.7639 -0.9589
 4618TIP3   OH213796   5.083   4.779   1.621  0.2292 -0.1305  0.2610
 4618TIP3    H113797   4.993   4.752   1.601  0.0570  0.8210 -0.2680
 4618TIP3    H213798   5.075   4.838   1.695  0.1753  1.7483 -1.2114
 4619TIP3   OH213799   3.478   6.265   3.533 -0.4179 -0.3178  0.0079
 4619TIP3    H113800   3.520   6.221   3.459 -0.4785 -2.3527  1.1444
 4619TIP3    H213801   3.507   6.356   3.526  1.0582 -0.8716 -1.4595
 4620TIP3   OH213802   5.158   5.929   3.292 -0.4069  0.0545 -0.4462
 4620TIP3    H113803   5.129   5.849   3.248  1.3452 -1.2790  0.7669
 4620TIP3    H213804   5.249   5.940   3.265 -0.6961  1.7684 -0.7611
 4621TIP3   OH213805   3.811   7.291   3.410  0.0233  0.1784 -0.2904
 4621TIP3    H113806   3.810   7.238   3.490  0.5926 -0.7217 -0.8764
 4621TIP3    H213807   3.853   7.373   3.437  2.6175 -1.1156 -0.2634
 4622TIP3   OH213808   4.409   6.671   6.335  0.2688  0.3665  0.4358
 4622TIP3    H113809   4.429   6.763   6.349  0.2124  0.3719  0.4819
 4622TIP3    H213810   4.492   6.633   6.305  0.2308  0.4822  0.1787
 4623TIP3   OH213811   3.908   5.990   4.702 -0.0176 -0.0461 -0.2338
 4623TIP3    H113812   3.877   6.013   4.615 -2.3866  0.9655  0.8287
 4623TIP3    H213813   3.842   6.026   4.761  1.7446 -0.3741  2.0054
 4624TIP3   OH213814   3.819   5.454   1.921 -0.3690  0.1700  0.2685
 4624TIP3    H113815   3.771   5.526   1.964  0.6237  1.3496 -0.5777
 4624TIP3    H213816   3.856   5.404   1.994  0.9292  1.9031  0.8512
 4625TIP3   OH213817   3.132   6.489   2.745 -0.3197 -0.1175 -0.4497
 4625TIP3    H113818   3.041   6.517   2.746 -0.1767  0.3651  2.0621
 4625TIP3    H213819   3.139   6.423   2.814  1.0273 -0.8630 -1.2622
 4626TIP3   OH213820   3.946   7.475   0.617 -0.4268  0.1910 -0.6851
 4626TIP3    H113821   3.987   7.412   0.557 -0.9106 -0.0746 -0.7334
 4626TIP3    H213822   3.853   7.457   0.612 -0.2533 -2.0444  2.6060
 4627TIP3   OH213823   2.864   5.390   4.235  0.6294 -0.4472 -0.0858
 4627TIP3    H113824   2.852   5.433   4.151  0.7782 -0.0786  0.0834
 4627TIP3    H213825   2.877   5.461   4.297 -1.7440 -0.5770  0.6294
 4628TIP3   OH213826   2.552   2.935   2.103 -0.3938  0.3387 -0.6471
 4628TIP3    H113827   2.486   2.869   2.122  0.1012  0.4473  1.5541
 4628TIP3    H213828   2.511   3.018   2.125 -0.0270  0.5236 -0.6551
 4629TIP3   OH213829   3.399   6.255   4.452 -0.5450 -0.1301  0.3113
 4629TIP3    H113830   3.434   6.166   4.453  0.5374  0.2808 -0.0784
 4629TIP3    H213831   3.466   6.308   4.496 -1.5374  0.3727  1.2529
 4630TIP3   OH213832   3.948   4.144   0.057 -0.0084 -0.3097 -0.5151
 4630TIP3    H113833   3.952   4.164  -0.037 -1.7558  1.6980 -0.2022
 4630TIP3    H213834   3.873   4.086   0.066 -1.1784  1.2316 -0.1084
 4631TIP3   OH213835   5.423   4.194   2.852  0.1772 -0.4926 -0.0304
 4631TIP3    H113836   5.347   4.138   2.835 -0.0050 -0.2708  0.0571
 4631TIP3    H213837   5.496   4.147   2.812  0.3687 -1.7974  1.7962
 4632TIP3   OH213838   6.895   0.565   3.546  0.4856 -0.4557 -0.0308
 4632TIP3    H113839   6.847   0.550   3.627 -0.5631  3.7550  0.2214
 4632TIP3    H213840   6.986   0.574   3.573  0.2209  0.3115  0.6034
 4633TIP3   OH213841   2.924   5.341   2.655  0.1694  0.5091 -0.8253
 4633TIP3    H113842   2.914   5.280   2.582 -3.3747  0.9486 -0.8020
 4633TIP3    H213843   2.921   5.285   2.733 -2.7787  0.6323 -0.8138
 4634TIP3   OH213844   3.214   4.963   5.046 -0.3465 -0.1558  0.8015
 4634TIP3    H113845   3.246   4.996   4.961  1.2113 -1.3800  0.8866
 4634TIP3    H213846   3.243   5.028   5.109  1.0051 -0.6610  0.7266
 4635TIP3   OH213847   3.618   5.956   0.707  0.4098  0.1475  0.2926
 4635TIP3    H113848   3.659   5.870   0.716 -1.4697 -0.9428 -1.2520
 4635TIP3    H213849   3.530   5.946   0.743  0.5802  1.7612  1.2217
 4636TIP3   OH213850   3.876   4.294   0.288 -0.2915  0.1904  0.3938
 4636TIP3    H113851   3.887   4.235   0.213  2.7377  2.0955 -0.7491
 4636TIP3    H213852   3.953   4.277   0.343  1.3832  3.9241 -0.6408
 4637TIP3   OH213853   4.847   7.919   1.496 -0.0412  0.9366 -0.0566
 4637TIP3    H113854   4.788   7.853   1.459  1.0816  1.3066 -2.6562
 4637TIP3    H213855   4.870   7.885   1.582 -0.5206 -1.4296 -0.8168
 4638TIP3   OH213856   3.461   5.884   3.129 -0.7804 -0.6216  0.1434
 4638TIP3    H113857   3.450   5.801   3.175 -1.6659 -0.0917  0.8990
 4638TIP3    H213858   3.510   5.861   3.050 -1.8628 -2.0359 -0.1531
 4639TIP3   OH213859   3.935   5.529   5.361 -0.1438  0.3168  0.0041
 4639TIP3    H113860   3.882   5.512   5.439 -1.7271  0.1242 -1.0739
 4639TIP3    H213861   3.938   5.445   5.316  0.9725  0.3675 -0.0119
 4640TIP3   OH213862   4.256   6.092   2.820 -0.4546  0.3763  0.7531
 4640TIP3    H113863   4.339   6.103   2.773 -0.3809  0.4914  0.9129
 4640TIP3    H213864   4.253   5.998   2.841 -2.0767 -0.3621 -2.4800
 4641TIP3   OH213865   4.160   5.042   3.726 -0.0100 -0.1366  0.6219
 4641TIP3    H113866   4.112   5.005   3.652  0.4716 -0.2379  0.3585
 4641TIP3    H213867   4.131   5.133   3.730 -1.7387 -0.7164  1.7160
 4642TIP3   OH213868   4.487   6.144   3.681  0.1607 -0.3037 -0.2289
 4642TIP3    H113869   4.508   6.080   3.613  1.2054  1.3103 -1.4819
 4642TIP3    H213870   4.572   6.177   3.709 -0.3041 -0.3932  1.3371
 4643TIP3   OH213871   4.882   7.123   3.721  0.4858  0.4237  0.5631
 4643TIP3    H113872   4.955   7.171   3.682  1.0817  1.2584  2.6341
 4643TIP3    H213873   4.918   7.036   3.741  0.2672  0.1006 -0.3846
 4644TIP3   OH213874   5.053   5.148   4.067  0.3706  0.2795  0.1047
 4644TIP3    H113875   4.997   5.106   4.132  1.7233 -0.6925  0.6689
 4644TIP3    H213876   5.008   5.230   4.046 -1.8277 -0.9951 -0.3106
 4645TIP3   OH213877   2.135   6.162   2.868  0.0051  0.2138  0.4609
 4645TIP3    H113878   2.091   6.228   2.922  1.3027  1.3711  0.1082
 4645TIP3    H213879   2.122   6.080   2.916 -0.2174  0.9706  1.7187
 4646TIP3   OH213880   2.744   5.365   1.202 -0.2067  0.0640  0.6302
 4646TIP3    H113881   2.792   5.286   1.179  0.4959  0.0635  2.1005
 4646TIP3    H213882   2.653   5.345   1.181  0.4334  0.1940 -2.5317
 4647TIP3   OH213883   4.542   6.308   4.591 -0.0634 -0.4009  0.4755
 4647TIP3    H113884   4.543   6.367   4.515 -1.2811  0.3093  0.9826
 4647TIP3    H213885   4.634   6.296   4.614  0.2770  0.0171 -0.6186
 4648TIP3   OH213886   3.191   5.821   4.629  0.2519  0.2164  0.1861
 4648TIP3    H113887   3.129   5.779   4.568 -0.3125  0.2552  0.7261
 4648TIP3    H213888   3.208   5.754   4.695 -2.1264  1.4152  2.1119
 4649TIP3   OH213889   2.722   5.613   1.364 -0.6498  0.0301 -0.2011
 4649TIP3    H113890   2.735   5.536   1.309 -3.7596 -0.3757 -0.3991
 4649TIP3    H213891   2.741   5.583   1.453  1.3496 -0.0730 -0.6202
 4650TIP3   OH213892   5.499   5.491   2.567 -0.1766 -0.2997  0.4898
 4650TIP3    H113893   5.452   5.554   2.513 -0.1862  1.1745  2.1831
 4650TIP3    H213894   5.555   5.443   2.506 -0.4545  1.0962 -0.8636
 4651TIP3   OH213895   3.057   7.108   1.551 -0.0726  0.0558  0.4958
 4651TIP3    H113896   2.989   7.062   1.503  1.0612 -0.5857 -0.5246
 4651TIP3    H213897   3.138   7.064   1.526  0.7229  0.7956  1.6997
 4652TIP3   OH213898   2.949   6.835   1.360  0.0079 -0.4692 -0.0606
 4652TIP3    H113899   2.905   6.756   1.329  0.4126 -0.1639 -1.4660
 4652TIP3    H213900   2.892   6.870   1.427  0.7074 -2.9530  1.9044
 4653TIP3   OH213901   7.416   2.768   6.381  0.1043 -0.1985  0.2048
 4653TIP3    H113902   7.476   2.753   6.453  0.7912 -2.3859 -0.7724
 4653TIP3    H213903   7.356   2.836   6.413  1.4743  0.1298  2.1466
 4654TIP3   OH213904   6.775   0.107   2.620  0.3420 -0.1110 -0.4689
 4654TIP3    H113905   6.852   0.064   2.582  1.1779 -0.2683  1.3574
 4654TIP3    H213906   6.721   0.036   2.654 -0.8910 -0.0379 -2.1925
 4655TIP3   OH213907   4.832   6.971   1.218  0.8997  0.5873 -0.2839
 4655TIP3    H113908   4.857   6.916   1.144  1.9071 -0.0921  0.5451
 4655TIP3    H213909   4.738   6.960   1.226  0.9400 -0.1672 -0.7972
 4656TIP3   OH213910   7.093   0.240   4.747 -0.0307 -0.2474 -0.2379
 4656TIP3    H113911   7.120   0.331   4.752  0.2838 -0.3326 -0.3876
 4656TIP3    H213912   6.997   0.243   4.746 -0.0367  0.0312  0.6907
 4657TIP3   OH213913   5.474   5.926   3.293  0.3251 -0.2726  0.3163
 4657TIP3    H113914   5.531   5.985   3.244 -1.6707  0.4749 -1.1941
 4657TIP3    H213915   5.458   5.853   3.233 -0.9696 -0.0548  0.3741
 4658TIP3   OH213916   0.511   2.579   6.557  0.2074  0.4155 -0.3120
 4658TIP3    H113917   0.533   2.488   6.578  0.8938  0.2823 -1.5843
 4658TIP3    H213918   0.577   2.606   6.493 -1.0737  1.2278 -1.3179
 4659TIP3   OH213919   6.074   4.847   0.428  0.0085 -0.1321  0.0715
 4659TIP3    H113920   6.028   4.827   0.509  0.1956  1.5445  0.6293
 4659TIP3    H213921   6.166   4.851   0.453  0.1957 -0.9206 -0.4960
 4660TIP3   OH213922   4.721   6.525   0.626  0.0521  0.2923 -0.3175
 4660TIP3    H113923   4.785   6.534   0.555  0.6501  0.5349  0.2468
 4660TIP3    H213924   4.691   6.614   0.643 -0.2705  0.2046 -0.4355
 4661TIP3   OH213925   3.982   6.753   2.527 -0.3887 -0.6752  0.0817
 4661TIP3    H113926   3.984   6.813   2.601 -0.4551 -0.1509 -0.3333
 4661TIP3    H213927   3.901   6.776   2.480 -0.0325 -0.5790 -0.4915
 4662TIP3   OH213928   2.958   6.062   2.425 -0.2186 -0.3479  0.1083
 4662TIP3    H113929   3.011   5.986   2.447 -0.8608 -0.7814  0.1611
 4662TIP3    H213930   2.969   6.121   2.499  1.2156  0.1159 -0.4659
 4663TIP3   OH213931   4.612   3.350   1.096  0.3431  0.0170  0.4687
 4663TIP3    H113932   4.661   3.420   1.139  0.1138 -0.6373  1.8267
 4663TIP3    H213933   4.526   3.353   1.136 -0.3420  0.3152 -0.9915
 4664TIP3   OH213934   4.252   7.728   0.998 -0.2603  0.3897 -0.3774
 4664TIP3    H113935   4.183   7.662   1.003 -0.3115  0.4465 -0.3305
 4664TIP3    H213936   4.309   7.710   1.073  1.1408 -1.1927 -1.7832
 4665TIP3   OH213937   3.113   3.588   3.209 -0.3800 -0.0126 -0.1830
 4665TIP3    H113938   3.108   3.588   3.114  1.0136  1.1791 -0.2745
 4665TIP3    H213939   3.096   3.679   3.234 -0.9261 -0.3523  0.7238
 4666TIP3   OH213940   6.252   5.823   5.140  0.0481  0.4653  0.3323
 4666TIP3    H113941   6.213   5.910   5.135  1.5350  1.1101 -0.3540
 4666TIP3    H213942   6.244   5.788   5.051 -0.2494  0.0234  0.5295
 4667TIP3   OH213943   4.269   4.843   4.606 -0.2002  0.3598 -0.2828
 4667TIP3    H113944   4.351   4.878   4.640 -0.7328  0.7831  0.6033
 4667TIP3    H213945   4.285   4.749   4.595 -0.2424  0.0672  1.9050
 4668TIP3   OH213946   4.331   6.060   4.081 -0.5992 -0.3052  0.4410
 4668TIP3    H113947   4.379   6.133   4.120 -1.0817  0.3692 -0.2219
 4668TIP3    H213948   4.399   5.998   4.054 -0.2008 -0.1673  1.1271
 4669TIP3   OH213949   5.057   6.562   2.085 -0.1077 -0.1667  0.4352
 4669TIP3    H113950   5.059   6.466   2.083 -1.8057 -0.2251  0.6414
 4669TIP3    H213951   5.020   6.583   2.171 -2.3282  0.5913 -0.6625
 4670TIP3   OH213952   4.578   4.921   1.301 -0.0333  0.5448  0.0352
 4670TIP3    H113953   4.575   5.013   1.274  0.4225  0.6384  0.3038
 4670TIP3    H213954   4.511   4.878   1.247  1.1012  0.6659 -1.5331
 4671TIP3   OH213955   4.305   6.414   2.655 -0.0155  0.2483 -0.5471
 4671TIP3    H113956   4.247   6.348   2.694  1.9390 -0.8587  0.5863
 4671TIP3    H213957   4.270   6.497   2.685 -0.5591 -0.4296  0.7403
 4672TIP3   OH213958   4.835   5.693   4.474  0.0095  0.0528 -0.1228
 4672TIP3    H113959   4.786   5.616   4.445  0.4555  0.9459 -3.4679
 4672TIP3    H213960   4.898   5.658   4.538 -1.1823 -2.0115 -0.0308
 4673TIP3   OH213961   4.851   6.491   1.104 -0.0030  0.7533  0.2504
 4673TIP3    H113962   4.905   6.462   1.030  2.3352  2.6805  1.1344
 4673TIP3    H213963   4.763   6.500   1.067  0.5386 -1.1263 -1.5778
 4674TIP3   OH213964   3.931   7.360   0.876 -0.0501  0.2798  0.9691
 4674TIP3    H113965   3.841   7.328   0.872 -0.1488  0.5313  1.1546
 4674TIP3    H213966   3.938   7.422   0.803  0.4667 -0.9879 -0.0581
 4675TIP3   OH213967   2.831   5.900   3.469 -0.1136 -0.7151  0.4707
 4675TIP3    H113968   2.908   5.867   3.423 -1.1403 -0.3063 -1.5849
 4675TIP3    H213969   2.853   5.991   3.490 -0.2630 -0.4198 -0.6419
 4676TIP3   OH213970   8.478   4.551   2.596  0.4343 -0.2533 -0.8171
 4676TIP3    H113971   8.398   4.582   2.553  0.3053  0.8648  0.1896
 4676TIP3    H213972   8.452   4.471   2.641 -0.1838  0.2166 -0.3217
 4677TIP3   OH213973   4.361   6.884   2.514  0.5892 -0.2735 -0.8307
 4677TIP3    H113974   4.436   6.938   2.492 -0.3814  1.9369  1.0656
 4677TIP3    H213975   4.286   6.929   2.475 -0.0428 -1.0572 -0.5377
 4678TIP3   OH213976   5.307   5.308   1.993 -0.5827  0.5579  0.4121
 4678TIP3    H113977   5.275   5.398   2.005 -1.8210 -0.2140  3.2703
 4678TIP3    H213978   5.237   5.263   1.947  0.7682  1.4374 -2.6461
 4679TIP3   OH213979   2.067   3.036   1.233 -0.0679  0.2711 -0.6857
 4679TIP3    H113980   1.975   3.048   1.206 -0.2663  3.7906  1.3162
 4679TIP3    H213981   2.067   2.951   1.278 -2.4707  0.4713 -0.2090
 4680TIP3   OH213982   3.066   7.405   1.113 -0.0644 -0.3102 -0.1518
 4680TIP3    H113983   3.078   7.357   1.195 -1.2295  0.2570  0.3635
 4680TIP3    H213984   3.072   7.497   1.138  0.1879 -0.1497 -0.8061
 4681TIP3   OH213985   2.997   5.187   3.787 -0.2275  0.3424  0.4692
 4681TIP3    H113986   2.994   5.127   3.713 -0.9586 -0.2511  0.9685
 4681TIP3    H213987   3.081   5.170   3.829  0.4546  1.1065 -0.5647
 4682TIP3   OH213988   3.177   7.304   1.361 -0.1287  0.2408  0.2204
 4682TIP3    H113989   3.110   7.240   1.387 -1.5843  1.5030 -0.3215
 4682TIP3    H213990   3.242   7.252   1.313 -1.7382 -0.7038 -1.0174
 4683TIP3   OH213991   6.423   0.858   3.746  0.0702  0.1380  0.0118
 4683TIP3    H113992   6.417   0.951   3.770 -0.0007  0.3464 -0.7962
 4683TIP3    H213993   6.498   0.854   3.686 -0.1369 -0.2745 -0.2208
 4684TIP3   OH213994   4.110   6.110   3.136 -0.1731  0.1432 -0.7740
 4684TIP3    H113995   4.104   6.190   3.085  2.4671  1.0473  0.2316
 4684TIP3    H213996   4.148   6.137   3.220 -2.3714 -1.6443  0.8664
 4685TIP3   OH213997   2.811   7.237   3.546  0.4880  0.5413  0.0513
 4685TIP3    H113998   2.738   7.202   3.495  0.5861  0.3622  0.0342
 4685TIP3    H213999   2.776   7.248   3.634 -0.3215  2.8561 -0.5252
 4686TIP3   OH214000   2.238   5.505   1.691  0.3712  0.6139 -0.1586
 4686TIP3    H114001   2.202   5.591   1.712 -1.8417  0.0575 -1.4930
 4686TIP3    H214002   2.243   5.503   1.595 -0.4793 -1.0645 -0.1946
 4687TIP3   OH214003   2.800   7.657   1.801 -0.2377 -0.3424 -0.1579
 4687TIP3    H114004   2.810   7.736   1.748  0.0068 -0.8028 -0.8121
 4687TIP3    H214005   2.872   7.661   1.864 -1.5136  1.0508  1.2525
 4688TIP3   OH214006   3.108   7.224   2.665  0.1810  0.0864 -0.6447
 4688TIP3    H114007   3.174   7.165   2.703  0.8673  1.4019  0.2398
 4688TIP3    H214008   3.076   7.275   2.739 -1.3272 -0.0249 -1.1974
 4689TIP3   OH214009   1.933   6.011   2.036 -0.4806 -0.6470  0.5092
 4689TIP3    H114010   1.868   6.078   2.015  0.1074 -0.0626  0.5271
 4689TIP3    H214011   1.912   5.984   2.126 -0.0571  0.2888  0.8914
 4690TIP3   OH214012   3.220   7.086   2.314 -0.6112 -0.4484 -0.0624
 4690TIP3    H114013   3.202   7.009   2.368 -0.9687  2.7874  4.6528
 4690TIP3    H214014   3.135   7.107   2.274 -1.1300 -0.8464  0.8317
 4691TIP3   OH214015   8.186   0.571   1.387 -0.4633  0.3857  0.0812
 4691TIP3    H114016   8.212   0.662   1.404 -0.7265  0.6916 -1.1405
 4691TIP3    H214017   8.235   0.547   1.308 -1.4809 -0.0765 -0.4071
 4692TIP3   OH214018   1.691   7.159   4.446 -0.1420 -0.1117  0.0905
 4692TIP3    H114019   1.619   7.193   4.393  0.6906  0.8487 -0.4529
 4692TIP3    H214020   1.770   7.187   4.399  0.5973  0.2187  1.5062
 4693TIP3   OH214021   2.522   5.763   3.096  0.7109  0.0779  0.0267
 4693TIP3    H114022   2.477   5.802   3.021  2.6805  1.4803 -0.4915
 4693TIP3    H214023   2.472   5.793   3.172  1.6581  2.9920 -0.4197
 4694TIP3   OH214024   0.572   5.649   2.711 -0.2042 -0.2221  0.0379
 4694TIP3    H114025   0.603   5.736   2.684  1.1957 -0.5364  0.5772
 4694TIP3    H214026   0.562   5.657   2.806  0.3234 -0.7721  0.1391
 4695TIP3   OH214027   2.167   4.561   2.175  0.3917 -0.1448 -0.1417
 4695TIP3    H114028   2.120   4.485   2.140  1.2974 -0.3975 -0.8223
 4695TIP3    H214029   2.120   4.582   2.256 -1.0235 -0.2582 -0.9170
 4696TIP3   OH214030   2.490   3.513   1.412 -0.2620  0.2591 -0.0899
 4696TIP3    H114031   2.482   3.520   1.507 -1.2755 -0.6441 -0.0850
 4696TIP3    H214032   2.514   3.600   1.382  1.8961  0.1006  1.1656
 4697TIP3   OH214033   1.379   2.425   3.834  0.2386  0.2229 -0.1005
 4697TIP3    H114034   1.349   2.414   3.924 -0.7669  1.1961 -0.3121
 4697TIP3    H214035   1.473   2.439   3.841  0.2329 -0.1666  0.7619
 4698TIP3   OH214036   2.480   4.013   2.470 -0.0689  0.3947 -0.7631
 4698TIP3    H114037   2.458   4.038   2.559 -1.3804 -0.1004 -0.9329
 4698TIP3    H214038   2.504   4.095   2.427  0.0325  0.7126 -0.1020
 4699TIP3   OH214039   4.178   4.134   2.418  0.6389 -0.1667  0.1423
 4699TIP3    H114040   4.153   4.223   2.394  0.3372 -0.9263 -2.6321
 4699TIP3    H214041   4.262   4.143   2.462  0.8950  1.4625 -0.6372
 4700TIP3   OH214042   1.744   6.144   1.849  0.3605 -0.1734 -0.0134
 4700TIP3    H114043   1.675   6.163   1.912  0.9501 -2.3357  1.3373
 4700TIP3    H214044   1.725   6.056   1.818  1.9192 -0.3925 -0.3887
 4701TIP3   OH214045   5.750   5.681   2.587  0.5905  0.0615 -0.0644
 4701TIP3    H114046   5.702   5.598   2.591 -1.7628  1.4442  1.1629
 4701TIP3    H214047   5.810   5.677   2.662 -0.7512  0.2057  1.0255
 4702TIP3   OH214048   1.816   4.959   2.567  0.2156  0.1615  0.6310
 4702TIP3    H114049   1.794   5.001   2.483 -0.9958 -0.5072  0.5896
 4702TIP3    H214050   1.861   5.027   2.617 -1.4079  1.4272  0.4419
 4703TIP3   OH214051   2.310   7.064   1.068 -0.5663 -0.0084 -0.2419
 4703TIP3    H114052   2.348   7.149   1.091  0.0900  0.1603 -1.8651
 4703TIP3    H214053   2.223   7.085   1.033 -0.6441 -0.0576 -0.0776
 4704TIP3   OH214054   3.432   5.178   2.568 -0.2579  0.1636 -0.1425
 4704TIP3    H114055   3.472   5.265   2.572 -1.7206  0.8777 -0.7141
 4704TIP3    H214056   3.427   5.158   2.475 -2.1487  0.5445 -0.1507
 4705TIP3   OH214057   2.814   6.763   0.959 -0.1694  0.5479  0.2028
 4705TIP3    H114058   2.784   6.854   0.958  0.0232  0.6177  0.8662
 4705TIP3    H214059   2.903   6.766   0.924 -0.1200  0.6266  0.3374
 4706TIP3   OH214060   2.626   6.914   1.863  0.8102 -0.4757  0.0355
 4706TIP3    H114061   2.605   6.866   1.944 -0.3467  0.7098  0.4667
 4706TIP3    H214062   2.713   6.883   1.839  0.4798 -2.0964  0.8151
 4707TIP3   OH214063   5.365   6.262   0.504  0.5135  0.2404 -0.0635
 4707TIP3    H114064   5.280   6.237   0.540  1.0321 -0.1539  0.9127
 4707TIP3    H214065   5.353   6.260   0.409 -0.7208  0.7514  0.0723
 4708TIP3   OH214066   3.765   6.527   2.992 -0.0211 -0.9023 -0.1465
 4708TIP3    H114067   3.839   6.488   3.039  0.7213  1.8504  1.0441
 4708TIP3    H214068   3.783   6.621   2.992 -2.8889 -0.3079 -0.9548
 4709TIP3   OH214069   2.683   5.606   3.598 -0.2960 -0.0671  0.5378
 4709TIP3    H114070   2.655   5.691   3.630  1.0605 -0.2433  2.2661
 4709TIP3    H214071   2.686   5.616   3.503  0.5659  2.0531  0.7589
 4710TIP3   OH214072   4.216   4.918   1.772  0.2837 -0.4305  0.5273
 4710TIP3    H114073   4.141   4.976   1.758 -0.5031 -1.8306 -1.4058
 4710TIP3    H214074   4.287   4.976   1.801 -0.7445  1.3517 -0.4300
 4711TIP3   OH214075   4.022   3.352   1.512  0.0932  0.1851  0.7345
 4711TIP3    H114076   4.064   3.267   1.506 -0.8302 -0.2767  0.7297
 4711TIP3    H214077   3.939   3.342   1.465  0.6884  1.5441 -0.6564
 4712TIP3   OH214078   6.343   6.923   4.579 -0.0142 -0.1695  0.3387
 4712TIP3    H114079   6.408   6.965   4.522  0.3139  0.0769  0.8859
 4712TIP3    H214080   6.259   6.940   4.536 -0.0649  2.5096  1.4025
 4713TIP3   OH214081   5.309   5.189   0.109 -0.5090 -0.5677 -0.6202
 4713TIP3    H114082   5.355   5.187   0.193 -0.1295 -0.0249 -0.8094
 4713TIP3    H214083   5.261   5.272   0.110 -1.4113 -1.0881 -0.4665
 4714TIP3   OH214084   2.395   2.269   6.806 -0.8151  0.3215 -0.7656
 4714TIP3    H114085   2.352   2.184   6.800  0.1414 -0.2278 -0.0060
 4714TIP3    H214086   2.489   2.249   6.803 -0.5893  1.4264 -1.5698
 4715TIP3   OH214087   4.735   5.081   4.446  0.3251 -0.2462 -0.2935
 4715TIP3    H114088   4.702   5.171   4.443 -1.9773 -1.0517  0.2420
 4715TIP3    H214089   4.791   5.079   4.523 -0.3014  0.5135  0.1918
 4716TIP3   OH214090   4.210   4.846   2.316  0.6133 -0.4345 -0.5647
 4716TIP3    H114091   4.212   4.938   2.289 -0.7103 -0.5421 -1.0217
 4716TIP3    H214092   4.126   4.835   2.360  0.8819 -1.3633 -0.2741
 4717TIP3   OH214093   5.680   6.721   0.995 -0.7518 -0.1670 -0.4194
 4717TIP3    H114094   5.690   6.659   0.922 -1.8083 -0.6137 -0.1931
 4717TIP3    H214095   5.673   6.807   0.952  0.8963 -0.1777 -0.7260
 4718TIP3   OH214096   3.269   4.968   3.657  0.1051  0.2234  0.5737
 4718TIP3    H114097   3.270   5.032   3.728  0.0154  0.7051  0.1449
 4718TIP3    H214098   3.184   4.979   3.615 -0.0879 -0.4894  0.7760
 4719TIP3   OH214099   6.613   5.597   2.551 -0.0612  0.1424 -0.2203
 4719TIP3    H114100   6.542   5.659   2.566  0.0217 -0.6362  3.7075
 4719TIP3    H214101   6.572   5.511   2.557  0.8995 -0.2872  0.1830
 4720TIP3   OH214102   6.693   5.822   1.255 -0.2368  1.1119  0.3539
 4720TIP3    H114103   6.629   5.832   1.325 -1.2345 -1.0581 -0.2392
 4720TIP3    H214104   6.643   5.793   1.179  0.9726  2.5339 -1.0333
 4721TIP3   OH214105   6.402   5.599   1.345 -0.1309  0.1580  0.2220
 4721TIP3    H114106   6.473   5.638   1.397  1.3043 -0.8553 -0.9396
 4721TIP3    H214107   6.355   5.675   1.309 -1.0244  0.8582  2.8010
 4722TIP3   OH214108   6.270   5.637   2.975 -0.1030 -0.1826 -0.0440
 4722TIP3    H114109   6.214   5.692   3.030  0.2368  0.9738 -0.8424
 4722TIP3    H214110   6.343   5.693   2.950 -0.3869 -0.5776 -1.9039
 4723TIP3   OH214111   5.584   5.902   2.679  0.0881  0.0741  0.1292
 4723TIP3    H114112   5.509   5.845   2.668  0.1881 -0.3875  1.7297
 4723TIP3    H214113   5.658   5.843   2.692  0.9422  0.5001 -2.4921
 4724TIP3   OH214114   5.901   3.630   2.640 -0.4109 -0.0978  0.2315
 4724TIP3    H114115   5.915   3.591   2.727  1.7747  1.2426  0.5172
 4724TIP3    H214116   5.806   3.631   2.629 -0.6597 -1.6327  1.9865
 4725TIP3   OH214117   5.745   4.946   0.539 -0.3484 -0.1573 -0.0974
 4725TIP3    H114118   5.680   4.893   0.493 -0.4022  0.0438 -0.2524
 4725TIP3    H214119   5.813   4.963   0.474 -1.4612  1.9741 -0.7546
 4726TIP3   OH214120   3.567   5.401   1.761 -0.4101 -0.1214  0.7765
 4726TIP3    H114121   3.646   5.407   1.813 -0.2669 -0.3493  0.5871
 4726TIP3    H214122   3.519   5.482   1.780 -0.0167  0.1326  0.6977
 4727TIP3   OH214123   3.380   6.366   2.308  1.0301 -0.0448  0.2980
 4727TIP3    H114124   3.361   6.280   2.270 -0.4357 -0.6162  2.2455
 4727TIP3    H214125   3.451   6.350   2.370 -0.0241 -0.0922  1.5141
 4728TIP3   OH214126   4.909   7.734   4.186  0.0044  0.0278 -0.3533
 4728TIP3    H114127   4.856   7.654   4.187  0.3685 -0.2121 -0.3856
 4728TIP3    H214128   4.916   7.759   4.279  1.7277 -1.1923 -0.1356
 4729TIP3   OH214129   5.375   3.408   1.117  0.3677  0.1727 -0.6277
 4729TIP3    H114130   5.459   3.364   1.104 -0.5223 -1.2690 -1.7067
 4729TIP3    H214131   5.334   3.405   1.031 -1.4635 -0.5643  0.2579
 4730TIP3   OH214132   4.820   5.194   2.749  0.1633  0.2680 -0.0019
 4730TIP3    H114133   4.730   5.218   2.724  0.8900  0.9253 -2.0544
 4730TIP3    H214134   4.844   5.257   2.817  0.1553  2.0426 -1.6133
 4731TIP3   OH214135   5.690   4.760   1.777  0.5523  0.0067  0.1250
 4731TIP3    H114136   5.599   4.782   1.796  0.4719  0.3425 -0.6196
 4731TIP3    H214137   5.740   4.838   1.801  0.4775  0.3416 -0.7557
 4732TIP3   OH214138   5.985   5.102   1.611 -0.1449  0.3199 -0.7138
 4732TIP3    H114139   6.049   5.132   1.676  0.2508 -1.1345 -0.4135
 4732TIP3    H214140   5.914   5.064   1.662  0.2931 -1.0787 -1.1076
 4733TIP3   OH214141   4.998   4.431   1.325  0.4166 -0.7120 -0.2862
 4733TIP3    H114142   5.085   4.393   1.334  0.4369 -0.9543 -1.4897
 4733TIP3    H214143   5.002   4.483   1.245 -0.4690 -0.5217 -0.2144
 4734TIP3   OH214144   3.913   7.607   4.549 -0.3096  0.4668 -0.2215
 4734TIP3    H114145   3.821   7.582   4.545  0.0408 -0.6775 -1.3585
 4734TIP3    H214146   3.942   7.608   4.458  0.8149  0.7903  0.1326
 4735TIP3   OH214147   4.951   5.841   1.704  0.0818  0.1659  0.0589
 4735TIP3    H114148   4.990   5.886   1.629 -1.3392 -0.7896 -1.2983
 4735TIP3    H214149   4.885   5.902   1.737  0.0035  0.1725 -0.1101
 4736TIP3   OH214150   1.029   0.824   1.742 -0.4445 -0.1293  0.0167
 4736TIP3    H114151   1.096   0.765   1.776 -1.2512 -0.6149  0.7781
 4736TIP3    H214152   1.076   0.880   1.680  0.5150 -0.9505 -0.0194
 4737TIP3   OH214153   6.195   4.520   0.431  0.0131 -0.0696  0.5463
 4737TIP3    H114154   6.244   4.440   0.450  0.1975 -0.1040 -0.0897
 4737TIP3    H214155   6.111   4.489   0.396 -0.5908 -0.0191  1.9204
 4738TIP3   OH214156   5.860   5.442   1.140  0.3440  0.3003 -0.1716
 4738TIP3    H114157   5.823   5.526   1.167  2.0472  0.4703  1.7771
 4738TIP3    H214158   5.953   5.449   1.161  1.2940 -0.5891 -3.7406
 4739TIP3   OH214159   5.963   5.160   0.783 -0.2126  0.0788 -0.1077
 4739TIP3    H114160   6.000   5.093   0.840  0.8489 -0.6001 -1.5496
 4739TIP3    H214161   5.868   5.144   0.785  0.0222 -1.4246 -0.3756
 4740TIP3   OH214162   6.075   6.702   2.499  0.3619 -0.4676  0.1760
 4740TIP3    H114163   6.126   6.671   2.424 -0.4131 -0.0038 -0.5527
 4740TIP3    H214164   6.021   6.626   2.524 -2.5049  0.5979 -2.4401
 4741TIP3   OH214165   7.138   3.670   0.121  0.2688  0.6430 -0.3178
 4741TIP3    H114166   7.064   3.713   0.079  0.9130 -0.6786 -2.9287
 4741TIP3    H214167   7.121   3.577   0.111  2.2986  0.3157 -1.0074
 4742TIP3   OH214168   6.205   4.828   2.669 -0.7949 -0.1016 -0.2015
 4742TIP3    H114169   6.123   4.810   2.715  0.2959 -1.6698  1.1767
 4742TIP3    H214170   6.270   4.773   2.713  1.3924  2.4967 -0.0266
 4743TIP3   OH214171   4.039   7.530   1.892 -0.0323  0.0939 -0.0660
 4743TIP3    H114172   4.078   7.613   1.866  1.0312 -0.5796 -0.6703
 4743TIP3    H214173   3.982   7.507   1.820 -0.8098  0.6045  0.3832
 4744TIP3   OH214174   5.504   6.151   0.897 -0.2606  0.7294  0.0915
 4744TIP3    H114175   5.598   6.142   0.913 -0.3466  0.1693  0.3152
 4744TIP3    H214176   5.478   6.066   0.862 -0.4551  1.2921 -1.1262
 4745TIP3   OH214177   2.109   0.894   4.777 -0.5127  0.0676 -0.6086
 4745TIP3    H114178   2.193   0.853   4.799 -0.2458  0.1616 -1.4472
 4745TIP3    H214179   2.054   0.878   4.854  0.3332  0.1842  0.0327
 4746TIP3   OH214180   4.750   6.264   3.739 -0.2124 -0.3037  0.4586
 4746TIP3    H114181   4.699   6.332   3.784  2.1408  0.0760  2.6301
 4746TIP3    H214182   4.826   6.309   3.704  0.2198 -1.4277 -0.0808
 4747TIP3   OH214183   3.816   7.740   0.510 -0.4190 -0.2531 -0.6591
 4747TIP3    H114184   3.730   7.781   0.511 -0.9605 -1.3807 -0.2183
 4747TIP3    H214185   3.799   7.647   0.494  0.5689 -0.7763  1.1434
 4748TIP3   OH214186   3.790   6.766   2.129  0.1580  0.0270  0.0932
 4748TIP3    H114187   3.782   6.684   2.080 -1.0911  1.5355 -2.3213
 4748TIP3    H214188   3.729   6.757   2.202 -0.0452 -1.1375 -0.2128
 4749TIP3   OH214189   6.686   5.761   1.804  0.3419  0.0260 -0.3485
 4749TIP3    H114190   6.643   5.699   1.864 -0.3212 -1.0403 -1.8854
 4749TIP3    H214191   6.621   5.831   1.793  0.4200  0.1702  0.0753
 4750TIP3   OH214192   4.587   7.226   2.098  0.5485 -0.1686 -0.1562
 4750TIP3    H114193   4.596   7.201   2.190 -1.2283 -0.8680 -0.1474
 4750TIP3    H214194   4.676   7.234   2.066  1.1887  0.5365  1.7559
 4751TIP3   OH214195   5.391   4.769   3.067 -0.5003  1.0091  0.3178
 4751TIP3    H114196   5.422   4.683   3.094 -0.8659  1.2407  1.5116
 4751TIP3    H214197   5.298   4.756   3.049 -0.0543  0.6410 -1.8079
 4752TIP3   OH214198   0.907   0.907   5.468  0.5190  0.2687 -0.0018
 4752TIP3    H114199   0.985   0.956   5.442  0.3523  0.8199  0.5261
 4752TIP3    H214200   0.935   0.816   5.468  0.9795  0.4045 -0.4582
 4753TIP3   OH214201   7.020   6.339   3.365  0.3454  0.0244  0.4964
 4753TIP3    H114202   7.056   6.313   3.280  1.7045 -0.1832  1.1136
 4753TIP3    H214203   6.975   6.421   3.348  0.1763 -0.2767 -0.5270
 4754TIP3   OH214204   3.746   5.198   2.462  0.0776 -0.0662 -0.0357
 4754TIP3    H114205   3.830   5.206   2.508 -0.6071  1.6939  0.9431
 4754TIP3    H214206   3.714   5.288   2.454 -2.4129 -0.8333  0.8934
 4755TIP3   OH214207   2.226   8.002   3.072  0.1341 -0.2548 -0.7455
 4755TIP3    H114208   2.251   7.924   3.122 -0.0348 -0.3399 -0.7906
 4755TIP3    H214209   2.224   8.072   3.136  0.4901 -0.2463 -0.7437
 4756TIP3   OH214210   4.268   5.852   0.109 -0.7775 -0.5427  0.4894
 4756TIP3    H114211   4.315   5.873   0.028 -0.1588  1.5051  1.3364
 4756TIP3    H214212   4.320   5.783   0.151  0.5884  0.5517  0.6202
 4757TIP3   OH214213   6.577   3.747   1.779  0.1642  0.5147  0.2524
 4757TIP3    H114214   6.638   3.814   1.807 -0.0440  0.8140 -0.0073
 4757TIP3    H214215   6.550   3.774   1.691 -1.2457  1.0173  0.8298
 4758TIP3   OH214216   4.600   7.611   2.285  0.0802  0.0303 -0.3952
 4758TIP3    H114217   4.684   7.567   2.272 -0.2124 -0.3918 -0.8711
 4758TIP3    H214218   4.570   7.631   2.197  2.1554  4.9603 -0.1646
 4759TIP3   OH214219   5.565   7.087   1.997  0.3702 -0.3777 -0.5892
 4759TIP3    H114220   5.518   7.062   2.077 -1.2362  1.2316 -1.0089
 4759TIP3    H214221   5.657   7.090   2.023 -0.3274  2.3378  1.8030
 4760TIP3   OH214222   7.393   7.967   2.148  0.2668  0.0447  0.0990
 4760TIP3    H114223   7.423   8.004   2.066  1.2593  1.5212  1.1188
 4760TIP3    H214224   7.473   7.947   2.197 -0.3212 -0.0420  1.0480
 4761TIP3   OH214225   4.523   5.233   1.496 -0.1406 -0.7010  0.3267
 4761TIP3    H114226   4.494   5.155   1.544 -0.7674 -0.6509  0.0311
 4761TIP3    H214227   4.483   5.306   1.543  1.4900 -0.4548  1.3845
 4762TIP3   OH214228   6.662   5.947   2.528  0.0272  0.1292  0.5192
 4762TIP3    H114229   6.734   5.901   2.573  0.3734  1.6769  1.5952
 4762TIP3    H214230   6.605   5.877   2.496  1.3100 -1.0827  0.8476
 4763TIP3   OH214231   5.043   7.245   0.399 -0.6296  0.3184  0.7837
 4763TIP3    H114232   4.957   7.286   0.388 -1.1813 -0.5966  1.6482
 4763TIP3    H214233   5.094   7.277   0.324 -2.3895 -0.8324 -0.9631
 4764TIP3   OH214234   2.642   1.241   6.742 -0.2507 -0.0538  0.0849
 4764TIP3    H114235   2.654   1.148   6.720  1.2597 -0.0131  0.6285
 4764TIP3    H214236   2.584   1.275   6.674  2.5159 -0.4296 -2.5706
 4765TIP3   OH214237   4.240   5.622   0.827  0.0957 -0.2696  0.0951
 4765TIP3    H114238   4.191   5.540   0.831 -0.2275 -0.1065 -0.5146
 4765TIP3    H214239   4.233   5.651   0.736 -0.6582  0.9606  0.5220
 4766TIP3   OH214240   2.886   1.413   6.679 -0.0855  0.2431  0.2783
 4766TIP3    H114241   2.850   1.502   6.679 -0.0006  0.2785  0.9531
 4766TIP3    H214242   2.810   1.356   6.691 -0.0585  0.2588  0.5235
 4767TIP3   OH214243   3.722   5.563   1.424  0.2878  0.1937 -0.3183
 4767TIP3    H114244   3.639   5.582   1.469 -0.8349 -1.4894 -1.5913
 4767TIP3    H214245   3.757   5.649   1.402 -1.1168  0.9465  0.2547
 4768TIP3   OH214246   4.001   5.810   2.837 -0.1421 -0.2873 -0.0643
 4768TIP3    H114247   3.983   5.784   2.928 -0.6163  0.3037  0.0124
 4768TIP3    H214248   3.963   5.897   2.829  0.7192  0.0460 -0.5683
 4769TIP3   OH214249   4.841   5.759   2.520  0.2653 -0.6705  0.1617
 4769TIP3    H114250   4.833   5.683   2.578  1.8240 -0.7467  0.2957
 4769TIP3    H214251   4.847   5.722   2.432 -2.3210 -0.5458 -0.0921
 4770TIP3   OH214252   6.188   4.633   0.701 -0.5590 -0.3113  0.0193
 4770TIP3    H114253   6.191   4.720   0.660  1.5209 -0.2475  0.2576
 4770TIP3    H214254   6.188   4.573   0.627 -1.0974 -0.1303 -0.1319
 4771TIP3   OH214255   4.682   5.653   0.627 -0.1146 -0.0191  0.6950
 4771TIP3    H114256   4.685   5.668   0.721  2.1141  1.3141  0.4541
 4771TIP3    H214257   4.610   5.708   0.596  0.1853  0.7914  1.4170
 4772TIP3   OH214258   3.885   4.700   0.975  0.0935  0.0118  0.0669
 4772TIP3    H114259   3.822   4.693   1.046  0.5870  0.8174  0.5810
 4772TIP3    H214260   3.834   4.737   0.902 -0.4986 -1.1466 -0.1330
 4773TIP3   OH214261   2.045   1.373   6.398 -0.3404  0.6241  0.4319
 4773TIP3    H114262   2.008   1.285   6.396 -0.4338  0.6734 -0.0434
 4773TIP3    H214263   2.025   1.410   6.312  4.7824 -1.0288 -1.7094
 4774TIP3   OH214264   4.948   5.126   1.853  0.3500  0.3999 -0.2589
 4774TIP3    H114265   4.939   5.046   1.802  2.7896  0.5430 -0.9930
 4774TIP3    H214266   4.940   5.098   1.944 -0.3704 -0.4171 -0.5675
 4775TIP3   OH214267   3.157   0.824   6.104  0.4588 -0.0845 -0.1231
 4775TIP3    H114268   3.178   0.785   6.189 -0.2179 -1.6993 -0.6746
 4775TIP3    H214269   3.196   0.765   6.040 -1.4535 -0.4407 -1.0067
 4776TIP3   OH214270   1.333   1.353   6.252  0.7752  0.7089  0.2226
 4776TIP3    H114271   1.388   1.404   6.311 -0.9698  1.4469  1.2080
 4776TIP3    H214272   1.355   1.262   6.273  2.6615  0.9809 -0.3962
 4777TIP3   OH214273   4.610   4.721   0.320  0.2838  0.4243  0.0830
 4777TIP3    H114274   4.529   4.679   0.349  0.4881 -0.3592 -0.4616
 4777TIP3    H214275   4.604   4.720   0.225  1.3679 -0.4957  0.0204
 4778TIP3   OH214276   2.904   1.840   5.458  0.3530 -0.4328  0.3638
 4778TIP3    H114277   2.853   1.853   5.537 -0.4372 -0.5544 -0.1166
 4778TIP3    H214278   2.866   1.901   5.395  2.3692  1.1966  0.7007
 4779TIP3   OH214279   4.772   5.049   0.655  0.1501  0.3813 -0.1049
 4779TIP3    H114280   4.693   5.090   0.621 -0.0725  1.0177  1.1353
 4779TIP3    H214281   4.745   4.961   0.680 -0.1799  0.6106  0.3504
 4780TIP3   OH214282   2.000   4.070   3.696 -0.6067  0.1584 -0.5077
 4780TIP3    H114283   2.085   4.036   3.725 -2.1405 -1.9969  1.6483
 4780TIP3    H214284   2.021   4.151   3.650  2.5535  0.1464  0.7958
 4781TIP3   OH214285   4.053   5.058   3.054  0.1649 -0.6092  0.5658
 4781TIP3    H114286   4.060   5.001   3.131 -0.5355 -0.6893  0.5723
 4781TIP3    H214287   3.960   5.082   3.050  0.3364  0.0086  0.1878
 4782TIP3   OH214288   6.660   5.795   0.329 -0.5617 -0.3975  0.0408
 4782TIP3    H114289   6.589   5.844   0.288 -0.6845 -0.0485  0.6769
 4782TIP3    H214290   6.727   5.862   0.348 -0.7735 -0.4638  1.0033
 4783TIP3   OH214291   5.193   4.838   3.396  0.3258 -0.2051  0.2942
 4783TIP3    H114292   5.282   4.872   3.385  0.7882 -1.6052 -0.4396
 4783TIP3    H214293   5.204   4.743   3.396 -1.1340 -0.3822  0.6148
 4784TIP3   OH214294   5.759   6.859   0.376  0.3786 -0.0337  0.1038
 4784TIP3    H114295   5.680   6.827   0.419  0.3399 -0.6732 -0.4234
 4784TIP3    H214296   5.738   6.948   0.348  0.6533  0.6754  2.0397
 4785TIP3   OH214297   7.609   1.023   6.054 -0.1435 -0.5712  0.6384
 4785TIP3    H114298   7.537   1.024   6.118  0.1923 -1.7716  1.0501
 4785TIP3    H214299   7.652   0.939   6.069 -0.3615 -1.0811 -1.5261
 4786TIP3   OH214300   5.967   5.066   0.294  0.0589  0.1997 -0.0162
 4786TIP3    H114301   5.972   5.121   0.372 -1.1480 -1.9404  1.6374
 4786TIP3    H214302   5.994   4.979   0.324  0.3408 -0.4940 -2.1828
 4787TIP3   OH214303   5.278   7.633   1.147  0.3528  0.3771 -0.0705
 4787TIP3    H114304   5.274   7.548   1.103  0.6891  0.4263 -0.2012
 4787TIP3    H214305   5.327   7.615   1.228  0.6726  0.5006 -0.2346
 4788TIP3   OH214306   6.483   6.411   1.537 -0.0925 -0.0831 -0.0705
 4788TIP3    H114307   6.450   6.424   1.448  0.4933 -2.1635 -0.6387
 4788TIP3    H214308   6.562   6.358   1.526  1.4592  1.8198  1.5239
 4789TIP3   OH214309   6.685   6.612   1.501  0.4888  1.3593 -0.0073
 4789TIP3    H114310   6.671   6.654   1.417  0.0181  0.8299 -0.2000
 4789TIP3    H214311   6.606   6.559   1.516  0.9613  0.7243  0.3238
 4790TIP3   OH214312   6.621   6.165   2.357  0.0396 -0.1249 -0.2382
 4790TIP3    H114313   6.527   6.170   2.338 -0.1274  0.9141  0.8275
 4790TIP3    H214314   6.628   6.101   2.428  0.3443 -1.5610 -1.5122
 4791TIP3   OH214315   5.149   4.406   1.571  0.5975 -0.3951  0.4732
 4791TIP3    H114316   5.129   4.480   1.628 -0.1281  0.2462 -0.6115
 4791TIP3    H214317   5.245   4.403   1.568  0.6264  0.6424  0.3295
 4792TIP3   OH214318   4.360   4.750   1.189 -0.3734 -0.0363 -0.5012
 4792TIP3    H114319   4.276   4.780   1.156  0.7245  2.1913 -1.3516
 4792TIP3    H214320   4.373   4.665   1.148 -2.0082 -0.2071 -0.7000
 4793TIP3   OH214321   3.716   3.764   3.227  0.6267 -0.1211  0.3736
 4793TIP3    H114322   3.723   3.669   3.219  2.8409  0.1214 -0.9683
 4793TIP3    H214323   3.788   3.798   3.175 -0.6874  2.3376  0.0746
 4794TIP3   OH214324   3.670   4.603   0.159  0.5134 -0.1987  0.0143
 4794TIP3    H114325   3.675   4.681   0.213  1.2328  0.1544 -0.5514
 4794TIP3    H214326   3.601   4.622   0.095  1.7762  0.6223 -1.1293
 4795TIP3   OH214327   4.092   5.768   1.984  0.0604 -0.0775  0.4968
 4795TIP3    H114328   4.026   5.711   1.945 -0.7701 -0.5268  2.4915
 4795TIP3    H214329   4.097   5.740   2.075  1.3294  1.5172  0.9467
 4796TIP3   OH214330   1.381   0.405   3.568 -0.0868  0.0170  0.1298
 4796TIP3    H114331   1.290   0.412   3.599 -0.4697 -2.5583 -0.3177
 4796TIP3    H214332   1.421   0.488   3.593 -2.5707  1.1959  0.3347
 4797TIP3   OH214333   5.339   5.543   0.845 -0.7215  0.2425  0.3456
 4797TIP3    H114334   5.271   5.497   0.894  1.7831 -1.3637  2.4448
 4797TIP3    H214335   5.370   5.611   0.905  0.1751  0.3516 -0.2308
 4798TIP3   OH214336   7.629   6.089   2.130 -0.0447  0.4832  0.0039
 4798TIP3    H114337   7.681   6.026   2.180 -0.7799  0.7802  1.1442
 4798TIP3    H214338   7.617   6.046   2.045  0.2127 -0.5368  0.4682
 4799TIP3   OH214339   5.071   4.350   2.323  0.2585  0.2351  0.6086
 4799TIP3    H114340   5.076   4.290   2.249  0.5846  0.8495  0.1242
 4799TIP3    H214341   4.982   4.385   2.319  0.9873  2.0517 -0.9388
 4800TIP3   OH214342   6.045   6.389   1.992 -0.2017  0.8869  0.3306
 4800TIP3    H114343   5.976   6.342   1.944  0.9404 -1.1960  0.6446
 4800TIP3    H214344   6.114   6.402   1.927  0.9204 -1.0154  1.1062
 4801TIP3   OH214345   5.091   5.780   2.834  0.2789 -0.5795  0.1465
 4801TIP3    H114346   5.037   5.701   2.824  1.4940 -1.4392  0.2441
 4801TIP3    H214347   5.107   5.786   2.929  1.3800 -1.0456  0.0040
 4802TIP3   OH214348   6.946   5.070   3.463 -0.5842 -0.3706  0.1466
 4802TIP3    H114349   6.915   5.016   3.535 -2.1088 -1.3316 -1.1941
 4802TIP3    H214350   7.038   5.045   3.453 -1.6420 -3.9909 -1.4789
 4803TIP3   OH214351   6.562   6.704   1.955  0.2399 -0.2054  0.7158
 4803TIP3    H114352   6.637   6.654   1.988  0.5424 -0.7036 -0.7154
 4803TIP3    H214353   6.486   6.656   1.988  0.5171  0.5353  2.5299
 4804TIP3   OH214354   5.238   6.938   1.082 -0.1563  0.0219 -0.1069
 4804TIP3    H114355   5.302   6.871   1.057  1.1604  0.8638  0.8971
 4804TIP3    H214356   5.219   6.920   1.174 -0.9455  0.1065 -0.2518
 4805TIP3   OH214357   5.913   5.427   1.963  0.0072  0.3982  0.3096
 4805TIP3    H114358   6.003   5.435   1.994 -0.2981  1.7529  0.8567
 4805TIP3    H214359   5.864   5.491   2.013 -1.3765 -0.7038  0.3937
 4806TIP3   OH214360   4.101   5.573   3.271 -0.1949 -0.4653  0.1985
 4806TIP3    H114361   4.158   5.522   3.212 -0.0674  0.0397 -0.1152
 4806TIP3    H214362   4.115   5.664   3.245 -3.9088 -0.5290 -2.3618
 4807TIP3   OH214363   4.937   4.476   1.821  0.4470 -0.1094 -0.4175
 4807TIP3    H114364   4.879   4.488   1.896  1.1316  2.0613 -0.1889
 4807TIP3    H214365   4.881   4.490   1.745  0.2385 -0.0505 -0.2544
 4808TIP3   OH214366   4.821   6.189   2.064 -0.0710 -0.3841 -0.3565
 4808TIP3    H114367   4.876   6.190   2.142  1.1149 -1.1993 -1.1652
 4808TIP3    H214368   4.803   6.096   2.049 -2.1365 -0.0982  0.2082
 4809TIP3   OH214369   5.114   4.683   1.937 -0.3740  0.0760  0.1433
 4809TIP3    H114370   5.052   4.630   1.888  0.2015 -0.2707 -0.2254
 4809TIP3    H214371   5.134   4.757   1.880 -0.8093  0.4311  0.4563
 4810TIP3   OH214372   2.812   2.747   6.894  0.1166 -0.0964 -0.0515
 4810TIP3    H114373   2.729   2.793   6.879 -0.4089 -1.2643 -0.8218
 4810TIP3    H214374   2.818   2.739   6.989 -0.0615  1.0440  0.0685
 4811TIP3   OH214375   7.443   7.826   2.885  0.3814  0.2323  0.1903
 4811TIP3    H114376   7.446   7.854   2.977 -0.1873  1.4881 -0.1659
 4811TIP3    H214377   7.491   7.743   2.884  0.1989  0.0869  1.6651
 4812TIP3   OH214378   1.805   1.513   5.048  0.2703  0.3006 -0.3626
 4812TIP3    H114379   1.811   1.570   4.972 -1.4087  1.6477  0.4716
 4812TIP3    H214380   1.716   1.478   5.045 -0.2547  1.3510  1.6221
 4813TIP3   OH214381   4.748   6.520   2.491  0.2241  0.5019  0.2145
 4813TIP3    H114382   4.657   6.500   2.513 -0.6780  2.3805 -1.5790
 4813TIP3    H214383   4.779   6.573   2.565 -1.5126  3.3874 -1.0289
 4814TIP3   OH214384   5.417   3.031   1.963  0.2182  0.2614  0.1151
 4814TIP3    H114385   5.441   3.122   1.943 -0.0841  0.4649  0.6833
 4814TIP3    H214386   5.468   2.979   1.900  0.6035  0.8059 -0.0285
 4815TIP3   OH214387   3.946   5.987   1.373  1.0332 -0.4902 -0.2075
 4815TIP3    H114388   4.032   6.028   1.363  0.9547 -0.1248  0.5294
 4815TIP3    H214389   3.960   5.915   1.434  0.4657  0.7738  1.4722
 4816TIP3   OH214390   4.492   7.174   1.279  0.3044  0.0954  0.4450
 4816TIP3    H114391   4.560   7.216   1.226  0.4793 -1.2151 -0.3737
 4816TIP3    H214392   4.506   7.209   1.367  1.9921 -0.0994  0.2718
 4817TIP3   OH214393   5.911   5.857   1.974  0.2002 -0.0913  0.1986
 4817TIP3    H114394   5.964   5.935   1.991 -0.2572  0.1927  0.3111
 4817TIP3    H214395   5.821   5.884   1.989 -0.0728 -0.2876 -1.0283
 4818TIP3   OH214396   6.097   6.884   2.086 -0.1379 -0.0953 -0.6449
 4818TIP3    H114397   6.150   6.870   2.008  1.2384 -3.6152  0.7931
 4818TIP3    H214398   6.065   6.796   2.108 -2.5979  1.2435  1.2772
 4819TIP3   OH214399   3.660   5.639   2.047  0.5656 -0.0228  0.0550
 4819TIP3    H114400   3.711   5.710   2.087  1.6191 -0.6403 -0.1618
 4819TIP3    H214401   3.616   5.680   1.973 -0.9253  0.9922  1.4883
 4820TIP3   OH214402   5.374   5.171   1.017 -0.0038  0.0126 -0.2432
 4820TIP3    H114403   5.410   5.205   1.099  0.5417  0.6954 -0.7530
 4820TIP3    H214404   5.442   5.190   0.952 -1.4274  1.6274 -1.2860
 4821TIP3   OH214405   2.652   1.993   4.704  0.2503  0.0285  0.2603
 4821TIP3    H114406   2.653   1.972   4.611  0.4047 -0.6418  0.4152
 4821TIP3    H214407   2.576   1.946   4.739  2.0094 -2.2797  1.0695
 4822TIP3   OH214408   2.559   2.716   6.594 -0.1914 -0.1623 -0.7163
 4822TIP3    H114409   2.517   2.637   6.560 -0.1813 -1.0765  1.3062
 4822TIP3    H214410   2.510   2.737   6.674  0.5940  1.1473 -0.5571
 4823TIP3   OH214411   4.390   5.486   2.200  0.3822  0.3409 -0.8943
 4823TIP3    H114412   4.475   5.446   2.182  1.1526  0.9463  1.1688
 4823TIP3    H214413   4.387   5.491   2.296 -2.2277 -0.1901 -0.9317
 4824TIP3   OH214414   4.628   4.189   1.708 -0.0086  0.7789 -0.1677
 4824TIP3    H114415   4.588   4.104   1.690  1.4806  0.0903 -0.3835
 4824TIP3    H214416   4.578   4.251   1.655 -0.0269 -0.2318 -1.3763
 4825TIP3   OH214417   5.339   6.965   1.759 -0.0571 -0.0400 -0.0419
 4825TIP3    H114418   5.379   6.988   1.676  0.8173 -0.4175  0.2689
 4825TIP3    H214419   5.249   6.998   1.753  0.0523  0.0728 -1.0630
 4826TIP3   OH214420   7.327   0.632   1.758 -0.3952 -0.1084  0.0397
 4826TIP3    H114421   7.340   0.715   1.803 -1.7611  0.8367 -1.2609
 4826TIP3    H214422   7.412   0.613   1.717 -0.8227  2.0786 -1.9558
 4827TIP3   OH214423   4.557   5.730   2.558  0.0251  0.6207 -0.1510
 4827TIP3    H114424   4.646   5.755   2.536  0.1679 -0.1689 -0.4652
 4827TIP3    H214425   4.507   5.811   2.549  0.7842  1.1665  0.4813
 4828TIP3   OH214426   4.639   4.617   1.098  0.2246  0.5218 -0.4006
 4828TIP3    H114427   4.683   4.652   1.175 -1.6893  1.9999  0.0757
 4828TIP3    H214428   4.601   4.534   1.127 -0.5884  1.1309  0.3067
 4829TIP3   OH214429   8.212   2.705   6.615 -0.0438 -0.5740 -0.1180
 4829TIP3    H114430   8.190   2.614   6.596  0.4178 -0.8056  0.4114
 4829TIP3    H214431   8.307   2.710   6.600 -0.0485 -0.2142 -0.0310
 4830TIP3   OH214432   7.234   0.457   2.520 -0.5334 -0.3975 -0.0256
 4830TIP3    H114433   7.227   0.414   2.435 -2.2218  0.5763 -0.3930
 4830TIP3    H214434   7.159   0.422   2.570 -0.2879 -0.0029  0.6193
 4831TIP3   OH214435   4.121   4.659   1.482 -0.3989  0.4330 -0.0261
 4831TIP3    H114436   4.030   4.660   1.453  0.0018  2.1393 -1.2779
 4831TIP3    H214437   4.161   4.587   1.433 -1.0191 -0.1739  0.3560
 4832TIP3   OH214438   5.910   6.235   1.785  0.1459  0.3468  0.0924
 4832TIP3    H114439   5.993   6.221   1.740  0.1392 -1.5968  0.6576
 4832TIP3    H214440   5.855   6.279   1.721  1.0247  0.0396 -0.8803
 4833TIP3   OH214441   5.422   5.766   1.922 -0.3670 -0.1727 -0.4587
 4833TIP3    H114442   5.359   5.813   1.868  1.2582 -0.6708 -2.8688
 4833TIP3    H214443   5.398   5.674   1.915  0.7222 -0.3903 -1.5780
 4834TIP3   OH214444   5.537   6.231   2.645 -0.0419  0.0312 -0.2660
 4834TIP3    H114445   5.463   6.220   2.586 -0.5721  1.3357  0.1528
 4834TIP3    H214446   5.539   6.150   2.696 -2.0156  0.5368  0.6488
 4835TIP3   OH214447   5.524   6.700   2.255 -0.3878  0.0630  0.4125
 4835TIP3    H114448   5.514   6.754   2.176  2.1409 -0.5000 -0.3322
 4835TIP3    H214449   5.603   6.649   2.239 -2.0157 -2.9688  1.6406
 4836TIP3   OH214450   5.173   7.039   0.540  0.5985  0.0430 -0.2240
 4836TIP3    H114451   5.161   7.098   0.615 -0.9885 -0.9303  0.3093
 4836TIP3    H214452   5.143   7.089   0.465 -1.3275 -0.2887  0.3118
 4837TIP3   OH214453   3.991   3.728   6.399  0.0595 -0.0300  0.1793
 4837TIP3    H114454   4.011   3.677   6.478 -1.9170  2.1696  2.1846
 4837TIP3    H214455   3.897   3.719   6.387 -0.0961  1.9144 -0.2700
 4838TIP3   OH214456   5.533   7.251   3.981 -0.1482 -0.6063 -0.1101
 4838TIP3    H114457   5.615   7.220   4.020  0.7778 -0.1174 -1.6654
 4838TIP3    H214458   5.495   7.308   4.048  1.5154  0.3623  0.0268
 4839TIP3   OH214459   4.206   4.051   2.930 -0.3167 -0.1812  0.4301
 4839TIP3    H114460   4.285   4.104   2.927  0.5455 -1.5149 -1.3240
 4839TIP3    H214461   4.232   3.970   2.975 -0.6670 -0.6333 -0.1678
 4840TIP3   OH214462   4.471   7.007   0.815  0.0573 -0.6210 -0.2532
 4840TIP3    H114463   4.441   6.959   0.893 -1.5052 -0.5910 -0.8245
 4840TIP3    H214464   4.419   7.088   0.815  1.7698  0.5079 -0.0067
 4841TIP3   OH214465   4.435   6.289   4.143  0.0089 -0.3931 -0.1088
 4841TIP3    H114466   4.517   6.289   4.093  0.0269  0.1738 -0.0856
 4841TIP3    H214467   4.393   6.372   4.119 -1.0130 -1.1176 -0.8668
 4842TIP3   OH214468   6.770   5.576   2.014 -0.2821 -0.4300 -0.0199
 4842TIP3    H114469   6.860   5.547   2.002 -0.1722  0.2968 -0.9786
 4842TIP3    H214470   6.767   5.607   2.105  0.4891 -0.2339 -0.0560
 4843TIP3   OH214471   7.500   5.789   3.538  0.0806 -0.1652  0.3063
 4843TIP3    H114472   7.439   5.718   3.557  1.7463 -1.8083 -0.2255
 4843TIP3    H214473   7.513   5.785   3.443  0.1535  0.8771  0.2666
 4844TIP3   OH214474   3.698   5.313   3.579 -0.5717 -0.8675 -0.4728
 4844TIP3    H114475   3.641   5.288   3.506 -0.0069  0.2395 -1.3102
 4844TIP3    H214476   3.684   5.407   3.589  1.9523 -0.3303 -1.4797
 4845TIP3   OH214477   4.521   5.152   0.643 -0.1971 -0.5841 -0.7776
 4845TIP3    H114478   4.457   5.194   0.586  0.3765 -0.0087 -0.9985
 4845TIP3    H214479   4.556   5.223   0.697 -1.2983 -1.2468  0.8441
 4846TIP3   OH214480   4.865   4.893   1.771  0.1810 -0.3294  0.0839
 4846TIP3    H114481   4.818   4.843   1.838 -0.6350  0.4044  0.0600
 4846TIP3    H214482   4.808   4.889   1.694  0.7574 -0.5175 -0.3381
 4847TIP3   OH214483   6.414   4.765   1.531 -0.4757  0.4754 -0.3674
 4847TIP3    H114484   6.425   4.743   1.624  0.3141  0.5556 -0.4371
 4847TIP3    H214485   6.322   4.789   1.523 -0.6527  0.0343  0.3055
 4848TIP3   OH214486   7.732   5.522   2.764 -0.1120 -0.2231  0.1913
 4848TIP3    H114487   7.779   5.441   2.744 -0.4160 -0.3340 -0.0835
 4848TIP3    H214488   7.778   5.558   2.840  0.1876 -0.5175  0.1532
 4849TIP3   OH214489   2.545   1.444   6.103 -0.0462 -0.4368 -0.7137
 4849TIP3    H114490   2.518   1.389   6.177 -0.5350  1.6197  0.6646
 4849TIP3    H214491   2.630   1.408   6.077  0.3292 -0.9374  1.1098
 4850TIP3   OH214492   7.491   0.243   2.464 -0.0074 -0.3334 -0.6334
 4850TIP3    H114493   7.568   0.244   2.520  0.4397  2.0337 -1.2334
 4850TIP3    H214494   7.428   0.187   2.511  1.2077 -0.3423  1.0251
 4851TIP3   OH214495   4.111   5.103   0.468 -0.2324 -0.0014  0.5489
 4851TIP3    H114496   4.167   5.025   0.471  0.1148  0.2649  1.0546
 4851TIP3    H214497   4.036   5.076   0.414 -0.8139 -1.1303  1.8788
 4852TIP3   OH214498   5.951   5.199   0.034  0.6982 -0.1860  0.2607
 4852TIP3    H114499   6.033   5.155   0.053  0.3420 -0.3224  1.5338
 4852TIP3    H214500   5.890   5.168   0.102 -0.0382  0.8966  0.1157
 4853TIP3   OH214501   5.494   7.241   1.765 -0.3196 -0.1456 -0.2875
 4853TIP3    H114502   5.473   7.329   1.796 -4.6243 -0.8932 -0.6558
 4853TIP3    H214503   5.538   7.198   1.838 -0.1467  1.6470  0.6665
 4854TIP3   OH214504   7.236   4.517   0.523  0.4463 -0.4569  0.3621
 4854TIP3    H114505   7.312   4.552   0.476  1.4773 -0.8495  1.6896
 4854TIP3    H214506   7.200   4.451   0.465  0.7562  0.1527 -0.5447
 4855TIP3   OH214507   3.767   4.469   1.710 -0.3998  0.0999  0.5284
 4855TIP3    H114508   3.745   4.553   1.751 -0.8735  0.0989  0.2860
 4855TIP3    H214509   3.697   4.410   1.739  0.6341 -0.5531  1.7558
 4856TIP3   OH214510   6.053   4.037   0.586 -0.1628  0.0510  0.3683
 4856TIP3    H114511   5.971   4.047   0.634  0.4791  1.8105  1.1537
 4856TIP3    H214512   6.045   3.953   0.541 -1.6238 -0.6618  1.9241
 4857TIP3   OH214513   4.771   6.320   3.046  0.1811 -1.0014  0.1841
 4857TIP3    H114514   4.827   6.252   3.009 -0.1281 -1.5081  0.6364
 4857TIP3    H214515   4.794   6.322   3.139 -1.4453 -2.1259  0.6399
 4858TIP3   OH214516   5.910   5.571   0.340  0.9130 -0.0174  0.1056
 4858TIP3    H114517   5.849   5.598   0.271 -0.2375  0.8488  1.4407
 4858TIP3    H214518   5.975   5.516   0.294  0.5306  1.0388 -1.7657
 4859TIP3   OH214519   6.855   4.583   1.101  0.2556  0.4144  0.2409
 4859TIP3    H114520   6.899   4.613   1.021  0.2597  1.1579  0.5118
 4859TIP3    H214521   6.913   4.610   1.172 -1.0627  2.2507  0.6527
 4860TIP3   OH214522   6.470   2.414   2.270  0.0604 -0.0779  0.7777
 4860TIP3    H114523   6.469   2.335   2.217 -0.2092  0.0069  0.6564
 4860TIP3    H214524   6.563   2.434   2.281  0.1470 -0.7917  1.3755
 4861TIP3   OH214525   5.254   5.463   3.847  0.0472  0.4720  0.0458
 4861TIP3    H114526   5.255   5.546   3.895 -0.9048 -0.5150  1.8134
 4861TIP3    H214527   5.346   5.441   3.835  0.3315  0.1682  2.4876
 4862TIP3   OH214528   3.872   5.479   0.965 -0.2256 -0.2186  0.3214
 4862TIP3    H114529   3.817   5.546   0.924  1.7726  0.4675 -1.3371
 4862TIP3    H214530   3.829   5.461   1.048 -3.2935 -0.1742 -1.1765
 4863TIP3   OH214531   5.167   6.616   0.919  0.0225 -0.1522 -0.0528
 4863TIP3    H114532   5.231   6.666   0.969 -1.5781  1.8127  0.1315
 4863TIP3    H214533   5.219   6.556   0.866  1.8549 -0.5277  2.1124
 4864TIP3   OH214534   5.769   5.030   1.783 -0.1022  0.6193 -0.6665
 4864TIP3    H114535   5.783   5.056   1.875  2.2916  1.0899 -1.1378
 4864TIP3    H214536   5.764   5.113   1.736  0.3250  0.3368 -1.1998
 4865TIP3   OH214537   2.727   7.129   1.148 -0.0704  0.3471  0.0364
 4865TIP3    H114538   2.765   7.168   1.227  2.6248  0.5076 -1.2834
 4865TIP3    H214539   2.717   7.202   1.088  0.0952 -0.1324 -0.5835
 4866TIP3   OH214540   5.434   5.127   0.388 -0.0531  0.1413  0.3287
 4866TIP3    H114541   5.508   5.185   0.408 -0.2295  0.1358  1.0006
 4866TIP3    H214542   5.460   5.042   0.424 -0.2003  0.0343  0.1800
 4867TIP3   OH214543   4.143   7.166   2.024 -0.5394  0.1007 -0.7178
 4867TIP3    H114544   4.146   7.201   2.113  2.0174 -0.5678 -0.5127
 4867TIP3    H214545   4.054   7.131   2.015 -0.9168  0.4310  1.4636
 4868TIP3   OH214546   5.817   6.797   3.163 -0.1631 -0.1347  0.6151
 4868TIP3    H114547   5.824   6.891   3.177  1.9702 -0.4198  1.7486
 4868TIP3    H214548   5.888   6.777   3.102 -0.6599 -0.9965  0.3132
 4869TIP3   OH214549   7.014   0.953   2.641 -0.0977 -0.1990 -0.0540
 4869TIP3    H114550   7.021   0.999   2.725  2.0864 -0.3398 -0.1374
 4869TIP3    H214551   7.066   0.874   2.652 -0.9656 -0.9250 -1.0820
 4870TIP3   OH214552   4.247   7.256   0.837 -0.0054 -0.0657 -0.0231
 4870TIP3    H114553   4.170   7.208   0.806  0.7908  0.3056 -2.7265
 4870TIP3    H214554   4.239   7.256   0.933 -3.6828  0.5095 -0.2611
 4871TIP3   OH214555   6.265   4.369   2.608  0.3881  0.6336  0.6810
 4871TIP3    H114556   6.183   4.387   2.562  1.0668  3.9210  0.6667
 4871TIP3    H214557   6.239   4.312   2.681 -1.3234 -1.3062 -1.3626
 4872TIP3   OH214558   6.855   7.381   0.072  0.6336  0.0300  0.0545
 4872TIP3    H114559   6.910   7.346   0.001 -0.4902  0.4693 -1.0539
 4872TIP3    H214560   6.783   7.319   0.079  0.0019  0.7303 -0.1531
 4873TIP3   OH214561   4.290   7.268   1.787 -0.3258 -0.3222 -0.2703
 4873TIP3    H114562   4.255   7.240   1.872 -0.3602 -0.4833 -0.3388
 4873TIP3    H214563   4.371   7.314   1.808 -1.4264  1.5586  0.0521
 4874TIP3   OH214564   2.040   2.108   5.926  0.1937 -0.4230 -0.0392
 4874TIP3    H114565   1.992   2.172   5.873  0.7322 -1.0171 -1.2599
 4874TIP3    H214566   1.972   2.067   5.980 -0.6000 -0.8586 -1.3403
 4875TIP3   OH214567   2.034   0.545   6.815 -0.1501  0.3437 -0.2484
 4875TIP3    H114568   1.962   0.516   6.870  0.3210  1.5777  1.0444
 4875TIP3    H214569   1.999   0.619   6.765  0.3041  1.1516  0.6188
 4876TIP3   OH214570   7.948   6.514   1.867  0.6671  0.3300 -0.3324
 4876TIP3    H114571   7.862   6.548   1.840  0.8977  0.0851 -1.4194
 4876TIP3    H214572   7.928   6.429   1.907  0.3622  0.4393 -0.2504
 4877TIP3   OH214573   5.263   6.444   2.894  0.6471  0.0889 -0.0015
 4877TIP3    H114574   5.261   6.533   2.859 -0.4230 -0.0135 -0.2243
 4877TIP3    H214575   5.315   6.394   2.831 -0.3368  0.1490 -0.8822
 4878TIP3   OH214576   4.804   3.355   1.424 -0.3801 -0.2926 -0.1771
 4878TIP3    H114577   4.891   3.318   1.411 -0.9670 -1.8343  0.1286
 4878TIP3    H214578   4.799   3.428   1.363  1.0237 -0.3674 -0.3868
 4879TIP3   OH214579   7.073   6.332   2.348  0.4505  0.0072  0.0558
 4879TIP3    H114580   7.129   6.254   2.347  0.8251  0.1998  3.0952
 4879TIP3    H214581   7.133   6.406   2.348  0.1243  0.2780 -0.4960
 4880TIP3   OH214582   3.797   1.005   6.165 -0.0641 -0.6125  0.5787
 4880TIP3    H114583   3.735   0.990   6.094  0.7631  0.6569 -0.4384
 4880TIP3    H214584   3.761   0.957   6.239 -2.5335  0.5100  0.1574
 4881TIP3   OH214585   4.934   3.150   1.171  0.2303  0.4761  0.0118
 4881TIP3    H114586   4.973   3.220   1.223 -2.4680  1.1378  1.2743
 4881TIP3    H214587   4.912   3.191   1.088  1.7551  0.2288 -0.5136
 4882TIP3   OH214588   5.452   5.521   3.057  0.0241 -0.0240  0.3707
 4882TIP3    H114589   5.501   5.497   2.978  0.5261 -1.0248  0.9701
 4882TIP3    H214590   5.400   5.443   3.078  1.2862 -0.4388  2.0642
 4883TIP3   OH214591   6.263   6.008   2.093  0.5932 -0.3174  0.1409
 4883TIP3    H114592   6.279   6.081   2.153  2.7845 -1.5227  1.1193
 4883TIP3    H214593   6.249   5.933   2.151 -0.3957 -0.9203 -0.8610
 4884TIP3   OH214594   6.017   5.972   1.614 -0.2931 -0.8219 -0.3659
 4884TIP3    H114595   5.956   6.017   1.556 -1.1098 -1.6031 -0.1185
 4884TIP3    H214596   6.101   6.017   1.600 -0.8638  0.0944 -0.8817
 4885TIP3   OH214597   6.401   4.684   3.385  0.3875  0.0310  0.1131
 4885TIP3    H114598   6.368   4.639   3.463  0.6011  0.5085  0.4815
 4885TIP3    H214599   6.481   4.729   3.414  1.6074 -1.4486 -0.8674
 4886TIP3   OH214600   2.923   1.752   6.889  0.0562 -0.0330  0.2205
 4886TIP3    H114601   2.862   1.726   6.821 -0.7151 -0.5755  1.1091
 4886TIP3    H214602   2.892   1.707   6.968  0.2297  1.5277  1.2010
 4887TIP3   OH214603   3.627   2.383   2.233 -0.2972  0.6705  0.0526
 4887TIP3    H114604   3.625   2.467   2.280  1.2493  0.6323  0.2206
 4887TIP3    H214605   3.720   2.363   2.224 -0.5496  0.6833 -3.0423
 4888TIP3   OH214606   4.905   3.382   1.701 -0.5706  0.2676 -0.3592
 4888TIP3    H114607   4.880   3.396   1.610 -0.8447  2.0835 -0.0261
 4888TIP3    H214608   4.951   3.462   1.726  0.0331 -0.4546  0.9262
 4889TIP3   OH214609   5.398   5.867   0.981  0.3015 -0.2555 -0.2169
 4889TIP3    H114610   5.439   5.871   1.067  1.1811  0.7685 -0.6671
 4889TIP3    H214611   5.471   5.866   0.919 -0.3287  0.1884 -0.9799
 4890TIP3   OH214612   5.873   5.880   0.540 -0.1801 -0.1778  0.2774
 4890TIP3    H114613   5.902   5.895   0.630 -0.5703 -0.4279  0.4425
 4890TIP3    H214614   5.953   5.890   0.488  0.2250 -0.9394  0.7456
 4891TIP3   OH214615   2.782   6.558   2.274  0.0738 -0.2896  0.4572
 4891TIP3    H114616   2.841   6.483   2.283  1.2647  0.5824 -0.0044
 4891TIP3    H214617   2.838   6.634   2.290 -1.3422  0.4643  1.9235
 4892TIP3   OH214618   6.648   6.699   1.242 -0.4106  0.4754 -0.2709
 4892TIP3    H114619   6.724   6.744   1.204  0.0256  0.3347  0.4336
 4892TIP3    H214620   6.626   6.632   1.178  1.0919 -0.5606  0.2788
 4893TIP3   OH214621   3.404   5.518   1.405 -0.2973 -0.1925  0.1650
 4893TIP3    H114622   3.315   5.512   1.440 -1.2634 -0.7177 -2.2239
 4893TIP3    H214623   3.412   5.442   1.348  1.7817 -0.2665  0.5196
 4894TIP3   OH214624   5.145   6.248   4.292 -0.9665 -0.0487  0.2438
 4894TIP3    H114625   5.095   6.328   4.305 -1.4033 -0.1675 -0.7275
 4894TIP3    H214626   5.080   6.178   4.284 -0.6551 -0.2389 -0.7608
 4895TIP3   OH214627   7.569   7.092   4.178  0.0820  0.5748 -0.3703
 4895TIP3    H114628   7.590   7.152   4.106  0.9455 -0.6962 -1.2188
 4895TIP3    H214629   7.652   7.047   4.195 -0.7176 -0.8430 -0.2025
 4896TIP3   OH214630   7.480   1.213   3.926 -0.4005 -0.0028  0.2177
 4896TIP3    H114631   7.516   1.149   3.864 -0.4155  1.6248 -1.5063
 4896TIP3    H214632   7.434   1.276   3.871 -1.1578  1.0101  1.9740
 4897TIP3   OH214633   0.577   0.479   3.177 -0.8283  0.2969 -0.0944
 4897TIP3    H114634   0.494   0.493   3.132 -0.9899 -0.2558  0.0296
 4897TIP3    H214635   0.553   0.458   3.267 -0.5321  0.7005  0.0807
 4898TIP3   OH214636   5.348   4.625   1.103 -0.3192 -0.0325 -0.5522
 4898TIP3    H114637   5.324   4.555   1.164  0.6438  0.1094  0.0072
 4898TIP3    H214638   5.367   4.700   1.159  2.3211 -0.4103 -0.8717
 4899TIP3   OH214639   6.443   7.256   1.952 -0.1302 -0.0841  0.1594
 4899TIP3    H114640   6.366   7.309   1.972 -0.2555 -0.4520  0.6694
 4899TIP3    H214641   6.516   7.317   1.958 -0.3512  0.2026 -0.0366
 4900TIP3   OH214642   6.637   6.905   1.799  0.3799  0.0031  0.3085
 4900TIP3    H114643   6.610   6.838   1.861  2.5359 -1.4581 -0.2849
 4900TIP3    H214644   6.566   6.970   1.801 -1.0435 -1.5639  1.9468
 4901TIP3   OH214645   0.310   0.249   2.521  0.1549  0.1798 -0.3507
 4901TIP3    H114646   0.378   0.196   2.562 -0.2002  0.1296  0.1822
 4901TIP3    H214647   0.345   0.269   2.435  0.5997 -0.3275 -0.2973
 4902TIP3   OH214648   5.653   5.688   1.809  0.4963 -0.2639 -0.5265
 4902TIP3    H114649   5.587   5.757   1.814  0.4709 -0.2619 -0.8766
 4902TIP3    H214650   5.613   5.613   1.852  0.4124 -0.1481 -0.4027
 4903TIP3   OH214651   5.987   6.438   0.440  0.2118 -0.2180 -0.1985
 4903TIP3    H114652   6.024   6.371   0.498 -2.4980 -0.8653  0.8355
 4903TIP3    H214653   6.008   6.521   0.482  0.3774 -0.5732  0.4246
 4904TIP3   OH214654   7.307   0.292   3.094  0.0469  0.5230 -0.3938
 4904TIP3    H114655   7.344   0.207   3.117 -1.1183  0.4543  1.3669
 4904TIP3    H214656   7.230   0.270   3.040 -0.8386  0.4088  0.9060
 4905TIP3   OH214657   4.643   7.100   4.466 -0.2399  0.0235  0.8066
 4905TIP3    H114658   4.678   7.142   4.544 -1.4594  1.6391  0.5028
 4905TIP3    H214659   4.561   7.060   4.495 -1.2294  1.5286  0.1410
 4906TIP3   OH214660   5.867   5.668   2.175  0.4447 -0.1202  0.5406
 4906TIP3    H114661   5.892   5.715   2.095  1.0573 -0.2723  0.6470
 4906TIP3    H214662   5.845   5.737   2.237 -0.0838 -0.0020  0.2248
 4907TIP3   OH214663   3.505   6.933   0.379  0.4140  0.1064  0.2349
 4907TIP3    H114664   3.544   6.887   0.453  0.4331  1.8439  1.3597
 4907TIP3    H214665   3.578   6.978   0.337  0.2899 -0.2796 -0.3960
 4908TIP3   OH214666   2.917   2.222   6.074  0.3249  0.0194 -0.1677
 4908TIP3    H114667   3.009   2.201   6.064 -0.1010 -0.8044 -2.6375
 4908TIP3    H214668   2.907   2.310   6.037 -0.1578 -0.5752 -1.4925
 4909TIP3   OH214669   4.284   1.676   6.383  0.0777  0.9783 -0.3235
 4909TIP3    H114670   4.341   1.611   6.424  0.1788 -0.5003 -2.7609
 4909TIP3    H214671   4.196   1.652   6.412  0.4599  2.0646  1.8267
 4910TIP3   OH214672   6.214   3.326   2.423  0.4159  0.4881 -0.2616
 4910TIP3    H114673   6.160   3.283   2.489 -0.1089  0.9033 -0.4196
 4910TIP3    H214674   6.186   3.418   2.424  1.3352  0.7742 -0.1201
 4911TIP3   OH214675   4.724   4.476   2.003 -0.3780  0.1614  0.2638
 4911TIP3    H114676   4.748   4.485   2.095 -1.7047 -0.3601  0.6853
 4911TIP3    H214677   4.688   4.387   1.997 -2.1636  0.9052 -0.3038
 4912TIP3   OH214678   6.077   5.963   0.367  0.0021  0.0754 -0.3653
 4912TIP3    H114679   6.144   5.976   0.300  1.3472 -0.6904  0.7945
 4912TIP3    H214680   6.121   5.988   0.449 -1.6259  1.0552  0.2320
 4913TIP3   OH214681   5.207   5.193   1.623  0.1937  0.0791 -0.2645
 4913TIP3    H114682   5.274   5.157   1.564 -0.2601 -0.3778 -0.5036
 4913TIP3    H214683   5.248   5.272   1.660  1.7321 -1.4167  1.3314
 4914TIP3   OH214684   4.176   0.607   5.035 -0.0419  0.7201  0.1566
 4914TIP3    H114685   4.181   0.682   5.095 -0.7749  2.3345 -1.7625
 4914TIP3    H214686   4.084   0.582   5.035 -0.0812  0.8573 -0.4464
 4915TIP3   OH214687   3.828   6.034   2.797  0.1901 -0.2096 -0.4693
 4915TIP3    H114688   3.831   6.061   2.705 -0.6483  0.8184 -0.2019
 4915TIP3    H214689   3.807   6.114   2.845 -0.0294 -0.8734  0.5628
 4916TIP3   OH214690   4.956   3.921   0.756 -0.5367 -0.4768 -1.0977
 4916TIP3    H114691   4.960   3.912   0.851 -1.5349 -0.2420 -1.0257
 4916TIP3    H214692   5.005   4.001   0.737  0.1867 -0.8634 -0.8365
 4917TIP3   OH214693   4.851   2.943   2.597 -0.1376 -0.0869  0.6149
 4917TIP3    H114694   4.910   2.975   2.665 -0.4493  1.3658  0.2008
 4917TIP3    H214695   4.901   2.950   2.516 -0.6576  0.5530  0.3485
 4918TIP3   OH214696   5.395   6.489   0.033 -0.2802  0.0897 -0.0677
 4918TIP3    H114697   5.431   6.543   0.103 -1.4080  0.6445  0.0788
 4918TIP3    H214698   5.468   6.479  -0.029  0.2682  0.8223  0.4546
 4919TIP3   OH214699   5.853   6.837   2.335  0.1551 -0.0350 -0.3201
 4919TIP3    H114700   5.941   6.808   2.310  0.3826 -0.1294  0.5798
 4919TIP3    H214701   5.802   6.756   2.340  0.5826 -0.2258  1.3674
 4920TIP3   OH214702   5.842   6.820   5.335  0.2974 -0.1513 -0.3745
 4920TIP3    H114703   5.879   6.857   5.415  2.0840  0.4488 -1.4610
 4920TIP3    H214704   5.914   6.771   5.295 -1.2518 -2.5552 -0.3616
 4921TIP3   OH214705   4.912   5.435   2.117  0.4731 -0.1587 -0.0725
 4921TIP3    H114706   4.967   5.357   2.112 -0.3840 -0.7143 -0.9689
 4921TIP3    H214707   4.939   5.488   2.042  0.2988 -0.0858 -0.0836
 4922TIP3   OH214708   0.324   4.664   6.479 -0.1549 -0.0952 -0.9151
 4922TIP3    H114709   0.276   4.700   6.405 -0.3466 -1.7627 -1.6116
 4922TIP3    H214710   0.403   4.627   6.440 -0.0720 -0.6408 -0.2357
 4923TIP3   OH214711   3.965   0.566   6.569 -0.4814 -0.2771  0.4051
 4923TIP3    H114712   4.058   0.578   6.551 -0.4156  0.8484  1.3941
 4923TIP3    H214713   3.940   0.489   6.519  0.9107 -0.3951 -0.1226
 4924TIP3   OH214714   6.966   7.119   1.849 -0.6780 -0.4103  0.2669
 4924TIP3    H114715   7.017   7.056   1.899 -1.6177 -0.2846  1.3876
 4924TIP3    H214716   6.911   7.065   1.791 -0.1055 -0.5690 -0.1298
 4925TIP3   OH214717   0.154   6.102   1.185 -0.5363  0.2561 -0.4941
 4925TIP3    H114718   0.224   6.150   1.229  1.4224 -1.2188 -1.9032
 4925TIP3    H214719   0.098   6.170   1.147  1.7280  1.4552 -1.7872
 4926TIP3   OH214720   3.155   0.384   6.896 -0.2755 -0.1696 -0.3077
 4926TIP3    H114721   3.224   0.450   6.889  0.3419 -0.6284  1.1390
 4926TIP3    H214722   3.198   0.309   6.937 -1.8920 -0.0353  1.7377
 4927TIP3   OH214723   4.885   0.537   6.699  0.3615  0.2798 -0.1322
 4927TIP3    H114724   4.917   0.588   6.624 -0.7597 -0.2040 -0.9543
 4927TIP3    H214725   4.964   0.496   6.735  0.8697  0.2204 -1.2815
 4928TIP3   OH214726   5.926   5.597   0.843 -0.9217  0.1285  0.1892
 4928TIP3    H114727   5.977   5.535   0.791 -0.1711  1.3458 -0.5704
 4928TIP3    H214728   5.842   5.554   0.857 -0.3271 -1.1518 -0.1048
 4929TIP3   OH214729   1.251   7.921   1.005 -0.4155  0.6010 -0.2720
 4929TIP3    H114730   1.311   7.969   0.948  0.2712  1.8074  1.4021
 4929TIP3    H214731   1.307   7.879   1.070 -1.2390  0.1450  0.1577
 4930TIP3   OH214732   6.414   7.226   0.281  0.3059 -0.2090 -0.5675
 4930TIP3    H114733   6.338   7.188   0.324 -1.3195  2.2748 -1.1533
 4930TIP3    H214734   6.430   7.307   0.328  1.4973  0.1716 -1.5961
 4931TIP3   OH214735   3.735   1.858   6.214  0.2452 -0.1014 -0.5735
 4931TIP3    H114736   3.717   1.827   6.125 -0.1212 -0.1280 -0.4936
 4931TIP3    H214737   3.712   1.951   6.213  0.1524 -0.1218 -0.4866
 4932TIP3   OH214738   7.842   6.778   2.121  0.1395  0.3101 -0.1020
 4932TIP3    H114739   7.799   6.694   2.134  0.9272  0.0203  0.6241
 4932TIP3    H214740   7.888   6.795   2.203  0.9142  0.9057 -0.6564
 4933TIP3   OH214741   7.391   4.890   1.836  0.1709  0.0973 -0.4494
 4933TIP3    H114742   7.360   4.933   1.916 -0.1694 -2.8248  1.0611
 4933TIP3    H214743   7.424   4.962   1.782 -2.2561  2.4883  1.0624
 4934TIP3   OH214744   6.613   6.037   0.904 -0.5640 -0.4623 -0.6345
 4934TIP3    H114745   6.521   6.019   0.887 -0.8988 -0.7213  1.3403
 4934TIP3    H214746   6.660   5.961   0.869 -0.7912  1.0110 -4.3585
 4935TIP3   OH214747   5.778   6.924   1.262  0.2313 -0.1086 -1.1729
 4935TIP3    H114748   5.740   6.903   1.177 -0.9824 -0.8412 -0.4605
 4935TIP3    H214749   5.786   6.840   1.306 -0.2852  0.4049 -0.0865
 4936TIP3   OH214750   6.526   5.140   0.699  0.5657 -0.7115  0.6561
 4936TIP3    H114751   6.515   5.069   0.636  1.6955 -1.2656  1.0613
 4936TIP3    H214752   6.448   5.135   0.755  0.0151 -0.8114 -0.1244
 4937TIP3   OH214753   5.921   3.762   6.894 -0.1742 -0.6498 -0.3139
 4937TIP3    H114754   5.990   3.746   6.958  1.5328 -0.2824 -2.0498
 4937TIP3    H214755   5.893   3.674   6.867 -0.6328 -0.8027  0.6113
 4938TIP3   OH214756   0.289   4.137   2.896  0.1559  0.3606  0.4987
 4938TIP3    H114757   0.245   4.118   2.813  0.1676  1.5285  0.2163
 4938TIP3    H214758   0.344   4.212   2.877  0.1389  0.6546  1.5728
 4939TIP3   OH214759   7.391   4.505   1.049 -0.1871 -0.1513  0.2252
 4939TIP3    H114760   7.316   4.476   1.101  0.6672 -1.5534  0.6923
 4939TIP3    H214761   7.437   4.567   1.106 -1.5172  1.4548 -0.4324
 4940TIP3   OH214762   8.198   4.410   3.880 -0.2991  0.2419  0.0518
 4940TIP3    H114763   8.237   4.326   3.857 -1.8911 -0.2763 -0.8297
 4940TIP3    H214764   8.272   4.464   3.908  0.5882 -1.9224  2.1481
 4941TIP3   OH214765   5.530   5.750   0.585 -0.8165 -0.2581  0.4808
 4941TIP3    H114766   5.537   5.775   0.492  0.7899 -0.3610  0.5641
 4941TIP3    H214767   5.440   5.718   0.594 -0.2256 -2.7928 -1.7049
 4942TIP3   OH214768   0.539   6.455   1.409 -0.3250 -0.2806 -0.2904
 4942TIP3    H114769   0.465   6.442   1.470  0.6373  0.6518  1.0928
 4942TIP3    H214770   0.513   6.530   1.356 -0.7295 -0.4564 -0.3447
 4943TIP3   OH214771   8.461   4.077   0.754 -0.8813  0.0611 -0.0067
 4943TIP3    H114772   8.421   4.100   0.670 -1.6311  0.5258  0.4769
 4943TIP3    H214773   8.393   4.093   0.819 -1.0398 -2.3970  0.4829
 4944TIP3   OH214774   0.719   5.612   1.073 -0.7646  0.2500 -0.4054
 4944TIP3    H114775   0.776   5.580   1.005  1.2923 -0.1839  1.4787
 4944TIP3    H214776   0.716   5.707   1.059 -2.6599 -0.1055 -2.7769
 4945TIP3   OH214777   6.843   5.741   2.587 -0.2072  0.3781  0.2512
 4945TIP3    H114778   6.885   5.695   2.659 -1.1986  0.3629  0.8325
 4945TIP3    H214779   6.788   5.675   2.545 -1.0147  0.8221  0.5940
 4946TIP3   OH214780   6.359   4.466   1.648 -0.5440  0.5629 -0.4145
 4946TIP3    H114781   6.334   4.425   1.731 -2.8912  1.8238 -0.4436
 4946TIP3    H214782   6.433   4.522   1.671  0.2061 -0.7220  0.3784
 4947TIP3   OH214783   7.611   6.435   1.758  0.1239 -0.5079 -0.2257
 4947TIP3    H114784   7.547   6.451   1.689  0.1450 -1.7415 -0.5583
 4947TIP3    H214785   7.571   6.470   1.837  0.3617  1.4684 -0.9676
 4948TIP3   OH214786   4.786   1.541   6.284  0.0656  0.1660 -0.4464
 4948TIP3    H114787   4.731   1.575   6.214  0.8147  0.3190 -0.9760
 4948TIP3    H214788   4.818   1.618   6.330  0.3537  0.1072 -0.5467
 4949TIP3   OH214789   5.456   2.410   5.830  0.0874 -0.3564  0.6671
 4949TIP3    H114790   5.441   2.376   5.918  2.1627 -0.8733  0.8545
 4949TIP3    H214791   5.413   2.346   5.772  0.3194 -1.0264  1.2255
 4950TIP3   OH214792   7.232   6.119   2.024 -0.2538  0.0816  0.1905
 4950TIP3    H114793   7.153   6.121   1.971 -0.1617  0.9626  0.0672
 4950TIP3    H214794   7.263   6.029   2.020 -2.8095 -0.9772  2.5564
 4951TIP3   OH214795   7.205   5.687   0.699 -0.0225  0.7714 -0.2006
 4951TIP3    H114796   7.110   5.681   0.707  0.0281  2.1938  1.7786
 4951TIP3    H214797   7.240   5.628   0.765  0.5099 -0.5118 -1.5831
 4952TIP3   OH214798   0.231   1.586   0.660  0.2772 -0.3208 -0.6304
 4952TIP3    H114799   0.204   1.568   0.750  0.2316  1.7240 -0.2075
 4952TIP3    H214800   0.149   1.602   0.613  0.3850 -0.0756 -0.7340
 4953TIP3   OH214801   2.210   1.158   6.255  0.2119 -0.9707 -0.0094
 4953TIP3    H114802   2.248   1.182   6.170  0.9325 -2.3681 -0.0942
 4953TIP3    H214803   2.282   1.172   6.317 -0.5470  0.7968  0.4948
 4954TIP3   OH214804   6.018   5.854   1.345 -0.1950  0.4354  0.0820
 4954TIP3    H114805   5.975   5.938   1.360 -3.8786 -1.3887  0.1541
 4954TIP3    H214806   6.043   5.824   1.433  0.5326  1.1261  0.1177
 4955TIP3   OH214807   6.756   5.287   0.209 -0.4350 -0.0957 -0.0750
 4955TIP3    H114808   6.703   5.267   0.132  0.2800  0.1037 -0.6301
 4955TIP3    H214809   6.745   5.382   0.221 -0.6393 -0.1474  0.1311
 4956TIP3   OH214810   4.842   7.395   0.205 -0.3286 -0.3110  0.3838
 4956TIP3    H114811   4.918   7.444   0.173 -1.3604  0.3929 -1.0075
 4956TIP3    H214812   4.766   7.448   0.181 -1.2529 -0.8417  2.0771
 4957TIP3   OH214813   5.870   5.751   2.835 -0.3305  0.5592 -0.3087
 4957TIP3    H114814   5.921   5.831   2.843  1.1683 -0.4110  0.0695
 4957TIP3    H214815   5.891   5.701   2.914 -0.1521 -0.8225 -1.2129
 4958TIP3   OH214816   7.346   7.232   2.151 -0.2279  0.5427  0.0889
 4958TIP3    H114817   7.271   7.282   2.184  0.4521  2.4764 -1.2073
 4958TIP3    H214818   7.391   7.201   2.230  0.4348  3.6913  1.0213
 4959TIP3   OH214819   5.571   6.267   1.940 -0.0763 -0.0726  0.4124
 4959TIP3    H114820   5.604   6.220   1.864 -0.2334 -0.6287  0.6814
 4959TIP3    H214821   5.611   6.353   1.935 -0.8496  0.2282 -0.8438
 4960TIP3   OH214822   5.073   4.379   0.509  0.6951  0.4497 -0.1443
 4960TIP3    H114823   5.007   4.408   0.446  0.7391 -2.5888 -1.6702
 4960TIP3    H214824   5.146   4.439   0.498  0.5175  0.2204 -2.7058
 4961TIP3   OH214825   0.918   5.409   0.125  0.0748  0.6295 -0.1096
 4961TIP3    H114826   0.907   5.487   0.070  0.2120 -0.3326 -1.5187
 4961TIP3    H214827   0.877   5.433   0.209  0.0678  2.1855 -0.5468
 4962TIP3   OH214828   7.688   6.914   0.109  0.0820  0.3926 -0.1590
 4962TIP3    H114829   7.755   6.851   0.135  1.4084  1.4907 -0.8373
 4962TIP3    H214830   7.691   6.981   0.178 -1.4907 -0.3931  0.6910
 4963TIP3   OH214831   6.988   4.482   0.690  0.3923  0.1285 -0.0376
 4963TIP3    H114832   7.035   4.498   0.608 -1.2822  4.1797 -0.2925
 4963TIP3    H214833   7.057   4.456   0.752  2.5761  2.9719 -1.1589
 4964TIP3   OH214834   6.369   5.690   0.428  0.1941 -0.3451  0.0286
 4964TIP3    H114835   6.293   5.652   0.472 -0.6588  2.1588  0.8019
 4964TIP3    H214836   6.417   5.734   0.498  0.7911  0.5692 -0.9547
 4965TIP3   OH214837   6.618   7.225   1.260  0.4293 -0.4427  0.2242
 4965TIP3    H114838   6.604   7.131   1.246  1.0706 -0.6475  0.9015
 4965TIP3    H214839   6.626   7.262   1.172 -0.5335 -0.9056 -0.0645
 4966TIP3   OH214840   5.279   2.687   5.827 -0.3890  0.0112 -0.2898
 4966TIP3    H114841   5.325   2.707   5.908 -1.9485  1.1716  0.3291
 4966TIP3    H214842   5.259   2.593   5.834  1.0123 -0.2834 -0.1356
 4967TIP3   OH214843   3.921   4.966   2.086 -0.1220 -0.1783 -0.2163
 4967TIP3    H114844   3.940   4.875   2.064 -1.6430 -0.5387 -0.0971
 4967TIP3    H214845   3.843   4.962   2.142 -1.1035  1.2826 -1.4252
 4968TIP3   OH214846   4.275   4.518   1.994 -0.2258 -0.0208  0.2402
 4968TIP3    H114847   4.318   4.480   1.917  0.0869 -1.6191  1.1828
 4968TIP3    H214848   4.184   4.491   1.986 -0.4202  0.6975 -0.0903
 4969TIP3   OH214849   6.292   5.232   2.850  0.1480  0.5173  0.1101
 4969TIP3    H114850   6.213   5.178   2.855  0.4412  0.0646 -0.2116
 4969TIP3    H214851   6.331   5.210   2.766  0.6082  0.7591  0.2615
 4970TIP3   OH214852   5.330   7.698   1.545  0.3478 -0.2941 -0.2860
 4970TIP3    H114853   5.267   7.739   1.486 -0.0815  0.5627  0.7546
 4970TIP3    H214854   5.351   7.614   1.503 -0.4136  0.0314 -1.3394
 4971TIP3   OH214855   5.748   6.200   0.402 -0.9134 -0.2535  0.0620
 4971TIP3    H114856   5.829   6.172   0.444  0.6513  1.0424 -1.9424
 4971TIP3    H214857   5.701   6.250   0.469  1.1162  1.0549  0.5544
 4972TIP3   OH214858   5.200   7.607   0.056  0.0650 -0.4251  0.1472
 4972TIP3    H114859   5.116   7.622   0.014 -0.1184 -1.5627  0.0926
 4972TIP3    H214860   5.187   7.631   0.148 -0.9746 -2.7309  0.6415
 4973TIP3   OH214861   6.556   2.628   0.586  0.2373  0.3285  0.3076
 4973TIP3    H114862   6.472   2.598   0.623 -0.6961  0.5298 -1.5948
 4973TIP3    H214863   6.569   2.572   0.509  1.1269  1.2901 -0.2406
 4974TIP3   OH214864   3.960   0.782   6.333 -0.1862 -0.4663  0.1706
 4974TIP3    H114865   3.898   0.742   6.271  0.0582 -0.8019  0.1389
 4974TIP3    H214866   4.015   0.709   6.362 -0.8950 -0.5001  1.4940
 4975TIP3   OH214867   6.940   7.554   1.903  0.4289  0.2265  0.1593
 4975TIP3    H114868   6.897   7.468   1.894 -0.5254  0.6122  0.9256
 4975TIP3    H214869   7.030   7.534   1.929  0.0608 -0.5330  0.8774
 4976TIP3   OH214870   6.763   5.994   1.530  0.0604  0.1950  0.5093
 4976TIP3    H114871   6.856   6.012   1.517  0.2236 -0.0618  1.3386
 4976TIP3    H214872   6.720   6.034   1.454  0.9818 -0.9884 -0.6392
 4977TIP3   OH214873   4.615   5.376   0.835 -0.4314  0.0439  0.2269
 4977TIP3    H114874   4.565   5.451   0.802  0.1714  0.7456  0.8865
 4977TIP3    H214875   4.575   5.358   0.921  0.1563  0.3311  0.5638
 4978TIP3   OH214876   6.709   5.416   1.256 -0.2728 -0.3051  0.0322
 4978TIP3    H114877   6.624   5.372   1.266 -0.1453 -0.2455  1.5757
 4978TIP3    H214878   6.762   5.381   1.327  0.6389  0.4860 -0.2532
 4979TIP3   OH214879   4.448   2.816   6.716 -0.1850 -0.0641  0.0568
 4979TIP3    H114880   4.492   2.893   6.681  0.1510 -0.2884 -0.0241
 4979TIP3    H214881   4.490   2.799   6.800  0.5797 -0.8669 -0.4754
 4980TIP3   OH214882   7.417   5.834   1.149  0.2060  0.0741 -0.7128
 4980TIP3    H114883   7.336   5.801   1.189 -0.9435 -0.4185 -3.3285
 4980TIP3    H214884   7.485   5.815   1.213 -1.2857 -2.3317  0.2147
 4981TIP3   OH214885   4.517   0.068   6.287 -0.0700  0.0083 -0.3355
 4981TIP3    H114886   4.429   0.103   6.303  0.5338  1.1190  0.6443
 4981TIP3    H214887   4.562   0.138   6.240  1.4713  1.0063  2.5193
 4982TIP3   OH214888   7.224   6.860   0.545 -0.0963 -0.2651  0.1980
 4982TIP3    H114889   7.145   6.912   0.562  0.4771  0.3649  0.9595
 4982TIP3    H214890   7.191   6.771   0.533 -0.8290 -0.2235  1.7231
 4983TIP3   OH214891   7.761   4.661   2.205 -0.4942  0.7805  0.4476
 4983TIP3    H114892   7.689   4.614   2.248 -0.2281 -1.5764 -1.5861
 4983TIP3    H214893   7.720   4.704   2.130 -0.4999  2.8963  1.6090
 4984TIP3   OH214894   2.185   1.764   3.271 -0.4413  0.1078  0.5687
 4984TIP3    H114895   2.214   1.829   3.208 -2.1639 -0.7367 -1.1608
 4984TIP3    H214896   2.188   1.681   3.224 -1.1792 -0.6331  1.7808
 4985TIP3   OH214897   7.287   4.744   0.285 -0.5794  0.4693 -0.0319
 4985TIP3    H114898   7.306   4.807   0.356 -2.5376  0.6756  0.3347
 4985TIP3    H214899   7.364   4.688   0.282  0.6607  2.1015  0.5074
 4986TIP3   OH214900   7.346   4.947   0.471 -0.3209 -0.0175  0.2615
 4986TIP3    H114901   7.422   5.002   0.491  0.4512 -0.8865 -0.2759
 4986TIP3    H214902   7.303   4.933   0.555 -0.4103  1.2402  0.4332
 4987TIP3   OH214903   7.301   5.953   1.496  0.4143  0.2587 -0.3150
 4987TIP3    H114904   7.318   5.955   1.402 -1.9527  3.2825 -0.7794
 4987TIP3    H214905   7.364   6.015   1.533 -1.0962  1.9095 -0.4358
 4988TIP3   OH214906   6.748   5.625   0.141  0.0438 -0.2376 -0.3582
 4988TIP3    H114907   6.734   5.688   0.071  0.3679 -0.0747 -0.2780
 4988TIP3    H214908   6.760   5.679   0.220  1.5849 -0.3377 -0.4956
 4989TIP3   OH214909   3.216   0.394   6.431 -0.0283  0.0091  0.0219
 4989TIP3    H114910   3.247   0.342   6.505 -2.9431 -0.6645  0.8093
 4989TIP3    H214911   3.167   0.466   6.472  1.5117  1.7822 -1.1563
 4990TIP3   OH214912   6.645   7.280   1.693 -0.3863 -0.0998  0.2736
 4990TIP3    H114913   6.676   7.273   1.783  0.2700  2.0705  0.2550
 4990TIP3    H214914   6.573   7.344   1.698 -1.3412 -1.0919 -0.5159
 4991TIP3   OH214915   7.098   5.889   0.951 -0.5118  0.1693 -0.2430
 4991TIP3    H114916   7.042   5.957   0.990 -1.2764 -0.7143  0.2241
 4991TIP3    H214917   7.052   5.864   0.871 -0.8489 -0.6368  0.1991
 4992TIP3   OH214918   1.965   2.370   6.562  0.2608 -0.2845  0.0191
 4992TIP3    H114919   1.897   2.411   6.509 -0.9863 -2.3545 -0.0150
 4992TIP3    H214920   2.034   2.348   6.499 -0.0010 -0.1947 -0.2994
 4993TIP3   OH214921   3.720   2.001   4.664 -0.0449 -0.2146  0.1954
 4993TIP3    H114922   3.675   2.083   4.683 -1.0384 -0.7473  0.1815
 4993TIP3    H214923   3.689   1.976   4.576 -0.0320 -0.7926  0.3520
 4994TIP3   OH214924   4.805   1.936   6.863 -0.5183 -0.0943  0.3790
 4994TIP3    H114925   4.736   1.975   6.918 -0.3761 -0.3415  0.7316
 4994TIP3    H214926   4.757   1.885   6.798 -0.7871  2.1668 -1.2580
 4995TIP3   OH214927   7.828   7.814   0.157 -0.3773 -0.2800 -0.6022
 4995TIP3    H114928   7.823   7.845   0.247 -2.2854 -1.4389 -0.2792
 4995TIP3    H214929   7.918   7.784   0.147 -0.0650  0.1378  0.8180
 4996TIP3   OH214930   0.638   0.221   1.000 -0.4473 -0.0264 -0.0172
 4996TIP3    H114931   0.595   0.305   0.986  0.8790  0.5972 -0.4680
 4996TIP3    H214932   0.638   0.179   0.914  0.5853  0.3450 -0.2061
 4997TIP3   OH214933   6.030   2.613   5.733  0.0305  0.4722 -0.0339
 4997TIP3    H114934   6.031   2.621   5.829 -0.7604 -1.4851  0.1603
 4997TIP3    H214935   5.949   2.656   5.706  0.4754  1.4207  0.1315
 4998TIP3   OH214936   6.456   5.670   2.218  0.1435  0.5919 -0.6338
 4998TIP3    H114937   6.434   5.584   2.252 -1.3966  1.0652 -0.4012
 4998TIP3    H214938   6.547   5.685   2.246 -0.6988  0.4982  2.2736
 4999TIP3   OH214939   6.073   5.838   0.732  0.0035  0.4574  0.4239
 4999TIP3    H114940   6.135   5.884   0.787  0.3229 -0.0719  0.5143
 4999TIP3    H214941   6.038   5.768   0.787 -0.7026  0.7779  0.3854
 5000TIP3   OH214942   7.040   6.128   0.520  0.1143 -0.0740  0.2122
 5000TIP3    H114943   6.964   6.086   0.480 -0.1702 -0.5266  1.2150
 5000TIP3    H214944   7.096   6.056   0.548 -0.1235  0.2043  1.4553
 5001TIP3   OH214945   4.132   0.298   5.282  0.2532  0.2185  0.0918
 5001TIP3    H114946   4.131   0.367   5.348  0.6754 -0.4909  0.8575
 5001TIP3    H214947   4.126   0.216   5.332 -0.8108 -0.2842 -0.8314
 5002TIP3   OH214948   6.809   2.858   1.059  0.1574  0.2386  0.2711
 5002TIP3    H114949   6.860   2.933   1.090  0.5710  0.4002 -0.7636
 5002TIP3    H214950   6.817   2.862   0.964 -1.7249  0.2101  0.0967
 5003TIP3   OH214951   7.339   6.124   1.749  0.0768  0.3662  0.1249
 5003TIP3    H114952   7.321   6.161   1.835 -0.3906  1.8624 -0.5888
 5003TIP3    H214953   7.375   6.037   1.767 -2.7016 -0.5151  1.7539
 5004TIP3   OH214954   7.515   6.630   2.870  0.5857  0.0088 -0.2608
 5004TIP3    H114955   7.597   6.585   2.851 -0.2618 -2.2576  1.2529
 5004TIP3    H214956   7.475   6.645   2.784  2.0619  0.1673 -0.9312
 5005TIP3   OH214957   6.486   5.724   3.425  0.3616  0.1695  0.5013
 5005TIP3    H114958   6.564   5.757   3.470  1.3197  0.5312 -1.3483
 5005TIP3    H214959   6.514   5.712   3.334 -1.8140  0.5801 -0.2707
 5006TIP3   OH214960   3.084   2.239   5.732 -0.0979 -0.0126  0.1356
 5006TIP3    H114961   3.019   2.173   5.704  0.5534 -1.7668  2.5903
 5006TIP3    H214962   3.142   2.249   5.656 -1.8404 -0.1756 -1.2588
 5007TIP3   OH214963   4.172   6.313   2.956 -0.7921  0.1745  0.3456
 5007TIP3    H114964   4.238   6.375   2.925 -0.8718  0.3705  0.5719
 5007TIP3    H214965   4.178   6.240   2.894  0.5044 -0.3683  1.1034
 5008TIP3   OH214966   8.051   5.945   2.597  0.0692  0.4075  0.2765
 5008TIP3    H114967   8.101   5.991   2.665 -0.0039 -1.9908  2.0265
 5008TIP3    H214968   8.118   5.909   2.538  0.2467  0.4339  0.4600
 5009TIP3   OH214969   6.699   7.300   0.431 -0.3482 -0.5443  0.3494
 5009TIP3    H114970   6.731   7.272   0.517  1.1778 -0.7832 -0.2835
 5009TIP3    H214971   6.748   7.380   0.412 -1.2688 -0.0397  0.0447
 5010TIP3   OH214972   5.637   6.717   2.848  0.6276 -0.5010 -0.3475
 5010TIP3    H114973   5.678   6.680   2.926 -0.6232 -3.0735 -0.8409
 5010TIP3    H214974   5.708   6.757   2.799  1.5081  0.6865  1.8472
 5011TIP3   OH214975   5.459   5.402   0.621 -0.1598 -0.1157 -0.6142
 5011TIP3    H114976   5.433   5.452   0.698  0.5218 -0.5632 -0.0882
 5011TIP3    H214977   5.378   5.390   0.571 -0.9292 -1.3194  0.8965
 5012TIP3   OH214978   8.298   6.804   2.280 -0.1631  0.2439  0.6037
 5012TIP3    H114979   8.233   6.871   2.262 -1.0949 -0.6595  0.5622
 5012TIP3    H214980   8.247   6.727   2.305  0.7675 -1.2188 -1.8066
 5013TIP3   OH214981   4.848   5.962   0.479 -0.0398  0.6660 -0.0910
 5013TIP3    H114982   4.880   6.052   0.486 -0.6936  0.9133 -0.2393
 5013TIP3    H214983   4.823   5.953   0.387  0.2156  0.2654 -0.1216
 5014TIP3   OH214984   6.382   5.558   0.773  0.0840 -0.1733  0.1601
 5014TIP3    H114985   6.367   5.652   0.770 -0.5942 -0.1271  3.1337
 5014TIP3    H214986   6.296   5.520   0.792  0.6421 -1.2535  0.6159
 5015TIP3   OH214987   7.267   6.323   2.721 -0.4458  0.3473 -0.3241
 5015TIP3    H114988   7.323   6.334   2.643 -0.7751  0.0344 -0.6086
 5015TIP3    H214989   7.288   6.235   2.753 -0.0872  0.5956  0.1214
 5016TIP3   OH214990   4.795   3.138   6.119  0.3428 -0.2515 -0.0897
 5016TIP3    H114991   4.855   3.213   6.112  0.5726  0.0408  3.6821
 5016TIP3    H214992   4.728   3.167   6.182 -1.7721 -1.8476 -1.5514
 5017TIP3   OH214993   8.174   6.221   0.729 -0.1357  0.5153 -0.5750
 5017TIP3    H114994   8.084   6.253   0.719  0.3692  2.3012  0.4019
 5017TIP3    H214995   8.179   6.145   0.671 -2.2568  0.4235 -0.6847
 5018TIP3   OH214996   0.269   5.404   1.182 -0.2425 -0.0963  0.4354
 5018TIP3    H114997   0.176   5.387   1.175 -0.1981  0.3385 -1.2090
 5018TIP3    H214998   0.309   5.317   1.179 -0.4233 -0.1198 -1.6491
 5019TIP3   OH214999   5.496   4.949   1.654 -0.4579 -0.2333  0.3544
 5019TIP3    H115000   5.463   4.969   1.566 -0.2883 -2.0111 -0.1158
 5019TIP3    H215001   5.545   5.028   1.679  0.6244 -0.2216 -1.6756
 5020TIP3   OH215002   5.269   5.752   1.419 -0.9944  0.3206  0.0447
 5020TIP3    H115003   5.184   5.718   1.389 -1.3686 -0.0272  1.4438
 5020TIP3    H215004   5.264   5.846   1.403 -0.2389 -0.1568 -3.1850
 5021TIP3   OH215005   7.041   5.103   1.563  0.5432 -0.5746 -0.0076
 5021TIP3    H115006   7.080   5.184   1.595 -0.7812  0.7044 -1.6201
 5021TIP3    H215007   7.081   5.089   1.477  0.0235 -1.0998 -0.1675
 5022TIP3   OH215008   7.853   4.480   1.478  0.1614 -0.0834 -0.0308
 5022TIP3    H115009   7.845   4.469   1.573 -2.3110 -1.1672 -0.3347
 5022TIP3    H215010   7.887   4.568   1.466  0.6868 -0.0128  1.8570
 5023TIP3   OH215011   6.975   4.809   1.631  0.0152  0.1040 -0.3571
 5023TIP3    H115012   7.037   4.793   1.703 -0.6422  0.5105  0.3046
 5023TIP3    H215013   7.009   4.887   1.587  0.5003 -0.2290 -0.5850
 5024TIP3   OH215014   6.306   5.983   1.553 -0.0896 -0.3196  0.1232
 5024TIP3    H115015   6.384   6.004   1.502 -0.1096  1.8086  0.9176
 5024TIP3    H215016   6.340   5.957   1.639 -0.2609  0.5094  0.4381
 5025TIP3   OH215017   7.040   5.528   1.814  0.1941  0.0185 -0.2005
 5025TIP3    H115018   6.988   5.594   1.768 -0.3372 -0.0807  0.2592
 5025TIP3    H215019   7.067   5.467   1.746  1.5653  1.2662 -0.8134
 5026TIP3   OH215020   4.994   6.878   1.599  0.1242 -0.3263 -0.3916
 5026TIP3    H115021   4.992   6.899   1.692  2.6178  0.0626 -0.4089
 5026TIP3    H215022   5.018   6.786   1.595  0.7452 -0.1526 -0.6760
 5027TIP3   OH215023   4.916   5.036   2.262 -0.0109 -0.4417 -0.0319
 5027TIP3    H115024   4.921   5.004   2.353  0.5090 -0.7761 -0.1716
 5027TIP3    H215025   4.923   4.956   2.209 -2.2785 -0.4619 -0.3534
 5028TIP3   OH215026   6.948   5.481   0.545 -0.5939  0.7208 -0.0818
 5028TIP3    H115027   6.953   5.427   0.624  0.5723 -0.9986 -1.3091
 5028TIP3    H215028   6.855   5.506   0.539 -0.8544  0.1083  1.3215
 5029TIP3   OH215029   6.276   7.116   1.698 -0.2484 -0.1121 -0.6655
 5029TIP3    H115030   6.277   7.198   1.747  1.2579  0.3288 -1.4093
 5029TIP3    H215031   6.303   7.050   1.761  0.8596  0.3262 -0.6713
 5030TIP3   OH215032   0.110   7.630   1.398  0.2432  0.2876 -0.3052
 5030TIP3    H115033   0.181   7.642   1.461 -0.2852 -1.3711  0.6540
 5030TIP3    H215034   0.113   7.537   1.376  0.6605  0.9239 -3.0573
 5031TIP3   OH215035   7.713   6.645   0.332  0.1663 -0.7684  0.6580
 5031TIP3    H115036   7.772   6.612   0.265  0.0923 -0.8021  0.6089
 5031TIP3    H215037   7.630   6.599   0.316 -0.5828  1.0436 -0.7652
 5032TIP3   OH215038   6.430   4.138   0.243 -0.0453 -0.1157 -0.8778
 5032TIP3    H115039   6.438   4.069   0.177  1.6366  0.7530 -1.6264
 5032TIP3    H215040   6.359   4.109   0.300 -1.2438 -1.1062 -2.8121
 5033TIP3   OH215041   5.865   6.362   0.875 -0.2610 -0.2426 -0.6861
 5033TIP3    H115042   5.821   6.368   0.960 -0.6794 -1.8464 -0.7545
 5033TIP3    H215043   5.849   6.446   0.833 -1.7668 -0.1563  0.0198
 5034TIP3   OH215044   7.211   4.807   2.882  0.3051 -0.1461  0.3899
 5034TIP3    H115045   7.163   4.803   2.965 -1.2515  4.6418 -0.1084
 5034TIP3    H215046   7.277   4.875   2.896  0.7322 -0.0441 -1.9591
 5035TIP3   OH215047   2.758   1.652   6.693  0.6539 -0.1619 -0.4948
 5035TIP3    H115048   2.756   1.708   6.615  1.0661  0.0669 -0.3450
 5035TIP3    H215049   2.670   1.617   6.699  0.7631 -0.6163 -1.3813
 5036TIP3   OH215050   7.348   5.095   2.351  0.1410  0.8128  0.8360
 5036TIP3    H115051   7.301   5.115   2.432 -0.4378 -0.8700  0.9299
 5036TIP3    H215052   7.437   5.126   2.367  0.0042  0.5773  2.0776
 5037TIP3   OH215053   5.411   6.696   1.052 -0.0809 -0.1344  0.5581
 5037TIP3    H115054   5.465   6.705   1.130 -0.1844  1.4152  0.4688
 5037TIP3    H215055   5.472   6.672   0.982  0.2320 -0.1035  0.8221
 5038TIP3   OH215056   0.876   0.086   1.077  0.2557  0.0517 -0.2462
 5038TIP3    H115057   0.799   0.124   1.034  0.4660  1.4972  0.6337
 5038TIP3    H215058   0.940   0.075   1.006 -0.6035 -0.7829 -0.9093
 5039TIP3   OH215059   1.178   0.801   3.233  0.0760 -0.0809 -0.4200
 5039TIP3    H115060   1.165   0.723   3.288 -1.0163  0.1024 -0.4051
 5039TIP3    H215061   1.216   0.866   3.292 -0.0600 -0.2430 -0.1535
 5040TIP3   OH215062   6.885   6.480   1.089  0.2499  0.0453 -0.2292
 5040TIP3    H115063   6.912   6.388   1.089  1.0580  0.2769  0.9951
 5040TIP3    H215064   6.956   6.526   1.132  0.1701  1.3602 -1.4557
 5041TIP3   OH215065   7.460   5.228   1.285 -0.3508  0.0973  0.4014
 5041TIP3    H115066   7.474   5.278   1.365 -0.7833 -0.5690  0.9065
 5041TIP3    H215067   7.444   5.138   1.316 -1.7238  0.0697 -0.3646
 5042TIP3   OH215068   7.769   7.642   1.116 -0.3100 -0.3007  1.0033
 5042TIP3    H115069   7.687   7.601   1.141 -1.2252 -0.0253 -1.3687
 5042TIP3    H215070   7.819   7.649   1.197 -2.6282 -0.4573  2.4839
 5043TIP3   OH215071   7.591   7.657   2.479  0.0014 -0.4848  0.5774
 5043TIP3    H115072   7.526   7.589   2.497  0.7907 -1.0642  1.3429
 5043TIP3    H215073   7.564   7.731   2.533 -0.9346 -0.1392 -0.3574
 5044TIP3   OH215074   5.265   6.942   2.149 -0.2237 -0.1071  0.7188
 5044TIP3    H115075   5.314   6.870   2.109  1.0377  0.2887  1.5371
 5044TIP3    H215076   5.329   7.012   2.160 -0.4359 -0.3805  3.8787
 5045TIP3   OH215077   4.764   2.914   6.627  0.6446 -0.5835 -0.9452
 5045TIP3    H115078   4.792   2.932   6.538  0.5690  0.4764 -0.7580
 5045TIP3    H215079   4.808   2.980   6.680 -0.8602  0.0314 -0.4396
 5046TIP3   OH215080   6.570   7.948   2.571 -0.2321  0.3567  0.0665
 5046TIP3    H115081   6.658   7.929   2.604 -0.1279  0.9458  0.1412
 5046TIP3    H215082   6.559   8.042   2.586 -0.9287  0.2564  0.1807
 5047TIP3   OH215083   4.116   6.880   1.391 -0.1314 -0.1035 -0.0295
 5047TIP3    H115084   4.200   6.919   1.416 -0.1364  0.6433 -1.1682
 5047TIP3    H215085   4.066   6.879   1.473  1.8652 -2.8897  1.2339
 5048TIP3   OH215086   7.595   3.058   2.066 -0.2635 -0.8236  0.8575
 5048TIP3    H115087   7.593   3.119   1.993 -0.4617 -1.0121  0.7033
 5048TIP3    H215088   7.657   3.096   2.128 -1.6405  0.4093  1.5157
 5049TIP3   OH215089   5.763   2.423   5.494  0.0828 -0.0187  0.4007
 5049TIP3    H115090   5.744   2.514   5.472 -0.3839 -0.0969  0.4708
 5049TIP3    H215091   5.745   2.416   5.588  1.1617  0.0827  0.6132
 5050TIP3   OH215092   7.357   4.806   0.849  0.1531 -0.5362  0.0124
 5050TIP3    H115093   7.311   4.828   0.930  1.0660  0.1420  0.3568
 5050TIP3    H215094   7.290   4.808   0.782  0.0206  2.6482  0.1341
 5051TIP3   OH215095   4.982   0.272   6.757  0.2166 -0.1800 -0.5684
 5051TIP3    H115096   5.002   0.259   6.664  2.1414 -1.3633 -0.0060
 5051TIP3    H215097   4.890   0.246   6.765  0.3120 -0.9934 -1.9485
 5052TIP3   OH215098   2.954   1.145   6.340 -0.0763  0.1212  0.6906
 5052TIP3    H115099   2.996   1.230   6.326 -0.3703  0.2177  0.3932
 5052TIP3    H215100   2.920   1.150   6.429 -0.4821  0.4856  0.5184
 5053TIP3   OH215101   6.480   6.062   1.367 -0.0219  0.5458  0.0474
 5053TIP3    H115102   6.406   6.118   1.342 -0.0471  1.2642  1.6474
 5053TIP3    H215103   6.557   6.109   1.335  0.0643  2.3021  2.6795
 5054TIP3   OH215104   3.848   2.196   5.996  0.0563  0.0493  0.2529
 5054TIP3    H115105   3.763   2.228   5.965 -0.0759 -0.4451  0.1059
 5054TIP3    H215106   3.840   2.101   5.994  0.2927  0.0060  1.1390
 5055TIP3   OH215107   7.428   5.606   1.598  0.1439  0.2973  0.6055
 5055TIP3    H115108   7.512   5.648   1.614 -0.4026  1.4247  0.6127
 5055TIP3    H215109   7.363   5.671   1.627 -0.7205 -0.5730  0.6442
 5056TIP3   OH215110   4.689   5.142   2.392 -0.4466  0.6940 -0.5829
 5056TIP3    H115111   4.767   5.112   2.345  0.5247 -0.3714  1.6495
 5056TIP3    H215112   4.617   5.126   2.331  0.8020 -0.4430 -1.7932
 5057TIP3   OH215113   6.562   4.894   0.535  0.1522 -0.0104  0.3311
 5057TIP3    H115114   6.640   4.949   0.531  0.1865 -0.0426  0.5497
 5057TIP3    H215115   6.596   4.804   0.539  0.1320  0.0465  1.9076
 5058TIP3   OH215116   0.183   6.369   3.627  0.1972 -0.1968 -0.5630
 5058TIP3    H115117   0.275   6.345   3.643  0.3992 -0.4717 -2.0427
 5058TIP3    H215118   0.135   6.323   3.696  1.1654 -0.1001  0.1960
 5059TIP3   OH215119   8.309   6.202   2.763  0.2255  0.0364  0.3527
 5059TIP3    H115120   8.326   6.108   2.759  0.7855  0.1552 -0.1242
 5059TIP3    H215121   8.213   6.208   2.766  0.1580 -0.5321 -0.3098
 5060TIP3   OH215122   7.683   6.555   1.019  0.0817 -0.2684 -0.1006
 5060TIP3    H115123   7.622   6.488   0.990  0.5810 -0.8252  0.1116
 5060TIP3    H215124   7.658   6.634   0.972  0.3314 -0.9425 -1.3630
 5061TIP3   OH215125   0.805   6.368   1.397 -0.0104 -0.6777  0.0971
 5061TIP3    H115126   0.736   6.433   1.387  0.0672 -0.8179 -1.3722
 5061TIP3    H215127   0.758   6.285   1.409 -0.0957 -0.5787  0.4727
 5062TIP3   OH215128   7.585   5.207   2.417 -0.1485  1.0013  0.5391
 5062TIP3    H115129   7.564   5.267   2.489  2.1183 -0.0497  2.1486
 5062TIP3    H215130   7.642   5.257   2.360 -1.0929  1.4958  0.0215
 5063TIP3   OH215131   7.517   5.653   3.296 -0.3324  0.2185 -0.2231
 5063TIP3    H115132   7.533   5.724   3.234  1.7480  0.5732  0.6500
 5063TIP3    H215133   7.432   5.617   3.271  0.2175  0.7020 -2.9099
 5064TIP3   OH215134   6.352   3.060   6.357 -0.1671 -0.0277  0.3914
 5064TIP3    H115135   6.422   3.064   6.293 -0.4599  1.7606  0.1346
 5064TIP3    H215136   6.348   2.969   6.384  2.2293 -0.1574  0.3827
 5065TIP3   OH215137   4.783   0.479   2.291 -0.3184 -0.3927 -0.1134
 5065TIP3    H115138   4.779   0.549   2.357  1.7912  0.7669 -1.1511
 5065TIP3    H215139   4.807   0.401   2.340 -1.8254 -0.2317  0.9332
 5066TIP3   OH215140   7.616   6.019   0.851 -0.2624 -0.3835 -0.1200
 5066TIP3    H115141   7.522   6.009   0.835 -0.0842 -1.2606 -0.6488
 5066TIP3    H215142   7.653   6.035   0.765  0.3248 -2.1191 -0.2220
 5067TIP3   OH215143   0.186   5.230   4.936 -0.0328 -0.2575 -0.0116
 5067TIP3    H115144   0.105   5.249   4.984 -0.1784  0.2723 -0.4569
 5067TIP3    H215145   0.156   5.207   4.848  0.3139  0.1011 -0.2217
 5068TIP3   OH215146   8.251   5.561   4.193  0.2665 -0.0501 -0.1206
 5068TIP3    H115147   8.346   5.561   4.187  0.1502 -0.6661 -2.1192
 5068TIP3    H215148   8.223   5.634   4.137 -0.4172  0.3514  0.7295
 5069TIP3   OH215149   0.336   5.678   2.172  0.4102 -0.2596 -0.8246
 5069TIP3    H115150   0.284   5.696   2.093 -1.2857 -0.9075  0.1314
 5069TIP3    H215151   0.410   5.626   2.140  1.7307  2.5059 -2.5401
 5070TIP3   OH215152   7.869   6.799   3.975 -0.0915  0.3150  0.2947
 5070TIP3    H115153   7.920   6.728   4.014 -0.8850  0.5400  1.7962
 5070TIP3    H215154   7.894   6.799   3.883 -0.2372 -2.0505  0.2229
 5071TIP3   OH215155   0.179   6.806   3.811 -0.1427 -0.2174  0.1054
 5071TIP3    H115156   0.235   6.841   3.880  0.0432  1.0084 -0.6571
 5071TIP3    H215157   0.105   6.767   3.857 -0.4453  1.3551  0.9611
 5072TIP3   OH215158   1.600   6.396   4.906  0.2065 -0.5311  0.7950
 5072TIP3    H115159   1.692   6.374   4.921 -0.2369 -2.2201  1.1499
 5072TIP3    H215160   1.557   6.377   4.989 -0.5396 -0.1723  0.4943
 5073TIP3   OH215161   1.104   7.033   0.725 -0.6978 -0.1445  0.4191
 5073TIP3    H115162   1.171   7.004   0.663 -1.3221 -0.7499  0.0204
 5073TIP3    H215163   1.023   6.993   0.692 -1.4058  1.3137  0.3891
 5074TIP3   OH215164   7.808   7.199   1.116  0.4905  0.1676 -0.0288
 5074TIP3    H115165   7.894   7.238   1.132  0.8147  0.5021 -2.4272
 5074TIP3    H215166   7.819   7.107   1.139  1.6672  0.0785 -0.9198
 5075TIP3   OH215167   7.611   6.944   2.025 -0.1515  0.1325 -0.2261
 5075TIP3    H115168   7.611   7.025   2.076  0.4237 -0.6400  1.0535
 5075TIP3    H215169   7.696   6.904   2.045 -0.2665 -0.5811 -1.1583
 5076TIP3   OH215170   0.495   7.267   3.645  0.7717 -0.0271  0.6137
 5076TIP3    H115171   0.503   7.173   3.632  2.6281 -0.1030  2.0744
 5076TIP3    H215172   0.408   7.289   3.611  1.9043 -1.5715 -3.5424
 5077TIP3   OH215173   3.170   0.887   1.126 -0.4012 -0.3168 -0.2750
 5077TIP3    H115174   3.141   0.862   1.214 -0.6089  1.6404  0.2309
 5077TIP3    H215175   3.148   0.811   1.071  1.2993 -2.2731  1.6380
 5078TIP3   OH215176   8.412   7.110   0.982 -0.2833  0.6510 -0.5605
 5078TIP3    H115177   8.347   7.075   1.043  0.4373  0.4836  0.1191
 5078TIP3    H215178   8.385   7.078   0.896 -0.4054 -0.4214 -0.1189
 5079TIP3   OH215179   8.469   7.255   5.023 -0.3748 -0.0597 -0.8595
 5079TIP3    H115180   8.506   7.267   4.936  1.6517 -1.3250 -0.2090
 5079TIP3    H215181   8.499   7.330   5.073 -1.4165  0.5898 -1.1873
 5080TIP3   OH215182   5.183   0.078   4.872 -0.5137 -0.1568 -0.1483
 5080TIP3    H115183   5.204  -0.013   4.893  0.1410 -0.2818 -1.3051
 5080TIP3    H215184   5.193   0.084   4.777  1.2433  1.5838  0.1207
 5081TIP3   OH215185   0.508   7.068   4.882  0.0170 -0.5423 -0.5710
 5081TIP3    H115186   0.472   7.033   4.964 -1.3136 -0.0969 -0.9533
 5081TIP3    H215187   0.440   7.054   4.817 -0.1563  1.8247 -0.9541
 5082TIP3   OH215188   7.754   7.301   4.270  0.2941 -1.1571 -0.2477
 5082TIP3    H115189   7.822   7.368   4.261  0.3052 -1.0463  0.6240
 5082TIP3    H215190   7.802   7.218   4.269  0.2002 -1.2128 -2.2401
 5083TIP3   OH215191   7.653   6.097   3.814  0.0486 -0.2114 -0.3045
 5083TIP3    H115192   7.734   6.089   3.865 -0.6844 -0.8627  0.7996
 5083TIP3    H215193   7.638   6.191   3.807  0.7823 -0.0945 -0.3228
 5084TIP3   OH215194   0.171   6.829   2.830 -0.3584  0.3262 -0.0378
 5084TIP3    H115195   0.147   6.771   2.903  0.3631 -0.6515 -0.5735
 5084TIP3    H215196   0.266   6.840   2.838 -0.1250 -0.6036 -1.4251
 5085TIP3   OH215197   1.756   6.654   1.510  0.1629 -0.3967  0.1809
 5085TIP3    H115198   1.782   6.564   1.491  0.7553 -0.6154  1.8894
 5085TIP3    H215199   1.825   6.708   1.472 -0.2052 -0.6505 -0.8674
 5086TIP3   OH215200   0.146   5.252   1.989 -0.2292  0.2996 -0.0958
 5086TIP3    H115201   0.214   5.192   1.959 -1.2075  0.0536 -1.8442
 5086TIP3    H215202   0.177   5.339   1.964  0.8199  0.4669  1.7419
 5087TIP3   OH215203   7.012   7.334   2.876 -0.1827 -0.1893  0.0617
 5087TIP3    H115204   6.927   7.373   2.897  0.3184  0.9735 -0.0326
 5087TIP3    H215205   7.063   7.345   2.956 -0.3868 -1.6541  0.4057
 5088TIP3   OH215206   7.894   5.330   2.689 -0.0161  0.0825 -0.4725
 5088TIP3    H115207   7.941   5.380   2.622 -1.6202  0.1969 -1.5299
 5088TIP3    H215208   7.963   5.284   2.736  1.3020  1.5482 -0.9224
 5089TIP3   OH215209   0.788   6.301   5.563 -0.0909 -0.3692  0.6093
 5089TIP3    H115210   0.848   6.237   5.602  2.0990  1.1144 -0.2314
 5089TIP3    H215211   0.810   6.299   5.470 -0.7089  0.8662  0.4406
 5090TIP3   OH215212   6.309   4.322   5.846 -0.7054  0.0824  0.3631
 5090TIP3    H115213   6.335   4.237   5.881 -0.6060  0.2794  0.7811
 5090TIP3    H215214   6.354   4.328   5.762  2.1009  1.1607  1.8564
 5091TIP3   OH215215   0.689   4.392   0.799 -0.3623  0.4853 -0.5018
 5091TIP3    H115216   0.640   4.349   0.730  1.5428 -0.1589 -1.4776
 5091TIP3    H215217   0.747   4.324   0.834  0.5938  1.4883 -0.0954
 5092TIP3   OH215218   6.203   3.732   6.955 -0.3151  0.3916 -0.7512
 5092TIP3    H115219   6.214   3.638   6.970  3.5274  1.1937  2.2632
 5092TIP3    H215220   6.267   3.753   6.886  0.2790  1.0738 -0.0131
 5093TIP3   OH215221   1.110   6.237   0.788  0.7571  0.5742 -0.1903
 5093TIP3    H115222   1.049   6.163   0.784  1.1768  0.2610 -0.7919
 5093TIP3    H215223   1.095   6.274   0.875 -0.5486  0.7242 -0.4645
 5094TIP3   OH215224   8.316   6.093   3.145  0.3916  0.1788  0.2562
 5094TIP3    H115225   8.331   6.001   3.122 -0.4967  0.1946 -0.4230
 5094TIP3    H215226   8.335   6.098   3.239  1.2575 -0.5176  0.1262
 5095TIP3   OH215227   8.305   4.929   3.188  0.1382  0.2351 -0.2257
 5095TIP3    H115228   8.273   4.982   3.261 -0.7148 -0.9754  0.2786
 5095TIP3    H215229   8.394   4.904   3.215 -1.3262 -2.9573  1.9247
 5096TIP3   OH215230   1.078   5.905   2.515 -0.4989  0.4982  0.3430
 5096TIP3    H115231   1.077   5.839   2.585  0.7698  0.3471  0.2290
 5096TIP3    H215232   1.067   5.854   2.434  4.3381 -0.0640 -0.0831
 5097TIP3   OH215233   0.989   6.356   3.718  0.4161 -0.1714  0.3586
 5097TIP3    H115234   1.082   6.364   3.696  0.2861 -0.4880 -0.3026
 5097TIP3    H215235   0.944   6.366   3.634 -0.0709 -1.6125  0.4499
 5098TIP3   OH215236   5.857   0.062   1.984 -0.0201 -0.3980 -0.0031
 5098TIP3    H115237   5.896   0.134   2.032  0.1234  0.3721 -1.2514
 5098TIP3    H215238   5.928   0.028   1.929 -0.1620 -1.2958  0.3600
 5099TIP3   OH215239   1.236   6.220   1.151 -0.0947 -0.0090 -0.7759
 5099TIP3    H115240   1.223   6.125   1.147 -0.0947 -0.0572  0.3784
 5099TIP3    H215241   1.153   6.257   1.120 -0.6834 -0.3798  0.3259
 5100TIP3   OH215242   7.512   5.567   2.093  0.1693  0.3383 -0.0839
 5100TIP3    H115243   7.441   5.578   2.156 -0.7958 -1.5519 -0.7827
 5100TIP3    H215244   7.471   5.580   2.008  0.8817  0.2649 -0.4449
 5101TIP3   OH215245   3.374   6.998   1.786 -0.4411 -0.0170 -0.3832
 5101TIP3    H115246   3.330   6.948   1.716 -1.0441  0.0729 -0.0681
 5101TIP3    H215247   3.345   7.088   1.773 -1.0928 -0.1054  0.3915
 5102TIP3   OH215248   3.182   3.210   6.935 -0.2373 -0.3615  0.3217
 5102TIP3    H115249   3.173   3.254   6.851 -0.8845 -1.0152  0.0445
 5102TIP3    H215250   3.275   3.217   6.956 -0.5078  2.1013  0.8091
 5103TIP3   OH215251   8.234   5.984   0.555 -0.3526  0.4130  0.3177
 5103TIP3    H115252   8.235   5.998   0.460  0.1474 -1.6781  0.0075
 5103TIP3    H215253   8.321   5.949   0.576 -1.0666 -0.8297  1.2756
 5104TIP3   OH215254   3.689   6.887   2.775 -0.0012  0.4224 -0.1567
 5104TIP3    H115255   3.776   6.915   2.747 -0.1123 -0.1901 -1.1712
 5104TIP3    H215256   3.629   6.950   2.735 -0.0946  0.1868 -0.3872
 5105TIP3   OH215257   0.147   7.371   1.273 -0.0359 -0.0660 -0.7591
 5105TIP3    H115258   0.130   7.277   1.276  0.4157 -0.1141  0.7874
 5105TIP3    H215259   0.120   7.397   1.185  4.1587 -2.4534 -2.9584
 5106TIP3   OH215260   2.974   0.463   1.590 -0.1845  0.1462  0.3282
 5106TIP3    H115261   2.911   0.493   1.655 -0.4055 -0.7203  0.5283
 5106TIP3    H215262   2.922   0.449   1.511 -0.2737 -0.6498  0.5174
 5107TIP3   OH215263   1.377   6.905   2.276 -0.4624 -0.3466 -0.6998
 5107TIP3    H115264   1.454   6.961   2.271  0.7548 -1.8956  0.3889
 5107TIP3    H215265   1.306   6.965   2.299  0.7046  0.8406 -0.1251
 5108TIP3   OH215266   3.796   7.628   2.187 -0.5802 -0.3084 -0.4329
 5108TIP3    H115267   3.740   7.653   2.114 -1.7305 -0.2242  0.4616
 5108TIP3    H215268   3.816   7.536   2.172 -1.5235 -0.5176 -0.3839
 5109TIP3   OH215269   7.250   5.771   1.691 -0.0293 -0.3626  0.1154
 5109TIP3    H115270   7.264   5.842   1.628  0.3619 -1.5734 -1.1965
 5109TIP3    H215271   7.155   5.768   1.702  0.0352  1.3212  1.3297
 5110TIP3   OH215272   0.084   5.843   1.231 -0.0163  0.1375  0.9998
 5110TIP3    H115273   0.091   5.937   1.213  0.9998 -0.2968 -1.0544
 5110TIP3    H215274  -0.008   5.823   1.216 -0.3687  0.9150  2.0650
 5111TIP3   OH215275   4.360   5.136   4.120  0.3389 -0.2266  0.1275
 5111TIP3    H115276   4.411   5.199   4.069 -0.4833 -1.7673 -2.6977
 5111TIP3    H215277   4.419   5.062   4.131 -0.6573 -1.3222 -1.6811
 5112TIP3   OH215278   0.753   5.902   2.358 -0.8001  0.1870  0.0483
 5112TIP3    H115279   0.733   5.823   2.307 -0.2002  1.4959 -2.2908
 5112TIP3    H215280   0.830   5.939   2.316 -1.3618  2.2886  0.8024
 5113TIP3   OH215281   0.823   7.430   0.689 -0.2782 -0.2863 -0.2965
 5113TIP3    H115282   0.906   7.405   0.730  0.0883 -0.6667 -1.2667
 5113TIP3    H215283   0.762   7.361   0.715 -0.1748 -0.2660  0.0093
 5114TIP3   OH215284   6.132   0.026   3.139 -0.2310  0.1405 -0.2896
 5114TIP3    H115285   6.102  -0.063   3.161  0.5097 -0.0884 -0.1752
 5114TIP3    H215286   6.080   0.083   3.195  0.5638 -0.3403  0.9723
 5115TIP3   OH215287   1.896   7.247   2.979 -0.0331  0.0589 -0.2532
 5115TIP3    H115288   1.953   7.220   3.051 -0.5190 -2.6462 -0.8577
 5115TIP3    H215289   1.937   7.210   2.901 -1.6799 -0.4352 -0.9040
 5116TIP3   OH215290   0.824   5.486   1.302 -0.6050  0.2915 -0.7114
 5116TIP3    H115291   0.794   5.519   1.387 -2.2968 -1.0585 -0.7429
 5116TIP3    H215292   0.790   5.550   1.238  0.6236  1.2782 -0.3917
 5117TIP3   OH215293   1.572   7.310   2.953 -0.6253  0.4563 -0.3522
 5117TIP3    H115294   1.496   7.343   2.904 -0.5013  1.9903  0.4719
 5117TIP3    H215295   1.635   7.381   2.950  0.3283 -0.3707 -0.0073
 5118TIP3   OH215296   3.054   7.526   2.675 -0.5450  0.1743  0.0321
 5118TIP3    H115297   3.101   7.599   2.634 -0.5811 -0.7968 -1.8050
 5118TIP3    H215298   3.002   7.489   2.604 -2.2925 -0.2335  1.4908
 5119TIP3   OH215299   0.176   7.246   0.598  0.2460  0.0675 -0.5088
 5119TIP3    H115300   0.264   7.251   0.637 -0.2029  1.9094  0.3048
 5119TIP3    H215301   0.192   7.250   0.504  0.9664  1.8195 -0.3362
 5120TIP3   OH215302   8.361   6.374   1.794 -0.2562 -0.6455  0.2406
 5120TIP3    H115303   8.356   6.423   1.712 -0.3611 -0.0467  0.5981
 5120TIP3    H215304   8.378   6.284   1.767  1.7288 -0.1113 -0.3631
 5121TIP3   OH215305   1.907   0.548   3.437  0.3834 -0.0913 -0.3955
 5121TIP3    H115306   1.830   0.603   3.449  0.3724  0.2309 -1.9065
 5121TIP3    H215307   1.909   0.527   3.344  1.6352 -0.8158 -0.2320
 5122TIP3   OH215308   1.575   5.213   3.034  0.0751 -0.2946  0.1688
 5122TIP3    H115309   1.520   5.235   3.109  1.1322 -0.3569  0.9777
 5122TIP3    H215310   1.641   5.283   3.032  0.1534 -0.3858 -0.5950
 5123TIP3   OH215311   7.882   7.795   3.854  0.4443 -0.2452  0.0887
 5123TIP3    H115312   7.885   7.887   3.829  0.0218 -0.2580 -0.0100
 5123TIP3    H215313   7.835   7.752   3.783  2.1236 -0.8101 -0.6906
 5124TIP3   OH215314   1.014   7.803   1.475 -0.0366 -0.3827  0.1497
 5124TIP3    H115315   1.071   7.768   1.406  0.7845 -0.7400  1.0072
 5124TIP3    H215316   0.982   7.885   1.439  1.2962 -0.0051 -0.2150
 5125TIP3   OH215317   2.003   7.134   3.335  0.6581  0.0685  0.9048
 5125TIP3    H115318   1.942   7.060   3.346  1.0520 -0.5570 -0.9186
 5125TIP3    H215319   2.060   7.107   3.263  0.3653  2.4512 -0.2779
 5126TIP3   OH215320   2.794   6.145   1.029 -0.2231 -0.0381 -0.3495
 5126TIP3    H115321   2.881   6.181   1.047 -0.4197  0.7541 -0.9449
 5126TIP3    H215322   2.784   6.151   0.934 -0.9970  0.0417 -0.2720
 5127TIP3   OH215323   5.711   0.894   4.293 -0.5130 -0.2874 -0.5850
 5127TIP3    H115324   5.626   0.854   4.308 -0.5188  0.8586  2.7190
 5127TIP3    H215325   5.756   0.889   4.377  1.5444  1.7919 -1.4825
 5128TIP3   OH215326   8.345   5.984   2.038 -0.0626  0.3664  0.3246
 5128TIP3    H115327   8.272   5.964   1.980  0.2967  0.3866 -0.1406
 5128TIP3    H215328   8.402   6.041   1.986 -0.2264  1.1936  1.0412
 5129TIP3   OH215329   3.547   4.634   3.609 -0.3105  0.0842 -0.2350
 5129TIP3    H115330   3.500   4.621   3.691 -1.4324  0.1188 -0.8683
 5129TIP3    H215331   3.505   4.710   3.568 -0.4918 -0.6115 -1.3654
 5130TIP3   OH215332   8.103   7.277   3.099 -0.1298  0.7988 -0.2514
 5130TIP3    H115333   8.183   7.298   3.052 -0.3504 -0.1560 -1.0587
 5130TIP3    H215334   8.133   7.230   3.177  0.1604  1.4768  0.0571
 5131TIP3   OH215335   7.533   5.875   2.725  0.3698  0.7883 -0.3108
 5131TIP3    H115336   7.583   5.890   2.805 -0.7035 -2.5914  1.1069
 5131TIP3    H215337   7.598   5.843   2.662  0.5344 -0.9730  0.6951
 5132TIP3   OH215338   2.541   7.583   1.822  0.0890  0.0386 -0.3218
 5132TIP3    H115339   2.529   7.506   1.766 -0.0399 -0.4124  0.3305
 5132TIP3    H215340   2.635   7.601   1.817 -0.0115  0.3880 -1.1898
 5133TIP3   OH215341   0.507   7.765   1.105  0.2702 -0.4601  0.2333
 5133TIP3    H115342   0.414   7.744   1.110 -0.0753  1.2643  1.2645
 5133TIP3    H215343   0.533   7.784   1.195  0.5161  3.5765 -0.6066
 5134TIP3   OH215344   7.927   1.419   6.486  0.7277 -0.2700  0.1206
 5134TIP3    H115345   7.997   1.390   6.544 -0.5272 -2.0696  0.7797
 5134TIP3    H215346   7.961   1.406   6.398  1.0197 -1.6827  0.4264
 5135TIP3   OH215347   2.641   7.980   3.357 -0.1318 -0.1282  0.0566
 5135TIP3    H115348   2.571   7.922   3.387 -0.0268 -0.0258  0.5168
 5135TIP3    H215349   2.680   8.013   3.438  0.5213 -0.2753 -0.1988
 5136TIP3   OH215350   0.918   7.027   1.689 -0.1421  0.1078 -0.2878
 5136TIP3    H115351   0.912   6.972   1.611  0.5686 -3.2168  1.8841
 5136TIP3    H215352   0.846   6.999   1.745 -0.4956  2.2577  0.3849
 5137TIP3   OH215353   7.891   6.330   0.244  0.0141  0.0525  0.3019
 5137TIP3    H115354   7.872   6.397   0.179  0.0705  0.0140  0.2464
 5137TIP3    H215355   7.949   6.373   0.307  1.1662 -0.3658 -0.4833
 5138TIP3   OH215356   5.706   2.356   5.755  0.2131 -0.2514  0.3423
 5138TIP3    H115357   5.626   2.407   5.766 -0.1459 -1.0785  1.7221
 5138TIP3    H215358   5.724   2.321   5.842  1.7663 -0.5458 -0.0770
 5139TIP3   OH215359   1.328   7.083   1.651 -0.6658  0.4037 -0.3643
 5139TIP3    H115360   1.277   7.006   1.628 -2.2624  1.3237  0.0317
 5139TIP3    H215361   1.411   7.071   1.605  0.4788 -3.2171  2.4927
 5140TIP3   OH215362   3.286   7.732   1.782  0.3955  0.0157 -0.1160
 5140TIP3    H115363   3.330   7.732   1.697  0.5482 -0.1508 -0.0370
 5140TIP3    H215364   3.345   7.684   1.839 -0.7681 -1.8894 -0.4783
 5141TIP3   OH215365   1.267   6.406   2.740 -0.1030 -0.4350  0.1017
 5141TIP3    H115366   1.301   6.327   2.697 -0.3698  0.6044 -2.0828
 5141TIP3    H215367   1.231   6.375   2.823  1.3656 -2.3488  0.0580
 5142TIP3   OH215368   7.288   6.650   1.745  0.1388  0.5108  0.0662
 5142TIP3    H115369   7.323   6.579   1.797 -1.4379 -0.3215  0.0326
 5142TIP3    H215370   7.328   6.729   1.782  1.5188 -0.3423  0.4157
 5143TIP3   OH215371   8.309   5.364   1.869 -0.3798 -0.2410  0.5594
 5143TIP3    H115372   8.292   5.456   1.849  0.9481 -0.8752 -4.1017
 5143TIP3    H215373   8.234   5.317   1.834  1.3103 -1.2841 -1.8429
 5144TIP3   OH215374   7.891   5.922   0.874 -0.5263 -0.1888  0.0150
 5144TIP3    H115375   7.965   5.938   0.932 -1.0193  1.1819  0.2872
 5144TIP3    H215376   7.814   5.936   0.929 -1.0394 -3.5195  0.2672
 5145TIP3   OH215377   1.483   7.962   2.018 -0.4152  0.1949  0.0094
 5145TIP3    H115378   1.390   7.965   2.039 -0.5613 -0.5286 -0.5380
 5145TIP3    H215379   1.526   7.999   2.095 -1.0635 -0.9241  0.9285
 5146TIP3   OH215380   5.812   3.472   6.267  0.1358 -0.3118  0.3675
 5146TIP3    H115381   5.866   3.548   6.292 -0.4593  0.1033  0.4045
 5146TIP3    H215382   5.753   3.459   6.341 -0.5943 -0.0421 -0.1628
 5147TIP3   OH215383   0.261   6.527   3.332  0.2882  0.5762  0.1773
 5147TIP3    H115384   0.186   6.482   3.371  0.1940  1.5309  1.1290
 5147TIP3    H215385   0.289   6.589   3.400  1.7895  0.3856 -0.2636
 5148TIP3   OH215386   7.010   1.570   6.448 -0.3531 -0.7490  0.7959
 5148TIP3    H115387   7.002   1.475   6.444 -3.4516 -0.5161 -0.8978
 5148TIP3    H215388   6.923   1.602   6.422  0.8132  2.5511  0.6936
 5149TIP3   OH215389   0.250   4.550   2.512  0.9612  0.0419 -0.8068
 5149TIP3    H115390   0.283   4.576   2.427 -0.7235 -0.7190 -1.7322
 5149TIP3    H215391   0.155   4.555   2.504  0.6759 -2.8001  0.0906
 5150TIP3   OH215392   8.471   2.675   6.567  0.1239  0.3739 -0.2917
 5150TIP3    H115393   8.460   2.673   6.472  1.2940  0.4992 -0.4343
 5150TIP3    H215394   8.566   2.669   6.580 -0.1370 -1.4301  0.9161
 5151TIP3   OH215395   7.113   5.872   3.464  0.4968 -0.1239  0.0609
 5151TIP3    H115396   7.029   5.917   3.465 -0.2133 -1.4376  1.4245
 5151TIP3    H215397   7.164   5.917   3.396 -1.3258  0.5985 -0.8480
 5152TIP3   OH215398   8.121   7.824   1.202 -0.0546 -0.6730  0.1769
 5152TIP3    H115399   8.055   7.811   1.270  0.2850 -1.6482  0.3196
 5152TIP3    H215400   8.105   7.754   1.139  1.2034 -1.2655  0.5016
 5153TIP3   OH215401   2.015   5.140   2.163  0.2064 -0.1842 -0.3907
 5153TIP3    H115402   1.990   5.083   2.090  3.6419 -1.3338 -0.7347
 5153TIP3    H215403   2.022   5.227   2.125  1.4265 -0.6850 -1.3533
 5154TIP3   OH215404   8.323   2.450   6.825  0.5985 -0.5378  0.5219
 5154TIP3    H115405   8.259   2.379   6.821 -0.2385  0.1645  1.1582
 5154TIP3    H215406   8.378   2.438   6.748  0.1840 -1.6100  0.3922
 5155TIP3   OH215407   8.497   5.335   1.196  0.2354  0.4115  0.2767
 5155TIP3    H115408   8.410   5.344   1.157 -0.0820 -1.8563  0.3893
 5155TIP3    H215409   8.509   5.415   1.247 -0.3861  2.2989 -2.4350
 5156TIP3   OH215410   3.767   6.849   1.723 -0.3408 -0.4962 -0.2883
 5156TIP3    H115411   3.713   6.886   1.653  0.3968  0.2431 -0.4749
 5156TIP3    H215412   3.724   6.876   1.804  0.3183  1.0183 -0.4148
 5157TIP3   OH215413   1.945   5.106   2.767  0.2857  0.2482 -0.7110
 5157TIP3    H115414   2.000   5.116   2.845 -0.1699 -1.8889 -0.0720
 5157TIP3    H215415   2.006   5.114   2.694  1.0665  0.2373 -0.0688
 5158TIP3   OH215416   0.012   7.506   0.598  0.2605 -0.1452  0.2067
 5158TIP3    H115417   0.070   7.430   0.604 -0.1315 -0.4175  0.5373
 5158TIP3    H215418   0.038   7.561   0.672  1.8538  0.9626 -1.1320
 5159TIP3   OH215419   1.529   5.859   1.236  0.0802  0.4388 -0.2868
 5159TIP3    H115420   1.590   5.891   1.302 -0.4497 -1.0136  0.9257
 5159TIP3    H215421   1.447   5.904   1.256  0.0585  0.3990 -0.2867
 5160TIP3   OH215422   1.553   4.964   1.999 -0.0641 -0.5099  0.3723
 5160TIP3    H115423   1.591   5.039   1.954 -0.7459 -0.2321  0.2414
 5160TIP3    H215424   1.462   4.962   1.969 -0.0455 -1.4086  0.3486
 5161TIP3   OH215425   8.287   6.872   0.196 -0.2121  0.6903  0.1306
 5161TIP3    H115426   8.264   6.909   0.111 -2.2896 -0.5572  0.1134
 5161TIP3    H215427   8.272   6.778   0.186  0.2456  0.4475  1.6375
 5162TIP3   OH215428   0.692   5.684   2.186 -0.0819 -0.2540  0.6263
 5162TIP3    H115429   0.729   5.715   2.103 -0.5396 -1.0457  0.1221
 5162TIP3    H215430   0.644   5.605   2.163 -2.2872  0.8709  1.2465
 5163TIP3   OH215431   8.320   7.530   1.530 -0.0905 -0.4452  0.4380
 5163TIP3    H115432   8.397   7.585   1.518 -0.8631  1.0789  2.3146
 5163TIP3    H215433   8.288   7.515   1.441  2.2752 -1.0185 -0.3714
 5164TIP3   OH215434   1.174   3.771   0.350 -0.0137  0.3173 -0.5929
 5164TIP3    H115435   1.247   3.821   0.313  0.5076 -0.8480 -1.1583
 5164TIP3    H215436   1.125   3.740   0.274 -1.5937  1.8001 -0.2011
 5165TIP3   OH215437   2.211   7.208   2.321 -0.5603 -0.6034 -0.4509
 5165TIP3    H115438   2.298   7.170   2.309 -0.4788 -0.4506 -0.3445
 5165TIP3    H215439   2.205   7.225   2.415 -0.8237 -0.8982 -0.4124
 5166TIP3   OH215440   4.149   7.921   4.189  0.3194 -0.0996  0.1327
 5166TIP3    H115441   4.148   7.905   4.094 -1.5311 -0.5402  0.2064
 5166TIP3    H215442   4.114   8.009   4.199 -1.3371 -0.7781  0.5067
 5167TIP3   OH215443   4.398   0.438   2.117 -0.0872 -0.5509  0.0466
 5167TIP3    H115444   4.322   0.385   2.095  0.1778 -0.4298 -1.2324
 5167TIP3    H215445   4.434   0.398   2.196 -0.4589 -1.6767 -0.3432
 5168TIP3   OH215446   3.018   5.402   0.569 -0.2080  0.4112 -0.3938
 5168TIP3    H115447   2.988   5.324   0.616 -2.2254  0.4570 -1.5431
 5168TIP3    H215448   3.056   5.457   0.637 -1.2579 -0.3879  0.8853
 5169TIP3   OH215449   2.130   6.011   1.841 -0.4710  0.1033  0.0457
 5169TIP3    H115450   2.199   6.077   1.850  0.6496 -1.0883  0.3836
 5169TIP3    H215451   2.077   6.022   1.920  0.0570  0.2155  0.3914
 5170TIP3   OH215452   1.054   5.649   2.382  0.4902  1.0240 -0.1909
 5170TIP3    H115453   1.132   5.595   2.393 -0.1631  0.2992  0.9665
 5170TIP3    H215454   0.987   5.604   2.434 -0.0996  2.8702  0.6569
 5171TIP3   OH215455   0.722   6.521   2.190 -0.7378  0.1603  0.3787
 5171TIP3    H115456   0.711   6.604   2.144  0.8063  1.2000  1.8450
 5171TIP3    H215457   0.719   6.455   2.121 -1.8011  1.4341 -0.8207
 5172TIP3   OH215458   2.940   7.025   4.539  0.3511  0.1470 -0.5914
 5172TIP3    H115459   2.955   7.078   4.461  0.3683  0.4168 -0.4065
 5172TIP3    H215460   2.997   6.948   4.527 -1.0291 -0.7231 -1.7068
 5173TIP3   OH215461   3.299   6.705   0.122  0.4419 -0.4014 -0.1665
 5173TIP3    H115462   3.323   6.622   0.164 -1.6831 -1.3061 -0.6881
 5173TIP3    H215463   3.204   6.710   0.131  0.4320  1.4720 -1.0867
 5174TIP3   OH215464   5.880   1.099   6.747  0.2552  0.3119 -0.4272
 5174TIP3    H115465   5.868   1.105   6.652  0.9148  0.9862 -0.4783
 5174TIP3    H215466   5.862   1.188   6.779 -0.8992 -0.1266  0.1978
 5175TIP3   OH215467   5.833   0.445   1.972 -0.1178  0.2927  0.3346
 5175TIP3    H115468   5.774   0.382   1.930 -0.2356  1.2889 -1.0479
 5175TIP3    H215469   5.810   0.441   2.065  0.6217 -2.4680  0.4470
 5176TIP3   OH215470   0.506   5.481   2.119 -0.0641  0.4530 -0.4206
 5176TIP3    H115471   0.515   5.437   2.034 -0.3059  0.4715 -0.4570
 5176TIP3    H215472   0.454   5.420   2.172 -0.8465  0.9187 -0.6403
 5177TIP3   OH215473   0.261   5.769   2.607  0.2324 -0.3098  0.2333
 5177TIP3    H115474   0.228   5.686   2.571 -1.5736  0.6978 -0.5275
 5177TIP3    H215475   0.340   5.744   2.655 -0.4565 -2.5294  0.3142
 5178TIP3   OH215476   4.229   0.575   4.433  0.0198 -0.2663 -0.2821
 5178TIP3    H115477   4.230   0.535   4.520  0.1887  0.9807  0.3120
 5178TIP3    H215478   4.307   0.631   4.432 -0.2351  0.0805 -1.0661
 5179TIP3   OH215479   1.246   6.653   4.133 -0.3884 -0.4524  0.1140
 5179TIP3    H115480   1.327   6.693   4.165 -0.4536  0.3179 -0.6663
 5179TIP3    H215481   1.178   6.683   4.194 -0.3852  0.3934 -0.2927
 5180TIP3   OH215482   1.215   7.869   5.058  0.1876 -0.0315 -0.2050
 5180TIP3    H115483   1.137   7.921   5.039  0.2808  0.1578 -0.0799
 5180TIP3    H215484   1.184   7.778   5.059 -0.0513  0.0499 -0.0583
 5181TIP3   OH215485   8.445   7.348   3.354 -0.1635  0.1202  0.1709
 5181TIP3    H115486   8.449   7.255   3.332  1.6639  0.2864 -0.2661
 5181TIP3    H215487   8.417   7.350   3.446  1.1839 -0.9253  0.6173
 5182TIP3   OH215488   0.886   7.698   0.596 -0.3431  0.2827 -0.2407
 5182TIP3    H115489   0.959   7.731   0.648 -0.1474  0.7022 -0.7730
 5182TIP3    H215490   0.810   7.708   0.653  0.0577 -0.4291  0.4191
 5183TIP3   OH215491   2.209   6.778   4.095 -0.7449  0.1128  0.0362
 5183TIP3    H115492   2.121   6.790   4.059  0.3868  0.4034 -2.7839
 5183TIP3    H215493   2.239   6.696   4.055  0.7249  0.6798 -0.0338
 5184TIP3   OH215494   8.279   5.379   2.625  0.1097 -0.2704  0.1988
 5184TIP3    H115495   8.313   5.466   2.646 -1.5882  0.4283  0.1210
 5184TIP3    H215496   8.312   5.323   2.694 -0.1846  0.7730  1.1969
 5185TIP3   OH215497   3.910   0.400   0.299 -0.2771  0.7000  0.2968
 5185TIP3    H115498   3.898   0.438   0.212  0.6379  1.4425  0.4847
 5185TIP3    H215499   3.829   0.353   0.316  0.0974 -0.6607 -1.5650
 5186TIP3   OH215500   0.241   6.383   1.457 -0.1986 -0.1235  0.1396
 5186TIP3    H115501   0.275   6.296   1.473 -1.3700 -0.3252  1.6395
 5186TIP3    H215502   0.278   6.437   1.527  1.1343  0.7568 -1.2207
 5187TIP3   OH215503   6.685   3.412   5.897 -0.2371  0.1123  0.1093
 5187TIP3    H115504   6.690   3.497   5.853 -0.1330  1.1257  2.0325
 5187TIP3    H215505   6.770   3.371   5.879 -0.2629  0.4206 -0.7773
 5188TIP3   OH215506   1.413   7.180   1.901  0.4813 -0.1505  0.3126
 5188TIP3    H115507   1.483   7.121   1.929  1.1153 -0.1236 -1.2120
 5188TIP3    H215508   1.383   7.145   1.817  0.1260  1.0627 -0.0865
 5189TIP3   OH215509   1.921   5.580   0.867  0.3078  0.6333 -0.2739
 5189TIP3    H115510   1.985   5.646   0.895 -0.6042  0.7255  1.6950
 5189TIP3    H215511   1.877   5.554   0.948 -1.7138  0.0952 -1.5110
 5190TIP3   OH215512   1.704   5.976   3.370 -0.4550 -0.3583 -0.0253
 5190TIP3    H115513   1.634   6.021   3.417 -0.8020 -1.5243  0.5941
 5190TIP3    H215514   1.659   5.909   3.318 -0.0217  0.5394 -1.5762
 5191TIP3   OH215515   6.537   6.088   3.686 -0.5251  0.0156 -0.3034
 5191TIP3    H115516   6.486   6.169   3.684  1.6969  1.4352 -1.8699
 5191TIP3    H215517   6.484   6.024   3.639 -1.5743  1.0207 -0.4968
 5192TIP3   OH215518   1.313   5.410   3.901 -0.5382  0.3394 -0.2455
 5192TIP3    H115519   1.389   5.391   3.956 -0.4681  1.5788  0.0882
 5192TIP3    H215520   1.341   5.385   3.813  0.7738  2.1329 -0.3584
 5193TIP3   OH215521   0.405   7.297   3.134 -0.2836  0.1980 -0.2235
 5193TIP3    H115522   0.395   7.362   3.204 -0.1065 -0.8409  0.7861
 5193TIP3    H215523   0.330   7.238   3.146 -3.2917  2.9673 -4.1848
 5194TIP3   OH215524   0.645   7.407   0.431 -0.0588  0.1620  0.2240
 5194TIP3    H115525   0.695   7.398   0.511  0.8271  0.1213 -0.3308
 5194TIP3    H215526   0.592   7.486   0.444  1.6330  1.3546  0.0164
 5195TIP3   OH215527   1.523   6.815   0.221 -0.1486  0.0825  0.2590
 5195TIP3    H115528   1.593   6.878   0.231 -0.5725  0.7854 -1.0526
 5195TIP3    H215529   1.567   6.731   0.204  0.3927  0.9478 -2.9924
 5196TIP3   OH215530   8.422   5.780   3.379 -0.4110  0.4801  0.2366
 5196TIP3    H115531   8.411   5.875   3.381 -0.7447  0.4225  3.0535
 5196TIP3    H215532   8.348   5.746   3.431  0.9190 -1.1661  1.1127
 5197TIP3   OH215533   1.489   6.577   3.492  0.1899  0.3938 -0.1875
 5197TIP3    H115534   1.557   6.631   3.451  0.0074  1.2855  0.6624
 5197TIP3    H215535   1.437   6.639   3.544  0.0339 -0.6079  0.8762
 5198TIP3   OH215536   4.810   5.623   3.121 -0.7113 -0.5650  0.2634
 5198TIP3    H115537   4.798   5.536   3.160  1.2167 -0.9230  0.1322
 5198TIP3    H215538   4.735   5.634   3.062 -1.7274 -1.5324  1.3676
 5199TIP3   OH215539   2.177   7.412   3.876  0.1682  0.1308  0.3951
 5199TIP3    H115540   2.222   7.389   3.795 -0.5342  0.3597 -0.0686
 5199TIP3    H215541   2.172   7.507   3.875 -0.6992  0.0925  0.2256
 5200TIP3   OH215542   7.194   5.301   3.337  0.2843 -0.3798 -0.0495
 5200TIP3    H115543   7.146   5.297   3.420 -0.6513  0.0891 -0.5455
 5200TIP3    H215544   7.262   5.235   3.344 -0.4363 -1.0531  0.6914
 5201TIP3   OH215545   1.567   7.949   1.551 -0.7522  0.7696  0.0936
 5201TIP3    H115546   1.616   7.869   1.532 -1.5812 -0.0877  1.5099
 5201TIP3    H215547   1.487   7.941   1.500 -0.6932  0.8558 -0.0143
 5202TIP3   OH215548   3.796   7.853   3.800  0.3590  0.7912  0.3005
 5202TIP3    H115549   3.824   7.762   3.791  0.6935  1.2032 -3.4751
 5202TIP3    H215550   3.701   7.849   3.805 -0.0453  0.4218 -4.9089
 5203TIP3   OH215551   3.815   0.012   3.096 -0.1193 -0.4211 -0.0890
 5203TIP3    H115552   3.794   0.069   3.170  1.4447  1.1876 -0.8626
 5203TIP3    H215553   3.758  -0.064   3.109 -1.2096  0.6460  1.7476
 5204TIP3   OH215554   5.897   1.212   2.328 -0.1499  0.0138 -0.8156
 5204TIP3    H115555   5.961   1.141   2.323 -1.6110 -1.2968 -1.3137
 5204TIP3    H215556   5.947   1.288   2.358  0.9741 -1.8184  2.1755
 5205TIP3   OH215557   1.817   5.415   1.372 -0.4697 -0.2996 -0.6550
 5205TIP3    H115558   1.906   5.381   1.383 -0.5614  0.2659  2.2257
 5205TIP3    H215559   1.763   5.358   1.427 -1.5227  0.8435 -0.4829
 5206TIP3   OH215560   4.012   7.023   2.926 -0.2344 -0.3000 -0.2921
 5206TIP3    H115561   3.965   7.103   2.949 -0.3169 -0.4333  0.0093
 5206TIP3    H215562   4.061   7.045   2.848 -0.6080 -0.0841 -0.4669
 5207TIP3   OH215563   3.542   7.367   0.015  0.5029  0.1505 -0.3746
 5207TIP3    H115564   3.447   7.376   0.024  0.5149  0.5626 -0.6476
 5207TIP3    H215565   3.574   7.360   0.104  0.4239  2.1582 -0.1567
 5208TIP3   OH215566   0.173   5.516   1.944  0.1596  0.4198 -0.1500
 5208TIP3    H115567   0.094   5.532   1.995  1.0126  0.0824  1.3116
 5208TIP3    H215568   0.151   5.546   1.856 -2.2065 -1.4039 -0.2112
 5209TIP3   OH215569   3.747   6.624   4.492  0.4382  0.1054  0.5631
 5209TIP3    H115570   3.794   6.706   4.505  0.3075  0.3288 -0.3842
 5209TIP3    H215571   3.768   6.598   4.402  1.1488 -1.3187  1.1195
 5210TIP3   OH215572   2.023   0.179   2.282  0.3767  0.0011 -0.1026
 5210TIP3    H115573   1.929   0.170   2.298  0.5895  0.9904  1.8094
 5210TIP3    H215574   2.044   0.106   2.224 -1.3824 -0.8394  0.2763
 5211TIP3   OH215575   0.468   7.944   4.859  1.0863  0.8941  0.1141
 5211TIP3    H115576   0.512   7.956   4.943 -1.5627  1.2936  1.5061
 5211TIP3    H215577   0.428   7.857   4.865 -0.6828  1.6819  0.0643
 5212TIP3   OH215578   2.580   6.570   5.477 -1.3017  0.3432 -0.1697
 5212TIP3    H115579   2.664   6.537   5.508 -1.4878  0.0256 -0.0055
 5212TIP3    H215580   2.525   6.493   5.470 -0.7771  0.1560 -2.9140
 5213TIP3   OH215581   2.188   6.307   3.667  0.0440 -0.3442 -0.2489
 5213TIP3    H115582   2.121   6.261   3.717 -1.0479  0.3224 -1.0789
 5213TIP3    H215583   2.169   6.400   3.681  1.9601 -0.1197  1.0530
 5214TIP3   OH215584   8.507   6.798   1.752 -0.0532 -0.2943  0.1115
 5214TIP3    H115585   8.435   6.735   1.749 -0.6027  0.2552  1.3874
 5214TIP3    H215586   8.469   6.875   1.794  0.8151  0.6302 -0.7718
 5215TIP3   OH215587   3.250   6.991   3.297  0.0319 -0.2544  0.1730
 5215TIP3    H115588   3.265   7.080   3.329 -0.0053  0.0344 -0.5927
 5215TIP3    H215589   3.162   6.968   3.328  0.6947 -0.6519  1.7677
 5216TIP3   OH215590   2.383   7.762   2.869  0.3616  0.1079  0.2458
 5216TIP3    H115591   2.474   7.774   2.894  0.4885  0.6910 -0.4724
 5216TIP3    H215592   2.353   7.850   2.844 -0.1998 -0.1860 -0.1317
 5217TIP3   OH215593   1.189   0.163   2.100 -0.2037  0.0112  0.1415
 5217TIP3    H115594   1.207   0.082   2.052  1.8727 -0.8022  2.2318
 5217TIP3    H215595   1.262   0.221   2.080 -0.6550  0.6370  0.2645
 5218TIP3   OH215596   1.749   4.754   2.875  0.1471  0.4048  0.0250
 5218TIP3    H115597   1.714   4.844   2.872 -1.2003 -0.1410 -1.7609
 5218TIP3    H215598   1.841   4.764   2.852 -0.0573  1.3232 -0.4682
 5219TIP3   OH215599   3.718   6.050   1.793  0.8622 -0.1390 -0.3005
 5219TIP3    H115600   3.718   6.011   1.881  2.9180 -2.1215 -1.1406
 5219TIP3    H215601   3.744   6.141   1.808  1.6571 -0.5728  1.1095
 5220TIP3   OH215602   7.253   5.549   3.184 -0.2951 -0.1989 -0.0812
 5220TIP3    H115603   7.205   5.486   3.237 -0.2355 -1.9523 -2.0614
 5220TIP3    H215604   7.279   5.501   3.106  1.5046  1.7272 -0.7358
 5221TIP3   OH215605   0.978   6.058   2.257  0.0517 -0.0912  0.1189
 5221TIP3    H115606   1.021   6.099   2.182 -0.7557  2.2847  0.9111
 5221TIP3    H215607   1.042   6.065   2.328  0.6977 -2.0657 -0.2418
 5222TIP3   OH215608   5.570   2.182   2.748 -0.1842  0.4602 -0.3188
 5222TIP3    H115609   5.644   2.159   2.804  0.3843  0.2369 -1.1572
 5222TIP3    H215610   5.594   2.267   2.710  0.1227 -0.1236 -1.4365
 5223TIP3   OH215611   4.494   6.318   0.648  0.4816  0.1114  0.1588
 5223TIP3    H115612   4.546   6.286   0.722 -0.6597 -1.7990  0.1766
 5223TIP3    H215613   4.557   6.363   0.592  1.5286  0.7945  1.8368
 5224TIP3   OH215614   8.048   6.471   3.337  0.0108 -0.4359 -0.3168
 5224TIP3    H115615   7.953   6.466   3.323 -0.2770 -0.1192  1.3491
 5224TIP3    H215616   8.069   6.564   3.327 -0.2050 -0.1990  1.2111
 5225TIP3   OH215617   1.802   5.352   3.074  0.3407 -0.1891 -0.2043
 5225TIP3    H115618   1.800   5.433   3.125 -2.2732 -0.6074  0.4176
 5225TIP3    H215619   1.884   5.309   3.100  0.4167  0.9530  1.4939
 5226TIP3   OH215620   3.624   5.806   2.581  0.1973 -0.3147 -0.0266
 5226TIP3    H115621   3.611   5.898   2.603  1.0455 -0.0616 -0.5695
 5226TIP3    H215622   3.620   5.760   2.664  1.8258  0.4482  0.4849
 5227TIP3   OH215623   0.930   6.040   0.807 -0.1743  0.1481  0.4983
 5227TIP3    H115624   0.947   5.964   0.752 -0.3302 -0.2987  1.0644
 5227TIP3    H215625   0.838   6.061   0.791 -0.9001 -1.4530  2.3878
 5228TIP3   OH215626   4.695   7.101   2.882 -0.4925 -0.0698 -0.2229
 5228TIP3    H115627   4.720   7.193   2.892 -1.5674  0.1352  0.6912
 5228TIP3    H215628   4.774   7.052   2.905 -0.0439  0.6120 -0.2936
 5229TIP3   OH215629   0.291   2.831   6.863  0.0798 -0.3434  0.2362
 5229TIP3    H115630   0.211   2.782   6.846 -1.5135  2.2651 -0.0327
 5229TIP3    H215631   0.321   2.860   6.776  0.9491 -0.7418  0.3955
 5230TIP3   OH215632   1.873   7.059   4.161  0.0137  0.2808  0.3701
 5230TIP3    H115633   1.841   6.995   4.097  0.0968  0.3503  0.2590
 5230TIP3    H215634   1.939   7.109   4.113  0.2930  0.1316  0.6036
 5231TIP3   OH215635   5.822   5.820   6.675  0.3343 -0.0089  0.2572
 5231TIP3    H115636   5.750   5.851   6.730  0.0351 -1.2181  0.5706
 5231TIP3    H215637   5.788   5.740   6.634  1.2889 -0.2653 -0.0466
 5232TIP3   OH215638   7.679   2.333   5.540 -0.8338 -0.3453  0.1543
 5232TIP3    H115639   7.739   2.333   5.615  0.7357 -0.1565 -1.0760
 5232TIP3    H215640   7.639   2.419   5.541 -0.3859 -0.1402  0.4553
 5233TIP3   OH215641   0.878   7.495   3.212 -0.4256  0.0169 -0.2490
 5233TIP3    H115642   0.945   7.466   3.275  0.0932 -0.5243 -1.0381
 5233TIP3    H215643   0.798   7.500   3.264  0.0468 -0.1721  0.5216
 5234TIP3   OH215644   1.618   6.643   0.821  0.4772 -0.0417  0.0679
 5234TIP3    H115645   1.555   6.672   0.755  0.4581 -0.0264  0.0935
 5234TIP3    H215646   1.638   6.552   0.796 -1.1828 -0.7606  1.3070
 5235TIP3   OH215647   0.524   4.279   1.054  0.7760 -0.4642  0.3046
 5235TIP3    H115648   0.520   4.343   0.983  2.5432 -0.0355  0.5714
 5235TIP3    H215649   0.562   4.201   1.014  1.0915 -0.4681  0.6155
 5236TIP3   OH215650   2.124   5.430   1.085 -0.3007 -0.5977 -0.3587
 5236TIP3    H115651   2.068   5.402   1.013 -0.8011  0.6762 -0.4802
 5236TIP3    H215652   2.206   5.456   1.044 -1.0361  1.3767 -0.6436
 5237TIP3   OH215653   0.790   5.543   4.938 -0.0986 -0.2192  0.5603
 5237TIP3    H115654   0.852   5.599   4.892 -0.3901  0.0505  0.4969
 5237TIP3    H215655   0.750   5.491   4.869  1.0232 -1.3508  0.7400
 5238TIP3   OH215656   1.852   6.525   4.028  0.4927 -0.3815  0.1530
 5238TIP3    H115657   1.779   6.544   3.969  0.0089 -0.8165  0.6018
 5238TIP3    H215658   1.868   6.608   4.073 -1.6867 -1.0152  2.1953
 5239TIP3   OH215659   6.201   0.371   1.795  0.0013 -0.6335  0.1793
 5239TIP3    H115660   6.238   0.286   1.821  0.3713 -0.4094  0.3768
 5239TIP3    H215661   6.176   0.359   1.704 -2.1490 -1.7284  0.8527
 5240TIP3   OH215662   0.979   3.120   6.076 -0.6352  0.2421  0.2015
 5240TIP3    H115663   1.012   3.117   6.166  0.4145  2.2805 -0.0848
 5240TIP3    H215664   1.023   3.047   6.032  2.3327  1.9347  0.2446
 5241TIP3   OH215665   3.897   7.108   1.574  0.1628  0.3555 -0.0595
 5241TIP3    H115666   3.870   7.059   1.652 -0.1481  0.1375 -0.3011
 5241TIP3    H215667   3.931   7.191   1.607  1.6145 -0.4161  0.4306
 5242TIP3   OH215668   3.793   7.087   1.156 -0.2766  0.5552 -0.0614
 5242TIP3    H115669   3.878   7.076   1.113 -0.3356  0.6809 -0.2121
 5242TIP3    H215670   3.752   7.000   1.151 -0.5817  0.7380 -0.9107
 5243TIP3   OH215671   7.116   0.281   1.446 -0.2172  0.0919 -0.1695
 5243TIP3    H115672   7.129   0.359   1.500 -0.0950 -0.6840  0.9288
 5243TIP3    H215673   7.168   0.298   1.367 -1.2663  1.6999 -0.5480
 5244TIP3   OH215674   1.705   7.526   1.806  0.0800 -0.0141 -0.1903
 5244TIP3    H115675   1.787   7.514   1.758  0.5792  0.9114  0.4150
 5244TIP3    H215676   1.726   7.591   1.873 -1.1753  0.2925 -0.0843
 5245TIP3   OH215677   0.073   2.206   6.753  0.1053  0.2236  0.4045
 5245TIP3    H115678   0.012   2.199   6.680  0.1744  3.3382 -0.0262
 5245TIP3    H215679   0.025   2.172   6.828 -2.1249  2.3866  0.0295
 5246TIP3   OH215680   6.759   3.758   6.903 -0.3203 -0.2680 -0.9483
 5246TIP3    H115681   6.829   3.798   6.852  1.6079 -1.6989  0.5116
 5246TIP3    H215682   6.753   3.668   6.870  0.7266 -1.1116  1.0306
 5247TIP3   OH215683   0.937   0.612   0.180 -0.3325 -0.7715  0.4731
 5247TIP3    H115684   0.877   0.684   0.199 -0.3004 -0.4759 -0.5545
 5247TIP3    H215685   1.017   0.635   0.228 -0.2023  0.0466 -0.1339
 5248TIP3   OH215686   5.245   6.744   0.164  0.4292  0.2135 -1.0478
 5248TIP3    H115687   5.267   6.685   0.236 -0.4093 -0.2367 -1.1448
 5248TIP3    H215688   5.204   6.686   0.099  0.3035  0.7800 -1.4718
 5249TIP3   OH215689   3.076   6.690   3.041 -0.4892 -0.2426  0.2143
 5249TIP3    H115690   3.122   6.773   3.027  1.1126 -1.0588  0.4167
 5249TIP3    H215691   2.985   6.708   3.017  0.1322  1.1488 -1.2051
 5250TIP3   OH215692   2.069   7.808   0.972  0.2095 -0.0159  0.0727
 5250TIP3    H115693   2.060   7.761   0.889  1.3454  0.7441 -0.4879
 5250TIP3    H215694   2.114   7.746   1.030  0.8230  0.0186 -0.3637
 5251TIP3   OH215695   3.380   6.218   2.856  0.1498 -0.2345 -0.1513
 5251TIP3    H115696   3.334   6.155   2.912 -0.5291  0.0036 -0.4359
 5251TIP3    H215697   3.378   6.300   2.906 -3.7402  0.9484 -2.0800
 5252TIP3   OH215698   2.437   6.847   3.976  0.5960 -0.5246 -0.0236
 5252TIP3    H115699   2.512   6.804   4.018  0.9366 -1.7678 -1.8394
 5252TIP3    H215700   2.369   6.848   4.043  2.4057  1.1753  1.8762
 5253TIP3   OH215701   2.503   5.802   2.545 -0.1254  0.9404 -0.1780
 5253TIP3    H115702   2.530   5.868   2.609  1.6875  0.3118 -0.2550
 5253TIP3    H215703   2.568   5.809   2.475 -0.2982 -0.4785 -0.4909
 5254TIP3   OH215704   3.511   6.449   2.889 -0.3791 -0.2755  0.1151
 5254TIP3    H115705   3.439   6.492   2.934 -0.2425 -0.9065  0.9423
 5254TIP3    H215706   3.590   6.492   2.922 -0.3698  0.4021 -0.7758
 5255TIP3   OH215707   1.999   7.457   0.252  0.0962 -0.0616  0.1017
 5255TIP3    H115708   1.917   7.442   0.205  0.3690 -2.5846  0.3902
 5255TIP3    H215709   2.046   7.521   0.199 -1.2196 -0.0447 -1.0761
 5256TIP3   OH215710   1.966   7.151   0.972 -0.3098 -0.2159  0.4812
 5256TIP3    H115711   1.944   7.083   0.908  2.1596 -1.5682  1.0084
 5256TIP3    H215712   1.973   7.231   0.920  0.3822 -1.0540 -0.7359
 5257TIP3   OH215713   1.095   5.758   1.573 -0.1233 -0.1651 -0.4139
 5257TIP3    H115714   1.100   5.852   1.588  0.7271 -0.1228 -0.9167
 5257TIP3    H215715   1.130   5.719   1.654 -1.4673 -0.0774  0.2144
 5258TIP3   OH215716   4.570   6.074   2.998  0.2580 -0.0525  0.2459
 5258TIP3    H115717   4.547   6.088   2.906 -0.5952  0.0472  0.4679
 5258TIP3    H215718   4.521   5.996   3.024  2.3172 -1.4649 -0.0206
 5259TIP3   OH215719   3.319   7.147   0.675 -0.7081  0.4038  0.0851
 5259TIP3    H115720   3.372   7.069   0.693 -0.2023  0.7564  0.1489
 5259TIP3    H215721   3.282   7.171   0.760 -1.6622 -0.3345 -0.1121
 5260TIP3   OH215722   2.288   6.594   3.815 -0.6056 -0.5363 -0.0025
 5260TIP3    H115723   2.225   6.574   3.884  0.4019 -0.2646  1.0089
 5260TIP3    H215724   2.374   6.578   3.854  0.0326  0.7539 -0.8045
 5261TIP3   OH215725   2.008   7.032   4.688  0.4303  0.0569 -0.4500
 5261TIP3    H115726   2.054   7.091   4.747  0.2158  1.0751 -1.2820
 5261TIP3    H215727   1.915   7.042   4.711  0.4686 -0.7061  0.0695
 5262TIP3   OH215728   3.441   6.679   3.833  0.3182 -0.2048  0.3247
 5262TIP3    H115729   3.511   6.615   3.827  1.6061  1.1118  1.0072
 5262TIP3    H215730   3.429   6.694   3.927 -0.9200 -0.4465  0.2200
 5263TIP3   OH215731   5.518   0.204   0.785  0.0468  0.2075  0.5465
 5263TIP3    H115732   5.569   0.183   0.707 -1.2960 -0.0928 -0.2763
 5263TIP3    H215733   5.531   0.129   0.844 -0.0048 -0.1967  0.0470
 5264TIP3   OH215734   6.170   0.248   3.615  0.1132  0.1456  0.2143
 5264TIP3    H115735   6.109   0.174   3.609 -0.2737  0.5404 -0.8600
 5264TIP3    H215736   6.236   0.231   3.548  0.3354  0.4888  0.3426
 5265TIP3   OH215737   4.997   6.787   3.388  0.0975  0.5191 -0.4428
 5265TIP3    H115738   5.058   6.780   3.315  0.3262  3.2158 -0.5659
 5265TIP3    H215739   5.051   6.773   3.466  0.4710  0.7297 -0.6623
 5266TIP3   OH215740   7.714   1.534   6.061 -0.3888 -0.2067 -0.4227
 5266TIP3    H115741   7.692   1.581   6.141  0.1560 -0.6096 -0.0325
 5266TIP3    H215742   7.789   1.581   6.025 -0.6461 -0.0133 -0.7043
 5267TIP3   OH215743   5.929   0.637   0.908  0.0778  0.2461  0.0361
 5267TIP3    H115744   5.836   0.655   0.927  0.0114  0.1748 -0.2162
 5267TIP3    H215745   5.967   0.617   0.993  0.6138  3.5684  0.6534
 5268TIP3   OH215746   5.239   7.959   0.402  0.5169  0.0704 -0.2098
 5268TIP3    H115747   5.239   8.018   0.326  1.7785 -0.1430 -0.3837
 5268TIP3    H215748   5.329   7.927   0.408  0.1430 -0.8590  0.6518
 5269TIP3   OH215749   5.171   7.767   0.931 -0.1855  0.0471 -0.2265
 5269TIP3    H115750   5.191   7.705   1.002  0.8278  0.3048 -0.2827
 5269TIP3    H215751   5.157   7.851   0.975 -1.9892 -0.2943 -0.1093
 5270TIP3   OH215752   0.979   7.150   2.412  0.4406 -0.0830 -0.6280
 5270TIP3    H115753   1.046   7.218   2.418  1.1529 -0.9156  1.6044
 5270TIP3    H215754   0.986   7.116   2.323  3.7669 -0.8744 -0.1272
 5271TIP3   OH215755   2.291   6.418   0.505 -0.1279 -0.0557 -0.3622
 5271TIP3    H115756   2.229   6.483   0.538 -2.1108 -1.9480 -0.2985
 5271TIP3    H215757   2.351   6.402   0.578 -0.2027  0.9916 -0.0642
 5272TIP3   OH215758   4.263   7.564   0.376 -0.0842 -0.4943  0.2267
 5272TIP3    H115759   4.309   7.522   0.448  1.7011 -0.0060 -0.6068
 5272TIP3    H215760   4.186   7.508   0.361  1.2201 -2.3752  0.4144
 5273TIP3   OH215761   1.800   7.822   1.282  0.0038 -0.3524 -0.0947
 5273TIP3    H115762   1.844   7.900   1.316  0.5441 -0.3623 -0.7442
 5273TIP3    H215763   1.771   7.775   1.359  0.6702 -0.0691  0.3317
 5274TIP3   OH215764   4.424   8.005   0.842  0.4566  0.1657  0.3132
 5274TIP3    H115765   4.348   7.982   0.789  0.0134 -1.3771  1.5740
 5274TIP3    H215766   4.487   7.936   0.826  0.7608  0.3000  0.9112
 5275TIP3   OH215767   5.712   0.519   3.727 -0.3519  0.2053 -0.7746
 5275TIP3    H115768   5.716   0.587   3.794  1.3283  0.0724 -0.7125
 5275TIP3    H215769   5.672   0.562   3.651 -0.7168  0.8246 -0.2274
 5276TIP3   OH215770   4.390   5.935   1.159  0.1262  0.3116  0.0068
 5276TIP3    H115771   4.453   5.863   1.158  1.1551  1.2144 -0.9805
 5276TIP3    H215772   4.309   5.896   1.127 -0.1907 -1.1682  2.4521
 5277TIP3   OH215773   6.434   0.829   6.097 -0.4230 -0.2444 -0.2858
 5277TIP3    H115774   6.492   0.869   6.163 -0.5969 -1.4068  0.5970
 5277TIP3    H215775   6.351   0.818   6.143 -1.2748  1.1245 -1.4525
 5278TIP3   OH215776   5.748   0.748   1.643  0.2210 -0.3165  0.1926
 5278TIP3    H115777   5.671   0.696   1.620 -0.1876  0.3475  0.0741
 5278TIP3    H215778   5.804   0.687   1.691 -0.3389 -0.8220  0.2017
 5279TIP3   OH215779   3.231   6.782   0.689  0.9666 -0.4930  0.7112
 5279TIP3    H115780   3.218   6.688   0.678 -1.0636  0.0352 -1.7737
 5279TIP3    H215781   3.204   6.820   0.605  4.2504  2.0845  0.7215
 5280TIP3   OH215782   2.095   6.281   1.235 -0.0121 -0.2430 -0.0923
 5280TIP3    H115783   2.042   6.206   1.210 -0.4504  0.1470 -0.3329
 5280TIP3    H215784   2.157   6.246   1.299 -2.1634 -0.1880  2.0823
 5281TIP3   OH215785   3.283   6.296   3.746 -0.2843 -0.4489  0.1049
 5281TIP3    H115786   3.230   6.365   3.704 -1.5737 -1.7309 -0.3949
 5281TIP3    H215787   3.371   6.310   3.710 -0.6573  0.5723 -0.4539
 5282TIP3   OH215788   3.468   6.331   2.611 -0.1982 -0.0899 -0.0184
 5282TIP3    H115789   3.476   6.427   2.610  0.5584 -0.1554  0.0300
 5282TIP3    H215790   3.440   6.310   2.700  1.0818 -0.0383  0.3972
 5283TIP3   OH215791   2.345   5.634   3.746  0.1291  0.2829 -0.0134
 5283TIP3    H115792   2.373   5.712   3.698 -0.2366 -0.3449 -1.2717
 5283TIP3    H215793   2.254   5.651   3.768  1.0896  1.8415  3.0989
 5284TIP3   OH215794   8.092   0.566   2.291 -0.4350 -0.0790  0.0079
 5284TIP3    H115795   8.059   0.532   2.207 -0.5641 -0.4452  0.2059
 5284TIP3    H215796   8.014   0.587   2.341 -0.3541  1.7027 -0.5860
 5285TIP3   OH215797   1.795   5.501   1.120  0.5233  0.3291  0.4925
 5285TIP3    H115798   1.780   5.466   1.208  0.7187 -2.5443 -0.5779
 5285TIP3    H215799   1.724   5.564   1.108 -2.0654 -2.3285  1.1320
 5286TIP3   OH215800   2.163   5.752   1.724  0.4985 -0.0062 -0.2299
 5286TIP3    H115801   2.165   5.838   1.767  1.7053  0.1070 -0.5044
 5286TIP3    H215802   2.077   5.749   1.682  0.4105  1.0350 -0.1454
 5287TIP3   OH215803   2.444   5.891   0.810 -0.5243 -0.3012 -0.2050
 5287TIP3    H115804   2.501   5.845   0.871  1.1854  1.2676 -0.5902
 5287TIP3    H215805   2.369   5.918   0.863 -1.4250 -3.2039  0.0962
 5288TIP3   OH215806   4.800   5.909   1.291 -0.7145  0.2695  0.0097
 5288TIP3    H115807   4.730   5.880   1.349 -1.4066  1.7858 -0.0458
 5288TIP3    H215808   4.872   5.932   1.351 -0.8944  0.4042  0.1740
 5289TIP3   OH215809   4.022   6.032   2.137  0.8132  1.2822  0.5131
 5289TIP3    H115810   4.060   6.069   2.217 -2.3483  0.2656  2.6358
 5289TIP3    H215811   4.052   5.941   2.136 -2.9705 -0.1865  3.4053
 5290TIP3   OH215812   2.230   5.291   0.079 -0.4485 -0.5792  0.2516
 5290TIP3    H115813   2.147   5.310   0.124 -0.5154  0.3362 -0.2532
 5290TIP3    H215814   2.211   5.306  -0.014  0.4759  0.3781  0.2017
 5291TIP3   OH215815   4.802   0.639   1.711  0.4574  0.4801  0.3629
 5291TIP3    H115816   4.751   0.661   1.789  1.4064  1.0320  0.8319
 5291TIP3    H215817   4.797   0.543   1.706  0.1327  0.4643  0.9121
 5292TIP3   OH215818   2.302   5.683   0.612  0.4031 -0.0719  0.5468
 5292TIP3    H115819   2.332   5.636   0.689  1.5813  0.2248  0.2796
 5292TIP3    H215820   2.227   5.735   0.643  0.5566 -0.3330  1.3623
 5293TIP3   OH215821   1.886   7.345   1.513 -0.0481 -0.1208 -0.5109
 5293TIP3    H115822   1.917   7.391   1.591 -1.0703 -0.6785  0.2477
 5293TIP3    H215823   1.940   7.266   1.509  0.7895  0.4740 -1.0377
 5294TIP3   OH215824   4.706   6.933   0.025  0.2026  0.2574 -0.0263
 5294TIP3    H115825   4.734   7.025   0.023  1.7718 -0.1839  0.8838
 5294TIP3    H215826   4.783   6.884  -0.001 -0.7427 -0.8120 -0.8884
 5295TIP3   OH215827   3.133   7.444   1.608  0.0230  0.0328 -0.2312
 5295TIP3    H115828   3.038   7.452   1.619 -0.1552 -0.1796 -1.5627
 5295TIP3    H215829   3.145   7.419   1.516  1.2783 -1.6699  0.3678
 5296TIP3   OH215830   3.628   5.495   0.637 -0.0174 -0.3218  0.3933
 5296TIP3    H115831   3.651   5.452   0.554 -0.0128 -1.3296  0.9133
 5296TIP3    H215832   3.712   5.524   0.673  0.2494 -2.1074  1.2513
 5297TIP3   OH215833   3.908   5.656   2.613 -0.0212 -0.4332 -0.0589
 5297TIP3    H115834   3.945   5.714   2.679  0.6673  0.1697 -0.9685
 5297TIP3    H215835   3.814   5.671   2.617 -0.0129 -0.6841  1.0544
 5298TIP3   OH215836   2.782   6.174   0.578  0.4154  0.0674  0.1255
 5298TIP3    H115837   2.799   6.092   0.625  1.0711  0.7842  1.1715
 5298TIP3    H215838   2.690   6.194   0.597  0.3926 -0.1692  0.2689
 5299TIP3   OH215839   6.014   1.073   1.906 -0.0488  0.2962 -0.3173
 5299TIP3    H115840   6.050   1.027   1.830 -0.5864 -0.4977 -0.0906
 5299TIP3    H215841   5.919   1.067   1.895 -0.1471 -0.9942  1.1126
 5300TIP3   OH215842   7.873   1.406   2.469  0.2996  0.5238 -0.8355
 5300TIP3    H115843   7.866   1.482   2.412 -3.0647  0.8523 -0.0912
 5300TIP3    H215844   7.879   1.331   2.409 -0.8223  1.0517 -1.6212
 5301TIP3   OH215845   3.473   7.291   2.647  0.2198 -0.1160  0.0316
 5301TIP3    H115846   3.379   7.297   2.632  0.6155  0.0428 -2.6238
 5301TIP3    H215847   3.494   7.199   2.630  0.4410 -0.3205  1.3529
 5302TIP3   OH215848   8.257   3.371   5.744 -0.9011 -0.0029  0.7366
 5302TIP3    H115849   8.252   3.290   5.794  0.5900 -0.2992  0.4277
 5302TIP3    H215850   8.262   3.440   5.810 -1.3554 -0.2193  0.9975
 5303TIP3   OH215851   2.128   7.217   1.523 -0.4572 -0.8717  0.1562
 5303TIP3    H115852   2.158   7.203   1.613  0.6870  1.2279  0.1321
 5303TIP3    H215853   2.204   7.252   1.477 -2.0074  1.5850 -0.6841
 5304TIP3   OH215854   1.155   6.619   2.609 -0.1228  0.5216 -0.1068
 5304TIP3    H115855   1.097   6.612   2.533  2.1136  1.6168 -1.9926
 5304TIP3    H215856   1.195   6.533   2.616  0.5298  0.7515 -0.9121
 5305TIP3   OH215857   1.254   6.670   1.730  0.2522 -0.8747  0.3546
 5305TIP3    H115858   1.179   6.698   1.782  0.9236  1.2802  0.2109
 5305TIP3    H215859   1.322   6.652   1.795  0.0888 -1.3125  0.4025
 5306TIP3   OH215860   4.594   1.489   1.678  0.4869 -0.2890  0.5656
 5306TIP3    H115861   4.623   1.563   1.624  0.1393  0.4478  1.3753
 5306TIP3    H215862   4.512   1.520   1.718  0.5389 -0.9750  1.2090
 5307TIP3   OH215863   3.530   7.873   0.512 -0.2554  0.4888  0.2164
 5307TIP3    H115864   3.520   7.817   0.589  0.2443  1.3259  0.8936
 5307TIP3    H215865   3.457   7.847   0.455 -1.7419  1.1618  1.7813
 5308TIP3   OH215866   2.161   7.038   1.347  0.4243  0.2030  0.6693
 5308TIP3    H115867   2.105   7.096   1.399 -0.2463  1.6065 -1.5627
 5308TIP3    H215868   2.110   7.020   1.268  2.0875 -0.5524 -0.2517
 5309TIP3   OH215869   4.082   7.313   1.598 -0.0564  0.9805  0.0764
 5309TIP3    H115870   4.151   7.293   1.661 -0.1300 -0.4894 -0.2870
 5309TIP3    H215871   4.101   7.402   1.569  1.3764  0.7853  0.3771
 5310TIP3   OH215872   0.851   5.878   1.248  0.4100 -0.2781 -0.0264
 5310TIP3    H115873   0.770   5.860   1.201  0.5706 -1.7580  0.2351
 5310TIP3    H215874   0.823   5.917   1.331  0.0610  0.8465 -0.6644
 5311TIP3   OH215875   5.847   1.256   0.979 -0.1227 -0.1901  0.2233
 5311TIP3    H115876   5.863   1.339   1.025  0.7811 -0.7016  0.8524
 5311TIP3    H215877   5.910   1.195   1.018 -1.4848 -1.4460  0.4778
 5312TIP3   OH215878   2.724   6.276   1.991  0.4069 -0.1143  0.5673
 5312TIP3    H115879   2.775   6.330   2.051 -1.1592  0.7830  1.0866
 5312TIP3    H215880   2.757   6.187   2.006  4.1843  0.8098 -1.4621
 5313TIP3   OH215881   3.408   6.657   2.232 -0.2825  0.0785 -0.5418
 5313TIP3    H115882   3.435   6.593   2.298 -2.3875 -0.3432 -0.0666
 5313TIP3    H215883   3.422   6.612   2.148 -0.6766 -0.5904 -0.2534
 5314TIP3   OH215884   7.579   0.160   1.014  0.3661 -0.1261  0.4282
 5314TIP3    H115885   7.660   0.122   1.047  0.6512 -0.3055 -0.4430
 5314TIP3    H215886   7.579   0.250   1.047  0.9444 -0.1150  0.4013
 5315TIP3   OH215887   7.771   0.594   3.182 -0.1692 -0.1227  0.0327
 5315TIP3    H115888   7.812   0.527   3.128 -0.2745  1.9144 -2.6802
 5315TIP3    H215889   7.844   0.632   3.232  0.8706  1.4731 -2.5790
 5316TIP3   OH215890   3.931   6.312   0.821  0.1452  0.4519 -0.6077
 5316TIP3    H115891   4.014   6.329   0.777  0.4696  0.3552 -0.0255
 5316TIP3    H215892   3.880   6.262   0.756  0.9717 -0.5066 -0.5296
 5317TIP3   OH215893   2.200   6.395   0.122 -0.4719  0.1919 -0.0829
 5317TIP3    H115894   2.277   6.339   0.124 -1.2807 -0.9140  0.4325
 5317TIP3    H215895   2.205   6.439   0.037  1.3180  0.9961  0.4098
 5318TIP3   OH215896   6.253   0.512   2.193  0.0793 -0.4409 -0.2957
 5318TIP3    H115897   6.209   0.583   2.239  0.0296 -1.4417  1.2225
 5318TIP3    H215898   6.198   0.495   2.117 -1.4634 -0.7950  0.8750
 5319TIP3   OH215899   4.396   7.883   1.727  0.1134 -0.0734 -0.1545
 5319TIP3    H115900   4.370   7.963   1.682 -1.3595  0.0198  0.8462
 5319TIP3    H215901   4.403   7.817   1.657 -3.3552 -0.2403 -0.4462
 5320TIP3   OH215902   4.179   7.775   1.377  0.1184 -0.8724  0.2056
 5320TIP3    H115903   4.235   7.845   1.410  0.0627 -1.0148  0.6080
 5320TIP3    H215904   4.141   7.810   1.297 -1.0785  0.1379  1.1937
 5321TIP3   OH215905   3.398   5.793   6.546 -0.2332 -0.5647 -0.2630
 5321TIP3    H115906   3.411   5.883   6.577 -0.4941  0.0092 -1.8195
 5321TIP3    H215907   3.431   5.739   6.618 -1.0234  0.7475  1.1218
 5322TIP3   OH215908   8.181   0.436   0.356 -0.1717 -0.2791  0.0687
 5322TIP3    H115909   8.160   0.347   0.384 -1.4044 -0.2111 -0.6322
 5322TIP3    H215910   8.246   0.424   0.286  0.2558 -0.5847  0.5104
 5323TIP3   OH215911   5.612   0.851   3.391 -0.6510  0.8247  0.2426
 5323TIP3    H115912   5.541   0.884   3.336  0.0387  1.1884 -0.4311
 5323TIP3    H215913   5.689   0.851   3.334 -0.2038 -0.0003  0.8369
 5324TIP3   OH215914   6.573   3.824   5.128 -0.2597  0.4439  0.2853
 5324TIP3    H115915   6.532   3.753   5.078 -1.0674  1.0334  0.1071
 5324TIP3    H215916   6.600   3.782   5.210  0.4505 -0.3674 -0.3432
 5325TIP3   OH215917   4.697   6.799   2.550  0.0104 -0.5706 -0.4673
 5325TIP3    H115918   4.662   6.882   2.584  1.5740 -0.0482 -0.1212
 5325TIP3    H215919   4.689   6.738   2.624 -1.9650 -0.9873 -0.9951
 5326TIP3   OH215920   4.638   7.743   1.431  0.0158 -0.1697  0.3718
 5326TIP3    H115921   4.624   7.650   1.448  0.5193 -0.4217 -0.5497
 5326TIP3    H215922   4.554   7.785   1.451 -0.1737 -0.7999  0.8991
 5327TIP3   OH215923   1.678   2.808   6.225 -0.0231 -0.5625 -0.8413
 5327TIP3    H115924   1.683   2.902   6.244  0.1672 -0.2938 -2.1611
 5327TIP3    H215925   1.739   2.767   6.287 -0.1872  0.1694 -0.1895
 5328TIP3   OH215926   6.907   0.590   2.453 -0.5331  0.0529  0.2713
 5328TIP3    H115927   6.824   0.603   2.499 -0.7651 -0.1495 -0.0994
 5328TIP3    H215928   6.948   0.677   2.454 -0.5286  0.0484  0.8784
 5329TIP3   OH215929   6.021   5.888   2.415 -0.3386 -0.0437 -0.0696
 5329TIP3    H115930   5.928   5.908   2.419 -0.1685  0.6740  0.5434
 5329TIP3    H215931   6.050   5.921   2.330 -0.6986 -0.5335 -0.3836
 5330TIP3   OH215932   4.526   6.380   1.416 -0.3077 -0.3302  0.1506
 5330TIP3    H115933   4.489   6.292   1.422  0.3308 -0.9044 -3.2244
 5330TIP3    H215934   4.474   6.422   1.347  2.1186  0.5019 -1.2151
 5331TIP3   OH215935   4.374   7.898   3.602  0.7193  0.1910  0.4569
 5331TIP3    H115936   4.411   7.856   3.680 -0.0421 -0.4866  0.4537
 5331TIP3    H215937   4.366   7.990   3.627  1.8693  0.2496  0.6577
 5332TIP3   OH215938   2.931   7.594   2.449 -0.4133 -0.3509 -0.1058
 5332TIP3    H115939   2.872   7.666   2.472  0.6343  0.2688  0.6948
 5332TIP3    H215940   2.975   7.625   2.369  0.3371  0.0822  0.4701
 5333TIP3   OH215941   4.813   5.085   3.414  0.3926 -0.2490  0.5947
 5333TIP3    H115942   4.745   5.046   3.359  0.7728  1.3005 -1.0241
 5333TIP3    H215943   4.843   5.013   3.470 -0.3015 -1.7600 -0.9378
 5334TIP3   OH215944   3.518   7.077   3.082 -0.6963  0.4944 -0.0002
 5334TIP3    H115945   3.513   7.129   3.002 -0.2605  0.6731  0.0871
 5334TIP3    H215946   3.564   7.133   3.144 -1.4052  0.5205  0.5057
 5335TIP3   OH215947   5.643  -0.008   2.126 -0.4324 -0.2370  0.0902
 5335TIP3    H115948   5.725  -0.005   2.076 -1.0373  0.7327 -0.8628
 5335TIP3    H215949   5.649   0.068   2.185 -0.8520  0.1184 -0.3214
 5336TIP3   OH215950   2.474   6.339   1.480 -0.4471 -0.5405 -0.2751
 5336TIP3    H115951   2.531   6.348   1.404  0.5373  0.4603  0.5663
 5336TIP3    H215952   2.526   6.371   1.553 -2.0670  0.3469  0.5208
 5337TIP3   OH215953   4.697   0.053   0.692 -0.2528 -0.1798  0.2164
 5337TIP3    H115954   4.789   0.060   0.715 -0.1827 -1.4280  0.3452
 5337TIP3    H215955   4.650   0.088   0.768  0.0834 -0.6153  0.6255
 5338TIP3   OH215956   6.786   1.064   2.209  0.6497  0.0694 -0.3428
 5338TIP3    H115957   6.759   1.155   2.215  2.3962  0.6730 -1.2468
 5338TIP3    H215958   6.848   1.052   2.282  1.4445 -0.0133 -1.0251
 5339TIP3   OH215959   1.805   6.025   0.189  0.0476  0.1282 -0.2440
 5339TIP3    H115960   1.870   6.089   0.219  0.5594 -0.4069 -0.1905
 5339TIP3    H215961   1.801   6.039   0.094 -0.1377  0.5135 -0.1776
 5340TIP3   OH215962   7.264   0.607   0.146 -0.0901 -0.5808  0.4763
 5340TIP3    H115963   7.264   0.563   0.231  2.1424 -2.8443 -0.6140
 5340TIP3    H215964   7.192   0.568   0.098 -1.5264  0.8944  1.3811
 5341TIP3   OH215965   7.938   3.871   6.472 -0.3057 -0.1412  0.0357
 5341TIP3    H115966   7.993   3.950   6.479  0.5957 -0.4436 -3.0014
 5341TIP3    H215967   7.850   3.905   6.453 -0.8405  0.2599  2.9781
 5342TIP3   OH215968   3.192   6.917   2.924 -0.4928 -0.1203  0.0258
 5342TIP3    H115969   3.126   6.909   2.855  0.6853  2.2723 -1.4362
 5342TIP3    H215970   3.275   6.900   2.880  0.1244 -0.3070  1.2393
 5343TIP3   OH215971   7.849   0.055   0.955  0.3112  0.0463 -0.0255
 5343TIP3    H115972   7.916   0.027   1.017 -0.6222  0.4635  1.1740
 5343TIP3    H215973   7.897   0.101   0.886  1.1514  1.1872  1.3150
 5344TIP3   OH215974   1.373   3.433   6.555  0.0368  0.1829 -0.4210
 5344TIP3    H115975   1.343   3.497   6.492  0.0799 -0.2802 -0.9156
 5344TIP3    H215976   1.327   3.352   6.531  1.3396 -0.4217 -0.9134
 5345TIP3   OH215977   4.011   6.013   3.556  0.0125  0.4901  0.7824
 5345TIP3    H115978   4.083   6.076   3.554  0.6718 -0.2829 -1.1661
 5345TIP3    H215979   4.055   5.928   3.562 -0.8284  0.1427  2.1351
 5346TIP3   OH215980   1.953   6.421   2.951  0.2270 -0.7576  0.5885
 5346TIP3    H115981   1.980   6.486   2.887 -2.7237  0.3056  0.3340
 5346TIP3    H215982   2.030   6.407   3.006  2.4766 -0.8867 -2.4721
 5347TIP3   OH215983   1.565   7.849   2.367 -0.0524  0.4508 -0.0684
 5347TIP3    H115984   1.524   7.770   2.401 -1.2187  2.0399  2.3752
 5347TIP3    H215985   1.492   7.904   2.339  0.6964  1.1266 -0.7281
 5348TIP3   OH215986   5.802   0.865   3.777  0.7523  0.8433 -0.6071
 5348TIP3    H115987   5.732   0.829   3.831  2.3679  1.6810  2.1819
 5348TIP3    H215988   5.757   0.914   3.708 -1.3832 -1.5056 -0.9744
 5349TIP3   OH215989   4.363   7.032   2.137  0.3299  0.6042 -0.2480
 5349TIP3    H115990   4.418   7.109   2.125 -2.6107  3.3280  2.5524
 5349TIP3    H215991   4.284   7.051   2.085  0.2604 -1.2953 -0.8588
 5350TIP3   OH215992   2.722   7.266   3.185 -0.7182 -0.7287  0.4207
 5350TIP3    H115993   2.707   7.203   3.256 -0.3362 -1.3231 -0.0207
 5350TIP3    H215994   2.653   7.247   3.121  0.2621 -1.6498 -0.3642
 5351TIP3   OH215995   2.381   6.488   4.356 -0.4931  0.2115  0.1054
 5351TIP3    H115996   2.428   6.461   4.435 -0.3621  1.6443  0.5265
 5351TIP3    H215997   2.301   6.529   4.389 -0.7737  0.1780 -0.5342
 5352TIP3   OH215998   4.234   6.611   1.786  0.2673 -1.1426  0.2525
 5352TIP3    H115999   4.180   6.668   1.732  0.6812 -0.0216  1.0197
 5352TIP3    H216000   4.311   6.663   1.807  1.6957 -2.7456 -0.8704
 5353TIP3   OH216001   6.796   0.395   2.949 -0.2292 -0.2542 -0.7478
 5353TIP3    H116002   6.793   0.388   3.045  0.7782  0.5965 -0.6447
 5353TIP3    H216003   6.750   0.316   2.918 -1.0562 -0.2538  0.4279
 5354TIP3   OH216004   4.539   7.478   1.374  0.2052 -0.5759  0.2167
 5354TIP3    H116005   4.496   7.438   1.450  0.7204 -1.6565 -0.0505
 5354TIP3    H216006   4.626   7.438   1.372  0.2821 -0.3721 -0.8057
 5355TIP3   OH216007   6.202   0.095   0.714 -0.0371  0.4896  0.3786
 5355TIP3    H116008   6.121   0.048   0.732  0.4201 -0.4925 -0.0976
 5355TIP3    H216009   6.240   0.050   0.638  0.5604  1.4291  0.1142
 5356TIP3   OH216010   6.037   0.471   2.615  0.4771 -0.3472 -0.4903
 5356TIP3    H116011   6.103   0.535   2.587  0.0141 -0.1320 -1.1253
 5356TIP3    H216012   5.955   0.522   2.618  0.2850 -0.6844 -0.0258
 5357TIP3   OH216013   4.549   5.821   4.270  0.3705  0.5256 -0.5177
 5357TIP3    H116014   4.582   5.896   4.319 -1.0521  1.0702 -0.3524
 5357TIP3    H216015   4.503   5.860   4.195 -0.8782 -0.1383 -0.1156
 5358TIP3   OH216016   0.831   6.669   1.360 -0.4073 -0.0234  0.5798
 5358TIP3    H116017   0.886   6.726   1.414  0.2829  0.5598 -0.7104
 5358TIP3    H216018   0.744   6.710   1.364  0.2500  1.6048 -0.9573
 5359TIP3   OH216019   5.511   8.008   3.313  0.6272  0.0631  0.1198
 5359TIP3    H116020   5.501   7.957   3.394  0.2826  3.2401  2.1570
 5359TIP3    H216021   5.422   8.031   3.288  0.8790  1.1955  0.2522
 5360TIP3   OH216022   7.652   0.265   0.715 -0.3177  0.1687  0.1142
 5360TIP3    H116023   7.742   0.246   0.741 -0.6740 -2.6283 -0.5679
 5360TIP3    H216024   7.601   0.253   0.795 -0.4174 -0.9342 -0.1047
 5361TIP3   OH216025   1.961   2.404   5.035  0.6567 -0.4813  0.8107
 5361TIP3    H116026   1.897   2.401   4.963  1.1990  0.2857  0.2852
 5361TIP3    H216027   2.035   2.351   5.004 -0.0021 -1.9609  1.7120
 5362TIP3   OH216028   7.156   0.318   2.275 -0.3984 -0.1355  0.0630
 5362TIP3    H116029   7.083   0.357   2.227  0.2284  1.5502  0.4387
 5362TIP3    H216030   7.234   0.341   2.224  0.0561 -0.1754  0.7249
 5363TIP3   OH216031   6.182   0.308   0.898 -0.6327  0.3313 -0.8977
 5363TIP3    H116032   6.190   0.225   0.851  0.2488 -0.1968  0.1520
 5363TIP3    H216033   6.200   0.375   0.832 -1.8015 -0.2888 -1.8556
 5364TIP3   OH216034   3.585   6.704   0.055 -0.0667 -0.3397 -0.1668
 5364TIP3    H116035   3.578   6.611   0.076  1.4992 -0.3424  0.3695
 5364TIP3    H216036   3.676   6.726   0.072 -0.5545  1.4247  0.2569
 5365TIP3   OH216037   0.387   3.376   6.217  0.0669  0.0271 -0.1295
 5365TIP3    H116038   0.304   3.336   6.191  0.0113  0.8056 -1.1799
 5365TIP3    H216039   0.376   3.469   6.196  1.9399 -0.1856 -2.1975
 5366TIP3   OH216040   3.645   6.228   2.391 -0.0147 -0.0321  0.4880
 5366TIP3    H116041   3.726   6.272   2.366 -0.2754  0.2018  0.0437
 5366TIP3    H216042   3.607   6.285   2.458 -0.0216  0.0797  0.3905
 5367TIP3   OH216043   6.903   3.602   6.474 -0.0906  0.2332  0.2632
 5367TIP3    H116044   6.839   3.557   6.530 -0.3422  0.4273  0.1294
 5367TIP3    H216045   6.988   3.570   6.506 -0.2361  0.2813  0.7071
 5368TIP3   OH216046   6.402   0.422   2.630  0.6463 -0.5134  0.1519
 5368TIP3    H116047   6.496   0.433   2.613  0.3364 -0.8777 -1.9051
 5368TIP3    H216048   6.360   0.492   2.580 -0.2189 -0.7815  0.4948
 5369TIP3   OH216049   0.101   3.535   6.924 -0.6226  0.4133 -0.2872
 5369TIP3    H116050   0.061   3.562   6.841  2.2849  0.5516 -1.7276
 5369TIP3    H216051   0.092   3.440   6.924 -2.1593  0.5414  0.0904
 5370TIP3   OH216052   4.072   7.285   2.263  0.0377  0.5712 -0.1165
 5370TIP3    H116053   4.088   7.350   2.332 -0.6467  1.1452 -0.4926
 5370TIP3    H216054   3.991   7.314   2.221 -1.0142 -1.2417  0.5581
 5371TIP3   OH216055   8.207   0.975   1.188  0.3614  0.1952 -0.7105
 5371TIP3    H116056   8.199   0.898   1.132  0.0560  1.0061 -1.7956
 5371TIP3    H216057   8.125   1.022   1.175  0.0832  0.1518  0.7952
 5372TIP3   OH216058   2.645   7.565   1.493  0.4793  0.0585  0.5423
 5372TIP3    H116059   2.638   7.653   1.529 -1.1758  0.0042  0.3963
 5372TIP3    H216060   2.601   7.570   1.408  1.6310 -0.5641 -0.1044
 5373TIP3   OH216061   4.513   7.725   3.068 -0.3853 -0.2514  0.2751
 5373TIP3    H116062   4.547   7.804   3.110  0.8400  0.0712 -1.2561
 5373TIP3    H216063   4.507   7.661   3.138  2.4321  0.0145  0.8044
 5374TIP3   OH216064   5.009   7.757   2.139 -0.2069  0.7296  0.3141
 5374TIP3    H116065   5.062   7.782   2.214 -0.4292 -1.0060  1.0718
 5374TIP3    H216066   4.975   7.671   2.161  0.7563 -0.3953 -2.3102
 5375TIP3   OH216067   4.078   5.142   0.763 -0.4600 -0.0147  0.6113
 5375TIP3    H116068   4.114   5.137   0.674  0.1068 -0.2494  0.8522
 5375TIP3    H216069   4.099   5.057   0.802  0.6252  0.6463  1.4761
 5376TIP3   OH216070   5.558   0.339   1.155  0.3453  0.2013 -0.4552
 5376TIP3    H116071   5.545   0.401   1.226 -0.5116 -0.1259 -0.3256
 5376TIP3    H216072   5.474   0.336   1.110  0.6153 -0.2788 -0.9328
 5377TIP3   OH216073   2.920   6.329   2.334 -0.2885 -0.2954  0.2008
 5377TIP3    H116074   2.991   6.370   2.382 -2.0085  1.1583  1.5930
 5377TIP3    H216075   2.920   6.238   2.362  1.7253 -0.5874 -0.6978
 5378TIP3   OH216076   5.890   6.852   4.692  0.4350 -0.3844  0.6592
 5378TIP3    H116077   5.858   6.942   4.688 -1.9489 -1.1031  2.6555
 5378TIP3    H216078   5.811   6.798   4.689  1.7515 -2.3578  0.8664
 5379TIP3   OH216079   0.780   1.889   5.872 -0.1207 -0.1818 -0.0929
 5379TIP3    H116080   0.698   1.873   5.920  1.1517 -2.2938  1.4701
 5379TIP3    H216081   0.827   1.953   5.926 -0.2873  0.2087 -0.4169
 5380TIP3   OH216082   2.008   5.775   1.088  0.1371 -0.4894 -0.1741
 5380TIP3    H116083   2.012   5.868   1.110  1.8433 -0.0623 -2.2241
 5380TIP3    H216084   1.923   5.747   1.123  0.6067  1.2477  2.5680
 5381TIP3   OH216085   3.207   5.723   2.031 -0.3489 -0.1355 -0.6311
 5381TIP3    H116086   3.283   5.690   2.079 -0.4289  2.6236  1.5385
 5381TIP3    H216087   3.132   5.683   2.074 -0.3424  1.0644  0.5091
 5382TIP3   OH216088   5.123   7.589   3.567 -0.2054  0.3408  0.2282
 5382TIP3    H116089   5.210   7.590   3.526 -1.0111  0.1695 -1.4924
 5382TIP3    H216090   5.142   7.586   3.661  1.6899 -3.4411 -0.1921
 5383TIP3   OH216091   5.317   0.141   0.231  0.4340 -0.2617  0.9571
 5383TIP3    H116092   5.327   0.057   0.187 -0.6647  0.5931 -0.9912
 5383TIP3    H216093   5.330   0.122   0.324 -0.7214 -2.7208  0.6250
 5384TIP3   OH216094   4.248   7.564   2.325 -0.4909 -0.0686 -0.4418
 5384TIP3    H116095   4.235   7.658   2.311  0.3042  0.0807 -0.2445
 5384TIP3    H216096   4.259   7.528   2.237 -0.3499  0.0973 -0.4921
 5385TIP3   OH216097   3.240   7.235   3.429 -0.7441  0.0407  0.4373
 5385TIP3    H116098   3.330   7.252   3.455 -0.2422 -1.0020 -0.5680
 5385TIP3    H216099   3.195   7.215   3.511  0.3383 -1.1232  0.7739
 5386TIP3   OH216100   3.473   4.920   2.326 -0.0617  0.0020  0.1420
 5386TIP3    H116101   3.463   5.000   2.274 -0.2552  0.4201  0.8176
 5386TIP3    H216102   3.398   4.866   2.301  0.1788 -0.0629 -0.4660
 5387TIP3   OH216103   2.845   5.879   0.663 -0.2874  0.3569 -0.2613
 5387TIP3    H116104   2.860   5.829   0.743  2.2041  2.3925  0.6202
 5387TIP3    H216105   2.755   5.858   0.638 -1.0394 -0.4945  2.9187
 5388TIP3   OH216106   2.740   6.422   2.575 -0.0173  0.0194 -0.1066
 5388TIP3    H116107   2.792   6.501   2.563 -0.9423  0.4767 -1.2605
 5388TIP3    H216108   2.776   6.359   2.512 -0.8324  0.3386 -0.9104
 5389TIP3   OH216109   3.083   6.434   1.772  0.2099  0.2608  0.1606
 5389TIP3    H116110   3.083   6.350   1.727 -0.8669  0.3914 -0.0968
 5389TIP3    H216111   3.054   6.415   1.861 -0.5999  0.4322 -0.0592
 5390TIP3   OH216112   1.793   7.493   3.057 -0.4728  0.6319 -0.9400
 5390TIP3    H116113   1.839   7.416   3.024 -0.0752  0.5540 -0.2123
 5390TIP3    H216114   1.794   7.555   2.984  1.5215  0.9498 -0.6466
 5391TIP3   OH216115   7.730   0.712   1.452  0.5778  0.0600 -0.3228
 5391TIP3    H116116   7.768   0.793   1.486  2.9441 -0.9445 -0.5007
 5391TIP3    H216117   7.799   0.674   1.398 -0.5223 -2.0505 -0.2890
 5392TIP3   OH216118   5.206   6.714   3.208  0.0153 -0.0348 -0.0002
 5392TIP3    H116119   5.250   6.778   3.152  1.0797  0.2420  1.1260
 5392TIP3    H216120   5.172   6.648   3.147 -0.1634  1.0326 -1.0838
 5393TIP3   OH216121   2.801   7.738   0.227  0.0041 -0.2992 -0.1009
 5393TIP3    H116122   2.847   7.657   0.246 -0.6212 -0.4465  0.7978
 5393TIP3    H216123   2.849   7.776   0.153 -0.1631 -1.8676 -1.0370
 5394TIP3   OH216124   7.558   0.493   2.380 -0.6395  0.4794  0.6124
 5394TIP3    H116125   7.534   0.402   2.398  3.2880 -0.8016 -0.1078
 5394TIP3    H216126   7.569   0.496   2.285  0.4638  1.3389  0.7579
 5395TIP3   OH216127   5.748   6.480   1.849  0.6476  0.1029  0.4506
 5395TIP3    H116128   5.834   6.521   1.841  0.3981  0.2852 -1.8182
 5395TIP3    H216129   5.725   6.456   1.759 -1.9153  0.5802  0.9321
 5396TIP3   OH216130   5.946   6.766   3.823 -0.7503 -0.6740 -0.1330
 5396TIP3    H116131   5.961   6.856   3.854 -1.5125 -0.6545  0.1945
 5396TIP3    H216132   5.998   6.760   3.743 -0.9621  0.1778 -0.3493
 5397TIP3   OH216133   5.197   7.645   1.775  0.5080  0.3883 -0.4675
 5397TIP3    H116134   5.260   7.684   1.715  0.4254  1.6258  0.2439
 5397TIP3    H216135   5.112   7.678   1.746  0.1897 -1.1351 -1.3158
 5398TIP3   OH216136   6.637   0.160   2.938  0.3426 -0.4088  0.3588
 5398TIP3    H116137   6.629   0.090   2.873  0.3837 -1.3888  1.3926
 5398TIP3    H216138   6.585   0.130   3.012  0.3968  0.6477  0.8360
 5399TIP3   OH216139   5.865   0.042   2.686 -0.2742  0.3698 -0.4162
 5399TIP3    H116140   5.925   0.042   2.761  1.9589 -0.0266 -2.1305
 5399TIP3    H216141   5.811  -0.036   2.698  0.9304 -0.3864  0.1233
 5400TIP3   OH216142   1.229   3.209   5.846 -0.3951 -0.1536  0.2023
 5400TIP3    H116143   1.294   3.171   5.905 -0.7796 -1.9858 -0.5109
 5400TIP3    H216144   1.277   3.226   5.765  0.1727  2.5206  1.0782
 5401TIP3   OH216145   6.140   1.666   0.919 -0.3356  0.2310  0.3646
 5401TIP3    H116146   6.145   1.600   0.988  0.3750  1.0012  1.0615
 5401TIP3    H216147   6.063   1.642   0.867  0.3113 -1.5344  0.2016
 5402TIP3   OH216148   0.143   0.929   3.051 -0.6986 -0.1804 -0.3191
 5402TIP3    H116149   0.211   0.990   3.021  1.0951 -0.7733  2.3548
 5402TIP3    H216150   0.083   0.984   3.101  0.9169 -0.5145  2.0900
 5403TIP3   OH216151   6.462   6.929   3.150  0.1835 -0.1531 -0.2505
 5403TIP3    H116152   6.519   6.853   3.160  0.1407 -0.3134 -1.2209
 5403TIP3    H216153   6.519   6.996   3.111  0.7784  0.9923  2.4398
 5404TIP3   OH216154   7.501   1.834   2.697  0.1804  0.1528 -0.1632
 5404TIP3    H116155   7.486   1.928   2.704 -2.0552 -0.2768  1.3467
 5404TIP3    H216156   7.432   1.803   2.638  0.8608 -0.5363 -0.5991
 5405TIP3   OH216157   4.449   4.644   2.386  0.6764  0.3870 -0.6394
 5405TIP3    H116158   4.354   4.640   2.390  0.6806 -0.4570 -1.1232
 5405TIP3    H216159   4.471   4.735   2.404 -0.0553  0.0177  2.3546
 5406TIP3   OH216160   0.138   1.492   3.375  0.6166 -0.2132  0.1736
 5406TIP3    H116161   0.059   1.517   3.422  0.2793 -0.4445 -0.2588
 5406TIP3    H216162   0.145   1.555   3.304  0.6642 -0.3608  0.0456
 5407TIP3   OH216163   3.620   7.421   2.874 -0.0744 -0.2627  0.6018
 5407TIP3    H116164   3.560   7.385   2.809  0.0932  0.3546  0.0935
 5407TIP3    H216165   3.707   7.407   2.836  0.0126  0.2910  0.5817
 5408TIP3   OH216166   7.812   1.280   0.882 -0.0774 -0.1066  0.0508
 5408TIP3    H116167   7.890   1.229   0.859  0.6223  0.8953  0.1607
 5408TIP3    H216168   7.839   1.333   0.958 -0.3510  1.4518 -0.9100
 5409TIP3   OH216169   7.495   6.539   1.963  0.4649 -0.1370  0.2207
 5409TIP3    H116170   7.446   6.465   1.999  1.8176 -1.1502  0.0348
 5409TIP3    H216171   7.466   6.615   2.013 -2.0316 -0.5414 -0.5594
 5410TIP3   OH216172   5.780   6.227   2.483 -0.7764 -0.0216  0.0815
 5410TIP3    H116173   5.706   6.284   2.507 -1.5653 -1.3583  0.8795
 5410TIP3    H216174   5.740   6.144   2.460  0.5379 -1.0769  1.4933
 5411TIP3   OH216175   5.930   0.566   1.724 -0.0677 -0.6514 -0.3669
 5411TIP3    H116176   5.889   0.526   1.801  1.1284  1.2180  1.2927
 5411TIP3    H216177   6.023   0.569   1.745  0.4572 -1.4324 -2.5161
 5412TIP3   OH216178   5.399   1.305   3.886 -0.0835 -0.6057 -0.0540
 5412TIP3    H116179   5.471   1.286   3.825 -0.7448 -0.7165 -0.8016
 5412TIP3    H216180   5.434   1.373   3.944  0.8823 -1.1839  0.0553
 5413TIP3   OH216181   5.954   7.595   0.547  0.0865 -0.3599 -0.1424
 5413TIP3    H116182   5.903   7.630   0.474  0.2056  0.5799  0.2151
 5413TIP3    H216183   5.970   7.671   0.603 -1.2446 -1.3262  1.6054
 5414TIP3   OH216184   5.454   0.756   0.715 -0.3812  0.4715  0.1860
 5414TIP3    H116185   5.525   0.739   0.777 -1.8199  1.8321  2.2940
 5414TIP3    H216186   5.497   0.780   0.634  1.5611 -0.0479  1.0383
 5415TIP3   OH216187   5.308   7.344   2.062  0.2058  0.2545  0.1723
 5415TIP3    H116188   5.379   7.402   2.033  1.4277 -1.3268 -0.0845
 5415TIP3    H216189   5.338   7.308   2.145 -0.4708 -0.1363  0.2540
 5416TIP3   OH216190   7.062   0.646   1.179  0.0306  0.2700  0.3945
 5416TIP3    H116191   7.133   0.683   1.232  0.0977  1.8348 -0.7716
 5416TIP3    H216192   7.089   0.555   1.163  0.9844  0.3802  1.3222
 5417TIP3   OH216193   5.014   7.061   2.192 -0.4636  0.0873 -0.4408
 5417TIP3    H116194   5.094   7.016   2.165 -0.5510 -0.3626  0.0471
 5417TIP3    H216195   4.949   6.992   2.199 -0.3938  0.1540  1.1056
 5418TIP3   OH216196   4.042   6.904   0.983  0.1682  0.5927 -0.2706
 5418TIP3    H116197   4.110   6.837   0.983 -1.6995 -1.4024  2.3555
 5418TIP3    H216198   4.062   6.959   1.059 -0.7073  0.4561  0.0595
 5419TIP3   OH216199   1.357   0.538   4.487  0.3299 -0.0129  0.2674
 5419TIP3    H116200   1.402   0.473   4.434  0.1650  0.3385 -0.3068
 5419TIP3    H216201   1.419   0.611   4.494  0.3251 -0.0288  0.5034
 5420TIP3   OH216202   1.552   4.330   6.361 -0.4370  0.2860 -0.1781
 5420TIP3    H116203   1.568   4.390   6.288  0.1540  1.8180  1.1793
 5420TIP3    H216204   1.477   4.369   6.407 -0.0644 -0.0266  0.6947
 5421TIP3   OH216205   4.946   7.402   2.456  0.0028  0.1225 -0.1849
 5421TIP3    H116206   5.018   7.372   2.400  0.8751  0.6381  0.6443
 5421TIP3    H216207   4.938   7.334   2.522 -0.5419 -0.1255 -0.5016
 5422TIP3   OH216208   4.680   6.801   0.787 -0.9781 -0.3422  0.5674
 5422TIP3    H116209   4.683   6.812   0.692 -2.3899  0.7212  0.6280
 5422TIP3    H216210   4.609   6.859   0.816  0.2803  0.3454  2.4001
 5423TIP3   OH216211   8.396   2.023   1.134 -0.4099  0.2867 -0.2480
 5423TIP3    H116212   8.343   1.945   1.123 -0.2533  0.3343 -1.3712
 5423TIP3    H216213   8.348   2.076   1.198 -1.0621 -0.2382 -0.3022
 5424TIP3   OH216214   8.282   0.805   2.881 -0.0925 -0.0119  0.0391
 5424TIP3    H116215   8.193   0.786   2.912 -0.0874 -0.7426 -0.3766
 5424TIP3    H216216   8.333   0.728   2.906  0.2744  0.1083 -0.3253
 5425TIP3   OH216217   7.322   1.407   3.523 -0.2146  0.3911  0.4903
 5425TIP3    H116218   7.309   1.328   3.470  0.6367 -0.6603  1.7999
 5425TIP3    H216219   7.235   1.446   3.530 -0.9550 -1.3478  1.1999
 5426TIP3   OH216220   5.666   6.398   4.207 -0.2502 -0.0388  0.3062
 5426TIP3    H116221   5.653   6.419   4.300  0.3222  1.4616  0.0662
 5426TIP3    H216222   5.583   6.358   4.180 -0.7163  0.2510  1.2687
 5427TIP3   OH216223   7.564   0.622   4.276  0.4208 -0.1377  0.3276
 5427TIP3    H116224   7.523   0.623   4.189  2.3705  0.5604 -0.6262
 5427TIP3    H216225   7.580   0.715   4.295  3.7745 -0.4822 -0.4578
 5428TIP3   OH216226   6.002   6.633   2.128  0.6018 -0.0418  0.0954
 5428TIP3    H116227   5.948   6.600   2.200  0.0625  0.1792 -0.2051
 5428TIP3    H216228   6.018   6.556   2.073  0.4401 -0.0738  0.0920
 5429TIP3   OH216229   6.913   0.664   0.770  0.0448 -0.1550 -0.3860
 5429TIP3    H116230   6.843   0.629   0.825 -0.3692  2.0445  0.5229
 5429TIP3    H216231   6.990   0.614   0.796 -0.4244 -0.0668  1.2555
 5430TIP3   OH216232   4.482   8.001   2.824  0.3718  0.1274 -0.1094
 5430TIP3    H116233   4.514   7.911   2.813 -0.4647 -0.0684 -1.0745
 5430TIP3    H216234   4.559   8.051   2.849  0.8211 -0.8873  0.5862
 5431TIP3   OH216235   0.697   0.616   1.856  0.0807  0.0337 -0.0689
 5431TIP3    H116236   0.694   0.694   1.800 -0.0358  1.7759  2.3162
 5431TIP3    H216237   0.608   0.607   1.889  0.3633 -0.4570  0.5598
 5432TIP3   OH216238   3.437   7.552   0.361  0.3270  0.0055 -0.6464
 5432TIP3    H116239   3.417   7.563   0.268 -0.7056  0.8940 -0.3240
 5432TIP3    H216240   3.358   7.580   0.406  0.4093 -1.5254  0.4699
 5433TIP3   OH216241   3.696   7.329   0.243  0.1890 -0.0104 -0.0128
 5433TIP3    H116242   3.633   7.300   0.309  0.0358 -0.8657 -0.5285
 5433TIP3    H216243   3.723   7.416   0.272  0.0925 -0.3613  1.1552
 5434TIP3   OH216244   5.821   7.654   1.863 -0.1135  0.0433  0.3681
 5434TIP3    H116245   5.868   7.572   1.847 -0.9601 -0.3047 -0.3847
 5434TIP3    H216246   5.854   7.714   1.796 -1.5684 -0.5503 -0.9026
 5435TIP3   OH216247   0.897   0.527   0.905 -0.0936  0.2373  0.4060
 5435TIP3    H116248   0.804   0.504   0.899 -0.0978  0.3275  0.1302
 5435TIP3    H216249   0.898   0.622   0.900  0.1287  0.1674 -1.0987
 5436TIP3   OH216250   5.410   7.767   0.769 -0.2039 -0.6850  0.1615
 5436TIP3    H116251   5.438   7.676   0.771 -1.2566 -1.0776 -1.8852
 5436TIP3    H216252   5.333   7.770   0.825  0.2071 -0.9100  0.7455
 5437TIP3   OH216253   7.116   0.061   0.398  0.2414 -0.3136 -0.0503
 5437TIP3    H116254   7.209   0.071   0.418  0.8287 -1.2269 -2.1168
 5437TIP3    H216255   7.094  -0.026   0.431  0.1799 -0.1909  0.2319
 5438TIP3   OH216256   3.691   7.460   0.496 -0.4422  0.3977  0.3227
 5438TIP3    H116257   3.623   7.392   0.490 -0.5329  0.6766 -2.3686
 5438TIP3    H216258   3.646   7.534   0.537 -1.5239  0.2667 -0.6003
 5439TIP3   OH216259   5.535   6.579   0.797 -0.8195  0.0863 -0.1827
 5439TIP3    H116260   5.474   6.509   0.820  1.0755 -1.7134 -0.4035
 5439TIP3    H216261   5.565   6.556   0.709  1.6611 -0.2171  0.6995
 5440TIP3   OH216262   0.357   0.450   1.576  0.7905  0.1226 -0.4656
 5440TIP3    H116263   0.307   0.475   1.499  1.1110  0.8555 -0.4397
 5440TIP3    H216264   0.430   0.398   1.542  2.7436  3.1069 -0.9976
 5441TIP3   OH216265   1.048   0.599   1.482  0.2357  0.3950  0.4894
 5441TIP3    H116266   1.106   0.609   1.407  0.8604 -0.9367  0.7765
 5441TIP3    H216267   1.104   0.609   1.558 -0.0527 -0.1094  0.7720
 5442TIP3   OH216268   2.368   7.107   1.974  0.3076 -0.2237  0.0618
 5442TIP3    H116269   2.381   7.173   2.042 -0.1813 -0.1896  0.1238
 5442TIP3    H216270   2.328   7.033   2.020 -2.1019  0.6263 -0.5805
 5443TIP3   OH216271   3.550   6.313   0.227 -0.3176 -0.0623 -0.2219
 5443TIP3    H116272   3.616   6.364   0.274  1.8259 -0.5791 -2.6272
 5443TIP3    H216273   3.522   6.246   0.290 -1.2885  2.3731  2.0750
 5444TIP3   OH216274   2.232   3.711   6.128  0.2750  0.1951 -0.3250
 5444TIP3    H116275   2.294   3.668   6.187  0.3988  0.4518 -0.2648
 5444TIP3    H216276   2.240   3.662   6.046  1.0160  0.6031 -0.5079
 5445TIP3   OH216277   4.079   6.231   2.619 -0.6022 -0.1991 -0.4242
 5445TIP3    H116278   4.098   6.178   2.541  2.1175  0.9178 -0.6003
 5445TIP3    H216279   4.123   6.184   2.691 -2.7440 -1.0050  0.3792
 5446TIP3   OH216280   7.202   2.199   3.616  0.2400  0.3293  0.2614
 5446TIP3    H116281   7.282   2.240   3.584  1.2482 -0.5770  1.5849
 5446TIP3    H216282   7.151   2.271   3.653  1.0584  0.7122  0.6651
 5447TIP3   OH216283   1.207   2.809   6.025 -0.1735 -0.0112 -0.2962
 5447TIP3    H116284   1.205   2.860   5.944 -0.8720 -1.3201 -1.1127
 5447TIP3    H216285   1.296   2.822   6.059 -0.7534  2.8286  0.2302
 5448TIP3   OH216286   5.154   6.221   0.746  0.2604  0.1467  0.3293
 5448TIP3    H116287   5.140   6.150   0.809 -3.4778  0.7792  0.3258
 5448TIP3    H216288   5.076   6.276   0.755  2.8344  3.9938 -0.0617
 5449TIP3   OH216289   4.093   7.311   1.091 -0.2389 -0.9371  0.5448
 5449TIP3    H116290   4.036   7.315   1.167 -1.3556  0.8026 -0.3302
 5449TIP3    H216291   4.039   7.346   1.019  2.0000  1.0579 -0.2452
 5450TIP3   OH216292   0.227   0.455   2.155 -0.1466 -0.2893 -0.0465
 5450TIP3    H116293   0.296   0.397   2.188 -0.9735 -0.2066  1.9206
 5450TIP3    H216294   0.160   0.395   2.122 -0.6843 -0.4656  1.3252
 5451TIP3   OH216295   2.006   4.243   6.430 -0.6794  0.2430  0.3817
 5451TIP3    H116296   1.939   4.276   6.490 -2.0467  1.5606 -1.7926
 5451TIP3    H216297   1.973   4.158   6.401 -0.2729 -0.1593  1.1017
 5452TIP3   OH216298   6.045   5.590   2.373  0.3454 -0.5452 -0.0267
 5452TIP3    H116299   6.002   5.588   2.288  1.1157 -0.9609 -0.4129
 5452TIP3    H216300   5.983   5.634   2.431 -0.0769 -0.0481 -0.8591
 5453TIP3   OH216301   5.799   7.979   2.151 -0.0732 -0.2924 -0.4088
 5453TIP3    H116302   5.784   8.049   2.215 -0.6541 -2.2540  1.6933
 5453TIP3    H216303   5.892   7.985   2.129  0.5225 -0.5289  1.8623
 5454TIP3   OH216304   3.845   6.554   1.250  0.2441  0.1136 -0.2920
 5454TIP3    H116305   3.899   6.572   1.173  1.0810 -0.5330  0.1359
 5454TIP3    H216306   3.806   6.468   1.233 -0.4835  0.4825 -0.5029
 5455TIP3   OH216307   4.177   6.357   1.866 -0.1114  0.1036 -0.1653
 5455TIP3    H116308   4.186   6.439   1.817 -0.6233  0.7008  0.7311
 5455TIP3    H216309   4.227   6.371   1.946 -1.0064 -0.1008  0.4334
 5456TIP3   OH216310   7.761   1.561   0.482 -0.0830  0.5684 -0.3233
 5456TIP3    H116311   7.715   1.516   0.553 -0.4740  0.4940 -0.6210
 5456TIP3    H216312   7.842   1.513   0.472 -0.3060  0.1953 -0.3466
 5457TIP3   OH216313   5.066   7.814   0.676 -0.0438  0.1560 -0.1532
 5457TIP3    H116314   5.112   7.790   0.757  0.4627 -0.6420 -0.6690
 5457TIP3    H216315   5.083   7.907   0.666  2.9026 -0.4264 -1.2025
 5458TIP3   OH216316   2.633   7.250   1.502 -0.4964  0.3085 -0.0801
 5458TIP3    H116317   2.550   7.213   1.470 -0.4811  0.0584  0.1748
 5458TIP3    H216318   2.618   7.266   1.595  0.4802 -1.8028  0.4730
 5459TIP3   OH216319   3.726   7.805   1.241 -0.2832  0.8007 -0.2825
 5459TIP3    H116320   3.784   7.811   1.317 -1.2525  1.4464  0.4110
 5459TIP3    H216321   3.681   7.721   1.253  1.9301 -0.6888 -1.8711
 5460TIP3   OH216322   3.880   7.773   2.998  0.2670 -0.4871  0.3665
 5460TIP3    H116323   3.805   7.718   3.024 -1.0287  0.8361 -0.4974
 5460TIP3    H216324   3.871   7.852   3.052  2.1235 -1.1102  1.6109
 5461TIP3   OH216325   6.815   7.847   2.658 -0.5906  0.2960  0.3429
 5461TIP3    H116326   6.867   7.766   2.660 -0.3909  0.3894 -0.5765
 5461TIP3    H216327   6.868   7.907   2.605  0.1067  1.6246  2.4878
 5462TIP3   OH216328   6.223   0.391   3.082  0.0678 -0.5757 -0.2519
 5462TIP3    H116329   6.199   0.346   3.001  1.8724 -0.6573 -0.7538
 5462TIP3    H216330   6.315   0.416   3.071  0.6796 -1.5300  2.1827
 5463TIP3   OH216331   7.559   1.504   2.060  0.3580 -0.3027 -0.2853
 5463TIP3    H116332   7.538   1.415   2.089 -0.6073  0.4147  1.2463
 5463TIP3    H216333   7.519   1.561   2.125  0.5228  1.2852 -1.5416
 5464TIP3   OH216334   3.632   6.977   1.433 -0.1205 -0.1135 -0.0793
 5464TIP3    H116335   3.719   6.992   1.397 -0.5279  0.1763 -0.9707
 5464TIP3    H216336   3.615   6.884   1.416  0.4914 -0.4579  1.1691
 5465TIP3   OH216337   3.679   7.863   0.250  0.5846 -0.2626 -0.4138
 5465TIP3    H116338   3.589   7.873   0.280  1.1174  0.0888  1.0924
 5465TIP3    H216339   3.670   7.824   0.163 -0.9759 -1.3212  0.1951
 5466TIP3   OH216340   8.257   0.376   1.957 -0.3444 -0.4003  0.4757
 5466TIP3    H116341   8.200   0.449   1.980 -4.1592 -2.6665 -1.2460
 5466TIP3    H216342   8.246   0.365   1.863  1.5639 -2.0835  0.3978
 5467TIP3   OH216343   3.517   6.727   1.380  0.3520  0.3182  0.4157
 5467TIP3    H116344   3.439   6.690   1.421  0.2695 -1.5939 -1.4014
 5467TIP3    H216345   3.580   6.655   1.379  0.3715  0.3082 -2.6901
 5468TIP3   OH216346   5.906   6.690   0.204  0.2497 -0.1341 -0.5747
 5468TIP3    H116347   5.845   6.735   0.262 -0.5905 -0.2579 -1.3646
 5468TIP3    H216348   5.973   6.655   0.263 -1.0550 -0.9958  0.4005
 5469TIP3   OH216349   5.991   7.308   2.795  0.4110 -0.2264 -0.2933
 5469TIP3    H116350   6.061   7.244   2.785 -1.0739 -2.0948  0.9713
 5469TIP3    H216351   6.009   7.374   2.727  3.0027 -0.9789 -0.4113
 5470TIP3   OH216352   6.692   1.066   1.795 -0.2022 -0.0337 -0.5932
 5470TIP3    H116353   6.712   0.999   1.860  2.0306 -0.3384 -1.5499
 5470TIP3    H216354   6.726   1.031   1.712 -0.5240  1.5222 -1.4159
 5471TIP3   OH216355   4.810   7.183   0.051 -0.6617 -0.0993 -0.7331
 5471TIP3    H116356   4.802   7.232   0.132 -0.7438 -1.2401 -0.0428
 5471TIP3    H216357   4.886   7.221   0.007  0.0090 -0.1614  0.3602
 5472TIP3   OH216358   7.417   1.409   2.425  0.1005 -0.4837  0.2022
 5472TIP3    H116359   7.382   1.422   2.513  0.5079 -1.8287  0.5777
 5472TIP3    H216360   7.484   1.341   2.436  1.2429  0.4433 -0.8769
 5473TIP3   OH216361   7.222   7.501   1.862  0.1401  0.5423  0.9147
 5473TIP3    H116362   7.308   7.526   1.829  0.0886  2.2199  1.9518
 5473TIP3    H216363   7.238   7.477   1.953 -0.0386 -2.0287  0.3006
 5474TIP3   OH216364   4.251   6.018   1.638  0.2724 -0.1646 -0.0702
 5474TIP3    H116365   4.324   6.043   1.582  0.1577 -1.5311 -0.8534
 5474TIP3    H216366   4.292   5.976   1.713  0.5053  2.8024  1.5546
 5475TIP3   OH216367   6.434   7.317   3.845  0.5340 -0.5617  0.7899
 5475TIP3    H116368   6.491   7.331   3.921 -0.2250 -1.1123  1.4751
 5475TIP3    H216369   6.350   7.355   3.871  0.1540 -1.1172  0.3745
 5476TIP3   OH216370   4.905   6.831   1.914  0.4463  0.3856 -0.4422
 5476TIP3    H116371   4.832   6.776   1.943  0.6301  0.4696  0.1923
 5476TIP3    H216372   4.980   6.773   1.912  0.4673  0.4180 -0.5957
 5477TIP3   OH216373   8.478   0.305   2.122  0.9759  0.2152 -0.2654
 5477TIP3    H116374   8.388   0.303   2.089  0.3582 -0.1657  1.3790
 5477TIP3    H216375   8.475   0.253   2.202  2.5522  0.6576  0.0980
 5478TIP3   OH216376   0.122   3.044   6.484  0.4472 -0.8851 -0.6105
 5478TIP3    H116377   0.187   2.976   6.503  0.0677 -0.7827  1.1865
 5478TIP3    H216378   0.140   3.112   6.548 -0.0777  0.0921 -1.4924
 5479TIP3   OH216379   4.965   7.364   1.645  0.0109 -0.4489 -0.9907
 5479TIP3    H116380   5.026   7.379   1.717 -1.0765 -2.0805  0.3117
 5479TIP3    H216381   5.015   7.384   1.567  1.3078  1.0956  0.1934
 5480TIP3   OH216382   3.845   6.820   1.294 -0.0524 -0.1692  0.2856
 5480TIP3    H116383   3.926   6.864   1.320 -0.2875  0.4965 -0.0814
 5480TIP3    H216384   3.866   6.727   1.297  0.8437  0.0075 -0.1777
 5481TIP3   OH216385   5.256   7.130   3.825 -0.4042  0.0301 -0.4465
 5481TIP3    H116386   5.343   7.157   3.794 -0.6158 -0.3569 -1.4252
 5481TIP3    H216387   5.229   7.199   3.885  0.7215 -0.0119  0.1204
 5482TIP3   OH216388   0.387   1.428   2.432  0.0102  0.0059  0.0223
 5482TIP3    H116389   0.420   1.514   2.459 -1.2970  0.9983 -1.3995
 5482TIP3    H216390   0.292   1.433   2.448 -0.2079 -0.8047 -0.9668
 5483TIP3   OH216391   3.152   7.813   3.224 -0.2299  1.0589  0.1982
 5483TIP3    H116392   3.132   7.723   3.201  2.0430  1.1181 -2.1918
 5483TIP3    H216393   3.162   7.812   3.320  1.4749 -1.5913  0.0268
 5484TIP3   OH216394   5.764   6.414   0.163 -0.0614 -0.0180 -0.5349
 5484TIP3    H116395   5.858   6.429   0.155 -0.1873  0.9731 -0.2250
 5484TIP3    H216396   5.756   6.349   0.233  0.5194 -2.0075 -2.2290
 5485TIP3   OH216397   8.163   1.323   1.069  0.2501 -0.4258 -0.1148
 5485TIP3    H116398   8.109   1.248   1.095  0.0212 -0.1196  0.3039
 5485TIP3    H216399   8.148   1.388   1.138 -0.2554  0.3462 -0.9439
 5486TIP3   OH216400   5.236   7.049   3.496  0.0593  0.7425  0.4014
 5486TIP3    H116401   5.182   7.128   3.507 -0.7091  0.1105  1.1856
 5486TIP3    H216402   5.229   7.028   3.403  0.5448  1.7926  0.1202
 5487TIP3   OH216403   5.784   6.465   2.997 -0.5091 -0.4037 -0.2858
 5487TIP3    H116404   5.741   6.490   3.078 -0.3218  0.2700 -0.3892
 5487TIP3    H216405   5.736   6.388   2.966 -2.3006  0.9585 -0.9561
 5488TIP3   OH216406   0.172   0.024   4.805  0.0110  0.0168 -0.6493
 5488TIP3    H116407   0.216  -0.018   4.730  2.2616 -0.5966  0.9614
 5488TIP3    H216408   0.244   0.064   4.855 -1.4333  0.2057  1.3095
 5489TIP3   OH216409   8.356   2.034   2.288  0.2373 -0.3737  0.0743
 5489TIP3    H116410   8.270   2.003   2.263  0.5936 -0.8777 -0.5347
 5489TIP3    H216411   8.354   2.128   2.270 -0.7406 -0.0833  1.6394
 5490TIP3   OH216412   8.409   1.433   2.573 -0.0814 -0.3698  0.5897
 5490TIP3    H116413   8.421   1.338   2.581  0.6409 -0.2955  0.4350
 5490TIP3    H216414   8.345   1.443   2.502  1.7491 -0.6796 -1.1672
 5491TIP3   OH216415   4.930   6.176   1.538  0.4032  0.0213 -0.6221
 5491TIP3    H116416   4.841   6.191   1.570  0.8219 -0.6144  0.9131
 5491TIP3    H216417   4.952   6.255   1.489  0.0548  1.4547  1.4693
 5492TIP3   OH216418   5.263   6.070   1.338  0.4509  0.1899 -0.7214
 5492TIP3    H116419   5.249   6.093   1.247 -0.2586 -0.8374 -0.8795
 5492TIP3    H216420   5.286   6.153   1.381 -1.0109  1.0018 -1.4747
 5493TIP3   OH216421   1.340   2.908   6.816 -0.3634 -0.0633  0.0362
 5493TIP3    H116422   1.344   2.814   6.799 -1.0616 -0.1802  0.4983
 5493TIP3    H216423   1.427   2.930   6.851 -0.5742 -0.7481  1.0066
 5494TIP3   OH216424   6.447   5.279   1.918  0.7528  0.3730 -0.7584
 5494TIP3    H116425   6.380   5.344   1.940 -0.1724 -0.6076 -0.6345
 5494TIP3    H216426   6.495   5.266   1.999  0.8344  0.7794 -0.7401
 5495TIP3   OH216427   4.531   7.815   1.985  0.7935  0.0414 -0.1186
 5495TIP3    H116428   4.608   7.856   1.945 -0.5989  1.7443 -1.1727
 5495TIP3    H216429   4.463   7.824   1.918 -1.0153  0.9585  1.7993
 5496TIP3   OH216430   5.970   6.005   4.016 -0.3694 -0.0800  0.3402
 5496TIP3    H116431   5.987   5.924   4.062 -0.1991 -0.0822  0.2700
 5496TIP3    H216432   5.964   6.071   4.085  2.1767  0.3299  0.2140
 5497TIP3   OH216433   6.011   4.460   2.519  0.2306 -0.3005 -0.0165
 5497TIP3    H116434   5.973   4.523   2.580 -0.6131 -0.0372 -0.8136
 5497TIP3    H216435   6.014   4.506   2.435  2.5351 -0.2294  0.0839
 5498TIP3   OH216436   7.696   0.808   3.028 -0.2956 -0.2997 -0.0096
 5498TIP3    H116437   7.729   0.727   3.067  1.0812  0.0998 -0.2807
 5498TIP3    H216438   7.644   0.780   2.953 -0.9516 -0.9841  0.7079
 5499TIP3   OH216439   4.050   6.148   1.066 -0.5578 -0.0037  0.3687
 5499TIP3    H116440   4.092   6.143   1.152 -1.8646 -2.9968  0.8972
 5499TIP3    H216441   3.962   6.181   1.085 -0.6968 -0.2375  0.1351
 5500TIP3   OH216442   7.303   1.463   0.389 -1.0209 -0.9360 -0.0632
 5500TIP3    H116443   7.215   1.500   0.382 -1.2814 -1.1796  1.7525
 5500TIP3    H216444   7.361   1.538   0.376 -1.5087 -0.6121 -0.3912
 5501TIP3   OH216445   0.719   1.243   2.091 -0.1735  0.4559 -0.1512
 5501TIP3    H116446   0.731   1.337   2.097 -2.4913  0.8175 -0.4123
 5501TIP3    H216447   0.736   1.222   1.999 -1.4288  0.9421 -0.5131
 5502TIP3   OH216448   0.665   2.909   2.543  0.3824  0.3718  0.1161
 5502TIP3    H116449   0.694   2.821   2.569 -0.6698  0.1330  0.5003
 5502TIP3    H216450   0.579   2.895   2.503 -0.5786  1.4217  1.7565
 5503TIP3   OH216451   4.421   7.836   0.428 -0.0985  0.3551 -0.4290
 5503TIP3    H116452   4.440   7.753   0.386  1.0864  0.9883 -1.1810
 5503TIP3    H216453   4.499   7.889   0.413 -1.2881  1.9976 -0.9819
 5504TIP3   OH216454   7.617   2.774   6.577 -0.2444  0.0923 -0.1537
 5504TIP3    H116455   7.702   2.732   6.569 -1.2668 -1.6654 -2.1529
 5504TIP3    H216456   7.634   2.867   6.559  1.6783  0.2411  2.2507
 5505TIP3   OH216457   8.046   1.058   2.611  0.0455  0.2663 -0.6177
 5505TIP3    H116458   8.096   1.000   2.554  1.7451  0.3225  0.7460
 5505TIP3    H216459   8.009   1.000   2.677 -0.6870  0.3750 -0.9348
 5506TIP3   OH216460   7.164   5.960   3.720 -0.3810  0.0814  0.4846
 5506TIP3    H116461   7.181   5.933   3.629 -1.2547 -0.8807  0.6024
 5506TIP3    H216462   7.240   5.929   3.769 -1.3629 -2.1513  0.6137
 5507TIP3   OH216463   0.835   4.031   6.927 -0.5174  0.1426 -0.3528
 5507TIP3    H116464   0.838   3.954   6.870 -3.4305 -0.2526 -0.0307
 5507TIP3    H216465   0.746   4.031   6.962  0.1769  2.3545  1.4826
 5508TIP3   OH216466   7.437   0.880   4.287 -0.0493  0.5358 -0.4656
 5508TIP3    H116467   7.421   0.924   4.370  0.1659 -2.1149  1.0379
 5508TIP3    H216468   7.359   0.826   4.273  1.3818 -1.6617 -0.2157
 5509TIP3   OH216469   5.866   6.413   1.404  0.0787 -0.2931  0.3756
 5509TIP3    H116470   5.855   6.464   1.324 -0.8400  1.7752  1.7957
 5509TIP3    H216471   5.959   6.422   1.426  0.0874  0.0915  0.1740
 5510TIP3   OH216472   4.755   7.188   2.348 -0.1138 -0.0166 -0.7758
 5510TIP3    H116473   4.786   7.271   2.384 -2.3636 -0.3916  2.2485
 5510TIP3    H216474   4.791   7.121   2.406 -1.6403 -0.8532 -0.7682
 5511TIP3   OH216475   6.060   7.037   3.106 -0.7226  0.6780  0.2221
 5511TIP3    H116476   6.138   7.058   3.054  0.0505 -1.0503  0.6680
 5511TIP3    H216477   5.994   7.013   3.040 -0.2701  0.1679 -0.0442
 5512TIP3   OH216478   6.579   5.744   1.509  0.0558  0.3781 -0.5574
 5512TIP3    H116479   6.545   5.669   1.558 -1.5293  1.4101 -0.0466
 5512TIP3    H216480   6.642   5.785   1.568  1.9601 -1.2952 -1.3474
 5513TIP3   OH216481   4.764   5.482   0.214  0.0769  0.0787 -0.0999
 5513TIP3    H116482   4.767   5.440   0.300 -1.1535 -0.0804 -0.1323
 5513TIP3    H216483   4.698   5.433   0.165  1.9163 -0.8690 -1.6991
 5514TIP3   OH216484   3.805   7.643   2.458  0.3097 -0.6168 -0.1757
 5514TIP3    H116485   3.738   7.578   2.479  0.1177  0.0800  1.5024
 5514TIP3    H216486   3.793   7.662   2.365 -0.3085 -2.2070 -0.4234
 5515TIP3   OH216487   8.294   1.021   3.633 -0.2258  0.0093  0.1895
 5515TIP3    H116488   8.204   1.049   3.651 -0.3891  0.2544 -0.9824
 5515TIP3    H216489   8.349   1.084   3.679 -0.6151  1.3699 -1.1560
 5516TIP3   OH216490   0.665   2.134   6.311  0.0945  0.0871 -0.2428
 5516TIP3    H116491   0.707   2.062   6.263  0.0793  0.5950 -1.0267
 5516TIP3    H216492   0.617   2.182   6.244  1.9849  2.1989 -0.1188
 5517TIP3   OH216493   3.423   7.731   2.373  0.1002  0.3699 -0.1855
 5517TIP3    H116494   3.427   7.657   2.312  0.4271 -0.0256  0.3053
 5517TIP3    H216495   3.355   7.706   2.436  0.2551  0.4564  0.0178
 5518TIP3   OH216496   6.806   5.908   3.026  0.1112  0.1692  0.3562
 5518TIP3    H116497   6.804   5.945   3.114  0.3571 -0.2717  0.5489
 5518TIP3    H216498   6.867   5.834   3.032 -0.3152 -0.2222 -0.0413
 5519TIP3   OH216499   5.252   6.552   0.359 -0.0178  0.5975 -0.3989
 5519TIP3    H116500   5.262   6.622   0.423 -2.0040 -0.3360  0.9794
 5519TIP3    H216501   5.294   6.476   0.399 -0.2740  0.2991 -0.6885
 5520TIP3   OH216502   6.002   4.530   2.094 -0.8162  0.3849  0.0889
 5520TIP3    H116503   6.053   4.550   2.015  2.4108 -2.6877  1.2359
 5520TIP3    H216504   5.964   4.444   2.076 -2.1579  0.7920  0.9237
 5521TIP3   OH216505   7.887   0.135   1.869  0.2134 -0.0340 -0.2076
 5521TIP3    H116506   7.937   0.124   1.950 -1.0815 -0.2890  0.5712
 5521TIP3    H216507   7.842   0.052   1.857 -0.2758  0.3021 -0.7256
 5522TIP3   OH216508   4.585   6.305   2.076 -0.4523 -0.2827  0.1884
 5522TIP3    H116509   4.610   6.381   2.127 -1.5553 -0.4394  0.9910
 5522TIP3    H216510   4.667   6.264   2.051  0.2240  2.1573 -1.8056
 5523TIP3   OH216511   5.764   0.978   2.659 -0.3059 -0.4686 -0.4724
 5523TIP3    H116512   5.678   0.943   2.636  0.5274 -1.8907 -1.4205
 5523TIP3    H216513   5.779   0.947   2.749 -1.5059  1.2092  0.3407
 5524TIP3   OH216514   5.896   7.281   2.038 -0.1966  0.8438 -0.4452
 5524TIP3    H116515   5.860   7.197   2.069 -0.5647  1.0730 -0.2465
 5524TIP3    H216516   5.860   7.346   2.099 -0.0924  1.1742 -0.7353
 5525TIP3   OH216517   6.190   5.420   1.397  0.0421 -0.1548  0.0256
 5525TIP3    H116518   6.271   5.471   1.404  0.7351 -1.3182  0.7086
 5525TIP3    H216519   6.162   5.432   1.306 -1.1686  3.4182  0.7917
 5526TIP3   OH216520   6.257   6.932   1.298 -0.3471 -0.3993  0.5259
 5526TIP3    H116521   6.202   6.965   1.369  0.2590 -0.4442  1.0219
 5526TIP3    H216522   6.276   7.010   1.245  1.4743  0.1688  1.9660
 5527TIP3   OH216523   6.147   7.122   2.264  0.5577 -0.1788  0.0992
 5527TIP3    H116524   6.155   7.057   2.194 -0.2128 -0.0454 -0.1239
 5527TIP3    H216525   6.061   7.105   2.303  0.6398  0.2628  0.4819
 5528TIP3   OH216526   4.864   7.719   0.526 -1.0211  0.0051  0.1909
 5528TIP3    H116527   4.811   7.671   0.590  1.0688 -1.3828  0.9386
 5528TIP3    H216528   4.934   7.759   0.578  0.4421 -0.7779 -1.1427
 5529TIP3   OH216529   6.032   1.297   4.499 -0.1652 -0.1608 -0.3329
 5529TIP3    H116530   6.006   1.205   4.503 -0.1405 -0.1038  1.6102
 5529TIP3    H216531   6.101   1.299   4.432 -1.4033 -1.2314 -1.6711
 5530TIP3   OH216532   3.632   7.621   4.006  0.1428  0.0695  0.0389
 5530TIP3    H116533   3.668   7.700   4.048  3.1436 -2.2083  2.0050
 5530TIP3    H216534   3.688   7.607   3.930  0.4892 -0.9162  0.4725
 5531TIP3   OH216535   5.162   7.289   2.348 -0.1742 -0.2966  0.1299
 5531TIP3    H116536   5.248   7.247   2.353  0.4902  0.9274 -0.7043
 5531TIP3    H216537   5.115   7.238   2.282  0.4578 -0.0423 -0.5270
 5532TIP3   OH216538   5.704   5.146   0.212 -0.2213  0.1314  0.0392
 5532TIP3    H116539   5.665   5.231   0.233 -0.3712  0.3448 -1.0578
 5532TIP3    H216540   5.763   5.127   0.285 -1.1761  0.5542  0.9404
 5533TIP3   OH216541   5.658   7.655   3.433 -0.0169 -0.1596  0.5123
 5533TIP3    H116542   5.663   7.561   3.449  1.8448 -0.0815  0.4567
 5533TIP3    H216543   5.660   7.663   3.338 -0.9118 -0.0908  0.4938
 5534TIP3   OH216544   5.955   5.460   1.559  0.3384 -0.1734  0.1662
 5534TIP3    H116545   5.953   5.542   1.609 -0.8484  0.1700 -0.4301
 5534TIP3    H216546   6.046   5.453   1.529  0.2660  1.3750 -0.4891
 5535TIP3   OH216547   2.435   1.371   6.606  0.1619 -0.0483 -0.4927
 5535TIP3    H116548   2.433   1.459   6.568  0.3760 -0.0103 -0.4161
 5535TIP3    H216549   2.393   1.380   6.691  0.7601  0.1155 -0.2075
 5536TIP3   OH216550   5.149   7.884   1.414  0.7298 -0.0043  0.0473
 5536TIP3    H116551   5.144   7.980   1.415 -0.1997 -0.0086  3.2791
 5536TIP3    H216552   5.059   7.856   1.431  1.2093 -1.4278  0.2870
 5537TIP3   OH216553   4.907   7.877   1.840  0.1775  0.1239 -0.0331
 5537TIP3    H116554   4.964   7.859   1.914  0.4161  0.0545 -0.2305
 5537TIP3    H216555   4.908   7.796   1.788 -0.8182 -0.1929  0.4303
 5538TIP3   OH216556   2.561   5.910   6.484 -0.2095 -0.0775  0.6112
 5538TIP3    H116557   2.537   5.865   6.565  0.1758  2.2766  2.0895
 5538TIP3    H216558   2.517   5.995   6.490 -1.1436 -0.3061 -2.2334
 5539TIP3   OH216559   0.838   7.916   1.186 -0.2914 -0.3372  0.0321
 5539TIP3    H116560   0.835   7.974   1.110  0.3955  0.5528  0.6726
 5539TIP3    H216561   0.864   7.831   1.150  1.5327  0.4271 -0.5355
 5540TIP3   OH216562   4.837   6.816   2.311 -0.0817  0.1137  0.2365
 5540TIP3    H116563   4.818   6.801   2.403  0.6682 -1.1005  0.2061
 5540TIP3    H216564   4.909   6.756   2.291 -0.1430  0.4637 -1.0972
 5541TIP3   OH216565   0.019   0.191   1.744  0.3918  0.0232  0.3754
 5541TIP3    H116566   0.048   0.270   1.790  0.9792  0.1405 -0.1915
 5541TIP3    H216567   0.048   0.204   1.653 -0.0988 -0.5429  0.1365
 5542TIP3   OH216568   0.336   1.065   1.344 -0.6099  0.0041 -0.0087
 5542TIP3    H116569   0.343   0.975   1.377  0.1412  0.3582  0.8175
 5542TIP3    H216570   0.314   1.117   1.421 -1.3943  0.4861 -0.5543
 5543TIP3   OH216571   8.358   6.347   2.296  0.1345  0.1929 -0.1133
 5543TIP3    H116572   8.272   6.304   2.299 -0.1350  0.8321  1.5089
 5543TIP3    H216573   8.362   6.384   2.208 -0.8387 -0.6829 -0.5410
 5544TIP3   OH216574   5.730   7.002   0.937  0.1844  0.2579  0.7923
 5544TIP3    H116575   5.755   7.013   0.846  0.6431  0.9935  1.0007
 5544TIP3    H216576   5.684   7.083   0.959  1.4025  0.7459  1.6377
 5545TIP3   OH216577   6.736   7.010   1.488 -0.2800 -0.8545 -0.3740
 5545TIP3    H116578   6.647   6.985   1.465 -0.5027  0.0305 -0.4937
 5545TIP3    H216579   6.731   7.032   1.581 -0.6381  1.1661 -0.8532
 5546TIP3   OH216580   6.064   7.931   1.382 -0.6405  0.3404  0.6000
 5546TIP3    H116581   6.151   7.971   1.384 -0.6419  0.3506  0.4241
 5546TIP3    H216582   6.078   7.847   1.338 -0.7167  0.3326  0.5924
 5547TIP3   OH216583   6.627   0.031   2.423 -0.0617 -0.1128 -1.1926
 5547TIP3    H116584   6.694   0.088   2.459  0.2084 -0.7115 -0.7341
 5547TIP3    H216585   6.630   0.047   2.328 -0.2709  0.9211 -1.0310
 5548TIP3   OH216586   0.552   1.506   1.617  0.1914  0.1707 -0.4205
 5548TIP3    H116587   0.554   1.601   1.630 -2.1347  0.3058 -0.7982
 5548TIP3    H216588   0.558   1.470   1.705  1.3248  0.6694 -0.2908
 5549TIP3   OH216589   8.477   6.324   1.108 -0.0067  0.0316 -0.4343
 5549TIP3    H116590   8.499   6.397   1.050 -2.4344  1.1332 -0.0246
 5549TIP3    H216591   8.386   6.340   1.134  0.1624 -1.9039  1.5135
 5550TIP3   OH216592   7.648   7.073   3.066  0.5587 -0.3515  0.0391
 5550TIP3    H116593   7.659   7.016   2.990  0.8855 -0.8432  0.4471
 5550TIP3    H216594   7.727   7.126   3.069  1.0942 -1.1743  0.7276
 5551TIP3   OH216595   2.001   1.582   1.222 -0.3693  0.2261  0.6525
 5551TIP3    H116596   2.001   1.595   1.317 -0.2055  0.0861  0.6729
 5551TIP3    H216597   2.020   1.668   1.186 -0.4825  0.2904  0.7452
 5552TIP3   OH216598   4.454   4.936   6.194  0.0875  0.1692 -0.1578
 5552TIP3    H116599   4.525   4.936   6.259  0.1307 -1.1604 -0.2009
 5552TIP3    H216600   4.483   4.998   6.127  0.4074  0.9479  0.6889
 5553TIP3   OH216601   0.667   0.265   4.139  0.2189 -0.0793 -0.7191
 5553TIP3    H116602   0.579   0.293   4.112  0.5491 -0.2438 -1.9611
 5553TIP3    H216603   0.727   0.319   4.088  0.8688  1.0312  1.1504
 5554TIP3   OH216604   3.409   0.882   1.474 -0.2773 -0.1067  0.0821
 5554TIP3    H116605   3.379   0.957   1.421  1.2332  0.7476  0.3996
 5554TIP3    H216606   3.343   0.815   1.459 -1.2812  1.0377 -0.7994
 5555TIP3   OH216607   0.479   1.337   1.832 -0.1360  0.5300  0.1998
 5555TIP3    H116608   0.490   1.243   1.842 -0.3126  0.7153  2.6488
 5555TIP3    H216609   0.393   1.355   1.871  0.5461  1.8669  1.1330
 5556TIP3   OH216610   8.421   0.027   1.956  0.3018  0.3352  0.4839
 5556TIP3    H116611   8.499   0.015   2.010 -0.0117 -0.7833  0.7181
 5556TIP3    H216612   8.451   0.075   1.880  1.1619  0.1577  0.7065
 5557TIP3   OH216613   5.103   6.180   3.142  0.6435 -0.0851  0.1903
 5557TIP3    H116614   5.148   6.100   3.118 -0.1393 -0.9452  1.5355
 5557TIP3    H216615   5.014   6.169   3.108  0.3087 -0.1395  1.0843
 5558TIP3   OH216616   4.803   7.884   2.592  0.2909 -0.0220 -0.2231
 5558TIP3    H116617   4.889   7.885   2.549 -0.4468  0.1944 -1.7441
 5558TIP3    H216618   4.766   7.798   2.570  0.6955 -0.7069  1.6535
 5559TIP3   OH216619   1.857   1.898   0.998 -0.0074 -0.7800  0.4910
 5559TIP3    H116620   1.792   1.968   0.994  0.3525 -0.5442 -1.6633
 5559TIP3    H216621   1.886   1.887   0.908  2.2624 -1.5394  1.2901
 5560TIP3   OH216622   1.116   1.493   4.632  0.2892 -0.2950  0.6224
 5560TIP3    H116623   1.021   1.482   4.637 -0.0837  2.2861 -0.4317
 5560TIP3    H216624   1.139   1.469   4.543  0.3012  1.3994  0.1656
 5561TIP3   OH216625   7.276   0.604   3.022 -0.8273  0.4738  0.3718
 5561TIP3    H116626   7.211   0.538   2.996 -2.2737  0.6581  3.2979
 5561TIP3    H216627   7.299   0.580   3.112 -0.5771  3.3513  1.1000
 5562TIP3   OH216628   6.309   6.825   1.612 -0.3481  0.2539  0.1014
 5562TIP3    H116629   6.390   6.856   1.571  0.7614  0.5845  2.4551
 5562TIP3    H216630   6.240   6.874   1.567  1.0629  2.9612  0.7622
 5563TIP3   OH216631   5.449   6.809   1.998 -0.0629 -0.1706 -0.1304
 5563TIP3    H116632   5.428   6.867   1.925  1.9111 -0.7398 -1.1635
 5563TIP3    H216633   5.518   6.751   1.965 -0.9384 -2.1377  1.3493
 5564TIP3   OH216634   3.187   1.667   5.808 -0.0315  0.1386  0.1755
 5564TIP3    H116635   3.232   1.721   5.873 -0.1851  0.0532  0.3517
 5564TIP3    H216636   3.216   1.578   5.826 -0.5140  0.0424  0.4935
 5565TIP3   OH216637   1.450   1.089   4.207  0.2275  0.2291  0.2214
 5565TIP3    H116638   1.488   1.166   4.164  1.4064 -0.6233 -0.3050
 5565TIP3    H216639   1.469   1.101   4.300  2.0240 -0.2954 -0.0618
 5566TIP3   OH216640   8.476   7.798   5.313 -0.2066  0.9792  0.5470
 5566TIP3    H116641   8.409   7.739   5.279  0.1266  0.9535 -0.0660
 5566TIP3    H216642   8.558   7.749   5.305 -0.0415  1.2137  0.7980
 5567TIP3   OH216643   1.251   2.463   6.008 -0.2207 -0.1176  0.4879
 5567TIP3    H116644   1.290   2.376   6.003  0.0868  0.0301  0.2638
 5567TIP3    H216645   1.326   2.523   6.001 -0.5494  0.1778 -0.7068
 5568TIP3   OH216646   6.556   5.986   0.116  0.4616 -0.5909 -0.3882
 5568TIP3    H116647   6.573   5.931   0.039  0.3949  0.3124 -1.0558
 5568TIP3    H216648   6.636   6.036   0.128  0.1612 -0.0988 -0.4000
 5569TIP3   OH216649   1.741   0.724   6.228  0.1841  0.2089 -0.3538
 5569TIP3    H116650   1.723   0.675   6.148 -2.1405 -0.9374  0.7985
 5569TIP3    H216651   1.733   0.659   6.298 -0.2877  1.6794  0.9922
 5570TIP3   OH216652   1.619   7.465   4.028 -0.6505  0.2574  0.2937
 5570TIP3    H116653   1.563   7.491   3.954  0.2148  0.2061 -0.3863
 5570TIP3    H216654   1.708   7.477   3.996 -0.2684  0.8595  1.5671
 5571TIP3   OH216655   1.130   7.618   5.086  0.0259 -0.7713 -0.1632
 5571TIP3    H116656   1.164   7.561   5.155 -0.4410 -0.6373  0.1794
 5571TIP3    H216657   1.124   7.561   5.009  0.4309 -0.9502 -0.0660
 5572TIP3   OH216658   6.398   4.351   0.510  0.2357  0.0473  0.5589
 5572TIP3    H116659   6.479   4.354   0.460 -0.5516 -0.2491 -0.7627
 5572TIP3    H216660   6.420   4.303   0.590  1.0281 -1.2334 -0.4206
 5573TIP3   OH216661   3.216   0.469   5.731 -0.4905  0.1559  0.1981
 5573TIP3    H116662   3.149   0.477   5.664  0.6738 -0.5153 -1.0745
 5573TIP3    H216663   3.299   0.476   5.683  0.3617 -1.0921  1.4491
 5574TIP3   OH216664   0.119   2.508   4.861 -0.4948 -0.5793  0.1816
 5574TIP3    H116665   0.075   2.423   4.852 -0.7776 -0.5119  0.8745
 5574TIP3    H216666   0.179   2.496   4.934  0.4307 -0.5795 -0.5757
 5575TIP3   OH216667   0.841   1.931   5.456  0.3008  0.5916  0.1435
 5575TIP3    H116668   0.916   1.969   5.410 -0.2645  0.7251 -0.6946
 5575TIP3    H216669   0.813   1.859   5.399  0.9558 -0.6629  1.3969
 5576TIP3   OH216670   3.051   0.990   4.488  0.3855  0.0868 -0.4214
 5576TIP3    H116671   2.992   0.985   4.414  1.7522  1.7922 -1.6707
 5576TIP3    H216672   3.127   0.938   4.463  0.0099 -0.9939  0.6222
 5577TIP3   OH216673   2.046   1.334   5.315 -0.6582 -0.2000 -0.8412
 5577TIP3    H116674   2.052   1.290   5.400 -1.4570 -1.5393 -1.4664
 5577TIP3    H216675   1.993   1.412   5.333 -1.0875 -0.6394 -0.1800
 5578TIP3   OH216676   4.489   6.626   1.212 -0.1165  0.0645  0.6134
 5578TIP3    H116677   4.498   6.720   1.228 -2.5610  0.6400 -1.1583
 5578TIP3    H216678   4.549   6.608   1.140 -1.8112  0.8684 -1.0157
 5579TIP3   OH216679   2.147   2.549   4.238  0.4441 -0.2429  0.1468
 5579TIP3    H116680   2.205   2.600   4.296  0.6861 -1.1718  0.7447
 5579TIP3    H216681   2.096   2.495   4.298 -1.4119  0.9235 -0.3504
 5580TIP3   OH216682   0.953   1.861   4.825  0.2823  0.0414 -0.0405
 5580TIP3    H116683   0.875   1.896   4.869  0.3734  0.6089 -0.3199
 5580TIP3    H216684   0.922   1.782   4.781  0.5524 -1.3903  2.3243
 5581TIP3   OH216685   8.400   2.289   3.815 -0.3216 -0.0040 -0.0198
 5581TIP3    H116686   8.309   2.313   3.830 -0.5513 -0.7488 -0.2505
 5581TIP3    H216687   8.449   2.367   3.843 -1.0652  0.7240 -0.7059
 5582TIP3   OH216688   1.389   0.873   3.798  0.3594  0.2632  0.0346
 5582TIP3    H116689   1.344   0.859   3.881  2.0148  0.6457  0.9960
 5582TIP3    H216690   1.333   0.936   3.752  0.1644  1.1249  1.4256
 5583TIP3   OH216691   0.074   1.341   4.083 -0.3591  0.6536  0.0471
 5583TIP3    H116692   0.125   1.283   4.026  0.8366 -0.5381  2.2462
 5583TIP3    H216693  -0.017   1.323   4.061 -0.1051 -3.2844  1.7269
 5584TIP3   OH216694   2.275   2.037   5.562  0.4422 -0.2034  0.1600
 5584TIP3    H116695   2.233   2.070   5.483  0.2821  0.3780  0.4837
 5584TIP3    H216696   2.317   1.956   5.535  1.5704  0.6935 -0.8584
 5585TIP3   OH216697   2.286   2.006   6.460 -0.3517 -0.2942  0.5802
 5585TIP3    H116698   2.301   2.003   6.554  0.2248 -0.2316  0.4932
 5585TIP3    H216699   2.358   2.060   6.426  0.7325 -2.1567 -0.1464
 5586TIP3   OH216700   1.413   1.683   5.047 -0.3939  0.0282 -0.1445
 5586TIP3    H116701   1.426   1.693   4.952  1.3982 -0.6298  0.0012
 5586TIP3    H216702   1.372   1.597   5.057  1.2469 -0.7922 -0.2244
 5587TIP3   OH216703   1.178   3.372   5.240 -0.2050 -0.0715  0.4379
 5587TIP3    H116704   1.226   3.376   5.157  0.7774 -0.9277  0.9626
 5587TIP3    H216705   1.227   3.428   5.299 -0.5972  0.0955  0.6044
 5588TIP3   OH216706   1.424   7.746   3.628 -0.2845 -0.2070  0.2177
 5588TIP3    H116707   1.480   7.766   3.702 -0.6782 -0.0540  0.4753
 5588TIP3    H216708   1.362   7.819   3.623 -0.0662 -0.0593 -0.4534
 5589TIP3   OH216709   7.925   3.538   0.608 -0.0810  0.1429  0.2359
 5589TIP3    H116710   7.843   3.578   0.638 -0.0980  0.5320 -0.3153
 5589TIP3    H216711   7.897   3.463   0.556 -0.1096  0.7586 -0.6374
 5590TIP3   OH216712   1.612   2.970   6.883 -0.0450 -0.4923  0.5192
 5590TIP3    H116713   1.618   3.066   6.888 -0.1258 -0.5036  0.8805
 5590TIP3    H216714   1.692   2.939   6.925  0.6179 -0.5701 -0.7891
 5591TIP3   OH216715   2.281   2.009   3.763 -0.5008 -0.4010  0.3243
 5591TIP3    H116716   2.336   1.933   3.782  0.1909 -0.5585 -2.1731
 5591TIP3    H216717   2.342   2.077   3.735 -1.1259  1.0730  2.3677
 5592TIP3   OH216718   7.596   6.866   3.607  0.2470  0.2439  0.0135
 5592TIP3    H116719   7.587   6.771   3.611  0.4753  0.2657  1.5632
 5592TIP3    H216720   7.670   6.881   3.549 -0.5708 -0.4675 -1.2356
 5593TIP3   OH216721   3.531   2.350   5.558 -0.1498  0.2064  0.1880
 5593TIP3    H116722   3.453   2.384   5.602 -0.9862 -0.5132 -0.7396
 5593TIP3    H216723   3.585   2.428   5.541  0.1566  0.5183  2.4028
 5594TIP3   OH216724   1.798   1.494   3.406 -0.3081  0.2481 -0.6395
 5594TIP3    H116725   1.773   1.573   3.455  1.1599  0.0806  0.4361
 5594TIP3    H216726   1.736   1.427   3.435  0.6447  0.1051  1.1811
 5595TIP3   OH216727   1.244   1.797   5.699 -0.1594 -0.0472 -0.1695
 5595TIP3    H116728   1.319   1.750   5.734  0.1675  0.2938 -0.4025
 5595TIP3    H216729   1.225   1.754   5.615 -0.6181 -0.5337  0.1822
 5596TIP3   OH216730   1.187   0.764   3.564 -0.1546 -0.1149  0.1518
 5596TIP3    H116731   1.275   0.741   3.533 -0.1761  0.5237 -0.4021
 5596TIP3    H216732   1.129   0.702   3.519 -0.1468  0.5561 -0.8049
 5597TIP3   OH216733   2.437   1.686   5.180  0.5331 -0.2746 -0.2371
 5597TIP3    H116734   2.395   1.603   5.159 -2.1297  1.0360 -0.3212
 5597TIP3    H216735   2.404   1.747   5.113  2.4484  0.8614 -0.1952
 5598TIP3   OH216736   1.094   2.914   4.322  0.6552 -0.2354  0.1337
 5598TIP3    H116737   1.100   2.925   4.417  0.5191 -0.4341  0.1665
 5598TIP3    H216738   1.012   2.957   4.298  1.0997  0.5491 -0.0108
 5599TIP3   OH216739   2.142   2.556   3.968 -0.3350  0.5056  0.1946
 5599TIP3    H116740   2.237   2.568   3.963  0.0766 -1.6076  1.9628
 5599TIP3    H216741   2.125   2.543   4.061 -2.3442  0.6051 -0.1434
 5600TIP3   OH216742   4.106   6.040   0.594 -0.2594 -0.0874  0.3185
 5600TIP3    H116743   4.143   6.128   0.586  0.4159 -0.4668 -0.7990
 5600TIP3    H216744   4.075   6.036   0.684 -1.3824  1.7240  0.0503
 5601TIP3   OH216745   3.627   3.910   1.749 -0.2314  0.3963 -0.5576
 5601TIP3    H116746   3.701   3.932   1.692 -0.0364 -1.6261 -1.1169
 5601TIP3    H216747   3.650   3.949   1.834 -0.5660  3.5073 -1.8115
 5602TIP3   OH216748   2.003   0.909   2.647  0.1033  0.7258  0.1849
 5602TIP3    H116749   1.947   0.908   2.569  0.5642  0.6230 -0.1434
 5602TIP3    H216750   2.021   0.817   2.665  0.2328  0.7635  0.2481
 5603TIP3   OH216751   1.903   1.173   6.921  0.6018 -0.0748  0.5799
 5603TIP3    H116752   1.841   1.188   6.849 -0.0053 -0.7064  0.9616
 5603TIP3    H216753   1.849   1.173   7.000  1.1524 -0.1785  0.9610
 5604TIP3   OH216754   2.046   1.364   4.269  0.2371 -0.0178 -0.4583
 5604TIP3    H116755   2.041   1.449   4.312 -0.4433 -0.8868  1.2020
 5604TIP3    H216756   1.959   1.351   4.231 -0.4338 -1.0774  1.4239
 5605TIP3   OH216757   5.203   5.425   0.148 -0.3243  0.9916 -0.1486
 5605TIP3    H116758   5.156   5.496   0.191 -0.2354  0.9216  0.0636
 5605TIP3    H216759   5.187   5.439   0.055  1.2766  2.4102 -0.2269
 5606TIP3   OH216760   1.205   1.740   4.712  0.4017 -0.1972 -0.0383
 5606TIP3    H116761   1.290   1.740   4.668  1.1565 -2.1174  1.3717
 5606TIP3    H216762   1.172   1.651   4.699 -0.8343  0.1755  0.5022
 5607TIP3   OH216763   3.460   0.003   4.437  0.2337 -0.2059 -0.0417
 5607TIP3    H116764   3.543  -0.038   4.457  0.8980  0.5992 -1.1216
 5607TIP3    H216765   3.483   0.083   4.388 -1.1228  0.3325  0.1634
 5608TIP3   OH216766   3.139   5.999   1.351  0.0043  0.0686  0.1211
 5608TIP3    H116767   3.173   5.929   1.407 -1.2275 -1.0741 -0.5310
 5608TIP3    H216768   3.160   6.079   1.398  1.6392 -0.7241  0.7712
 5609TIP3   OH216769   2.813   0.291   4.405  0.1792  0.1129  0.4040
 5609TIP3    H116770   2.773   0.347   4.338 -0.4647 -1.2525 -0.3768
 5609TIP3    H216771   2.896   0.264   4.367 -0.9112 -1.9900 -0.5779
 5610TIP3   OH216772   2.717   6.123   0.004  0.2103  0.2737 -0.1499
 5610TIP3    H116773   2.680   6.199   0.050  0.9824  0.9777 -0.6903
 5610TIP3    H216774   2.645   6.059   0.003 -0.1329  0.6105  1.1743
 5611TIP3   OH216775   3.912   1.235   3.578 -0.2823  0.0895 -0.4141
 5611TIP3    H116776   3.853   1.189   3.518  1.8416 -3.7557  0.2554
 5611TIP3    H216777   3.976   1.168   3.604  1.3006  2.7428  2.8835
 5612TIP3   OH216778   1.464   7.707   5.839  0.6170 -0.2357 -0.4606
 5612TIP3    H116779   1.494   7.787   5.882 -0.6633  0.6839 -1.2249
 5612TIP3    H216780   1.388   7.679   5.889 -1.0611  1.0105 -2.2543
 5613TIP3   OH216781   1.468   1.966   5.409 -0.1424 -0.7774 -0.3370
 5613TIP3    H116782   1.522   1.887   5.403  0.9152 -0.1123  0.1311
 5613TIP3    H216783   1.493   2.005   5.493 -1.0369 -0.2142 -0.3236
 5614TIP3   OH216784   8.407   0.963   5.723  0.0036  0.7687  0.1805
 5614TIP3    H116785   8.419   0.872   5.748 -0.7462  0.2172 -1.3808
 5614TIP3    H216786   8.325   0.963   5.674 -0.2519  2.3698  0.5961
 5615TIP3   OH216787   2.639   0.612   4.371 -0.4869 -0.2263 -0.0598
 5615TIP3    H116788   2.562   0.601   4.425  0.4045 -0.3880  1.2015
 5615TIP3    H216789   2.616   0.680   4.308 -1.6799 -0.3513  0.2459
 5616TIP3   OH216790   2.400   0.789   5.159  0.0099 -0.6276  0.6513
 5616TIP3    H116791   2.392   0.694   5.149 -0.1705 -0.5961  0.4971
 5616TIP3    H216792   2.487   0.802   5.197 -0.4500 -0.9330  1.8024
 5617TIP3   OH216793   7.820   3.368   0.361 -0.1278 -0.1170 -0.1623
 5617TIP3    H116794   7.850   3.281   0.334 -0.6307 -0.5372  0.5731
 5617TIP3    H216795   7.819   3.419   0.281  0.0430 -0.8356 -0.6326
 5618TIP3   OH216796   3.392   0.354   5.130 -0.1035  0.1137  0.2755
 5618TIP3    H116797   3.467   0.320   5.178 -0.6114 -0.8105  0.4381
 5618TIP3    H216798   3.319   0.297   5.156 -1.1555  1.8155  1.1638
 5619TIP3   OH216799   0.938   0.649   5.851 -0.0916  0.1370  0.2291
 5619TIP3    H116800   0.849   0.645   5.817 -0.6774 -0.0799  1.7299
 5619TIP3    H216801   0.928   0.672   5.944  1.2954 -1.5412  0.8466
 5620TIP3   OH216802   7.923   5.365   0.150 -0.6791 -0.0675 -0.1527
 5620TIP3    H116803   7.958   5.450   0.122  0.4252 -0.1263  1.0262
 5620TIP3    H216804   7.978   5.339   0.223 -1.6656 -1.3292  0.1579
 5621TIP3   OH216805   1.797   1.645   4.817 -0.6216  0.4316 -0.1816
 5621TIP3    H116806   1.704   1.654   4.797 -0.5653  1.2538 -0.0878
 5621TIP3    H216807   1.842   1.692   4.747 -0.3108  0.7464  0.2246
 5622TIP3   OH216808   2.306   1.091   4.595 -0.1624 -0.1295  0.2234
 5622TIP3    H116809   2.352   1.071   4.677 -0.7234  0.5681  0.7157
 5622TIP3    H216810   2.228   1.139   4.622 -0.0387  0.6557 -0.7555
 5623TIP3   OH216811   6.600   6.589   0.474  0.0591 -0.2685  0.7677
 5623TIP3    H116812   6.522   6.537   0.453  0.3768 -0.1848 -0.6706
 5623TIP3    H216813   6.569   6.680   0.470  0.2387 -0.2318  0.1140
 5624TIP3   OH216814   6.110   7.766   5.084 -0.0351 -0.3001 -0.0551
 5624TIP3    H116815   6.122   7.729   4.997  0.0454 -1.1841  0.3321
 5624TIP3    H216816   6.174   7.837   5.089 -0.6704  0.3575 -1.0501
 5625TIP3   OH216817   1.720   2.508   5.772  0.2829 -0.3039 -0.1706
 5625TIP3    H116818   1.714   2.564   5.849  0.6250  1.0121 -1.0893
 5625TIP3    H216819   1.774   2.557   5.710  1.1980 -1.9609 -0.7209
 5626TIP3   OH216820   0.147   1.859   5.645 -0.5991  0.3282 -0.0603
 5626TIP3    H116821   0.054   1.839   5.649 -0.2474 -1.7729 -1.6265
 5626TIP3    H216822   0.162   1.885   5.554  0.7802 -1.8435 -0.4929
 5627TIP3   OH216823   1.995   0.535   4.498  0.1152 -0.0979 -0.3499
 5627TIP3    H116824   2.048   0.505   4.571  1.5880  0.1566 -1.2887
 5627TIP3    H216825   1.999   0.631   4.503  1.5698 -0.0711 -1.6972
 5628TIP3   OH216826   2.122   3.561   5.154  0.4245  0.2712 -0.3581
 5628TIP3    H116827   2.206   3.536   5.190  0.5087 -0.1453 -0.8414
 5628TIP3    H216828   2.078   3.478   5.135 -0.3621  0.4823  0.5115
 5629TIP3   OH216829   3.880   6.276   0.448  0.3576 -0.1274  0.1007
 5629TIP3    H116830   3.841   6.242   0.529  0.7154 -0.0339  0.3123
 5629TIP3    H216831   3.812   6.333   0.412 -0.0390 -0.6527  0.0160
 5630TIP3   OH216832   1.852   1.285   4.870 -0.5329 -0.4336  0.2439
 5630TIP3    H116833   1.878   1.373   4.897 -0.5615 -0.1919 -0.5191
 5630TIP3    H216834   1.909   1.264   4.796 -1.6989 -0.3761 -0.6773
 5631TIP3   OH216835   4.584   0.083   5.122 -0.3334 -1.0180  0.3654
 5631TIP3    H116836   4.639   0.013   5.087 -0.1212 -0.2870 -0.8047
 5631TIP3    H216837   4.496   0.065   5.088  0.3229  1.0077 -2.6171
 5632TIP3   OH216838   3.266   0.446   4.469 -0.0408  0.2317  0.1967
 5632TIP3    H116839   3.220   0.366   4.440  0.7698  0.2744 -1.2960
 5632TIP3    H216840   3.264   0.503   4.392 -0.1982  1.4609  1.1165
 5633TIP3   OH216841   4.895   0.434   5.199  0.0844  0.5912  0.0222
 5633TIP3    H116842   4.951   0.439   5.277 -1.4337  1.6904  1.0756
 5633TIP3    H216843   4.877   0.526   5.178 -1.9007  0.2374  0.1311
 5634TIP3   OH216844   2.675   1.128   4.987  0.3225 -0.2817  0.0135
 5634TIP3    H116845   2.621   1.202   4.960 -0.1738 -1.1882 -1.5714
 5634TIP3    H216846   2.649   1.110   5.078 -0.6177  0.5300 -0.0946
 5635TIP3   OH216847   1.360   7.626   4.864  0.1401  0.4662 -0.2045
 5635TIP3    H116848   1.267   7.602   4.867  0.0212  0.7192 -1.5956
 5635TIP3    H216849   1.363   7.706   4.811  1.3571 -0.6034 -1.7884
 5636TIP3   OH216850   1.968   1.454   3.721  0.1963 -0.2913 -0.3871
 5636TIP3    H116851   1.930   1.468   3.634  1.3141 -1.0522 -1.0111
 5636TIP3    H216852   2.062   1.466   3.708  0.2383  1.2778  1.0781
 5637TIP3   OH216853   3.681   0.881   4.631  0.0281 -0.0102  0.0588
 5637TIP3    H116854   3.712   0.971   4.617  0.0880 -0.2808 -1.7949
 5637TIP3    H216855   3.595   0.891   4.669 -0.2965  0.8761 -0.8683
 5638TIP3   OH216856   7.566   2.576   1.866  0.1055  0.8635 -0.5498
 5638TIP3    H116857   7.566   2.670   1.883  0.6447  0.9712 -1.0895
 5638TIP3    H216858   7.548   2.569   1.772  0.3742  0.4458 -0.5713
 5639TIP3   OH216859   0.862   7.760   5.191  0.7167 -0.0686 -0.2551
 5639TIP3    H116860   0.918   7.751   5.114 -1.2523 -1.5318 -1.5631
 5639TIP3    H216861   0.839   7.670   5.215  0.0289  0.4506  1.1107
 5640TIP3   OH216862   1.753   6.479   4.661 -0.3543 -0.5449 -0.4038
 5640TIP3    H116863   1.728   6.542   4.593 -1.0138 -0.3739 -0.0054
 5640TIP3    H216864   1.674   6.468   4.714  0.4213 -0.0237  0.8575
 5641TIP3   OH216865   2.553   0.058   4.390  0.1722 -0.7800  0.0290
 5641TIP3    H116866   2.570   0.126   4.325  0.9195  0.2127  1.2410
 5641TIP3    H216867   2.596  -0.020   4.355 -0.0095 -0.4302 -0.9879
 5642TIP3   OH216868   4.127   1.586   4.641 -0.6235 -0.1865 -0.1040
 5642TIP3    H116869   4.150   1.655   4.704  0.1776 -0.3286 -0.2486
 5642TIP3    H216870   4.130   1.629   4.556 -0.9745 -0.1880 -0.1202
 5643TIP3   OH216871   2.650   7.249   5.211 -0.1130 -0.0212 -0.1636
 5643TIP3    H116872   2.665   7.170   5.159 -2.1943 -1.0239  0.7152
 5643TIP3    H216873   2.650   7.218   5.301 -1.2504  0.9328  0.1723
 5644TIP3   OH216874   4.133   1.274   5.333 -0.1911 -0.1814 -0.7193
 5644TIP3    H116875   4.149   1.367   5.349 -1.1331 -0.6143  3.0772
 5644TIP3    H216876   4.064   1.273   5.267  0.7017  1.7877 -1.7401
 5645TIP3   OH216877   3.569   0.236   5.342 -0.0864 -0.4321  0.1850
 5645TIP3    H116878   3.660   0.267   5.337 -0.3853  0.4371  0.0616
 5645TIP3    H216879   3.574   0.143   5.319  0.6269 -0.1199 -0.9833
 5646TIP3   OH216880   2.016   0.798   6.204 -1.1071 -0.3073  0.7834
 5646TIP3    H116881   2.031   0.714   6.248  0.5643  0.6670  2.1532
 5646TIP3    H216882   1.921   0.812   6.210 -1.2100 -1.3936  1.8601
 5647TIP3   OH216883   0.553   7.479   5.375  0.1710  0.2400  0.2013
 5647TIP3    H116884   0.622   7.529   5.332 -0.6254  0.7348 -0.5185
 5647TIP3    H216885   0.550   7.396   5.328  0.5690  0.0466  0.5156
 5648TIP3   OH216886   2.388   1.842   4.731 -0.1542  0.3767  0.4159
 5648TIP3    H116887   2.317   1.876   4.677  0.8325 -0.5287 -1.4732
 5648TIP3    H216888   2.415   1.762   4.688  1.0502 -0.0567  1.9398
 5649TIP3   OH216889   2.382   7.124   4.624  0.0580  0.1472  0.6076
 5649TIP3    H116890   2.388   7.171   4.708  0.4220 -0.5020  0.9420
 5649TIP3    H216891   2.472   7.116   4.595 -0.1743  1.8149 -0.6562
 5650TIP3   OH216892   7.406   4.086   5.162 -0.2801  0.1927  0.1681
 5650TIP3    H116893   7.362   4.163   5.196 -2.5333 -1.2426  0.6359
 5650TIP3    H216894   7.362   4.068   5.078  0.2229 -0.5528  0.0565
 5651TIP3   OH216895   4.490   1.404   5.283  0.5152  0.1047  0.5934
 5651TIP3    H116896   4.571   1.442   5.314 -0.2350  0.1891  2.4837
 5651TIP3    H216897   4.421   1.454   5.327 -0.5233 -1.6851  1.0722
 5652TIP3   OH216898   6.066   1.685   5.694  0.1285 -0.2074  0.1338
 5652TIP3    H116899   6.092   1.740   5.768 -0.0287 -1.5049  1.1788
 5652TIP3    H216900   5.975   1.710   5.676  1.3090  2.7512 -2.0774
 5653TIP3   OH216901   3.574   0.114   5.649 -0.0661  0.2132  0.1248
 5653TIP3    H116902   3.500   0.174   5.642  0.0306  0.4035  0.6574
 5653TIP3    H216903   3.543   0.032   5.612 -0.2929  0.5157 -0.3533
 5654TIP3   OH216904   0.470   6.535   2.917  0.0844 -0.6048  0.4018
 5654TIP3    H116905   0.403   6.477   2.955  0.1766  0.7989  2.8156
 5654TIP3    H216906   0.446   6.542   2.825 -2.0184 -1.6129  0.8344
 5655TIP3   OH216907   2.689   6.957   5.197  0.5943  0.4528  0.2217
 5655TIP3    H116908   2.695   6.867   5.231  0.7207  0.8100  1.1456
 5655TIP3    H216909   2.600   6.963   5.162  0.3712  0.1746  0.7375
 5656TIP3   OH216910   4.395   0.206   3.074 -0.2976  0.0360 -0.1934
 5656TIP3    H116911   4.409   0.154   2.995  0.6408  0.5203 -0.3461
 5656TIP3    H216912   4.339   0.279   3.046  2.0085  1.5528 -0.9583
 5657TIP3   OH216913   3.924   1.666   6.741 -0.0077  0.4613 -0.6954
 5657TIP3    H116914   3.882   1.646   6.658  0.1431  1.6662 -1.0677
 5657TIP3    H216915   3.865   1.629   6.807 -0.3936 -0.0279 -1.3055
 5658TIP3   OH216916   1.756   3.211   5.862 -0.3439 -0.3355 -1.0353
 5658TIP3    H116917   1.783   3.280   5.923 -2.2195 -0.3965 -0.0767
 5658TIP3    H216918   1.795   3.236   5.778  1.7522  0.1055  0.0212
 5659TIP3   OH216919   3.011   6.886   3.397 -0.1500  0.1078  0.1762
 5659TIP3    H116920   2.985   6.822   3.464 -1.7014  0.0198 -0.4902
 5659TIP3    H216921   2.928   6.914   3.358  0.6223  1.4887 -0.4931
 5660TIP3   OH216922   0.806   7.505   5.257 -0.0307  0.4892 -0.5981
 5660TIP3    H116923   0.761   7.472   5.179 -0.7080  1.2734 -0.5472
 5660TIP3    H216924   0.854   7.430   5.291  2.0236  0.6672 -2.9878
 5661TIP3   OH216925   3.039   0.698   4.174 -0.0162 -0.0590  0.0035
 5661TIP3    H116926   2.964   0.737   4.219 -0.0646 -0.6855  0.4647
 5661TIP3    H216927   3.042   0.743   4.089 -0.6938  0.2209  0.1274
 5662TIP3   OH216928   1.378   7.450   5.515 -0.2052  0.2447  0.4101
 5662TIP3    H116929   1.437   7.413   5.580  1.6737 -0.0803 -1.4241
 5662TIP3    H216930   1.415   7.537   5.497 -0.3800  0.1128 -0.6123
 5663TIP3   OH216931   0.276   3.556   3.460 -0.0502  0.0168  0.0708
 5663TIP3    H116932   0.215   3.543   3.533 -2.1918  0.4493 -1.6027
 5663TIP3    H216933   0.276   3.473   3.413  0.8002 -0.0330  0.1447
 5664TIP3   OH216934   2.044   7.165   3.960 -0.0896 -0.3196  0.5000
 5664TIP3    H116935   2.003   7.194   3.878 -0.0722 -0.3089  0.4951
 5664TIP3    H216936   2.119   7.224   3.971 -0.0293 -0.3910  0.4688
 5665TIP3   OH216937   3.474   1.527   6.868 -0.6602  0.0302 -0.4478
 5665TIP3    H116938   3.483   1.583   6.945 -0.2514 -0.0232 -0.4537
 5665TIP3    H216939   3.473   1.588   6.794  2.8058 -0.1128 -0.6705
 5666TIP3   OH216940   1.191   0.258   4.400 -0.4121  0.0479 -0.2234
 5666TIP3    H116941   1.177   0.272   4.306 -0.0849  0.5271 -0.1998
 5666TIP3    H216942   1.285   0.272   4.412 -0.5956  0.8246  0.3204
 5667TIP3   OH216943   7.149   4.801   0.062 -0.1411 -0.2373  0.0982
 5667TIP3    H116944   7.194   4.782   0.144  0.7207  0.3890 -0.2150
 5667TIP3    H216945   7.219   4.825   0.001 -0.7061 -1.3045 -1.0006
 5668TIP3   OH216946   2.921   0.051   3.817 -0.4141 -0.0131  0.1073
 5668TIP3    H116947   2.887  -0.034   3.843 -0.0821 -0.2883 -0.3468
 5668TIP3    H216948   2.998   0.064   3.872 -0.3832 -0.0706  0.0780
 5669TIP3   OH216949   1.486   6.663   6.477 -0.0586 -0.1149  0.5519
 5669TIP3    H116950   1.457   6.706   6.396 -0.0291  0.7602  1.0061
 5669TIP3    H216951   1.449   6.575   6.471 -0.0805 -0.0481 -0.4031
 5670TIP3   OH216952   4.856   2.320   5.219  0.2784 -0.4330 -0.4836
 5670TIP3    H116953   4.843   2.237   5.175  0.5601  0.1475 -1.6910
 5670TIP3    H216954   4.785   2.326   5.282  0.0792 -1.4398 -0.6065
 5671TIP3   OH216955   2.262   0.703   6.650  0.5725  0.1434  0.3060
 5671TIP3    H116956   2.268   0.727   6.743  0.3279  0.3903  0.2614
 5671TIP3    H216957   2.200   0.766   6.614  2.8897  1.9220 -0.6681
 5672TIP3   OH216958   3.020   1.532   3.950  0.1789  0.0470  0.0833
 5672TIP3    H116959   3.058   1.589   3.883  3.0463  1.1697  2.5280
 5672TIP3    H216960   2.942   1.579   3.980 -0.3745  0.1669 -1.5083
 5673TIP3   OH216961   0.306   1.447   5.043  0.6151 -0.7551  0.3349
 5673TIP3    H116962   0.214   1.457   5.018  1.1398  0.2671 -1.2787
 5673TIP3    H216963   0.337   1.537   5.056  1.5794 -1.0520  0.1341
 5674TIP3   OH216964   0.425   7.860   4.451 -0.0224 -0.1808 -0.3787
 5674TIP3    H116965   0.482   7.936   4.461 -2.0275  1.1305  1.8100
 5674TIP3    H216966   0.344   7.896   4.413 -0.0442 -1.6874 -1.7844
 5675TIP3   OH216967   4.051   0.279   6.185  0.2047 -0.2829 -0.1965
 5675TIP3    H116968   4.069   0.359   6.136 -1.0244  0.3853  0.4294
 5675TIP3    H216969   4.062   0.209   6.122  0.0699  0.4687 -1.0604
 5676TIP3   OH216970   5.623   0.206   6.679  0.6769 -0.2948 -0.5271
 5676TIP3    H116971   5.568   0.207   6.602 -1.5246  1.9247  1.0115
 5676TIP3    H216972   5.573   0.253   6.746  3.8867  0.7211  1.2898
 5677TIP3   OH216973   4.070   0.901   6.900  0.2830  0.4641 -0.6410
 5677TIP3    H116974   4.150   0.850   6.908 -1.0225 -1.2756  2.1451
 5677TIP3    H216975   4.031   0.871   6.817  0.6096 -1.5551 -0.1067
 5678TIP3   OH216976   3.320   5.916   6.903  0.5032 -0.1120  0.0063
 5678TIP3    H116977   3.254   5.847   6.915 -1.9457  2.0692 -0.5992
 5678TIP3    H216978   3.347   5.938   6.993 -1.0927  0.3445  0.4041
 5679TIP3   OH216979   3.353   1.001   4.214 -0.3458  0.2434  0.3075
 5679TIP3    H116980   3.361   1.076   4.154  0.3840 -0.4656 -0.4941
 5679TIP3    H216981   3.423   1.014   4.277  0.6578 -0.4658 -0.6320
 5680TIP3   OH216982   0.677   1.319   6.508 -0.1426  0.3023  0.3782
 5680TIP3    H116983   0.752   1.375   6.526 -0.9658  1.0942  1.4080
 5680TIP3    H216984   0.645   1.349   6.423 -0.5889  1.4326  0.9339
 5681TIP3   OH216985   1.222   1.072   3.703 -0.2138 -0.2647  0.5035
 5681TIP3    H116986   1.251   1.042   3.617 -0.6959 -0.3872  0.3835
 5681TIP3    H216987   1.250   1.163   3.707  1.9147 -0.9232  1.1593
 5682TIP3   OH216988   0.786   5.053   4.658  0.1262  0.7427 -0.0620
 5682TIP3    H116989   0.837   5.015   4.587 -0.4530  0.4958 -0.3425
 5682TIP3    H216990   0.701   5.075   4.619 -0.3062  0.3121  0.6247
 5683TIP3   OH216991   3.119   0.974   6.603  0.6435  0.6178  0.2822
 5683TIP3    H116992   3.050   0.948   6.664  0.3208 -0.1413 -0.3978
 5683TIP3    H216993   3.153   1.056   6.639  1.1337 -0.3064  2.0355
 5684TIP3   OH216994   0.967   6.815   3.780 -0.1102  0.4835 -0.4644
 5684TIP3    H116995   1.044   6.760   3.794  0.4076  1.3872  0.3032
 5684TIP3    H216996   0.898   6.753   3.753  0.2617 -0.6449  1.1048
 5685TIP3   OH216997   1.337   7.736   5.295  0.1715 -0.4023  0.8320
 5685TIP3    H116998   1.385   7.725   5.213  0.9886 -3.8542  1.6748
 5685TIP3    H216999   1.279   7.660   5.299 -2.4132  1.5753  1.8102
 5686TIP3   OH217000   5.094   0.896   5.076 -0.0270  0.0346 -0.2797
 5686TIP3    H117001   5.088   0.992   5.084  1.4265  0.2249 -1.4329
 5686TIP3    H217002   5.057   0.877   4.990 -0.6171 -0.4882  0.0851
 5687TIP3   OH217003   0.053   7.306   4.750 -0.2092  0.3246  0.0930
 5687TIP3    H117004  -0.037   7.337   4.762 -0.0894  0.5513  0.3973
 5687TIP3    H217005   0.081   7.346   4.668 -1.4184 -2.1301 -1.6043
 5688TIP3   OH217006   1.811   7.039   5.916  0.0397 -0.3341  0.7779
 5688TIP3    H117007   1.840   7.005   5.832 -0.6807 -0.9568  0.7765
 5688TIP3    H217008   1.858   7.122   5.926 -1.0609  0.5257 -0.9631
 5689TIP3   OH217009   3.452   0.667   4.442 -0.1504  0.0364  0.4985
 5689TIP3    H117010   3.474   0.664   4.536 -1.8239 -0.6700  0.8751
 5689TIP3    H217011   3.377   0.727   4.437 -0.2064 -0.1066 -0.3684
 5690TIP3   OH217012   4.424   1.886   5.917 -0.0580  0.6621 -0.6565
 5690TIP3    H117013   4.373   1.965   5.899 -1.9641 -0.7022 -1.3489
 5690TIP3    H217014   4.378   1.844   5.989  1.6268  0.7435  0.5204
 5691TIP3   OH217015   4.581   0.359   4.942  0.6732  0.2130  0.5868
 5691TIP3    H117016   4.632   0.413   4.881  0.0987 -1.0415 -1.0481
 5691TIP3    H217017   4.518   0.313   4.886 -0.0539 -0.7545  2.1760
 5692TIP3   OH217018   7.279   6.287   3.988 -0.2918 -0.9051 -0.0993
 5692TIP3    H117019   7.293   6.193   4.003 -0.8334 -1.1230 -0.9143
 5692TIP3    H217020   7.190   6.303   4.020  0.4244 -0.2907  1.6673
 5693TIP3   OH217021   5.912   1.453   0.800 -0.0026 -0.2261  0.8880
 5693TIP3    H117022   5.881   1.378   0.851 -0.4607 -0.6064  0.0745
 5693TIP3    H217023   5.850   1.523   0.820 -0.4024 -0.4848  0.5780
 5694TIP3   OH217024   2.122   7.598   4.948 -0.1608 -0.6872 -0.2848
 5694TIP3    H117025   2.139   7.657   4.874 -0.0188 -0.7158 -0.2749
 5694TIP3    H217026   2.028   7.579   4.942  0.0480 -1.5318 -1.0787
 5695TIP3   OH217027   3.336   0.260   4.665  0.0814 -0.5758 -0.4369
 5695TIP3    H117028   3.325   0.320   4.591  2.3948 -0.0850 -0.4237
 5695TIP3    H217029   3.384   0.311   4.730 -1.6090 -1.1137  1.2978
 5696TIP3   OH217030   7.788   6.909   4.210 -0.6883  0.1793 -0.1362
 5696TIP3    H117031   7.779   6.824   4.252  3.1594 -0.5508 -0.5782
 5696TIP3    H217032   7.826   6.890   4.124  3.2701  2.4642  0.9792
 5697TIP3   OH217033   3.024   1.109   2.532  0.0178  0.5472  0.6752
 5697TIP3    H117034   2.952   1.156   2.574 -1.5900 -0.3107 -1.0632
 5697TIP3    H217035   3.091   1.102   2.600 -0.1740  4.2925  1.3255
 5698TIP3   OH217036   3.586   7.178   4.117  0.2834  0.5606  0.1607
 5698TIP3    H117037   3.572   7.147   4.027 -0.3138  0.1082  0.4052
 5698TIP3    H217038   3.593   7.097   4.169  0.5747  0.8204  0.5293
 5699TIP3   OH217039   0.524   1.150   6.932 -0.3511  0.1496  0.2332
 5699TIP3    H117040   0.596   1.205   6.962 -0.2231 -0.5046  1.1502
 5699TIP3    H217041   0.462   1.211   6.892  0.0461  0.8860  0.7329
 5700TIP3   OH217042   1.089   7.193   5.177 -0.3371  0.9012 -0.0567
 5700TIP3    H117043   1.175   7.172   5.212  0.0147  1.2339 -0.7039
 5700TIP3    H217044   1.102   7.197   5.082 -0.5996  3.0888 -0.0221
 5701TIP3   OH217045   2.677   7.471   5.923 -0.2059 -0.4218  0.5672
 5701TIP3    H117046   2.598   7.498   5.877 -0.5453 -2.4287 -0.0679
 5701TIP3    H217047   2.655   7.386   5.963  2.0653 -1.7551 -0.8924
 5702TIP3   OH217048   4.293   2.222   4.554  0.1751 -0.3961  0.2714
 5702TIP3    H117049   4.372   2.264   4.520 -0.4246  0.0172 -0.6280
 5702TIP3    H217050   4.225   2.288   4.546 -0.5410 -1.1702 -0.1715
 5703TIP3   OH217051   2.053   6.684   5.967 -0.1595 -0.4236 -1.0905
 5703TIP3    H117052   2.060   6.656   6.059 -1.5170  1.8734 -0.2393
 5703TIP3    H217053   2.139   6.719   5.946 -0.1340 -0.0276 -0.3461
 5704TIP3   OH217054   0.838   8.000   5.332  0.4420 -0.2855 -0.4902
 5704TIP3    H117055   0.859   7.936   5.265  1.2653 -2.7529  2.0416
 5704TIP3    H217056   0.777   7.954   5.391  1.2514  1.1353  1.5203
 5705TIP3   OH217057   3.211   2.059   4.335 -0.0390 -0.6812  0.2267
 5705TIP3    H117058   3.304   2.078   4.319 -0.0587  1.4969  2.4606
 5705TIP3    H217059   3.210   2.014   4.419 -0.9291 -1.6500 -0.2941
 5706TIP3   OH217060   2.311   6.476   5.062  0.0946 -0.2273  0.0883
 5706TIP3    H117061   2.392   6.430   5.038  0.2868  0.2474 -0.1895
 5706TIP3    H217062   2.318   6.561   5.017 -0.1902  0.1265  0.7018
 5707TIP3   OH217063   3.155   2.215   3.510 -0.5694 -0.6893  0.0930
 5707TIP3    H117064   3.208   2.260   3.575 -2.1450  1.4785 -0.0499
 5707TIP3    H217065   3.106   2.149   3.559  0.6960 -1.2970  0.5480
 5708TIP3   OH217066   2.590   2.463   5.173  0.0736  1.0947 -0.4279
 5708TIP3    H117067   2.527   2.486   5.240 -0.9425  0.1276 -1.0342
 5708TIP3    H217068   2.541   2.411   5.110  1.3215  0.8636 -1.2401
 5709TIP3   OH217069   8.234   7.446   4.452  0.3392 -0.0428  0.2047
 5709TIP3    H117070   8.192   7.489   4.526 -3.0471 -1.0981 -1.0220
 5709TIP3    H217071   8.253   7.516   4.390  0.0909  0.4063  0.6410
 5710TIP3   OH217072   4.876   6.626   0.401  0.7688  0.1853 -0.0896
 5710TIP3    H117073   4.851   6.716   0.378 -0.2949  0.0036  0.3016
 5710TIP3    H217074   4.958   6.635   0.449 -0.3333  1.1418  1.6700
 5711TIP3   OH217075   1.550   3.228   4.236  0.5166  0.0174  0.1862
 5711TIP3    H117076   1.631   3.179   4.230  1.1949  0.8454  2.2864
 5711TIP3    H217077   1.528   3.228   4.329 -2.0855 -0.4953 -0.3744
 5712TIP3   OH217078   2.836   1.325   6.053 -0.0969  0.3103  0.1722
 5712TIP3    H117079   2.918   1.321   6.101 -0.0350 -1.3909 -0.0394
 5712TIP3    H217080   2.844   1.259   5.985 -0.0271  2.9689 -2.4937
 5713TIP3   OH217081   1.085   6.734   4.693 -0.1061 -0.1805 -0.3060
 5713TIP3    H117082   1.149   6.735   4.765 -0.1393 -0.5599 -0.2701
 5713TIP3    H217083   1.124   6.678   4.627 -1.2478 -1.9519  0.4982
 5714TIP3   OH217084   4.089   1.659   4.218 -0.4428 -0.4806  0.1080
 5714TIP3    H117085   4.097   1.723   4.288 -1.9580  0.7566 -0.8088
 5714TIP3    H217086   4.009   1.683   4.172 -0.8593 -2.8324 -0.4801
 5715TIP3   OH217087   2.435   7.038   6.605  0.2801 -0.1269 -0.1248
 5715TIP3    H117088   2.491   7.046   6.682 -1.7073  2.1661  1.1610
 5715TIP3    H217089   2.381   7.117   6.607  0.3269  0.0757 -4.0118
 5716TIP3   OH217090   2.593   0.964   5.492 -0.5393  0.3185  0.2587
 5716TIP3    H117091   2.659   0.901   5.521 -0.0164  0.0936 -1.3665
 5716TIP3    H217092   2.608   1.041   5.546  1.5667  0.5438 -0.5971
 5717TIP3   OH217093   2.485   1.210   3.778 -0.6031  0.5966 -0.2279
 5717TIP3    H117094   2.513   1.302   3.784  1.2980 -0.0253  0.9611
 5717TIP3    H217095   2.472   1.184   3.869 -0.0142 -0.6420 -0.4983
 5718TIP3   OH217096   1.736   6.734   6.480  0.5108  0.0794 -0.0790
 5718TIP3    H117097   1.642   6.718   6.492 -0.0187  2.7937 -0.3885
 5718TIP3    H217098   1.771   6.738   6.569  0.5878 -2.1037  0.0273
 5719TIP3   OH217099   4.089   1.379   4.287 -0.1574  0.2172 -0.6798
 5719TIP3    H117100   4.102   1.462   4.243  0.7581  1.0364  1.0592
 5719TIP3    H217101   3.999   1.380   4.317 -0.2021  0.5007 -0.8322
 5720TIP3   OH217102   3.761   2.361   4.360  0.1849  0.3526  0.4231
 5720TIP3    H117103   3.766   2.399   4.448  0.3411  0.5280  0.3388
 5720TIP3    H217104   3.734   2.434   4.304 -1.9047 -0.2168  0.6285
 5721TIP3   OH217105   1.268   6.529   3.904  0.0938  0.4768 -0.0864
 5721TIP3    H117106   1.282   6.437   3.926 -2.8492 -0.0749 -0.3880
 5721TIP3    H217107   1.267   6.574   3.988  2.6908  0.4638  0.0068
 5722TIP3   OH217108   2.301   7.465   5.234  0.3688 -0.7271 -0.3270
 5722TIP3    H117109   2.396   7.464   5.238  0.3645 -0.6043 -0.1884
 5722TIP3    H217110   2.275   7.373   5.242  0.5691 -1.0192 -2.8057
 5723TIP3   OH217111   1.522   0.783   4.474  0.2723  0.4348 -0.3005
 5723TIP3    H117112   1.585   0.773   4.545 -0.1257  1.9050  0.2792
 5723TIP3    H217113   1.565   0.843   4.413  0.5239 -0.6547 -1.2027
 5724TIP3   OH217114   3.125   0.554   5.472 -0.1084 -0.2073 -0.0713
 5724TIP3    H117115   3.076   0.562   5.391  2.0542 -0.0885 -1.3888
 5724TIP3    H217116   3.171   0.638   5.481 -0.9442  0.0989  1.7102
 5725TIP3   OH217117   1.705   0.181   3.819 -0.0735  0.0743  0.0332
 5725TIP3    H117118   1.759   0.153   3.745 -0.0620 -1.5817  0.6415
 5725TIP3    H217119   1.765   0.225   3.878 -0.1070  1.5367 -0.9948
 5726TIP3   OH217120   2.214   0.046   3.760 -0.1777 -0.0393 -0.2652
 5726TIP3    H117121   2.268   0.117   3.726  0.8643 -0.8283 -0.2706
 5726TIP3    H217122   2.190  -0.006   3.682  1.7858 -1.5534  0.1104
 5727TIP3   OH217123   4.619   0.457   5.594  0.2709 -0.6261 -0.1303
 5727TIP3    H117124   4.694   0.509   5.566  1.1647 -1.5421  0.5404
 5727TIP3    H217125   4.614   0.471   5.688 -1.2927  0.5795 -0.3711
 5728TIP3   OH217126   1.257   2.770   4.833  0.1148 -0.2205 -0.1097
 5728TIP3    H117127   1.324   2.802   4.773  0.2550 -2.2372 -1.1029
 5728TIP3    H217128   1.249   2.677   4.812 -2.5538 -0.1582  0.4181
 5729TIP3   OH217129   1.754   1.249   6.040 -0.0275  0.2505 -0.1655
 5729TIP3    H117130   1.674   1.284   6.001  0.2912  2.3939  1.0530
 5729TIP3    H217131   1.724   1.176   6.094 -0.8593 -0.5191 -1.6294
 5730TIP3   OH217132   3.582   2.925   5.520  0.0800  0.2987  0.3908
 5730TIP3    H117133   3.606   2.982   5.447  0.1238 -0.7445 -0.4381
 5730TIP3    H217134   3.665   2.885   5.547 -0.0322  0.1900  0.5733
 5731TIP3   OH217135   3.524   1.134   3.338 -0.6317 -0.6616  0.1605
 5731TIP3    H117136   3.583   1.104   3.407 -1.3851  2.0723  2.0979
 5731TIP3    H217137   3.582   1.171   3.271  0.0001 -1.1330  0.4444
 5732TIP3   OH217138   5.242   2.167   5.400 -0.3060  0.3617 -0.0576
 5732TIP3    H117139   5.209   2.247   5.359  1.6786 -0.4031 -3.3006
 5732TIP3    H217140   5.171   2.104   5.393 -1.3532  1.3709  1.2096
 5733TIP3   OH217141   3.145   3.136   5.149  0.1822  0.4180 -0.0141
 5733TIP3    H117142   3.157   3.064   5.087 -1.5367  1.4302 -1.5868
 5733TIP3    H217143   3.090   3.101   5.218  1.5297 -0.5191  0.6055
 5734TIP3   OH217144   1.249   0.789   6.704 -0.0456 -0.7347  0.6178
 5734TIP3    H117145   1.175   0.849   6.715  1.0056  0.7686 -0.2506
 5734TIP3    H217146   1.221   0.730   6.634 -0.3112  0.0398  0.0542
 5735TIP3   OH217147   1.862   6.602   2.549 -0.7047  0.3501 -0.5146
 5735TIP3    H117148   1.826   6.665   2.487 -1.7483  0.0332 -0.2397
 5735TIP3    H217149   1.790   6.540   2.564 -0.7049  0.8179  1.5403
 5736TIP3   OH217150   1.797   7.363   5.544  0.1821 -0.4382  0.8808
 5736TIP3    H117151   1.761   7.305   5.611  1.8929 -1.9272  0.5332
 5736TIP3    H217152   1.733   7.360   5.472 -1.1100  0.3074  1.9716
 5737TIP3   OH217153   0.159   7.409   4.246 -0.2600 -0.1703  0.6051
 5737TIP3    H117154   0.079   7.357   4.252 -1.6541  1.6455 -1.5867
 5737TIP3    H217155   0.133   7.488   4.200  2.9564  0.1512 -0.7670
 5738TIP3   OH217156   3.443   1.253   5.877 -0.0100  0.5348 -0.0048
 5738TIP3    H117157   3.531   1.234   5.911  0.0429  0.8069  0.0083
 5738TIP3    H217158   3.390   1.179   5.906  0.4211 -0.0965 -0.7816
 5739TIP3   OH217159   2.004   2.117   6.669  0.0002  0.3645  0.2476
 5739TIP3    H117160   1.966   2.050   6.614  0.6986 -0.8923  1.2669
 5739TIP3    H217161   1.954   2.196   6.649 -0.2991 -0.2572 -1.5539
 5740TIP3   OH217162   0.609   7.940   5.491  0.0254 -0.0086 -0.3991
 5740TIP3    H117163   0.611   7.854   5.532 -1.3092 -1.0146 -2.3740
 5740TIP3    H217164   0.576   7.924   5.403  1.1885  2.3308 -1.3077
 5741TIP3   OH217165   3.676   0.608   5.237  0.6169 -0.2223 -0.0015
 5741TIP3    H117166   3.738   0.634   5.305  0.7711 -1.4803  0.3544
 5741TIP3    H217167   3.725   0.619   5.155  0.1064  2.2577 -0.0269
 5742TIP3   OH217168   2.047   6.181   5.237  0.0567  0.1077 -0.3642
 5742TIP3    H117169   2.023   6.130   5.160 -4.0348 -1.1881  1.5807
 5742TIP3    H217170   2.052   6.271   5.206  2.4225 -0.8449 -2.8700
 5743TIP3   OH217171   6.090   5.750  -0.017  0.2958 -0.3713  0.1343
 5743TIP3    H117172   6.066   5.666  -0.056 -0.1204 -0.0742 -0.2506
 5743TIP3    H217173   6.082   5.735   0.078 -1.2404 -0.3317  0.0135
 5744TIP3   OH217174   2.097   1.626   4.897 -0.3672  0.5965  0.3475
 5744TIP3    H117175   2.162   1.696   4.908 -0.7637  0.7521  1.7588
 5744TIP3    H217176   2.061   1.641   4.810  1.4580  0.5408 -0.4400
 5745TIP3   OH217177   8.032   3.052   0.863 -0.5457 -0.6479 -0.1569
 5745TIP3    H117178   7.939   3.067   0.845 -0.4911 -1.1698 -0.8998
 5745TIP3    H217179   8.061   2.995   0.792  0.1147 -1.2616  0.5951
 5746TIP3   OH217180   2.102   7.736   5.699 -0.4834  0.5301 -0.6804
 5746TIP3    H117181   2.102   7.666   5.634 -0.1565  0.2992 -0.4359
 5746TIP3    H217182   2.125   7.815   5.650 -0.3498  0.3760 -0.8693
 5747TIP3   OH217183   6.414   1.241   5.161  0.2186 -0.1471 -0.0784
 5747TIP3    H117184   6.373   1.217   5.078 -3.0002  1.0680  1.0523
 5747TIP3    H217185   6.460   1.322   5.143  0.4304 -0.4553 -0.9270
 5748TIP3   OH217186   3.151   0.198   4.063  0.2908  0.0158 -0.2739
 5748TIP3    H117187   3.153   0.283   4.107 -1.7457  0.3229 -0.7044
 5748TIP3    H217188   3.220   0.147   4.105 -0.5606  0.8328  2.2150
 5749TIP3   OH217189   4.846   0.637   4.250 -0.1838  0.0000 -0.0976
 5749TIP3    H117190   4.825   0.731   4.248 -1.1640 -0.2037  0.1045
 5749TIP3    H217191   4.853   0.612   4.158  1.6454  0.5996 -0.1335
 5750TIP3   OH217192   2.549   7.066   6.275 -0.1844  0.0555 -0.0296
 5750TIP3    H117193   2.546   6.998   6.342  3.2083  1.6972  1.8719
 5750TIP3    H217194   2.479   7.127   6.299 -0.3653 -0.4626  0.7695
 5751TIP3   OH217195   3.549   1.810   4.502 -0.3627  0.6730  0.3180
 5751TIP3    H117196   3.470   1.800   4.449 -0.1442  0.9756 -0.0609
 5751TIP3    H217197   3.621   1.808   4.439 -0.0838  0.6865  0.6343
 5752TIP3   OH217198   1.924   1.852   6.567 -0.6317 -0.4800  0.2922
 5752TIP3    H117199   1.920   1.867   6.472  2.0164  1.8750  0.4993
 5752TIP3    H217200   1.987   1.780   6.577  1.0515  0.9849  0.3870
 5753TIP3   OH217201   3.016   3.263   4.365  0.2158 -0.7123 -0.2314
 5753TIP3    H117202   2.962   3.192   4.399 -1.5684  0.6237 -0.2251
 5753TIP3    H217203   3.056   3.227   4.286  1.6197 -2.6658  1.2922
 5754TIP3   OH217204   3.912   0.953   5.536 -0.1616 -0.0536  0.6205
 5754TIP3    H117205   3.855   0.989   5.604 -0.2612  0.7558  0.1270
 5754TIP3    H217206   3.888   1.003   5.457  1.2019  0.2745  0.4033
 5755TIP3   OH217207   4.475   2.723   5.422 -0.3068 -0.0039  0.8409
 5755TIP3    H117208   4.417   2.650   5.403  0.4640  0.0337 -1.8296
 5755TIP3    H217209   4.470   2.734   5.517 -0.2685 -3.6686  1.3279
 5756TIP3   OH217210   2.891   2.959   5.047  0.7807  0.1223 -0.0222
 5756TIP3    H117211   2.860   3.050   5.056 -0.0948 -0.0548 -1.0931
 5756TIP3    H217212   2.819   2.906   5.081  1.5017 -0.1599  1.0786
 5757TIP3   OH217213   4.796   0.946   6.644 -0.2456 -0.4380 -0.2284
 5757TIP3    H117214   4.760   0.898   6.719  2.2192 -2.0986 -0.0479
 5757TIP3    H217215   4.798   0.881   6.573  0.7337  0.1297 -0.7232
 5758TIP3   OH217216   2.182   7.089   3.569  0.4586 -0.3392 -0.4429
 5758TIP3    H117217   2.241   7.015   3.564 -0.5490 -1.1149 -1.1959
 5758TIP3    H217218   2.143   7.094   3.481 -1.7307 -0.8267  0.4584
 5759TIP3   OH217219   4.193   1.284   3.614 -0.2110 -0.2258 -0.2231
 5759TIP3    H117220   4.188   1.241   3.699 -1.5386 -0.5499 -0.4570
 5759TIP3    H217221   4.208   1.212   3.552 -0.3179 -0.1135 -0.3806
 5760TIP3   OH217222   5.535   1.954   4.575 -0.0519 -0.4672  0.1244
 5760TIP3    H117223   5.628   1.961   4.595 -0.2402 -0.0280  0.8728
 5760TIP3    H217224   5.494   1.937   4.660 -0.8168  0.9522  0.0523
 5761TIP3   OH217225   4.069   1.819   4.443 -0.5014  0.0452 -0.4672
 5761TIP3    H117226   4.148   1.872   4.444 -1.1008  0.9644 -1.1718
 5761TIP3    H217227   4.009   1.864   4.501 -0.7768 -0.2327 -0.5328
 5762TIP3   OH217228   3.995   0.109   5.544  0.4725  0.0065  0.6435
 5762TIP3    H117229   3.931   0.053   5.588  0.0709  0.8882  1.1898
 5762TIP3    H217230   4.014   0.064   5.462 -0.9272 -0.2025  0.4331
 5763TIP3   OH217231   5.058   1.116   3.446  0.3928 -0.4357 -0.1538
 5763TIP3    H117232   5.051   1.211   3.450  1.2648 -0.3978  0.8399
 5763TIP3    H217233   5.152   1.099   3.449  0.2275 -1.3347  0.0670
 5764TIP3   OH217234   0.868   6.561   3.844  0.0680  0.2587 -0.0174
 5764TIP3    H117235   0.882   6.536   3.936 -1.8810 -0.7831  0.0361
 5764TIP3    H217236   0.930   6.507   3.795  0.4254  0.0760  0.6220
 5765TIP3   OH217237   8.366   0.972   6.363  0.3364 -0.1015 -0.4490
 5765TIP3    H117238   8.303   0.918   6.411 -0.5470  0.2214 -1.2269
 5765TIP3    H217239   8.440   0.982   6.423  0.0804 -1.3267  0.0907
 5766TIP3   OH217240   2.409   7.625   5.026  0.3850 -0.0746  0.0141
 5766TIP3    H117241   2.347   7.551   5.031  1.8598 -1.4927 -1.6734
 5766TIP3    H217242   2.476   7.604   5.090 -0.4032  1.0216  1.2165
 5767TIP3   OH217243   1.702   6.694   5.902  0.4180  0.1675 -0.0691
 5767TIP3    H117244   1.740   6.754   5.966  2.0002 -0.3208 -0.5304
 5767TIP3    H217245   1.775   6.636   5.876 -0.4054 -0.2139 -1.6291
 5768TIP3   OH217246   6.764   0.961   5.824 -0.0811  0.0840 -0.0183
 5768TIP3    H117247   6.737   0.875   5.857 -0.9939  0.4626  0.2018
 5768TIP3    H217248   6.759   1.019   5.899  3.8899 -0.3599  0.7347
 5769TIP3   OH217249   2.989   1.900   4.527 -0.2162 -0.5470  0.5362
 5769TIP3    H117250   2.978   1.856   4.611  1.2683 -0.9982  0.5032
 5769TIP3    H217251   2.999   1.993   4.550 -2.0748 -0.3636  0.6892
 5770TIP3   OH217252   2.915   6.343   4.813  0.0164 -0.1130  0.3060
 5770TIP3    H117253   2.994   6.348   4.759 -0.2981 -2.4381 -0.4171
 5770TIP3    H217254   2.865   6.421   4.790  1.5180  0.7473 -0.1303
 5771TIP3   OH217255   1.337   1.435   5.561  0.6889 -0.4920  0.1608
 5771TIP3    H117256   1.378   1.465   5.642  1.5240  0.1424 -0.4691
 5771TIP3    H217257   1.276   1.505   5.538 -0.3822 -1.2042  0.8373
 5772TIP3   OH217258   2.550   1.841   5.659  0.0262  0.4767  0.2055
 5772TIP3    H117259   2.507   1.834   5.574  2.5657 -0.5586 -1.0542
 5772TIP3    H217260   2.522   1.762   5.706 -0.2035  0.3010 -0.2212
 5773TIP3   OH217261   2.931   1.991   5.167 -0.1422 -0.5423 -0.2013
 5773TIP3    H117262   2.876   2.067   5.183  0.6608 -0.0558  0.2830
 5773TIP3    H217263   2.967   2.005   5.080  2.3555  1.1211  1.0592
 5774TIP3   OH217264   2.490   1.309   4.418  0.2743  0.0374  0.1109
 5774TIP3    H117265   2.447   1.350   4.493 -1.8682  2.2444 -2.2055
 5774TIP3    H217266   2.419   1.270   4.368  1.3547  0.5897 -1.9237
 5775TIP3   OH217267   2.806   2.808   6.579  0.5995  0.1606  0.6763
 5775TIP3    H117268   2.805   2.876   6.645 -1.2217  1.8230 -0.9956
 5775TIP3    H217269   2.719   2.768   6.584  0.9301 -0.6362  0.2299
 5776TIP3   OH217270   6.033   1.889   5.430  0.0060 -0.6540 -0.0265
 5776TIP3    H117271   5.977   1.870   5.506 -1.3600  0.8596 -0.6191
 5776TIP3    H217272   6.068   1.976   5.448  0.7451 -0.8538 -0.5148
 5777TIP3   OH217273   0.143   7.957   5.637  0.3654 -0.1311  0.5843
 5777TIP3    H117274   0.128   7.911   5.554  0.5437  0.4492  0.2324
 5777TIP3    H217275   0.236   7.943   5.656  0.3576 -0.1438  0.6138
 5778TIP3   OH217276   4.466   0.232   5.607  0.0335  0.1129 -0.5638
 5778TIP3    H117277   4.505   0.320   5.611 -0.7304  0.4719 -0.7921
 5778TIP3    H217278   4.493   0.197   5.522 -1.1784  0.8659 -1.2783
 5779TIP3   OH217279   4.501   1.611   4.307  0.1489 -0.6093 -0.1148
 5779TIP3    H117280   4.468   1.619   4.218  0.2888 -0.3938 -0.1474
 5779TIP3    H217281   4.568   1.679   4.314 -1.9094  1.3699  1.0939
 5780TIP3   OH217282   4.528   0.688   3.258  0.0014 -0.0491  0.0240
 5780TIP3    H117283   4.461   0.720   3.198 -0.4257 -0.1831  0.4331
 5780TIP3    H217284   4.482   0.671   3.340  0.6960  0.6996  0.5744
 5781TIP3   OH217285   4.297   1.420   3.931  0.3698 -0.1134  0.0046
 5781TIP3    H117286   4.201   1.421   3.937  0.4413  0.5800  1.2894
 5781TIP3    H217287   4.316   1.406   3.839 -0.9773  0.1239 -0.3108
 5782TIP3   OH217288   5.042   1.441   6.572 -0.1359 -0.1952 -0.0370
 5782TIP3    H117289   5.078   1.524   6.603 -1.3576  0.1001  0.5883
 5782TIP3    H217290   5.045   1.383   6.648  1.6575 -1.0510 -0.7322
 5783TIP3   OH217291   2.907   2.840   5.632 -0.1440 -0.4904  0.6697
 5783TIP3    H117292   2.881   2.797   5.713  0.8046 -2.4828 -0.0547
 5783TIP3    H217293   2.856   2.797   5.563 -1.2019  1.4214  0.2187
 5784TIP3   OH217294   0.666   2.292   5.893  0.3647  0.4294  0.2933
 5784TIP3    H117295   0.670   2.319   5.801  1.5826  1.9132  0.7534
 5784TIP3    H217296   0.596   2.228   5.896  0.5831  0.0531 -1.7568
 5785TIP3   OH217297   5.652   1.322   6.046 -0.0426  0.0207  0.3059
 5785TIP3    H117298   5.648   1.408   6.004  1.7216  0.8127  1.6955
 5785TIP3    H217299   5.726   1.278   6.004 -0.2934 -0.4299  0.3312
 5786TIP3   OH217300   3.787   0.095   3.975  0.1227  0.4468 -0.4618
 5786TIP3    H117301   3.833   0.106   3.892  0.0069  0.1403 -0.5675
 5786TIP3    H217302   3.710   0.151   3.967  0.3377  0.7548 -0.3890
 5787TIP3   OH217303   7.359   7.843   4.253  0.1925  0.4673  0.1361
 5787TIP3    H117304   7.419   7.867   4.182  0.6677  1.3880  0.8431
 5787TIP3    H217305   7.280   7.812   4.208  1.2704 -1.0038 -0.8134
 5788TIP3   OH217306   0.521   7.884   5.232 -0.2729 -0.2107 -0.2364
 5788TIP3    H117307   0.589   7.911   5.169  0.3015 -0.1652  0.3948
 5788TIP3    H217308   0.475   7.813   5.189  0.2522 -0.3167 -0.6284
 5789TIP3   OH217309   1.364   0.347   5.649 -0.2439  0.2199 -0.0670
 5789TIP3    H117310   1.448   0.387   5.625 -0.3314  1.0163  0.9230
 5789TIP3    H217311   1.309   0.421   5.676 -0.4115 -0.5636  1.7818
 5790TIP3   OH217312   7.463   4.111   0.548 -0.3967  0.2235  0.0834
 5790TIP3    H117313   7.527   4.174   0.581  1.4179 -1.1155 -0.7824
 5790TIP3    H217314   7.400   4.101   0.619  0.7444  1.0414  1.2277
 5791TIP3   OH217315   5.025   2.225   5.673 -0.4314  0.2806 -0.0077
 5791TIP3    H117316   5.017   2.272   5.590 -1.4038 -3.4611 -2.1550
 5791TIP3    H217317   4.958   2.265   5.729 -0.3386  2.3054 -1.2518
 5792TIP3   OH217318   6.095   0.432   4.691  0.6268 -0.4954 -0.0825
 5792TIP3    H117319   6.057   0.344   4.683  0.2437 -0.4886  1.4781
 5792TIP3    H217320   6.187   0.416   4.713  0.1623 -0.5294  1.9312
 5793TIP3   OH217321   2.520   6.602   4.103 -0.1594 -0.6393 -0.4073
 5793TIP3    H117322   2.489   6.585   4.192  0.1813 -0.4633 -0.2525
 5793TIP3    H217323   2.576   6.526   4.083  0.8097 -0.0525  0.0228
 5794TIP3   OH217324   6.862   1.183   4.503  0.1156  0.5154  0.4229
 5794TIP3    H117325   6.882   1.268   4.541  1.1284  0.6070 -0.2989
 5794TIP3    H217326   6.827   1.203   4.416 -0.6072  0.2337  0.6415
 5795TIP3   OH217327   4.682   1.860   5.929  0.5488 -0.2945  0.4276
 5795TIP3    H117328   4.699   1.831   5.839  0.6704  2.9759 -0.6432
 5795TIP3    H217329   4.588   1.876   5.931  0.1174 -2.6906  1.6530
 5796TIP3   OH217330   1.705   7.087   3.687 -0.3923  0.2204 -0.0254
 5796TIP3    H117331   1.786   7.131   3.714 -1.8006  1.2510  2.7621
 5796TIP3    H217332   1.667   7.145   3.621  1.5031 -0.6769 -1.9418
 5797TIP3   OH217333   4.661   1.229   4.736  0.3676  0.6280 -0.6915
 5797TIP3    H117334   4.632   1.289   4.805  2.1476  2.6453 -1.6169
 5797TIP3    H217335   4.711   1.285   4.676  3.1110 -2.0230 -0.9787
 5798TIP3   OH217336   3.315   1.963   6.793 -0.1299 -0.1151 -0.0978
 5798TIP3    H117337   3.293   1.890   6.850 -0.4565 -0.2706 -0.4208
 5798TIP3    H217338   3.237   2.020   6.795 -0.2194 -0.2222 -0.5458
 5799TIP3   OH217339   6.286   0.286   4.474 -0.2148 -0.2768 -0.0466
 5799TIP3    H117340   6.191   0.278   4.466 -0.0487 -0.6968 -1.8573
 5799TIP3    H217341   6.300   0.378   4.497 -1.0582 -0.2043  0.2089
 5800TIP3   OH217342   4.212   0.371   4.656 -0.7961  0.1637 -0.4597
 5800TIP3    H117343   4.277   0.326   4.601  0.7758  1.2480  0.4727
 5800TIP3    H217344   4.205   0.317   4.734 -0.1833  0.5996 -0.0914
 5801TIP3   OH217345   6.207   1.769   4.399  0.2101 -0.0076  0.0691
 5801TIP3    H117346   6.210   1.844   4.339 -0.2371  0.7824  1.0332
 5801TIP3    H217347   6.156   1.703   4.352 -0.6159  0.8120 -0.2120
 5802TIP3   OH217348   5.504   1.793   5.083 -0.1070  0.4152 -0.5220
 5802TIP3    H117349   5.561   1.789   5.007  0.1126  0.3237 -0.3529
 5802TIP3    H217350   5.541   1.730   5.145 -0.9095 -0.3006 -0.7590
 5803TIP3   OH217351   5.112   0.184   4.050 -0.2486  0.5586  0.3105
 5803TIP3    H117352   5.134   0.277   4.046  0.0666  0.4105 -1.7294
 5803TIP3    H217353   5.043   0.178   4.117 -0.7670  2.3514 -0.0523
 5804TIP3   OH217354   3.392   1.676   3.730 -0.2558 -0.1699  0.3522
 5804TIP3    H117355   3.298   1.684   3.710 -0.1154  1.4042  0.2955
 5804TIP3    H217356   3.404   1.730   3.808  0.7833  0.3131 -0.1426
 5805TIP3   OH217357   3.777   0.298   5.700 -0.3837 -0.7238 -0.1869
 5805TIP3    H117358   3.854   0.244   5.681  0.2244  0.6300 -1.6755
 5805TIP3    H217359   3.705   0.251   5.659 -0.3646 -1.8997  1.0468
 5806TIP3   OH217360   6.250   0.102   4.202  0.2746 -0.3353 -0.0280
 5806TIP3    H117361   6.192   0.135   4.271  0.0341 -1.4331  0.3204
 5806TIP3    H217362   6.204   0.120   4.120  0.5224  0.9006  0.1048
 5807TIP3   OH217363   2.130   7.827   4.787  0.0059  0.2294 -0.3347
 5807TIP3    H117364   2.041   7.851   4.763 -0.2840  0.6221  1.0807
 5807TIP3    H217365   2.143   7.867   4.873  1.5946  0.2966 -0.5939
 5808TIP3   OH217366   6.122   2.150   5.509  0.2961 -0.6202  0.0062
 5808TIP3    H117367   6.177   2.215   5.465 -1.8075  0.8967 -0.4625
 5808TIP3    H217368   6.106   2.187   5.596 -1.8075  0.0747 -0.6358
 5809TIP3   OH217369   3.986   1.787   5.191 -0.0011  0.0961 -0.2304
 5809TIP3    H117370   4.077   1.779   5.163 -0.3544 -0.6238 -1.2237
 5809TIP3    H217371   3.936   1.785   5.110 -1.0373 -1.7334  0.4266
 5810TIP3   OH217372   4.052   0.598   3.881 -0.1523 -0.1172  0.5434
 5810TIP3    H117373   4.137   0.587   3.840  0.2048 -0.4527  1.3621
 5810TIP3    H217374   4.070   0.594   3.975 -0.8309  1.5245  0.7662
 5811TIP3   OH217375   4.858   0.191   5.048  0.0893  0.4652  0.1661
 5811TIP3    H117376   4.766   0.166   5.050  0.3812 -0.5854  2.0628
 5811TIP3    H217377   4.859   0.279   5.085 -0.2831  0.9664 -1.0016
 5812TIP3   OH217378   5.434   1.881   4.276  0.5116 -0.0530  0.1036
 5812TIP3    H117379   5.469   1.936   4.346 -1.6964  1.9111 -0.2359
 5812TIP3    H217380   5.503   1.880   4.210  1.6714  0.0411  1.2945
 5813TIP3   OH217381   4.656   2.168   2.583 -0.2357  0.4494 -0.0203
 5813TIP3    H117382   4.751   2.155   2.589 -0.1866 -1.0219 -3.0454
 5813TIP3    H217383   4.618   2.091   2.623 -0.1368  0.2760 -0.2604
 5814TIP3   OH217384   5.597   2.403   4.348  0.1343  0.5021 -0.1588
 5814TIP3    H117385   5.678   2.454   4.355  0.6581 -0.2872 -0.3901
 5814TIP3    H217386   5.609   2.350   4.270 -1.4090  1.7619 -1.2768
 5815TIP3   OH217387   5.490   0.370   4.834 -0.1685  0.2755  0.7485
 5815TIP3    H117388   5.552   0.441   4.819  0.7495 -0.6084  0.3007
 5815TIP3    H217389   5.405   0.414   4.842 -0.1371  1.1968 -2.9434
 5816TIP3   OH217390   0.502   7.504   4.001 -0.0118  0.3385  0.0676
 5816TIP3    H117391   0.458   7.551   4.072 -0.8206  0.5154 -0.5376
 5816TIP3    H217392   0.586   7.477   4.038 -0.4163  0.4492  1.0807
 5817TIP3   OH217393   2.840   6.686   4.972 -0.3170  0.2965 -0.2444
 5817TIP3    H117394   2.916   6.640   5.007  0.6186  1.5171 -0.6530
 5817TIP3    H217395   2.834   6.767   5.023  0.1639  1.3752 -1.8442
 5818TIP3   OH217396   5.102   2.452   5.830 -0.0673  0.3997  0.5380
 5818TIP3    H117397   5.107   2.372   5.881  1.1801  0.7435  0.9753
 5818TIP3    H217398   5.012   2.481   5.838 -0.5844 -1.0873  0.1769
 5819TIP3   OH217399   6.164   0.783   5.339 -0.0881 -0.4129  0.0170
 5819TIP3    H117400   6.244   0.832   5.357 -0.5485  0.0919  0.7198
 5819TIP3    H217401   6.134   0.816   5.254 -1.1782  1.5985  1.1556
 5820TIP3   OH217402   4.918   0.859   4.877  0.4094  0.7854 -0.2838
 5820TIP3    H117403   4.974   0.870   4.800  0.8312 -1.8592 -0.3909
 5820TIP3    H217404   4.831   0.888   4.847  0.8149  0.8829 -1.3892
 5821TIP3   OH217405   6.255   2.005   5.051  0.3846 -0.1823 -0.0102
 5821TIP3    H117406   6.300   2.006   5.135 -2.0200 -2.5163  1.3891
 5821TIP3    H217407   6.256   2.096   5.021  0.1864  0.9013  3.1303
 5822TIP3   OH217408   4.913   2.883   5.174 -0.2236  0.4741 -0.3664
 5822TIP3    H117409   4.849   2.903   5.242  0.5302 -0.1998  0.5503
 5822TIP3    H217410   4.964   2.964   5.164  0.0120  0.4068  0.2614
 5823TIP3   OH217411   5.889   1.348   4.952 -0.0711  0.3428  0.6909
 5823TIP3    H117412   5.977   1.364   4.985 -0.2151  1.5108  0.5317
 5823TIP3    H217413   5.881   1.406   4.876 -1.1642  0.6393  1.0197
 5824TIP3   OH217414   6.242   2.338   6.855  0.3179 -0.3774  0.0579
 5824TIP3    H117415   6.288   2.263   6.892 -0.3299 -2.1302 -2.4969
 5824TIP3    H217416   6.288   2.356   6.773 -0.5244  0.9878 -0.1236
 5825TIP3   OH217417   4.594   2.473   4.801  0.3116  0.0713 -0.3264
 5825TIP3    H117418   4.568   2.520   4.722 -0.0335 -0.8999 -0.7977
 5825TIP3    H217419   4.558   2.526   4.873  1.3520  1.4035 -0.7768
 5826TIP3   OH217420   6.663   5.796   0.810 -0.1613 -0.3608  0.6326
 5826TIP3    H117421   6.749   5.788   0.770  0.1814 -0.2508  1.3418
 5826TIP3    H217422   6.652   5.716   0.862 -1.7857 -1.8469 -1.9141
 5827TIP3   OH217423   0.357   6.581   4.526 -0.5231  0.0312  0.1788
 5827TIP3    H117424   0.411   6.660   4.536 -0.7678  0.4183 -1.4156
 5827TIP3    H217425   0.342   6.575   4.431 -1.9140 -0.9891  0.4623
 5828TIP3   OH217426   3.725   3.410   5.925  0.7860  0.9577  0.0084
 5828TIP3    H117427   3.818   3.391   5.931  1.0213  1.3920 -1.9571
 5828TIP3    H217428   3.694   3.356   5.853 -0.8290 -0.3552  1.6300
 5829TIP3   OH217429   2.598   0.069   5.370  0.2495  0.3650  0.1209
 5829TIP3    H117430   2.651   0.077   5.449  0.6998  2.1290 -0.3538
 5829TIP3    H217431   2.658   0.033   5.305  0.6513  1.5803 -0.1881
 5830TIP3   OH217432   3.989   0.295   4.496 -0.0909 -0.2133 -0.2856
 5830TIP3    H117433   4.043   0.283   4.418 -0.5431  0.5023 -0.7168
 5830TIP3    H217434   4.049   0.328   4.562 -0.0144  0.6772 -0.7943
 5831TIP3   OH217435   5.567   1.786   6.662 -0.5282 -0.2844 -0.2190
 5831TIP3    H117436   5.495   1.799   6.600 -1.2137  1.5765  0.9261
 5831TIP3    H217437   5.621   1.864   6.654 -0.0032 -0.5365  0.7127
 5832TIP3   OH217438   2.310   1.268   5.570  0.5458 -0.1068 -0.1081
 5832TIP3    H117439   2.330   1.251   5.662 -0.2822  1.1386  0.3081
 5832TIP3    H217440   2.346   1.355   5.554  0.4327 -0.2044 -0.8833
 5833TIP3   OH217441   5.945   0.538   3.327  0.1431 -0.1056 -0.2382
 5833TIP3    H117442   5.892   0.530   3.248  1.6738 -1.5564 -1.1606
 5833TIP3    H217443   6.006   0.609   3.308 -0.5392  0.6429  0.2978
 5834TIP3   OH217444   4.420   1.721   5.710  0.6617  0.2445  0.4879
 5834TIP3    H117445   4.417   1.788   5.778  1.9275  0.2853  0.5271
 5834TIP3    H217446   4.511   1.690   5.712  0.8504  0.5920 -1.5067
 5835TIP3   OH217447   3.480   0.708   4.730 -0.2583 -0.1892  0.0078
 5835TIP3    H117448   3.445   0.626   4.764  1.5550 -0.4857  1.2177
 5835TIP3    H217449   3.522   0.750   4.806 -1.8497  2.2400 -0.4019
 5836TIP3   OH217450   1.939   1.842   3.327 -0.5502  0.3783  0.7552
 5836TIP3    H117451   2.033   1.831   3.316 -0.0682  2.3906  2.3108
 5836TIP3    H217452   1.917   1.918   3.272 -1.2739 -0.1529  0.3085
 5837TIP3   OH217453   4.733   2.949   3.850 -0.7857  0.2439 -0.0898
 5837TIP3    H117454   4.779   2.887   3.907  0.6593  0.9135 -0.4796
 5837TIP3    H217455   4.649   2.964   3.893 -0.0152  0.1748  1.4844
 5838TIP3   OH217456   4.798   2.614   4.300 -0.0299  0.6045  0.4466
 5838TIP3    H117457   4.757   2.668   4.367  0.0150  1.0388  0.1276
 5838TIP3    H217458   4.876   2.664   4.273  0.4713 -0.0097  0.7419
 5839TIP3   OH217459   2.260   7.824   4.526  0.1061 -0.7473 -0.3374
 5839TIP3    H117460   2.240   7.821   4.619 -2.9959  0.3275 -0.8954
 5839TIP3    H217461   2.231   7.738   4.493  1.3913 -1.2054 -0.2822
 5840TIP3   OH217462   2.553   6.865   5.464 -0.1802 -0.1762  0.5291
 5840TIP3    H117463   2.584   6.775   5.453 -1.0000 -0.2962 -1.0641
 5840TIP3    H217464   2.509   6.884   5.381  0.7525  2.0022  0.5115
 5841TIP3   OH217465   7.448   6.205   0.386 -0.4085  0.5640  0.6664
 5841TIP3    H117466   7.414   6.117   0.368 -0.0499  0.6907 -0.6259
 5841TIP3    H217467   7.541   6.192   0.402 -0.3171  0.7276  0.2773
 5842TIP3   OH217468   2.035   6.723   1.435 -0.1590  0.1305  0.2351
 5842TIP3    H117469   2.074   6.809   1.417 -1.4297  0.3773 -1.4375
 5842TIP3    H217470   2.105   6.661   1.417  1.4911  0.8862  3.6391
 5843TIP3   OH217471   3.154   1.347   5.820 -0.5694  1.0487  0.1769
 5843TIP3    H117472   3.249   1.351   5.809 -0.4782  0.9754  0.9250
 5843TIP3    H217473   3.125   1.284   5.754  0.1242 -0.3770  1.2147
 5844TIP3   OH217474   5.392   1.508   4.991 -0.2610  0.0180  0.2466
 5844TIP3    H117475   5.456   1.558   4.939 -0.8425 -0.4685 -0.9611
 5844TIP3    H217476   5.426   1.418   4.991  0.5109  0.2889  1.9766
 5845TIP3   OH217477   4.247   0.954   2.841  0.0333  0.3694  1.0049
 5845TIP3    H117478   4.263   0.890   2.771  0.1495  1.2337  0.2376
 5845TIP3    H217479   4.323   1.011   2.840 -0.7103  1.3725  0.7510
 5846TIP3   OH217480   1.087   5.595   0.525 -0.2247  0.0920  0.2676
 5846TIP3    H117481   1.145   5.607   0.450 -0.3494  0.4886  0.2373
 5846TIP3    H217482   1.139   5.622   0.601 -0.3635  0.4332  0.2419
 5847TIP3   OH217483   5.535   1.420   5.377 -0.0493 -0.2540 -0.2164
 5847TIP3    H117484   5.590   1.376   5.311 -0.8752  0.0773 -1.1390
 5847TIP3    H217485   5.475   1.353   5.408 -0.2296 -0.1929 -0.4330
 5848TIP3   OH217486   5.516   1.729   3.053  0.8837 -0.0698  0.0800
 5848TIP3    H117487   5.501   1.776   3.135  1.4275 -0.1700  0.2413
 5848TIP3    H217488   5.599   1.764   3.021  0.6879 -0.0535 -0.4160
 5849TIP3   OH217489   1.744   0.582   3.824  0.0634  0.0312  0.7160
 5849TIP3    H117490   1.818   0.551   3.772 -0.9323  0.2391 -0.8602
 5849TIP3    H217491   1.748   0.531   3.905  0.2083 -2.0482 -0.5804
 5850TIP3   OH217492   4.678   2.914   5.358 -0.3272 -1.0277 -0.5747
 5850TIP3    H117493   4.657   3.005   5.378  1.3949 -0.8002  0.3109
 5850TIP3    H217494   4.598   2.865   5.381  0.1055 -0.2385  2.9479
 5851TIP3   OH217495   3.428   5.407   5.772  0.1895  0.3760 -0.4621
 5851TIP3    H117496   3.437   5.314   5.749 -1.9668 -0.3211  1.2928
 5851TIP3    H217497   3.376   5.444   5.700 -0.6281 -0.2501 -0.2136
 5852TIP3   OH217498   1.931   6.215   3.761  0.2852 -0.0289 -0.6350
 5852TIP3    H117499   1.872   6.262   3.702  0.4172  0.4237 -0.4063
 5852TIP3    H217500   1.876   6.194   3.837  0.1962 -0.3453 -0.7858
 5853TIP3   OH217501   1.512   6.478   1.628  0.4217  0.0703 -0.1822
 5853TIP3    H117502   1.479   6.550   1.574  1.8061  2.2510  1.7476
 5853TIP3    H217503   1.606   6.477   1.610  0.4577 -1.0124  0.0922
 5854TIP3   OH217504   7.713   3.021   6.230  0.1287  0.2382 -0.3597
 5854TIP3    H117505   7.663   2.947   6.196 -0.4392 -0.1441  1.2414
 5854TIP3    H217506   7.804   2.993   6.225  0.0392  0.1015 -1.3204
 5855TIP3   OH217507   5.644   0.784   6.220  0.2611  0.5174  0.3769
 5855TIP3    H117508   5.722   0.769   6.167 -1.0922 -1.8698 -1.0303
 5855TIP3    H217509   5.597   0.853   6.173 -0.6668 -1.2126 -1.3308
 5856TIP3   OH217510   6.909   3.620   0.351  0.0120  0.1480  0.4703
 5856TIP3    H117511   6.977   3.615   0.418  1.6181 -0.4998 -1.1942
 5856TIP3    H217512   6.881   3.711   0.352  0.7274  0.3697  1.3127
 5857TIP3   OH217513   6.402   2.302   5.165 -0.5097  0.6823  0.2240
 5857TIP3    H117514   6.350   2.341   5.095  1.0388  1.0661 -0.7219
 5857TIP3    H217515   6.454   2.234   5.122 -0.9354 -0.3699  1.3373
 5858TIP3   OH217516   1.908   7.574   3.298 -0.4443 -0.3485 -0.2655
 5858TIP3    H117517   1.890   7.551   3.207  1.2225  0.7811 -0.9197
 5858TIP3    H217518   1.847   7.645   3.318 -1.1306 -0.9163 -0.3508
 5859TIP3   OH217519   3.411   7.257   5.435  0.7653  0.2075  0.1308
 5859TIP3    H117520   3.427   7.179   5.488 -0.1522  0.1656  0.3427
 5859TIP3    H217521   3.368   7.224   5.356 -1.8691  0.7695  1.2993
 5860TIP3   OH217522   0.953   6.858   3.492  0.5514  0.8456 -0.1845
 5860TIP3    H117523   0.985   6.869   3.582  1.6847  2.5316 -0.7633
 5860TIP3    H217524   0.924   6.945   3.466 -0.2430  0.2584 -1.2789
 5861TIP3   OH217525   4.757   2.719   4.559 -0.2497 -0.0887  0.1760
 5861TIP3    H117526   4.743   2.808   4.593  1.4400 -0.1874  1.1829
 5861TIP3    H217527   4.852   2.712   4.550 -0.3620 -1.9008  0.3757
 5862TIP3   OH217528   3.532   1.171   4.343 -0.2935  0.0146 -0.2878
 5862TIP3    H117529   3.565   1.252   4.304 -1.5534  1.8861  2.3398
 5862TIP3    H217530   3.608   1.113   4.346  1.1126  1.7776 -0.5370
 5863TIP3   OH217531   5.034   2.016   5.347  0.0126  0.0517 -0.6685
 5863TIP3    H117532   5.016   1.923   5.338 -0.5145 -0.0347  1.1261
 5863TIP3    H217533   4.948   2.057   5.360  0.3540  0.6088 -0.0760
 5864TIP3   OH217534   3.041   0.055   5.053  0.0292 -0.4971  0.3481
 5864TIP3    H117535   3.076   0.078   4.967 -0.8314  0.0918  0.1556
 5864TIP3    H217536   3.109   0.083   5.115  0.6985 -1.0260 -0.1397
 5865TIP3   OH217537   0.314   6.008   3.320  0.4433  0.2301 -0.3700
 5865TIP3    H117538   0.397   5.998   3.274 -0.3547 -1.4977 -1.4709
 5865TIP3    H217539   0.255   6.047   3.255  0.1820  0.7357  0.1687
 5866TIP3   OH217540   7.458   4.675   1.267 -0.4872  0.0261  0.0013
 5866TIP3    H117541   7.526   4.739   1.248 -1.7211  1.2833 -0.2307
 5866TIP3    H217542   7.447   4.679   1.362  1.0372 -1.5216  0.2812
 5867TIP3   OH217543   5.877   0.542   5.297  0.4458  0.3615  0.4199
 5867TIP3    H117544   5.831   0.579   5.222 -1.0904 -0.1170  1.1033
 5867TIP3    H217545   5.829   0.573   5.374  0.7484 -0.8363  1.1228
 5868TIP3   OH217546   0.741   6.775   4.294 -0.0367 -0.4679 -0.0556
 5868TIP3    H117547   0.790   6.849   4.260  0.6406 -1.1875 -0.6682
 5868TIP3    H217548   0.773   6.764   4.384  0.2695 -0.3724 -0.1540
 5869TIP3   OH217549   7.208   0.372   5.178  0.0475 -0.3321 -0.1608
 5869TIP3    H117550   7.181   0.336   5.262 -0.7973  0.9530  0.1247
 5869TIP3    H217551   7.192   0.301   5.116 -0.3917 -0.8941  0.5789
 5870TIP3   OH217552   1.040   6.770   4.298  0.3371 -0.0314 -0.3420
 5870TIP3    H117553   0.998   6.834   4.240  0.9660 -1.9281 -3.0200
 5870TIP3    H217554   1.002   6.786   4.384 -1.7809  1.8942 -1.5808
 5871TIP3   OH217555   1.653   7.907   5.725  0.1276  0.3474  0.2893
 5871TIP3    H117556   1.678   7.951   5.643  0.4591 -0.8031 -0.2334
 5871TIP3    H217557   1.619   7.822   5.697  0.8665 -0.3202  1.4014
 5872TIP3   OH217558   5.194   1.736   4.267  0.0971  0.6320 -0.2980
 5872TIP3    H117559   5.265   1.797   4.248  1.1887 -1.1083 -2.0152
 5872TIP3    H217560   5.149   1.726   4.183 -0.9957  0.2232  0.3336
 5873TIP3   OH217561   2.645   6.726   4.784 -0.3985 -0.7057  0.3464
 5873TIP3    H117562   2.665   6.654   4.725  0.5321 -0.7374  0.6820
 5873TIP3    H217563   2.697   6.707   4.862 -1.2921 -0.4470  1.0132
 5874TIP3   OH217564   4.624   0.339   5.242 -0.1843  0.0065  0.2830
 5874TIP3    H117565   4.713   0.368   5.262 -0.5579  1.2480  0.1587
 5874TIP3    H217566   4.612   0.260   5.296  2.1352 -2.1061 -2.1736
 5875TIP3   OH217567   4.983   1.155   5.452 -0.1299  0.0968 -0.2302
 5875TIP3    H117568   5.063   1.178   5.404  0.4748  0.4875  0.9524
 5875TIP3    H217569   4.918   1.139   5.383  1.1979 -1.1211 -1.2170
 5876TIP3   OH217570   4.539   3.534   4.682  0.1268 -0.0592  0.7723
 5876TIP3    H117571   4.549   3.597   4.753 -1.5485  1.3216 -0.1860
 5876TIP3    H217572   4.455   3.492   4.698 -0.5709  0.7122 -0.6946
 5877TIP3   OH217573   8.317   3.968   0.222 -0.2052 -0.7009 -0.2968
 5877TIP3    H117574   8.287   3.964   0.312 -1.1733  0.2994 -0.5664
 5877TIP3    H217575   8.251   4.021   0.177  1.8327  1.3822 -0.9366
 5878TIP3   OH217576   4.045   1.820   2.701  0.5365 -0.4097  0.0011
 5878TIP3    H117577   4.105   1.753   2.733  1.6630 -0.5048 -2.2215
 5878TIP3    H217578   3.992   1.844   2.777  1.2186 -2.6409  1.2081
 5879TIP3   OH217579   4.935   2.172   3.617  0.3085 -0.0949  0.1383
 5879TIP3    H117580   4.982   2.190   3.698 -0.3981  1.7303  0.1707
 5879TIP3    H217581   4.843   2.180   3.640  0.0630 -0.9461 -0.5352
 5880TIP3   OH217582   7.246   2.440   4.300 -0.4227 -0.5017  0.1642
 5880TIP3    H117583   7.187   2.447   4.375 -1.0862 -0.1938 -0.3777
 5880TIP3    H217584   7.290   2.356   4.311 -1.5317 -1.0895  0.1689
 5881TIP3   OH217585   5.951   0.709   3.935  0.1031 -0.4277 -0.1105
 5881TIP3    H117586   5.971   0.637   3.874  2.7756  0.0589  0.1128
 5881TIP3    H217587   5.920   0.780   3.880 -0.4252 -1.0101 -0.5712
 5882TIP3   OH217588   3.387   2.747   6.544 -0.7634 -0.2517 -0.0680
 5882TIP3    H117589   3.293   2.761   6.530 -1.1077 -1.5125  0.8794
 5882TIP3    H217590   3.391   2.686   6.618  0.7158 -2.6210 -2.0251
 5883TIP3   OH217591   7.958   6.993   1.606 -0.1177 -1.0033 -0.4609
 5883TIP3    H117592   7.944   6.901   1.625  0.4816 -0.9988  0.0256
 5883TIP3    H217593   7.879   7.036   1.637  0.3619 -1.1429  0.9990
 5884TIP3   OH217594   1.408   7.616   2.371  0.1010  0.4509  0.5291
 5884TIP3    H117595   1.325   7.663   2.362 -0.8615 -1.5519 -1.3994
 5884TIP3    H217596   1.402   7.574   2.457 -1.4076 -0.6841 -0.1261
 5885TIP3   OH217597   0.992   7.390   4.629  0.4173 -0.3779 -0.1607
 5885TIP3    H117598   1.026   7.316   4.580  0.2945 -1.1524  0.8997
 5885TIP3    H217599   1.035   7.466   4.591 -1.0701 -0.7459 -2.6946
 5886TIP3   OH217600   3.745   0.937   3.007  0.3421  0.3410  0.2543
 5886TIP3    H117601   3.811   0.982   3.059  0.3467  1.0004 -0.3200
 5886TIP3    H217602   3.703   1.006   2.957  0.1071 -0.2525 -0.3712
 5887TIP3   OH217603   4.409   0.283   4.089  0.0633 -0.4547 -1.2044
 5887TIP3    H117604   4.474   0.351   4.074  0.9741  0.1998  4.4374
 5887TIP3    H217605   4.459   0.202   4.093  0.1286 -0.3691 -0.0663
 5888TIP3   OH217606   4.262   7.617   4.398  0.8193  0.3019 -0.1999
 5888TIP3    H117607   4.297   7.703   4.419 -1.3820  0.6433  2.2160
 5888TIP3    H217608   4.197   7.634   4.330  0.0534  0.5999  0.6087
 5889TIP3   OH217609   3.191   1.288   5.446 -0.3241 -0.6949 -0.2952
 5889TIP3    H117610   3.216   1.239   5.524 -1.4279 -2.0452 -0.7496
 5889TIP3    H217611   3.205   1.226   5.374  0.0935  0.3247 -1.1000
 5890TIP3   OH217612   2.720   7.078   5.541  0.2718 -0.1171  0.2794
 5890TIP3    H117613   2.674   6.995   5.531  1.8414 -0.8169 -1.5277
 5890TIP3    H217614   2.798   7.069   5.486  1.5631  1.7552  1.7293
 5891TIP3   OH217615   4.191   0.245   4.300  0.2332  0.6461 -0.2617
 5891TIP3    H117616   4.277   0.284   4.281  0.0935  1.0209 -0.1275
 5891TIP3    H217617   4.134   0.277   4.230  0.2321  0.3057 -0.4139
 5892TIP3   OH217618   2.438   7.734   6.019 -0.3238  0.0390 -0.1004
 5892TIP3    H117619   2.355   7.749   6.064 -1.6347 -0.5219 -2.2805
 5892TIP3    H217620   2.481   7.667   6.072 -0.5319  1.4444  1.9236
 5893TIP3   OH217621   3.599   1.476   4.308 -0.2258  0.3738  0.3845
 5893TIP3    H117622   3.605   1.564   4.269 -2.0830 -1.0233 -3.3052
 5893TIP3    H217623   3.507   1.466   4.332 -0.0765 -0.6303  0.5699
 5894TIP3   OH217624   2.022   7.931   4.046  0.0505  0.4810  0.0552
 5894TIP3    H117625   2.057   7.946   3.958 -0.7553 -0.7217 -0.4888
 5894TIP3    H217626   2.099   7.916   4.100  0.4565 -1.3775 -0.9843
 5895TIP3   OH217627   3.326   1.781   6.390  0.2089  0.6607 -0.4601
 5895TIP3    H117628   3.388   1.849   6.418  0.9412  0.6097 -1.8890
 5895TIP3    H217629   3.346   1.706   6.446  0.1713  1.2568  0.3550
 5896TIP3   OH217630   2.668   2.690   6.187  0.1576 -0.4036  0.1615
 5896TIP3    H117631   2.642   2.599   6.201 -1.1226 -0.0641  0.0556
 5896TIP3    H217632   2.617   2.718   6.111  2.8445 -0.5294 -1.7535
 5897TIP3   OH217633   4.278   1.337   2.598 -0.3396 -0.2965  0.0370
 5897TIP3    H117634   4.367   1.320   2.567 -0.3409 -1.9945  0.8722
 5897TIP3    H217635   4.275   1.431   2.615  1.3593 -0.2623  0.1972
 5898TIP3   OH217636   4.174   2.943   4.957  0.1801  0.1624  0.6387
 5898TIP3    H117637   4.121   2.951   5.036 -0.5080  1.9629  0.0169
 5898TIP3    H217638   4.248   3.002   4.972 -1.1830  2.3844 -1.0048
 5899TIP3   OH217639   2.655   7.749   2.885  0.4760 -0.0862 -0.1572
 5899TIP3    H117640   2.728   7.690   2.905  0.5933  0.0179 -0.2748
 5899TIP3    H217641   2.636   7.792   2.968 -1.0463 -1.8715  0.4723
 5900TIP3   OH217642   4.423   1.925   6.396  0.6781  0.0969 -0.6477
 5900TIP3    H117643   4.370   1.851   6.425 -0.6221  1.4878  0.5613
 5900TIP3    H217644   4.376   2.003   6.426  2.3804  1.4165 -1.2874
 5901TIP3   OH217645   2.589   7.947   4.385  0.7763 -0.2799 -0.0791
 5901TIP3    H117646   2.622   7.865   4.347  1.3522 -0.2271  0.3065
 5901TIP3    H217647   2.500   7.926   4.414  1.2104 -0.9931  0.7501
 5902TIP3   OH217648   7.843   3.349   2.709 -0.3243 -0.1482  0.2175
 5902TIP3    H117649   7.878   3.435   2.686 -0.5585  0.1616  1.0140
 5902TIP3    H217650   7.748   3.362   2.715 -0.5932 -0.9607 -1.8285
 5903TIP3   OH217651   6.531   1.444   1.586 -0.4990  0.1220  0.3490
 5903TIP3    H117652   6.443   1.480   1.568 -0.3500  0.0122 -0.6030
 5903TIP3    H217653   6.533   1.361   1.539  0.8152  1.0401 -1.2731
 5904TIP3   OH217654   1.667   7.929   4.275 -0.4673 -0.3896 -0.3110
 5904TIP3    H117655   1.730   7.866   4.241 -0.2543  1.0104 -2.6249
 5904TIP3    H217656   1.588   7.878   4.293 -0.0007 -1.4631 -1.2996
 5905TIP3   OH217657   4.505   2.005   6.715 -0.2004  0.2635 -0.2438
 5905TIP3    H117658   4.488   1.911   6.703  1.3785  0.1190 -1.6559
 5905TIP3    H217659   4.419   2.045   6.723 -0.9248 -1.2133 -0.5019
 5906TIP3   OH217660   1.785   6.940   0.815  0.3145  0.6408  0.4391
 5906TIP3    H117661   1.733   6.967   0.739 -0.2391  0.4315  0.7393
 5906TIP3    H217662   1.734   6.870   0.855 -0.0873  1.7039  1.8132
 5907TIP3   OH217663   4.424   0.876   4.771 -0.0857  0.7781 -0.0257
 5907TIP3    H117664   4.382   0.790   4.767  1.0595  0.1239  1.5454
 5907TIP3    H217665   4.352   0.937   4.791 -0.4762 -0.1915  1.6050
 5908TIP3   OH217666   5.681   0.278   5.044 -0.0882 -0.7003 -0.7583
 5908TIP3    H117667   5.763   0.252   5.001  0.0323 -1.4169 -0.1046
 5908TIP3    H217668   5.613   0.256   4.981  0.1654 -0.8379 -0.9852
 5909TIP3   OH217669   7.642   3.276   0.560 -0.1176  0.0411 -0.2491
 5909TIP3    H117670   7.702   3.321   0.500 -1.1130  1.3052 -0.3226
 5909TIP3    H217671   7.562   3.262   0.509 -0.4367 -0.2408  0.3180
 5910TIP3   OH217672   5.058   0.201   0.637  0.2504 -0.3303 -0.0099
 5910TIP3    H117673   5.027   0.150   0.712  2.0754 -2.0225 -0.3436
 5910TIP3    H217674   5.135   0.247   0.670 -1.1359  1.9413  0.1631
 5911TIP3   OH217675   3.723   7.576   5.144  0.9942 -0.1851  0.1026
 5911TIP3    H117676   3.665   7.532   5.207  0.9233  0.0221  0.1804
 5911TIP3    H217677   3.702   7.535   5.060 -1.1295  1.7077 -0.3187
 5912TIP3   OH217678   8.235   1.613   4.027  0.4569  0.0429 -0.1612
 5912TIP3    H117679   8.153   1.589   3.983  0.3291 -0.5312  0.3821
 5912TIP3    H217680   8.219   1.593   4.120  1.3014 -0.3065 -0.0889
 5913TIP3   OH217681   7.758   2.011   6.889  0.0664 -0.2517  0.4629
 5913TIP3    H117682   7.668   2.044   6.896  0.0182 -0.0093 -1.1059
 5913TIP3    H217683   7.783   1.991   6.979 -1.2291  0.5666  1.0224
 5914TIP3   OH217684   3.063   6.061   5.302 -0.1812 -0.2559  0.1977
 5914TIP3    H117685   3.065   6.137   5.361  0.3681  1.3394 -1.8271
 5914TIP3    H217686   3.000   6.001   5.343 -1.0077  1.4972  1.5749
 5915TIP3   OH217687   4.565   2.771   6.419  0.1487  0.1428  0.3382
 5915TIP3    H117688   4.578   2.744   6.510  3.4159  1.1589  0.2408
 5915TIP3    H217689   4.648   2.750   6.376 -1.3235 -0.2743 -2.4155
 5916TIP3   OH217690   4.892   0.706   6.201  0.1039  0.1206 -0.3013
 5916TIP3    H117691   4.921   0.730   6.289 -0.0679  0.2121 -0.2704
 5916TIP3    H217692   4.830   0.775   6.176  0.1321  0.0808 -0.4833
 5917TIP3   OH217693   1.639   7.826   3.203 -0.1275 -0.3147 -0.6161
 5917TIP3    H117694   1.587   7.746   3.202 -0.3085 -0.2113  0.0219
 5917TIP3    H217695   1.680   7.827   3.289  0.2987  0.0071 -0.8199
 5918TIP3   OH217696   2.990   0.873   5.225  0.5458  0.3291  0.0143
 5918TIP3    H117697   2.927   0.805   5.251 -2.4931  2.7472 -0.7192
 5918TIP3    H217698   3.019   0.846   5.138 -0.8767  0.0814 -0.4022
 5919TIP3   OH217699   4.663   4.061   5.044  0.0307  0.4220  0.9250
 5919TIP3    H117700   4.738   4.073   4.987 -0.3555 -0.4333  0.2172
 5919TIP3    H217701   4.593   4.032   4.986 -0.0234 -1.7403  1.9891
 5920TIP3   OH217702   4.502   3.110   5.429  0.7654  0.6293  0.2369
 5920TIP3    H117703   4.411   3.111   5.399  0.8525 -2.9719 -0.3250
 5920TIP3    H217704   4.499   3.149   5.517 -1.9450 -2.7570  1.7356
 5921TIP3   OH217705   6.720   3.241   3.686  0.2237 -0.3637 -0.0286
 5921TIP3    H117706   6.746   3.322   3.732  0.1900  1.0029 -2.3533
 5921TIP3    H217707   6.627   3.252   3.670  0.0946 -1.1573  0.1875
 5922TIP3   OH217708   6.270   1.993   3.428 -0.3257  0.7469 -0.0646
 5922TIP3    H117709   6.235   1.950   3.350  1.9242 -0.1843 -0.5790
 5922TIP3    H217710   6.198   1.988   3.492 -0.0751 -4.0527  0.0117
 5923TIP3   OH217711   8.332   6.958   0.761  0.1416 -0.2172 -0.1244
 5923TIP3    H117712   8.336   6.863   0.774 -0.4717 -0.1081  0.9080
 5923TIP3    H217713   8.256   6.972   0.704 -0.0999 -0.2916  0.1840
 5924TIP3   OH217714   4.340   1.320   1.719 -0.0660 -0.0688 -0.6498
 5924TIP3    H117715   4.335   1.325   1.624 -1.7164 -1.8982 -0.6834
 5924TIP3    H217716   4.253   1.344   1.749  0.1874 -0.4030  0.3647
 5925TIP3   OH217717   6.459   1.048   3.223 -0.3984 -0.3839 -0.7074
 5925TIP3    H117718   6.516   0.974   3.202  0.6127  0.0115  0.6225
 5925TIP3    H217719   6.409   1.019   3.299  1.9191  1.2660  1.5028
 5926TIP3   OH217720   7.113   1.059   4.589 -0.4403 -0.8177  0.2806
 5926TIP3    H117721   7.085   1.075   4.499 -0.2328  1.2077  0.5426
 5926TIP3    H217722   7.151   0.972   4.587  1.3150 -0.0752 -2.0527
 5927TIP3   OH217723   5.705   0.924   5.780 -0.2622  0.2049  0.0968
 5927TIP3    H117724   5.696   0.832   5.804  2.4650  0.0146  0.5095
 5927TIP3    H217725   5.746   0.922   5.693  0.4350  1.0356  0.4067
 5928TIP3   OH217726   7.083   0.170   5.041  0.4887  0.1719  0.1041
 5928TIP3    H117727   7.058   0.196   4.952  0.3644 -0.0056  0.0860
 5928TIP3    H217728   7.101   0.076   5.034 -2.8219 -0.5758  0.9661
 5929TIP3   OH217729   1.461   7.231   2.357  0.7497  0.1342 -0.0203
 5929TIP3    H117730   1.513   7.304   2.323  0.6739 -1.3759 -3.6242
 5929TIP3    H217731   1.518   7.155   2.349 -0.3449 -0.7667  0.5471
 5930TIP3   OH217732   4.558   2.196   4.814  0.1530 -0.0734 -0.1576
 5930TIP3    H117733   4.573   2.290   4.815  1.1294 -0.2443  1.9651
 5930TIP3    H217734   4.464   2.186   4.833  0.0874  0.4474 -0.2145
 5931TIP3   OH217735   5.970   1.310   5.710  0.5424 -0.0586  0.0497
 5931TIP3    H117736   5.908   1.356   5.654 -0.5646 -0.5862  0.8266
 5931TIP3    H217737   6.031   1.268   5.649 -0.5773 -0.5274 -0.7615
 5932TIP3   OH217738   5.420   1.107   3.430  0.0896 -0.1576 -0.0055
 5932TIP3    H117739   5.392   1.193   3.461 -2.6358 -1.7030  2.0218
 5932TIP3    H217740   5.465   1.124   3.347 -2.1358  2.9960 -0.6126
 5933TIP3   OH217741   0.668   7.989   2.634 -0.3801  0.0598  0.0232
 5933TIP3    H117742   0.577   8.001   2.658  0.3322  0.1635  2.7523
 5933TIP3    H217743   0.690   7.901   2.662  0.1185 -0.3226 -1.4918
 5934TIP3   OH217744   5.418   1.221   4.978  0.8934  0.3027  0.5113
 5934TIP3    H117745   5.398   1.142   5.029  2.1823  0.1496  0.7817
 5934TIP3    H217746   5.487   1.195   4.918 -0.4599  0.5520 -1.1937
 5935TIP3   OH217747   5.574   2.304   5.306  0.2009 -0.8356  0.2492
 5935TIP3    H117748   5.637   2.327   5.374 -0.4040  0.0673  0.5196
 5935TIP3    H217749   5.551   2.388   5.266 -0.6815 -1.1841  0.0202
 5936TIP3   OH217750   5.922   0.659   5.645 -0.2267 -0.3890  0.2782
 5936TIP3    H117751   5.958   0.595   5.584 -0.2841 -1.8338  1.7309
 5936TIP3    H217752   5.828   0.645   5.644 -0.1869 -0.7482  1.0510
 5937TIP3   OH217753   2.910   7.389   4.103  0.3093 -0.2534 -0.1124
 5937TIP3    H117754   2.842   7.425   4.046 -1.2555 -0.1889  1.7294
 5937TIP3    H217755   2.987   7.444   4.086 -0.6134  0.8269 -0.9286
 5938TIP3   OH217756   0.560   5.945   5.688 -0.3960 -0.1907  0.2292
 5938TIP3    H117757   0.486   5.996   5.656  0.4855  1.1867  0.3230
 5938TIP3    H217758   0.564   5.868   5.631 -0.7445  0.6652 -0.9636
 5939TIP3   OH217759   5.483   0.505   3.266 -0.3143 -0.1023 -0.2929
 5939TIP3    H117760   5.508   0.415   3.246 -0.8082 -0.1326 -0.7762
 5939TIP3    H217761   5.552   0.536   3.325  0.0208 -0.6941 -0.3659
 5940TIP3   OH217762   3.371   0.878   6.684  0.2131 -0.2877  0.3299
 5940TIP3    H117763   3.390   0.908   6.773  1.6519 -1.1416  0.3333
 5940TIP3    H217764   3.277   0.896   6.672  0.0113 -0.1115  1.9946
 5941TIP3   OH217765   5.229   0.817   3.945 -0.6758  0.5222 -0.3118
 5941TIP3    H117766   5.305   0.867   3.977 -0.5616  1.0432 -1.3779
 5941TIP3    H217767   5.189   0.874   3.879 -2.7117  0.7900  1.1029
 5942TIP3   OH217768   0.712   6.452   1.687 -0.2325 -0.0940  0.2344
 5942TIP3    H117769   0.719   6.496   1.602 -1.9172 -0.9612 -0.3821
 5942TIP3    H217770   0.770   6.376   1.680 -0.5915 -0.3276 -0.2632
 5943TIP3   OH217771   4.251   1.176   5.744  0.0686  0.2159  0.1751
 5943TIP3    H117772   4.283   1.260   5.711 -0.5349  0.6605  0.7050
 5943TIP3    H217773   4.211   1.134   5.668  0.1240  0.5311 -0.0278
 5944TIP3   OH217774   4.055   1.693   5.444 -0.3277 -0.6413 -0.1763
 5944TIP3    H117775   3.975   1.703   5.496  1.8907  3.7261  2.7364
 5944TIP3    H217776   4.035   1.735   5.360 -1.1759  0.3869  0.5228
 5945TIP3   OH217777   7.089   3.477   5.104  0.2015 -0.0660  0.2864
 5945TIP3    H117778   7.072   3.544   5.171 -2.6507 -0.0683 -0.4010
 5945TIP3    H217779   7.073   3.394   5.148 -1.3493 -0.0816 -0.2995
 5946TIP3   OH217780   3.385   0.479   4.876  0.2379  0.7247 -0.3672
 5946TIP3    H117781   3.295   0.505   4.855 -0.0934 -1.1233 -1.3631
 5946TIP3    H217782   3.375   0.419   4.950  0.4404 -1.0228 -1.7138
 5947TIP3   OH217783   4.677   1.368   6.610  0.7726 -0.3793  0.0697
 5947TIP3    H117784   4.668   1.377   6.705 -0.3286 -3.1948  0.2957
 5947TIP3    H217785   4.770   1.353   6.596  0.6462 -2.0644  0.9464
 5948TIP3   OH217786   3.868   1.787   4.136  0.1419  0.0897 -0.1545
 5948TIP3    H117787   3.900   1.873   4.110 -0.9726  0.6037  0.1673
 5948TIP3    H217788   3.793   1.771   4.078 -0.0699 -0.3707  0.2479
 5949TIP3   OH217789   5.921   0.286   2.974 -0.5069  0.0311 -0.3581
 5949TIP3    H117790   5.840   0.273   2.924 -0.6685 -1.3920  0.2388
 5949TIP3    H217791   5.989   0.252   2.917 -0.0939  2.7841 -1.5700
 5950TIP3   OH217792   6.123   1.458   5.912  0.1208  0.2805  0.0620
 5950TIP3    H117793   6.125   1.553   5.896 -0.6818  0.4497  0.9369
 5950TIP3    H217794   6.079   1.423   5.835 -1.9750  0.9022  0.9393
 5951TIP3   OH217795   5.432   0.392   6.746  0.2842  0.0872 -0.0335
 5951TIP3    H117796   5.358   0.389   6.684 -0.5178 -1.6537  0.9736
 5951TIP3    H217797   5.471   0.479   6.732 -1.8220  0.9578 -0.7263
 5952TIP3   OH217798   5.267   2.394   5.016 -0.0505 -0.0954  0.0308
 5952TIP3    H117799   5.218   2.475   5.006 -2.2589 -1.5209 -1.1196
 5952TIP3    H217800   5.288   2.390   5.110  0.2598  1.8833  0.0516
 5953TIP3   OH217801   5.407   1.964   3.918 -0.2237 -0.0113 -0.2504
 5953TIP3    H117802   5.353   2.001   3.988  0.3908  4.5417 -2.0139
 5953TIP3    H217803   5.492   1.947   3.958 -0.4739  0.6662  0.5715
 5954TIP3   OH217804   7.272   1.020   5.413 -0.1757 -0.1419  0.3936
 5954TIP3    H117805   7.306   0.933   5.434 -0.9440 -0.8461 -1.2119
 5954TIP3    H217806   7.184   1.005   5.380 -0.0257  1.1660 -0.6597
 5955TIP3   OH217807   8.287   7.854   3.700 -0.5560 -0.1274  0.1759
 5955TIP3    H117808   8.335   7.795   3.642 -0.5717 -2.0656  2.0785
 5955TIP3    H217809   8.346   7.868   3.774 -0.8601  1.6572  0.0976
 5956TIP3   OH217810   4.854   2.937   6.377  0.7854 -0.6585 -0.0580
 5956TIP3    H117811   4.844   2.968   6.287  0.1288  0.4565  0.3927
 5956TIP3    H217812   4.893   2.851   6.368  0.3217 -0.7385 -1.4344
 5957TIP3   OH217813   7.155   1.715   3.840 -0.3506  0.1507  0.4157
 5957TIP3    H117814   7.199   1.632   3.862  1.0651  0.9520  0.6703
 5957TIP3    H217815   7.137   1.708   3.746  1.0246  0.0973  0.1325
 5958TIP3   OH217816   3.653   7.407   1.602  0.0125  0.4544 -0.2512
 5958TIP3    H117817   3.693   7.425   1.517  3.1129 -3.1525  0.2780
 5958TIP3    H217818   3.578   7.351   1.583  0.7478 -0.4116 -0.6492
 5959TIP3   OH217819   8.441   1.540   6.495  0.4320  0.5030 -0.1594
 5959TIP3    H117820   8.460   1.631   6.474  1.9763  0.3859  0.6421
 5959TIP3    H217821   8.416   1.541   6.587  0.5954  0.1073 -0.1094
 5960TIP3   OH217822   3.885   7.139   5.546 -0.4036  0.4956  0.0372
 5960TIP3    H117823   3.805   7.188   5.562  0.1403  0.9876  1.2761
 5960TIP3    H217824   3.915   7.169   5.461 -1.7670 -0.0252 -0.6529
 5961TIP3   OH217825   7.506   0.912   3.286  0.3532  0.3062 -0.2612
 5961TIP3    H117826   7.460   0.836   3.321  0.8993  0.6034  1.1525
 5961TIP3    H217827   7.437   0.978   3.274  0.4645  0.9505  2.4101
 5962TIP3   OH217828   6.962   0.565   3.954 -0.1340  0.1569 -0.1831
 5962TIP3    H117829   7.052   0.556   3.921 -0.3356  0.2448 -0.7740
 5962TIP3    H217830   6.957   0.504   4.028  0.9655  1.5325  1.0462
 5963TIP3   OH217831   5.412   1.206   5.472 -0.5523 -0.2270  0.0650
 5963TIP3    H117832   5.370   1.219   5.558 -0.4119  0.2254  0.0663
 5963TIP3    H217833   5.468   1.129   5.485  0.1705  0.3822  0.6477
 5964TIP3   OH217834   0.972   0.874   4.078 -0.0512  0.2370 -0.3718
 5964TIP3    H117835   1.050   0.871   4.022  0.6620 -0.7744  0.6738
 5964TIP3    H217836   0.990   0.946   4.139 -0.9132  1.4689 -1.5263
 5965TIP3   OH217837   4.057   7.850   4.877 -0.7304 -0.4278 -0.0323
 5965TIP3    H117838   4.048   7.830   4.970  1.8323 -1.8570 -0.0461
 5965TIP3    H217839   4.141   7.896   4.871 -1.4710  0.7702 -1.4788
 5966TIP3   OH217840   6.587   7.719   5.598  0.1322  0.4053  0.0865
 5966TIP3    H117841   6.505   7.670   5.584 -0.0934  0.4312  1.3130
 5966TIP3    H217842   6.655   7.662   5.562 -0.1864 -0.5984  1.0393
 5967TIP3   OH217843   3.628   7.858   5.253  0.0152 -0.0636 -0.5181
 5967TIP3    H117844   3.552   7.831   5.306  0.3938 -0.1804 -0.0311
 5967TIP3    H217845   3.649   7.781   5.200  0.6498 -0.5049  0.3521
 5968TIP3   OH217846   2.891   7.594   2.887 -0.1886 -0.0309 -0.2862
 5968TIP3    H117847   2.842   7.514   2.868 -1.6278  1.2372 -2.0139
 5968TIP3    H217848   2.966   7.590   2.827  0.4551 -0.6980  0.5443
 5969TIP3   OH217849   2.922   7.161   3.022  0.0838  0.2079 -0.1835
 5969TIP3    H117850   3.006   7.156   3.067  1.2430 -0.2743 -2.3095
 5969TIP3    H217851   2.858   7.179   3.091  1.9632  0.8440  1.4322
 5970TIP3   OH217852   5.682   7.587   3.711  0.0342 -0.2292  0.1128
 5970TIP3    H117853   5.695   7.657   3.648  0.9408  0.5996  1.2011
 5970TIP3    H217854   5.762   7.534   3.707  0.1852 -0.0510  0.7167
 5971TIP3   OH217855   1.602   1.126   6.485 -0.6410 -0.2430  0.0333
 5971TIP3    H117856   1.537   1.152   6.420 -0.2102 -0.2744 -0.4113
 5971TIP3    H217857   1.573   1.041   6.516 -1.5403  0.3374  0.8082
 5972TIP3   OH217858   4.942   7.499   3.768 -0.1480 -0.1880  0.1923
 5972TIP3    H117859   4.870   7.510   3.830 -1.6225 -0.8157 -1.3576
 5972TIP3    H217860   4.956   7.586   3.732 -1.5274 -0.4305 -0.9773
 5973TIP3   OH217861   5.590   1.062   4.574  0.5097 -0.4372 -0.5200
 5973TIP3    H117862   5.521   0.996   4.568  1.0160 -0.9154 -1.2663
 5973TIP3    H217863   5.544   1.145   4.584 -0.1110 -1.0874  2.3807
 5974TIP3   OH217864   5.558   1.356   6.319 -0.2045 -0.6599 -0.1404
 5974TIP3    H117865   5.464   1.370   6.309 -0.3117 -1.0367  0.3304
 5974TIP3    H217866   5.588   1.334   6.230 -0.9216 -2.6192  0.0657
 5975TIP3   OH217867   6.697   2.603   4.552  0.1209  0.0430 -0.3831
 5975TIP3    H117868   6.781   2.625   4.511  0.6025 -0.8797  0.0971
 5975TIP3    H217869   6.650   2.686   4.558  0.3024  0.2968 -2.2362
 5976TIP3   OH217870   6.792   0.956   4.643  0.1080  0.0048  0.0532
 5976TIP3    H117871   6.730   0.989   4.708  1.0181 -0.4839  1.1709
 5976TIP3    H217872   6.811   1.032   4.588 -1.7622  0.0781 -0.5499
 5977TIP3   OH217873   8.185   2.242   4.848 -0.0101  0.1776  0.4695
 5977TIP3    H117874   8.152   2.156   4.876  0.6676  0.3291  1.7517
 5977TIP3    H217875   8.111   2.301   4.861 -1.0363 -0.4865 -2.0116
 5978TIP3   OH217876   7.501   1.554   4.886 -0.2427 -0.5978  0.2005
 5978TIP3    H117877   7.456   1.534   4.969  2.1427 -1.8929  1.2589
 5978TIP3    H217878   7.467   1.489   4.825  0.2609 -1.6527  1.0207
 5979TIP3   OH217879   6.975   2.287   1.918 -0.3037  0.7427 -0.2179
 5979TIP3    H117880   6.955   2.381   1.915 -0.0063  0.7915 -0.7140
 5979TIP3    H217881   6.909   2.248   1.861  0.4411  0.8056 -1.1368
 5980TIP3   OH217882   6.746   8.004   5.962  0.0806 -0.0559 -0.0282
 5980TIP3    H117883   6.740   7.976   5.871 -2.4176  0.8038 -0.1634
 5980TIP3    H217884   6.660   7.985   5.999  0.6912  0.7048  1.8296
 5981TIP3   OH217885   5.463   2.369   3.361  0.1477  0.4903  0.3894
 5981TIP3    H117886   5.458   2.339   3.271 -0.1109  1.3084  0.1226
 5981TIP3    H217887   5.396   2.319   3.407  0.0811  0.2797  0.0660
 5982TIP3   OH217888   6.303   2.315   3.350  0.6352  0.2883  0.0074
 5982TIP3    H117889   6.215   2.316   3.386  0.1278 -0.5322 -1.2201
 5982TIP3    H217890   6.291   2.319   3.255  1.9442  1.3758 -0.1318
 5983TIP3   OH217891  -0.001   1.309   3.566  0.0649 -0.1737  0.3661
 5983TIP3    H117892   0.051   1.367   3.511 -1.4156  0.4888 -0.3558
 5983TIP3    H217893   0.028   1.327   3.655 -0.2986  1.6035  0.1388
 5984TIP3   OH217894   0.929   1.767   6.643 -0.1671  0.4493  0.1848
 5984TIP3    H117895   0.861   1.714   6.602 -1.4974  0.3759  2.3779
 5984TIP3    H217896   0.983   1.704   6.691  0.8812  0.6125 -0.7785
 5985TIP3   OH217897   7.658   3.222   3.368  0.0972 -0.4949 -0.0234
 5985TIP3    H117898   7.590   3.267   3.317  0.6941 -2.3020 -2.5284
 5985TIP3    H217899   7.632   3.236   3.459 -0.8156  3.1862 -0.7333
 5986TIP3   OH217900   7.559   1.285   4.184 -0.1923  0.0802  0.3363
 5986TIP3    H117901   7.533   1.251   4.099 -1.6162  0.9605  0.4035
 5986TIP3    H217902   7.598   1.370   4.165  1.7871 -0.8065  0.3341
 5987TIP3   OH217903   0.650   1.096   5.091  0.0823  0.4883 -0.0024
 5987TIP3    H117904   0.615   1.014   5.056 -0.9495 -0.2262  2.6057
 5987TIP3    H217905   0.721   1.069   5.149  1.8222  1.6657 -1.5048
 5988TIP3   OH217906   4.368   1.570   4.825  0.0992 -0.3287  0.2457
 5988TIP3    H117907   4.414   1.592   4.743  0.6912  0.6699  0.8215
 5988TIP3    H217908   4.278   1.555   4.799  0.0417  1.0959 -0.4615
 5989TIP3   OH217909   6.258   3.377   5.725  0.1920 -0.1680  0.1060
 5989TIP3    H117910   6.334   3.408   5.675  1.1378 -0.2659  1.4519
 5989TIP3    H217911   6.187   3.436   5.700  1.3773  1.6049  0.8187
 5990TIP3   OH217912   4.299   7.394   5.924 -0.5983 -0.1008  0.2137
 5990TIP3    H117913   4.215   7.380   5.881 -0.7283  0.9021  0.1420
 5990TIP3    H217914   4.280   7.451   5.999  0.3429  2.0245 -1.1044
 5991TIP3   OH217915   4.056   7.249   5.755  0.2794 -0.1079  0.1889
 5991TIP3    H117916   4.104   7.305   5.694 -0.2896  0.3192  0.1385
 5991TIP3    H217917   4.003   7.192   5.699  1.2764 -1.0845  0.2193
 5992TIP3   OH217918   3.102   8.011   4.491  0.2143  0.0009 -0.1358
 5992TIP3    H117919   3.017   8.032   4.528  0.3324 -0.2792  0.3016
 5992TIP3    H217920   3.120   7.922   4.522  0.6648  0.0594 -0.2250
 5993TIP3   OH217921   6.094   0.707   4.654 -0.2104  0.1172  0.2958
 5993TIP3    H117922   6.109   0.719   4.560 -0.3943 -0.9005  0.1322
 5993TIP3    H217923   6.107   0.614   4.668 -1.1217  0.1179  1.1253
 5994TIP3   OH217924   7.286   0.939   4.962  0.0716  0.0681  0.6928
 5994TIP3    H117925   7.377   0.958   4.984 -0.4914  2.0634  1.4378
 5994TIP3    H217926   7.251   1.022   4.929 -1.6285 -0.5102  0.9500
 5995TIP3   OH217927   0.513   7.279   5.170 -0.5239 -0.3639  0.2672
 5995TIP3    H117928   0.479   7.198   5.133 -0.0890 -0.4674  0.0913
 5995TIP3    H217929   0.481   7.347   5.111  0.0900 -0.5205 -0.2596
 5996TIP3   OH217930   0.624   0.606   4.346 -0.2383  0.0085  0.9025
 5996TIP3    H117931   0.652   0.696   4.362 -1.6008  0.9892 -1.9541
 5996TIP3    H217932   0.658   0.557   4.421  1.4435  2.6879  1.9697
 5997TIP3   OH217933   5.529   1.168   4.217 -0.2729  0.3848  0.2155
 5997TIP3    H117934   5.522   1.263   4.207 -0.3357  0.4955  1.3021
 5997TIP3    H217935   5.611   1.154   4.263  0.2241 -0.1564 -0.8195
 5998TIP3   OH217936   4.234   2.579   4.780 -0.4478 -0.3732 -0.7484
 5998TIP3    H117937   4.278   2.656   4.817 -1.4982 -0.3689  0.5146
 5998TIP3    H217938   4.297   2.544   4.717  1.6540 -0.7465  1.4874
 5999TIP3   OH217939   7.758   2.437   3.349  0.2980  0.2829  0.1549
 5999TIP3    H117940   7.775   2.456   3.441  2.5125 -2.8021  0.4588
 5999TIP3    H217941   7.822   2.491   3.302 -0.2681  1.2116  0.4174
 6000TIP3   OH217942   6.163   0.281   2.825  0.3446  0.1016  0.2077
 6000TIP3    H117943   6.185   0.369   2.796  1.5546 -0.6833 -1.3626
 6000TIP3    H217944   6.127   0.238   2.747 -2.5423 -0.0753  1.5704
 6001TIP3   OH217945   7.416   2.352   2.472  0.4198  0.1034 -0.0640
 6001TIP3    H117946   7.377   2.265   2.477  1.1264 -0.2049  0.2392
 6001TIP3    H217947   7.410   2.375   2.380  2.5607 -1.3907 -0.6337
 6002TIP3   OH217948   4.911   8.000   3.228 -0.0847  0.4159  0.1101
 6002TIP3    H117949   4.872   7.920   3.192 -0.7826  0.4329  0.8090
 6002TIP3    H217950   4.851   8.026   3.298  0.5307  1.1431  0.3699
 6003TIP3   OH217951   7.844   3.545   3.291 -0.1500  0.0168  0.0784
 6003TIP3    H117952   7.777   3.506   3.234 -1.4430  1.4596  0.5790
 6003TIP3    H217953   7.795   3.599   3.353  1.5561  2.0887 -0.3147
 6004TIP3   OH217954   7.846   1.240   3.133  0.2315 -0.1601  0.0976
 6004TIP3    H117955   7.890   1.296   3.069 -4.5886  2.1673 -1.4227
 6004TIP3    H217956   7.867   1.151   3.105  3.1120  0.8344 -1.0789
 6005TIP3   OH217957   4.097   7.706   6.134 -0.4363  0.3738  0.2114
 6005TIP3    H117958   4.084   7.787   6.182 -0.4224  2.0138 -2.4707
 6005TIP3    H217959   4.189   7.683   6.151 -0.3478  1.0759  0.7117
 6006TIP3   OH217960   3.313   7.089   5.227  0.2478 -0.5298 -0.1661
 6006TIP3    H117961   3.330   7.009   5.277  2.6673  0.2876  0.3856
 6006TIP3    H217962   3.233   7.070   5.178 -0.9284 -2.1620  2.2917
 6007TIP3   OH217963   5.507   7.816   4.189  0.4723 -0.6532  0.1207
 6007TIP3    H117964   5.473   7.905   4.194  1.3204 -0.4071  1.7117
 6007TIP3    H217965   5.548   7.811   4.103  0.3114  0.4448 -0.0256
 6008TIP3   OH217966   8.461   0.218   5.475  0.2171 -0.6529 -0.3436
 6008TIP3    H117967   8.461   0.140   5.530  1.4460 -0.9734 -0.7839
 6008TIP3    H217968   8.540   0.266   5.502 -0.3837  0.3116 -0.2604
 6009TIP3   OH217969   4.722   6.853   1.554 -0.0086 -0.4763 -0.1805
 6009TIP3    H117970   4.813   6.865   1.579 -0.1648  0.3338  0.0233
 6009TIP3    H217971   4.711   6.758   1.545  0.4976 -0.6571  1.1089
 6010TIP3   OH217972   3.785   0.181   4.815  0.3489  0.5605 -0.2339
 6010TIP3    H117973   3.743   0.264   4.840  0.7315  0.0816  2.0877
 6010TIP3    H217974   3.712   0.120   4.806  0.3253  0.2995  1.5266
 6011TIP3   OH217975   1.066   1.304   2.796  0.0290  0.0619  0.1273
 6011TIP3    H117976   1.050   1.226   2.849  1.7764  0.0235  0.6391
 6011TIP3    H217977   0.990   1.360   2.810  0.0082 -0.3944  1.8609
 6012TIP3   OH217978   1.738   7.094   4.717 -0.1187 -0.2473 -0.2003
 6012TIP3    H117979   1.708   7.126   4.632  0.7333 -0.0877 -0.4504
 6012TIP3    H217980   1.668   7.036   4.747 -1.7949  1.9820  0.3597
 6013TIP3   OH217981   6.769   2.497   3.968  0.2398 -0.3547 -0.0871
 6013TIP3    H117982   6.678   2.500   3.996 -0.1981 -1.3546 -1.3816
 6013TIP3    H217983   6.816   2.461   4.044 -0.6300 -1.0993  0.1100
 6014TIP3   OH217984   5.956   1.652   5.291  0.4468  0.2835 -0.2223
 6014TIP3    H117985   5.955   1.738   5.333  2.3782  0.9062 -1.3997
 6014TIP3    H217986   5.979   1.671   5.200 -0.4133 -1.3716 -0.8056
 6015TIP3   OH217987   5.460   0.882   5.421  0.2771  0.0373  0.7322
 6015TIP3    H117988   5.554   0.899   5.431  0.3709 -0.5598  0.8583
 6015TIP3    H217989   5.442   0.808   5.479 -0.5927  1.1660  1.9274
 6016TIP3   OH217990   7.014   0.394   4.168 -0.2298  0.1673 -0.6480
 6016TIP3    H117991   7.109   0.402   4.173 -0.0619 -1.2058 -1.4173
 6016TIP3    H217992   6.999   0.303   4.143 -1.7756  0.0862  0.4659
 6017TIP3   OH217993   5.186   0.093   4.589  0.3352 -0.0963  0.1382
 6017TIP3    H117994   5.188  -0.002   4.579  1.2544 -0.1292  0.4952
 6017TIP3    H217995   5.215   0.127   4.505  2.1680 -0.2081  0.6868
 6018TIP3   OH217996   5.782   0.266   5.495  0.3069 -0.3630  0.1608
 6018TIP3    H117997   5.725   0.313   5.434  0.1611  1.6488  1.7835
 6018TIP3    H217998   5.807   0.187   5.448 -0.2261  0.8659 -2.2988
 6019TIP3   OH217999   3.073   6.640   5.099 -0.7192 -0.4176  0.6187
 6019TIP3    H118000   3.152   6.674   5.057  0.0718 -1.2422  1.4114
 6019TIP3    H218001   3.103   6.563   5.147 -2.2395 -1.4519 -0.0624
 6020TIP3   OH218002   8.063   1.292   4.142  0.3691  0.3501 -0.0993
 6020TIP3    H118003   8.019   1.376   4.155  1.1768  0.9526 -1.1518
 6020TIP3    H218004   8.084   1.261   4.230 -1.1313  0.5939  0.3617
 6021TIP3   OH218005   0.618   4.263   1.781 -0.3555  0.1812  0.4101
 6021TIP3    H118006   0.524   4.249   1.785 -0.2099 -0.3883  2.1794
 6021TIP3    H218007   0.647   4.262   1.872  1.6010 -1.3767 -0.1857
 6022TIP3   OH218008   7.023   0.723   5.824 -0.0888  0.0854 -0.0630
 6022TIP3    H118009   6.983   0.766   5.899 -0.7646 -0.5456 -0.0559
 6022TIP3    H218010   6.953   0.669   5.787  1.2724 -2.6671  1.2020
 6023TIP3   OH218011   7.012   2.507   2.361 -0.3290 -0.0377 -0.3841
 6023TIP3    H118012   7.029   2.590   2.406 -0.9611 -0.7431  1.1951
 6023TIP3    H218013   7.011   2.442   2.431  2.8130 -1.7923 -1.9025
 6024TIP3   OH218014   2.567   7.912   3.085 -0.3717 -0.1476 -0.4893
 6024TIP3    H118015   2.490   7.866   3.118  0.9908 -1.5851  0.7701
 6024TIP3    H218016   2.595   7.968   3.158  0.3321 -0.3592 -0.5937
 6025TIP3   OH218017   7.306   0.707   5.782  0.2417  0.1153  0.0400
 6025TIP3    H118018   7.211   0.719   5.787  0.0763 -0.6410 -0.9780
 6025TIP3    H218019   7.340   0.742   5.864 -0.8414  1.1588  0.0531
 6026TIP3   OH218020   3.154   7.269   4.918 -0.6210 -0.5450 -0.1344
 6026TIP3    H118021   3.063   7.257   4.945 -1.0877 -0.4486 -1.6298
 6026TIP3    H218022   3.194   7.183   4.928 -0.9931 -0.6904  0.1087
 6027TIP3   OH218023   3.504   7.070   5.668 -0.0990 -0.5690 -0.1824
 6027TIP3    H118024   3.490   7.055   5.762 -0.3587 -0.4775 -0.2049
 6027TIP3    H218025   3.575   7.134   5.664 -1.3220  0.8118 -0.0037
 6028TIP3   OH218026   6.799   0.570   5.386  0.3052 -0.4378 -0.2610
 6028TIP3    H118027   6.807   0.481   5.420 -0.6849 -0.4194  0.0469
 6028TIP3    H218028   6.878   0.615   5.415  0.7425 -1.1820 -0.3011
 6029TIP3   OH218029   7.413   2.197   5.871 -0.6390  0.6637  0.0055
 6029TIP3    H118030   7.332   2.226   5.829 -0.3825  1.1446 -0.1631
 6029TIP3    H218031   7.384   2.141   5.943 -1.0837  0.0012 -0.6873
 6030TIP3   OH218032   3.674   7.641   5.456 -0.2262 -0.2864 -0.0698
 6030TIP3    H118033   3.754   7.689   5.480 -0.7747  0.0996  1.0520
 6030TIP3    H218034   3.611   7.709   5.432 -0.5234 -0.5342  0.0014
 6031TIP3   OH218035   5.886   2.467   3.807  0.7400  0.4296  0.5090
 6031TIP3    H118036   5.914   2.504   3.723 -0.4837 -0.5954 -0.3637
 6031TIP3    H218037   5.869   2.544   3.862  2.8928  1.0977  0.2912
 6032TIP3   OH218038   1.758   4.751   0.371 -0.0864  0.2345  0.7127
 6032TIP3    H118039   1.705   4.780   0.297  0.3261  1.1387  0.7660
 6032TIP3    H218040   1.829   4.701   0.332 -0.3876 -0.0822  0.5664
 6033TIP3   OH218041   8.417   0.744   4.844 -0.3371  0.0754 -0.1378
 6033TIP3    H118042   8.359   0.706   4.910  2.1420 -0.5014  1.7846
 6033TIP3    H218043   8.504   0.739   4.883  1.2935 -0.8302 -3.7015
 6034TIP3   OH218044   7.345   1.325   4.389  0.2505  0.6241 -0.2612
 6034TIP3    H118045   7.263   1.356   4.350 -0.0717 -1.4768 -1.2974
 6034TIP3    H218046   7.412   1.344   4.323  0.5844  2.0592  0.4599
 6035TIP3   OH218047   6.526   2.511   4.107 -0.3415  0.3806 -0.5721
 6035TIP3    H118048   6.449   2.506   4.050  0.0343 -0.7140 -0.9941
 6035TIP3    H218049   6.493   2.550   4.188 -1.1054  0.9381 -1.1447
 6036TIP3   OH218050   8.095   2.469   3.583 -0.2555  0.1397 -0.7425
 6036TIP3    H118051   8.070   2.520   3.505 -0.9060 -1.0026 -1.2912
 6036TIP3    H218052   8.102   2.535   3.652 -0.7590  1.0354 -1.5193
 6037TIP3   OH218053   6.080   0.394   4.148  0.3302 -0.0309 -0.3264
 6037TIP3    H118054   6.048   0.338   4.219  2.1600 -3.0846 -1.8362
 6037TIP3    H218055   6.005   0.405   4.091 -0.8816  1.6208  1.5069
 6038TIP3   OH218056   0.534   0.888   4.917 -0.7661  0.1376 -0.5974
 6038TIP3    H118057   0.513   0.924   4.831 -1.2067  0.1276 -0.4966
 6038TIP3    H218058   0.452   0.893   4.966 -0.7386 -0.6534 -0.4601
 6039TIP3   OH218059   3.496   0.158   3.443 -0.5843 -0.6035  0.7747
 6039TIP3    H118060   3.575   0.158   3.390 -0.9076  2.1199  0.2254
 6039TIP3    H218061   3.497   0.073   3.488  1.4609 -1.5217 -0.9269
 6040TIP3   OH218062   4.205   1.047   5.450  0.0972 -0.2846  0.8202
 6040TIP3    H118063   4.151   0.972   5.472  0.1005 -0.5393 -0.0147
 6040TIP3    H218064   4.145   1.109   5.409  0.2800 -0.2321  0.6297
 6041TIP3   OH218065   5.869   2.405   4.128 -0.3285 -0.4552  0.1146
 6041TIP3    H118066   5.834   2.486   4.091  0.7572  0.3460  0.8191
 6041TIP3    H218067   5.960   2.403   4.098 -0.0027 -0.7907  1.1023
 6042TIP3   OH218068   0.904   2.642   4.308  0.6779  0.2420 -0.4374
 6042TIP3    H118069   0.910   2.655   4.213 -2.3015 -1.8365 -0.9878
 6042TIP3    H218070   0.913   2.548   4.320  0.7627  0.4646  1.3344
 6043TIP3   OH218071   5.784   3.001   3.395  0.0888 -0.3663 -0.2344
 6043TIP3    H118072   5.858   3.015   3.336 -0.0770 -0.8612 -0.5602
 6043TIP3    H218073   5.789   3.074   3.457  0.2095  0.2072 -0.9135
 6044TIP3   OH218074   7.930   1.500   2.880 -0.2850  0.2524  0.1891
 6044TIP3    H118075   7.922   1.507   2.785 -0.3092  0.7934  0.2298
 6044TIP3    H218076   8.023   1.483   2.895 -0.3699 -0.3870  0.0420
 6045TIP3   OH218077   6.032   1.721   5.007  0.0413  0.2189 -0.5917
 6045TIP3    H118078   5.963   1.776   4.970 -0.2123  1.0267  1.0838
 6045TIP3    H218079   6.103   1.726   4.943 -1.7203 -1.2889 -2.7621
 6046TIP3   OH218080   2.634   0.908   1.786  0.5444 -0.3704  0.0977
 6046TIP3    H118081   2.557   0.908   1.729  0.3282 -1.4880  0.3756
 6046TIP3    H218082   2.675   0.993   1.771 -3.0652  2.0966  3.1487
 6047TIP3   OH218083   7.786   0.722   4.512 -0.4438  0.2656  0.0632
 6047TIP3    H118084   7.876   0.737   4.481 -0.6200  0.3130 -0.4175
 6047TIP3    H218085   7.747   0.810   4.515 -0.5853  0.2077 -0.0695
 6048TIP3   OH218086   2.847   7.992   4.599 -0.2545  0.0239 -0.4252
 6048TIP3    H118087   2.783   8.060   4.579 -0.8947 -0.3377  0.3650
 6048TIP3    H218088   2.796   7.912   4.607  0.5799 -0.6984 -2.0344
 6049TIP3   OH218089   8.436   2.100   5.666 -0.1415  0.1572  0.1630
 6049TIP3    H118090   8.388   2.034   5.716 -1.3126 -0.2673 -1.4815
 6049TIP3    H218091   8.443   2.175   5.725  0.9361 -1.3148  1.9411
 6050TIP3   OH218092   3.810   3.011   4.401 -0.0792  0.0825  0.0505
 6050TIP3    H118093   3.865   3.086   4.377  0.1071  0.0263  0.3009
 6050TIP3    H218094   3.809   2.955   4.324 -1.4869  1.0999 -0.7076
 6051TIP3   OH218095   3.677   7.203   5.163 -0.3783 -0.3511  0.0711
 6051TIP3    H118096   3.624   7.282   5.171  0.0216  0.0127 -0.7887
 6051TIP3    H218097   3.767   7.235   5.163 -0.2582 -0.5640 -2.7550
 6052TIP3   OH218098   6.629   1.809   5.013 -0.5509 -0.1749 -0.3630
 6052TIP3    H118099   6.643   1.822   5.107 -0.9360  0.5045 -0.3976
 6052TIP3    H218100   6.693   1.742   4.988  1.3818  1.5261 -0.1536
 6053TIP3   OH218101   5.282   7.622   5.259 -0.3294  0.0407  0.3690
 6053TIP3    H118102   5.278   7.533   5.296 -1.8377  0.7025  1.8933
 6053TIP3    H218103   5.191   7.649   5.252  0.0279  0.6888 -2.1066
 6054TIP3   OH218104   1.124   0.573   2.592  0.2728 -0.6090 -0.5212
 6054TIP3    H118105   1.213   0.549   2.617  0.1630 -0.0279  0.4627
 6054TIP3    H218106   1.127   0.668   2.580  0.3663 -0.8828 -2.9553
 6055TIP3   OH218107   0.773   1.963   1.832  0.0246 -0.1655  0.2316
 6055TIP3    H118108   0.826   1.885   1.813 -0.7375 -0.8855  0.9994
 6055TIP3    H218109   0.730   1.943   1.916 -1.3522  0.4575 -0.3051
 6056TIP3   OH218110   1.257   2.040   2.391  0.4922 -0.2662  0.0684
 6056TIP3    H118111   1.273   2.134   2.396  2.5475 -0.5474 -0.7687
 6056TIP3    H218112   1.221   2.018   2.477  2.1359  0.9002  1.0812
 6057TIP3   OH218113   7.180   1.014   5.881 -0.5179 -0.5925 -0.3927
 6057TIP3    H118114   7.116   1.041   5.814  0.0947  0.7450 -0.4428
 6057TIP3    H218115   7.265   1.023   5.838 -0.2006 -1.0136  0.1450
 6058TIP3   OH218116   5.184   1.699   3.539  0.2430  0.3094 -0.8409
 6058TIP3    H118117   5.139   1.782   3.524  1.2104  0.4827 -2.9976
 6058TIP3    H218118   5.150   1.641   3.471  1.3090 -0.3463 -0.8254
 6059TIP3   OH218119   6.492   1.800   5.495 -0.3731 -0.2496  0.1518
 6059TIP3    H118120   6.448   1.734   5.548 -1.6610  0.7351  0.3213
 6059TIP3    H218121   6.576   1.814   5.539 -1.0624 -0.0839  1.4365
 6060TIP3   OH218122   5.863   1.441   4.661 -0.2906  0.1354 -0.0730
 6060TIP3    H118123   5.954   1.429   4.635  0.0940  0.4503  1.1104
 6060TIP3    H218124   5.816   1.455   4.578  1.0747  2.2784 -0.5222
 6061TIP3   OH218125   6.505   0.107   4.072  0.3692  0.0232 -0.1191
 6061TIP3    H118126   6.563   0.178   4.099  1.5813 -0.9643 -0.0965
 6061TIP3    H218127   6.438   0.104   4.141  1.5646 -0.3064  1.0436
 6062TIP3   OH218128   6.647   0.121   5.092 -0.2715  0.2112 -0.3429
 6062TIP3    H118129   6.585   0.134   5.163 -0.2483 -0.3844 -0.2075
 6062TIP3    H218130   6.678   0.209   5.070  1.6275  0.2142  2.1020
 6063TIP3   OH218131   5.715   2.629   5.922  0.4884  0.1276  0.5597
 6063TIP3    H118132   5.682   2.639   5.832  0.8996 -0.5700  0.3297
 6063TIP3    H218133   5.664   2.692   5.973 -0.7467 -0.4552  0.0846
 6064TIP3   OH218134   6.295   3.585   3.057 -0.4524  0.1411  0.1956
 6064TIP3    H118135   6.370   3.574   3.116 -0.3283 -1.6603 -0.2894
 6064TIP3    H218136   6.219   3.580   3.115 -0.3771 -2.6628  0.1095
 6065TIP3   OH218137   6.824   0.280   3.501  0.1219  0.2336  0.4834
 6065TIP3    H118138   6.742   0.298   3.547 -1.0357 -1.2058 -0.9786
 6065TIP3    H218139   6.870   0.364   3.500 -1.3823  1.0826  1.1806
 6066TIP3   OH218140   0.661   4.035   0.964 -0.5924  0.1295  0.1159
 6066TIP3    H118141   0.631   3.957   0.918 -1.4414 -0.1227  1.0753
 6066TIP3    H218142   0.680   4.005   1.053 -2.3078  1.2755  0.9034
 6067TIP3   OH218143   5.153   0.838   2.895  0.0435 -0.1384 -0.2972
 6067TIP3    H118144   5.113   0.924   2.883 -0.5768 -0.6465 -1.9602
 6067TIP3    H218145   5.121   0.808   2.980  1.7164  2.0384  1.1400
 6068TIP3   OH218146   7.225   2.137   5.455 -0.2554  0.3285  0.0724
 6068TIP3    H118147   7.319   2.125   5.462 -0.5567 -0.5597  3.5568
 6068TIP3    H218148   7.198   2.169   5.541 -2.8389  2.8725 -1.5810
 6069TIP3   OH218149   7.660   2.432   2.696 -0.2272  0.0905 -1.0068
 6069TIP3    H118150   7.607   2.432   2.616  0.4714 -1.1823 -1.4840
 6069TIP3    H218151   7.597   2.420   2.767 -0.7707  0.4944 -1.4173
 6070TIP3   OH218152   6.980   2.072   4.035  0.5163  0.0811  0.1288
 6070TIP3    H118153   7.035   2.046   3.961 -1.1037 -0.3194 -0.9586
 6070TIP3    H218154   6.918   2.000   4.045  0.1695  0.5364  1.3337
 6071TIP3   OH218155   7.783   2.355   5.286  0.3259 -0.4501  0.1950
 6071TIP3    H118156   7.723   2.347   5.360  2.8503 -1.1719  2.2479
 6071TIP3    H218157   7.776   2.271   5.240 -0.3450 -0.4783  0.3494
 6072TIP3   OH218158   4.116   1.580   2.869 -0.2773 -0.4554  0.0709
 6072TIP3    H118159   4.101   1.568   2.963  1.7165 -2.1330  0.2243
 6072TIP3    H218160   4.081   1.500   2.829 -0.2773 -0.1693 -0.4985
 6073TIP3   OH218161   2.711   7.769   4.723  0.3053  0.4648  0.4822
 6073TIP3    H118162   2.691   7.676   4.729  1.8241  0.0166 -1.0700
 6073TIP3    H218163   2.638   7.812   4.767 -1.7155 -1.3338 -1.0062
 6074TIP3   OH218164   6.291   1.527   4.463  0.2454 -0.1498  0.5889
 6074TIP3    H118165   6.265   1.501   4.374 -0.8814 -0.9907  1.1404
 6074TIP3    H218166   6.299   1.622   4.459  1.5044 -0.2942 -0.7418
 6075TIP3   OH218167   7.746   0.114   4.265 -0.2789  0.4771  0.3629
 6075TIP3    H118168   7.664   0.127   4.219 -1.0435  0.2048  1.6286
 6075TIP3    H218169   7.812   0.153   4.208 -1.1771 -0.0638 -1.0601
 6076TIP3   OH218170   1.347   1.886   3.745 -0.2931  0.0940 -0.3007
 6076TIP3    H118171   1.426   1.880   3.798 -0.9553  0.5795  0.7642
 6076TIP3    H218172   1.340   1.979   3.723 -0.2072 -0.0518 -0.9601
 6077TIP3   OH218173   0.087   1.435   5.569 -0.2481 -0.2860 -0.3398
 6077TIP3    H118174   0.045   1.355   5.537  0.0779 -0.0451 -1.4142
 6077TIP3    H218175   0.017   1.500   5.571 -0.1088 -0.0862 -1.3933
 6078TIP3   OH218176   4.455   7.586   2.508  0.0970 -0.2394 -0.3528
 6078TIP3    H118177   4.375   7.561   2.463  0.8594 -0.7621 -1.4425
 6078TIP3    H218178   4.520   7.598   2.438  0.1387  3.4976  0.1821
 6079TIP3   OH218179   3.980   6.962   3.379 -0.0466 -0.0003 -0.6342
 6079TIP3    H118180   3.951   6.917   3.458 -0.0328 -1.0734 -1.2297
 6079TIP3    H218181   3.986   6.893   3.313 -0.7648  0.9913 -1.7657
 6080TIP3   OH218182   7.071   0.593   5.528 -0.5048 -0.2797 -0.1485
 6080TIP3    H118183   7.136   0.526   5.506  1.1287  1.4773 -0.8036
 6080TIP3    H218184   7.123   0.669   5.555 -2.3591  0.0704  2.6032
 6081TIP3   OH218185   7.663   1.869   5.441 -0.0636  0.1859  0.9091
 6081TIP3    H118186   7.643   1.807   5.371 -0.1237 -1.7132  2.5545
 6081TIP3    H218187   7.758   1.868   5.447 -0.1254 -0.9345  1.9392
 6082TIP3   OH218188   7.079   0.162   6.154  0.1697  0.8268 -0.6116
 6082TIP3    H118189   7.004   0.138   6.100 -0.2981 -1.4262  0.9939
 6082TIP3    H218190   7.155   0.141   6.099 -0.2817 -2.1975 -0.1668
 6083TIP3   OH218191   7.383   1.064   4.479  0.6240  0.2466 -0.5673
 6083TIP3    H118192   7.385   1.134   4.415 -1.5784  0.2874 -0.6393
 6083TIP3    H218193   7.310   1.086   4.537  0.8801 -1.1777  0.3368
 6084TIP3   OH218194   1.652   6.617   4.454 -0.6806  0.0728 -0.5158
 6084TIP3    H118195   1.703   6.697   4.468  0.9034 -1.2086  1.0876
 6084TIP3    H218196   1.663   6.598   4.361  1.4660  0.0200 -0.2741
 6085TIP3   OH218197   7.757   1.491   4.961 -0.1033  0.1097  0.0997
 6085TIP3    H118198   7.747   1.462   5.051  1.1947  2.0932  0.8995
 6085TIP3    H218199   7.668   1.517   4.935 -0.6695 -1.4202  0.4405
 6086TIP3   OH218200   5.514   2.072   4.969 -0.3164 -0.6470  0.0239
 6086TIP3    H118201   5.491   2.055   5.060  1.2327 -0.5426  0.4492
 6086TIP3    H218202   5.450   2.021   4.919 -1.6026 -0.1698  1.1431
 6087TIP3   OH218203   7.670   2.518   4.066  0.3636  0.6482  0.4871
 6087TIP3    H118204   7.670   2.608   4.034  1.5643  0.4148 -0.1939
 6087TIP3    H218205   7.632   2.524   4.154 -0.9199  1.6033 -0.1121
 6088TIP3   OH218206   0.799   0.247   5.787  0.2062 -0.1683 -0.3214
 6088TIP3    H118207   0.849   0.246   5.869  1.2075 -0.4436 -0.9167
 6088TIP3    H218208   0.760   0.160   5.782 -1.0104  0.3217  0.5467
 6089TIP3   OH218209   7.555   3.708   3.241 -0.7390 -0.0225  0.4417
 6089TIP3    H118210   7.583   3.763   3.168 -1.4437  0.5086  0.5757
 6089TIP3    H218211   7.605   3.740   3.316  0.2461 -0.7955  0.1307
 6090TIP3   OH218212   7.832   0.846   5.039 -0.4999  0.5520 -0.4692
 6090TIP3    H118213   7.807   0.934   5.065 -1.7846  0.2682 -0.6965
 6090TIP3    H218214   7.841   0.851   4.943 -1.1349  0.3063 -0.5441
 6091TIP3   OH218215   6.258   2.410   4.973  0.2556 -0.3639  0.1409
 6091TIP3    H118216   6.167   2.413   5.002  0.4388  3.0921  0.5271
 6091TIP3    H218217   6.253   2.415   4.878  0.0672  1.7457  0.2414
 6092TIP3   OH218218   7.058   1.592   3.106  0.1192  0.6244  0.5673
 6092TIP3    H118219   7.030   1.502   3.085 -0.4487  0.8807  0.2101
 6092TIP3    H218220   7.146   1.582   3.142  0.5739  0.0488 -0.6864
 6093TIP3   OH218221   8.158   0.865   2.256 -0.1137  0.4275  0.0407
 6093TIP3    H118222   8.180   0.782   2.299  2.6844 -0.2777 -2.5726
 6093TIP3    H218223   8.222   0.928   2.291  0.2093  0.5749 -0.8155
 6094TIP3   OH218224   6.235   6.373   1.814 -0.7643  0.0425  0.5939
 6094TIP3    H118225   6.236   6.431   1.738  2.7577 -0.5354  0.1261
 6094TIP3    H218226   6.293   6.301   1.790 -2.2094 -1.8440  2.5694
 6095TIP3   OH218227   3.803   7.832   4.143 -0.1597 -0.9041  0.2656
 6095TIP3    H118228   3.811   7.909   4.088 -1.6719 -1.4130 -0.7000
 6095TIP3    H218229   3.733   7.853   4.205  1.3200 -0.4511  1.8143
 6096TIP3   OH218230   0.179   0.691   4.966 -0.5204 -0.6443 -0.4534
 6096TIP3    H118231   0.229   0.676   5.046  1.4366 -0.0719 -1.5402
 6096TIP3    H218232   0.173   0.604   4.926 -0.0910 -0.6598 -0.4913
 6097TIP3   OH218233   5.806   4.302   4.945 -0.2126  0.0341  0.0928
 6097TIP3    H118234   5.882   4.244   4.949 -1.0787 -1.2162 -0.8850
 6097TIP3    H218235   5.798   4.337   5.033  1.0877 -0.3529  0.3822
 6098TIP3   OH218236   7.745   3.830   4.016 -0.3517  0.4678  0.3113
 6098TIP3    H118237   7.655   3.808   4.040 -0.8264  0.9427 -0.9921
 6098TIP3    H218238   7.764   3.911   4.063 -0.7683  0.6289  0.1949
 6099TIP3   OH218239   6.854   1.891   3.014 -0.3260  0.2152 -0.2129
 6099TIP3    H118240   6.903   1.848   2.944 -0.1076 -1.7145  1.0578
 6099TIP3    H218241   6.794   1.823   3.046 -0.3328  1.0155  1.5334
 6100TIP3   OH218242   7.456   0.233   5.768  0.3879 -0.0127 -0.2521
 6100TIP3    H118243   7.477   0.184   5.688 -4.7045 -0.3967 -1.5032
 6100TIP3    H218244   7.413   0.169   5.825 -0.0447  1.3257  0.9592
 6101TIP3   OH218245   6.494   0.894   4.024 -0.2939 -0.1275  0.2422
 6101TIP3    H118246   6.506   0.829   3.954 -0.1681 -0.0340  0.1750
 6101TIP3    H218247   6.483   0.842   4.104  1.8699 -0.2165  0.5144
 6102TIP3   OH218248   6.856   0.391   4.436 -0.1603 -0.1074  0.1330
 6102TIP3    H118249   6.944   0.380   4.402  0.1877  1.5955  0.4527
 6102TIP3    H218250   6.835   0.306   4.476  1.2706 -0.5642 -0.0572
 6103TIP3   OH218251   6.034   0.120   5.853  0.0217 -0.6142  0.4537
 6103TIP3    H118252   6.087   0.172   5.913 -1.8369  2.1500 -0.1938
 6103TIP3    H218253   6.091   0.101   5.779  1.0943 -0.5315  1.2609
 6104TIP3   OH218254   4.999   0.285   6.037  0.0417  0.6556  0.2514
 6104TIP3    H118255   4.961   0.370   6.012 -0.8126  0.0001 -0.7319
 6104TIP3    H218256   4.935   0.247   6.097  0.4564  0.7342  0.7416
 6105TIP3   OH218257   7.360   2.175   4.313 -0.4703 -0.4882  0.2674
 6105TIP3    H118258   7.322   2.126   4.239 -1.2801 -2.0373  1.6730
 6105TIP3    H218259   7.406   2.109   4.364  0.4447  0.6519  0.9299
 6106TIP3   OH218260   5.625   2.063   6.709 -0.2150 -0.2981 -0.0527
 6106TIP3    H118261   5.670   2.100   6.785 -0.6993  0.6778 -0.2375
 6106TIP3    H218262   5.534   2.056   6.736 -0.1757 -1.0968 -0.1225
 6107TIP3   OH218263   6.562   2.619   3.487 -0.7763 -0.1929 -0.1814
 6107TIP3    H118264   6.590   2.692   3.432 -1.0709  1.0395  1.2760
 6107TIP3    H218265   6.628   2.551   3.472  0.1919  0.8254 -0.6010
 6108TIP3   OH218266   6.820   2.044   3.740  0.1454 -0.0704 -0.2495
 6108TIP3    H118267   6.896   2.047   3.682  0.9331 -0.8407  0.7310
 6108TIP3    H218268   6.854   2.010   3.823 -0.6585  2.3513  1.1271
 6109TIP3   OH218269   7.207   1.335   4.657  0.6013 -0.5912  0.1956
 6109TIP3    H118270   7.292   1.350   4.616 -0.3220  1.1964 -1.1829
 6109TIP3    H218271   7.147   1.327   4.583 -1.1289  2.7656  1.1304
 6110TIP3   OH218272   8.390   1.056   4.259  0.5145  0.1872  0.0646
 6110TIP3    H118273   8.408   0.970   4.295 -0.1183  0.4006  0.9069
 6110TIP3    H218274   8.364   1.040   4.168  0.4072 -0.4993  0.2203
 6111TIP3   OH218275   6.445   2.728   3.717  0.2123 -0.2971 -0.1655
 6111TIP3    H118276   6.357   2.700   3.691  0.8842 -3.3386  0.6854
 6111TIP3    H218277   6.502   2.697   3.647  0.6628  1.3959 -0.5629
 6112TIP3   OH218278   6.533   1.976   2.810  0.4102  0.5894 -0.2388
 6112TIP3    H118279   6.592   1.976   2.735  0.2870 -2.1459 -0.3972
 6112TIP3    H218280   6.550   1.892   2.853  0.1455  1.8961  2.5404
 6113TIP3   OH218281   7.387   1.705   2.908 -0.1103 -0.0316  0.2980
 6113TIP3    H118282   7.292   1.715   2.896 -0.4031 -2.6007  0.2029
 6113TIP3    H218283   7.425   1.777   2.857 -1.9793  0.6210 -0.2250
 6114TIP3   OH218284   7.574   0.278   3.990  0.6230 -0.0448  0.1230
 6114TIP3    H118285   7.528   0.244   4.067  1.4154 -2.5460 -0.4670
 6114TIP3    H218286   7.602   0.200   3.942  3.0407  1.4366 -0.9765
 6115TIP3   OH218287   2.623   7.946   5.034 -0.3650 -0.1520  0.2341
 6115TIP3    H118288   2.596   8.034   5.059  0.6339 -0.1173  1.2430
 6115TIP3    H218289   2.546   7.908   4.990 -1.0833  0.9106  0.5711
 6116TIP3   OH218290   8.156   1.594   4.272  0.4079  0.1040 -0.0291
 6116TIP3    H118291   8.133   1.555   4.356 -0.0547 -0.4680 -0.4209
 6116TIP3    H218292   8.123   1.683   4.277  0.5550  0.1305  0.4745
 6117TIP3   OH218293   5.790   3.181   3.592  0.3441  0.7209  0.0214
 6117TIP3    H118294   5.736   3.231   3.654  0.6716  2.4611 -1.0786
 6117TIP3    H218295   5.874   3.226   3.591  1.5973 -1.4754  1.0767
 6118TIP3   OH218296   4.874   1.220   2.517  0.6640 -0.2351 -0.4300
 6118TIP3    H118297   4.816   1.195   2.444 -0.2611  0.8429 -0.0883
 6118TIP3    H218298   4.874   1.316   2.515  0.7111 -0.1972  0.9220
 6119TIP3   OH218299   0.690   1.540   4.117 -0.1992  0.3381 -0.3208
 6119TIP3    H118300   0.779   1.575   4.126  0.3494 -1.2968  0.7524
 6119TIP3    H218301   0.634   1.617   4.114  1.2827  1.3983 -1.3470
 6120TIP3   OH218302   7.051   2.476   4.508  0.2100  0.6384 -0.1649
 6120TIP3    H118303   7.051   2.559   4.554 -0.4486  0.6531 -0.1745
 6120TIP3    H218304   7.094   2.414   4.567  0.1052  0.8391  0.1193
 6121TIP3   OH218305   7.900   2.468   3.843  0.1066 -0.2188  0.2251
 6121TIP3    H118306   7.902   2.428   3.930  1.0277 -0.1388  0.2439
 6121TIP3    H218307   7.912   2.562   3.859 -1.1354 -0.0278  0.1112
 6122TIP3   OH218308   7.422   3.941   4.802  0.5475  0.1884 -0.3441
 6122TIP3    H118309   7.366   3.908   4.732  0.2277  0.9289 -0.4413
 6122TIP3    H218310   7.363   3.993   4.857  0.4606 -1.6499  1.3414
 6123TIP3   OH218311   5.888   7.807   3.471 -0.2315 -0.2448 -0.5884
 6123TIP3    H118312   5.800   7.775   3.449 -0.6881  1.8988 -2.0573
 6123TIP3    H218313   5.929   7.824   3.387  0.8638  0.6684  0.1239
 6124TIP3   OH218314   0.372   0.018   1.988  0.2027 -0.3974 -0.2637
 6124TIP3    H118315   0.414  -0.067   1.985  1.3956  0.2362 -2.0639
 6124TIP3    H218316   0.374   0.050   1.897  0.0973  1.6921  0.4293
 6125TIP3   OH218317   0.846   2.200   5.268  0.4118  1.1520  0.0424
 6125TIP3    H118318   0.930   2.154   5.259  0.1587  0.4286  1.2851
 6125TIP3    H218319   0.800   2.153   5.336 -0.2427  2.7016  0.6998
 6126TIP3   OH218320   0.155   1.759   4.543  0.3433 -0.3271  0.0898
 6126TIP3    H118321   0.071   1.731   4.506  0.9780 -0.6000 -1.1686
 6126TIP3    H218322   0.205   1.791   4.467  1.1962  0.2815  0.9005
 6127TIP3   OH218323   6.953   1.342   4.985  0.0194  0.4727  0.0752
 6127TIP3    H118324   6.976   1.292   5.063  1.0340  0.1006 -0.4518
 6127TIP3    H218325   6.963   1.279   4.913 -3.2505  0.1090 -0.1367
 6128TIP3   OH218326   0.038   0.729   6.356 -0.5176 -0.4798 -0.3197
 6128TIP3    H118327   0.119   0.681   6.335 -0.6648 -0.0228 -1.9770
 6128TIP3    H218328   0.068   0.806   6.404 -0.0178 -0.6121 -0.4110
 6129TIP3   OH218329   8.049   2.480   5.412  0.3065  0.3763 -0.3180
 6129TIP3    H118330   8.090   2.496   5.327 -1.1391 -0.4121 -1.1805
 6129TIP3    H218331   7.961   2.450   5.391  0.0996 -0.3195  1.4519
 6130TIP3   OH218332   1.183   2.668   4.435  0.3379 -0.8194  0.3146
 6130TIP3    H118333   1.241   2.618   4.379  1.3216  1.6369 -0.9415
 6130TIP3    H218334   1.121   2.710   4.375  0.9676  1.2853  1.0823
 6131TIP3   OH218335   7.932   2.201   4.613 -0.1656 -0.4087  0.7859
 6131TIP3    H118336   7.980   2.126   4.648  1.3603  0.0974 -0.2081
 6131TIP3    H218337   7.961   2.208   4.522  1.7599  3.0548  1.6156
 6132TIP3   OH218338   0.208   1.207   4.796  0.1328  0.0096  0.5407
 6132TIP3    H118339   0.217   1.155   4.876 -0.8195 -0.7711  0.1512
 6132TIP3    H218340   0.133   1.264   4.814 -0.2421 -0.3453  0.1107
 6133TIP3   OH218341   0.161   1.798   3.513  0.1188  0.0381 -0.1007
 6133TIP3    H118342   0.235   1.859   3.506 -0.0322  0.1808 -0.4711
 6133TIP3    H218343   0.110   1.814   3.433 -0.9348  0.7571  0.7051
 6134TIP3   OH218344   7.556   0.546   3.989 -0.1044 -0.5636 -0.2919
 6134TIP3    H118345   7.549   0.451   3.985 -1.3603 -0.4539 -1.1608
 6134TIP3    H218346   7.523   0.576   3.904 -0.8771  0.7020  0.4369
 6135TIP3   OH218347   4.939   7.880   4.408  0.4175 -0.2441  0.1045
 6135TIP3    H118348   4.947   7.967   4.367  0.7463 -0.7738 -0.9657
 6135TIP3    H218349   5.029   7.846   4.408  0.5918  0.1348  2.1517
 6136TIP3   OH218350   1.460   2.293   5.275 -0.5218  0.0972  0.2497
 6136TIP3    H118351   1.451   2.204   5.308 -2.1025  0.6560  1.3732
 6136TIP3    H218352   1.516   2.284   5.198  0.4965 -1.6657  1.1630
 6137TIP3   OH218353   4.567   7.093   3.413  0.3318  0.4931  0.3267
 6137TIP3    H118354   4.536   7.033   3.345  1.7432 -0.9967  0.9495
 6137TIP3    H218355   4.488   7.119   3.460 -0.4026 -0.2281 -0.4750
 6138TIP3   OH218356   6.509   7.576   1.250 -0.0242  0.0865 -0.1597
 6138TIP3    H118357   6.521   7.659   1.296  0.9003  0.6501 -1.4274
 6138TIP3    H218358   6.492   7.513   1.321  0.3461  1.1368  0.8849
 6139TIP3   OH218359   7.250   0.732   5.222 -1.0478 -0.0242  0.4207
 6139TIP3    H118360   7.314   0.788   5.178  0.2518 -1.4145  0.5085
 6139TIP3    H218361   7.290   0.712   5.306 -0.2510 -3.2606 -0.6751
 6140TIP3   OH218362   5.729   7.964   4.459  0.2969  0.1023 -0.2794
 6140TIP3    H118363   5.747   8.013   4.379 -1.2043  0.8153 -0.1929
 6140TIP3    H218364   5.815   7.948   4.498  1.0946 -0.8366 -2.3698
 6141TIP3   OH218365   7.442   5.793   4.189  0.6269  0.3091 -0.5789
 6141TIP3    H118366   7.367   5.838   4.226 -0.0697 -0.2806 -1.2654
 6141TIP3    H218367   7.501   5.863   4.161 -0.0315  0.7773 -0.7962
 6142TIP3   OH218368   6.730   2.126   4.737  0.7043 -0.1680  0.0390
 6142TIP3    H118369   6.753   2.048   4.687 -0.4510  0.7431 -1.9525
 6142TIP3    H218370   6.709   2.192   4.671 -0.7396  1.0910  1.7114
 6143TIP3   OH218371   6.023   7.739   5.982  0.1214  0.2516 -0.7664
 6143TIP3    H118372   6.016   7.833   5.966  0.8030  0.4165 -0.1611
 6143TIP3    H218373   5.937   7.704   5.959 -0.2062  1.0555 -0.7957
 6144TIP3   OH218374   4.534   5.277   4.475  0.5202  0.2112  0.4509
 6144TIP3    H118375   4.438   5.276   4.479  0.5524 -0.5960  1.1138
 6144TIP3    H218376   4.562   5.291   4.565  1.0414 -1.2470  0.5283
 6145TIP3   OH218377   8.040   4.164   5.887  0.4596 -0.1550 -0.5371
 6145TIP3    H118378   8.102   4.113   5.939  1.2382  0.6051 -0.7057
 6145TIP3    H218379   8.015   4.237   5.944 -0.0841 -0.3155 -0.5646
 6146TIP3   OH218380   0.767   0.225   2.592 -0.3843 -0.2359 -0.2073
 6146TIP3    H118381   0.785   0.319   2.588  0.8606 -0.4915 -0.9772
 6146TIP3    H218382   0.763   0.197   2.501 -0.6570 -0.9444  0.0197
 6147TIP3   OH218383   6.219   7.876   4.433 -0.1654  0.3187  0.6310
 6147TIP3    H118384   6.265   7.815   4.491 -1.7586  0.5313  2.1477
 6147TIP3    H218385   6.282   7.945   4.415  0.8681 -0.5680  0.8187
 6148TIP3   OH218386   7.703   1.087   5.202  0.2497  0.3270 -0.2126
 6148TIP3    H118387   7.780   1.132   5.166  0.4622 -0.8361 -1.2310
 6148TIP3    H218388   7.722   1.079   5.295  0.3707  2.0198 -0.0699
 6149TIP3   OH218389   5.127   6.720   2.466  0.2885  0.1148 -0.3241
 6149TIP3    H118390   5.114   6.636   2.422  0.1867  1.2987 -2.6645
 6149TIP3    H218391   5.208   6.754   2.430  0.4716  0.9090  0.8031
 6150TIP3   OH218392   1.069   2.499   5.301 -0.4750 -0.4090  0.1004
 6150TIP3    H118393   1.017   2.579   5.294  1.3895  0.7766 -0.8335
 6150TIP3    H218394   1.043   2.460   5.384 -2.3776  0.4580 -0.0531
 6151TIP3   OH218395   8.084   2.264   4.377 -0.6933 -0.6945  0.0417
 6151TIP3    H118396   8.031   2.318   4.319  0.0204 -0.3559 -0.3045
 6151TIP3    H218397   8.174   2.292   4.361 -0.4009 -1.2912  0.5868
 6152TIP3   OH218398   0.718   3.292   5.523  0.4157 -0.0561  0.3610
 6152TIP3    H118399   0.713   3.330   5.611 -0.5331  0.3536  0.1302
 6152TIP3    H218400   0.787   3.343   5.480  1.7135 -1.0436  1.2450
 6153TIP3   OH218401   0.031   3.348   0.978  0.4300 -0.1662 -0.3039
 6153TIP3    H118402  -0.062   3.327   0.970  0.2255 -0.4955  2.4586
 6153TIP3    H218403   0.036   3.442   0.961 -0.7413  0.2673  1.5304
 6154TIP3   OH218404   7.765   0.955   3.332 -0.0783 -0.6818 -0.4163
 6154TIP3    H118405   7.791   0.928   3.244  1.2831 -0.9984  0.0816
 6154TIP3    H218406   7.673   0.930   3.338  0.1612 -1.8237 -1.2990
 6155TIP3   OH218407   7.895   1.434   1.083 -0.0704  0.1658  0.1800
 6155TIP3    H118408   7.958   1.506   1.089  0.1682  0.0045 -0.4303
 6155TIP3    H218409   7.811   1.474   1.107  0.0311  0.6838 -0.3314
 6156TIP3   OH218410   1.292   2.367   3.094  0.0915  0.3061  0.4147
 6156TIP3    H118411   1.373   2.398   3.053 -0.5512  1.7187  0.1692
 6156TIP3    H218412   1.229   2.437   3.077 -1.3565 -1.0813  0.0439
 6157TIP3   OH218413   0.525   3.831   6.249  0.4334 -0.1842  0.2045
 6157TIP3    H118414   0.608   3.856   6.209  0.1725 -0.7330 -0.6713
 6157TIP3    H218415   0.550   3.781   6.327  0.9362  1.0026  0.8243
 6158TIP3   OH218416   8.238   2.402   6.549  0.6645  0.0477  0.5078
 6158TIP3    H118417   8.318   2.350   6.548  0.3676 -0.4063 -0.1934
 6158TIP3    H218418   8.236   2.445   6.464 -0.2312 -0.5586  0.2084
 6159TIP3   OH218419   0.583   0.961   4.151  0.4773  0.0758  0.0174
 6159TIP3    H118420   0.512   0.997   4.204  0.9253  0.8797  0.0716
 6159TIP3    H218421   0.580   1.009   4.069 -0.2894 -1.2552 -0.7406
 6160TIP3   OH218422   1.378   2.741   6.401  0.6672  0.2012  0.1328
 6160TIP3    H118423   1.379   2.649   6.375 -0.0891 -0.3461  1.9252
 6160TIP3    H218424   1.288   2.757   6.430  0.7039  1.6090 -0.4918
 6161TIP3   OH218425   8.186   1.450   5.176 -0.2388  0.2650 -0.8544
 6161TIP3    H118426   8.268   1.499   5.181 -1.7986  2.9689 -0.3328
 6161TIP3    H218427   8.140   1.488   5.101 -2.1165  0.6195  0.4413
 6162TIP3   OH218428   6.861   0.599   6.802  0.1264  0.2792  0.0869
 6162TIP3    H118429   6.956   0.599   6.813  0.1673 -0.7145 -0.2234
 6162TIP3    H218430   6.847   0.579   6.710 -0.3832  0.4151  0.1325
 6163TIP3   OH218431   3.439   3.366   5.492  0.0557  0.1167  0.4139
 6163TIP3    H118432   3.451   3.410   5.576  0.9320 -0.1279  0.4188
 6163TIP3    H218433   3.344   3.351   5.486 -0.2603  1.9282  0.4455
 6164TIP3   OH218434   2.284   0.042   4.458  0.1565  0.3614 -0.5553
 6164TIP3    H118435   2.217   0.103   4.427 -1.0099 -0.9223 -0.6200
 6164TIP3    H218436   2.359   0.057   4.401 -0.8539  0.2699 -1.9415
 6165TIP3   OH218437   0.708   1.359   5.158 -0.6578 -0.3107  0.1065
 6165TIP3    H118438   0.655   1.382   5.082  0.1666 -0.3651 -0.4881
 6165TIP3    H218439   0.718   1.264   5.153 -0.4493 -0.2930  0.1853
 6166TIP3   OH218440   8.460   2.263   4.812 -0.1203  0.6004 -0.1904
 6166TIP3    H118441   8.364   2.259   4.817 -0.0149 -0.6084  1.4467
 6166TIP3    H218442   8.482   2.210   4.735 -0.6062 -2.6017  1.7600
 6167TIP3   OH218443   1.862   3.986   4.810 -0.1441 -0.3386  0.0637
 6167TIP3    H118444   1.836   3.907   4.763 -0.0912 -0.4705  0.2559
 6167TIP3    H218445   1.786   4.008   4.864  0.2468 -0.8994  0.8589
 6168TIP3   OH218446   1.805   0.746   4.701  0.0865  0.1815  0.0705
 6168TIP3    H118447   1.846   0.692   4.633  1.0350 -0.2984  1.0031
 6168TIP3    H218448   1.801   0.689   4.778 -1.1260  0.6616  0.3824
 6169TIP3   OH218449   6.356   4.363   4.379 -0.1253 -0.7984  0.2445
 6169TIP3    H118450   6.331   4.357   4.471  0.9274 -1.0478  0.5208
 6169TIP3    H218451   6.323   4.448   4.350  1.0225  0.0185  1.3139
 6170TIP3   OH218452   1.678   3.515   5.933  0.2501 -0.0117  0.5227
 6170TIP3    H118453   1.608   3.480   5.987 -0.2695 -0.7022 -0.5824
 6170TIP3    H218454   1.654   3.607   5.921 -0.1978 -0.1166  0.5806
 6171TIP3   OH218455   7.730   2.111   3.883  0.0372  0.0690  0.8668
 6171TIP3    H118456   7.810   2.130   3.834 -1.0263  1.0790 -0.5019
 6171TIP3    H218457   7.660   2.153   3.832 -1.5716 -2.1953  1.1326
 6172TIP3   OH218458   1.751   2.408   4.835  0.2397 -0.2739  0.6341
 6172TIP3    H118459   1.658   2.429   4.822  0.0606 -2.0887 -1.3235
 6172TIP3    H218460   1.798   2.479   4.792 -0.2050  1.3195  2.7193
 6173TIP3   OH218461   0.713   3.957   5.538 -0.6495  0.5313 -0.0134
 6173TIP3    H118462   0.783   3.905   5.577 -0.1551  1.8458  0.9132
 6173TIP3    H218463   0.633   3.927   5.582 -0.1520  1.6789  1.7347
 6174TIP3   OH218464   3.681   2.515   4.147  0.2071  0.0512 -0.2363
 6174TIP3    H118465   3.607   2.568   4.176  1.4470  1.2586  0.8203
 6174TIP3    H218466   3.706   2.551   4.062  0.2178  0.3043 -0.1244
 6175TIP3   OH218467   1.100   3.258   3.577 -0.5565  0.1732  0.5537
 6175TIP3    H118468   1.170   3.311   3.616  0.0071 -1.1592  1.4208
 6175TIP3    H218469   1.026   3.269   3.637 -0.6424  0.5052  0.3828
 6176TIP3   OH218470   0.620   3.906   5.118 -0.9608 -0.9154 -0.3994
 6176TIP3    H118471   0.602   3.813   5.101 -0.0313 -0.7471 -2.3735
 6176TIP3    H218472   0.566   3.953   5.054  0.6714 -0.1908 -1.2710
 6177TIP3   OH218473   0.967   3.141   4.774 -0.1811  0.5467  0.2685
 6177TIP3    H118474   1.018   3.221   4.787  0.1833  0.3658 -0.0415
 6177TIP3    H218475   0.877   3.168   4.791 -0.0562  1.0093  0.2253
 6178TIP3   OH218476   3.464   3.037   5.080 -0.1709  0.1112  0.0803
 6178TIP3    H118477   3.434   3.111   5.132 -0.2729  0.1492 -0.0315
 6178TIP3    H218478   3.424   2.960   5.122  0.1200  0.0995  0.3302
 6179TIP3   OH218479   3.783   1.401   5.570 -0.2386 -0.1555 -0.8774
 6179TIP3    H118480   3.773   1.327   5.510 -0.6615 -0.7223 -0.1222
 6179TIP3    H218481   3.697   1.412   5.610  0.3935 -0.7538  0.7158
 6180TIP3   OH218482   1.444   0.243   6.827  0.1386 -0.1178 -0.5476
 6180TIP3    H118483   1.400   0.183   6.767  1.6771  0.1752 -2.0290
 6180TIP3    H218484   1.387   0.320   6.830  0.6832  0.4164 -2.7479
 6181TIP3   OH218485   2.015   1.988   5.088  0.3198 -0.0155  0.3963
 6181TIP3    H118486   2.098   1.956   5.122 -0.1618 -2.1049 -0.3123
 6181TIP3    H218487   2.036   2.024   5.002  0.4832 -0.6344  0.1734
 6182TIP3   OH218488   1.238   3.995   5.204  0.2443  0.4218 -0.5879
 6182TIP3    H118489   1.264   3.961   5.290 -1.1386  1.1043  0.1032
 6182TIP3    H218490   1.143   3.999   5.208  0.2851  2.4923 -1.3901
 6183TIP3   OH218491   1.644   3.988   4.993  0.3613 -0.0568 -0.8229
 6183TIP3    H118492   1.571   4.048   5.009  0.5771  0.0897 -0.3678
 6183TIP3    H218493   1.604   3.901   4.996  0.6198 -0.1307  2.0823
 6184TIP3   OH218494   0.641   3.621   5.137  0.2402  0.0739  0.2195
 6184TIP3    H118495   0.555   3.590   5.108 -0.2107  0.9799  0.5747
 6184TIP3    H218496   0.641   3.606   5.232 -0.1834  1.6130  0.4755
 6185TIP3   OH218497   2.785   2.573   4.844 -0.3454 -0.2753 -0.0155
 6185TIP3    H118498   2.870   2.590   4.802  0.0577  0.4101  1.0465
 6185TIP3    H218499   2.784   2.478   4.857  0.6768 -0.1866  0.8079
 6186TIP3   OH218500   2.304   2.338   3.419 -0.1322 -0.2894 -0.4421
 6186TIP3    H118501   2.338   2.391   3.347 -1.9233  0.3342 -0.8447
 6186TIP3    H218502   2.343   2.251   3.406 -1.2037 -0.4478 -2.7454
 6187TIP3   OH218503   2.123   2.215   4.859  0.2394  0.0176  0.4760
 6187TIP3    H118504   2.043   2.172   4.829 -0.8594  1.4900  1.2323
 6187TIP3    H218505   2.136   2.287   4.797 -0.5157  1.3974  1.8983
 6188TIP3   OH218506   8.488   1.663   4.345 -0.3764 -0.4955  0.2184
 6188TIP3    H118507   8.486   1.738   4.286  0.9797  0.4438  1.3242
 6188TIP3    H218508   8.429   1.600   4.305  1.0510 -0.1975 -2.5640
 6189TIP3   OH218509   0.167   0.424   5.541  0.0725  0.6543 -0.4335
 6189TIP3    H118510   0.163   0.411   5.636  0.5137 -0.3663 -0.5495
 6189TIP3    H218511   0.156   0.518   5.530 -1.1619  0.6506  0.5594
 6190TIP3   OH218512   1.703   3.727   4.438 -0.2457  0.0339 -0.2904
 6190TIP3    H118513   1.650   3.648   4.427  0.2382 -0.7599  2.5400
 6190TIP3    H218514   1.656   3.795   4.390 -0.9257 -1.8689 -2.3612
 6191TIP3   OH218515   7.272   3.172   5.407  0.0336 -0.3093  0.0556
 6191TIP3    H118516   7.310   3.085   5.415 -0.1305 -0.3785  0.0789
 6191TIP3    H218517   7.188   3.166   5.451  0.5289  0.1747  1.0726
 6192TIP3   OH218518   7.888   1.010   5.679 -0.1896 -0.2131 -0.4116
 6192TIP3    H118519   7.816   0.984   5.736 -0.7749  0.6969 -0.7212
 6192TIP3    H218520   7.888   1.106   5.683 -0.3681 -0.1330 -2.0965
 6193TIP3   OH218521   3.059   1.079   4.175 -0.8792 -0.4995  0.4530
 6193TIP3    H118522   3.069   1.173   4.162  0.5208 -0.4673  1.6813
 6193TIP3    H218523   3.148   1.045   4.176 -1.4212 -2.1225 -1.8692
 6194TIP3   OH218524   8.463   1.162   5.567  0.2915 -0.7398  0.0660
 6194TIP3    H118525   8.462   1.088   5.627  0.7319 -0.2084  0.7381
 6194TIP3    H218526   8.492   1.125   5.483 -1.7116 -1.7668 -0.2199
 6195TIP3   OH218527   1.876   6.422   0.081 -0.0740 -0.2673 -0.0918
 6195TIP3    H118528   1.961   6.465   0.071 -0.3216  0.1261 -0.5459
 6195TIP3    H218529   1.880   6.379   0.167  0.9903 -1.2065 -0.6071
 6196TIP3   OH218530   1.139   1.904   4.243  0.1300  0.4495 -0.4172
 6196TIP3    H118531   1.109   1.938   4.159  1.8080 -2.3029 -2.2241
 6196TIP3    H218532   1.234   1.911   4.239  0.2173  0.2375  1.2192
 6197TIP3   OH218533   2.691   1.089   5.260  0.3568 -0.2234 -0.2320
 6197TIP3    H118534   2.697   1.148   5.336  2.2223 -1.7532  0.8297
 6197TIP3    H218535   2.664   1.005   5.297  2.1307 -1.2017 -1.1557
 6198TIP3   OH218536   0.917   2.700   4.599  0.0728  0.1971  0.2579
 6198TIP3    H118537   0.906   2.680   4.506 -0.4554 -2.2955  0.8340
 6198TIP3    H218538   0.973   2.778   4.600 -0.3574  0.5730 -2.1515
 6199TIP3   OH218539   2.254   2.189   5.777  0.8340  0.8202 -0.5085
 6199TIP3    H118540   2.229   2.127   5.709 -0.1287  0.1199  0.4758
 6199TIP3    H218541   2.184   2.183   5.842  1.6555  1.6101  0.4610
 6200TIP3   OH218542   8.296   2.830   5.899 -0.2165 -0.3130 -0.0382
 6200TIP3    H118543   8.270   2.740   5.878 -0.2307 -0.3194  0.0081
 6200TIP3    H218544   8.345   2.859   5.822  0.4542 -0.6267  0.2638
 6201TIP3   OH218545   1.478   4.243   5.336 -0.3039  0.1765 -0.0843
 6201TIP3    H118546   1.389   4.273   5.353 -1.2266 -0.9862 -2.6018
 6201TIP3    H218547   1.479   4.152   5.365  0.5977  0.6798  1.5389
 6202TIP3   OH218548   1.289   3.872   5.433 -0.1207  0.4715 -0.3301
 6202TIP3    H118549   1.229   3.897   5.504  0.0635 -2.4747  0.9367
 6202TIP3    H218550   1.376   3.889   5.468 -0.0954  2.4008 -1.2465
 6203TIP3   OH218551   1.717   2.880   4.350 -0.4328  0.0572  0.2616
 6203TIP3    H118552   1.705   2.948   4.416 -1.1208 -0.5993  0.8264
 6203TIP3    H218553   1.667   2.805   4.384 -1.5341  0.0123 -1.4300
 6204TIP3   OH218554   0.955   3.632   5.130 -0.4902  0.5594  0.0884
 6204TIP3    H118555   0.948   3.539   5.108  1.1901  0.3160  0.4620
 6204TIP3    H218556   0.890   3.675   5.075  0.2140 -0.6038 -1.7106
 6205TIP3   OH218557   0.524   3.260   5.344 -0.1311  0.3923 -0.6624
 6205TIP3    H118558   0.583   3.260   5.419  0.3151  0.3552 -1.0123
 6205TIP3    H218559   0.579   3.233   5.270 -0.9193 -1.0491 -0.7310
 6206TIP3   OH218560   0.028   3.269   4.319  0.5472  0.6172 -0.0110
 6206TIP3    H118561   0.021   3.214   4.397  1.7306 -1.5512 -1.3800
 6206TIP3    H218562   0.089   3.338   4.344 -1.6861  1.9356  2.0418
 6207TIP3   OH218563   2.461   1.594   5.865 -0.1884  0.4502  0.4666
 6207TIP3    H118564   2.480   1.502   5.847 -0.1607  0.5804 -0.1922
 6207TIP3    H218565   2.472   1.603   5.960  1.9272  0.2616  0.2675
 6208TIP3   OH218566   0.838   2.748   4.864  0.0342  0.3124 -0.0658
 6208TIP3    H118567   0.872   2.719   4.780  0.2273  0.7183 -0.1281
 6208TIP3    H218568   0.770   2.812   4.843  1.0892  1.5197  0.1018
 6209TIP3   OH218569   7.736   2.843   5.585  0.6193 -0.3418 -0.2731
 6209TIP3    H118570   7.767   2.929   5.556 -0.1859  0.1361  0.2758
 6209TIP3    H218571   7.698   2.859   5.671 -1.1210 -0.9236 -0.9070
 6210TIP3   OH218572   5.747   4.696   0.338  0.6066  0.1271 -0.2825
 6210TIP3    H118573   5.785   4.619   0.381  1.3728  0.1427 -0.9292
 6210TIP3    H218574   5.656   4.698   0.370  1.1213  0.0836  1.2588
 6211TIP3   OH218575   1.976   1.887   5.634  0.6676  0.0121  0.2347
 6211TIP3    H118576   2.057   1.841   5.613 -0.1175 -1.3691  0.1593
 6211TIP3    H218577   1.926   1.887   5.552  0.1137 -0.1626  0.5653
 6212TIP3   OH218578   1.438   2.166   4.556  0.1394  0.0371  0.5455
 6212TIP3    H118579   1.391   2.137   4.634  0.7582  0.4141  1.0628
 6212TIP3    H218580   1.522   2.119   4.561  0.0882 -0.1101 -0.0092
 6213TIP3   OH218581   1.403   2.261   5.811  0.0014  0.1373  0.0259
 6213TIP3    H118582   1.398   2.352   5.781  1.3131  0.3536  0.4291
 6213TIP3    H218583   1.468   2.262   5.881  0.0126 -1.1069  0.0506
 6214TIP3   OH218584   2.366   0.862   4.887 -0.2375 -0.0446 -0.3336
 6214TIP3    H118585   2.457   0.869   4.860  0.0728  0.2014  0.7397
 6214TIP3    H218586   2.370   0.850   4.982 -1.3023 -0.6002 -0.3460
 6215TIP3   OH218587   5.374   2.502   4.138  1.2966  0.5865 -0.4082
 6215TIP3    H118588   5.298   2.445   4.153  0.3681  1.8547 -0.1805
 6215TIP3    H218589   5.444   2.463   4.191  1.1390 -1.2339 -1.5013
 6216TIP3   OH218590   3.738   2.128   6.264 -0.4972  0.3910 -0.1996
 6216TIP3    H118591   3.797   2.147   6.337  0.1702  0.3881 -0.7415
 6216TIP3    H218592   3.743   2.205   6.208 -1.7584  0.8134  0.2427
 6217TIP3   OH218593   0.965   3.133   6.451 -0.3523 -0.1357 -0.3883
 6217TIP3    H118594   0.897   3.086   6.402 -1.1990  0.6734  0.0010
 6217TIP3    H218595   0.941   3.121   6.543  1.1128 -1.4597 -0.1481
 6218TIP3   OH218596   1.938   2.018   4.801 -0.4337 -0.0782 -0.4923
 6218TIP3    H118597   1.956   1.932   4.763  1.6609  0.6006 -1.1033
 6218TIP3    H218598   1.897   1.999   4.886 -1.8330 -1.6393 -1.4989
 6219TIP3   OH218599   4.026   6.364   0.191 -0.1855  0.1446 -0.3434
 6219TIP3    H118600   3.972   6.347   0.268  1.0984 -0.2911  0.4634
 6219TIP3    H218601   4.029   6.280   0.145 -0.5372  0.2755 -0.6067
 6220TIP3   OH218602   1.976   0.527   4.896  0.4710 -0.0844  0.0930
 6220TIP3    H118603   1.966   0.444   4.943  1.3258 -1.1790 -1.5831
 6220TIP3    H218604   2.070   0.543   4.896  0.2911  0.9840  0.5490
 6221TIP3   OH218605   1.896   2.670   6.361 -0.1789  0.3945 -0.9478
 6221TIP3    H118606   1.861   2.581   6.355 -0.7535  0.2614  2.9975
 6221TIP3    H218607   1.988   2.661   6.336  0.1347 -1.6046  0.7907
 6222TIP3   OH218608   1.130   1.628   5.494 -0.4066 -0.0904  0.0130
 6222TIP3    H118609   1.049   1.666   5.528 -0.2641  0.2419 -0.0162
 6222TIP3    H218610   1.106   1.596   5.407 -0.5391 -0.1075  0.0546
 6223TIP3   OH218611   1.370   1.128   5.559 -0.2451  0.1861 -0.3878
 6223TIP3    H118612   1.464   1.114   5.548 -0.4306 -1.7509  0.4082
 6223TIP3    H218613   1.361   1.223   5.564  1.6992  0.3805 -0.2301
 6224TIP3   OH218614   0.546   0.289   4.824  0.1750 -0.3808 -0.6403
 6224TIP3    H118615   0.522   0.379   4.803  2.4598 -0.0493 -2.0482
 6224TIP3    H218616   0.636   0.295   4.856  0.0298 -2.0629  0.1362
 6225TIP3   OH218617   1.737   1.359   5.406  0.1457  0.7176 -0.5730
 6225TIP3    H118618   1.754   1.290   5.342 -0.7513  0.2743 -0.3406
 6225TIP3    H218619   1.647   1.386   5.390 -0.0774  0.6307  0.4656
 6226TIP3   OH218620   1.485   3.455   6.110  0.1057 -0.4590  0.5690
 6226TIP3    H118621   1.528   3.393   6.169 -1.1051 -1.3019  0.5795
 6226TIP3    H218622   1.391   3.436   6.119 -0.2253  0.8183 -0.0540
 6227TIP3   OH218623   7.954   1.387   6.201  0.1358 -0.2825 -0.3144
 6227TIP3    H118624   8.010   1.403   6.125 -0.0255  0.3317 -0.3043
 6227TIP3    H218625   7.884   1.452   6.193 -0.8952 -1.4127 -0.6404
 6228TIP3   OH218626   0.952   2.760   6.065 -0.4764 -0.0848  0.2409
 6228TIP3    H118627   0.919   2.777   5.977  1.4123  0.9791 -0.2840
 6228TIP3    H218628   1.047   2.763   6.057 -0.2614 -0.6428  2.1856
 6229TIP3   OH218629   8.307   2.690   5.125  0.4975  0.4902  0.3258
 6229TIP3    H118630   8.394   2.696   5.165  0.2417 -0.3974  1.0152
 6229TIP3    H218631   8.322   2.649   5.040  0.9432  1.6872 -0.1853
 6230TIP3   OH218632   2.830   1.417   5.054  0.3086 -0.1181 -0.1121
 6230TIP3    H118633   2.830   1.329   5.015 -0.0227  0.4232 -1.3703
 6230TIP3    H218634   2.889   1.467   4.998  1.8862  0.0271  1.6461
 6231TIP3   OH218635   3.403   5.916   0.851  0.5321  0.2632 -0.1471
 6231TIP3    H118636   3.322   5.966   0.861  1.5388  1.6315  1.4229
 6231TIP3    H218637   3.384   5.831   0.892 -0.5872 -0.0353 -1.2135
 6232TIP3   OH218638   8.251   0.676   6.291  0.3745 -0.1343  0.0122
 6232TIP3    H118639   8.332   0.715   6.323  0.5420 -1.0075  0.6847
 6232TIP3    H218640   8.210   0.638   6.369 -0.0199 -0.8620 -0.5389
 6233TIP3   OH218641   2.609   5.087   5.667 -0.3063  0.0077 -0.0219
 6233TIP3    H118642   2.596   5.081   5.572 -1.4147  2.0462 -0.0297
 6233TIP3    H218643   2.524   5.063   5.704 -0.0629 -0.1292  0.4490
 6234TIP3   OH218644   2.195   1.623   5.794  0.1141 -0.2773  0.1385
 6234TIP3    H118645   2.286   1.600   5.807 -0.1947 -0.5781  1.8473
 6234TIP3    H218646   2.160   1.636   5.882 -0.8415  2.3641 -0.5816
 6235TIP3   OH218647   3.428   5.377   0.995 -0.0036  0.0337  0.4869
 6235TIP3    H118648   3.395   5.373   0.906  0.7270  1.7073  0.1178
 6235TIP3    H218649   3.518   5.343   0.989 -0.7040 -1.9548  0.9989
 6236TIP3   OH218650   2.166   0.057   2.087  0.3665 -0.4184 -0.2428
 6236TIP3    H118651   2.188   0.101   2.005  0.7174 -2.4047 -1.2476
 6236TIP3    H218652   2.122  -0.023   2.060  1.1220 -1.4508  1.4802
 6237TIP3   OH218653   8.420   0.151   5.190  0.6348  0.4367 -0.2208
 6237TIP3    H118654   8.422   0.190   5.277  2.4315  1.4868 -0.7174
 6237TIP3    H218655   8.512   0.140   5.166  0.1595 -0.3639 -1.7641
 6238TIP3   OH218656   2.321   4.245   5.773  0.1732  0.1595  0.0325
 6238TIP3    H118657   2.294   4.159   5.739  0.0299 -0.1999  1.0525
 6238TIP3    H218658   2.253   4.268   5.836  0.3987  0.8708  0.0186
 6239TIP3   OH218659   2.142   1.822   4.278  0.1524 -0.1019 -0.5145
 6239TIP3    H118660   2.106   1.835   4.190  0.4108  1.2990 -0.4209
 6239TIP3    H218661   2.094   1.746   4.312  0.0736 -0.6779 -1.8687
 6240TIP3   OH218662   0.210   1.030   5.696 -0.1295  0.0168  0.0794
 6240TIP3    H118663   0.149   1.019   5.769  0.3228 -1.2672  0.2932
 6240TIP3    H218664   0.220   0.941   5.661  0.6347  0.4261 -0.7479
 6241TIP3   OH218665   0.676   4.373   5.230 -0.2327 -0.3324 -0.1213
 6241TIP3    H118666   0.622   4.300   5.259  0.6645 -0.5342  1.0696
 6241TIP3    H218667   0.745   4.333   5.177  0.1174 -0.3288  0.3293
 6242TIP3   OH218668   1.287   1.927   5.166 -0.1783  0.1416 -0.0837
 6242TIP3    H118669   1.339   1.923   5.247  0.0996  0.7816 -0.2296
 6242TIP3    H218670   1.303   1.842   5.124  0.4325  0.1718  0.0758
 6243TIP3   OH218671   0.492   4.784   3.860 -0.1161 -0.2767 -0.1525
 6243TIP3    H118672   0.500   4.879   3.868  3.5615 -0.5931  0.4470
 6243TIP3    H218673   0.416   4.762   3.915 -0.1325  2.1483  0.8618
 6244TIP3   OH218674   1.470   3.123   3.593 -0.0316 -0.6348  0.2307
 6244TIP3    H118675   1.411   3.067   3.643 -0.7518 -0.8065 -0.7872
 6244TIP3    H218676   1.428   3.131   3.507  0.6158  0.5745  0.0190
 6245TIP3   OH218677   1.439   4.185   4.751 -0.5729  0.1216  0.2375
 6245TIP3    H118678   1.348   4.158   4.740 -0.7127  0.0954  1.3456
 6245TIP3    H218679   1.454   4.178   4.845  0.0889  1.6868  0.2592
 6246TIP3   OH218680   1.818   4.043   5.458 -0.7640  0.1239 -0.2604
 6246TIP3    H118681   1.847   4.058   5.368  0.7592 -1.1635 -0.0089
 6246TIP3    H218682   1.840   4.123   5.504 -0.0486  0.1777 -0.6855
 6247TIP3   OH218683   2.825   0.592   5.953 -0.2717  0.5736 -0.0679
 6247TIP3    H118684   2.790   0.519   5.902 -0.6795  0.0739  0.9260
 6247TIP3    H218685   2.898   0.555   6.002 -0.9770  0.6244  1.0539
 6248TIP3   OH218686   1.751   4.792   3.763 -0.6894 -0.0940 -0.0749
 6248TIP3    H118687   1.830   4.811   3.711  0.2815 -0.7997  1.1132
 6248TIP3    H218688   1.781   4.795   3.854 -1.0376 -4.5545  0.3132
 6249TIP3   OH218689   7.191   2.831   5.982 -0.0314  0.7038 -0.1554
 6249TIP3    H118690   7.145   2.787   5.911  0.3269  0.7168 -0.3981
 6249TIP3    H218691   7.127   2.890   6.020 -0.8348 -0.7608  0.8268
 6250TIP3   OH218692   8.389   2.796   4.357  0.5456  0.4827 -0.2662
 6250TIP3    H118693   8.320   2.813   4.421 -0.8458 -0.8069 -1.4077
 6250TIP3    H218694   8.470   2.794   4.409 -0.3675  1.1044  1.2034
 6251TIP3   OH218695   2.462   3.412   5.849 -0.0319 -0.0503 -0.3255
 6251TIP3    H118696   2.404   3.398   5.774  0.9204 -2.3960 -0.6997
 6251TIP3    H218697   2.404   3.416   5.925 -0.9681  1.8610 -1.1143
 6252TIP3   OH218698   2.879   3.259   4.631 -0.2070  0.0817 -0.2999
 6252TIP3    H118699   2.940   3.306   4.575  0.6230 -2.1799 -1.3424
 6252TIP3    H218700   2.831   3.328   4.677  0.8880  1.9361 -1.8570
 6253TIP3   OH218701   7.796   1.637   5.690 -0.4192  0.1950 -0.2037
 6253TIP3    H118702   7.780   1.700   5.760 -0.3649  0.6570 -0.6068
 6253TIP3    H218703   7.734   1.565   5.707  0.0181  0.0201  0.6675
 6254TIP3   OH218704   3.284   2.238   3.005  0.3124 -0.5464  0.1306
 6254TIP3    H118705   3.224   2.260   2.934 -0.4202  1.9624  1.4755
 6254TIP3    H218706   3.243   2.165   3.050 -0.3529 -0.6486 -0.6409
 6255TIP3   OH218707   1.033   2.417   6.140 -0.2101 -0.3208 -0.3051
 6255TIP3    H118708   1.112   2.456   6.103  0.1171 -1.5437 -0.9207
 6255TIP3    H218709   0.963   2.446   6.081  0.2834 -2.0984 -1.8111
 6256TIP3   OH218710   0.952   3.426   5.455 -0.0343  0.2127 -0.5551
 6256TIP3    H118711   0.992   3.437   5.369  1.0675  1.2063  0.0767
 6256TIP3    H218712   0.947   3.514   5.491 -2.1717  0.0326 -0.3234
 6257TIP3   OH218713   1.533   1.979   4.899  0.3110  0.1697  0.2147
 6257TIP3    H118714   1.556   1.977   4.806  0.5378  0.4088  0.2647
 6257TIP3    H218715   1.603   1.930   4.942  1.4672  2.0336  0.5159
 6258TIP3   OH218716   0.158   2.598   4.217 -0.4674 -0.0698 -0.0455
 6258TIP3    H118717   0.186   2.572   4.129 -0.5461  0.8931 -0.3553
 6258TIP3    H218718   0.168   2.518   4.269 -1.6973 -1.0172 -1.2280
 6259TIP3   OH218719   8.481   0.372   5.983  0.3397 -0.3639  0.4670
 6259TIP3    H118720   8.473   0.318   6.062 -1.0232  0.6465  1.0590
 6259TIP3    H218721   8.443   0.457   6.009 -1.1885 -0.3765 -1.6134
 6260TIP3   OH218722   1.706   0.192   5.349  0.1710 -0.1269 -0.3012
 6260TIP3    H118723   1.791   0.193   5.306  0.0487  1.4202 -0.5216
 6260TIP3    H218724   1.726   0.204   5.442  0.1638  0.7030 -0.4063
 6261TIP3   OH218725   0.382   1.965   3.529 -0.6661  0.1622 -0.4192
 6261TIP3    H118726   0.440   1.962   3.452  1.8380  3.2055  1.2161
 6261TIP3    H218727   0.350   2.055   3.531  0.8435  0.6933  3.0999
 6262TIP3   OH218728   0.420   4.096   5.720  0.1958  0.3419  0.0991
 6262TIP3    H118729   0.473   4.026   5.682 -0.3570 -0.4480  0.7625
 6262TIP3    H218730   0.468   4.176   5.701  1.1227 -0.2743 -0.1629
 6263TIP3   OH218731   0.341   3.216   4.235  0.1502 -0.0568 -0.1207
 6263TIP3    H118732   0.408   3.283   4.228 -0.1986  0.1986 -1.0583
 6263TIP3    H218733   0.283   3.247   4.306  1.8558 -1.0443  1.7683
 6264TIP3   OH218734   2.615   0.343   5.689 -0.0821 -0.4877 -0.1568
 6264TIP3    H118735   2.640   0.258   5.653  0.0515 -0.5467  0.0785
 6264TIP3    H218736   2.534   0.327   5.737  0.8076 -0.8007  1.2565
 6265TIP3   OH218737   0.596   1.989   4.691 -0.7285  0.0445  0.6744
 6265TIP3    H118738   0.563   1.902   4.670  0.1321 -0.1513  0.0979
 6265TIP3    H218739   0.641   1.978   4.775  2.5498 -0.9002 -1.1328
 6266TIP3   OH218740   1.296   3.598   5.382  0.0154  0.1491 -0.3238
 6266TIP3    H118741   1.312   3.684   5.422  3.0060 -0.5833  0.1904
 6266TIP3    H218742   1.333   3.605   5.294 -3.8896  0.8025 -2.0050
 6267TIP3   OH218743   1.095   2.274   6.365 -0.6205 -0.4026  0.0034
 6267TIP3    H118744   1.063   2.316   6.285 -0.4531  1.0039  0.6535
 6267TIP3    H218745   1.175   2.321   6.386 -0.9798 -0.3721  1.3298
 6268TIP3   OH218746   1.739   0.602   5.966 -0.2092 -0.4215 -0.1400
 6268TIP3    H118747   1.652   0.570   5.942  0.5408 -1.6969 -1.2115
 6268TIP3    H218748   1.780   0.627   5.884  2.0387 -3.9765 -0.2087
 6269TIP3   OH218749   1.911   1.990   4.324  0.3057 -0.6420 -0.4331
 6269TIP3    H118750   1.965   1.914   4.344  0.8604 -1.0045 -3.0606
 6269TIP3    H218751   1.971   2.064   4.325 -0.1286 -0.2794  1.5539
 6270TIP3   OH218752   7.967   1.058   5.319 -0.3744  0.2600  0.1028
 6270TIP3    H118753   7.990   1.064   5.226  3.5198 -0.6470  0.9060
 6270TIP3    H218754   7.966   1.149   5.349  1.3139  0.3987 -0.2105
 6271TIP3   OH218755   2.832   0.716   1.882 -0.0942 -0.2357  0.0205
 6271TIP3    H118756   2.796   0.656   1.816  0.0462 -0.6102  0.2845
 6271TIP3    H218757   2.779   0.796   1.873 -1.5903 -1.1086  1.0360
 6272TIP3   OH218758   1.000   3.200   5.594 -0.1004 -0.2978 -0.2882
 6272TIP3    H118759   1.010   3.231   5.684 -3.5473  1.7232 -0.4836
 6272TIP3    H218760   1.009   3.280   5.541 -3.1778 -0.5356 -1.2791
 6273TIP3   OH218761   7.556   0.569   5.691 -0.0980 -0.0004  0.0993
 6273TIP3    H118762   7.555   0.604   5.780  1.2747 -1.4877  0.7250
 6273TIP3    H218763   7.529   0.643   5.636  0.9922  1.5100  1.5365
 6274TIP3   OH218764   0.372   3.566   5.099 -0.3490  0.5992 -0.3147
 6274TIP3    H118765   0.305   3.522   5.151  1.2808 -1.3413  0.2087
 6274TIP3    H218766   0.380   3.513   5.019 -0.0967  1.3523 -0.8003
 6275TIP3   OH218767   8.371   2.892   6.163 -0.1796  0.4696  0.3363
 6275TIP3    H118768   8.353   2.808   6.206 -1.0370  0.8401  0.7113
 6275TIP3    H218769   8.346   2.878   6.072 -0.1051  0.2522  0.3485
 6276TIP3   OH218770   1.334   3.617   4.043 -0.6980  0.1207 -0.7513
 6276TIP3    H118771   1.329   3.648   4.133  0.2577 -1.1063 -0.2666
 6276TIP3    H218772   1.425   3.631   4.017 -0.8184 -0.1221 -1.3192
 6277TIP3   OH218773   8.234   2.544   6.326  0.4007 -0.4653 -0.2776
 6277TIP3    H118774   8.154   2.510   6.286  0.7842 -0.3424 -1.1789
 6277TIP3    H218775   8.300   2.535   6.257  1.9013 -3.4162  1.4536
 6278TIP3   OH218776   1.461   1.788   3.075  0.0251  0.4486  0.0481
 6278TIP3    H118777   1.540   1.801   3.023  0.1945  0.3218  0.2703
 6278TIP3    H218778   1.483   1.824   3.161 -0.1579  0.4078  0.1132
 6279TIP3   OH218779   3.351   5.432   0.176 -0.0395  0.0367 -0.1454
 6279TIP3    H118780   3.259   5.426   0.152 -0.7469  0.8539  2.2173
 6279TIP3    H218781   3.384   5.507   0.126 -0.6615 -0.2698 -1.0084
 6280TIP3   OH218782   0.604   1.733   4.993  0.5204 -0.4278  0.4489
 6280TIP3    H118783   0.518   1.766   5.019 -0.0445  1.1219 -3.0693
 6280TIP3    H218784   0.586   1.650   4.948  1.0601 -1.0133  1.2940
 6281TIP3   OH218785   8.380   2.395   5.935  0.5179 -0.1878 -0.4825
 6281TIP3    H118786   8.293   2.397   5.896  0.6073 -2.7354 -0.8570
 6281TIP3    H218787   8.375   2.456   6.009 -1.2180  0.5907 -1.2305
 6282TIP3   OH218788   0.434   3.369   3.777 -0.0051  0.4839 -0.2992
 6282TIP3    H118789   0.451   3.294   3.719  2.1400  0.0554  0.8333
 6282TIP3    H218790   0.506   3.429   3.760 -0.2935  1.1186  0.6907
 6283TIP3   OH218791   2.145   4.407   5.544 -0.0089  0.1373 -0.6720
 6283TIP3    H118792   2.148   4.436   5.635  2.2013  1.5258 -1.1745
 6283TIP3    H218793   2.199   4.469   5.496 -0.8111 -0.8134 -2.8988
 6284TIP3   OH218794   0.185   0.396   5.815 -0.5726  0.4838 -0.0345
 6284TIP3    H118795   0.263   0.421   5.865 -0.0981  0.9926 -1.0041
 6284TIP3    H218796   0.112   0.420   5.871 -0.0210 -1.1754  1.4263
 6285TIP3   OH218797   0.456   1.393   4.737 -0.3726  0.8623 -0.0001
 6285TIP3    H118798   0.462   1.454   4.663  0.3601  0.4967 -0.2422
 6285TIP3    H218799   0.365   1.399   4.766 -0.1570  2.5728  0.3861
 6286TIP3   OH218800   7.430   0.308   0.110 -0.1296 -0.2942  0.1998
 6286TIP3    H118801   7.400   0.231   0.062 -1.1741  1.2127 -1.6107
 6286TIP3    H218802   7.401   0.383   0.058 -0.6155  1.3984  2.7874
 6287TIP3   OH218803   0.478   3.587   4.432 -0.1325  0.0814  0.0517
 6287TIP3    H118804   0.503   3.592   4.524  2.9885 -0.8050 -0.6989
 6287TIP3    H218805   0.503   3.672   4.395 -0.2446 -0.0180 -0.2566
 6288TIP3   OH218806   0.398   2.656   5.485  0.0484  0.0128  0.5240
 6288TIP3    H118807   0.469   2.600   5.452  1.9806  1.9340  1.2579
 6288TIP3    H218808   0.344   2.674   5.408  1.7644  0.5126 -0.6020
 6289TIP3   OH218809   1.877   2.237   4.587 -0.0288 -0.6522 -0.0746
 6289TIP3    H118810   1.833   2.166   4.633 -1.5812  0.7561  0.6499
 6289TIP3    H218811   1.970   2.213   4.591 -0.2186 -1.1163  2.8262
 6290TIP3   OH218812   1.422   1.376   4.692 -1.0288  0.5062 -0.4690
 6290TIP3    H118813   1.489   1.315   4.723 -0.8192  1.7260  1.5947
 6290TIP3    H218814   1.356   1.374   4.761 -1.1001  2.4503 -0.4780
 6291TIP3   OH218815   2.304   0.386   4.871  0.1395 -0.5367 -0.0429
 6291TIP3    H118816   2.311   0.312   4.931 -2.5174 -0.6458  0.1789
 6291TIP3    H218817   2.266   0.349   4.791 -0.4904  0.4223 -0.2008
 6292TIP3   OH218818   2.088   2.200   4.267  0.1582  0.3187  0.6608
 6292TIP3    H118819   2.155   2.137   4.239 -0.8437 -0.7871  0.7349
 6292TIP3    H218820   2.056   2.239   4.186  1.7749  1.7837  0.6983
 6293TIP3   OH218821   1.962   3.178   4.101  0.7280 -0.1386  0.0306
 6293TIP3    H118822   1.931   3.172   4.191  0.6200 -1.5376 -0.0897
 6293TIP3    H218823   1.916   3.253   4.064 -3.2884 -2.7166 -0.4432
 6294TIP3   OH218824   0.080   0.106   5.900 -0.1370  0.3670 -0.2431
 6294TIP3    H118825  -0.006   0.090   5.862 -0.2422  1.6143 -0.5268
 6294TIP3    H218826   0.091   0.201   5.899  1.3512  0.2141 -0.4543
 6295TIP3   OH218827   0.288   1.315   5.411  0.3372 -0.1686 -0.6538
 6295TIP3    H118828   0.329   1.291   5.328  0.6557 -1.1362 -0.2122
 6295TIP3    H218829   0.320   1.251   5.474 -2.0664 -1.1154 -0.3526
 6296TIP3   OH218830   3.465   6.431   1.644 -0.4497  0.9176 -0.5843
 6296TIP3    H118831   3.469   6.389   1.729  0.1014 -1.1105 -1.5936
 6296TIP3    H218832   3.554   6.427   1.610 -0.4522  2.6272 -0.8365
 6297TIP3   OH218833   1.382   6.168   1.579 -0.1052 -0.4852  0.0082
 6297TIP3    H118834   1.339   6.171   1.664 -0.3468  0.0094 -0.1293
 6297TIP3    H218835   1.351   6.246   1.533 -1.0571 -1.4584 -1.0440
 6298TIP3   OH218836   0.482   0.257   5.906  0.3982 -0.4596 -0.5774
 6298TIP3    H118837   0.476   0.200   5.829 -1.1495  1.0008 -1.5837
 6298TIP3    H218838   0.564   0.305   5.894  0.2587 -0.3811 -1.2171
 6299TIP3   OH218839   3.698   7.055   0.200 -0.2142 -0.1630  0.2590
 6299TIP3    H118840   3.783   7.013   0.188 -0.5389 -0.2932 -1.7090
 6299TIP3    H218841   3.711   7.145   0.168 -0.4566  0.2408  1.2614
 6300TIP3   OH218842   1.498   2.752   5.502 -0.1818 -0.1438  0.6692
 6300TIP3    H118843   1.404   2.768   5.508 -0.2957  0.5255 -2.1114
 6300TIP3    H218844   1.506   2.656   5.501 -1.2128 -0.2808 -2.7123
 6301TIP3   OH218845   5.053   6.681   1.191 -0.1935 -0.0413  0.0337
 6301TIP3    H118846   5.000   6.612   1.151 -1.5891 -0.1231  1.9825
 6301TIP3    H218847   5.046   6.755   1.131 -1.2105 -0.5832 -0.5272
 6302TIP3   OH218848   0.133   2.951   4.224 -0.0553  0.3812  0.3709
 6302TIP3    H118849   0.177   3.031   4.253 -0.6113  0.0103  2.3095
 6302TIP3    H218850   0.087   2.976   4.144 -1.7220  2.4665  1.9604
 6303TIP3   OH218851   8.291   3.335   4.591  0.1073  0.3906  0.9011
 6303TIP3    H118852   8.261   3.406   4.647 -0.6194  1.1692 -0.4553
 6303TIP3    H218853   8.266   3.255   4.637 -0.5235  1.0177  1.6507
 6304TIP3   OH218854   1.278   1.859   6.395 -0.4699 -0.1975 -0.2110
 6304TIP3    H118855   1.280   1.818   6.309  0.0570 -2.5999  0.9000
 6304TIP3    H218856   1.211   1.927   6.388 -0.5508 -0.4750 -2.4479
 6305TIP3   OH218857   8.014   4.223   5.454  0.1049 -0.1279  0.1409
 6305TIP3    H118858   7.991   4.255   5.542 -1.1114  0.7151 -0.4823
 6305TIP3    H218859   7.971   4.137   5.448 -0.5310  0.2011  0.0352
 6306TIP3   OH218860   2.065   1.463   5.604 -0.3778  0.7499 -0.2997
 6306TIP3    H118861   2.124   1.395   5.571 -0.6844 -0.3346  1.3259
 6306TIP3    H218862   2.123   1.537   5.624  0.2107  0.2900 -0.2794
 6307TIP3   OH218863   0.111   3.481   5.234 -0.2797  0.1436 -0.0271
 6307TIP3    H118864   0.036   3.421   5.231 -0.7364  0.4112  3.5262
 6307TIP3    H218865   0.077   3.563   5.198 -1.7673  0.2988  1.6601
 6308TIP3   OH218866   4.846   5.616   1.447  0.2054 -0.5346 -0.4027
 6308TIP3    H118867   4.791   5.694   1.455  1.0368 -0.0928  1.2082
 6308TIP3    H218868   4.899   5.632   1.369  0.8374  0.8100  0.3017
 6309TIP3   OH218869   2.754   2.820   5.371 -0.5927 -0.9266 -0.3242
 6309TIP3    H118870   2.771   2.750   5.307  0.9516  0.7642 -1.8208
 6309TIP3    H218871   2.716   2.891   5.319 -2.9665 -0.9204  1.3292
 6310TIP3   OH218872   2.067   2.320   3.241 -0.3089 -0.4492 -0.4884
 6310TIP3    H118873   2.060   2.228   3.268 -0.8291 -0.6173 -1.2179
 6310TIP3    H218874   2.154   2.326   3.201 -0.6097 -0.8220 -1.2080
 6311TIP3   OH218875   2.697   2.727   5.090  0.4484 -0.2057 -0.0879
 6311TIP3    H118876   2.672   2.682   5.009 -0.5371 -1.8193  1.0762
 6311TIP3    H218877   2.739   2.658   5.143  0.7177  0.7339  0.9345
 6312TIP3   OH218878   1.529   2.677   4.997 -0.1396 -0.5881  0.2674
 6312TIP3    H118879   1.503   2.605   4.939 -1.2683  0.2045 -0.2350
 6312TIP3    H218880   1.479   2.663   5.077 -2.0122  0.8278 -0.6263
 6313TIP3   OH218881   2.656   0.772   5.213  0.1042  0.6373 -0.3012
 6313TIP3    H118882   2.731   0.736   5.260 -0.1106 -1.4989 -1.5369
 6313TIP3    H218883   2.686   0.778   5.122 -0.9945  0.4182 -0.6764
 6314TIP3   OH218884   1.649   2.564   4.156 -0.3333  0.2151  0.0599
 6314TIP3    H118885   1.607   2.614   4.086 -0.0395 -1.2468 -1.1774
 6314TIP3    H218886   1.742   2.585   4.147 -0.1754 -0.7483 -0.6396
 6315TIP3   OH218887   2.951   1.143   5.118 -0.0665 -0.4654 -0.0973
 6315TIP3    H118888   2.980   1.052   5.124  0.1476 -0.5341 -1.9410
 6315TIP3    H218889   2.859   1.141   5.144  1.2142 -0.3589  5.0624
 6316TIP3   OH218890   0.721   0.928   6.872  0.2821  0.0184  0.2392
 6316TIP3    H118891   0.739   1.002   6.816  2.3880 -0.2063  0.5927
 6316TIP3    H218892   0.642   0.953   6.920 -1.7250  0.0841 -2.9598
 6317TIP3   OH218893   1.624   3.695   4.031  0.1432  0.3115 -0.1110
 6317TIP3    H118894   1.594   3.706   3.941 -2.6947 -0.4957  0.6850
 6317TIP3    H218895   1.702   3.750   4.038 -0.3134  1.3316 -2.7150
 6318TIP3   OH218896   4.277   1.993   4.392 -0.2332 -0.5560 -0.1968
 6318TIP3    H118897   4.362   1.991   4.350 -0.4603  1.2626 -0.7792
 6318TIP3    H218898   4.280   2.069   4.451 -1.8792  0.3013 -1.1751
 6319TIP3   OH218899   1.794   1.208   5.129 -0.6690  0.0118 -0.3423
 6319TIP3    H118900   1.846   1.277   5.170  0.7882 -1.1160 -0.2412
 6319TIP3    H218901   1.780   1.239   5.039 -0.7336  0.8128 -0.0574
 6320TIP3   OH218902   8.434   3.522   4.235 -0.0991 -0.2053  0.0591
 6320TIP3    H118903   8.529   3.521   4.226 -0.0526  1.6791  0.1781
 6320TIP3    H218904   8.411   3.433   4.259  1.5882 -0.8045 -0.5053
 6321TIP3   OH218905   0.445   0.053   5.446  0.7623  0.4146 -0.4290
 6321TIP3    H118906   0.508   0.092   5.384  0.4524 -2.7825 -2.8915
 6321TIP3    H218907   0.484  -0.031   5.470 -1.0753 -0.1853  0.5290
 6322TIP3   OH218908   1.567   2.325   4.232 -0.3582 -0.0559  0.3103
 6322TIP3    H118909   1.490   2.349   4.282  0.0522 -0.0384  0.9422
 6322TIP3    H218910   1.592   2.405   4.186 -0.3583  0.1053  0.5880
 6323TIP3   OH218911   1.677   2.088   4.409 -0.7463  0.1206  0.2788
 6323TIP3    H118912   1.746   2.035   4.370 -1.0296 -1.1037  1.4075
 6323TIP3    H218913   1.668   2.163   4.350  0.9940 -0.0949 -0.3025
 6324TIP3   OH218914   1.943   3.806   5.478  0.3801  0.3099  0.0950
 6324TIP3    H118915   1.885   3.731   5.465  0.6806  0.5283 -2.9771
 6324TIP3    H218916   1.886   3.876   5.508 -0.3412 -0.4696  0.5460
 6325TIP3   OH218917   1.630   0.982   5.068 -0.0460  0.2436 -0.7929
 6325TIP3    H118918   1.693   1.049   5.095 -1.8697  1.1377  1.4655
 6325TIP3    H218919   1.680   0.901   5.067  1.8633  1.3878 -2.1499
 6326TIP3   OH218920   2.999   2.644   4.687  0.3087  0.3259 -0.3705
 6326TIP3    H118921   3.079   2.684   4.720 -1.1820  1.3873  2.1412
 6326TIP3    H218922   2.962   2.710   4.629  0.9947  0.0416 -1.1319
 6327TIP3   OH218923   6.893   0.274   0.427 -0.0705  0.3242 -0.0115
 6327TIP3    H118924   6.874   0.288   0.335 -4.0240  0.6953  0.7817
 6327TIP3    H218925   6.938   0.190   0.430  0.0714  0.2940 -2.2258
 6328TIP3   OH218926   1.316   0.427   4.723  0.1872  0.4898  0.2063
 6328TIP3    H118927   1.334   0.485   4.648  3.0562  0.5744  0.9061
 6328TIP3    H218928   1.229   0.391   4.705  0.5110  1.0691 -2.8030
 6329TIP3   OH218929   1.669   3.208   5.176 -0.1424  0.4457 -0.4831
 6329TIP3    H118930   1.621   3.132   5.142  0.6420  0.3480 -1.3807
 6329TIP3    H218931   1.709   3.248   5.099  3.0569 -0.7433  0.4798
 6330TIP3   OH218932   3.180   4.414   5.121 -0.9898 -0.3052  0.3102
 6330TIP3    H118933   3.195   4.469   5.044 -0.2085  0.4118  0.9602
 6330TIP3    H218934   3.112   4.353   5.094 -1.4931  0.6441 -0.5971
 6331TIP3   OH218935   1.142   3.818   3.962 -0.8195 -0.0761  0.0093
 6331TIP3    H118936   1.194   3.833   3.883  1.3700  2.3236  1.8178
 6331TIP3    H218937   1.176   3.736   3.998 -1.6643 -1.0511 -1.3847
 6332TIP3   OH218938   1.113   2.546   5.765 -0.1469  0.0216  0.0571
 6332TIP3    H118939   1.199   2.572   5.731  0.2352  0.1998  1.1493
 6332TIP3    H218940   1.124   2.543   5.860 -0.6014 -2.6289  0.0820
 6333TIP3   OH218941   2.866   5.723   0.244 -0.4387  0.7192 -0.3622
 6333TIP3    H118942   2.857   5.818   0.235 -0.6559  0.6619 -0.7840
 6333TIP3    H218943   2.781   5.689   0.216  0.2332  0.3000 -1.9894
 6334TIP3   OH218944   0.500   2.083   5.939 -0.0193 -0.6073 -0.2213
 6334TIP3    H118945   0.448   2.053   5.864 -2.0187 -0.8314  1.2390
 6334TIP3    H218946   0.502   2.008   5.998 -0.9018  0.5293  1.2604
 6335TIP3   OH218947   4.117   7.790   0.040  0.0669  0.4531 -0.2555
 6335TIP3    H118948   4.064   7.715   0.014  0.3747  0.0375  0.3145
 6335TIP3    H218949   4.089   7.860  -0.019 -0.1903 -0.1153 -0.8190
 6336TIP3   OH218950   1.248   2.312   4.872  0.1135  0.0467 -0.6670
 6336TIP3    H118951   1.230   2.311   4.966 -1.6609  1.8276 -0.9471
 6336TIP3    H218952   1.162   2.323   4.831  0.9357 -0.0695 -2.4702
 6337TIP3   OH218953   0.076   4.911   5.949  0.6999 -0.0099  0.0471
 6337TIP3    H118954  -0.014   4.879   5.948  1.5610 -2.5046  0.7906
 6337TIP3    H218955   0.103   4.906   6.040  1.1606  2.0696  0.0610
 6338TIP3   OH218956   4.325   7.802   5.970 -0.2971 -0.0024 -0.0560
 6338TIP3    H118957   4.372   7.883   5.985  1.1358 -0.8225 -0.0225
 6338TIP3    H218958   4.365   7.739   6.030 -1.4540 -0.7167 -0.0040
 6339TIP3   OH218959   5.368   1.906   4.801  0.6907  0.0284 -0.4542
 6339TIP3    H118960   5.343   1.814   4.794  1.2004 -0.1306 -0.1855
 6339TIP3    H218961   5.286   1.954   4.790  0.1602 -0.5077  1.1603
 6340TIP3   OH218962   0.722   2.268   3.639  0.1776  0.5008 -0.4481
 6340TIP3    H118963   0.816   2.254   3.632  0.1042 -0.0811 -0.2491
 6340TIP3    H218964   0.695   2.217   3.715 -0.2272  1.0255 -0.2363
 6341TIP3   OH218965   0.485   1.536   6.029 -0.1951 -0.2712 -0.4047
 6341TIP3    H118966   0.399   1.495   6.034 -0.0584 -0.7175 -1.6333
 6341TIP3    H218967   0.487   1.580   5.944  0.3844  0.6721  0.0785
 6342TIP3   OH218968   2.660   2.913   4.217  0.2201  0.5697  0.2099
 6342TIP3    H118969   2.683   2.959   4.136 -0.1659  0.4831  0.0475
 6342TIP3    H218970   2.578   2.868   4.196 -0.3185  1.2076  0.8949
 6343TIP3   OH218971   1.981   3.307   5.109 -0.2523  0.3207 -0.0791
 6343TIP3    H118972   2.038   3.238   5.077 -0.6264 -0.1920  0.3601
 6343TIP3    H218973   1.905   3.304   5.051  0.1951  1.0603 -0.7198
 6344TIP3   OH218974   1.802   0.608   6.492  0.6106 -0.2381 -0.3818
 6344TIP3    H118975   1.896   0.602   6.477  1.0659 -1.9168  2.6769
 6344TIP3    H218976   1.793   0.666   6.568 -0.7669 -0.5862 -0.2535
 6345TIP3   OH218977   1.132   2.024   4.592 -0.2253  0.1800 -0.5361
 6345TIP3    H118978   1.094   2.111   4.582 -0.4135  0.1712  0.1350
 6345TIP3    H218979   1.177   2.008   4.508  1.2840  1.6245 -0.0218
 6346TIP3   OH218980   0.745   1.659   3.764  0.5888 -0.2181 -0.2465
 6346TIP3    H118981   0.806   1.725   3.733 -1.0600  1.5486  0.1429
 6346TIP3    H218982   0.659   1.700   3.753 -0.3122 -1.3300  2.3292
 6347TIP3   OH218983   0.569   0.678   6.248 -0.0920  0.1494 -0.3354
 6347TIP3    H118984   0.532   0.590   6.243  0.8416 -0.2120 -1.0526
 6347TIP3    H218985   0.522   0.728   6.182 -0.5260  0.1539 -0.0239
 6348TIP3   OH218986   2.166   2.127   5.325 -0.1738 -0.3407  0.3886
 6348TIP3    H118987   2.146   2.219   5.310  1.6951  0.2417  1.3130
 6348TIP3    H218988   2.080   2.083   5.324 -1.5419  1.9874  3.8292
 6349TIP3   OH218989   2.515   3.799   3.700  0.4010  0.5679  0.1541
 6349TIP3    H118990   2.558   3.772   3.781  1.0303 -0.9840 -0.6637
 6349TIP3    H218991   2.561   3.750   3.631 -1.4173  0.3171 -0.9264
 6350TIP3   OH218992   2.548   0.786   4.180  0.7083 -0.2291 -0.0768
 6350TIP3    H118993   2.598   0.786   4.099  0.3660  2.4778 -0.3266
 6350TIP3    H218994   2.459   0.763   4.154  0.5840  0.7080 -0.4978
 6351TIP3   OH218995   1.421   1.384   4.162 -0.4244 -0.4566  0.7562
 6351TIP3    H118996   1.399   1.400   4.253 -1.4555  0.6707  0.3130
 6351TIP3    H218997   1.451   1.469   4.129 -1.9089 -0.3966 -0.4662
 6352TIP3   OH218998   0.399   5.615   5.309 -0.0988  0.0128 -0.7888
 6352TIP3    H118999   0.434   5.556   5.243 -1.5211 -0.9024 -0.7462
 6352TIP3    H219000   0.435   5.583   5.391  2.7789  1.9838 -1.2283
 6353TIP3   OH219001   3.233   2.729   4.863  0.0052 -0.2250 -0.2024
 6353TIP3    H119002   3.221   2.820   4.892  0.5048 -0.3313  0.3332
 6353TIP3    H219003   3.209   2.676   4.939 -1.2081 -0.5749 -0.8122
 6354TIP3   OH219004   2.612   1.834   3.972 -0.2690 -0.1635  0.0357
 6354TIP3    H119005   2.705   1.819   3.990 -0.6489 -0.6295  1.6433
 6354TIP3    H219006   2.573   1.747   3.970 -0.6147  0.0063 -1.0153
 6355TIP3   OH219007   1.855   4.129   5.170 -0.3697 -0.1186 -0.5875
 6355TIP3    H119008   1.789   4.072   5.132 -0.8757  0.2762 -0.3002
 6355TIP3    H219009   1.841   4.214   5.129  0.3155 -0.1636 -0.9353
 6356TIP3   OH219010   3.500   1.230   3.775  0.0312 -0.4266  0.4580
 6356TIP3    H119011   3.568   1.294   3.754 -0.4176  0.5755  2.0007
 6356TIP3    H219012   3.420   1.266   3.737  0.1396 -1.1030 -0.4537
 6357TIP3   OH219013   2.013   2.878   4.488  0.2229 -0.3601 -0.0355
 6357TIP3    H119014   1.982   2.967   4.469 -0.0740 -0.3878  0.3037
 6357TIP3    H219015   2.002   2.831   4.405 -1.7677 -0.6807  0.3690
 6358TIP3   OH219016   1.949   2.077   6.936 -0.2947 -0.3436  0.1527
 6358TIP3    H119017   1.920   1.989   6.960  0.6843 -0.3881  1.1844
 6358TIP3    H219018   1.988   2.066   6.849  0.2188 -1.0015  0.4641
 6359TIP3   OH219019   3.061   3.701   4.052 -0.3610  0.4669 -0.4877
 6359TIP3    H119020   2.978   3.700   4.004  0.4095  1.2281 -1.8255
 6359TIP3    H219021   3.034   3.713   4.144 -1.7173  0.8879 -0.9222
 6360TIP3   OH219022   2.912   1.880   4.814  0.4776 -0.2220  0.2161
 6360TIP3    H119023   2.826   1.906   4.783 -0.1571 -1.6482  0.7239
 6360TIP3    H219024   2.913   1.785   4.806  1.5205 -0.3357  1.4223
 6361TIP3   OH219025   4.830   3.388   5.160 -0.1629 -0.0151  0.2446
 6361TIP3    H119026   4.915   3.401   5.200 -0.1133  1.2975 -0.2275
 6361TIP3    H219027   4.782   3.331   5.220  0.3023  0.9859  1.5951
 6362TIP3   OH219028   4.676   3.956   5.973  0.4157 -0.4392  0.2640
 6362TIP3    H119029   4.695   4.038   5.927 -0.3508 -0.8427 -0.8154
 6362TIP3    H219030   4.685   3.977   6.066 -0.0438  0.9391  0.0072
 6363TIP3   OH219031   1.187   3.611   4.755  0.0264  0.1200 -0.4601
 6363TIP3    H119032   1.098   3.627   4.725 -0.2246  0.9481  0.6686
 6363TIP3    H219033   1.212   3.693   4.799  1.3381 -0.0986 -0.7799
 6364TIP3   OH219034   3.510   0.692   6.496  0.0041  0.1556  0.2662
 6364TIP3    H119035   3.459   0.750   6.553  1.1943  0.9371  0.5508
 6364TIP3    H219036   3.498   0.605   6.533 -0.7455  0.3955  0.6041
 6365TIP3   OH219037   1.887   1.999   5.383 -0.0915 -0.0770  0.1306
 6365TIP3    H119038   1.829   1.923   5.388 -0.3708  0.0146 -1.4766
 6365TIP3    H219039   1.831   2.070   5.353  1.1012 -0.2925 -2.7359
 6366TIP3   OH219040   7.433   6.835   0.027  0.2765 -0.0270 -0.4568
 6366TIP3    H119041   7.398   6.915   0.068 -1.6032 -0.8369 -0.4361
 6366TIP3    H219042   7.528   6.847   0.029  0.1890  0.7623  2.5631
 6367TIP3   OH219043   2.097   2.416   5.312 -0.1786 -0.0046  0.5097
 6367TIP3    H119044   2.115   2.458   5.227  0.3605  0.2668  0.7580
 6367TIP3    H219045   2.015   2.457   5.341 -1.5736 -1.6796 -0.9028
 6368TIP3   OH219046   2.419   2.552   3.947 -0.1093  0.5762 -0.7685
 6368TIP3    H119047   2.482   2.614   3.983 -0.9230  0.7438  0.3815
 6368TIP3    H219048   2.473   2.487   3.901  0.7345  2.2059 -2.1373
 6369TIP3   OH219049   2.327   2.268   5.026  0.4586  0.0089 -0.3646
 6369TIP3    H119050   2.282   2.219   5.095  0.9243  0.9558  0.6261
 6369TIP3    H219051   2.280   2.245   4.946 -1.0176  0.0336  0.4837
 6370TIP3   OH219052   4.200   1.314   4.704 -0.7327 -0.2995  0.3434
 6370TIP3    H119053   4.136   1.382   4.683  0.1018  0.8576  1.5154
 6370TIP3    H219054   4.262   1.316   4.630 -0.2896  0.7301  0.7393
 6371TIP3   OH219055   2.216   3.258   6.060 -0.1301  0.6569 -0.4901
 6371TIP3    H119056   2.238   3.184   6.002  0.9186 -0.6771  1.5375
 6371TIP3    H219057   2.128   3.283   6.034  0.1498 -0.2148 -2.3663
 6372TIP3   OH219058   0.164   4.140   6.896  0.3006  0.5164  0.2447
 6372TIP3    H119059   0.205   4.071   6.947  0.1940 -0.2653 -0.7094
 6372TIP3    H219060   0.226   4.158   6.825  0.5595  1.7602  0.7757
 6373TIP3   OH219061   3.061   2.752   3.876 -0.1436 -0.1394 -0.3819
 6373TIP3    H119062   3.134   2.753   3.814  1.3721  1.2478  1.3482
 6373TIP3    H219063   3.103   2.757   3.962 -2.2916  0.8486  0.6420
 6374TIP3   OH219064   2.725   1.427   1.947 -0.1457  0.1198  0.2081
 6374TIP3    H119065   2.718   1.521   1.933  0.1386  0.0354 -0.5050
 6374TIP3    H219066   2.814   1.405   1.920 -0.6794 -0.5834 -1.0351
 6375TIP3   OH219067   4.338   2.326   3.160 -0.2298  0.4523 -0.1436
 6375TIP3    H119068   4.370   2.257   3.102 -1.0594 -0.5024  0.5192
 6375TIP3    H219069   4.286   2.280   3.226 -0.5855  1.6853  0.4530
 6376TIP3   OH219070   2.411   0.523   5.131  0.0960 -0.0161 -0.5042
 6376TIP3    H119071   2.365   0.451   5.088 -0.2686  0.4165 -0.8426
 6376TIP3    H219072   2.493   0.532   5.081  0.6933 -0.9947  0.2986
 6377TIP3   OH219073   4.216   2.300   3.899 -0.3252  0.0899 -0.1617
 6377TIP3    H119074   4.225   2.379   3.845  0.1469  0.5916  0.6426
 6377TIP3    H219075   4.281   2.240   3.864 -1.0654 -0.1514 -1.1394
 6378TIP3   OH219076   2.014   1.855   3.663 -0.1676 -0.0184  0.8659
 6378TIP3    H119077   2.018   1.947   3.690 -0.0836 -0.0136  0.8379
 6378TIP3    H219078   2.098   1.818   3.691 -0.4064 -0.2127  1.3386
 6379TIP3   OH219079   3.290   2.877   4.281  0.4407  0.1522 -0.0113
 6379TIP3    H119080   3.308   2.944   4.347  2.8679  1.2075 -1.6900
 6379TIP3    H219081   3.231   2.920   4.219 -0.2962 -0.2069  0.4404
 6380TIP3   OH219082   4.052   1.329   3.335  0.5059  0.2550  0.1495
 6380TIP3    H119083   4.125   1.388   3.355  0.6516  0.7285 -1.6694
 6380TIP3    H219084   4.006   1.318   3.418  1.3307  1.7726  0.8191
 6381TIP3   OH219085   3.072   0.396   4.847  0.5103 -0.0224 -0.5738
 6381TIP3    H119086   3.100   0.416   4.936  3.1499 -1.5134 -1.0165
 6381TIP3    H219087   3.070   0.300   4.844  0.0094  0.0257 -1.9955
 6382TIP3   OH219088   5.444   1.174   2.926 -0.1516  0.0535 -0.1935
 6382TIP3    H119089   5.400   1.210   2.849 -0.4115 -1.0519 -0.5798
 6382TIP3    H219090   5.422   1.234   2.997  0.6854  1.4757 -1.1313
 6383TIP3   OH219091   7.111   1.847   4.448 -0.0626  0.0827  0.1710
 6383TIP3    H119092   7.166   1.784   4.401 -1.0619 -1.2583  0.7682
 6383TIP3    H219093   7.143   1.843   4.538 -1.0843 -0.6471  0.5060
 6384TIP3   OH219094   3.384   2.127   4.577 -0.3334 -0.2094  0.5394
 6384TIP3    H119095   3.442   2.196   4.610 -0.3058 -1.4762  3.3072
 6384TIP3    H219096   3.444   2.059   4.544 -0.3563  0.8089 -1.6981
 6385TIP3   OH219097   3.836   2.469   4.609  0.4482  0.0611 -0.0238
 6385TIP3    H119098   3.833   2.551   4.657 -0.2092  1.5682 -2.5214
 6385TIP3    H219099   3.926   2.463   4.576  0.8776 -0.9245  1.3130
 6386TIP3   OH219100   3.041   2.443   4.499 -0.3528  0.0711 -0.4220
 6386TIP3    H119101   3.007   2.359   4.529 -0.9493  0.2952 -0.4657
 6386TIP3    H219102   3.034   2.500   4.576 -0.4747  0.2382 -0.5583
 6387TIP3   OH219103   3.294   2.520   4.392  0.1765 -0.6386 -0.0416
 6387TIP3    H119104   3.366   2.573   4.357 -0.2031 -0.0997 -0.0116
 6387TIP3    H219105   3.300   2.531   4.487 -0.3671 -0.0179 -0.0668
 6388TIP3   OH219106   2.781   1.997   3.794  0.1982  0.0738  0.2614
 6388TIP3    H119107   2.712   1.950   3.842  1.1143 -0.2931  1.2466
 6388TIP3    H219108   2.738   2.027   3.714 -0.9972 -0.5130  0.6628
 6389TIP3   OH219109   7.190   0.331   0.565  0.1526  0.0188  0.2063
 6389TIP3    H119110   7.108   0.291   0.534  1.6517 -0.6090 -3.2561
 6389TIP3    H219111   7.255   0.261   0.556  1.4491  1.0843  1.0726
 6390TIP3   OH219112   2.922   1.310   5.501  0.6035 -0.0376  0.1772
 6390TIP3    H119113   2.909   1.216   5.485  1.3009 -0.2495  0.8390
 6390TIP3    H219114   2.847   1.336   5.554  2.2740 -1.0415  3.1513
 6391TIP3   OH219115   4.251   1.466   5.710 -0.2181  0.7740  0.4962
 6391TIP3    H119116   4.162   1.480   5.741 -0.3662 -0.0287  0.4495
 6391TIP3    H219117   4.306   1.484   5.786 -0.5700 -1.1010  1.2412
 6392TIP3   OH219118   3.600   2.641   4.515 -0.0148 -0.1257 -0.3333
 6392TIP3    H119119   3.574   2.651   4.607 -1.1587 -1.2895 -0.5183
 6392TIP3    H219120   3.686   2.599   4.520 -0.4513 -0.9957  0.2172
 6393TIP3   OH219121   0.346   4.181   4.683 -0.0070  0.0096 -0.2348
 6393TIP3    H119122   0.423   4.126   4.700 -2.1359 -2.1723  2.7093
 6393TIP3    H219123   0.274   4.119   4.671 -2.1613  2.0911  1.4496
 6394TIP3   OH219124   3.749   3.444   4.523  0.4796  0.1860 -0.0100
 6394TIP3    H119125   3.654   3.428   4.524  0.7294 -1.5077 -1.3288
 6394TIP3    H219126   3.763   3.507   4.594 -1.7201  0.9697 -0.2216
 6395TIP3   OH219127   4.403   2.880   3.433 -0.0080  0.1097  0.1983
 6395TIP3    H119128   4.442   2.942   3.371  0.5786 -0.6687 -0.2182
 6395TIP3    H219129   4.335   2.930   3.477 -1.0433  0.4370 -1.7181
 6396TIP3   OH219130   1.557   2.416   6.617 -0.2474  0.6650  0.5406
 6396TIP3    H119131   1.601   2.494   6.584  1.7742 -0.1473  1.2518
 6396TIP3    H219132   1.591   2.405   6.706 -1.6327 -0.1787  0.9768
 6397TIP3   OH219133   0.749   5.488   4.207  0.2066 -0.1728 -0.3716
 6397TIP3    H119134   0.708   5.464   4.290 -0.0693 -0.0549 -0.4728
 6397TIP3    H219135   0.679   5.479   4.142  0.3608 -0.0439 -0.5577
 6398TIP3   OH219136   4.282   3.911   5.250 -0.1176  0.3294 -0.0019
 6398TIP3    H119137   4.227   3.839   5.279 -0.9506  0.3352 -1.5325
 6398TIP3    H219138   4.305   3.958   5.330 -2.0177  0.1005  0.6882
 6399TIP3   OH219139   3.580   3.666   4.737 -0.1780  0.1400  0.3051
 6399TIP3    H119140   3.664   3.620   4.740 -0.0290  0.3855 -0.0091
 6399TIP3    H219141   3.570   3.705   4.824 -1.6564 -2.8518  1.5518
 6400TIP3   OH219142   4.269   4.112   3.896 -0.8631 -0.0546  0.1628
 6400TIP3    H119143   4.175   4.112   3.913 -0.7452  0.7402  0.8763
 6400TIP3    H219144   4.290   4.022   3.873 -1.6968 -0.3663  0.6239
 6401TIP3   OH219145   8.287   2.306   3.377 -0.7029 -0.3324  0.3827
 6401TIP3    H119146   8.276   2.221   3.336 -2.0150  1.0635 -2.3463
 6401TIP3    H219147   8.210   2.315   3.435 -1.0460 -0.6172 -0.0318
 6402TIP3   OH219148   2.107   1.893   4.007 -0.0144  0.3770 -0.2578
 6402TIP3    H119149   2.174   1.841   3.963 -0.9450 -0.3562 -0.8081
 6402TIP3    H219150   2.141   1.983   4.002  0.7331  0.0726 -0.8898
 6403TIP3   OH219151   2.168   2.957   4.171  0.5629 -0.4491  0.0658
 6403TIP3    H119152   2.084   2.910   4.175  1.2826 -1.9584 -1.9303
 6403TIP3    H219153   2.143   3.049   4.178 -1.2574 -0.8850 -0.2529
 6404TIP3   OH219154   5.023   2.051   4.774  0.3939  0.3905  0.5048
 6404TIP3    H119155   5.099   2.109   4.778 -0.8170  2.0218  0.3029
 6404TIP3    H219156   4.983   2.057   4.862 -0.7338  1.2659 -0.0487
 6405TIP3   OH219157   3.082   1.957   6.596  0.2680 -0.2791 -0.6038
 6405TIP3    H119158   3.075   2.000   6.681 -0.9142  1.6168 -1.6283
 6405TIP3    H219159   3.130   2.019   6.541 -0.4063 -0.7662 -1.7657
 6406TIP3   OH219160   1.541   2.707   3.946 -0.5257 -0.2708  0.3204
 6406TIP3    H119161   1.457   2.752   3.937 -1.0054 -1.0159  1.0622
 6406TIP3    H219162   1.567   2.689   3.856 -1.3649 -0.4053  0.0946
 6407TIP3   OH219163   0.991   1.628   6.901  0.0073 -0.6072  0.2502
 6407TIP3    H119164   1.044   1.652   6.977  0.5753  1.0706 -0.6540
 6407TIP3    H219165   0.901   1.625   6.933  0.0542  1.6366  0.6716
 6408TIP3   OH219166   1.886   2.361   4.092 -0.1135 -0.6176 -1.2399
 6408TIP3    H119167   1.897   2.396   4.181  1.6282  1.4313 -2.2238
 6408TIP3    H219168   1.791   2.358   4.080 -0.3626 -0.4270  0.5080
 6409TIP3   OH219169   1.315   7.980   2.314  0.0586 -0.3065  0.1586
 6409TIP3    H119170   1.284   7.976   2.405  0.2290 -0.5943  0.2068
 6409TIP3    H219171   1.235   7.980   2.262 -0.1088  2.3206  0.3715
 6410TIP3   OH219172   2.864   0.561   4.958 -0.5186  0.8843 -0.4359
 6410TIP3    H119173   2.894   0.481   4.914  1.6141  0.6091  1.4407
 6410TIP3    H219174   2.776   0.540   4.988  0.3104 -1.0726  0.7233
 6411TIP3   OH219175   1.820   1.879   3.984  0.4534 -0.4795  0.6725
 6411TIP3    H119176   1.817   1.909   4.074 -0.0105  2.7133 -0.3488
 6411TIP3    H219177   1.914   1.870   3.964  0.7348  3.0162  0.1940
 6412TIP3   OH219178   2.612   4.935   4.911 -0.3562 -0.3695  0.0784
 6412TIP3    H119179   2.664   4.856   4.922  2.2471  0.9199 -2.3988
 6412TIP3    H219180   2.649   4.998   4.973  0.0195  0.0742 -0.5947
 6413TIP3   OH219181   4.118   1.077   1.993 -1.3121 -0.1721 -0.0662
 6413TIP3    H119182   4.157   1.080   2.080 -0.8077 -2.4001 -0.1846
 6413TIP3    H219183   4.189   1.100   1.934 -1.2574 -0.1384  0.0139
 6414TIP3   OH219184   4.543   2.433   6.381  0.3566  0.5434 -0.3930
 6414TIP3    H119185   4.454   2.464   6.394 -0.6430 -2.5463  0.5955
 6414TIP3    H219186   4.556   2.369   6.451  2.3848 -1.0223 -2.1350
 6415TIP3   OH219187   4.464   0.714   4.482  0.4894  0.4166 -0.4223
 6415TIP3    H119188   4.520   0.697   4.406  0.3874  0.0210 -0.4095
 6415TIP3    H219189   4.441   0.807   4.474  0.7987  0.4746 -0.6610
 6416TIP3   OH219190   0.440   1.305   6.685  0.2465  0.3761 -0.2892
 6416TIP3    H119191   0.385   1.382   6.668  2.0040  1.7007 -0.1607
 6416TIP3    H219192   0.528   1.332   6.656  1.0384 -1.3164  0.4879
 6417TIP3   OH219193   1.261   1.511   6.022 -0.4556 -0.0544 -0.6225
 6417TIP3    H119194   1.202   1.448   5.981  0.0145 -0.2010 -1.0829
 6417TIP3    H219195   1.284   1.471   6.106  0.6034 -0.9643 -1.3231
 6418TIP3   OH219196   2.178   2.876   5.089  0.2170 -0.7705 -0.1236
 6418TIP3    H119197   2.168   2.816   5.015 -2.4323 -0.3413 -0.1521
 6418TIP3    H219198   2.142   2.959   5.058  1.3990  0.1250  0.8305
 6419TIP3   OH219199   0.102   7.646   4.104 -0.2062 -0.1833 -0.2795
 6419TIP3    H119200   0.042   7.719   4.120  0.8936  1.0011 -1.3703
 6419TIP3    H219201   0.189   7.683   4.119  0.3354 -1.4210 -0.3181
 6420TIP3   OH219202   7.812   7.798   4.440 -0.0050 -0.0007 -0.0927
 6420TIP3    H119203   7.733   7.804   4.493  0.2073 -0.7208  0.3126
 6420TIP3    H219204   7.867   7.870   4.470 -1.1192  1.4611 -1.4384
 6421TIP3   OH219205   2.191   3.584   5.872  0.0473  0.5248 -0.2778
 6421TIP3    H119206   2.220   3.500   5.836  1.2930  2.5896 -4.4739
 6421TIP3    H219207   2.095   3.582   5.862  0.1905  0.1274 -1.6836
 6422TIP3   OH219208   4.892   2.175   4.540  0.3951 -0.0889 -0.3176
 6422TIP3    H119209   4.887   2.245   4.605  1.1207 -0.3530  0.0270
 6422TIP3    H219210   4.926   2.100   4.589  1.8768 -0.0139 -1.2190
 6423TIP3   OH219211   2.422   2.985   4.398  0.2233 -0.4081  0.2780
 6423TIP3    H119212   2.344   3.041   4.401 -0.3381 -1.2055  0.4730
 6423TIP3    H219213   2.493   3.045   4.374 -0.2928  0.4896  0.9645
 6424TIP3   OH219214   5.561   2.394   6.691 -0.0644  0.0041 -0.9085
 6424TIP3    H119215   5.588   2.342   6.767  1.6656 -0.9346 -2.1352
 6424TIP3    H219216   5.473   2.363   6.670 -0.2284 -0.3043  0.2094
 6425TIP3   OH219217   3.004   2.937   4.392  0.5473  0.0211 -0.4356
 6425TIP3    H119218   2.952   2.962   4.469  0.0537 -0.4982 -0.5973
 6425TIP3    H219219   3.092   2.969   4.412  0.2258  0.7016 -0.0527
 6426TIP3   OH219220   1.488   0.311   4.409 -0.7551  0.3905  0.0518
 6426TIP3    H119221   1.515   0.220   4.420 -0.5474  0.7120  2.4492
 6426TIP3    H219222   1.550   0.347   4.346  0.5448 -0.5240  0.7924
 6427TIP3   OH219223   3.024   2.525   4.192 -0.0317 -0.7227 -0.3015
 6427TIP3    H119224   2.940   2.493   4.161  0.3794 -0.1816 -2.0922
 6427TIP3    H219225   3.033   2.612   4.152  1.8166 -1.2059 -1.0425
 6428TIP3   OH219226   2.682   3.105   2.730 -0.0912  0.7024 -0.2108
 6428TIP3    H119227   2.653   3.160   2.803 -1.4626 -0.2321 -0.0383
 6428TIP3    H219228   2.724   3.030   2.771  2.3631  1.8908 -0.4578
 6429TIP3   OH219229   2.304   2.364   3.119 -0.3694  0.2522 -0.3904
 6429TIP3    H119230   2.397   2.364   3.143 -0.0940 -0.7274 -1.4419
 6429TIP3    H219231   2.294   2.443   3.065 -0.4291  1.0301  0.7299
 6430TIP3   OH219232   3.911   3.196   4.609  0.1645  0.1880  0.1501
 6430TIP3    H119233   3.928   3.114   4.562  0.0136  0.3444 -0.1777
 6430TIP3    H219234   3.823   3.221   4.581  1.0175  1.5691 -1.3813
 6431TIP3   OH219235   3.805   2.622   5.912 -0.1212  0.4086 -0.4890
 6431TIP3    H119236   3.749   2.557   5.954 -1.9233  1.9601 -0.4348
 6431TIP3    H219237   3.887   2.618   5.960 -1.1053 -0.0301  1.1682
 6432TIP3   OH219238   3.227   2.748   3.169  0.2908  0.0532  0.1675
 6432TIP3    H119239   3.238   2.653   3.177 -1.4732 -0.2815 -1.1320
 6432TIP3    H219240   3.231   2.781   3.259 -0.6707 -1.4211  0.7566
 6433TIP3   OH219241   2.509   4.618   6.142  0.2247 -0.0248 -0.4059
 6433TIP3    H119242   2.490   4.693   6.086  0.6891 -0.0405 -0.5805
 6433TIP3    H219243   2.566   4.562   6.089 -1.7040 -1.4535 -1.0383
 6434TIP3   OH219244   0.660   7.671   3.547  0.0286  0.3565 -0.2877
 6434TIP3    H119245   0.706   7.592   3.573 -0.8808  0.1620  0.8096
 6434TIP3    H219246   0.599   7.643   3.479  0.8856  0.4405 -1.0903
 6435TIP3   OH219247   0.921   2.991   5.409 -0.7711 -0.5593  0.1112
 6435TIP3    H119248   0.938   3.039   5.328  1.3379 -2.0121 -0.3451
 6435TIP3    H219249   0.947   3.051   5.478 -0.7391 -0.0324 -0.3571
 6436TIP3   OH219250   2.164   0.978   3.431  0.0718  0.3225 -0.5346
 6436TIP3    H119251   2.221   1.045   3.468  0.3695 -0.8887  1.3073
 6436TIP3    H219252   2.079   0.994   3.471 -0.2997  0.6593 -1.4435
 6437TIP3   OH219253   3.449   2.149   3.916 -0.5920 -0.0864 -0.2750
 6437TIP3    H119254   3.512   2.167   3.986 -2.3742  0.6818  1.2118
 6437TIP3    H219255   3.488   2.186   3.837  0.8908  0.2129  0.5898
 6438TIP3   OH219256   4.814   0.247   3.356  0.3219 -0.4472  0.1313
 6438TIP3    H119257   4.902   0.241   3.319  0.0756 -1.4909 -0.3039
 6438TIP3    H219258   4.815   0.328   3.407  2.1765 -1.4607  1.7753
 6439TIP3   OH219259   3.065   4.145   3.971 -0.0208 -0.0654  0.5566
 6439TIP3    H119260   3.099   4.219   3.921 -1.8052 -0.2604 -1.0082
 6439TIP3    H219261   3.000   4.183   4.031 -1.8406 -0.4542 -1.1030
 6440TIP3   OH219262   5.008   5.146   4.854 -0.2796  0.2785 -0.1681
 6440TIP3    H119263   5.073   5.189   4.909  1.8187 -2.3261 -0.5106
 6440TIP3    H219264   4.975   5.074   4.907 -1.0004  0.0124 -0.9566
 6441TIP3   OH219265   4.173   1.295   6.396 -0.1007 -0.0223 -0.3841
 6441TIP3    H119266   4.128   1.210   6.396 -0.4820  0.1759  0.3505
 6441TIP3    H219267   4.265   1.274   6.383  0.1741 -0.7546  2.4912
 6442TIP3   OH219268   4.180   1.810   4.811  0.8226  0.0948  0.0820
 6442TIP3    H119269   4.236   1.879   4.845  1.3778  0.0818 -0.7819
 6442TIP3    H219270   4.116   1.855   4.756  1.0068 -0.0378 -0.2492
 6443TIP3   OH219271   1.529   3.924   4.258 -0.1487  0.2837 -0.7455
 6443TIP3    H119272   1.541   4.016   4.236  0.2616  1.0044  2.2366
 6443TIP3    H219273   1.571   3.876   4.186  0.9396  2.4359 -1.5917
 6444TIP3   OH219274   2.426   1.953   6.004  0.4859  0.8252  0.2822
 6444TIP3    H119275   2.349   1.908   5.969 -0.5855  1.8057  1.3534
 6444TIP3    H219276   2.467   1.888   6.062  0.1317  0.4990  0.1741
 6445TIP3   OH219277   3.348   2.789   5.183 -0.0704 -0.1402 -0.2282
 6445TIP3    H119278   3.289   2.731   5.134  1.8707 -0.9259 -1.6880
 6445TIP3    H219279   3.347   2.754   5.272 -0.3260 -1.3283 -0.6859
 6446TIP3   OH219280   4.267   1.773   6.125 -0.2064 -0.4086  0.7748
 6446TIP3    H119281   4.260   1.750   6.218 -0.5949 -0.4403  0.7389
 6446TIP3    H219282   4.217   1.705   6.080  1.3587 -1.3364  0.4023
 6447TIP3   OH219283   4.360   0.510   6.058 -0.2788  0.5249 -0.2230
 6447TIP3    H119284   4.266   0.489   6.065 -0.2119  0.5003  0.6823
 6447TIP3    H219285   4.375   0.573   6.128 -0.1547  2.4628 -1.9581
 6448TIP3   OH219286   1.938   2.458   3.569  0.2913  0.0025  0.0330
 6448TIP3    H119287   1.935   2.475   3.475  0.4750  0.1407  0.0519
 6448TIP3    H219288   1.864   2.399   3.585  0.6006 -0.4690 -0.2861
 6449TIP3   OH219289   2.715   3.407   4.782  0.7703 -0.0372 -0.0117
 6449TIP3    H119290   2.657   3.350   4.833  1.6295  0.0313  1.0694
 6449TIP3    H219291   2.657   3.455   4.724 -0.2628  0.0160  1.0419
 6450TIP3   OH219292   3.744   2.236   3.228 -0.0046 -0.0686  0.5225
 6450TIP3    H119293   3.683   2.218   3.157 -0.0446  0.8925  0.3098
 6450TIP3    H219294   3.714   2.319   3.265 -0.2688 -0.7955  1.9696
 6451TIP3   OH219295   2.891   0.864   6.014  0.3753  0.6036  0.2438
 6451TIP3    H119296   2.964   0.852   6.075  0.9019  0.3739 -0.4122
 6451TIP3    H219297   2.850   0.777   6.008  0.5227  0.5491  0.0257
 6452TIP3   OH219298   4.450   1.477   2.926 -0.2559  0.0087  0.7871
 6452TIP3    H119299   4.379   1.434   2.974 -0.1755  0.0141  0.9121
 6452TIP3    H219300   4.496   1.528   2.993 -1.0608  1.2275  0.4352
 6453TIP3   OH219301   3.847   3.825   4.621  0.1692  0.7650  0.0888
 6453TIP3    H119302   3.851   3.748   4.678  2.3562  0.4070 -0.4782
 6453TIP3    H219303   3.811   3.894   4.677  0.3610 -0.0857  1.2988
 6454TIP3   OH219304   1.366   0.790   2.472  0.4366 -0.5238  0.5330
 6454TIP3    H119305   1.364   0.876   2.431 -1.0381 -1.5206 -1.5750
 6454TIP3    H219306   1.296   0.793   2.538 -0.4010 -0.4641 -0.3401
 6455TIP3   OH219307   1.709   1.582   3.768 -0.0893  0.1968  0.2847
 6455TIP3    H119308   1.802   1.563   3.758 -0.0794  0.6445 -0.5400
 6455TIP3    H219309   1.700   1.672   3.736 -1.1437 -0.5476 -1.6019
 6456TIP3   OH219310   4.873   2.431   4.968  0.5642 -0.3295  0.9473
 6456TIP3    H119311   4.828   2.395   5.045 -0.7919  1.0176  0.8022
 6456TIP3    H219312   4.966   2.427   4.992  0.2675 -1.3497  2.0312
 6457TIP3   OH219313   2.880   2.981   4.653  0.3991  0.2756  0.0657
 6457TIP3    H119314   2.898   3.075   4.656 -0.2900  0.4215 -0.2854
 6457TIP3    H219315   2.784   2.975   4.647  0.4887 -0.4329 -0.6829
 6458TIP3   OH219316   4.534   1.074   3.675  0.0839 -0.3018  0.2768
 6458TIP3    H119317   4.502   1.110   3.593 -0.0171 -0.0029  0.4446
 6458TIP3    H219318   4.624   1.107   3.682  0.4794 -1.2458 -0.2579
 6459TIP3   OH219319   0.674   2.262   3.365 -0.1908  0.1865 -0.4083
 6459TIP3    H119320   0.695   2.285   3.456 -0.0803  2.3762 -0.9504
 6459TIP3    H219321   0.749   2.211   3.335 -0.7392 -1.5431  1.0671
 6460TIP3   OH219322   5.021   2.567   3.971 -0.0796  0.1139  0.2182
 6460TIP3    H119323   5.022   2.660   3.994 -1.3134  0.9124 -2.8639
 6460TIP3    H219324   4.929   2.542   3.976  0.3559 -1.2673  2.0719
 6461TIP3   OH219325   7.415   5.629   0.484 -0.3293  0.4209  0.2406
 6461TIP3    H119326   7.472   5.662   0.554 -1.7745  1.4370  0.9801
 6461TIP3    H219327   7.329   5.620   0.525 -0.5213 -1.9730 -0.6168
 6462TIP3   OH219328   4.307   3.236   4.102 -0.5204  0.2300  0.1930
 6462TIP3    H119329   4.299   3.328   4.075  0.3518  0.1305 -0.4191
 6462TIP3    H219330   4.388   3.233   4.153  0.4604 -0.5576 -1.3759
 6463TIP3   OH219331   0.541   4.260   3.304  0.4840  0.2411  0.1190
 6463TIP3    H119332   0.612   4.280   3.244 -0.2152 -0.0696 -0.8284
 6463TIP3    H219333   0.489   4.194   3.258 -1.4503  1.8031 -0.0040
 6464TIP3   OH219334   2.881   7.694   3.709  0.7843 -0.2290 -0.0569
 6464TIP3    H119335   2.952   7.630   3.719  1.7367  0.5528 -1.6320
 6464TIP3    H219336   2.801   7.641   3.706  1.4346 -1.2345  0.1644
 6465TIP3   OH219337   5.485   0.400   4.158 -0.1037  0.2118 -0.0059
 6465TIP3    H119338   5.540   0.380   4.082  0.1709  0.2474  0.1858
 6465TIP3    H219339   5.396   0.396   4.124 -0.0606 -1.2306 -0.0022
 6466TIP3   OH219340   2.148   3.323   4.719  0.1506  0.0958 -0.0322
 6466TIP3    H119341   2.148   3.377   4.797 -0.6364  0.8252 -0.5150
 6466TIP3    H219342   2.223   3.264   4.729 -0.2891 -0.2153  1.5297
 6467TIP3   OH219343   0.794   1.721   5.250  0.1763 -0.2672  0.2164
 6467TIP3    H119344   0.699   1.709   5.243  0.0005  1.6867 -1.4146
 6467TIP3    H219345   0.823   1.731   5.159  1.6061  1.5505  0.8490
 6468TIP3   OH219346   1.574   2.618   4.439 -0.2519  0.4058  0.0163
 6468TIP3    H119347   1.597   2.538   4.485 -0.3820  0.9921  1.1265
 6468TIP3    H219348   1.536   2.589   4.357 -2.5213 -0.7436  1.4212
 6469TIP3   OH219349   2.810   1.502   3.649  0.3373 -0.0065 -0.2565
 6469TIP3    H119350   2.875   1.559   3.691 -1.2648  1.3990  0.3665
 6469TIP3    H219351   2.862   1.436   3.603  2.1969  0.9103  0.4892
 6470TIP3   OH219352   1.241   1.447   4.873  0.4216  0.1778 -0.2094
 6470TIP3    H119353   1.188   1.437   4.952  0.7845  0.6522  0.0964
 6470TIP3    H219354   1.178   1.463   4.803  0.0955 -0.2730 -0.0236
 6471TIP3   OH219355   3.204   2.566   5.091  0.1429 -0.1495  0.1923
 6471TIP3    H119356   3.128   2.508   5.084  0.4032 -0.3476 -1.1606
 6471TIP3    H219357   3.264   2.520   5.150  0.1569 -1.0523 -0.5191
 6472TIP3   OH219358   1.638   3.722   6.238  0.8061  0.2653 -0.1921
 6472TIP3    H119359   1.558   3.682   6.206  1.1017 -0.9721  0.5491
 6472TIP3    H219360   1.622   3.736   6.332  1.7836 -0.8837  0.1648
 6473TIP3   OH219361   4.759   3.376   2.619 -0.7605  0.2753 -0.3037
 6473TIP3    H119362   4.758   3.312   2.690  0.0936  0.6459  0.0513
 6473TIP3    H219363   4.846   3.415   2.623 -1.1935  1.2941 -0.6666
 6474TIP3   OH219364   3.299   1.933   4.943 -0.1491 -0.1058 -0.1756
 6474TIP3    H119365   3.390   1.950   4.919 -0.5477  0.9329 -1.0126
 6474TIP3    H219366   3.260   1.897   4.863 -0.7216  0.3976 -0.1243
 6475TIP3   OH219367   3.132   3.315   4.116 -0.3653 -0.3313  0.6796
 6475TIP3    H119368   3.112   3.228   4.080  1.6955  0.0421 -1.5144
 6475TIP3    H219369   3.060   3.370   4.086 -1.2680 -1.1266  1.3940
 6476TIP3   OH219370   1.892   4.294   5.550  0.0809 -0.3430 -0.2879
 6476TIP3    H119371   1.869   4.314   5.459  0.5694 -2.0350 -0.7932
 6476TIP3    H219372   1.978   4.336   5.562 -0.4019  0.6682 -0.3123
 6477TIP3   OH219373   2.701   3.658   2.411  0.1029  0.4914  0.3096
 6477TIP3    H119374   2.674   3.567   2.419  0.5245  0.1475 -1.8391
 6477TIP3    H219375   2.693   3.694   2.499  2.8641 -2.4154  1.8536
 6478TIP3   OH219376   3.442   4.808   5.872 -0.7967  0.5563 -0.0997
 6478TIP3    H119377   3.488   4.747   5.814 -0.8686 -0.3437  0.7847
 6478TIP3    H219378   3.358   4.766   5.890 -0.3727  0.3589  1.4621
 6479TIP3   OH219379   3.431   2.957   3.097  0.6397  0.3120 -0.5735
 6479TIP3    H119380   3.382   3.039   3.105  1.4096  0.5745  2.0391
 6479TIP3    H219381   3.370   2.890   3.128  0.5958  0.1326 -1.0534
 6480TIP3   OH219382   4.104   2.961   4.553  0.1194  0.3084  0.1954
 6480TIP3    H119383   4.159   3.035   4.579 -1.3960  1.0942  1.2783
 6480TIP3    H219384   4.094   2.909   4.633 -0.3690 -0.0504 -0.0912
 6481TIP3   OH219385   3.468   3.715   6.455  0.1872  0.3191  0.2605
 6481TIP3    H119386   3.395   3.758   6.410  1.7693  0.8025 -1.9344
 6481TIP3    H219387   3.539   3.715   6.391  2.2617  0.2314  2.4890
 6482TIP3   OH219388   0.644   1.311   2.746 -0.8341 -0.5596  0.1720
 6482TIP3    H119389   0.637   1.380   2.811 -0.7226 -0.4902  0.1104
 6482TIP3    H219390   0.630   1.355   2.662  0.3045 -0.4144  0.0411
 6483TIP3   OH219391   3.329   1.463   4.349 -0.0763 -0.2843  0.1598
 6483TIP3    H119392   3.241   1.453   4.385 -0.9680  1.6527 -1.4035
 6483TIP3    H219393   3.316   1.472   4.255  1.8817 -0.9828 -0.2119
 6484TIP3   OH219394   4.146   1.522   6.133 -0.4310  0.2773 -0.0092
 6484TIP3    H119395   4.058   1.502   6.165 -0.4456  0.3044 -0.0319
 6484TIP3    H219396   4.200   1.451   6.167 -0.5322  0.0560 -0.3084
 6485TIP3   OH219397   4.278   3.177   4.612 -0.3546  0.2639  0.0435
 6485TIP3    H119398   4.291   3.245   4.546 -0.0097 -0.9933 -1.2188
 6485TIP3    H219399   4.355   3.121   4.604 -0.2597  0.1529  1.6046
 6486TIP3   OH219400   4.100   3.430   4.697 -0.1736 -0.1319 -0.3133
 6486TIP3    H119401   4.067   3.353   4.650  2.1633 -1.0334 -0.5709
 6486TIP3    H219402   4.170   3.396   4.752  0.1792  1.6543  0.3647
 6487TIP3   OH219403   2.899   7.992   5.150 -0.0132 -0.6891  0.0803
 6487TIP3    H119404   2.840   7.968   5.079 -0.3833  0.5495 -0.0317
 6487TIP3    H219405   2.965   8.048   5.109  1.1830 -1.9290  0.2269
 6488TIP3   OH219406   2.554   0.968   4.712  0.0664 -0.0814 -0.5979
 6488TIP3    H119407   2.543   0.956   4.617 -0.0329  0.5801 -0.6720
 6488TIP3    H219408   2.607   1.047   4.720  1.9060 -1.3112 -0.1488
 6489TIP3   OH219409   4.274   3.777   4.439 -0.0864  0.0525 -0.9441
 6489TIP3    H119410   4.305   3.814   4.357 -2.9116  1.8530 -1.3090
 6489TIP3    H219411   4.206   3.715   4.414 -1.6114  1.2761 -0.0125
 6490TIP3   OH219412   3.659   0.420   4.889  0.3678  0.1345  0.4737
 6490TIP3    H119413   3.578   0.471   4.892  0.9500  1.0554  0.9417
 6490TIP3    H219414   3.719   0.472   4.836  0.1937 -1.2549 -1.1228
 6491TIP3   OH219415   4.415   0.900   3.879 -0.3803  0.0019 -0.3848
 6491TIP3    H119416   4.450   0.975   3.830 -0.7523  0.8902  0.6944
 6491TIP3    H219417   4.320   0.911   3.873 -0.4273  0.7027  1.4064
 6492TIP3   OH219418   2.272   1.847   4.970 -0.1405 -0.2301 -1.0496
 6492TIP3    H119419   2.300   1.927   5.015 -3.0419  1.5589 -2.3019
 6492TIP3    H219420   2.329   1.842   4.893  2.0426 -1.0519  0.5477
 6493TIP3   OH219421   2.032   1.104   6.053 -0.2225  0.0941  0.0232
 6493TIP3    H119422   1.948   1.149   6.047 -0.0536  0.6302  1.4122
 6493TIP3    H219423   2.060   1.118   6.143  1.0942 -0.5532 -0.2707
 6494TIP3   OH219424   3.865   3.577   4.761  0.3856 -0.2556 -0.2909
 6494TIP3    H119425   3.937   3.518   4.737  1.4268  0.9164 -0.1404
 6494TIP3    H219426   3.836   3.545   4.846 -0.9030 -2.2094 -1.4166
 6495TIP3   OH219427   3.821   2.851   5.645  0.0193 -0.1051 -0.5640
 6495TIP3    H119428   3.893   2.800   5.608  0.2996 -0.7599  0.8708
 6495TIP3    H219429   3.852   2.879   5.731 -1.7046 -0.9920  0.3603
 6496TIP3   OH219430   3.983   0.935   4.436 -0.0502 -0.3394 -0.4052
 6496TIP3    H119431   4.058   0.909   4.382  1.5636  2.0277  0.6201
 6496TIP3    H219432   3.948   1.013   4.392 -2.0384 -1.5080 -0.9558
 6497TIP3   OH219433   3.531   0.851   4.940 -0.4095 -0.2786 -0.1398
 6497TIP3    H119434   3.613   0.900   4.933  0.0226 -1.1456 -1.1815
 6497TIP3    H219435   3.468   0.915   4.974  0.7322  0.3456  0.8437
 6498TIP3   OH219436   4.309   0.220   4.873  0.0792  0.2106  0.1173
 6498TIP3    H119437   4.304   0.247   4.964  0.4918  0.2294  0.1353
 6498TIP3    H219438   4.292   0.126   4.875 -0.6055  0.3307  0.1365
 6499TIP3   OH219439   3.289   1.896   5.221  1.0981  0.2794  0.3300
 6499TIP3    H119440   3.375   1.932   5.244  2.1657 -1.4418 -0.8197
 6499TIP3    H219441   3.291   1.891   5.125 -1.4903  3.0747  0.0599
 6500TIP3   OH219442   2.949   2.247   2.978  0.1808  0.2114 -0.2526
 6500TIP3    H119443   2.970   2.310   2.908 -0.0572  0.8199  0.2172
 6500TIP3    H219444   2.923   2.302   3.052 -0.1485 -0.4507  0.1242
 6501TIP3   OH219445   1.509   0.638   3.665 -0.0146 -0.5119 -0.3886
 6501TIP3    H119446   1.471   0.711   3.715  1.7851  0.1587  0.0094
 6501TIP3    H219447   1.581   0.606   3.720  1.2673 -0.4923 -2.0505
 6502TIP3   OH219448   0.331   3.445   5.403  0.2425  0.1036  0.4369
 6502TIP3    H119449   0.257   3.403   5.358 -0.2351  0.5033  0.8462
 6502TIP3    H219450   0.406   3.389   5.383 -0.2707 -0.5879  0.4325
 6503TIP3   OH219451   2.748   3.072   4.009  0.1748 -0.1589 -0.4308
 6503TIP3    H119452   2.742   3.167   3.993  0.4771  0.1757  1.2945
 6503TIP3    H219453   2.699   3.033   3.937 -0.1966  1.3325 -1.0217
 6504TIP3   OH219454   3.187   0.605   4.723  0.1563 -0.0318 -0.2071
 6504TIP3    H119455   3.134   0.536   4.763 -1.9113  1.0907 -0.9476
 6504TIP3    H219456   3.194   0.580   4.631 -1.2897  1.1528 -0.6459
 6505TIP3   OH219457   3.626   2.828   3.465  0.5678  0.2799  0.0034
 6505TIP3    H119458   3.626   2.807   3.558  1.2943 -1.3689 -0.3462
 6505TIP3    H219459   3.570   2.761   3.425 -1.0469  1.9381 -0.5587
 6506TIP3   OH219460   3.285   2.965   3.844 -0.0954 -0.1458  0.0890
 6506TIP3    H119461   3.367   2.957   3.891  0.5331  1.9873 -0.6130
 6506TIP3    H219462   3.303   2.927   3.758  0.5778  1.5182 -0.5276
 6507TIP3   OH219463   3.002   3.640   4.591 -0.2439 -0.1554  0.1096
 6507TIP3    H119464   3.073   3.595   4.545  0.1684  0.4700  0.1383
 6507TIP3    H219465   3.045   3.697   4.654 -0.8313 -1.8666  2.1102
 6508TIP3   OH219466   1.605   7.761   3.850 -0.0230  0.1541  0.1772
 6508TIP3    H119467   1.666   7.737   3.920  0.3459  0.0346 -0.1840
 6508TIP3    H219468   1.534   7.807   3.895 -0.7480 -1.5976  0.8776
 6509TIP3   OH219469   3.845   1.461   5.118 -0.4627 -0.5150  0.2251
 6509TIP3    H119470   3.881   1.508   5.042  2.4510 -0.6449  1.4670
 6509TIP3    H219471   3.846   1.526   5.188  1.6496 -1.8178  1.4281
 6510TIP3   OH219472   3.251   2.858   3.420  0.1548  0.4663 -0.1623
 6510TIP3    H119473   3.259   2.808   3.502 -0.4037  0.0907 -0.3274
 6510TIP3    H219474   3.216   2.942   3.448  0.4765  0.5329  0.0472
 6511TIP3   OH219475   4.406   2.617   3.376 -0.4802 -0.0399  0.1981
 6511TIP3    H119476   4.394   2.710   3.399  1.4577  0.0881  0.8192
 6511TIP3    H219477   4.360   2.607   3.293  0.0839  1.7141 -0.3593
 6512TIP3   OH219478   3.623   2.760   5.087  0.0003  0.1831  0.0325
 6512TIP3    H119479   3.540   2.733   5.127  0.3300 -2.0371 -0.6969
 6512TIP3    H219480   3.638   2.848   5.120 -1.0041 -0.6227  2.7876
 6513TIP3   OH219481   5.113   1.556   1.815 -0.1081  0.4588 -0.3120
 6513TIP3    H119482   5.142   1.643   1.841 -0.8375  0.4548  0.5346
 6513TIP3    H219483   5.088   1.565   1.723  2.4402  0.4899 -1.0337
 6514TIP3   OH219484   2.864   2.157   4.047  0.0239 -0.3136 -0.7479
 6514TIP3    H119485   2.832   2.126   3.962 -1.7480  1.1905 -0.6653
 6514TIP3    H219486   2.916   2.234   4.028  0.7014 -0.7286 -0.5792
 6515TIP3   OH219487   5.521   4.168   6.519  0.3418  0.3984  0.5513
 6515TIP3    H119488   5.453   4.215   6.472  0.5142 -1.1075 -1.2839
 6515TIP3    H219489   5.602   4.191   6.473  0.7892  0.5624  1.4153
 6516TIP3   OH219490   4.141   3.455   3.411  0.1081  0.2275 -0.3838
 6516TIP3    H119491   4.076   3.516   3.376 -0.3020 -1.4820 -2.7613
 6516TIP3    H219492   4.213   3.511   3.440 -0.8124  1.9328 -1.2990
 6517TIP3   OH219493   4.271   2.124   4.822  0.2888  0.1750  0.0190
 6517TIP3    H119494   4.193   2.178   4.836  0.6034  0.5593  0.2974
 6517TIP3    H219495   4.294   2.138   4.730  0.0713  0.1133 -0.0450
 6518TIP3   OH219496   0.207   7.389   4.535 -1.2469 -0.8921 -0.1608
 6518TIP3    H119497   0.169   7.392   4.447 -2.5694 -0.4206  0.4095
 6518TIP3    H219498   0.211   7.480   4.564  2.0939 -0.7511 -0.9156
 6519TIP3   OH219499   3.181   3.485   4.448 -0.0933 -0.5189  0.0270
 6519TIP3    H119500   3.242   3.482   4.375  0.6599  0.0935  0.6249
 6519TIP3    H219501   3.117   3.417   4.429  0.4120 -0.7316 -0.9240
 6520TIP3   OH219502   4.829   1.429   4.661  0.3602  0.1498  0.3649
 6520TIP3    H119503   4.762   1.490   4.695  1.5662  1.9298 -0.3863
 6520TIP3    H219504   4.849   1.462   4.574  1.8323 -0.7024  0.3747
 6521TIP3   OH219505   3.696   5.299   5.550  0.5447  0.2809  0.0517
 6521TIP3    H119506   3.719   5.347   5.629  0.1532 -0.3237  0.5474
 6521TIP3    H219507   3.771   5.242   5.533 -0.2948 -1.2697  1.3341
 6522TIP3   OH219508   2.917   2.802   4.174  0.2927  0.0758  0.5522
 6522TIP3    H119509   2.848   2.867   4.168 -1.4732 -1.8228 -0.5796
 6522TIP3    H219510   2.971   2.829   4.248 -0.9456  2.2648  0.6663
 6523TIP3   OH219511   3.241   0.880   4.738  0.4321 -0.1304 -0.0268
 6523TIP3    H119512   3.184   0.803   4.743  0.6766 -0.5434 -2.5928
 6523TIP3    H219513   3.325   0.844   4.707  1.4780  0.7632  1.6902
 6524TIP3   OH219514   2.865   1.615   4.789  0.1922  0.4088 -0.1085
 6524TIP3    H119515   2.868   1.589   4.697  1.2862 -0.8533  0.2767
 6524TIP3    H219516   2.782   1.582   4.822  0.8083 -1.1286 -0.0679
 6525TIP3   OH219517   3.868   2.133   4.051  0.2983 -0.1001  0.3865
 6525TIP3    H119518   3.842   2.125   3.960  0.0842 -1.0044  0.5220
 6525TIP3    H219519   3.960   2.106   4.053  0.1125 -0.7387  0.5401
 6526TIP3   OH219520   3.976   2.632   4.288 -0.4997  0.3642  0.0831
 6526TIP3    H119521   3.917   2.679   4.229 -2.1121 -1.0721  0.5178
 6526TIP3    H219522   3.964   2.676   4.373  1.1543  1.8528 -0.4197
 6527TIP3   OH219523   3.228   0.800   5.359 -0.3391  0.3764  0.0697
 6527TIP3    H119524   3.159   0.822   5.296  1.1331  0.8382 -1.4053
 6527TIP3    H219525   3.294   0.755   5.307  0.0586 -0.8996  1.6636
 6528TIP3   OH219526   1.550   7.553   0.533 -0.3437 -0.0007  0.2609
 6528TIP3    H119527   1.595   7.480   0.575 -0.6644 -0.0590  0.4984
 6528TIP3    H219528   1.475   7.571   0.589 -0.4229  0.3272  0.0506
 6529TIP3   OH219529   4.233   4.389   3.855  0.2410  0.1638  0.2716
 6529TIP3    H119530   4.155   4.383   3.911 -0.8120  1.3368 -1.0196
 6529TIP3    H219531   4.211   4.457   3.791  1.9813 -0.1378 -0.6764
 6530TIP3   OH219532   3.762   1.630   5.840 -0.4886 -0.0033  0.6469
 6530TIP3    H119533   3.713   1.608   5.919 -2.0514 -0.2135 -0.3473
 6530TIP3    H219534   3.708   1.696   5.796  0.5812  0.4446 -0.0138
 6531TIP3   OH219535   2.836   2.028   4.287  0.4570  0.2816  0.3752
 6531TIP3    H119536   2.837   2.070   4.201 -0.2695 -0.4802 -0.0242
 6531TIP3    H219537   2.921   1.985   4.295 -0.5119 -2.0199 -1.1976
 6532TIP3   OH219538   2.709   0.034   2.749  0.3316 -0.1382  0.4923
 6532TIP3    H119539   2.655   0.055   2.826 -0.1802  0.1589  0.0588
 6532TIP3    H219540   2.773  -0.030   2.781  0.3865  0.2967  1.2632
 6533TIP3   OH219541   3.624   3.209   6.488 -0.0392 -0.5187  0.0517
 6533TIP3    H119542   3.552   3.272   6.495 -0.0312 -0.7056  2.0379
 6533TIP3    H219543   3.586   3.125   6.512  0.2396 -1.0761 -1.4161
 6534TIP3   OH219544   5.306   2.870   5.249  0.0160  0.2212  0.6930
 6534TIP3    H119545   5.363   2.889   5.175 -1.0066 -0.9727 -0.4264
 6534TIP3    H219546   5.263   2.954   5.269  0.2034  0.5126 -0.1479
 6535TIP3   OH219547   3.539   1.435   5.669  0.1190  0.7610 -0.1318
 6535TIP3    H119548   3.488   1.423   5.749  2.4502 -0.1083  1.2761
 6535TIP3    H219549   3.490   1.499   5.618 -2.0006  0.4395  1.4688
 6536TIP3   OH219550   1.349   4.033   6.602  0.3206  0.1357  0.1548
 6536TIP3    H119551   1.339   4.040   6.696  0.0523 -1.3786  0.2448
 6536TIP3    H219552   1.277   4.085   6.566 -0.3749 -0.4040  0.7722
 6537TIP3   OH219553   5.063   6.648   0.646  0.4167 -0.8261 -0.0571
 6537TIP3    H119554   5.049   6.604   0.730  1.3451 -1.1116 -0.0527
 6537TIP3    H219555   5.086   6.738   0.670 -0.9199 -0.4687 -0.0536
 6538TIP3   OH219556   0.790   3.284   3.331 -0.3929  0.2881  0.5999
 6538TIP3    H119557   0.740   3.355   3.371 -2.5086 -0.1857 -1.1078
 6538TIP3    H219558   0.750   3.204   3.366 -0.8630 -0.0936 -0.7595
 6539TIP3   OH219559   1.286   3.640   5.104  0.4798 -0.1088  0.3637
 6539TIP3    H119560   1.281   3.563   5.048  0.3089  0.6998 -0.7317
 6539TIP3    H219561   1.196   3.669   5.114  0.2815 -1.3271  2.6023
 6540TIP3   OH219562   2.282   3.414   6.292 -0.1794  0.1775  0.2265
 6540TIP3    H119563   2.262   3.373   6.207  0.3872 -0.8855  0.5942
 6540TIP3    H219564   2.359   3.468   6.275 -0.9054  1.0913 -0.2514
 6541TIP3   OH219565   2.535   2.182   5.416  0.4605 -0.6955  0.5555
 6541TIP3    H119566   2.460   2.206   5.471  0.4275 -1.8177  1.0110
 6541TIP3    H219567   2.612   2.210   5.467  0.3452  1.7270 -0.5237
 6542TIP3   OH219568   2.520   1.934   3.099 -0.2320  0.1490  0.8458
 6542TIP3    H119569   2.608   1.943   3.064 -0.7012  1.3895 -0.0365
 6542TIP3    H219570   2.524   1.856   3.155  1.6479  0.7225  1.5522
 6543TIP3   OH219571   2.689   3.776   3.920 -0.6674  0.3148  0.1995
 6543TIP3    H119572   2.766   3.733   3.884  1.0655  2.7416  0.8302
 6543TIP3    H219573   2.724   3.848   3.973 -3.2900 -0.2166  2.7917
 6544TIP3   OH219574   3.037   2.013   3.675 -0.4180  0.1504 -0.9730
 6544TIP3    H119575   3.072   1.926   3.696  0.1338  0.9766  1.7267
 6544TIP3    H219576   2.946   2.010   3.703  0.0802  0.9791  0.8057
 6545TIP3   OH219577   4.299   2.628   4.297 -0.3650  0.3348  1.0288
 6545TIP3    H119578   4.330   2.537   4.306 -1.8998  0.0403  3.9332
 6545TIP3    H219579   4.227   2.622   4.235 -0.0613 -0.3415  0.7272
 6546TIP3   OH219580   4.594   3.669   4.113 -0.6853  0.4489 -0.4923
 6546TIP3    H119581   4.669   3.628   4.069 -1.7778 -0.0123 -1.9832
 6546TIP3    H219582   4.588   3.626   4.198  2.3779  2.3623  0.7738
 6547TIP3   OH219583   4.128   1.370   5.036 -0.3292  0.4797 -0.1133
 6547TIP3    H119584   4.206   1.368   4.980 -0.5100 -0.6737 -0.3383
 6547TIP3    H219585   4.081   1.449   5.010  0.2908  0.6817 -0.6278
 6548TIP3   OH219586   8.338   7.518   3.927 -0.1629  0.3681 -0.1609
 6548TIP3    H119587   8.423   7.552   3.954  0.5260 -0.4813 -1.2015
 6548TIP3    H219588   8.359   7.442   3.873 -1.5683  0.6096 -1.0650
 6549TIP3   OH219589   1.185   0.521   3.318  0.2485 -0.5232  0.4535
 6549TIP3    H119590   1.175   0.440   3.368  0.3379  1.8488  4.5441
 6549TIP3    H219591   1.270   0.513   3.275  0.0768 -2.7471  0.5039
 6550TIP3   OH219592   4.376   1.273   5.075  0.0968 -1.1653 -0.2062
 6550TIP3    H119593   4.287   1.246   5.098  1.5464 -3.6446  2.8336
 6550TIP3    H219594   4.404   1.328   5.147  1.0090 -0.3120 -1.2073
 6551TIP3   OH219595   2.542   2.628   2.554  0.3372 -0.2686  0.5718
 6551TIP3    H119596   2.475   2.560   2.544  0.3509 -0.1893 -0.0756
 6551TIP3    H219597   2.592   2.626   2.472 -1.0846  2.0441 -0.4120
 6552TIP3   OH219598   0.305   4.042   4.000  0.0761  0.2538  0.3430
 6552TIP3    H119599   0.265   3.986   3.934  2.0473 -0.9385  0.0990
 6552TIP3    H219600   0.290   3.996   4.083  0.9816 -0.2580  0.2371
 6553TIP3   OH219601   1.486   2.121   4.008  0.2350 -0.5486  0.2217
 6553TIP3    H119602   1.522   2.209   4.006  1.6992 -1.1132  0.8523
 6553TIP3    H219603   1.463   2.106   4.100 -0.4346 -0.6675  0.0411
 6554TIP3   OH219604   2.392   3.880   4.250  0.3077 -0.4414  0.7309
 6554TIP3    H119605   2.486   3.862   4.249  0.6786  0.7236  5.0455
 6554TIP3    H219606   2.364   3.860   4.340 -3.1249  1.4226  0.1727
 6555TIP3   OH219607   5.063   4.075   5.055  0.7086  0.4301 -0.6164
 6555TIP3    H119608   5.015   4.147   5.095  0.3178 -1.0087  1.6065
 6555TIP3    H219609   5.010   4.050   4.979 -0.7687  0.4817  0.3783
 6556TIP3   OH219610   3.856   1.009   5.288 -0.1344  0.4957  0.1753
 6556TIP3    H119611   3.913   1.081   5.262 -1.0527  1.6548  1.2651
 6556TIP3    H219612   3.768   1.037   5.260 -0.1817 -1.3136 -1.5914
 6557TIP3   OH219613   1.700   1.562   5.835 -0.5388 -0.0426  0.2324
 6557TIP3    H119614   1.610   1.536   5.817 -0.7921  0.4063  0.8461
 6557TIP3    H219615   1.747   1.546   5.753 -0.8108 -1.9090  0.4085
 6558TIP3   OH219616   2.142   4.618   3.573 -0.4976  0.6629  0.7162
 6558TIP3    H119617   2.185   4.643   3.655  1.8979  0.9746 -0.5821
 6558TIP3    H219618   2.178   4.532   3.553 -2.4385 -0.2103  0.8905
 6559TIP3   OH219619   3.206   2.185   5.493  0.1951  0.1391  0.3876
 6559TIP3    H119620   3.296   2.183   5.459 -0.0935 -0.6609 -0.3303
 6559TIP3    H219621   3.179   2.094   5.496 -0.1976  0.2782  1.7046
 6560TIP3   OH219622   3.198   2.292   4.227 -0.4760  0.7031 -0.0762
 6560TIP3    H119623   3.214   2.221   4.289  1.2701  0.7272 -0.4798
 6560TIP3    H219624   3.199   2.250   4.141  0.8257  1.2486 -0.3358
 6561TIP3   OH219625   6.638   5.531   5.292 -0.4615 -0.0833  0.3501
 6561TIP3    H119626   6.563   5.587   5.309  0.1883  1.5845 -2.0078
 6561TIP3    H219627   6.625   5.502   5.201 -0.1716 -2.8221  1.1382
 6562TIP3   OH219628   5.013   2.776   4.247 -0.3279 -0.1341 -0.2141
 6562TIP3    H119629   5.013   2.812   4.158 -0.1669 -1.6788 -0.8501
 6562TIP3    H219630   5.098   2.802   4.283  0.9131 -2.1200 -1.6134
 6563TIP3   OH219631   3.740   1.841   5.546  0.5042 -0.0530 -0.2525
 6563TIP3    H119632   3.658   1.876   5.581  0.3084 -1.2478  0.5418
 6563TIP3    H219633   3.779   1.914   5.498 -0.6872  0.7348 -0.0595
 6564TIP3   OH219634   4.446   3.767   5.094  0.1824  0.7282 -0.3070
 6564TIP3    H119635   4.377   3.812   5.143  1.4822 -0.1511  2.4040
 6564TIP3    H219636   4.419   3.675   5.093  0.7937  0.5417 -0.1153
 6565TIP3   OH219637   4.815   1.516   5.984  0.2847  0.6038 -0.7233
 6565TIP3    H119638   4.858   1.467   6.054  1.0556  1.0829 -0.8425
 6565TIP3    H219639   4.887   1.541   5.925 -0.4753 -0.6687 -2.2306
 6566TIP3   OH219640   5.339   1.800   2.756  0.0864  0.2555 -0.2321
 6566TIP3    H119641   5.281   1.835   2.688  0.8994  0.1947 -0.9715
 6566TIP3    H219642   5.282   1.748   2.813 -0.6115  0.3442 -0.8485
 6567TIP3   OH219643   3.994   4.081   3.887 -0.1384  0.1167  0.6116
 6567TIP3    H119644   3.961   4.066   3.975 -0.4951  0.1605  0.4871
 6567TIP3    H219645   3.939   4.027   3.831  1.3679 -1.4492  0.6130
 6568TIP3   OH219646   3.059   3.865   5.969 -0.0807 -0.1966  0.3027
 6568TIP3    H119647   3.140   3.818   5.950  0.5892  0.7581  0.7267
 6568TIP3    H219648   2.990   3.815   5.925  0.9325 -0.2017 -1.3002
 6569TIP3   OH219649   5.072   3.397   5.274  0.2060 -0.0671  0.4547
 6569TIP3    H119650   5.102   3.403   5.365 -0.6953  1.8831  0.6432
 6569TIP3    H219651   5.146   3.429   5.222 -0.2117  1.3120  0.6872
 6570TIP3   OH219652   5.828   3.753   6.296 -0.1617  0.0177  0.5504
 6570TIP3    H119653   5.908   3.777   6.248  0.2298  0.1967  1.2803
 6570TIP3    H219654   5.757   3.777   6.237  0.3119  0.3800  0.1200
 6571TIP3   OH219655   5.210   1.212   5.964 -0.0513  0.1101  0.5495
 6571TIP3    H119656   5.239   1.151   5.896  0.0767 -0.9320  1.5202
 6571TIP3    H219657   5.210   1.297   5.921  0.6186 -0.4477 -0.5862
 6572TIP3   OH219658   5.231   1.404   4.137 -0.0524  0.3225 -0.5072
 6572TIP3    H119659   5.314   1.450   4.139 -0.5644  1.3369 -1.7482
 6572TIP3    H219660   5.167   1.468   4.169 -0.5896  0.0793 -1.0844
 6573TIP3   OH219661   4.877   0.292   4.763 -0.5597  0.3467 -0.4444
 6573TIP3    H119662   4.887   0.229   4.834 -2.3228 -0.3349 -0.7726
 6573TIP3    H219663   4.923   0.370   4.794 -1.9219  0.3201  1.8022
 6574TIP3   OH219664   5.265   0.526   4.806  0.0165  0.0596 -0.4237
 6574TIP3    H119665   5.199   0.493   4.867  0.8072 -0.0103  0.3998
 6574TIP3    H219666   5.219   0.531   4.722 -1.3047  0.9148  0.3377
 6575TIP3   OH219667   5.105   2.105   4.363 -0.4776 -0.0543  0.3823
 6575TIP3    H119668   5.063   2.179   4.407  0.2855  0.1018  0.8540
 6575TIP3    H219669   5.187   2.092   4.411 -0.6030 -1.2040  0.3023
 6576TIP3   OH219670   6.622   2.210   4.040 -0.1693 -0.1363  0.5836
 6576TIP3    H119671   6.717   2.221   4.040 -0.1010 -0.4851  2.9992
 6576TIP3    H219672   6.590   2.280   4.096 -1.1688 -1.2815  1.4635
 6577TIP3   OH219673   4.521   3.606   4.403  0.2622 -0.1469  0.2811
 6577TIP3    H119674   4.454   3.664   4.438 -0.6096 -1.0312  0.0964
 6577TIP3    H219675   4.568   3.575   4.480  2.6138  2.9948  0.2342
 6578TIP3   OH219676   2.968   2.342   3.842 -0.3522 -0.0310  0.4018
 6578TIP3    H119677   2.953   2.436   3.849  0.9959  0.1245  1.3141
 6578TIP3    H219678   2.929   2.318   3.758  0.4781  1.5971 -0.4818
 6579TIP3   OH219679   4.442   2.793   3.725  0.7304  0.3947  0.1900
 6579TIP3    H119680   4.434   2.795   3.629 -0.1828  1.9236  0.2955
 6579TIP3    H219681   4.375   2.853   3.756 -0.0783 -1.3449  1.8791
 6580TIP3   OH219682   7.407   1.724   4.692  0.6543 -0.2546  0.2702
 6580TIP3    H119683   7.466   1.693   4.622 -0.0670  0.6932 -0.7774
 6580TIP3    H219684   7.436   1.677   4.770  3.3506  0.8204 -0.0231
 6581TIP3   OH219685   1.951   3.787   4.537  0.2687 -0.2869  0.3409
 6581TIP3    H119686   1.867   3.757   4.502 -1.3745  2.6330  1.6228
 6581TIP3    H219687   1.972   3.865   4.487  0.7003  0.7043  2.0232
 6582TIP3   OH219688   6.109   0.172   5.380  0.2008 -0.0314 -0.0966
 6582TIP3    H119689   6.108   0.230   5.304  1.4870  0.4226  0.2223
 6582TIP3    H219690   6.030   0.119   5.371 -0.1228  0.6378 -1.2666
 6583TIP3   OH219691   4.901   1.901   2.687  0.0854 -0.4858  0.5790
 6583TIP3    H119692   4.992   1.915   2.661  0.7360 -0.6144  2.6923
 6583TIP3    H219693   4.900   1.814   2.727 -0.6056  0.1829  2.0666
 6584TIP3   OH219694   4.160   4.194   3.464  0.3840  0.4956 -0.7183
 6584TIP3    H119695   4.069   4.208   3.438 -0.1033 -0.9142  0.2012
 6584TIP3    H219696   4.164   4.102   3.488  2.9418 -0.4325 -4.2591
 6585TIP3   OH219697   7.718   1.647   3.659  0.0401 -0.1907 -0.0603
 6585TIP3    H119698   7.690   1.665   3.569  1.1523  1.4591 -0.1022
 6585TIP3    H219699   7.780   1.574   3.650  0.1952  0.0032 -0.6405
 6586TIP3   OH219700   0.632   7.658   4.506 -0.1125 -0.3750 -0.1159
 6586TIP3    H119701   0.698   7.695   4.447  1.1853  1.5143  2.3679
 6586TIP3    H219702   0.564   7.725   4.510  0.5120  0.1920  1.5999
 6587TIP3   OH219703   4.376   3.851   4.174  0.4993 -0.4506 -0.3636
 6587TIP3    H119704   4.328   3.870   4.093  1.3207  2.4218 -0.2501
 6587TIP3    H219705   4.440   3.784   4.148 -0.4705 -0.9173 -1.6344
 6588TIP3   OH219706   2.451   2.699   3.311  0.2414 -0.4811  0.4785
 6588TIP3    H119707   2.367   2.744   3.312  0.3642 -0.2521  0.5444
 6588TIP3    H219708   2.442   2.633   3.242  0.8510  1.1863 -1.2818
 6589TIP3   OH219709   5.521   3.974   5.624 -0.5965 -0.2761 -0.1211
 6589TIP3    H119710   5.503   4.000   5.715 -0.0401  1.3367 -0.4615
 6589TIP3    H219711   5.615   3.987   5.614 -0.6926 -0.2554 -0.9963
 6590TIP3   OH219712   6.081   1.995   3.658 -0.0507 -0.0715 -0.1137
 6590TIP3    H119713   6.011   2.060   3.651 -1.6679 -1.6924  0.6743
 6590TIP3    H219714   6.036   1.912   3.673  1.9709 -1.4295 -1.3067
 6591TIP3   OH219715   1.604   6.922   0.594 -0.1074 -0.1133 -0.0774
 6591TIP3    H119716   1.530   6.864   0.608  0.9716 -1.4651  0.0762
 6591TIP3    H219717   1.576   6.981   0.524 -2.1122  0.7591  1.4330
 6592TIP3   OH219718   6.174   4.720   3.963  0.1344 -0.6269 -0.1486
 6592TIP3    H119719   6.232   4.652   3.928  1.3266 -0.0674  0.6999
 6592TIP3    H219720   6.110   4.673   4.015  0.8193 -1.1190  0.2498
 6593TIP3   OH219721   6.909   3.807   5.639  0.3495 -0.0031  0.2658
 6593TIP3    H119722   6.920   3.808   5.734 -0.2608  0.4610  0.3345
 6593TIP3    H219723   6.998   3.817   5.605  0.6567 -0.9413  0.7825
 6594TIP3   OH219724   3.988   1.962   5.672 -0.1665 -0.0948  0.3248
 6594TIP3    H119725   3.962   2.000   5.588  0.7191  1.4317  0.7181
 6594TIP3    H219726   4.042   1.887   5.648 -0.2012  0.1294 -0.4755
 6595TIP3   OH219727   1.557   1.604   4.071  0.0890  0.3250 -0.1177
 6595TIP3    H119728   1.525   1.655   3.997 -0.6586  1.5068  0.9997
 6595TIP3    H219729   1.651   1.596   4.057  0.0196  0.9683 -0.9393
 6596TIP3   OH219730   5.155   4.251   5.608  0.5778  0.0849 -0.1656
 6596TIP3    H119731   5.158   4.344   5.586  0.2759  0.0590 -0.3149
 6596TIP3    H219732   5.172   4.207   5.525  1.9340  0.0238  0.1371
 6597TIP3   OH219733   3.275   3.213   4.742  0.4603 -0.0092  0.3208
 6597TIP3    H119734   3.209   3.176   4.800  0.2972 -1.3905 -0.7243
 6597TIP3    H219735   3.287   3.302   4.773  0.3993 -0.7409  2.5049
 6598TIP3   OH219736   4.581   3.195   4.264  1.0001 -0.2176  0.0135
 6598TIP3    H119737   4.521   3.244   4.321  1.9311  1.3784 -0.3292
 6598TIP3    H219738   4.667   3.204   4.306  1.3978 -0.4642 -0.7362
 6599TIP3   OH219739   4.396   0.840   5.640 -0.2014 -0.6706 -0.2638
 6599TIP3    H119740   4.378   0.922   5.594  0.8727  0.1354  0.7366
 6599TIP3    H219741   4.423   0.779   5.571 -1.0776 -0.2220 -1.0147
 6600TIP3   OH219742   6.875   1.538   3.622  0.5818  0.0869  0.0368
 6600TIP3    H119743   6.824   1.605   3.576  0.2436 -0.0734  0.1742
 6600TIP3    H219744   6.966   1.567   3.613  0.5029  0.1577 -0.5694
 6601TIP3   OH219745   4.324   2.190   5.883 -0.6547 -0.1564  0.3831
 6601TIP3    H119746   4.391   2.255   5.908  0.2016 -1.1864  0.7928
 6601TIP3    H219747   4.243   2.223   5.922 -0.2550  0.7459  0.4667
 6602TIP3   OH219748   6.086   3.112   5.360 -0.3777  0.2051 -0.0450
 6602TIP3    H119749   6.156   3.096   5.422 -3.3306 -2.2892  2.8494
 6602TIP3    H219750   6.099   3.047   5.291 -0.4924 -1.0080  1.0744
 6603TIP3   OH219751   4.532   2.027   5.417  0.2682  0.2237  0.3906
 6603TIP3    H119752   4.461   1.970   5.444  0.5806 -0.0181  0.6984
 6603TIP3    H219753   4.493   2.084   5.350 -0.1415 -0.0820  0.3703
 6604TIP3   OH219754   5.750   1.511   3.358 -0.0428  0.2155 -0.0596
 6604TIP3    H119755   5.820   1.517   3.294 -2.7100 -0.6832 -3.1893
 6604TIP3    H219756   5.711   1.424   3.343  0.0835 -0.5843  3.7040
 6605TIP3   OH219757   2.711   1.349   2.317 -0.1796  0.0157 -0.0800
 6605TIP3    H119758   2.685   1.273   2.370 -0.2030 -0.1326 -0.3028
 6605TIP3    H219759   2.791   1.381   2.359 -0.2324 -0.0629  0.0829
 6606TIP3   OH219760   4.772   3.645   5.244 -0.4623  0.3350  0.3533
 6606TIP3    H119761   4.802   3.561   5.209  0.1848  1.0197 -0.7783
 6606TIP3    H219762   4.819   3.655   5.326 -1.7930 -1.1762  1.3246
 6607TIP3   OH219763   3.837   3.010   4.854 -0.2444  0.7125  0.1220
 6607TIP3    H119764   3.750   3.021   4.816 -0.0211  1.4177 -0.1816
 6607TIP3    H219765   3.897   3.028   4.782  0.1527 -1.0018 -0.0081
 6608TIP3   OH219766   4.275   3.322   5.880  0.1306 -0.3614 -0.7386
 6608TIP3    H119767   4.232   3.238   5.892 -1.5163  0.3851 -1.2694
 6608TIP3    H219768   4.310   3.343   5.966  0.4621 -1.5396 -0.5784
 6609TIP3   OH219769   5.426   2.930   5.798  0.2910  0.8233  0.4633
 6609TIP3    H119770   5.381   2.847   5.815 -1.8792  1.8368 -0.1914
 6609TIP3    H219771   5.385   2.992   5.857  1.3979  1.6233  0.4142
 6610TIP3   OH219772   4.724   2.998   4.902 -0.6127 -0.1883  0.3854
 6610TIP3    H119773   4.818   3.015   4.889 -0.8433  1.9861  1.3971
 6610TIP3    H219774   4.719   2.904   4.916  1.3835 -0.3953 -0.0636
 6611TIP3   OH219775   5.831   2.056   2.882 -0.1629  0.4280  0.1597
 6611TIP3    H119776   5.773   1.997   2.931 -0.1221 -1.4513 -1.9622
 6611TIP3    H219777   5.890   1.997   2.835  0.7299  2.2163 -0.9946
 6612TIP3   OH219778   0.997   2.265   3.558  0.4224 -0.7295  0.1943
 6612TIP3    H119779   1.060   2.259   3.486 -0.2239  1.0512 -0.5530
 6612TIP3    H219780   1.035   2.212   3.628  2.0808 -0.7792 -0.7254
 6613TIP3   OH219781   5.012   3.375   3.095  0.5005 -0.0775 -0.5527
 6613TIP3    H119782   5.079   3.396   3.160  0.5126  1.1261 -0.9281
 6613TIP3    H219783   4.931   3.368   3.145  0.1341  2.8939 -0.5949
 6614TIP3   OH219784   5.092   0.401   4.969  0.3415  0.2851 -0.0263
 6614TIP3    H119785   5.034   0.353   5.029  0.4435 -1.4186 -1.2389
 6614TIP3    H219786   5.141   0.461   5.025  0.1672 -1.0161  1.5550
 6615TIP3   OH219787   6.471   2.720   5.383 -0.0984 -0.2245  0.2606
 6615TIP3    H119788   6.386   2.676   5.380  0.1205 -0.7848  1.7826
 6615TIP3    H219789   6.477   2.767   5.300 -1.4652 -0.9802 -0.2773
 6616TIP3   OH219790   4.253   2.104   6.794  0.0102  0.0215 -0.2486
 6616TIP3    H119791   4.217   2.015   6.790 -1.6541  0.7159 -1.3508
 6616TIP3    H219792   4.287   2.112   6.883  0.0202 -1.6687 -0.0865
 6617TIP3   OH219793   3.866   1.992   5.343  0.4863  0.1528 -0.0791
 6617TIP3    H119794   3.866   2.076   5.299 -0.2251 -0.0660 -0.5048
 6617TIP3    H219795   3.917   1.935   5.286  2.4270  0.7113  1.0454
 6618TIP3   OH219796   6.410   7.920   0.091 -0.4031  0.2913  0.1988
 6618TIP3    H119797   6.378   7.962   0.011 -0.3509 -1.4821 -0.7790
 6618TIP3    H219798   6.502   7.902   0.073  0.1832  1.8769  1.5248
 6619TIP3   OH219799   4.410   3.970   6.882 -0.2950 -0.0435 -0.1588
 6619TIP3    H119800   4.451   3.984   6.796 -0.6214 -0.4480 -0.3812
 6619TIP3    H219801   4.353   4.046   6.894 -1.1426 -0.5614 -0.8270
 6620TIP3   OH219802   6.512   0.312   3.226 -0.2835 -0.0419  0.5923
 6620TIP3    H119803   6.608   0.313   3.222 -0.2280  0.4754  1.7898
 6620TIP3    H219804   6.485   0.261   3.150  0.9044  0.8663 -0.4660
 6621TIP3   OH219805   6.131   2.373   4.096  0.4900 -0.2137 -0.5221
 6621TIP3    H119806   6.150   2.302   4.035 -0.5570 -1.0712  0.1369
 6621TIP3    H219807   6.200   2.438   4.080 -0.0560 -0.1919 -2.9685
 6622TIP3   OH219808   4.928   3.505   4.897  0.2336  0.2782  0.9336
 6622TIP3    H119809   4.858   3.473   4.954  0.5856  0.9819  1.7647
 6622TIP3    H219810   4.952   3.591   4.933 -0.1264  1.1248 -0.7608
 6623TIP3   OH219811   3.170   1.090   5.675 -0.5056 -0.2379  0.0019
 6623TIP3    H119812   3.105   1.087   5.605 -0.7690 -0.6930  0.2604
 6623TIP3    H219813   3.146   1.017   5.732  0.1187 -0.2864  0.2012
 6624TIP3   OH219814   4.286   2.173   5.616  0.3810 -0.3359 -0.0027
 6624TIP3    H119815   4.281   2.208   5.705 -0.7835 -0.6517  0.0606
 6624TIP3    H219816   4.340   2.094   5.624 -0.3337 -0.7742  0.5559
 6625TIP3   OH219817   5.795   3.988   5.518  0.4816  0.0965 -0.2228
 6625TIP3    H119818   5.806   4.082   5.534 -0.9340 -0.0692  2.0475
 6625TIP3    H219819   5.794   3.980   5.423 -0.2691  2.5113 -0.4668
 6626TIP3   OH219820   3.948   2.693   6.273  0.8489  0.0537  0.2810
 6626TIP3    H119821   3.921   2.768   6.221  0.2284 -0.2399  0.1767
 6626TIP3    H219822   3.976   2.731   6.357  0.0806  0.3632  0.4025
 6627TIP3   OH219823   3.754   1.296   5.925  0.1351  0.1407 -0.1843
 6627TIP3    H119824   3.847   1.299   5.947  0.2870 -0.8651 -0.6602
 6627TIP3    H219825   3.732   1.387   5.901  1.1559  0.2460 -0.7490
 6628TIP3   OH219826   2.359   2.023   2.743  0.3451 -0.3330 -0.0232
 6628TIP3    H119827   2.311   1.943   2.764  1.7952 -0.3390  3.6445
 6628TIP3    H219828   2.447   1.993   2.721  0.4690  0.1453 -0.1865
 6629TIP3   OH219829   5.231   4.319   4.558 -0.5052 -0.6320  0.1634
 6629TIP3    H119830   5.251   4.382   4.627  1.7832 -1.3603  0.2251
 6629TIP3    H219831   5.283   4.348   4.483 -0.9889 -1.3046 -0.4446
 6630TIP3   OH219832   4.029   2.998   3.360  0.3485 -0.2497  0.2157
 6630TIP3    H119833   3.967   3.045   3.417  1.6598  1.1143  0.5640
 6630TIP3    H219834   4.112   3.044   3.373  0.5520  0.5062 -3.2635
 6631TIP3   OH219835   4.575   1.412   4.951 -0.4573  0.3737 -0.2273
 6631TIP3    H119836   4.519   1.462   4.891 -0.4377  1.1745  0.4082
 6631TIP3    H219837   4.514   1.373   5.014 -0.4126  0.1880 -0.2997
 6632TIP3   OH219838   4.734   1.241   3.325 -0.0135  0.0125  0.5114
 6632TIP3    H119839   4.719   1.152   3.293 -0.0938  0.2342 -0.0731
 6632TIP3    H219840   4.821   1.238   3.365 -0.1090 -0.3825  0.6927
 6633TIP3   OH219841   2.343   7.450   5.771 -0.1553  0.5800 -0.5955
 6633TIP3    H119842   2.347   7.477   5.679 -0.1612  0.0380 -0.7559
 6633TIP3    H219843   2.321   7.530   5.818  0.3796  0.9736 -1.0102
 6634TIP3   OH219844   4.806   1.146   3.048 -0.6569  0.4352 -0.0135
 6634TIP3    H119845   4.776   1.147   2.957 -0.0999  2.6462 -0.2072
 6634TIP3    H219846   4.773   1.064   3.083 -1.1587 -0.3008 -2.1198
 6635TIP3   OH219847   5.293   3.182   5.218  0.2722  0.0272 -0.0653
 6635TIP3    H119848   5.333   3.222   5.296  1.6224  0.4211 -0.9411
 6635TIP3    H219849   5.329   3.232   5.145  1.5184 -2.3900 -1.1382
 6636TIP3   OH219850   5.673   2.992   2.990 -0.1373 -0.2561 -0.0277
 6636TIP3    H119851   5.599   3.012   3.047 -0.0936  1.2140 -0.4761
 6636TIP3    H219852   5.636   2.983   2.903  0.0538 -0.6404 -0.0698
 6637TIP3   OH219853   5.937   5.236   4.267  0.4400 -0.1887 -0.2111
 6637TIP3    H119854   5.947   5.248   4.173 -2.0913 -0.7693 -0.6054
 6637TIP3    H219855   5.943   5.141   4.280  3.4383  0.0735  0.5978
 6638TIP3   OH219856   4.526   2.006   4.281 -0.1134  0.2300  0.3580
 6638TIP3    H119857   4.545   2.025   4.372 -0.6200  0.0543  0.5053
 6638TIP3    H219858   4.604   1.962   4.248  0.0165  0.1736  0.7443
 6639TIP3   OH219859   3.674   3.524   3.750  0.1417 -0.0851 -0.3318
 6639TIP3    H119860   3.630   3.490   3.828 -0.3245  0.8039 -0.2007
 6639TIP3    H219861   3.721   3.601   3.781 -0.2616  0.4265 -0.9818
 6640TIP3   OH219862   4.455   3.201   5.691  0.0554 -0.3576 -0.6400
 6640TIP3    H119863   4.537   3.186   5.738  0.9931  2.1293 -1.3568
 6640TIP3    H219864   4.401   3.252   5.752 -0.3113 -0.5668 -0.7855
 6641TIP3   OH219865   5.450   2.377   4.580  0.6127 -0.1727  0.9894
 6641TIP3    H119866   5.411   2.464   4.573 -1.5720 -1.3063 -1.7213
 6641TIP3    H219867   5.520   2.377   4.515  0.7751 -0.3420  1.1676
 6642TIP3   OH219868   5.774   4.640   5.357 -0.3852  0.2909  1.2086
 6642TIP3    H119869   5.828   4.604   5.288 -0.9595 -1.0049  1.4235
 6642TIP3    H219870   5.709   4.693   5.311  1.3806  2.3160  0.9861
 6643TIP3   OH219871   6.090   1.551   1.906 -0.4599 -0.3594  0.7326
 6643TIP3    H119872   6.031   1.524   1.976  0.3467  0.1369  1.6155
 6643TIP3    H219873   6.107   1.643   1.924 -0.9143 -0.0006 -0.6076
 6644TIP3   OH219874   4.343   3.877   3.787 -0.0485  0.0068 -0.3582
 6644TIP3    H119875   4.303   3.925   3.714 -1.8025 -2.2419 -0.9551
 6644TIP3    H219876   4.378   3.797   3.746 -0.4511 -0.9524  1.1523
 6645TIP3   OH219877   6.226   2.104   4.570  0.2392  0.0740 -0.2997
 6645TIP3    H119878   6.183   2.127   4.488 -0.7736 -0.9982 -0.0843
 6645TIP3    H219879   6.190   2.018   4.593  1.2019 -0.0550  0.7871
 6646TIP3   OH219880   4.441   2.248   3.762 -0.3867  0.1728  0.1607
 6646TIP3    H119881   4.430   2.328   3.711 -1.3075 -0.0801 -0.0606
 6646TIP3    H219882   4.482   2.276   3.844  0.9459  0.6081 -0.6410
 6647TIP3   OH219883   3.601   2.267   3.725  0.2471  0.3782  0.0111
 6647TIP3    H119884   3.653   2.253   3.646 -0.3908 -0.7300 -0.2274
 6647TIP3    H219885   3.626   2.354   3.756  1.4299  0.2969 -0.7042
 6648TIP3   OH219886   4.081   2.393   4.474  0.5058 -0.4440  0.1887
 6648TIP3    H119887   4.098   2.349   4.390  2.0129  0.2708  0.1027
 6648TIP3    H219888   4.072   2.485   4.451 -0.1068 -0.3779  0.6907
 6649TIP3   OH219889   4.939   3.033   6.813  0.8358  0.8090  0.2937
 6649TIP3    H119890   5.024   3.031   6.857  0.8929 -1.3182  0.1395
 6649TIP3    H219891   4.881   2.984   6.870 -0.0070  1.2338 -0.1892
 6650TIP3   OH219892   3.979   3.956   5.306 -0.1689  0.2220  0.5434
 6650TIP3    H119893   4.038   3.883   5.294  1.7977  1.5472  1.8869
 6650TIP3    H219894   3.945   3.946   5.395 -0.8449  0.2807  0.2989
 6651TIP3   OH219895   0.055   7.660   0.834  0.4389 -0.1508  0.5863
 6651TIP3    H119896   0.026   7.749   0.853  0.0891 -0.2008  0.3112
 6651TIP3    H219897   0.144   7.670   0.801 -0.0814  0.2375 -0.7550
 6652TIP3   OH219898   7.124   2.014   3.819  0.0240  0.1618 -1.0116
 6652TIP3    H119899   7.161   2.087   3.769  1.0789  1.4702  1.6065
 6652TIP3    H219900   7.175   1.938   3.792  2.6954  1.4181  0.3187
 6653TIP3   OH219901   4.274   1.509   5.439  0.6877  0.0974 -0.0965
 6653TIP3    H119902   4.222   1.589   5.430 -0.7947 -0.9934 -1.5034
 6653TIP3    H219903   4.259   1.481   5.529 -0.4417  0.2967 -0.2137
 6654TIP3   OH219904   6.579   1.701   2.868 -0.3072  0.5477  0.5208
 6654TIP3    H119905   6.651   1.652   2.829 -0.5811  1.0312 -0.6269
 6654TIP3    H219906   6.505   1.640   2.868  0.2343 -0.1505  2.2579
 6655TIP3   OH219907   5.715   1.327   5.208  0.1774 -0.3750  0.5914
 6655TIP3    H119908   5.751   1.358   5.126  0.4177 -0.0238  0.8300
 6655TIP3    H219909   5.766   1.249   5.229 -2.4821 -2.8270 -1.6112
 6656TIP3   OH219910   5.490   3.031   4.720 -0.5044 -0.2227  0.1576
 6656TIP3    H119911   5.505   3.047   4.813 -1.0368 -1.2766  0.4343
 6656TIP3    H219912   5.483   3.119   4.682  0.4529  0.2246  0.9776
 6657TIP3   OH219913   4.006   2.001   4.707 -0.1340 -0.4154 -0.3263
 6657TIP3    H119914   4.040   2.090   4.718  1.0853 -1.0341  1.0336
 6657TIP3    H219915   3.916   2.014   4.677 -0.3387  1.2839  0.9298
 6658TIP3   OH219916   3.468   2.585   3.446  0.3613 -0.3522 -0.4255
 6658TIP3    H119917   3.491   2.580   3.539 -0.7728 -0.9509 -0.1693
 6658TIP3    H219918   3.378   2.556   3.442  0.7886 -1.5223 -1.8925
 6659TIP3   OH219919   5.844   4.332   5.883  0.3131 -0.2971  0.1722
 6659TIP3    H119920   5.772   4.280   5.845  1.4276 -1.5554 -0.2747
 6659TIP3    H219921   5.896   4.358   5.807  0.4640  0.4134  0.5186
 6660TIP3   OH219922   2.137   2.824   6.913  0.6194  0.5445  0.4482
 6660TIP3    H119923   2.188   2.745   6.895  1.3181  1.1531 -0.2991
 6660TIP3    H219924   2.188   2.895   6.873 -0.0649  1.3557  0.9985
 6661TIP3   OH219925   4.587   3.899   3.963 -0.5104  0.0876 -0.3877
 6661TIP3    H119926   4.577   3.819   4.014  2.2122 -0.6607 -0.9188
 6661TIP3    H219927   4.530   3.887   3.887 -0.0842 -1.3854 -0.4957
 6662TIP3   OH219928   6.751   2.458   2.276  0.1346  0.2260  0.0339
 6662TIP3    H119929   6.760   2.500   2.190  0.0346 -0.4451 -0.3045
 6662TIP3    H219930   6.839   2.461   2.314 -0.3833  3.1724  1.1528
 6663TIP3   OH219931   5.109   2.547   5.580 -0.0752 -0.2742 -0.4959
 6663TIP3    H119932   5.199   2.526   5.555 -0.3470 -3.2716  0.9501
 6663TIP3    H219933   5.102   2.523   5.672 -1.9724  1.2731 -0.1883
 6664TIP3   OH219934   4.038   2.855   2.635 -0.8224  0.2110 -0.1014
 6664TIP3    H119935   4.065   2.795   2.705 -2.7515 -1.9207 -1.1423
 6664TIP3    H219936   3.957   2.894   2.666 -1.8314 -0.9431 -1.2187
 6665TIP3   OH219937   3.517   2.070   4.320 -0.5534 -0.2096  0.7408
 6665TIP3    H119938   3.560   2.135   4.265  0.2402  0.8132  2.5237
 6665TIP3    H219939   3.571   1.991   4.311 -0.3979 -0.0295  0.0973
 6666TIP3   OH219940   4.950   1.999   5.059  0.0373 -0.3358 -0.0212
 6666TIP3    H119941   5.004   2.016   5.136 -0.9984  1.0917  0.4091
 6666TIP3    H219942   4.893   1.927   5.086  1.5860 -1.7328 -0.4211
 6667TIP3   OH219943   3.911   3.607   3.411 -0.0082 -0.2987  0.3873
 6667TIP3    H119944   3.872   3.660   3.341  1.1229 -1.2610 -1.0090
 6667TIP3    H219945   3.843   3.544   3.435 -0.5401  0.2847  0.4241
 6668TIP3   OH219946   4.171   4.579   3.647  0.2332  0.1273 -0.2614
 6668TIP3    H119947   4.213   4.629   3.577  1.7102  0.1670  0.6291
 6668TIP3    H219948   4.134   4.646   3.705  1.2723  0.1820  0.3575
 6669TIP3   OH219949   3.028   3.678   2.551 -0.4026 -0.1468  0.3356
 6669TIP3    H119950   2.977   3.599   2.532  0.5501 -0.7359  0.2013
 6669TIP3    H219951   3.086   3.688   2.476 -1.2368  1.2868 -0.1457
 6670TIP3   OH219952   3.462   3.571   3.978  0.3161 -0.7533 -0.0495
 6670TIP3    H119953   3.466   3.585   4.073 -2.3812 -2.0174  0.3078
 6670TIP3    H219954   3.494   3.482   3.966 -3.2925 -2.1792  0.2215
 6671TIP3   OH219955   2.900   7.651   5.256 -0.2174  0.3043 -0.3823
 6671TIP3    H119956   2.942   7.685   5.335 -0.1500 -2.6437  0.9073
 6671TIP3    H219957   2.943   7.697   5.184  0.9316  1.7645  1.1890
 6672TIP3   OH219958   4.615   0.093   5.404  0.5658  0.0099  0.2709
 6672TIP3    H119959   4.594   0.047   5.323  1.9478  0.7912 -0.5474
 6672TIP3    H219960   4.710   0.082   5.414  0.5894  0.9621  1.1250
 6673TIP3   OH219961   4.627   4.469   2.769 -0.1201 -0.0552 -0.6945
 6673TIP3    H119962   4.587   4.438   2.851 -0.2350 -0.1314 -0.7788
 6673TIP3    H219963   4.616   4.396   2.708 -0.7022  0.2739 -0.9954
 6674TIP3   OH219964   5.432   1.533   3.653 -0.0857 -0.2196  0.2994
 6674TIP3    H119965   5.349   1.571   3.683  0.1359  0.7720 -0.2952
 6674TIP3    H219966   5.499   1.595   3.682  0.0765  1.1377 -2.7524
 6675TIP3   OH219967   5.222   2.070   3.741 -0.2644 -0.4176  0.3098
 6675TIP3    H119968   5.278   2.014   3.794 -0.9309 -0.9403  0.4739
 6675TIP3    H219969   5.194   2.139   3.801 -2.4452 -1.9861  1.1574
 6676TIP3   OH219970   2.345   7.967   3.937 -0.0670  0.0278 -0.3657
 6676TIP3    H119971   2.331   8.042   3.994  1.5112  0.1880 -0.1500
 6676TIP3    H219972   2.308   7.994   3.853 -0.3072  0.6991 -0.0489
 6677TIP3   OH219973   3.971   2.173   3.791 -0.6577  0.5888  0.4589
 6677TIP3    H119974   4.059   2.194   3.823  0.0777  0.0935 -1.1904
 6677TIP3    H219975   3.939   2.256   3.756 -0.6618  0.6670  0.6488
 6678TIP3   OH219976   3.226   0.810   4.345 -0.3108 -0.3129  0.0432
 6678TIP3    H119977   3.221   0.883   4.284 -2.0092  0.3769  0.9792
 6678TIP3    H219978   3.164   0.745   4.310 -1.7126  0.3207  1.3216
 6679TIP3   OH219979   4.624   0.746   3.999 -0.1014 -0.2483  0.1752
 6679TIP3    H119980   4.702   0.795   3.973  1.6431 -1.6519  2.5781
 6679TIP3    H219981   4.552   0.808   3.985  1.2600  0.7184 -3.0936
 6680TIP3   OH219982   3.678   7.336   5.449  0.3950  0.6058 -0.3008
 6680TIP3    H119983   3.596   7.306   5.409  0.1027 -0.5032  1.0723
 6680TIP3    H219984   3.657   7.421   5.487 -0.2276  0.1600  0.3661
 6681TIP3   OH219985   5.282   1.708   3.806 -0.1949  0.2641  0.3609
 6681TIP3    H119986   5.360   1.763   3.817  0.2364 -0.0242 -1.1410
 6681TIP3    H219987   5.255   1.723   3.715 -0.9432 -0.8755  0.3842
 6682TIP3   OH219988   3.698   1.563   1.715  0.0904 -0.0551  0.1827
 6682TIP3    H119989   3.706   1.514   1.797 -0.6342  1.8529  1.4136
 6682TIP3    H219990   3.642   1.637   1.736 -0.1405  0.4582 -2.0601
 6683TIP3   OH219991   1.899   2.656   4.696 -0.2034  0.1007 -0.0632
 6683TIP3    H119992   1.885   2.726   4.760 -0.3526  1.8682 -1.9828
 6683TIP3    H219993   1.992   2.636   4.703 -0.2966 -0.0369  0.9941
 6684TIP3   OH219994   3.317   2.530   5.652  0.5699 -0.1737  0.1082
 6684TIP3    H119995   3.326   2.575   5.736  0.9020  1.1057 -0.6080
 6684TIP3    H219996   3.230   2.489   5.657 -0.4939  1.9731  0.1163
 6685TIP3   OH219997   3.192   1.017   3.285  0.1798 -0.5327 -0.0491
 6685TIP3    H119998   3.174   0.996   3.193  2.4831 -0.2577 -0.5709
 6685TIP3    H219999   3.261   0.957   3.311  0.2933  0.1142  1.1825
 6686TIP3   OH220000   4.929   1.766   5.549 -0.3525 -0.1209 -0.5172
 6686TIP3    H120001   5.000   1.726   5.498 -0.3959  0.2559 -0.8832
 6686TIP3    H220002   4.962   1.854   5.568 -0.2131 -0.3652  0.3667
 6687TIP3   OH220003   7.252   2.988   6.461 -0.6112 -0.2998 -0.2437
 6687TIP3    H120004   7.315   3.026   6.523 -0.3064 -2.4473  0.8061
 6687TIP3    H220005   7.167   3.005   6.500 -0.5791  0.6240 -0.5497
 6688TIP3   OH220006   5.254   3.497   3.307 -0.1264 -0.1064 -0.1933
 6688TIP3    H120007   5.202   3.486   3.387 -1.2338 -1.0292 -1.0173
 6688TIP3    H220008   5.269   3.591   3.302 -0.5751  0.0318  0.7681
 6689TIP3   OH220009   6.066   4.130   5.349 -0.0249  0.3650  0.1051
 6689TIP3    H120010   5.973   4.143   5.327 -0.0340  0.5584  0.2528
 6689TIP3    H220011   6.106   4.103   5.267 -0.2497  0.0939  0.0844
 6690TIP3   OH220012   5.122   4.176   3.116 -0.2211 -0.0630 -0.0382
 6690TIP3    H120013   5.107   4.187   3.022  0.8212  3.1085  0.0962
 6690TIP3    H220014   5.214   4.199   3.128 -0.7423  1.0851  1.9721
 6691TIP3   OH220015   4.909   2.298   3.348  0.1221 -0.2652 -0.3154
 6691TIP3    H120016   4.950   2.237   3.410  0.9868  1.3070  0.7094
 6691TIP3    H220017   4.881   2.372   3.402 -0.4808  0.4648 -1.5967
 6692TIP3   OH220018   2.476   2.655   3.580 -0.5992  0.1357  0.2484
 6692TIP3    H120019   2.535   2.727   3.600 -3.2178  2.4239 -0.0728
 6692TIP3    H220020   2.456   2.665   3.487  0.7218 -2.3320 -0.3499
 6693TIP3   OH220021   4.730   3.257   5.359 -0.1385 -0.5762 -0.3422
 6693TIP3    H120022   4.769   3.261   5.447  0.4282 -1.1663 -0.5602
 6693TIP3    H220023   4.636   3.250   5.375 -0.0515 -0.5058  0.2196
 6694TIP3   OH220024   3.921   5.234   3.717 -0.3491  0.0237 -0.5164
 6694TIP3    H120025   3.832   5.244   3.683 -1.1601 -0.1906  1.4995
 6694TIP3    H220026   3.913   5.169   3.786  1.4810 -0.3531 -0.6451
 6695TIP3   OH220027   3.961   2.433   5.536 -0.0757  0.2549 -0.0668
 6695TIP3    H120028   4.034   2.388   5.494 -0.3011  1.5305 -1.9147
 6695TIP3    H220029   3.937   2.377   5.610  0.7882 -1.7245 -1.2425
 6696TIP3   OH220030   4.043   2.787   4.779 -0.1461 -0.8004  0.1224
 6696TIP3    H120031   4.084   2.846   4.842  0.0837 -1.5824  0.7173
 6696TIP3    H220032   4.095   2.706   4.785 -1.5012 -1.6474  0.5709
 6697TIP3   OH220033   4.359   1.663   4.059  1.2727  0.5959 -0.1865
 6697TIP3    H120034   4.355   1.584   4.006  1.6939  0.9422 -0.7416
 6697TIP3    H220035   4.281   1.660   4.113  2.5113 -1.4455  1.5777
 6698TIP3   OH220036   4.589   3.579   2.546 -0.2047  0.0865  0.0012
 6698TIP3    H120037   4.607   3.603   2.456  0.4126  0.9735  0.3573
 6698TIP3    H220038   4.649   3.507   2.565 -1.1889 -0.9230 -0.6755
 6699TIP3   OH220039   5.743   1.308   4.428 -0.0519 -0.4152  0.1933
 6699TIP3    H120040   5.758   1.367   4.354 -1.5903  1.0888  1.0531
 6699TIP3    H220041   5.829   1.271   4.447  1.2346  2.6237  0.5174
 6700TIP3   OH220042   4.533   4.252   5.501 -0.5058 -0.3735  0.0548
 6700TIP3    H120043   4.542   4.207   5.417 -0.8630 -1.0839  0.3917
 6700TIP3    H220044   4.472   4.323   5.483 -0.3472 -0.3392 -0.3590
 6701TIP3   OH220045   4.794   1.312   3.991  0.1444  0.3210  0.2060
 6701TIP3    H120046   4.700   1.295   3.990  0.3181 -0.7347  0.8816
 6701TIP3    H220047   4.803   1.397   4.035 -0.2804 -1.2832  3.5759
 6702TIP3   OH220048   4.328   3.529   5.163 -0.8533  0.0651 -0.5453
 6702TIP3    H120049   4.296   3.438   5.163 -0.8014  0.0417 -1.1877
 6702TIP3    H220050   4.408   3.525   5.214 -2.2516  0.2717  1.7052
 6703TIP3   OH220051   3.343   1.540   4.695  1.1410  0.2677 -0.1664
 6703TIP3    H120052   3.399   1.465   4.672  1.0843 -0.4015  1.7757
 6703TIP3    H220053   3.312   1.520   4.783 -0.3274  1.7411 -0.3332
 6704TIP3   OH220054   4.884   1.531   4.354  0.2975  0.0832 -0.0524
 6704TIP3    H120055   4.868   1.516   4.261 -3.6008 -1.4615  0.7515
 6704TIP3    H220056   4.828   1.606   4.376  0.0454 -0.5007  1.3563
 6705TIP3   OH220057   4.361   4.101   6.018 -0.7701  0.6209 -0.1435
 6705TIP3    H120058   4.379   4.104   5.924  2.5457 -3.8129  0.1706
 6705TIP3    H220059   4.438   4.139   6.059 -2.1191  2.3601  0.8237
 6706TIP3   OH220060   5.441   2.080   5.228  0.0441  0.3077  0.1799
 6706TIP3    H120061   5.508   2.145   5.250  0.3699  0.1692 -0.3775
 6706TIP3    H220062   5.370   2.097   5.289  1.6999 -1.3191  2.6647
 6707TIP3   OH220063   2.877   3.948   6.224  0.3358 -0.2893  0.0132
 6707TIP3    H120064   2.935   3.916   6.154  0.9755 -2.1048  1.3248
 6707TIP3    H220065   2.911   3.907   6.304 -0.6806  1.3592  1.3331
 6708TIP3   OH220066   4.168   3.370   6.372  0.3749 -0.1277 -0.0514
 6708TIP3    H120067   4.202   3.407   6.453  1.1082 -0.2236 -0.3006
 6708TIP3    H220068   4.179   3.440   6.308  0.8989 -0.4438 -0.3186
 6709TIP3   OH220069   5.641   1.735   4.418  0.0666 -0.9524  0.4310
 6709TIP3    H120070   5.720   1.763   4.373 -0.1593 -0.8955  0.0724
 6709TIP3    H220071   5.623   1.805   4.481  0.1809 -0.8682  0.3697
 6710TIP3   OH220072   2.231   2.579   4.517  0.0416 -0.0351 -0.2213
 6710TIP3    H120073   2.199   2.668   4.525  1.4993  0.3261  2.1944
 6710TIP3    H220074   2.308   2.586   4.460 -1.0717 -0.0873 -1.7393
 6711TIP3   OH220075   4.395   1.743   6.656 -0.0071  0.5596  0.1051
 6711TIP3    H120076   4.363   1.688   6.728  1.1387  0.6720  0.7242
 6711TIP3    H220077   4.321   1.799   6.634 -0.5114  0.2384  0.9194
 6712TIP3   OH220078   3.948   0.928   5.003  0.1939 -0.0477 -0.2085
 6712TIP3    H120079   4.015   0.970   5.057 -0.5263  0.8732 -0.0218
 6712TIP3    H220080   3.974   0.947   4.913 -0.2799  1.0804 -0.1258
 6713TIP3   OH220081   2.986   1.423   6.938  0.0887  0.2746 -0.8299
 6713TIP3    H120082   2.960   1.426   6.846  1.4922  0.4660 -1.2321
 6713TIP3    H220083   3.039   1.344   6.946 -1.1776 -0.4949  0.1379
 6714TIP3   OH220084   2.479   2.575   5.658  0.4170  0.0080  0.1144
 6714TIP3    H120085   2.565   2.598   5.625  0.0097  0.1353 -0.8687
 6714TIP3    H220086   2.477   2.479   5.654  0.0862  0.0496 -0.9845
 6715TIP3   OH220087   4.021   4.217   5.226 -0.1632  0.4918  0.5421
 6715TIP3    H120088   4.041   4.132   5.264 -0.7178  0.6330  1.1495
 6715TIP3    H220089   3.966   4.261   5.291 -0.4482  1.0490 -0.0677
 6716TIP3   OH220090   4.095   3.435   2.554 -0.3016 -0.0496 -0.2791
 6716TIP3    H120091   4.070   3.365   2.494 -1.3743 -0.5418  0.7235
 6716TIP3    H220092   4.033   3.428   2.626  0.0470  1.4674  0.1857
 6717TIP3   OH220093   3.413   3.154   6.238 -0.6409 -0.2801 -0.2827
 6717TIP3    H120094   3.399   3.180   6.329  0.1095 -0.5044 -0.0939
 6717TIP3    H220095   3.373   3.067   6.232  0.4538 -0.8408  0.2019
 6718TIP3   OH220096   3.802   2.389   4.898  0.2786  0.5252  0.0859
 6718TIP3    H120097   3.785   2.363   4.989  1.2796  0.8665  0.3743
 6718TIP3    H220098   3.825   2.481   4.903  0.0597  0.6167 -0.5550
 6719TIP3   OH220099   6.827   4.235   4.897 -0.5430  0.1487 -0.1109
 6719TIP3    H120100   6.877   4.194   4.826 -0.5550 -3.3144  1.7304
 6719TIP3    H220101   6.736   4.223   4.873 -0.5756  3.0465 -1.6261
 6720TIP3   OH220102   6.010   4.389   5.620 -0.0668 -0.4725 -0.1351
 6720TIP3    H120103   6.013   4.481   5.592  0.5397 -0.5906 -0.4657
 6720TIP3    H220104   6.101   4.360   5.615 -0.3247 -1.2274 -0.5004
 6721TIP3   OH220105   3.951   2.402   0.225  0.2073 -0.3351  0.4475
 6721TIP3    H120106   3.900   2.468   0.177 -0.3037 -1.2166 -0.2263
 6721TIP3    H220107   4.032   2.393   0.175  0.9784  0.9509  1.4317
 6722TIP3   OH220108   5.734   4.743   3.235  0.1094 -0.3552 -0.0683
 6722TIP3    H120109   5.754   4.649   3.239 -0.7628 -0.6279 -1.7368
 6722TIP3    H220110   5.708   4.765   3.325  0.6854 -1.6209  0.4239
 6723TIP3   OH220111   5.585   3.436   4.891 -0.2272 -0.2151 -0.7933
 6723TIP3    H120112   5.654   3.472   4.947 -0.6391 -2.8518  1.5352
 6723TIP3    H220113   5.607   3.344   4.882 -0.7579 -0.0643 -4.2419
 6724TIP3   OH220114   4.407   1.781   4.976  0.3008 -0.8162  0.1890
 6724TIP3    H120115   4.495   1.817   4.959  0.5741 -1.5250  0.1173
 6724TIP3    H220116   4.393   1.717   4.907 -1.0408  0.5963 -0.9047
 6725TIP3   OH220117   5.960   6.718   0.474  0.0828  0.2725 -0.1993
 6725TIP3    H120118   5.892   6.776   0.440  0.1985  0.2937 -0.3909
 6725TIP3    H220119   6.035   6.775   0.488  0.2541  0.1323 -0.5563
 6726TIP3   OH220120   4.505   3.022   4.008 -0.1316  0.2096 -0.0432
 6726TIP3    H120121   4.494   3.076   4.086  3.4358 -1.1605  1.5266
 6726TIP3    H220122   4.420   2.979   3.997 -1.1966  1.6470  2.1378
 6727TIP3   OH220123   6.418   0.708   3.483 -0.0305  0.0675  0.3283
 6727TIP3    H120124   6.431   0.657   3.403 -3.0312 -0.1179 -0.1006
 6727TIP3    H220125   6.500   0.755   3.495  0.6995 -0.3901 -2.5038
 6728TIP3   OH220126   5.275   1.087   4.655  0.2607  0.2332  0.4895
 6728TIP3    H120127   5.296   1.094   4.561  1.1980 -0.3028  0.6458
 6728TIP3    H220128   5.268   1.177   4.685 -3.0893  0.4531 -0.7351
 6729TIP3   OH220129   3.070   2.458   3.325  0.4063 -0.7320 -0.1231
 6729TIP3    H120130   3.075   2.370   3.362 -1.2177 -0.2480  1.3132
 6729TIP3    H220131   3.131   2.457   3.252  2.9331 -2.0393  1.9401
 6730TIP3   OH220132   6.214   4.921   6.511  0.3084  0.3724  0.0037
 6730TIP3    H120133   6.274   4.856   6.547 -0.0739 -0.4814 -0.8781
 6730TIP3    H220134   6.244   4.934   6.421 -1.4476 -0.8481 -0.7881
 6731TIP3   OH220135   5.506   0.583   5.305  0.4728 -0.5626 -0.0472
 6731TIP3    H120136   5.507   0.631   5.222  0.0283 -2.4372 -1.1573
 6731TIP3    H220137   5.415   0.589   5.335  0.8267  0.9040  0.8050
 6732TIP3   OH220138   6.753   1.575   6.112 -0.4072 -0.2914  0.1188
 6732TIP3    H120139   6.845   1.549   6.110 -0.5711 -0.9516  0.9043
 6732TIP3    H220140   6.705   1.495   6.089 -0.7563  0.2477 -1.0665
 6733TIP3   OH220141   6.578   2.171   3.772 -0.2398 -0.0958  0.1076
 6733TIP3    H120142   6.574   2.204   3.861  1.4503  0.4297  0.0153
 6733TIP3    H220143   6.655   2.114   3.771 -1.2870 -1.5268 -0.5619
 6734TIP3   OH220144   4.803   3.414   4.635  0.0069  0.3208  0.2623
 6734TIP3    H120145   4.839   3.369   4.712  0.5447  1.4306  0.6827
 6734TIP3    H220146   4.737   3.473   4.671 -0.2547  0.3112 -0.2069
 6735TIP3   OH220147   5.097   3.193   5.743 -0.1874 -0.0637  0.1201
 6735TIP3    H120148   5.141   3.253   5.804 -2.2740  0.8806  0.7506
 6735TIP3    H220149   5.123   3.106   5.773  4.1324  0.4610 -1.7535
 6736TIP3   OH220150   3.220   4.114   6.006  0.0095  0.1934 -0.3159
 6736TIP3    H120151   3.165   4.036   5.992 -2.7662  2.0517 -0.0997
 6736TIP3    H220152   3.268   4.096   6.087  0.8578 -2.0760 -1.2805
 6737TIP3   OH220153   5.305   4.031   6.651  0.1071 -0.6892  0.2580
 6737TIP3    H120154   5.367   3.963   6.625  1.5826  0.7422 -0.0352
 6737TIP3    H220155   5.357   4.112   6.653 -1.5840  0.4147  0.7141
 6738TIP3   OH220156   6.282   2.616   5.930 -0.1401  0.0849  0.4779
 6738TIP3    H120157   6.240   2.619   5.843 -0.3358 -0.8355  0.5353
 6738TIP3    H220158   6.252   2.696   5.973 -0.1749  0.4709 -0.2432
 6739TIP3   OH220159   4.496   1.595   4.596  0.5310 -0.0770  0.4289
 6739TIP3    H120160   4.589   1.608   4.616  0.3431 -1.0266  2.0552
 6739TIP3    H220161   4.490   1.608   4.502  2.4488 -0.7308  0.1798
 6740TIP3   OH220162   3.498   3.545   5.955  0.0251  0.5357 -0.4011
 6740TIP3    H120163   3.453   3.473   6.000 -1.4319  0.8344 -1.3626
 6740TIP3    H220164   3.586   3.510   5.937 -0.0125 -0.2850  0.9055
 6741TIP3   OH220165   7.912   4.397   5.294  0.2581 -1.0769  0.6153
 6741TIP3    H120166   7.951   4.324   5.342  0.3250 -1.4285  0.0437
 6741TIP3    H220167   7.987   4.451   5.268  0.3778 -1.7263 -0.4404
 6742TIP3   OH220168   5.922   1.773   3.687  0.1478  0.1245 -0.5143
 6742TIP3    H120169   5.948   1.734   3.771 -0.5879 -1.0826 -0.8315
 6742TIP3    H220170   5.976   1.729   3.622 -1.6783 -1.4457 -1.0318
 6743TIP3   OH220171   0.223   7.431   3.306  0.2423 -0.2842 -0.1189
 6743TIP3    H120172   0.178   7.515   3.318  0.8138  0.0794 -0.5267
 6743TIP3    H220173   0.158   7.366   3.331 -0.9998  0.1821 -2.0389
 6744TIP3   OH220174   4.637   1.534   2.314 -0.2783 -0.2340  0.9164
 6744TIP3    H120175   4.728   1.515   2.291 -0.4745 -0.2140  0.1140
 6744TIP3    H220176   4.589   1.530   2.231 -0.5275  2.6238  0.8614
 6745TIP3   OH220177   3.504   1.566   5.224  0.0574 -0.1590  0.0507
 6745TIP3    H120178   3.561   1.581   5.299 -1.7900 -0.4472  1.5386
 6745TIP3    H220179   3.483   1.473   5.228 -2.9912  0.5212  1.3712
 6746TIP3   OH220180   3.946   4.164   4.965  0.1136  0.4287  0.1802
 6746TIP3    H120181   3.955   4.149   5.059 -0.4067 -0.2094  0.1336
 6746TIP3    H220182   3.852   4.159   4.949  0.3426 -1.5158 -0.7041
 6747TIP3   OH220183   3.723   3.103   5.915 -0.0440 -0.1815 -0.0409
 6747TIP3    H120184   3.703   3.115   5.822  0.1080  2.8225  0.2623
 6747TIP3    H220185   3.724   3.008   5.927 -0.2280 -0.6277 -3.0615
 6748TIP3   OH220186   1.912   3.159   0.414 -0.4391  0.6904 -0.4868
 6748TIP3    H120187   1.988   3.113   0.449 -1.5064  0.0050  1.0343
 6748TIP3    H220188   1.947   3.217   0.347  1.3827  0.2355  0.0435
 6749TIP3   OH220189   3.167   3.236   5.471 -0.5582 -0.2519  0.2901
 6749TIP3    H120190   3.151   3.142   5.481 -1.2788 -0.0206  1.4645
 6749TIP3    H220191   3.095   3.277   5.519  1.9711  0.8769  3.2203
 6750TIP3   OH220192   5.844   2.040   4.563  0.2024  0.2996  0.0130
 6750TIP3    H120193   5.906   1.969   4.579 -1.9292 -1.1932  2.1577
 6750TIP3    H220194   5.877   2.113   4.614  0.2058 -0.4926  1.1687
 6751TIP3   OH220195   4.902   5.189   6.084  0.7914  0.0769  0.1248
 6751TIP3    H120196   4.987   5.197   6.127 -0.4162 -1.2024  2.9185
 6751TIP3    H220197   4.884   5.095   6.085 -0.9583  0.3982  0.2137
 6752TIP3   OH220198   5.121   2.223   2.877  0.6401  0.2160  0.2596
 6752TIP3    H120199   5.116   2.245   2.784 -0.1955 -2.8566 -0.4807
 6752TIP3    H220200   5.205   2.179   2.887  1.7337  2.4822  1.4618
 6753TIP3   OH220201   5.385   2.482   5.474  0.2544 -0.2741  0.1370
 6753TIP3    H120202   5.426   2.508   5.391  1.1880 -0.8213  0.4119
 6753TIP3    H220203   5.394   2.387   5.476 -2.4311 -0.5672 -0.4980
 6754TIP3   OH220204   4.469   4.448   4.885  0.5717  0.5258 -0.0345
 6754TIP3    H120205   4.436   4.436   4.974  0.3942  0.8181 -0.0566
 6754TIP3    H220206   4.408   4.399   4.830 -0.5878  2.1005 -0.1970
 6755TIP3   OH220207   3.727   4.295   4.122  0.0420  0.6797 -0.1320
 6755TIP3    H120208   3.742   4.268   4.212 -1.9997  0.9590  0.3192
 6755TIP3    H220209   3.679   4.223   4.082 -1.4583  1.7015 -0.2089
 6756TIP3   OH220210   3.826   1.756   4.679 -0.2434 -0.1496  0.1638
 6756TIP3    H120211   3.784   1.729   4.597  0.9619  0.4084 -0.6561
 6756TIP3    H220212   3.807   1.850   4.685  0.9616  0.1268 -0.2650
 6757TIP3   OH220213   2.266   4.205   4.457 -0.0762 -0.4732  0.0503
 6757TIP3    H120214   2.249   4.299   4.469  1.8042 -0.1392  0.3075
 6757TIP3    H220215   2.252   4.190   4.363 -0.1173  0.1456 -0.0467
 6758TIP3   OH220216   2.750   3.149   2.442 -0.0864  0.3165  0.3135
 6758TIP3    H120217   2.717   3.144   2.532  1.1496 -1.4701  0.6958
 6758TIP3    H220218   2.837   3.110   2.447 -0.1556 -0.1206 -1.7352
 6759TIP3   OH220219   3.449   7.909   4.604 -0.2580 -0.4810  0.2741
 6759TIP3    H120220   3.366   7.862   4.607  0.0208 -1.1473 -1.7199
 6759TIP3    H220221   3.473   7.910   4.512  2.0840 -0.5383  0.8511
 6760TIP3   OH220222   4.726   2.815   3.547 -0.1889  0.2123 -0.3596
 6760TIP3    H120223   4.683   2.851   3.625  1.6771 -0.5789  1.0912
 6760TIP3    H220224   4.664   2.829   3.476 -2.2335  0.3490  1.4100
 6761TIP3   OH220225   5.270   3.515   5.135 -0.0048  0.4319  0.2581
 6761TIP3    H120226   5.363   3.533   5.123  0.3627 -0.9090  0.9969
 6761TIP3    H220227   5.226   3.578   5.079  1.4184 -0.3902 -1.8484
 6762TIP3   OH220228   4.145   0.554   4.143 -0.4700 -0.7908 -0.7183
 6762TIP3    H120229   4.199   0.633   4.143 -0.6597 -0.6340 -2.6993
 6762TIP3    H220230   4.185   0.497   4.208  0.8679  0.1311 -0.7247
 6763TIP3   OH220231   7.496   6.927   4.850 -0.0013  0.5974 -0.3622
 6763TIP3    H120232   7.559   6.950   4.781  0.1640 -0.5282 -0.5960
 6763TIP3    H220233   7.417   6.975   4.827 -0.0925 -0.1079 -1.5980
 6764TIP3   OH220234   7.736   5.691   0.060  0.1751  0.0232  0.2225
 6764TIP3    H120235   7.704   5.772   0.019  2.4273 -0.5404 -2.8114
 6764TIP3    H220236   7.826   5.711   0.085 -0.0456 -0.7972  1.6974
 6765TIP3   OH220237   7.273   1.204   4.893 -0.2893  0.1008  0.1805
 6765TIP3    H120238   7.208   1.239   4.832  0.3602  0.5200 -0.2717
 6765TIP3    H220239   7.261   1.253   4.974 -0.6970  0.0084  0.1759
 6766TIP3   OH220240   2.022   6.037   4.529 -0.3843 -0.1838 -0.5423
 6766TIP3    H120241   2.086   5.995   4.471 -0.9681 -0.5910 -0.8958
 6766TIP3    H220242   1.940   5.991   4.511 -0.9553  0.8779 -0.6677
 6767TIP3   OH220243   2.121   2.640   3.479 -0.0019 -0.4572  0.3958
 6767TIP3    H120244   2.147   2.634   3.387  0.4827 -1.4659  0.5816
 6767TIP3    H220245   2.060   2.713   3.483  1.3716  0.7671 -0.4079
 6768TIP3   OH220246   1.543   7.761   5.058 -0.1777  0.0406 -0.0751
 6768TIP3    H120247   1.504   7.687   5.011  1.7600 -0.0953 -1.5134
 6768TIP3    H220248   1.620   7.724   5.102  0.4042  1.0592 -0.2231
 6769TIP3   OH220249   4.277   1.761   5.208 -0.3011  0.1591  0.4889
 6769TIP3    H120250   4.346   1.800   5.261 -1.3631  3.2936 -0.3457
 6769TIP3    H220251   4.316   1.750   5.122  0.0224 -0.7248  0.7438
 6770TIP3   OH220252   4.464   2.717   4.950  0.1831  0.1145 -0.0220
 6770TIP3    H120253   4.552   2.721   4.987  0.3969 -1.0869 -0.3640
 6770TIP3    H220254   4.405   2.730   5.025  0.6456  1.0878  0.1775
 6771TIP3   OH220255   5.357   2.426   2.703 -0.1417 -0.5369 -0.5623
 6771TIP3    H120256   5.453   2.427   2.704 -0.1311  0.7157  2.0819
 6771TIP3    H220257   5.333   2.505   2.654  0.1797 -0.3223 -0.3732
 6772TIP3   OH220258   0.850   7.848   4.417  0.0498  0.3494  0.9385
 6772TIP3    H120259   0.821   7.878   4.331 -1.1998 -0.2981  1.1213
 6772TIP3    H220260   0.937   7.886   4.428  0.0049  0.8523 -0.3941
 6773TIP3   OH220261   3.950   1.641   4.890 -0.5786  0.1516  0.7169
 6773TIP3    H120262   3.871   1.661   4.841  0.3088 -0.8489 -1.1738
 6773TIP3    H220263   4.008   1.715   4.873 -0.2248 -0.2539  0.1111
 6774TIP3   OH220264   4.836   0.313   4.494 -0.1082  0.1158  0.3042
 6774TIP3    H120265   4.844   0.284   4.585  0.9207 -1.2972 -0.2235
 6774TIP3    H220266   4.742   0.328   4.482 -0.5106 -1.8247  0.9618
 6775TIP3   OH220267   3.965   3.596   6.072 -0.4360  0.4969  0.3731
 6775TIP3    H120268   4.008   3.635   6.148 -0.7722 -0.2786  0.9768
 6775TIP3    H220269   3.993   3.504   6.074  0.2712  0.6643 -0.9668
 6776TIP3   OH220270   5.603   5.122   4.385  0.2719  0.2041 -0.0707
 6776TIP3    H120271   5.591   5.190   4.319  0.8628  0.6677  0.2972
 6776TIP3    H220272   5.679   5.150   4.436  0.2071 -0.4675  0.4129
 6777TIP3   OH220273   0.756   4.701   5.718  0.1709 -0.9580 -0.1772
 6777TIP3    H120274   0.770   4.795   5.703  0.4318 -1.0614 -0.5837
 6777TIP3    H220275   0.736   4.694   5.811  0.1840 -0.5022 -0.1388
 6778TIP3   OH220276   7.123   6.749   4.409 -0.0338 -0.2324  0.1019
 6778TIP3    H120277   7.121   6.689   4.484 -0.3298 -0.2328  0.0917
 6778TIP3    H220278   7.034   6.784   4.403  0.4742  1.2705  0.9678
 6779TIP3   OH220279   4.111   2.397   6.279 -0.7364  0.1426 -0.2072
 6779TIP3    H120280   4.146   2.462   6.339 -1.4557  0.3555 -0.0234
 6779TIP3    H220281   4.037   2.358   6.324 -2.0605  1.1819 -1.4433
 6780TIP3   OH220282   0.705   3.165   4.863 -0.3881 -0.1693  0.0953
 6780TIP3    H120283   0.655   3.247   4.861  1.7065  1.1793  0.7710
 6780TIP3    H220284   0.645   3.099   4.829 -1.3502  2.0784 -2.7705
 6781TIP3   OH220285   4.769   3.935   3.576 -0.5109 -0.0478  0.2059
 6781TIP3    H120286   4.801   3.845   3.571  0.6576  0.2626  1.8203
 6781TIP3    H220287   4.848   3.989   3.562 -1.0799  0.7275 -0.0625
 6782TIP3   OH220288   5.739   3.225   4.647  0.1941 -0.1565  0.1709
 6782TIP3    H120289   5.647   3.245   4.629  0.2644  0.3366  0.3735
 6782TIP3    H220290   5.787   3.262   4.573  0.0401 -2.2993 -1.0508
 6783TIP3   OH220291   5.290   1.354   4.722 -0.3565  0.2441 -0.1972
 6783TIP3    H120292   5.361   1.365   4.659 -1.1304 -1.0109 -1.3097
 6783TIP3    H220293   5.314   1.409   4.796  0.6871  1.5406 -1.4931
 6784TIP3   OH220294   4.077   4.510   5.065 -0.0765 -0.3675 -0.2159
 6784TIP3    H120295   4.109   4.431   5.022  0.7292 -1.1914  1.8465
 6784TIP3    H220296   4.036   4.478   5.145 -0.3568  1.2466  0.2910
 6785TIP3   OH220297   7.859   4.537   4.348 -0.3598  0.1466  0.0285
 6785TIP3    H120298   7.873   4.628   4.374 -0.7217  0.5972 -1.3413
 6785TIP3    H220299   7.807   4.500   4.420 -0.7480  1.1867  0.2931
 6786TIP3   OH220300   8.062   1.956   4.654  0.3506 -0.8351 -0.0357
 6786TIP3    H120301   8.099   1.918   4.733  0.4522 -0.5124  0.0712
 6786TIP3    H220302   8.119   1.923   4.583  2.3363  1.5821  0.3633
 6787TIP3   OH220303   8.033   5.075   5.582 -0.0730 -0.4421 -0.4917
 6787TIP3    H120304   8.115   5.120   5.563  0.3473 -1.9452 -2.3668
 6787TIP3    H220305   7.973   5.103   5.513 -0.9170  0.0348  0.4165
 6788TIP3   OH220306   7.849   2.406   4.291  0.2730  0.1989  0.1318
 6788TIP3    H120307   7.858   2.394   4.196 -0.0145  1.5808 -0.0901
 6788TIP3    H220308   7.772   2.355   4.315  1.8163 -2.2223  0.0631
 6789TIP3   OH220309   8.175   2.708   2.903  0.5217  0.3378 -0.3130
 6789TIP3    H120310   8.103   2.771   2.895 -1.6056 -1.9512  0.0532
 6789TIP3    H220311   8.230   2.743   2.973 -1.1712  1.2913  0.5782
 6790TIP3   OH220312   5.444   2.996   5.005 -0.1241 -0.0442 -0.5550
 6790TIP3    H120313   5.524   3.040   4.977 -0.0320  1.3934  1.8084
 6790TIP3    H220314   5.376   3.064   5.000 -0.9195 -0.8801 -1.2291
 6791TIP3   OH220315   7.827   1.769   4.098  0.3049  0.1685  0.4202
 6791TIP3    H120316   7.754   1.830   4.087  1.5927  2.0440  2.0017
 6791TIP3    H220317   7.869   1.766   4.012 -2.3007 -1.8980 -0.8805
 6792TIP3   OH220318   8.314   1.152   6.154 -0.7197  0.5428 -0.6218
 6792TIP3    H120319   8.372   1.086   6.190  0.0359  1.1546 -0.7029
 6792TIP3    H220320   8.308   1.219   6.222 -1.3064  0.5044 -0.6258
 6793TIP3   OH220321   6.582   1.124   5.335 -0.3361  0.0785  0.5182
 6793TIP3    H120322   6.562   1.177   5.412 -2.4984 -0.3594  0.2812
 6793TIP3    H220323   6.522   1.156   5.268 -0.6880 -1.7240 -0.0468
 6794TIP3   OH220324   7.007   2.019   3.185 -0.5232  0.2323  0.2383
 6794TIP3    H120325   6.951   1.970   3.125  0.9238  0.8493 -1.6485
 6794TIP3    H220326   6.967   2.106   3.189 -0.7545  0.1221  0.3658
 6795TIP3   OH220327   4.056   3.584   4.472 -0.0112  0.0373 -0.5950
 6795TIP3    H120328   3.965   3.594   4.498 -0.1925 -0.4195 -1.0492
 6795TIP3    H220329   4.096   3.531   4.541 -0.1998 -0.1548 -0.6346
 6796TIP3   OH220330   5.282   2.733   4.270 -0.6642 -0.4562  0.3581
 6796TIP3    H120331   5.315   2.651   4.234  1.5823  0.3948  0.3930
 6796TIP3    H220332   5.340   2.800   4.234 -0.7114  0.8163  2.5602
 6797TIP3   OH220333   6.880   4.406   4.276  0.4433  0.2527  0.5762
 6797TIP3    H120334   6.829   4.487   4.273  0.5310  0.3035  0.4805
 6797TIP3    H220335   6.820   4.340   4.240  0.5617  0.3751  0.1499
 6798TIP3   OH220336   6.642   2.821   4.993 -0.3077 -0.2970  0.3109
 6798TIP3    H120337   6.706   2.753   4.972  2.1897  1.8148  0.8432
 6798TIP3    H220338   6.683   2.871   5.064 -1.4820  2.5811 -0.9698
 6799TIP3   OH220339   4.632   2.455   3.184 -0.5522  0.2508  0.5220
 6799TIP3    H120340   4.597   2.499   3.261 -1.5785  0.4055 -0.0157
 6799TIP3    H220341   4.557   2.448   3.124 -0.0731 -0.9665  0.0373
 6800TIP3   OH220342   6.473   6.443   4.919  0.7053 -0.2248  0.3011
 6800TIP3    H120343   6.438   6.388   4.849 -0.1330 -0.3689  0.8350
 6800TIP3    H220344   6.471   6.532   4.883 -0.6040 -0.1725  0.4716
 6801TIP3   OH220345   8.482   1.266   2.857 -0.1420  0.2137  0.7711
 6801TIP3    H120346   8.431   1.236   2.783  1.0191 -0.9502  0.4167
 6801TIP3    H220347   8.481   1.193   2.919  1.6595 -0.1079  0.4519
 6802TIP3   OH220348   5.616   2.242   2.169  0.1670  0.5709  0.7248
 6802TIP3    H120349   5.616   2.161   2.220 -1.4607  0.8147  1.1365
 6802TIP3    H220350   5.551   2.297   2.212 -0.7825  1.0126 -1.2538
 6803TIP3   OH220351   0.241   1.622   4.789  0.4976  0.2903  0.0419
 6803TIP3    H120352   0.211   1.649   4.702  0.1148 -1.8608 -0.5216
 6803TIP3    H220353   0.170   1.568   4.823  1.4255 -0.3771  0.9355
 6804TIP3   OH220354   8.234   2.363   3.024 -0.8782  0.3263  0.4245
 6804TIP3    H120355   8.179   2.313   3.085 -0.0448  1.0766  1.8148
 6804TIP3    H220356   8.258   2.299   2.956 -0.0253 -1.1244  2.0406
 6805TIP3   OH220357   5.746   3.488   4.303  0.0621 -0.3558 -0.2279
 6805TIP3    H120358   5.686   3.419   4.275 -0.3997  0.3671 -1.0329
 6805TIP3    H220359   5.689   3.555   4.341  0.4474 -0.1140 -0.0737
 6806TIP3   OH220360   8.094   2.195   2.008  0.1864 -0.0452  0.1325
 6806TIP3    H120361   8.052   2.263   2.061 -0.9601 -1.3487  0.9227
 6806TIP3    H220362   8.087   2.116   2.061  2.6402 -0.5554 -0.2225
 6807TIP3   OH220363   8.223   3.596   3.082  0.0208  0.5531 -0.4572
 6807TIP3    H120364   8.211   3.585   3.176 -0.3119  2.2979 -0.2716
 6807TIP3    H220365   8.317   3.584   3.068 -0.0330 -0.4155 -0.0183
 6808TIP3   OH220366   0.475   1.500   4.490  0.0641 -0.2138 -0.0055
 6808TIP3    H120367   0.391   1.482   4.447 -0.2080 -1.1705  0.9045
 6808TIP3    H220368   0.535   1.437   4.451  0.4040  0.5467 -0.7388
 6809TIP3   OH220369   0.888   2.281   4.950 -0.2276 -0.6084  0.4681
 6809TIP3    H120370   0.902   2.231   5.030 -0.7436 -0.4836  0.6441
 6809TIP3    H220371   0.916   2.370   4.973  1.0010 -0.8863  0.0538
 6810TIP3   OH220372   5.428   3.020   3.920 -0.3025  0.0417 -0.4574
 6810TIP3    H120373   5.414   3.114   3.927  0.7288  0.3295 -1.9075
 6810TIP3    H220374   5.383   2.994   3.839 -1.0401 -0.8106  0.2164
 6811TIP3   OH220375   4.518   1.770   3.732 -0.1451  0.4228  0.0699
 6811TIP3    H120376   4.425   1.749   3.718 -0.0158  0.9284 -1.6465
 6811TIP3    H220377   4.523   1.865   3.722  0.7746  0.2565 -1.0767
 6812TIP3   OH220378   5.091   3.751   5.043  0.0651  0.3642 -0.6111
 6812TIP3    H120379   5.124   3.736   5.132 -0.6238  0.8599 -0.2712
 6812TIP3    H220380   5.007   3.794   5.055 -0.0746  0.3547 -1.5076
 6813TIP3   OH220381   6.557   3.395   3.973 -0.2967  0.0697 -0.1174
 6813TIP3    H120382   6.529   3.313   3.932 -0.9982  0.4279 -0.3746
 6813TIP3    H220383   6.596   3.368   4.056 -0.7006 -0.5168 -0.1072
 6814TIP3   OH220384   7.000   4.882   4.792  0.2485 -0.4589 -0.1268
 6814TIP3    H120385   7.043   4.881   4.878  0.6561 -0.9889 -0.3397
 6814TIP3    H220386   6.954   4.966   4.790  1.0168 -0.0249  0.2327
 6815TIP3   OH220387   5.559   4.281   4.275  0.6248 -0.7363  0.5298
 6815TIP3    H120388   5.546   4.222   4.349  1.4912  0.9792  2.1128
 6815TIP3    H220389   5.648   4.264   4.245  0.4254 -1.1261  0.1542
 6816TIP3   OH220390   0.190   2.460   4.579  0.0488 -0.3324 -0.4196
 6816TIP3    H120391   0.172   2.548   4.546  2.3020 -0.0466 -0.9703
 6816TIP3    H220392   0.197   2.471   4.674  2.0997  0.4359 -0.6414
 6817TIP3   OH220393   6.088   2.305   5.739 -0.3435 -1.1041 -0.0030
 6817TIP3    H120394   6.038   2.385   5.724  0.1942 -0.5292  1.1781
 6817TIP3    H220395   6.097   2.300   5.834  1.9587 -1.0970 -0.1905
 6818TIP3   OH220396   4.307   4.287   5.109  0.0129 -0.0185 -0.3368
 6818TIP3    H120397   4.224   4.264   5.150  0.2808 -0.0166  0.2188
 6818TIP3    H220398   4.369   4.292   5.182  0.4361  0.2635 -0.7110
 6819TIP3   OH220399   5.708   3.472   3.338 -0.3292  0.3050 -0.5338
 6819TIP3    H120400   5.653   3.437   3.269  1.0323  0.6312 -1.8135
 6819TIP3    H220401   5.787   3.417   3.337 -1.2536 -1.2285  2.3811
 6820TIP3   OH220402   7.935   0.996   2.981 -0.1376 -0.4038  0.4665
 6820TIP3    H120403   7.962   0.905   2.989  0.7392 -0.2717 -0.7318
 6820TIP3    H220404   7.873   0.996   2.908 -0.4309 -0.0985  0.7123
 6821TIP3   OH220405   4.729   3.258   6.573  0.4931 -0.0651  0.2129
 6821TIP3    H120406   4.695   3.345   6.595  0.7772  0.3353 -0.8647
 6821TIP3    H220407   4.711   3.249   6.479 -0.0289 -1.3974  0.4404
 6822TIP3   OH220408   7.684   2.021   4.133 -0.0836 -0.4377 -0.2501
 6822TIP3    H120409   7.616   2.083   4.159  1.5398  0.8749  0.9769
 6822TIP3    H220410   7.706   2.045   4.044  0.8062  1.0343  0.3503
 6823TIP3   OH220411   5.140   2.673   5.331  0.3868 -0.1541 -0.5018
 6823TIP3    H120412   5.132   2.672   5.427 -0.6806 -0.5433 -0.5824
 6823TIP3    H220413   5.201   2.744   5.313  0.0526  0.3894  0.4381
 6824TIP3   OH220414   5.124   3.091   4.048 -0.1789 -0.2085 -0.2613
 6824TIP3    H120415   5.182   3.160   4.016 -1.3724  0.7465 -0.4325
 6824TIP3    H220416   5.130   3.097   4.143 -0.9821  0.7773 -0.2579
 6825TIP3   OH220417   0.806   4.648   5.976  0.5280  0.2137 -0.3774
 6825TIP3    H120418   0.764   4.666   6.060  1.4168 -1.7540  0.5128
 6825TIP3    H220419   0.880   4.709   5.974  0.8381 -0.1168  0.5290
 6826TIP3   OH220420   5.223   4.891   4.458 -0.9263  0.4600  0.0835
 6826TIP3    H120421   5.307   4.923   4.489 -1.0949 -0.7956  1.9450
 6826TIP3    H220422   5.220   4.800   4.487 -1.5281 -0.5002 -2.8495
 6827TIP3   OH220423   5.669   2.903   4.326  0.2626 -0.0558 -0.3441
 6827TIP3    H120424   5.604   2.911   4.255  0.7943  1.4779 -0.6852
 6827TIP3    H220425   5.752   2.928   4.285  1.2486 -2.7223 -0.1119
 6828TIP3   OH220426   4.522   2.997   2.539  0.7301 -0.0191 -0.2140
 6828TIP3    H120427   4.497   3.080   2.581  1.6535  0.6543 -0.9600
 6828TIP3    H220428   4.448   2.975   2.483  1.0501  1.0395 -1.0798
 6829TIP3   OH220429   8.289   2.945   4.155 -0.3403 -0.2776  0.7432
 6829TIP3    H120430   8.324   2.898   4.231  1.8353 -1.9942 -1.2628
 6829TIP3    H220431   8.362   2.999   4.124 -1.0801  0.0972 -0.3944
 6830TIP3   OH220432   5.985   4.386   0.321  0.3339  0.0845 -0.0355
 6830TIP3    H120433   5.953   4.388   0.231 -2.5185 -1.7023  0.8792
 6830TIP3    H220434   6.024   4.299   0.331  3.1930  1.2793 -0.3289
 6831TIP3   OH220435   6.799   1.275   4.270  0.3491  0.2157 -0.1874
 6831TIP3    H120436   6.784   1.361   4.231  1.2244  0.1188 -0.7525
 6831TIP3    H220437   6.737   1.218   4.225 -1.1963  0.8011  1.1548
 6832TIP3   OH220438   5.294   5.097   5.036  0.2569  0.6456  0.1916
 6832TIP3    H120439   5.259   5.031   5.096  0.5986 -0.7690 -1.1345
 6832TIP3    H220440   5.367   5.136   5.085  0.5547 -0.5086  0.6969
 6833TIP3   OH220441   5.795   2.214   3.929 -0.5269 -0.3021  0.0009
 6833TIP3    H120442   5.829   2.304   3.927  1.6437 -1.1115 -1.6451
 6833TIP3    H220443   5.710   2.219   3.885  0.0108  0.7772 -0.9334
 6834TIP3   OH220444   7.259   3.997   3.311 -0.0258 -0.7838  0.1376
 6834TIP3    H120445   7.294   4.026   3.395  1.3483 -1.4342 -0.2019
 6834TIP3    H220446   7.334   3.958   3.266 -0.8063 -0.6737 -1.2824
 6835TIP3   OH220447   6.057   2.230   4.331  0.3555 -0.8469  0.0659
 6835TIP3    H120448   5.999   2.280   4.388 -1.1105 -1.5755 -0.7829
 6835TIP3    H220449   6.066   2.284   4.253 -0.0385 -1.2378 -0.2464
 6836TIP3   OH220450   6.288   3.047   5.540  0.0971 -0.1255 -0.2240
 6836TIP3    H120451   6.260   2.981   5.603  0.7867 -0.6995 -0.5047
 6836TIP3    H220452   6.384   3.047   5.546  0.1120  0.6717 -0.4076
 6837TIP3   OH220453   4.772   2.562   3.448 -0.0867 -0.0979  0.5088
 6837TIP3    H120454   4.744   2.653   3.454  0.7009  0.0810  1.5096
 6837TIP3    H220455   4.867   2.566   3.450 -0.0639 -1.0116  1.4838
 6838TIP3   OH220456   4.826   2.583   5.503 -0.1140 -0.4890  0.5126
 6838TIP3    H120457   4.915   2.550   5.491  0.0262 -0.4236  1.3102
 6838TIP3    H220458   4.837   2.676   5.521 -0.5439  0.1296 -2.2210
 6839TIP3   OH220459   6.312   2.942   4.518  0.4826  0.2519 -0.1760
 6839TIP3    H120460   6.397   2.925   4.560 -0.0862  0.1672  0.9577
 6839TIP3    H220461   6.261   2.986   4.586  0.5040  2.7324 -1.6844
 6840TIP3   OH220462   5.991   3.601   4.343 -0.2194 -0.2511  0.0824
 6840TIP3    H120463   5.898   3.582   4.337 -0.6571  1.7163  0.5013
 6840TIP3    H220464   6.009   3.610   4.436  0.1434  0.5950 -0.0643
 6841TIP3   OH220465   7.349   2.606   5.353 -0.3419  0.1101  0.6079
 6841TIP3    H120466   7.433   2.628   5.391 -0.5523 -2.7719  2.8982
 6841TIP3    H220467   7.289   2.674   5.384  0.3097 -0.0869  2.3433
 6842TIP3   OH220468   5.600   1.720   3.468 -0.7231  0.6512  0.2909
 6842TIP3    H120469   5.633   1.633   3.444 -0.1695  1.0480 -0.3902
 6842TIP3    H220470   5.670   1.780   3.443 -2.2719  1.5920 -1.9052
 6843TIP3   OH220471   5.727   2.074   6.409  0.4318  0.6481  0.9255
 6843TIP3    H120472   5.751   2.050   6.499  0.3493 -1.1710  0.4767
 6843TIP3    H220473   5.679   1.998   6.376 -0.7498  1.8570 -0.2046
 6844TIP3   OH220474   6.623   1.274   3.291 -0.1323  0.1143 -0.9478
 6844TIP3    H120475   6.617   1.360   3.331 -0.6569 -0.7924  0.9634
 6844TIP3    H220476   6.541   1.230   3.315  0.4016 -1.1408 -1.3726
 6845TIP3   OH220477   8.161   3.358   6.141  0.1130  0.7114  0.2351
 6845TIP3    H120478   8.149   3.399   6.227  0.4977  0.1548  0.5601
 6845TIP3    H220479   8.215   3.281   6.159 -0.7551 -0.0388 -0.3371
 6846TIP3   OH220480   5.974   4.769   5.174  0.1838  0.2705 -0.2788
 6846TIP3    H120481   5.941   4.854   5.204 -0.6208  0.1222 -0.7239
 6846TIP3    H220482   6.057   4.757   5.221  0.5816  1.5573 -0.6262
 6847TIP3   OH220483   8.321   4.578   4.253 -0.0303  0.2089  0.9102
 6847TIP3    H120484   8.283   4.640   4.192  0.1701  0.4126  0.9905
 6847TIP3    H220485   8.343   4.502   4.199  0.4391  0.5115  0.6634
 6848TIP3   OH220486   5.015   1.569   3.346  0.0259 -0.4186  0.0244
 6848TIP3    H120487   4.991   1.658   3.320 -0.2017 -0.4776  0.0276
 6848TIP3    H220488   4.952   1.513   3.301  1.1777 -0.6928 -1.2732
 6849TIP3   OH220489   5.531   2.894   3.303 -0.0866  0.3212 -0.0781
 6849TIP3    H120490   5.614   2.921   3.342  0.8954 -0.5383 -1.5075
 6849TIP3    H220491   5.519   2.803   3.329 -0.5647  0.4315  0.0980
 6850TIP3   OH220492   7.154   1.814   4.712 -0.1480  0.2394  0.5622
 6850TIP3    H120493   7.152   1.859   4.797  2.2619  2.0106 -0.2520
 6850TIP3    H220494   7.241   1.775   4.708 -0.5657 -0.5743 -0.7137
 6851TIP3   OH220495   1.240   5.808   0.679  0.4040  0.1298 -0.1955
 6851TIP3    H120496   1.257   5.806   0.774 -1.0377 -0.5697  0.0614
 6851TIP3    H220497   1.327   5.804   0.640  1.0369  0.6856  1.1025
 6852TIP3   OH220498   5.746   2.778   3.709 -0.1108  0.3494 -0.3086
 6852TIP3    H120499   5.837   2.748   3.707 -0.6455 -1.2561 -1.7056
 6852TIP3    H220500   5.747   2.863   3.667  0.7704  0.4257 -0.1428
 6853TIP3   OH220501   5.791   3.265   3.985  0.3456 -0.2224  0.0453
 6853TIP3    H120502   5.872   3.216   3.997  1.0118  0.9684  0.4157
 6853TIP3    H220503   5.818   3.356   3.975 -0.9674  0.2343  0.5236
 6854TIP3   OH220504   5.166   2.776   4.819  0.4672 -0.5301  0.1517
 6854TIP3    H120505   5.179   2.783   4.725 -0.9611 -0.8888 -0.0833
 6854TIP3    H220506   5.164   2.682   4.837 -0.6077 -0.4848  0.3255
 6855TIP3   OH220507   5.774   3.739   3.247 -0.6699 -0.4039 -0.7214
 6855TIP3    H120508   5.868   3.721   3.243 -0.4336  0.5553  0.2805
 6855TIP3    H220509   5.735   3.656   3.276 -0.2527 -1.0886 -2.0505
 6856TIP3   OH220510   3.618   3.739   4.466  0.4235 -0.0424  0.4759
 6856TIP3    H120511   3.701   3.787   4.461  0.0815  0.5058  0.0364
 6856TIP3    H220512   3.616   3.705   4.555  2.1022 -1.8277 -0.1154
 6857TIP3   OH220513   7.156   2.739   6.813 -0.4702  0.5480  0.4043
 6857TIP3    H120514   7.244   2.729   6.777 -0.8544 -0.2815 -0.3162
 6857TIP3    H220515   7.157   2.689   6.895 -0.1252  0.9404  0.6363
 6858TIP3   OH220516   5.533   4.946   4.148  0.0062  0.1034 -0.5280
 6858TIP3    H120517   5.567   5.006   4.214 -0.5855  0.4993 -0.5799
 6858TIP3    H220518   5.440   4.938   4.168 -0.1082 -0.0564 -1.1017
 6859TIP3   OH220519   5.696   2.834   5.043  0.6179 -0.6213  0.1156
 6859TIP3    H120520   5.627   2.898   5.060 -0.0277 -1.5841  1.1659
 6859TIP3    H220521   5.708   2.836   4.948  1.2062  1.6561  0.2200
 6860TIP3   OH220522   8.024   2.215   3.167 -0.6444  0.2575  0.4298
 6860TIP3    H120523   8.052   2.130   3.200 -1.6122  0.5866  2.1744
 6860TIP3    H220524   7.938   2.229   3.208 -0.9037  1.6516 -0.5656
 6861TIP3   OH220525   7.366   2.770   4.848 -0.0064  0.5309  0.4393
 6861TIP3    H120526   7.427   2.703   4.819  0.9512  1.4229  0.3803
 6861TIP3    H220527   7.420   2.834   4.894 -1.1208  0.4908  1.8411
 6862TIP3   OH220528   6.813   2.126   5.213 -0.8337 -0.2974 -0.4243
 6862TIP3    H120529   6.875   2.188   5.252 -3.5235  2.4157 -0.2943
 6862TIP3    H220530   6.868   2.055   5.179  2.1081  0.7396  1.9989
 6863TIP3   OH220531   3.787   4.359   6.007  0.2598  0.3408  0.6246
 6863TIP3    H120532   3.874   4.370   6.045  0.4360 -0.1364  0.3556
 6863TIP3    H220533   3.727   4.373   6.080  0.6073 -0.8392  1.1470
 6864TIP3   OH220534   7.317   3.613   3.054  0.5604 -0.1747 -0.0216
 6864TIP3    H120535   7.305   3.520   3.076  1.4213 -0.2113  0.3143
 6864TIP3    H220536   7.352   3.651   3.135 -0.4828  0.5904  0.0772
 6865TIP3   OH220537   7.461   5.269   0.095 -0.5254  0.3445 -0.7241
 6865TIP3    H120538   7.428   5.350   0.134  0.7949 -0.3714  1.9932
 6865TIP3    H220539   7.382   5.220   0.071 -1.5329 -0.3794  3.6489
 6866TIP3   OH220540   5.624   3.336   6.464  0.3766  0.4145  0.0415
 6866TIP3    H120541   5.560   3.385   6.515  0.8768  0.1273  0.9600
 6866TIP3    H220542   5.691   3.310   6.527  0.1205 -1.4598 -0.4111
 6867TIP3   OH220543   7.336   5.601   5.804 -0.1314  0.1765 -0.2256
 6867TIP3    H120544   7.391   5.679   5.812 -2.1434  1.3006  3.9926
 6867TIP3    H220545   7.391   5.530   5.836  0.2400  0.6003  0.0859
 6868TIP3   OH220546   0.229   0.719   3.547 -0.1639  0.1862  0.8207
 6868TIP3    H120547   0.281   0.697   3.470 -0.2720  3.5727 -0.3137
 6868TIP3    H220548   0.139   0.697   3.521  0.2985 -2.7871  1.6445
 6869TIP3   OH220549   8.176   4.190   4.919  0.2425 -0.0216  0.1220
 6869TIP3    H120550   8.251   4.249   4.917  0.0916  0.2251  1.1260
 6869TIP3    H220551   8.185   4.143   5.003 -1.6051  1.2051  1.0357
 6870TIP3   OH220552   6.464   3.996   1.598 -1.2550  0.2580 -0.4601
 6870TIP3    H120553   6.372   3.999   1.625 -0.9331  0.3909  0.6343
 6870TIP3    H220554   6.473   4.069   1.537 -1.4860  1.2482  0.6835
 6871TIP3   OH220555   5.727   3.559   5.098  0.2508 -0.0587  0.2026
 6871TIP3    H120556   5.667   3.633   5.105  0.2802  0.0437 -0.5915
 6871TIP3    H220557   5.690   3.493   5.158 -0.9098 -0.1556 -0.5938
 6872TIP3   OH220558   6.194   2.172   2.506  0.3284 -0.1764  0.6780
 6872TIP3    H120559   6.114   2.146   2.461 -0.3937  1.4795  0.9603
 6872TIP3    H220560   6.263   2.161   2.441 -0.0821 -1.8163  0.4973
 6873TIP3   OH220561   4.839   0.923   4.233  0.1716 -0.1279 -0.4749
 6873TIP3    H120562   4.911   0.948   4.292  1.1699 -1.0078 -1.2937
 6873TIP3    H220563   4.778   0.996   4.238 -0.1872 -0.5729  2.3134
 6874TIP3   OH220564   6.434   4.344   3.229 -0.0110 -0.5679  0.1752
 6874TIP3    H120565   6.513   4.338   3.175 -0.6209 -0.7004 -0.7143
 6874TIP3    H220566   6.465   4.372   3.315  0.8549  0.6332 -0.5217
 6875TIP3   OH220567   7.550   4.999   3.134  0.2233 -0.1798 -0.2013
 6875TIP3    H120568   7.588   4.966   3.215 -0.3725 -1.1442 -0.3033
 6875TIP3    H220569   7.612   5.065   3.104  1.0589 -0.6676  0.4115
 6876TIP3   OH220570   6.645   3.433   6.177  0.0490 -0.2423  0.1432
 6876TIP3    H120571   6.661   3.448   6.083  0.2371 -0.1802  0.1844
 6876TIP3    H220572   6.578   3.365   6.179  0.2249 -0.4220 -0.0351
 6877TIP3   OH220573   6.686   3.377   4.221  0.1221  0.3215  0.2683
 6877TIP3    H120574   6.746   3.353   4.291  1.8630  0.3014 -1.1893
 6877TIP3    H220575   6.733   3.444   4.171 -1.3638  0.8286 -0.4898
 6878TIP3   OH220576   5.577   1.761   3.763  0.1909  0.3493 -0.6373
 6878TIP3    H120577   5.601   1.852   3.784 -1.0186  0.7409 -0.8839
 6878TIP3    H220578   5.660   1.718   3.744  0.8236  1.2855 -0.0318
 6879TIP3   OH220579   8.049   4.266   4.044  0.1961 -0.2752 -0.4660
 6879TIP3    H120580   8.086   4.323   3.976  1.2258  0.2752  0.5481
 6879TIP3    H220581   8.064   4.313   4.126 -0.2600 -1.3400  0.2338
 6880TIP3   OH220582   6.392   1.997   3.705 -0.1110  0.1494  0.0019
 6880TIP3    H120583   6.449   2.074   3.704 -0.4807  0.4511  1.1869
 6880TIP3    H220584   6.335   2.009   3.629  0.1988  0.7611 -0.1419
 6881TIP3   OH220585   7.233   1.941   4.969  0.0086  0.3832 -0.6674
 6881TIP3    H120586   7.234   1.968   5.061 -0.8020 -2.2463  0.1728
 6881TIP3    H220587   7.288   2.005   4.924  2.0322  0.5754  1.9810
 6882TIP3   OH220588   4.665   2.112   5.078  0.5831  0.7227 -0.4789
 6882TIP3    H120589   4.749   2.068   5.069 -0.3975 -1.4069  0.4401
 6882TIP3    H220590   4.620   2.094   4.995 -0.0588 -0.5781  0.1364
 6883TIP3   OH220591   2.649   7.276   4.256  0.7097  0.0350  0.4448
 6883TIP3    H120592   2.607   7.336   4.194  2.1321 -2.1941 -2.7931
 6883TIP3    H220593   2.579   7.217   4.283  0.5418 -0.2615 -0.6346
 6884TIP3   OH220594   7.647   4.268   5.541 -0.8905  0.1709  0.2648
 6884TIP3    H120595   7.622   4.357   5.517 -2.4827 -0.1283  0.7457
 6884TIP3    H220596   7.736   4.277   5.575 -0.6946  1.4313 -0.5399
 6885TIP3   OH220597   5.847   4.982   4.894  0.1545 -0.1382  0.1450
 6885TIP3    H120598   5.789   5.055   4.914  0.0533 -0.1657 -0.0459
 6885TIP3    H220599   5.928   5.003   4.940 -0.8044 -1.2890  2.4365
 6886TIP3   OH220600   6.891   4.312   4.551  0.0432  0.0946  0.2733
 6886TIP3    H120601   6.802   4.330   4.581  0.7100  0.0358  2.3918
 6886TIP3    H220602   6.903   4.370   4.476 -2.5304 -1.4934 -1.4449
 6887TIP3   OH220603   4.142   7.486   3.579  0.0160 -0.5279 -0.1160
 6887TIP3    H120604   4.114   7.395   3.575  0.7616 -0.7961  0.6752
 6887TIP3    H220605   4.191   7.493   3.661  0.4510  0.4459 -0.4475
 6888TIP3   OH220606   8.473   1.484   4.605  0.2741 -0.4371 -0.0756
 6888TIP3    H120607   8.460   1.499   4.511  0.5791 -0.9296 -0.2011
 6888TIP3    H220608   8.410   1.417   4.628 -0.2631  0.1618  0.2236
 6889TIP3   OH220609   6.151   1.844   3.196  0.0858 -0.3605 -0.1995
 6889TIP3    H120610   6.133   1.924   3.147 -0.3317  0.4410  1.2426
 6889TIP3    H220611   6.221   1.801   3.146 -1.5270 -0.4492 -2.4562
 6890TIP3   OH220612   7.587   3.097   4.020 -0.3331  0.0571 -0.2175
 6890TIP3    H120613   7.579   3.184   4.061 -0.9098  0.2662 -0.7714
 6890TIP3    H220614   7.630   3.044   4.087 -1.0352  0.4653  0.5815
 6891TIP3   OH220615   8.430   1.894   4.219 -0.2805  0.5400  0.1124
 6891TIP3    H120616   8.358   1.955   4.235 -0.5864  0.7749 -2.0047
 6891TIP3    H220617   8.490   1.943   4.163  0.6956 -0.2501  0.4625
 6892TIP3   OH220618   7.173   3.828   4.002  0.5306 -0.0676  0.0359
 6892TIP3    H120619   7.192   3.736   3.981  1.4569  0.3364 -0.9775
 6892TIP3    H220620   7.228   3.878   3.941 -0.0337  1.1612  0.5175
 6893TIP3   OH220621   6.653   2.716   4.229  0.0497  0.2344 -0.8630
 6893TIP3    H120622   6.648   2.656   4.155  1.9932 -1.9478  0.6996
 6893TIP3    H220623   6.613   2.669   4.302 -1.6428  2.2682 -0.4076
 6894TIP3   OH220624   0.052   0.236   3.317 -0.0917  0.0480 -0.4446
 6894TIP3    H120625  -0.006   0.174   3.361 -2.2793  1.2566 -1.5823
 6894TIP3    H220626   0.127   0.183   3.289 -0.6096 -1.5220  1.0381
 6895TIP3   OH220627   0.391   3.060   5.022  0.6140 -0.4326  0.5166
 6895TIP3    H120628   0.479   3.096   5.038 -0.5380  3.4328 -1.0862
 6895TIP3    H220629   0.380   3.067   4.927 -1.7265 -0.0813  0.7940
 6896TIP3   OH220630   5.832   3.365   2.478  0.1314 -0.5637  0.0774
 6896TIP3    H120631   5.861   3.368   2.569  2.3498  1.0212 -0.6382
 6896TIP3    H220632   5.795   3.452   2.462 -2.1612 -1.5102  0.0270
 6897TIP3   OH220633   4.385   0.863   3.486 -0.4862 -0.3077  0.0782
 6897TIP3    H120634   4.390   0.768   3.490 -0.0947 -0.3616 -1.3530
 6897TIP3    H220635   4.428   0.893   3.566 -0.4114 -1.3331  0.4266
 6898TIP3   OH220636   5.545   3.836   3.748 -0.1883  0.0642 -0.3292
 6898TIP3    H120637   5.494   3.892   3.806  0.3742  1.5486 -1.2298
 6898TIP3    H220638   5.564   3.891   3.672 -1.0515 -1.8967 -2.0129
 6899TIP3   OH220639   6.218   3.217   4.992  0.1753  0.0424  0.0273
 6899TIP3    H120640   6.169   3.282   5.043  1.1124  0.4739  0.3812
 6899TIP3    H220641   6.226   3.142   5.051  0.9298  0.4003  0.3854
 6900TIP3   OH220642   5.208   3.118   4.733 -0.1957 -0.3922  0.1332
 6900TIP3    H120643   5.261   3.041   4.714 -0.9067 -0.9643  0.4449
 6900TIP3    H220644   5.255   3.190   4.692  1.0011 -0.8363  0.7088
 6901TIP3   OH220645   6.829   5.174   5.033  0.2388 -0.3741 -0.0815
 6901TIP3    H120646   6.750   5.199   5.081 -0.4834 -0.8554 -0.9967
 6901TIP3    H220647   6.884   5.131   5.099 -0.1906  0.1168  0.6014
 6902TIP3   OH220648   7.310   2.347   5.247 -0.2137  0.6936  0.2828
 6902TIP3    H120649   7.256   2.425   5.260 -1.4598  0.0036 -0.6667
 6902TIP3    H220650   7.338   2.323   5.336 -3.3577 -0.2595  1.0692
 6903TIP3   OH220651   6.789   3.800   2.681  0.5973 -0.0884  0.0581
 6903TIP3    H120652   6.790   3.710   2.648  0.3166 -0.5737  1.3473
 6903TIP3    H220653   6.870   3.838   2.647 -0.7131  0.1286 -3.0045
 6904TIP3   OH220654   5.320   5.424   5.963 -0.0625 -0.5282  0.1226
 6904TIP3    H120655   5.395   5.429   6.022 -0.2551 -3.0242  0.6136
 6904TIP3    H220656   5.256   5.485   6.001  0.3433 -1.0692  1.7131
 6905TIP3   OH220657   6.527   3.356   2.424 -0.5546  0.0648  0.5565
 6905TIP3    H120658   6.483   3.271   2.423 -0.9550  0.2768 -0.8062
 6905TIP3    H220659   6.481   3.407   2.358 -0.2518  1.3177  1.3071
 6906TIP3   OH220660   7.427   4.169   3.944  0.3933 -0.5318 -0.4386
 6906TIP3    H120661   7.391   4.232   3.881 -0.2323 -0.2033  0.2348
 6906TIP3    H220662   7.467   4.224   4.011  0.1455 -0.8642 -0.0223
 6907TIP3   OH220663   5.551   2.820   4.562  0.0331  0.0954 -0.2064
 6907TIP3    H120664   5.528   2.904   4.602  0.4507 -0.8806  2.2308
 6907TIP3    H220665   5.605   2.842   4.487  1.2223  1.9999  1.1623
 6908TIP3   OH220666   6.217   3.397   3.506  0.0745 -0.1665  0.4356
 6908TIP3    H120667   6.145   3.384   3.568  1.2577  0.9608  2.1006
 6908TIP3    H220668   6.213   3.490   3.485  0.4918 -0.2845 -0.1609
 6909TIP3   OH220669   6.707   5.019   3.273 -0.1910  0.3666  0.0365
 6909TIP3    H120670   6.704   4.950   3.339 -0.7655  0.0635 -0.2967
 6909TIP3    H220671   6.615   5.036   3.252 -0.0371  0.9720 -0.1558
 6910TIP3   OH220672   6.482   2.577   4.989 -0.4583  0.2330 -0.2603
 6910TIP3    H120673   6.416   2.511   4.971 -1.5131  1.3681 -0.6051
 6910TIP3    H220674   6.563   2.528   4.999 -1.3259 -1.1567  0.0216
 6911TIP3   OH220675   7.735   4.058   6.877 -0.5013  0.0560  0.3695
 6911TIP3    H120676   7.724   4.047   6.972 -0.9218  1.3448  0.4821
 6911TIP3    H220677   7.822   4.097   6.868 -1.1942  1.6686  0.3787
 6912TIP3   OH220678   5.887   1.840   4.292  0.0321  0.3171 -0.8037
 6912TIP3    H120679   5.836   1.921   4.294 -0.4716  0.0000 -0.6631
 6912TIP3    H220680   5.977   1.869   4.278  0.0964  1.0163  0.9007
 6913TIP3   OH220681   6.696   2.392   3.426  0.4598 -0.6532  0.6359
 6913TIP3    H120682   6.790   2.403   3.411  0.3709 -0.9880 -0.1634
 6913TIP3    H220683   6.686   2.301   3.454  0.3478 -0.6874  0.4878
 6914TIP3   OH220684   5.812   2.075   2.501 -0.0913 -0.1518 -0.5380
 6914TIP3    H120685   5.774   2.005   2.448  1.3375  0.1692 -2.0404
 6914TIP3    H220686   5.870   2.030   2.562  1.4691 -0.2900 -2.0506
 6915TIP3   OH220687   7.447   2.283   3.608  0.0098  0.3679 -0.1374
 6915TIP3    H120688   7.461   2.314   3.519  3.5104 -2.2935 -0.6300
 6915TIP3    H220689   7.453   2.362   3.662  0.0583  1.7065 -2.0372
 6916TIP3   OH220690   8.428   0.729   3.196 -0.2586  0.3536 -0.3800
 6916TIP3    H120691   8.514   0.764   3.218  0.5325 -0.0617 -2.6882
 6916TIP3    H220692   8.367   0.780   3.249  1.3821  0.7874  1.1230
 6917TIP3   OH220693   6.193   0.899   4.840 -0.0073  0.0595 -0.1812
 6917TIP3    H120694   6.179   0.828   4.776  1.2679  0.0271 -0.4236
 6917TIP3    H220695   6.284   0.925   4.827  0.2949 -0.0315  1.7202
 6918TIP3   OH220696   7.151   2.671   3.498 -0.0696 -0.2256 -0.0152
 6918TIP3    H120697   7.219   2.720   3.451  0.5331 -0.8649  0.1866
 6918TIP3    H220698   7.174   2.682   3.591 -0.0140 -0.7630  0.0370
 6919TIP3   OH220699   4.733   3.627   6.735 -0.1539  0.0728  0.7872
 6919TIP3    H120700   4.811   3.649   6.786 -0.0303  0.9731  0.2184
 6919TIP3    H220701   4.701   3.546   6.774  1.9807 -1.1748  0.0212
 6920TIP3   OH220702   5.668   3.134   4.922  0.1364 -0.0611 -0.1796
 6920TIP3    H120703   5.704   3.158   4.836 -0.2688 -0.6963 -0.5287
 6920TIP3    H220704   5.743   3.136   4.981  0.9475 -2.3157 -1.0929
 6921TIP3   OH220705   6.371   3.624   4.691 -0.3997  0.3393 -0.3985
 6921TIP3    H120706   6.360   3.678   4.769  0.8027  1.3174 -0.8998
 6921TIP3    H220707   6.373   3.534   4.725 -1.0415  0.6834  0.5703
 6922TIP3   OH220708   5.915   2.183   6.194  0.3461  0.0164 -1.1700
 6922TIP3    H120709   5.866   2.138   6.263  0.2364  1.9128  0.0205
 6922TIP3    H220710   6.006   2.178   6.222  0.1201  2.4296  0.1253
 6923TIP3   OH220711   8.190   3.096   4.729 -0.0679  0.4502  0.1992
 6923TIP3    H120712   8.254   3.069   4.794  3.2112  0.1603 -3.0088
 6923TIP3    H220713   8.132   3.020   4.719 -0.1719  0.2412  2.1426
 6924TIP3   OH220714   6.297   4.483   5.073 -0.1412  0.0871 -0.5615
 6924TIP3    H120715   6.320   4.404   5.122 -1.0935 -1.1009 -2.0224
 6924TIP3    H220716   6.338   4.554   5.123 -1.3927 -1.0455  2.1957
 6925TIP3   OH220717   5.611   3.686   5.804 -0.0501  0.7840 -0.0883
 6925TIP3    H120718   5.618   3.619   5.872  0.1354  2.2050  1.3064
 6925TIP3    H220719   5.523   3.722   5.815 -0.9275 -0.5654 -2.1427
 6926TIP3   OH220720   6.607   2.179   4.991  0.1676  0.9185 -0.6187
 6926TIP3    H120721   6.673   2.131   5.041 -0.2187  1.6280  0.6111
 6926TIP3    H220722   6.613   2.145   4.902  0.6024 -0.6572  0.0134
 6927TIP3   OH220723   8.210   0.242   5.867 -0.0714  0.8140  0.5184
 6927TIP3    H120724   8.214   0.280   5.954  1.2915  2.2018 -0.1204
 6927TIP3    H220725   8.152   0.299   5.817  0.0594  0.6884  0.2151
 6928TIP3   OH220726   7.895   0.037   6.140  0.1341  0.4569  0.3832
 6928TIP3    H120727   7.820   0.065   6.089 -0.6964 -0.9378  0.8056
 6928TIP3    H220728   7.935  -0.033   6.088  0.1124  0.0010  0.9656
 6929TIP3   OH220729   1.014   6.970   0.167  0.2127  0.4123  0.1008
 6929TIP3    H120730   1.071   7.046   0.157  2.0757 -1.0984 -1.1179
 6929TIP3    H220731   0.987   6.947   0.078 -2.4575  1.1686  0.6593
 6930TIP3   OH220732   5.070   3.823   4.529 -0.1957  0.4538  0.0007
 6930TIP3    H120733   5.071   3.916   4.508  0.4792  0.6134  0.7112
 6930TIP3    H220734   5.099   3.818   4.620 -1.3210 -0.3651  0.3306
 6931TIP3   OH220735   3.203   7.733   4.603 -0.7501 -0.0467  0.0194
 6931TIP3    H120736   3.111   7.706   4.602 -0.3591 -1.4277 -0.1002
 6931TIP3    H220737   3.252   7.652   4.616  0.4847  0.5997 -0.4671
 6932TIP3   OH220738   6.278   1.593   1.580  0.6517 -0.0511 -1.3841
 6932TIP3    H120739   6.265   1.688   1.582  0.3484 -0.1062  0.8716
 6932TIP3    H220740   6.189   1.557   1.579  0.6372 -0.3116  2.2082
 6933TIP3   OH220741   6.027   4.414   4.523 -0.3485 -0.0181  0.2001
 6933TIP3    H120742   6.063   4.345   4.467 -0.7584 -1.0977  1.2468
 6933TIP3    H220743   5.941   4.433   4.486 -1.0656 -1.4768  1.0521
 6934TIP3   OH220744   8.434   5.365   5.800  0.5759 -0.5370  0.0070
 6934TIP3    H120745   8.498   5.412   5.853 -1.1652 -0.7003  2.3505
 6934TIP3    H220746   8.486   5.319   5.734  2.7031  0.7051  0.7737
 6935TIP3   OH220747   7.720   2.246   4.785 -0.0454 -0.4251  0.1382
 6935TIP3    H120748   7.787   2.246   4.717 -0.2604 -0.2748 -0.0709
 6935TIP3    H220749   7.701   2.153   4.799  0.8562 -0.5160  0.8391
 6936TIP3   OH220750   6.339   5.173   5.416 -0.0567  0.3651  0.3559
 6936TIP3    H120751   6.249   5.176   5.385 -0.1806 -1.5231  0.4428
 6936TIP3    H220752   6.358   5.261   5.447 -1.6066  0.9730 -0.4123
 6937TIP3   OH220753   0.988   3.422   3.177  0.2354  0.1590 -0.1390
 6937TIP3    H120754   0.903   3.380   3.188  0.2001  0.0463 -0.8742
 6937TIP3    H220755   1.032   3.409   3.262 -0.9669  1.3403  0.6807
 6938TIP3   OH220756   6.125   2.866   3.372 -0.0984 -0.4844  0.1676
 6938TIP3    H120757   6.143   2.775   3.350  0.2672 -0.1595 -0.9400
 6938TIP3    H220758   6.212   2.907   3.376 -0.2091 -0.3424  1.4216
 6939TIP3   OH220759   6.787   4.642   4.107 -0.7160  0.2011 -0.2271
 6939TIP3    H120760   6.716   4.621   4.168 -1.3852  0.7420 -0.8185
 6939TIP3    H220761   6.806   4.735   4.124 -0.4968  0.1932 -0.4258
 6940TIP3   OH220762   7.524   2.995   3.788 -0.2724 -0.1075 -0.0294
 6940TIP3    H120763   7.438   3.031   3.766 -0.2597 -0.1391 -0.1334
 6940TIP3    H220764   7.536   3.016   3.880 -0.5264 -0.3760  0.0683
 6941TIP3   OH220765   0.330   1.070   2.907  0.4726  0.1341 -0.2321
 6941TIP3    H120766   0.418   1.067   2.947  1.1664 -1.0554 -1.8191
 6941TIP3    H220767   0.329   0.997   2.846 -0.4385  2.1462 -2.7078
 6942TIP3   OH220768   5.319   2.214   4.183 -0.1627  0.0690 -0.4621
 6942TIP3    H120769   5.234   2.254   4.162 -0.1219  0.1171 -0.5392
 6942TIP3    H220770   5.299   2.149   4.250 -0.1392  0.6341  0.0970
 6943TIP3   OH220771   5.995   2.021   5.847  0.3157 -0.0861 -0.4921
 6943TIP3    H120772   5.962   2.110   5.842  0.4515  0.0098  0.2830
 6943TIP3    H220773   5.924   1.967   5.812 -1.2394 -0.0131  2.4426
 6944TIP3   OH220774   6.101   2.341   6.024 -0.7871  0.1201 -0.1842
 6944TIP3    H120775   6.022   2.387   6.052 -0.2229 -0.8812  3.2735
 6944TIP3    H220776   6.166   2.409   6.010 -0.7723  0.5977  2.1183
 6945TIP3   OH220777   6.221   4.226   2.882  0.3822  0.2608  0.1490
 6945TIP3    H120778   6.252   4.306   2.923  0.9176 -0.8529  2.0026
 6945TIP3    H220779   6.127   4.240   2.867 -0.0116  0.3866  2.5885
 6946TIP3   OH220780   8.081   3.799   4.790  0.4834  0.3812  0.4753
 6946TIP3    H120781   8.016   3.774   4.856 -0.1697 -0.7489 -0.5806
 6946TIP3    H220782   8.161   3.814   4.841 -0.0829 -0.2073  1.5638
 6947TIP3   OH220783   6.392   2.017   4.140 -0.1698 -0.2277  0.6795
 6947TIP3    H120784   6.446   2.047   4.213  0.1434  1.3842 -0.1915
 6947TIP3    H220785   6.455   1.987   4.075 -0.3420  0.6279  0.1047
 6948TIP3   OH220786   0.699   2.572   3.727  0.3885 -0.0716  0.1183
 6948TIP3    H120787   0.793   2.555   3.733  0.4002 -0.9114 -1.9881
 6948TIP3    H220788   0.659   2.513   3.791  1.3129  0.8086  1.5483
 6949TIP3   OH220789   6.906   3.205   3.485  0.2825  0.0282 -0.6458
 6949TIP3    H120790   6.831   3.216   3.542  1.0406 -1.7831  0.7541
 6949TIP3    H220791   6.969   3.154   3.537  0.0330 -3.8089 -3.8534
 6950TIP3   OH220792   6.600   4.514   4.300 -0.2867 -0.0728 -0.4432
 6950TIP3    H120793   6.586   4.428   4.340 -0.2571  1.3203  2.6977
 6950TIP3    H220794   6.513   4.546   4.278 -0.3690 -0.4203 -0.6310
 6951TIP3   OH220795   6.988   0.760   5.148 -0.1982  0.2244 -0.4342
 6951TIP3    H120796   6.983   0.755   5.053  0.3420  2.2147 -0.5878
 6951TIP3    H220797   7.077   0.730   5.169 -0.3616 -0.3411 -0.5276
 6952TIP3   OH220798  -0.005   2.302   6.496  0.6332  0.0620 -0.2914
 6952TIP3    H120799   0.057   2.358   6.450  1.1590 -0.0039  0.3252
 6952TIP3    H220800  -0.034   2.238   6.431 -0.1284  1.1617 -1.0631
 6953TIP3   OH220801   6.079   3.038   3.718 -0.2446 -0.4357 -0.5989
 6953TIP3    H120802   6.074   3.056   3.624 -1.4956  0.0319 -0.4498
 6953TIP3    H220803   6.173   3.032   3.736 -0.0141 -1.4338 -2.0485
 6954TIP3   OH220804   6.192   0.637   6.620  0.1916  0.2647 -0.0873
 6954TIP3    H120805   6.155   0.599   6.700  1.1928  1.1165  0.7804
 6954TIP3    H220806   6.208   0.561   6.563  0.5304 -0.4573  0.9610
 6955TIP3   OH220807   6.979   1.134   4.802  0.1478 -0.5033 -0.3534
 6955TIP3    H120808   7.027   1.123   4.720 -0.4971  0.2015 -0.8276
 6955TIP3    H220809   6.910   1.068   4.798  0.4608 -0.8527 -0.1123
 6956TIP3   OH220810   0.111   2.628   5.578  0.9651  0.0993  0.0025
 6956TIP3    H120811   0.202   2.600   5.569  1.0643  0.3791  0.1316
 6956TIP3    H220812   0.069   2.558   5.629  1.3650  0.5070  0.8979
 6957TIP3   OH220813   6.347   3.526   4.056 -0.1276  0.2269 -0.3480
 6957TIP3    H120814   6.425   3.487   4.017 -0.7911 -1.3710 -0.1089
 6957TIP3    H220815   6.313   3.459   4.115  0.0140  2.0188  1.8504
 6958TIP3   OH220816   5.068   1.949   3.524  0.4756  0.3115 -0.3761
 6958TIP3    H120817   5.003   2.003   3.568  0.7007 -0.3221  0.7666
 6958TIP3    H220818   5.151   1.974   3.565  0.9450  1.0264 -1.7374
 6959TIP3   OH220819   4.924   4.888   5.743 -0.0370 -0.4701 -0.2651
 6959TIP3    H120820   4.851   4.902   5.683  0.3772  0.8015 -0.4811
 6959TIP3    H220821   4.927   4.793   5.754 -1.8425 -0.5340 -0.0971
 6960TIP3   OH220822   8.151   5.879   0.982  0.1168  0.2153  0.0772
 6960TIP3    H120823   8.198   5.799   1.004  1.6053  1.0847  0.0991
 6960TIP3    H220824   8.172   5.895   0.890 -1.7596 -0.4639 -0.5008
 6961TIP3   OH220825   3.967   3.188   4.274 -0.9635  0.1838  0.0259
 6961TIP3    H120826   4.019   3.124   4.226  1.1238  1.7965  0.0358
 6961TIP3    H220827   4.014   3.271   4.261 -0.6613  0.7834  4.3333
 6962TIP3   OH220828   4.239   3.101   5.392  0.0063 -0.0472 -0.5609
 6962TIP3    H120829   4.247   3.027   5.331 -0.4805 -1.1182  0.6507
 6962TIP3    H220830   4.223   3.177   5.336 -1.4654 -1.1770 -1.7081
 6963TIP3   OH220831   0.284   2.794   5.261 -0.2547  0.0344 -0.4518
 6963TIP3    H120832   0.274   2.885   5.288  1.2042  0.2185 -0.4967
 6963TIP3    H220833   0.258   2.793   5.169 -0.7309  0.3170 -0.3186
 6964TIP3   OH220834   5.777   4.713   4.943  0.5471  0.1368  0.5203
 6964TIP3    H120835   5.799   4.800   4.907 -0.2150  0.4193  0.7384
 6964TIP3    H220836   5.838   4.702   5.016  0.0061  0.9059  1.0939
 6965TIP3   OH220837   4.992   3.077   4.884 -0.3421 -0.1400  0.3616
 6965TIP3    H120838   5.074   3.089   4.837 -0.6332  1.0795  0.1346
 6965TIP3    H220839   5.007   3.117   4.970 -0.3773 -0.7924  0.6699
 6966TIP3   OH220840   6.781   2.969   4.269  0.6252 -0.0123 -0.1770
 6966TIP3    H120841   6.731   2.902   4.222  0.0932  0.4455 -0.2527
 6966TIP3    H220842   6.865   2.926   4.289  0.9346 -0.1449 -1.7083
 6967TIP3   OH220843   6.063   3.044   4.382 -0.2629 -0.1012 -0.0581
 6967TIP3    H120844   6.017   3.105   4.440 -0.6080 -0.3922 -0.0211
 6967TIP3    H220845   6.096   2.976   4.441  0.7241  0.4144 -0.0119
 6968TIP3   OH220846   5.135   4.734   4.017  0.8951  0.3614 -0.0618
 6968TIP3    H120847   5.213   4.762   3.968  0.9658 -0.0615 -0.1928
 6968TIP3    H220848   5.136   4.639   4.010 -0.0432  0.3897 -0.7090
 6969TIP3   OH220849   6.210   5.611   6.137 -0.7880  0.1223  0.4332
 6969TIP3    H120850   6.210   5.667   6.060 -0.7517 -0.3561  0.0849
 6969TIP3    H220851   6.226   5.523   6.103 -0.3132 -0.0271  1.0350
 6970TIP3   OH220852   5.738   1.505   5.599 -0.1677 -0.1089  0.2236
 6970TIP3    H120853   5.670   1.479   5.537  0.8861 -2.4315 -0.0116
 6970TIP3    H220854   5.768   1.591   5.568 -0.4177 -0.7547 -1.8538
 6971TIP3   OH220855   5.930   5.494   3.409  0.3659  0.1712 -0.2306
 6971TIP3    H120856   5.958   5.569   3.357  0.5780  0.0858 -0.2396
 6971TIP3    H220857   5.946   5.418   3.353 -1.1709  0.2310 -0.7696
 6972TIP3   OH220858   7.699   3.598   4.668 -0.1470 -0.3556 -0.1275
 6972TIP3    H120859   7.655   3.544   4.733  0.1768 -0.8210 -0.2999
 6972TIP3    H220860   7.780   3.552   4.648  0.0402  0.0927 -0.4145
 6973TIP3   OH220861   7.800   3.563   4.005 -0.2095 -0.1235  0.2969
 6973TIP3    H120862   7.816   3.542   4.097 -0.0986 -1.1089  0.0544
 6973TIP3    H220863   7.793   3.658   4.003 -2.2057 -0.2041  1.6526
 6974TIP3   OH220864   8.125   1.441   4.511 -0.3156 -0.7400  0.2617
 6974TIP3    H120865   8.138   1.352   4.543  0.1251 -0.8812 -0.2939
 6974TIP3    H220866   8.146   1.498   4.585 -1.3969 -1.1222  0.8661
 6975TIP3   OH220867   0.046   3.899   5.055 -0.3467  0.1005 -0.0049
 6975TIP3    H120868   0.067   3.916   5.147 -1.9244 -1.3739  0.6632
 6975TIP3    H220869   0.130   3.882   5.013  0.1449 -2.5810  1.9179
 6976TIP3   OH220870   6.225   1.753   4.809 -0.2915 -0.1582 -0.4558
 6976TIP3    H120871   6.287   1.824   4.820 -0.7648  0.0193  1.1929
 6976TIP3    H220872   6.271   1.689   4.754  0.6398  0.7916 -0.7886
 6977TIP3   OH220873   5.807   2.881   6.593  0.0851  0.2560 -0.4995
 6977TIP3    H120874   5.763   2.802   6.624 -1.3009  1.2579  0.1617
 6977TIP3    H220875   5.785   2.886   6.500  0.0912 -0.0813 -0.5191
 6978TIP3   OH220876   7.600   1.819   3.840 -0.6123  0.0446 -0.3892
 6978TIP3    H120877   7.647   1.758   3.784 -0.0647  0.1144 -0.0040
 6978TIP3    H220878   7.604   1.903   3.795 -0.9793 -0.0995 -0.6984
 6979TIP3   OH220879   7.832   1.288   3.618  0.4821  0.1226  0.4759
 6979TIP3    H120880   7.796   1.306   3.705 -0.0498 -1.5585  0.6231
 6979TIP3    H220881   7.756   1.258   3.567  0.7881  1.1086 -0.5841
 6980TIP3   OH220882   5.108   3.094   2.274 -0.1012  0.1950  0.3813
 6980TIP3    H120883   5.053   3.018   2.292  0.0829  0.3482  1.5823
 6980TIP3    H220884   5.105   3.103   2.178 -0.1605 -1.2797  0.2382
 6981TIP3   OH220885   6.509   1.883   3.921  0.1492 -0.6798 -0.8171
 6981TIP3    H120886   6.474   1.795   3.930 -1.3163  0.0330  1.0253
 6981TIP3    H220887   6.475   1.914   3.837 -0.7840 -1.2604 -0.6629
 6982TIP3   OH220888   5.635   2.490   2.971  0.4333 -0.1354  0.2306
 6982TIP3    H120889   5.663   2.573   3.011 -2.0981  0.4458  0.8946
 6982TIP3    H220890   5.677   2.423   3.025 -0.4672  0.6925  2.0152
 6983TIP3   OH220891   6.096   3.681   3.425  0.3570  0.0740  0.2843
 6983TIP3    H120892   6.064   3.643   3.343 -0.9395 -1.7593  1.6065
 6983TIP3    H220893   6.018   3.689   3.480  1.2212  1.2671  1.3664
 6984TIP3   OH220894   6.103   2.617   5.160 -0.0479 -0.1407  0.1189
 6984TIP3    H120895   6.049   2.677   5.107  0.1985 -0.6686 -0.7431
 6984TIP3    H220896   6.043   2.548   5.186  0.3465 -1.0915 -1.4188
 6985TIP3   OH220897   5.738   2.316   6.036  0.3681  0.5083 -0.2137
 6985TIP3    H120898   5.724   2.403   6.073  2.9240  0.8043  0.1466
 6985TIP3    H220899   5.812   2.280   6.085  2.3784  0.0076 -3.4423
 6986TIP3   OH220900   6.820   2.124   6.337  0.2666 -1.0679 -0.4793
 6986TIP3    H120901   6.725   2.129   6.334  0.1667  0.7050  2.7352
 6986TIP3    H220902   6.850   2.201   6.289  0.0210 -0.7799 -0.1756
 6987TIP3   OH220903   5.753   4.530   4.717  0.2328 -0.3869  0.1808
 6987TIP3    H120904   5.774   4.600   4.780 -1.7803  0.3315  0.0789
 6987TIP3    H220905   5.783   4.450   4.760  2.1631  0.4638  0.4955
 6988TIP3   OH220906   8.135   2.017   5.584 -0.0240  0.4037 -0.7737
 6988TIP3    H120907   8.145   2.112   5.587  0.6440  0.3425 -0.9076
 6988TIP3    H220908   8.221   1.985   5.555  0.6868 -0.4296  2.1053
 6989TIP3   OH220909   1.220   2.501   3.625  0.3960 -0.1518 -0.2004
 6989TIP3    H120910   1.130   2.511   3.655  0.3605  0.6465 -0.5656
 6989TIP3    H220911   1.264   2.457   3.698 -0.2331 -0.3444  0.0693
 6990TIP3   OH220912   0.135   3.818   3.409  0.0997 -0.1368 -0.5254
 6990TIP3    H120913   0.174   3.736   3.381  1.5690  0.5822 -0.6111
 6990TIP3    H220914   0.205   3.863   3.456 -1.0852  0.4902  0.6856
 6991TIP3   OH220915   7.070   2.763   4.224  0.4117  0.2357 -0.5285
 6991TIP3    H120916   6.998   2.719   4.178 -0.7935  0.0888  1.4794
 6991TIP3    H220917   7.111   2.817   4.156 -1.1770 -0.1708 -1.8539
 6992TIP3   OH220918   7.635   5.459   5.002  0.0776  0.1925 -0.0081
 6992TIP3    H120919   7.560   5.442   4.944  0.0285 -2.1946  0.6690
 6992TIP3    H220920   7.709   5.419   4.957  0.7232  1.4398 -0.0701
 6993TIP3   OH220921   0.205   4.590   3.693  0.0281  0.1590  0.1203
 6993TIP3    H120922   0.218   4.684   3.682  0.5633  0.0498 -0.2282
 6993TIP3    H220923   0.212   4.555   3.604 -0.3112 -0.1915  0.2318
 6994TIP3   OH220924   8.475   4.669   3.869  0.1993  0.4703  0.7238
 6994TIP3    H120925   8.446   4.754   3.838 -1.2365 -0.3600 -0.2863
 6994TIP3    H220926   8.561   4.685   3.908  1.5086  1.7619 -2.5522
 6995TIP3   OH220927   0.262   1.129   3.686  0.1039 -0.0549 -0.5126
 6995TIP3    H120928   0.204   1.089   3.621  0.3802  1.8027 -1.9192
 6995TIP3    H220929   0.349   1.096   3.663 -0.1447 -1.6302  0.6731
 6996TIP3   OH220930   8.461   3.350   3.839 -0.1182  0.3870 -0.0646
 6996TIP3    H120931   8.542   3.327   3.883 -0.6448  1.9672  1.8073
 6996TIP3    H220932   8.397   3.358   3.909 -1.4564  1.0278 -1.3278
 6997TIP3   OH220933   0.333   2.320   3.151  0.3250 -0.3851 -0.2407
 6997TIP3    H120934   0.242   2.296   3.133 -0.7502  1.7948  1.9935
 6997TIP3    H220935   0.349   2.395   3.094  0.0678  0.4659  0.8015
 6998TIP3   OH220936   7.365   2.735   3.950 -0.3282  0.2460  0.2138
 6998TIP3    H120937   7.363   2.743   4.045  0.6645 -1.9388  0.4304
 6998TIP3    H220938   7.456   2.749   3.926 -0.5871  0.8747 -0.4423
 6999TIP3   OH220939   7.318   2.994   4.159 -0.3254  0.4351  0.4258
 6999TIP3    H120940   7.374   2.977   4.235 -1.3576  1.3800  1.4264
 6999TIP3    H220941   7.378   3.020   4.089  0.6761 -0.8554  0.7923
 7000TIP3   OH220942   7.515   2.327   3.099  0.3604  0.0685  0.0521
 7000TIP3    H120943   7.553   2.239   3.100  0.1382 -0.0243  1.5126
 7000TIP3    H220944   7.590   2.386   3.097  0.5345 -0.1493  0.1761
 7001TIP3   OH220945   1.436   2.518   5.745 -0.0872  0.2414 -0.2427
 7001TIP3    H120946   1.461   2.559   5.828 -0.9732  1.7853 -0.7207
 7001TIP3    H220947   1.519   2.494   5.704  0.3904  0.2042  0.7313
 7002TIP3   OH220948   7.302   3.341   3.362  0.5017  0.0474 -0.2581
 7002TIP3    H120949   7.319   3.250   3.339  0.0399  0.2466 -1.4275
 7002TIP3    H220950   7.350   3.392   3.296 -1.3953  0.6267 -1.2393
 7003TIP3   OH220951   7.253   0.557   5.009  0.7915  0.5115  0.3890
 7003TIP3    H120952   7.247   0.631   5.069 -1.3922  0.6991 -0.0083
 7003TIP3    H220953   7.227   0.481   5.062  0.9886  0.3519  0.2571
 7004TIP3   OH220954   6.599   3.460   3.343  0.1592  0.4320  0.4354
 7004TIP3    H120955   6.591   3.533   3.281  2.4445  0.1040 -0.2901
 7004TIP3    H220956   6.638   3.498   3.421  0.9389  0.0694  0.2228
 7005TIP3   OH220957   0.140   3.955   2.309 -0.6284 -0.3155 -0.2123
 7005TIP3    H120958   0.087   4.035   2.307 -0.3958 -0.1425  0.5658
 7005TIP3    H220959   0.144   3.927   2.217  0.0217  1.0423 -0.6173
 7006TIP3   OH220960   7.945   4.855   1.984 -0.1128 -0.4130  0.5357
 7006TIP3    H120961   8.008   4.784   1.974 -0.8105 -0.9425 -0.1574
 7006TIP3    H220962   7.894   4.854   1.903  1.0612  2.0573 -0.3021
 7007TIP3   OH220963   0.541   2.601   3.479 -0.3399  0.2807  0.0835
 7007TIP3    H120964   0.594   2.585   3.401  1.4649  0.5915  1.2288
 7007TIP3    H220965   0.591   2.563   3.551 -1.8942  0.1624  1.1425
 7008TIP3   OH220966   0.080   2.254   3.019 -0.2464  0.2065  0.0029
 7008TIP3    H120967   0.143   2.184   2.999  0.1379  0.8201 -0.9770
 7008TIP3    H220968  -0.001   2.226   2.976 -0.2637  0.0580  0.1341
 7009TIP3   OH220969   7.936   2.756   5.123  0.1681  0.2704 -0.1504
 7009TIP3    H120970   7.951   2.719   5.036 -0.6166  0.6111 -0.4340
 7009TIP3    H220971   7.865   2.703   5.159 -0.1698  0.7560 -0.1021
 7010TIP3   OH220972   0.835   2.606   5.789  0.5568  0.0631 -0.0900
 7010TIP3    H120973   0.843   2.693   5.752  1.9635 -0.0853 -0.1465
 7010TIP3    H220974   0.915   2.560   5.763  1.9529  0.1624  3.6260
 7011TIP3   OH220975   0.124   3.158   4.574 -0.5595 -0.7232  0.2784
 7011TIP3    H120976   0.199   3.104   4.551 -1.3376 -1.5995 -0.1981
 7011TIP3    H220977   0.076   3.106   4.639 -0.0013  0.4375  1.6631
 7012TIP3   OH220978   7.850   3.995   5.437 -0.1907 -0.4934 -0.2491
 7012TIP3    H120979   7.827   3.914   5.391 -1.1826 -0.5446  0.3220
 7012TIP3    H220980   7.844   3.973   5.530 -0.0427  0.1131 -0.0899
 7013TIP3   OH220981   1.297   3.877   1.524  0.3063  0.2684  0.1778
 7013TIP3    H120982   1.260   3.964   1.542  1.2652  0.4994  1.0671
 7013TIP3    H220983   1.245   3.844   1.450  0.7634  2.1433 -1.0310
 7014TIP3   OH220984   6.785   3.130   4.013  0.0754 -0.3147 -0.2619
 7014TIP3    H120985   6.851   3.087   4.067  0.4380 -1.3134 -1.4580
 7014TIP3    H220986   6.836   3.183   3.951 -0.3020 -0.0113 -0.3181
 7015TIP3   OH220987   7.007   4.003   2.956 -0.4863 -0.2168 -0.2890
 7015TIP3    H120988   7.028   3.936   3.021 -0.5416  0.6069  0.5781
 7015TIP3    H220989   7.064   4.077   2.977  0.3084 -0.3492 -1.8729
 7016TIP3   OH220990   0.596   4.266   4.921 -0.5372 -0.1743  0.2725
 7016TIP3    H120991   0.607   4.171   4.929 -0.6566 -0.6062 -3.5886
 7016TIP3    H220992   0.502   4.278   4.908 -0.4336  0.4070  0.0440
 7017TIP3   OH220993   0.573   1.331   4.278  0.6370  0.2159  0.0344
 7017TIP3    H120994   0.635   1.268   4.241 -1.0816 -0.2696 -2.1635
 7017TIP3    H220995   0.588   1.411   4.228 -1.0577 -0.1639 -1.1414
 7018TIP3   OH220996   8.302   2.969   2.018 -0.1479 -0.1850  0.1793
 7018TIP3    H120997   8.284   2.928   2.103  0.0004  0.6889  0.6428
 7018TIP3    H220998   8.230   2.941   1.962 -0.2109 -0.8276  0.5822
 7019TIP3   OH220999   6.920   3.478   1.739 -0.5784  0.4675  0.2355
 7019TIP3    H121000   6.834   3.446   1.711 -0.7643  0.0776  1.2160
 7019TIP3    H221001   6.903   3.519   1.824  0.3117 -0.0977  0.6910
 7020TIP3   OH221002   1.158   4.680   5.534 -0.0788  0.4256 -0.0044
 7020TIP3    H121003   1.137   4.601   5.584 -0.4886  0.0870 -0.6985
 7020TIP3    H221004   1.252   4.691   5.544  0.0738 -0.5039 -0.4242
 7021TIP3   OH221005   1.112   1.644   2.976 -0.1528  0.3495 -0.1315
 7021TIP3    H121006   1.017   1.636   2.986 -0.2732  0.4927 -1.0756
 7021TIP3    H221007   1.147   1.636   3.064 -0.9776 -0.7790  0.0969
 7022TIP3   OH221008   6.479   3.633   3.724 -0.4262 -0.1972 -0.0305
 7022TIP3    H121009   6.500   3.694   3.795 -0.1045  1.4770 -1.5199
 7022TIP3    H221010   6.389   3.655   3.700 -0.2037 -0.1033 -0.7768
 7023TIP3   OH221011   7.577   0.066   3.491  0.5471 -0.2703 -0.3157
 7023TIP3    H121012   7.652   0.060   3.549  0.0498  0.3462  0.4050
 7023TIP3    H221013   7.538  -0.021   3.492  1.6450 -0.7872 -1.2467
 7024TIP3   OH221014   8.318   3.255   3.470  0.1247 -0.1984  0.2641
 7024TIP3    H121015   8.229   3.240   3.436  0.7517 -0.9612 -1.0894
 7024TIP3    H221016   8.341   3.342   3.435  1.2712 -1.5335 -2.4663
 7025TIP3   OH221017   7.872   2.259   2.617 -0.4448  0.6236 -0.6033
 7025TIP3    H121018   7.808   2.276   2.547 -1.1296  1.9491  0.3160
 7025TIP3    H221019   7.828   2.288   2.697  1.4455  1.8548  0.0130
 7026TIP3   OH221020   0.969   1.023   1.551  0.2179 -0.1955  0.1353
 7026TIP3    H121021   1.035   1.054   1.613 -0.2273 -0.2547  0.6458
 7026TIP3    H221022   0.894   0.999   1.606  0.0145 -0.7571 -0.3793
 7027TIP3   OH221023   7.719   3.032   2.965 -0.1325  0.2246  0.1821
 7027TIP3    H121024   7.657   3.090   2.922 -0.4220 -0.7004 -0.6443
 7027TIP3    H221025   7.684   3.020   3.053 -1.5883 -0.9890 -0.5501
 7028TIP3   OH221026   0.861   3.670   3.876 -0.5615  0.0299 -0.4451
 7028TIP3    H121027   0.849   3.576   3.860 -2.6912  0.2665 -0.2685
 7028TIP3    H221028   0.953   3.686   3.851 -0.5398 -1.8398 -1.6888
 7029TIP3   OH221029   0.202   2.210   3.534  0.3727 -0.0398 -0.2683
 7029TIP3    H121030   0.129   2.222   3.474 -0.1290 -1.5271  0.0231
 7029TIP3    H221031   0.249   2.293   3.531 -1.8363  1.2624  0.2488
 7030TIP3   OH221032   8.175   1.887   3.701 -0.2671 -0.2206  0.3476
 7030TIP3    H121033   8.230   1.882   3.779 -0.6961  0.2680  0.6918
 7030TIP3    H221034   8.236   1.888   3.628  0.0749 -3.8310  0.4816
 7031TIP3   OH221035   7.428   3.244   4.397  0.3852  0.2978  0.0470
 7031TIP3    H121036   7.389   3.246   4.484 -2.2036  1.6771 -1.0932
 7031TIP3    H221037   7.461   3.155   4.387  0.1173 -0.0610  2.1627
 7032TIP3   OH221038   0.599   4.487   3.509  0.4130  0.5504 -0.3147
 7032TIP3    H121039   0.573   4.395   3.519 -1.3971  0.7529 -2.6310
 7032TIP3    H221040   0.629   4.494   3.418  0.1368  2.3368 -0.2953
 7033TIP3   OH221041   8.342   0.590   1.778  0.3735 -0.1757 -0.6518
 7033TIP3    H121042   8.330   0.680   1.808  0.1042 -0.1641 -0.7950
 7033TIP3    H221043   8.260   0.567   1.735  1.8322  0.8942 -4.2005
 7034TIP3   OH221044   7.259   4.099   4.425  0.2045  0.2034 -0.4509
 7034TIP3    H121045   7.191   4.056   4.476  1.5322 -1.4938 -0.0890
 7034TIP3    H221046   7.221   4.108   4.337 -0.4230 -0.8697 -0.2958
 7035TIP3   OH221047   0.077   3.614   5.539  0.0678  0.7900 -0.1390
 7035TIP3    H121048   0.119   3.529   5.527 -1.4070  0.0706 -0.2817
 7035TIP3    H221049   0.023   3.604   5.618  1.6836  2.3179  1.2061
 7036TIP3   OH221050   1.636   3.716   3.766 -0.1450  0.3326 -0.2858
 7036TIP3    H121051   1.666   3.805   3.750  0.5550  0.7304  2.9478
 7036TIP3    H221052   1.698   3.661   3.718  0.5481  1.5079 -0.7581
 7037TIP3   OH221053  -0.019   2.797   3.711  0.2025  0.3944  0.6184
 7037TIP3    H121054  -0.018   2.873   3.653 -0.4014  0.8650  1.2130
 7037TIP3    H221055   0.065   2.754   3.696  0.7504  1.4516  0.6404
 7038TIP3   OH221056   6.970   4.824   0.272  0.2368 -0.9478 -0.5023
 7038TIP3    H121057   6.990   4.837   0.179  3.0385  1.3705  0.3449
 7038TIP3    H221058   7.053   4.798   0.310 -0.4832 -0.1437  1.6578
 7039TIP3   OH221059   0.672   3.723   2.860  0.3672 -0.1325 -0.0384
 7039TIP3    H121060   0.578   3.733   2.843 -0.1435 -1.1810  2.1354
 7039TIP3    H221061   0.686   3.629   2.865  0.8391  0.0875  3.4106
 7040TIP3   OH221062   7.016   3.470   3.494 -0.0202  0.2434  0.1935
 7040TIP3    H121063   6.992   3.379   3.515 -2.7772  0.6889 -0.7741
 7040TIP3    H221064   7.083   3.462   3.426 -0.8076 -1.0768 -0.4456
 7041TIP3   OH221065   8.136   3.217   4.227  0.5692 -0.3736  0.5312
 7041TIP3    H121066   8.143   3.122   4.232  2.2237 -0.3633 -1.0939
 7041TIP3    H221067   8.198   3.243   4.159  0.0749  1.8677  0.8695
 7042TIP3   OH221068   6.965   4.577   6.352  0.4017  0.1672  0.1583
 7042TIP3    H121069   6.972   4.502   6.294 -0.2791  0.0088  0.2716
 7042TIP3    H221070   7.055   4.601   6.373  0.7060  1.1377 -2.1324
 7043TIP3   OH221071   8.230   3.112   2.806  0.1750  0.1151  0.0660
 7043TIP3    H121072   8.159   3.112   2.743  0.1415 -2.0316  0.0587
 7043TIP3    H221073   8.187   3.126   2.891 -0.4061 -2.1385  0.1757
 7044TIP3   OH221074   8.329   4.170   3.828 -0.1306 -0.1042 -0.4638
 7044TIP3    H121075   8.321   4.078   3.854 -0.6883 -0.6301 -2.4067
 7044TIP3    H221076   8.416   4.176   3.789 -0.1873  0.1375 -0.5513
 7045TIP3   OH221077   8.062   2.934   4.028 -0.1883 -0.2031  1.2398
 7045TIP3    H121078   8.153   2.940   4.059 -0.1379  0.6013  0.9403
 7045TIP3    H221079   8.068   2.950   3.934 -0.6224 -0.2951  1.1970
 7046TIP3   OH221080   0.055   1.083   4.586  0.0702  0.0238 -0.2928
 7046TIP3    H121081   0.070   1.120   4.499  1.3818 -1.9681 -0.9350
 7046TIP3    H221082   0.130   1.112   4.638 -0.4220  0.7244  0.0513
 7047TIP3   OH221083   6.291   3.057   3.124 -0.1461 -0.2667 -0.3052
 7047TIP3    H121084   6.307   2.974   3.168  1.8057 -1.0572 -2.3471
 7047TIP3    H221085   6.333   3.123   3.180  4.0238 -1.4751 -1.8177
 7048TIP3   OH221086   7.471   1.170   1.705  0.4966 -0.2922 -0.0508
 7048TIP3    H121087   7.505   1.191   1.792 -0.1384  0.5713  0.0006
 7048TIP3    H221088   7.505   1.241   1.649 -0.5515  0.1350 -0.1505
 7049TIP3   OH221089   0.949   3.100   4.163 -0.7721 -0.5379  0.3295
 7049TIP3    H121090   0.949   3.191   4.132  1.4011 -1.2277 -1.8365
 7049TIP3    H221091   0.883   3.056   4.110 -0.7022 -0.5691  0.2675
 7050TIP3   OH221092   7.935   2.852   2.814  0.8207  0.2831 -0.2602
 7050TIP3    H121093   7.847   2.885   2.795  1.1283  2.1818  1.4704
 7050TIP3    H221094   7.980   2.855   2.729  0.1139  2.1548 -0.5980
 7051TIP3   OH221095   7.777   4.634   5.218  0.0924  0.3278  0.0843
 7051TIP3    H121096   7.776   4.551   5.266  0.4526  1.0776  1.4264
 7051TIP3    H221097   7.847   4.624   5.153 -0.0750 -0.5229  0.0319
 7052TIP3   OH221098   7.752   3.629   2.881  1.1171  0.8855  0.1369
 7052TIP3    H121099   7.845   3.607   2.878  1.4149  2.0762  0.4387
 7052TIP3    H221100   7.715   3.586   2.804  2.0658  1.1095 -0.4505
 7053TIP3   OH221101   7.695   3.696   3.490 -0.0203  0.2480  0.7643
 7053TIP3    H121102   7.769   3.696   3.551  0.2359 -2.5374  0.5531
 7053TIP3    H221103   7.629   3.642   3.534 -0.0374 -1.3512 -1.1352
 7054TIP3   OH221104   7.698   3.376   5.003 -0.2811  0.5876  0.5954
 7054TIP3    H121105   7.701   3.322   5.082 -1.6375  0.7401  0.7550
 7054TIP3    H221106   7.612   3.360   4.966  0.7472 -0.3636 -1.4851
 7055TIP3   OH221107   0.472   2.710   2.799  0.5259 -0.0370 -0.1297
 7055TIP3    H121108   0.402   2.685   2.740  0.5917 -2.4736  0.7757
 7055TIP3    H221109   0.552   2.677   2.758  0.6218 -1.3292  1.0646
 7056TIP3   OH221110   0.756   3.729   4.923 -0.2191 -0.2702  0.1472
 7056TIP3    H121111   0.704   3.797   4.880  2.6301  0.6224 -2.0732
 7056TIP3    H221112   0.706   3.706   5.001 -2.1205  3.1239  0.0248
 7057TIP3   OH221113   8.010   4.011   2.291 -0.1614 -0.4155 -0.3694
 7057TIP3    H121114   8.106   4.016   2.291 -0.2177  0.7714 -1.1112
 7057TIP3    H221115   7.986   4.025   2.382  0.3649 -0.4913 -0.2149
 7058TIP3   OH221116   0.149   5.261   6.699  0.3245 -0.4817 -0.2769
 7058TIP3    H121117   0.093   5.183   6.697 -0.0690 -0.1818 -1.0658
 7058TIP3    H221118   0.223   5.236   6.755 -0.9450 -0.6348  1.3637
 7059TIP3   OH221119   8.027   1.953   2.651  0.6000 -0.0269 -0.0602
 7059TIP3    H121120   8.120   1.965   2.633  0.2733 -0.7603 -2.3819
 7059TIP3    H221121   7.988   2.040   2.637  0.8840  0.2217  0.6665
 7060TIP3   OH221122   6.871   4.426   3.330 -0.2260  0.2407  0.7869
 7060TIP3    H121123   6.902   4.430   3.420 -1.1040  1.4182  1.0536
 7060TIP3    H221124   6.940   4.468   3.278  1.3089 -2.4494  0.6095
 7061TIP3   OH221125   0.429   3.818   2.738 -0.2426  0.5982  0.5522
 7061TIP3    H121126   0.415   3.898   2.788 -0.9446  0.4644  0.5738
 7061TIP3    H221127   0.425   3.846   2.647  0.0697  0.6812  0.5642
 7062TIP3   OH221128   0.012   2.966   4.707  0.1323  0.0205  0.0844
 7062TIP3    H121129   0.004   2.948   4.801  1.2003 -1.1044 -0.0192
 7062TIP3    H221130   0.048   2.885   4.671 -0.7419  0.2794 -1.3761
 7063TIP3   OH221131   0.942   1.529   2.721 -0.3574  0.2017  0.3781
 7063TIP3    H121132   0.992   1.611   2.716 -0.8059  0.4658  0.2202
 7063TIP3    H221133   0.863   1.546   2.670  0.2409 -0.8278 -0.9119
 7064TIP3   OH221134   8.097   4.403   2.823 -0.1847 -0.3840 -0.0055
 7064TIP3    H121135   8.078   4.359   2.741  0.8951  0.1910 -0.5740
 7064TIP3    H221136   8.036   4.477   2.827  1.0141  0.6946 -1.2000
 7065TIP3   OH221137   7.795   4.284   1.853 -0.0297  0.1741 -0.1815
 7065TIP3    H121138   7.822   4.193   1.856 -0.5482 -0.0474 -1.6102
 7065TIP3    H221139   7.863   4.328   1.801 -0.9052  0.1615 -1.3674
 7066TIP3   OH221140   0.298   4.496   3.439 -0.4816  0.1208  0.4461
 7066TIP3    H121141   0.374   4.541   3.401 -0.2607  0.2180  0.9920
 7066TIP3    H221142   0.268   4.437   3.371  0.0070  0.1830  0.1752
 7067TIP3   OH221143   6.922   3.559   1.465 -0.4465  0.0175 -0.0166
 7067TIP3    H121144   6.861   3.631   1.451 -2.3629 -1.6959 -0.6373
 7067TIP3    H221145   6.942   3.562   1.558 -0.5978  1.2722 -0.0128
 7068TIP3   OH221146   6.662   3.887   2.266 -0.6407  0.1804 -0.3008
 7068TIP3    H121147   6.751   3.898   2.234 -1.3210 -0.6895 -2.6084
 7068TIP3    H221148   6.664   3.808   2.320 -0.3413 -0.7524 -1.6672
 7069TIP3   OH221149   7.202   2.392   3.011 -0.9480  0.5109 -0.3277
 7069TIP3    H121150   7.199   2.449   3.087  1.4895 -0.1518  0.3007
 7069TIP3    H221151   7.262   2.322   3.036 -1.3692 -0.5781 -2.2752
 7070TIP3   OH221152   0.279   5.511   4.532  0.3756 -0.3960  0.1907
 7070TIP3    H121153   0.279   5.490   4.625 -2.9745  1.7452  0.7732
 7070TIP3    H221154   0.203   5.465   4.497  1.3937 -0.8846 -1.4263
 7071TIP3   OH221155   7.539   2.951   4.312  0.7799  0.5425 -0.1313
 7071TIP3    H121156   7.622   2.918   4.279  0.9759  1.0360 -0.1337
 7071TIP3    H221157   7.518   2.894   4.386  0.2454 -0.6828 -1.2244
 7072TIP3   OH221158   0.649   3.162   3.728 -0.7231 -0.4079 -0.6646
 7072TIP3    H121159   0.703   3.235   3.758 -3.5663  2.0681 -1.3360
 7072TIP3    H221160   0.678   3.088   3.781  2.9607  0.9056 -0.7069
 7073TIP3   OH221161   1.035   2.480   4.766  0.4788  0.5494 -0.3467
 7073TIP3    H121162   1.008   2.552   4.709 -0.6677  0.2478 -0.1892
 7073TIP3    H221163   1.031   2.517   4.855 -0.1439  0.2877 -0.2628
 7074TIP3   OH221164   1.323   1.194   2.050  0.0626  0.0007  0.0239
 7074TIP3    H121165   1.237   1.224   2.022  0.5658 -1.0622 -2.7785
 7074TIP3    H221166   1.331   1.105   2.015  2.3812  0.1517  0.0603
 7075TIP3   OH221167   6.924   0.068   3.663  0.5270 -0.0086  0.2279
 7075TIP3    H121168   6.908   0.133   3.595 -0.7513 -0.9574 -0.3916
 7075TIP3    H221169   6.889   0.108   3.743 -0.1070  0.1399 -0.1228
 7076TIP3   OH221170   0.353   0.373   5.121 -0.1590  0.0529  0.1062
 7076TIP3    H121171   0.298   0.305   5.159 -0.3892  0.1688 -0.0200
 7076TIP3    H221172   0.308   0.399   5.040  0.3433 -0.2152 -0.2652
 7077TIP3   OH221173   7.641   4.229   1.530  0.8319  0.2078  0.2191
 7077TIP3    H121174   7.600   4.172   1.596  1.5820  2.4716  2.6846
 7077TIP3    H221175   7.668   4.168   1.461 -0.3924 -2.1724  1.7399
 7078TIP3   OH221176   8.038   4.244   2.591 -0.3577  0.1376 -0.8930
 7078TIP3    H121177   7.983   4.291   2.530 -1.8362 -1.5131 -0.8596
 7078TIP3    H221178   8.110   4.210   2.537 -0.2217  0.9184 -1.2157
 7079TIP3   OH221179   7.441   3.947   2.289  0.1118 -0.6741 -0.2233
 7079TIP3    H121180   7.516   4.004   2.302 -0.6284  0.7257 -1.9338
 7079TIP3    H221181   7.438   3.893   2.368  0.7771  1.6824  1.4648
 7080TIP3   OH221182   6.706   4.353   1.234 -0.0145  0.6761 -0.3816
 7080TIP3    H121183   6.719   4.382   1.144 -0.2074  0.2216 -0.5544
 7080TIP3    H221184   6.677   4.432   1.281 -0.0537  0.8770 -0.7438
 7081TIP3   OH221185   0.676   2.527   2.097 -0.7666  0.6035 -0.4252
 7081TIP3    H121186   0.647   2.500   2.184  0.8917  0.9663  0.2583
 7081TIP3    H221187   0.693   2.621   2.105  1.9230  0.1558 -0.4002
 7082TIP3   OH221188   7.006   4.963   4.200  0.5373 -0.2721 -0.5555
 7082TIP3    H121189   7.088   4.943   4.246  0.4754  1.3181  0.3007
 7082TIP3    H221190   7.034   4.988   4.112  1.0256  0.6730 -0.1436
 7083TIP3   OH221191   0.264   1.562   2.786  0.4724  0.4135 -0.2797
 7083TIP3    H121192   0.223   1.571   2.700  1.0815 -2.4848 -0.9324
 7083TIP3    H221193   0.286   1.469   2.792  2.0658  0.9155  2.2783
 7084TIP3   OH221194   0.253   2.033   4.920  0.2078 -0.0819  0.5592
 7084TIP3    H121195   0.208   2.022   4.836  2.1661 -1.4476 -0.3514
 7084TIP3    H221196   0.255   2.128   4.933 -0.0926  0.1612 -0.9570
 7085TIP3   OH221197   8.160   5.572   5.442  0.0012  0.2612  0.0814
 7085TIP3    H121198   8.158   5.480   5.415  0.8787  0.3391 -0.2653
 7085TIP3    H221199   8.201   5.571   5.529  0.2859  0.3486 -0.0489
 7086TIP3   OH221200   7.998   3.946   3.511  0.5224 -0.4831 -0.3615
 7086TIP3    H121201   7.945   3.943   3.432 -2.2398  0.5328  1.3888
 7086TIP3    H221202   8.067   4.010   3.491  0.9143 -1.5351 -2.5264
 7087TIP3   OH221203   0.549   2.871   3.589  0.0559  0.1815  0.1603
 7087TIP3    H121204   0.544   2.786   3.546  0.3347 -1.1534  2.6815
 7087TIP3    H221205   0.464   2.911   3.573 -0.8478 -1.4744  0.7428
 7088TIP3   OH221206   0.315   3.395   4.911  0.0705  0.2125  0.3206
 7088TIP3    H121207   0.275   3.394   4.824  1.3563  1.1074 -0.2972
 7088TIP3    H221208   0.253   3.348   4.967 -1.2543  0.5395 -0.8604
 7089TIP3   OH221209   7.825   3.727   3.740 -0.4551  0.7044 -0.2207
 7089TIP3    H121210   7.844   3.780   3.817  0.6263 -1.0083  0.7203
 7089TIP3    H221211   7.893   3.659   3.739 -2.8837 -1.8297 -0.2934
 7090TIP3   OH221212   0.378   2.035   3.905 -0.1004  0.1075  0.5385
 7090TIP3    H121213   0.347   2.105   3.963 -0.9900 -0.3783  0.6505
 7090TIP3    H221214   0.461   2.068   3.870  0.1133  0.6827  1.5743
 7091TIP3   OH221215   0.158   3.731   1.171  0.3954  0.3618 -0.0870
 7091TIP3    H121216   0.119   3.811   1.137  0.6145 -0.7975 -3.2771
 7091TIP3    H221217   0.252   3.743   1.160  0.3855 -0.6794 -1.5157
 7092TIP3   OH221218   5.881   2.966   4.190 -0.0739  0.4618  0.1119
 7092TIP3    H121219   5.916   3.022   4.120  1.6260 -1.4202 -0.6086
 7092TIP3    H221220   5.937   2.985   4.266  0.0432  0.2606  0.0759
 7093TIP3   OH221221   0.237   0.873   4.437  0.0132 -0.0181 -0.1028
 7093TIP3    H121222   0.277   0.907   4.517 -1.2733  0.6769  0.2513
 7093TIP3    H221223   0.143   0.873   4.455 -0.3161  0.4690 -1.7341
 7094TIP3   OH221224   5.874   3.142   1.280  0.5977 -0.1622  0.1024
 7094TIP3    H121225   5.821   3.101   1.212  0.3162  1.9074 -0.9472
 7094TIP3    H221226   5.916   3.068   1.325 -0.7613 -1.6539 -1.0117
 7095TIP3   OH221227   0.236   4.046   0.507  0.3250 -0.5318 -0.1037
 7095TIP3    H121228   0.317   3.996   0.501  1.0584  0.6827 -0.4109
 7095TIP3    H221229   0.225   4.063   0.601  0.6279 -0.3878 -0.0934
 7096TIP3   OH221230   0.281   5.252   5.425  0.2690  0.1755  0.1645
 7096TIP3    H121231   0.323   5.258   5.339  0.9364  0.7761  0.5237
 7096TIP3    H221232   0.225   5.330   5.430 -0.8573 -0.5961 -0.2900
 7097TIP3   OH221233   0.209   3.485   4.344 -0.1353  0.1857  0.2313
 7097TIP3    H121234   0.165   3.498   4.428  3.0544 -1.8651  2.3017
 7097TIP3    H221235   0.285   3.543   4.347  0.7974 -0.9733 -0.6013
 7098TIP3   OH221236   0.014   3.055   3.995  0.2636  0.7983 -0.5762
 7098TIP3    H121237   0.051   3.136   3.963  0.9654  0.4682 -0.6079
 7098TIP3    H221238   0.022   2.994   3.922  0.5275  0.4583 -0.2647
 7099TIP3   OH221239   0.267   3.886   4.233 -0.6280  0.1819  0.5764
 7099TIP3    H121240   0.354   3.858   4.262 -0.4059  0.1140 -0.1418
 7099TIP3    H221241   0.233   3.939   4.305  1.0184  2.2935 -0.1679
 7100TIP3   OH221242   6.288   0.584   0.295 -0.0225  0.6848 -0.1438
 7100TIP3    H121243   6.215   0.640   0.319  0.2552  1.2820 -0.6792
 7100TIP3    H221244   6.262   0.496   0.325 -0.9887  0.8703 -0.4239
 7101TIP3   OH221245   1.457   5.434   5.258  0.3651  0.4780 -0.1106
 7101TIP3    H121246   1.410   5.408   5.179  0.3793  0.2085 -0.0317
 7101TIP3    H221247   1.388   5.443   5.325  0.3263  0.9294 -0.2102
 7102TIP3   OH221248   0.061   5.827   4.471  0.1241 -0.6123  0.3181
 7102TIP3    H121249   0.108   5.804   4.551  0.1212  1.5672  0.9684
 7102TIP3    H221250  -0.009   5.885   4.500  0.6569  0.9045 -1.3612
 7103TIP3   OH221251   7.652   3.864   4.652 -0.2659  0.9674  0.5018
 7103TIP3    H121252   7.701   3.782   4.651 -0.3171  0.9439 -0.7102
 7103TIP3    H221253   7.585   3.850   4.719 -0.9634 -0.4024 -0.4409
 7104TIP3   OH221254   5.804   3.959   5.256 -0.1801  0.2248  0.0755
 7104TIP3    H121255   5.862   3.893   5.219  0.6613  1.3989 -0.7525
 7104TIP3    H221256   5.761   3.998   5.180 -0.8791  0.4298  0.5785
 7105TIP3   OH221257   1.562   4.575   6.623  0.2133 -0.3511  0.2673
 7105TIP3    H121258   1.548   4.649   6.682 -0.6911  0.3150 -0.7703
 7105TIP3    H221259   1.635   4.603   6.567 -1.3112  0.5353 -1.3349
 7106TIP3   OH221260   3.138   0.292   1.992  0.0652  0.1864  0.6049
 7106TIP3    H121261   3.117   0.375   2.036  0.0460  0.3879  0.2239
 7106TIP3    H221262   3.074   0.230   2.027 -1.1216  0.7679 -0.4644
 7107TIP3   OH221263   7.943   5.651   4.739  0.2520 -0.2933  0.1810
 7107TIP3    H121264   8.022   5.628   4.691 -0.1268  0.3411 -0.7594
 7107TIP3    H221265   7.919   5.571   4.786  1.4564 -0.4798  0.5025
 7108TIP3   OH221266   1.880   5.885   4.045  0.1902  0.4651  0.2357
 7108TIP3    H121267   1.930   5.962   4.072  0.5692  0.3963 -0.2715
 7108TIP3    H221268   1.874   5.831   4.123  0.7971  0.5341  0.3320
 7109TIP3   OH221269   2.251   5.253   4.357  0.2235 -0.0883 -0.1998
 7109TIP3    H121270   2.251   5.157   4.348  3.5073 -0.2127  0.6145
 7109TIP3    H221271   2.303   5.284   4.283  0.6952  0.9277  0.5421
 7110TIP3   OH221272   8.380   2.379   4.449  0.4384  0.8286 -1.0095
 7110TIP3    H121273   8.361   2.470   4.474  1.1888  1.9661 -4.3054
 7110TIP3    H221274   8.471   2.366   4.475  0.8292  1.5703 -1.9766
 7111TIP3   OH221275   8.350   3.657   2.675 -0.0970 -0.9536  0.3893
 7111TIP3    H121276   8.289   3.592   2.640  0.7921 -0.7469 -1.6254
 7111TIP3    H221277   8.300   3.703   2.742 -1.7634 -1.5893 -0.3919
 7112TIP3   OH221278   0.313   3.059   3.608  0.0768 -0.0508 -0.1174
 7112TIP3    H121279   0.307   3.042   3.702 -1.3976 -0.4283 -0.2727
 7112TIP3    H221280   0.224   3.079   3.580  0.1994 -1.5677 -1.7358
 7113TIP3   OH221281   6.774   3.466   3.849 -0.0414 -0.0495  0.4490
 7113TIP3    H121282   6.798   3.539   3.907  0.7536  0.8499 -0.9595
 7113TIP3    H221283   6.680   3.454   3.862 -0.1616  1.1656  0.7747
 7114TIP3   OH221284   7.404   2.145   4.639 -0.3463 -0.5844  0.2563
 7114TIP3    H121285   7.397   2.163   4.733  1.0280 -0.0788  0.2649
 7114TIP3    H221286   7.488   2.101   4.629 -0.2381 -0.1474 -0.8150
 7115TIP3   OH221287   1.784   4.160   4.381 -0.1906 -0.1105  0.0554
 7115TIP3    H121288   1.745   4.183   4.297 -0.6439 -0.5804  0.1367
 7115TIP3    H221289   1.715   4.113   4.428 -0.0411  0.4224  0.8145
 7116TIP3   OH221290   1.465   3.635   4.674 -0.7197 -0.3728 -0.2477
 7116TIP3    H121291   1.376   3.618   4.705 -1.2534  1.3157 -0.7836
 7116TIP3    H221292   1.453   3.690   4.597  0.7103 -2.3622 -1.9244
 7117TIP3   OH221293   1.716   3.469   3.656 -0.4094 -0.2493  0.2033
 7117TIP3    H121294   1.804   3.486   3.689 -1.3817  2.2841  1.7034
 7117TIP3    H221295   1.678   3.406   3.717  0.3670 -1.4382 -0.5169
 7118TIP3   OH221296   0.473   4.909   5.160  0.2312  0.7754  0.0552
 7118TIP3    H121297   0.451   4.842   5.095  0.8435  0.2984  0.3201
 7118TIP3    H221298   0.475   4.861   5.243  1.5264  0.9372  0.1320
 7119TIP3   OH221299   3.321   2.471   3.177 -0.2448  0.4186  0.3879
 7119TIP3    H121300   3.404   2.518   3.168 -0.4083  0.8751  1.2877
 7119TIP3    H221301   3.324   2.406   3.107  1.7214 -0.8552  1.6075
 7120TIP3   OH221302   6.372   0.828   6.601  0.8806  0.7825 -0.2898
 7120TIP3    H121303   6.315   0.752   6.618  1.1726  0.9746  1.6966
 7120TIP3    H221304   6.453   0.789   6.568  0.7203  0.2744 -0.1049
 7121TIP3   OH221305   1.722   3.651   5.285 -0.1271 -0.0872 -0.0824
 7121TIP3    H121306   1.648   3.621   5.337 -0.8249 -0.3534 -1.2002
 7121TIP3    H221307   1.788   3.582   5.296 -0.0936  0.0837  0.8074
 7122TIP3   OH221308   1.495   3.141   5.930 -0.5266 -0.1894 -0.2664
 7122TIP3    H121309   1.531   3.180   6.010  0.6574 -0.3002 -0.7363
 7122TIP3    H221310   1.568   3.142   5.868 -1.4097 -0.1957 -1.3185
 7123TIP3   OH221311   8.204   3.527   3.829 -0.6566  0.3666 -0.6301
 7123TIP3    H121312   8.175   3.618   3.832 -1.2845  0.1394  0.9707
 7123TIP3    H221313   8.254   3.520   3.748 -0.0086  2.3131 -0.4294
 7124TIP3   OH221314   0.699   3.945   3.597 -0.7320 -0.0701 -0.2337
 7124TIP3    H121315   0.780   3.894   3.595 -0.2396  0.7160 -0.8512
 7124TIP3    H221316   0.644   3.906   3.529  0.2340  1.1379 -1.7620
 7125TIP3   OH221317   4.438   7.206   0.271  0.0047 -0.5635  0.0625
 7125TIP3    H121318   4.464   7.229   0.182 -0.6660 -1.2060 -0.3084
 7125TIP3    H221319   4.497   7.135   0.296  1.0524  0.4989  0.6238
 7126TIP3   OH221320   6.717   4.789   4.779 -0.1404 -0.6795  0.0593
 7126TIP3    H121321   6.653   4.755   4.716 -0.1112 -0.0272 -0.3293
 7126TIP3    H221322   6.673   4.781   4.864 -0.6096 -0.5312 -0.1700
 7127TIP3   OH221323   6.016   0.420   0.528 -0.0105 -0.6989  0.1626
 7127TIP3    H121324   5.962   0.401   0.452  0.5129 -1.1459 -0.1038
 7127TIP3    H221325   6.106   0.402   0.499  0.4228  1.3292  0.1838
 7128TIP3   OH221326   0.383   4.457   4.580  0.0455  0.7376  0.1208
 7128TIP3    H121327   0.360   4.369   4.609  2.9332  0.3039  1.2234
 7128TIP3    H221328   0.444   4.443   4.508  0.7258  1.8443  0.4750
 7129TIP3   OH221329   1.924   4.901   3.296 -0.6540  0.1657 -0.1943
 7129TIP3    H121330   1.839   4.937   3.273 -0.7089  0.0374 -0.1891
 7129TIP3    H221331   1.909   4.851   3.376 -0.5494  0.2488 -0.1222
 7130TIP3   OH221332   2.219   4.799   4.821 -0.0279 -0.2003  0.0818
 7130TIP3    H121333   2.234   4.809   4.727 -0.2747  0.3582  0.1002
 7130TIP3    H221334   2.130   4.765   4.828  0.2232 -0.8498  0.0863
 7131TIP3   OH221335   1.485   3.764   4.960  0.0637 -0.1577  0.0334
 7131TIP3    H121336   1.419   3.733   5.022  0.0610  0.0800  0.1544
 7131TIP3    H221337   1.437   3.819   4.898  0.1042 -0.1984 -0.0340
 7132TIP3   OH221338   8.447   3.962   5.725 -0.5319 -0.0057  0.1902
 7132TIP3    H121339   8.541   3.958   5.743 -0.1344  0.0597 -1.7189
 7132TIP3    H221340   8.420   3.870   5.719 -0.4628 -0.0247  0.1686
 7133TIP3   OH221341   1.929   5.887   4.757  0.3354 -0.0683 -0.3206
 7133TIP3    H121342   2.004   5.940   4.729  0.2966  0.4807  0.5728
 7133TIP3    H221343   1.859   5.911   4.697 -0.4434  2.8768  1.6143
 7134TIP3   OH221344   1.787   5.944   6.199  0.0172  0.2565 -0.6498
 7134TIP3    H121345   1.694   5.962   6.211  0.1994  0.7089  0.0836
 7134TIP3    H221346   1.789   5.869   6.140 -0.7880  2.4020 -3.5371
 7135TIP3   OH221347   1.224   0.879   2.963 -0.0193 -0.0741 -0.0377
 7135TIP3    H121348   1.140   0.925   2.966  0.4344  0.7166  0.7109
 7135TIP3    H221349   1.232   0.837   3.049  0.4399  0.0243 -0.0291
 7136TIP3   OH221350   6.378   3.345   4.786 -0.0341  0.0019  0.3917
 7136TIP3    H121351   6.438   3.284   4.744  0.7374  1.2283 -0.3312
 7136TIP3    H221352   6.334   3.293   4.853  0.6971 -1.3052 -0.1133
 7137TIP3   OH221353   1.009   2.675   2.252  0.0586  0.5926 -0.1846
 7137TIP3    H121354   1.047   2.750   2.207  0.4870  1.1703  1.1312
 7137TIP3    H221355   1.037   2.684   2.343 -1.7451  0.0633  0.4503
 7138TIP3   OH221356   0.775   5.037   5.988  0.5834 -0.3565 -0.2383
 7138TIP3    H121357   0.682   5.022   5.972 -0.1596  2.2774  1.3455
 7138TIP3    H221358   0.807   4.953   6.022 -1.4699 -0.9568  0.2818
 7139TIP3   OH221359   0.421   3.314   6.948  0.2562 -0.3947 -0.1347
 7139TIP3    H121360   0.408   3.314   6.854 -0.7286  0.3542 -0.0080
 7139TIP3    H221361   0.383   3.231   6.977  1.1723 -0.9375 -0.4666
 7140TIP3   OH221362   2.599   4.916   3.765  0.4342 -0.2715  0.0487
 7140TIP3    H121363   2.532   4.947   3.827 -0.4581 -1.0560 -0.5071
 7140TIP3    H221364   2.677   4.904   3.818 -0.3863 -1.1642  1.0833
 7141TIP3   OH221365   8.462   2.416   3.203 -0.1813  0.5745  0.6087
 7141TIP3    H121366   8.486   2.361   3.129 -0.0706 -0.0270  1.0898
 7141TIP3    H221367   8.392   2.368   3.247  1.0714 -0.0131  2.0017
 7142TIP3   OH221368   7.770   4.167   3.337 -0.1061  0.0365  0.1858
 7142TIP3    H121369   7.826   4.127   3.270  0.0201  0.7303 -0.1294
 7142TIP3    H221370   7.704   4.215   3.287 -1.5839 -1.5814  0.5475
 7143TIP3   OH221371   0.497   4.485   4.292  0.3472 -0.1130  0.3709
 7143TIP3    H121372   0.565   4.434   4.248  0.7893  1.7029 -1.0844
 7143TIP3    H221373   0.415   4.442   4.267  0.8187 -1.2651  0.7419
 7144TIP3   OH221374   1.146   4.167   6.457  0.2966 -0.0298  0.0394
 7144TIP3    H121375   1.117   4.235   6.396  2.4593  0.3448 -0.5878
 7144TIP3    H221376   1.075   4.162   6.522 -0.5438  1.8137 -0.6962
 7145TIP3   OH221377   3.667   7.361   0.776  0.0591  0.0451  0.1363
 7145TIP3    H121378   3.600   7.326   0.835 -1.1130  0.0395 -1.1754
 7145TIP3    H221379   3.633   7.446   0.750 -0.1942 -0.6178 -1.7530
 7146TIP3   OH221380   1.559   4.835   6.356  0.3413  0.1554 -0.0843
 7146TIP3    H121381   1.616   4.794   6.421 -1.3980 -1.0841  0.7311
 7146TIP3    H221382   1.572   4.929   6.366  1.5860 -0.0954  0.6562
 7147TIP3   OH221383   0.519   4.579   3.267  0.0197 -0.5415  0.6482
 7147TIP3    H121384   0.496   4.501   3.217  1.3332  0.7596 -2.1267
 7147TIP3    H221385   0.561   4.637   3.203 -0.1016  2.0713  2.8323
 7148TIP3   OH221386   0.721   1.968   4.946 -0.1639  0.5452 -0.3012
 7148TIP3    H121387   0.703   2.038   5.009 -1.3293 -0.4245  0.4827
 7148TIP3    H221388   0.672   1.893   4.980  0.1380 -0.3230 -1.7462
 7149TIP3   OH221389   0.632   1.983   5.663  0.2226  0.4078 -0.2646
 7149TIP3    H121390   0.687   1.996   5.585  0.2344 -1.9967 -0.6897
 7149TIP3    H221391   0.694   1.969   5.734  0.1845  0.5738 -0.1980
 7150TIP3   OH221392   0.901   4.804   4.781 -0.3066  0.1568 -0.7498
 7150TIP3    H121393   0.871   4.887   4.743  0.1519  0.2366 -0.9433
 7150TIP3    H221394   0.925   4.827   4.871  3.0638  0.9944 -1.7721
 7151TIP3   OH221395   1.891   3.655   4.170  0.4930 -0.7249  0.4559
 7151TIP3    H121396   1.941   3.735   4.154 -1.9161  0.5633 -0.8561
 7151TIP3    H221397   1.815   3.685   4.221 -0.3019 -2.1975  0.1523
 7152TIP3   OH221398   3.114   3.610   4.941 -0.2361  0.4323  0.1654
 7152TIP3    H121399   3.201   3.571   4.952 -0.7608 -0.5012  1.0687
 7152TIP3    H221400   3.131   3.694   4.897  1.0414 -0.0878 -0.3514
 7153TIP3   OH221401   8.361   3.895   1.074  0.0900 -0.1353  0.0582
 7153TIP3    H121402   8.336   3.914   0.984 -0.1763 -0.9586 -0.0410
 7153TIP3    H221403   8.441   3.946   1.088 -0.5515  0.9743 -0.2372
 7154TIP3   OH221404   1.328   3.371   4.992 -0.3259 -0.5643 -0.9522
 7154TIP3    H121405   1.392   3.404   4.929  0.0474 -0.6589 -0.6205
 7154TIP3    H221406   1.341   3.276   4.992  2.5795 -0.2639  2.3786
 7155TIP3   OH221407   7.924   4.807   4.415  0.3631  0.0303  0.8001
 7155TIP3    H121408   7.989   4.850   4.359 -0.3319  1.2181  0.8831
 7155TIP3    H221409   7.947   4.834   4.504  0.3944 -0.3922  0.9176
 7156TIP3   OH221410   7.942   3.998   4.659 -0.1484  0.5423  0.4857
 7156TIP3    H121411   7.984   3.914   4.676 -1.0160 -0.4053 -1.7627
 7156TIP3    H221412   8.014   4.061   4.651  0.7039 -0.6081 -1.0071
 7157TIP3   OH221413   7.604   3.055   6.485  0.0076  0.9240 -0.8801
 7157TIP3    H121414   7.634   3.058   6.394  1.4136  1.0502 -0.4195
 7157TIP3    H221415   7.684   3.062   6.537 -1.0321  3.6290  0.4035
 7158TIP3   OH221416   0.361   2.484   5.089 -0.4727  0.0072  0.1349
 7158TIP3    H121417   0.441   2.481   5.036 -0.8074 -1.4976 -0.3089
 7158TIP3    H221418   0.324   2.571   5.072 -0.0764 -0.1061 -1.3604
 7159TIP3   OH221419   1.622   3.101   5.582  0.4208 -0.0260  0.1380
 7159TIP3    H121420   1.708   3.132   5.551  1.5479 -2.7456  0.3805
 7159TIP3    H221421   1.643   3.043   5.655 -1.7812  0.6176  1.3149
 7160TIP3   OH221422   8.177   3.429   5.118 -0.2267 -0.0763  0.0997
 7160TIP3    H121423   8.179   3.515   5.160  0.7995 -0.0030 -0.0689
 7160TIP3    H221424   8.094   3.426   5.072  0.7389  1.7750 -1.8288
 7161TIP3   OH221425   1.360   3.212   3.359  0.9864 -0.1412 -0.0218
 7161TIP3    H121426   1.360   3.245   3.269  0.1953 -0.4549 -0.1427
 7161TIP3    H221427   1.336   3.288   3.412  0.8054 -0.1207 -0.1343
 7162TIP3   OH221428   8.382   4.345   4.127  0.0433  0.8259  0.2434
 7162TIP3    H121429   8.441   4.317   4.058  1.5656  0.2129  1.7713
 7162TIP3    H221430   8.391   4.279   4.195 -1.5176  1.3645  0.9916
 7163TIP3   OH221431   6.715   3.485   5.291  0.2996 -0.1249  0.1626
 7163TIP3    H121432   6.688   3.563   5.339  0.1251 -0.0398 -0.0717
 7163TIP3    H221433   6.709   3.511   5.199  0.9835 -0.1726  0.1053
 7164TIP3   OH221434   0.816   6.685   5.410  0.2028 -0.4609 -0.0099
 7164TIP3    H121435   0.773   6.771   5.407 -1.1720 -1.1253  0.2907
 7164TIP3    H221436   0.762   6.629   5.354  1.6327 -0.9044 -0.9731
 7165TIP3   OH221437   1.380   4.159   5.738 -0.2007 -0.1053 -0.2743
 7165TIP3    H121438   1.436   4.082   5.730 -0.1542 -0.4348  2.5705
 7165TIP3    H221439   1.426   4.216   5.799 -0.6720  1.8028 -1.6547
 7166TIP3   OH221440   8.313   5.266   4.239 -0.2137 -0.2523 -0.0630
 7166TIP3    H121441   8.294   5.358   4.259  0.4744 -0.1515  0.1512
 7166TIP3    H221442   8.289   5.219   4.319 -1.1752 -0.3452 -0.4004
 7167TIP3   OH221443   7.108   3.342   4.114  0.0683 -0.0977 -0.4779
 7167TIP3    H121444   7.202   3.344   4.097  0.2337  0.7591  0.5236
 7167TIP3    H221445   7.086   3.431   4.141 -1.0746 -0.2361 -0.9226
 7168TIP3   OH221446   7.619   2.298   4.457 -0.0170  0.2984  0.4685
 7168TIP3    H121447   7.542   2.256   4.419  1.4442 -1.9367 -0.1122
 7168TIP3    H221448   7.623   2.265   4.547 -0.1464  0.9925  0.7335
 7169TIP3   OH221449   8.288   4.519   5.012 -0.0088  0.3004  0.2262
 7169TIP3    H121450   8.262   4.503   5.103 -1.3253  0.3823 -0.1255
 7169TIP3    H221451   8.253   4.606   4.993  0.6637  0.4770 -0.2227
 7170TIP3   OH221452   1.752   2.609   6.046 -0.9122 -0.9903  0.2646
 7170TIP3    H121453   1.842   2.584   6.067 -0.7448 -0.4684  0.1817
 7170TIP3    H221454   1.749   2.703   6.064 -0.7134 -0.4789 -2.2112
 7171TIP3   OH221455   0.363   4.254   5.325 -0.0381 -0.7447  0.1542
 7171TIP3    H121456   0.290   4.265   5.263 -0.4502  0.7259  0.8725
 7171TIP3    H221457   0.417   4.185   5.287 -0.4802 -0.1114 -1.6673
 7172TIP3   OH221458   1.334   3.104   5.062 -0.0485 -0.3686  0.7863
 7172TIP3    H121459   1.262   3.051   5.026 -0.4394 -0.7197  2.0281
 7172TIP3    H221460   1.407   3.043   5.070  0.0208 -0.3045  0.6405
 7173TIP3   OH221461   7.970   1.810   4.311  0.5239 -0.0766  0.0272
 7173TIP3    H121462   7.906   1.781   4.246 -0.5195  1.0047  0.5583
 7173TIP3    H221463   7.919   1.826   4.390  1.5288  0.2756  0.6196
 7174TIP3   OH221464   0.574   3.397   4.258 -0.2284 -0.3711 -0.2996
 7174TIP3    H121465   0.524   3.454   4.317 -1.3501 -1.0535 -0.5808
 7174TIP3    H221466   0.662   3.396   4.296 -0.5930  0.2828  0.6050
 7175TIP3   OH221467   0.202   6.741   5.258 -0.3083  0.0041  0.3817
 7175TIP3    H121468   0.282   6.793   5.260  0.5701 -1.3413  0.7042
 7175TIP3    H221469   0.228   6.656   5.293 -1.2519 -1.3017 -1.9942
 7176TIP3   OH221470   0.239   3.378   4.644  0.4292  0.5506  0.1959
 7176TIP3    H121471   0.184   3.441   4.597  1.3025  1.2289  0.0509
 7176TIP3    H221472   0.195   3.294   4.633  0.9071  0.5802 -2.3750
 7177TIP3   OH221473   2.519   2.956   5.017  0.6694  0.7742  0.3961
 7177TIP3    H121474   2.446   2.908   4.977  0.1903  2.4401 -0.7671
 7177TIP3    H221475   2.597   2.910   4.987  0.2494  1.1532 -1.3492
 7178TIP3   OH221476   2.969   4.797   2.471 -0.1597 -0.1329  0.9851
 7178TIP3    H121477   3.023   4.746   2.411 -0.9496  1.3625 -1.0664
 7178TIP3    H221478   2.882   4.756   2.467 -0.7484  1.2101 -0.5285
 7179TIP3   OH221479   1.799   5.676   6.122 -0.4438  0.1562 -0.1126
 7179TIP3    H121480   1.832   5.672   6.032 -0.0937  0.9650 -0.0249
 7179TIP3    H221481   1.830   5.595   6.162  2.3001  1.3551  0.2547
 7180TIP3   OH221482   0.887   5.652   4.369 -0.4714  0.4390  0.1417
 7180TIP3    H121483   0.850   5.577   4.322  0.3898 -0.2992  0.6316
 7180TIP3    H221484   0.827   5.668   4.441 -0.4409 -0.0487  0.2770
 7181TIP3   OH221485   8.458   4.854   5.445 -0.2131  0.6573  0.1825
 7181TIP3    H121486   8.524   4.868   5.513  0.5197 -3.7345  0.5562
 7181TIP3    H221487   8.498   4.891   5.366  0.0594  3.4278  1.5540
 7182TIP3   OH221488   5.881   3.781   5.025 -0.4229  0.6434 -0.7727
 7182TIP3    H121489   5.801   3.823   4.996  0.2811  0.8460 -2.4852
 7182TIP3    H221490   5.852   3.706   5.077 -1.6951  1.4381 -0.3152
 7183TIP3   OH221491   8.128   5.262   4.011 -0.1956 -0.7239  0.3714
 7183TIP3    H121492   8.068   5.335   4.020  0.5692 -0.1231  0.6682
 7183TIP3    H221493   8.194   5.276   4.079 -0.8211 -2.4510  1.3578
 7184TIP3   OH221494   0.307   3.717   5.398  0.2957  0.2124  0.4860
 7184TIP3    H121495   0.234   3.702   5.458  0.0690 -0.0700  0.1346
 7184TIP3    H221496   0.325   3.632   5.359  0.8354  0.2715  0.5947
 7185TIP3   OH221497   7.241   7.057   4.759 -0.2835 -0.3961  0.4987
 7185TIP3    H121498   7.215   7.120   4.692 -2.4059  0.2262  1.8194
 7185TIP3    H221499   7.225   7.104   4.842  2.3060 -1.1186  1.4499
 7186TIP3   OH221500   1.660   2.883   4.624  0.3620  0.1239 -0.0671
 7186TIP3    H121501   1.579   2.834   4.606  0.2611 -0.2003  1.2162
 7186TIP3    H221502   1.730   2.818   4.614  0.2367 -0.2858  1.5214
 7187TIP3   OH221503   1.600   3.338   3.852 -0.3764  0.2842 -0.4978
 7187TIP3    H121504   1.568   3.263   3.901  2.2534 -0.2827  0.4303
 7187TIP3    H221505   1.521   3.381   3.819 -2.0155 -1.3885  1.1623
 7188TIP3   OH221506   1.165   5.317   5.426 -0.1698 -0.3178  0.0431
 7188TIP3    H121507   1.090   5.283   5.378  0.2113  0.7540 -1.3309
 7188TIP3    H221508   1.131   5.335   5.514 -1.2398 -0.8797 -0.2509
 7189TIP3   OH221509   1.316   5.366   3.605 -0.8894 -0.6663 -0.0899
 7189TIP3    H121510   1.397   5.358   3.554 -0.7172 -1.7380  0.3268
 7189TIP3    H221511   1.257   5.302   3.566 -0.7813 -1.4458  1.0015
 7190TIP3   OH221512   6.124   7.722   6.431 -0.1720 -0.1462 -0.3415
 7190TIP3    H121513   6.110   7.631   6.408 -1.8934  0.0904 -0.2915
 7190TIP3    H221514   6.129   7.768   6.347 -2.7505  0.1851 -0.3527
 7191TIP3   OH221515   0.482   1.786   3.729  0.2426 -0.3354 -0.4048
 7191TIP3    H121516   0.463   1.877   3.750  0.5220 -0.3715 -0.0006
 7191TIP3    H221517   0.423   1.766   3.655 -2.0524 -0.7603  1.4708
 7192TIP3   OH221518   0.107   4.492   1.945  0.4689  0.0564 -0.8902
 7192TIP3    H121519   0.150   4.479   1.861  0.7847  1.0383 -0.8827
 7192TIP3    H221520   0.027   4.438   1.940  1.2134 -1.0284 -1.2538
 7193TIP3   OH221521   0.107   5.041   5.264  0.5145  0.0822  0.2132
 7193TIP3    H121522   0.202   5.055   5.265  0.6608 -0.1897 -3.3802
 7193TIP3    H221523   0.071   5.125   5.235 -0.2215 -0.2803  0.0608
 7194TIP3   OH221524   6.284   4.584   3.174  0.5751 -0.5600 -0.8104
 7194TIP3    H121525   6.325   4.632   3.245  0.1138 -1.0842 -0.1870
 7194TIP3    H221526   6.324   4.497   3.176 -0.2788 -0.9550 -0.4393
 7195TIP3   OH221527   3.784   4.779   3.611 -0.3243 -0.6196 -0.2877
 7195TIP3    H121528   3.784   4.782   3.707  0.3541 -0.3894 -0.2904
 7195TIP3    H221529   3.714   4.718   3.589 -2.3303  1.3982  0.2847
 7196TIP3   OH221530   0.503   3.840   5.699 -0.3410  0.5309  0.7873
 7196TIP3    H121531   0.481   3.747   5.697 -2.1676  0.9705 -0.7805
 7196TIP3    H221532   0.567   3.848   5.770 -1.1855 -1.6919  1.8377
 7197TIP3   OH221533   0.644   5.282   3.595 -0.4308  0.0247  0.3224
 7197TIP3    H121534   0.661   5.202   3.645 -2.8611 -0.9447 -0.3453
 7197TIP3    H221535   0.675   5.263   3.507 -1.1845 -0.2614  0.1161
 7198TIP3   OH221536   0.711   2.802   5.592  0.7744  0.1687  0.1862
 7198TIP3    H121537   0.751   2.886   5.568 -0.5258  0.8045  0.1993
 7198TIP3    H221538   0.716   2.750   5.512 -2.4256  1.8507 -1.2175
 7199TIP3   OH221539   1.315   4.476   6.631  0.5958 -0.1176  0.0440
 7199TIP3    H121540   1.271   4.486   6.547  0.8154  1.3874  0.1018
 7199TIP3    H221541   1.404   4.508   6.616  1.4956 -2.5172  0.1099
 7200TIP3   OH221542   1.495   2.627   6.017 -0.0526  0.6492  0.2315
 7200TIP3    H121543   1.488   2.721   5.999  1.1034  0.4371 -1.5800
 7200TIP3    H221544   1.579   2.618   6.063  0.5142  0.3659 -0.8384
 7201TIP3   OH221545   0.892   3.611   4.265  0.4520 -0.8451 -0.1104
 7201TIP3    H121546   0.928   3.549   4.201 -3.9497 -1.7643 -1.9379
 7201TIP3    H221547   0.860   3.555   4.336  0.8132 -0.2497  0.5248
 7202TIP3   OH221548   6.713   2.583   6.084  0.1087  0.4727 -0.3125
 7202TIP3    H121549   6.625   2.586   6.120  0.9039 -0.6117  1.8693
 7202TIP3    H221550   6.724   2.665   6.036 -1.8828  0.8337 -0.1556
 7203TIP3   OH221551   1.840   6.381   0.487  0.9253 -0.1436  0.0286
 7203TIP3    H121552   1.788   6.423   0.418 -0.3571 -2.0703 -0.2114
 7203TIP3    H221553   1.914   6.441   0.501  0.8089  0.6472 -2.4770
 7204TIP3   OH221554   0.762   4.039   3.259 -0.1756  0.1587  0.1375
 7204TIP3    H121555   0.715   3.987   3.194  0.0096  1.4754 -1.0737
 7204TIP3    H221556   0.828   4.087   3.209 -0.7861  2.1003  1.1069
 7205TIP3   OH221557   6.353   4.713   4.851 -0.5789 -0.2522  0.3881
 7205TIP3    H121558   6.312   4.630   4.875  0.5415 -1.3630 -1.4494
 7205TIP3    H221559   6.346   4.717   4.756  1.9702  0.3710  0.1928
 7206TIP3   OH221560   2.801   3.366   6.399  0.4934 -0.2729  0.0308
 7206TIP3    H121561   2.794   3.283   6.446  0.1910 -0.1326  0.2336
 7206TIP3    H221562   2.746   3.354   6.321 -2.7361  1.1046  2.0183
 7207TIP3   OH221563   2.859   5.119   4.356 -0.0217 -0.7893  0.3882
 7207TIP3    H121564   2.879   5.212   4.341 -4.2725  0.5502  2.0504
 7207TIP3    H221565   2.866   5.079   4.270  2.7576  0.8793 -0.2172
 7208TIP3   OH221566   2.575   3.693   6.415  0.5086 -0.2132 -0.0545
 7208TIP3    H121567   2.538   3.778   6.393  2.4052  0.6517  0.0231
 7208TIP3    H221568   2.592   3.697   6.509  2.3232  0.0283 -0.3707
 7209TIP3   OH221569   0.934   6.329   2.938 -0.0581 -0.0135 -0.0070
 7209TIP3    H121570   1.017   6.326   2.984  0.0992 -0.3487 -0.3116
 7209TIP3    H221571   0.936   6.413   2.892  0.6547 -0.5628 -1.0112
 7210TIP3   OH221572   1.052   4.855   3.732  0.3313 -0.1171  0.1395
 7210TIP3    H121573   1.065   4.812   3.816  1.0154 -0.1193  0.0293
 7210TIP3    H221574   1.013   4.788   3.676  1.3398 -0.5784 -0.0147
 7211TIP3   OH221575   1.971   4.996   3.777  0.3199  0.6435 -0.2833
 7211TIP3    H121576   2.040   4.994   3.711  0.4509  0.1067 -0.1302
 7211TIP3    H221577   2.012   4.961   3.856 -0.1960  0.0758 -0.2617
 7212TIP3   OH221578   0.474   4.743   4.752 -0.1537 -0.6891  0.4929
 7212TIP3    H121579   0.430   4.688   4.818 -3.1315 -1.3597 -1.9294
 7212TIP3    H221580   0.542   4.686   4.716 -0.4479 -1.3538  0.9560
 7213TIP3   OH221581   7.450   4.756   4.415  0.3578 -0.4173 -0.0010
 7213TIP3    H121582   7.398   4.697   4.360 -0.7819  0.5519  0.0256
 7213TIP3    H221583   7.487   4.820   4.354 -3.3156  2.4695  0.6063
 7214TIP3   OH221584   0.565   5.750   4.712  0.5275 -0.0655 -0.6827
 7214TIP3    H121585   0.594   5.815   4.777  0.5305 -0.1322 -0.6169
 7214TIP3    H221586   0.576   5.666   4.756  0.4039 -0.1024 -0.7221
 7215TIP3   OH221587   1.686   4.044   6.948 -0.2457 -0.0252  0.6088
 7215TIP3    H121588   1.689   3.997   6.865  0.4386  1.3858 -0.1878
 7215TIP3    H221589   1.597   4.031   6.980 -1.2274  1.2767 -1.4601
 7216TIP3   OH221590   0.970   3.384   4.110  0.0254  0.6480 -0.0530
 7216TIP3    H121591   0.927   3.392   4.025 -0.8694 -1.3456  0.1890
 7216TIP3    H221592   1.062   3.367   4.088 -0.1381  0.4745 -0.6130
 7217TIP3   OH221593   7.356   0.863   0.312  0.2289 -0.2359  0.5930
 7217TIP3    H121594   7.268   0.827   0.298 -0.1860  1.2366 -0.7476
 7217TIP3    H221595   7.387   0.819   0.391 -1.2951 -1.5599  0.4953
 7218TIP3   OH221596   5.072   2.952   2.930  0.1853  0.7276 -0.0422
 7218TIP3    H121597   5.093   2.970   3.021  0.3400 -0.1890  0.1043
 7218TIP3    H221598   5.013   2.877   2.933 -1.0889  1.6744 -0.6077
 7219TIP3   OH221599   5.748   2.278   6.882  0.0986 -0.2422  0.4724
 7219TIP3    H121600   5.778   2.308   6.968  1.2424 -0.9143  0.3108
 7219TIP3    H221601   5.825   2.287   6.826 -1.1156  1.8922 -0.9218
 7220TIP3   OH221602   0.213   2.703   3.089  0.1290  0.1179  0.3247
 7220TIP3    H121603   0.175   2.660   3.166  0.3226  0.1247  0.4230
 7220TIP3    H221604   0.206   2.797   3.109  0.0098  0.1240  0.2537
 7221TIP3   OH221605   1.253   6.959   5.611  1.0012 -0.1949 -0.4453
 7221TIP3    H121606   1.237   7.052   5.595  0.3863 -0.1206  0.6082
 7221TIP3    H221607   1.182   6.914   5.564  0.6589 -0.0869 -0.0294
 7222TIP3   OH221608   1.214   4.692   4.289  0.2011 -0.6451  0.3460
 7222TIP3    H121609   1.234   4.773   4.241 -2.4983  0.4491  0.9534
 7222TIP3    H221610   1.199   4.721   4.379 -1.2377 -1.7612  0.4691
 7223TIP3   OH221611   7.275   2.898   5.516 -0.5948  0.2038 -0.1640
 7223TIP3    H121612   7.185   2.930   5.510 -1.7101 -2.5259  0.9863
 7223TIP3    H221613   7.305   2.929   5.601  0.2506  2.7061 -1.3332
 7224TIP3   OH221614   7.808   2.177   6.468 -0.4954  0.1178 -0.4037
 7224TIP3    H121615   7.862   2.136   6.536 -1.9320  0.5942  1.0566
 7224TIP3    H221616   7.718   2.153   6.492 -0.9268 -1.1197 -3.1152
 7225TIP3   OH221617   1.618   3.511   4.303 -0.3017  0.6849  0.0047
 7225TIP3    H121618   1.623   3.539   4.211  0.8220  0.3102 -0.0571
 7225TIP3    H221619   1.575   3.425   4.299 -1.9476  1.4860  0.0132
 7226TIP3   OH221620   0.744   4.335   4.674 -0.6452  0.3660 -0.6782
 7226TIP3    H121621   0.709   4.423   4.659 -2.2364 -0.2128 -0.4746
 7226TIP3    H221622   0.686   4.298   4.740  1.0707 -0.2187  0.5176
 7227TIP3   OH221623   0.067   2.674   6.854  0.1640 -0.3343 -0.2103
 7227TIP3    H121624  -0.017   2.660   6.809 -0.4372  0.4843  0.6344
 7227TIP3    H221625   0.112   2.590   6.848 -1.0214 -0.9929 -0.0323
 7228TIP3   OH221626   1.150   4.343   6.256  0.0148 -0.6715 -0.3256
 7228TIP3    H121627   1.246   4.339   6.263  0.1767 -0.7270 -2.3394
 7228TIP3    H221628   1.133   4.425   6.210 -0.8216 -1.3833 -1.2907
 7229TIP3   OH221629   7.100   0.902   0.781  0.0044  0.0707 -0.0804
 7229TIP3    H121630   7.174   0.857   0.742  1.2651 -1.0565  3.3598
 7229TIP3    H221631   7.046   0.832   0.818 -0.8986  1.0813  0.5520
 7230TIP3   OH221632   5.251   0.744   0.372  0.2683 -0.3378  0.1783
 7230TIP3    H121633   5.235   0.728   0.465  3.6314 -1.7041  0.5742
 7230TIP3    H221634   5.231   0.660   0.330  0.0002 -0.0961 -0.1767
 7231TIP3   OH221635   1.506   4.856   4.356 -0.0358  0.4185  0.5973
 7231TIP3    H121636   1.414   4.883   4.351 -0.0841  0.2410  0.5247
 7231TIP3    H221637   1.547   4.895   4.279 -0.2455 -0.2544  0.1400
 7232TIP3   OH221638   1.065   4.993   5.523 -0.0611 -0.1749  0.4963
 7232TIP3    H121639   1.052   4.900   5.507  1.5129 -0.1339 -1.1839
 7232TIP3    H221640   1.022   5.037   5.450  0.9283  0.3307  0.2049
 7233TIP3   OH221641  -0.006   1.848   6.365  0.1942  0.1438  0.1274
 7233TIP3    H121642   0.017   1.773   6.309  0.1582  0.0971  0.1752
 7233TIP3    H221643   0.024   1.924   6.316 -1.2350  0.2104 -0.6571
 7234TIP3   OH221644   4.255   6.697   0.408 -0.4238  0.4573  0.0032
 7234TIP3    H121645   4.242   6.730   0.497 -2.1619  0.4036 -0.2236
 7234TIP3    H221646   4.346   6.666   0.408 -0.8953 -1.0810  2.2726
 7235TIP3   OH221647   0.151   4.912   3.859 -0.4851 -0.3610  0.1430
 7235TIP3    H121648   0.188   4.893   3.773 -0.0680  2.0371 -0.2480
 7235TIP3    H221649   0.158   5.007   3.868  0.5419 -0.6476  3.3000
 7236TIP3   OH221650   8.363   3.286   4.958 -0.2246 -0.1002 -0.6540
 7236TIP3    H121651   8.452   3.301   4.990  1.1907  1.0678 -4.8233
 7236TIP3    H221652   8.311   3.356   4.998  0.9436 -0.0666  0.8670
 7237TIP3   OH221653   7.701   4.107   2.329 -0.0501 -0.2327  0.0123
 7237TIP3    H121654   7.732   4.181   2.277 -0.9124  0.4447  0.4430
 7237TIP3    H221655   7.702   4.140   2.419 -1.3011 -0.4368  0.1063
 7238TIP3   OH221656   1.360   4.570   6.344  0.1517  0.2485  0.1428
 7238TIP3    H121657   1.406   4.654   6.339  1.0896 -0.1533  1.5977
 7238TIP3    H221658   1.268   4.594   6.354  0.2975  1.0864 -0.4378
 7239TIP3   OH221659   2.484   3.544   6.187 -0.1270 -0.2173 -0.0634
 7239TIP3    H121660   2.548   3.573   6.252  1.0550 -0.8775 -0.9085
 7239TIP3    H221661   2.537   3.513   6.114 -1.4332 -0.1279 -1.0657
 7240TIP3   OH221662   8.154   5.218   3.669 -0.5770  0.0195  0.1991
 7240TIP3    H121663   8.086   5.178   3.722 -1.2744 -0.1239 -0.7998
 7240TIP3    H221664   8.157   5.310   3.698 -1.4288  0.1083 -0.0037
 7241TIP3   OH221665   8.425   6.290   4.557 -1.0178 -0.1052  0.4490
 7241TIP3    H121666   8.397   6.329   4.475 -3.7156  1.3008  1.9802
 7241TIP3    H221667   8.499   6.345   4.586  0.1828 -0.8254 -1.1527
 7242TIP3   OH221668   0.332   4.586   4.981  0.6722 -0.2456  0.1298
 7242TIP3    H121669   0.300   4.496   4.984 -0.6827  0.2676  1.2579
 7242TIP3    H221670   0.348   4.609   5.072 -0.0912  1.0378 -0.0513
 7243TIP3   OH221671   2.821   2.561   5.286  0.1936  0.2362 -0.0257
 7243TIP3    H121672   2.759   2.506   5.237  0.5553  1.3348 -1.8016
 7243TIP3    H221673   2.904   2.515   5.280  0.0178 -0.1495  0.4636
 7244TIP3   OH221674   1.177   3.953   5.693  0.2701  0.1624  0.2475
 7244TIP3    H121675   1.240   4.026   5.690  0.3494  0.0795 -0.1122
 7244TIP3    H221676   1.219   3.888   5.749  0.8070 -0.1775 -0.5527
 7245TIP3   OH221677   0.693   2.404   5.647 -0.1006  0.1774  0.1290
 7245TIP3    H121678   0.658   2.433   5.563 -0.3951 -0.3001  0.0862
 7245TIP3    H221679   0.691   2.483   5.702 -0.1950  0.4160 -0.2149
 7246TIP3   OH221680   1.652   2.391   4.546  0.1934  0.4351  0.4782
 7246TIP3    H121681   1.737   2.349   4.558 -0.8029 -1.8587 -0.1708
 7246TIP3    H221682   1.589   2.329   4.583 -1.3807  1.0537 -1.0829
 7247TIP3   OH221683   1.762   1.211   3.479  0.6601 -0.0243 -0.1573
 7247TIP3    H121684   1.773   1.120   3.449  1.4989 -0.5010  1.5236
 7247TIP3    H221685   1.733   1.203   3.569 -0.1069  1.3915 -0.2761
 7248TIP3   OH221686   1.249   3.360   4.144  0.1603 -0.0464 -0.1336
 7248TIP3    H121687   1.271   3.452   4.130 -0.3589  0.3883  1.7199
 7248TIP3    H221688   1.332   3.314   4.136  0.1209  0.2983 -3.0860
 7249TIP3   OH221689   2.558   3.024   5.274 -0.0420  0.1187  0.0611
 7249TIP3    H121690   2.516   3.008   5.189  1.4105 -0.8310 -0.4928
 7249TIP3    H221691   2.583   3.117   5.270  0.5976 -0.0768 -0.8283
 7250TIP3   OH221692   4.407   0.866   0.380  0.5214 -0.3846  0.2326
 7250TIP3    H121693   4.362   0.882   0.463 -0.3332 -1.3311 -0.0359
 7250TIP3    H221694   4.395   0.947   0.331  0.4994 -0.0426  0.7959
 7251TIP3   OH221695   1.995   3.079   6.216  0.5947 -0.3323  0.9066
 7251TIP3    H121696   2.007   3.156   6.272  0.8684  0.1604  0.1715
 7251TIP3    H221697   2.083   3.053   6.192  0.4912 -0.7547  0.9799
 7252TIP3   OH221698   7.340   2.225   3.918 -0.0194 -0.3179 -0.2927
 7252TIP3    H121699   7.317   2.307   3.961 -3.2736 -0.4934 -1.6090
 7252TIP3    H221700   7.427   2.241   3.881  1.3841  0.9747  3.2692
 7253TIP3   OH221701   0.741   3.421   5.747 -0.1962 -0.5319  0.0097
 7253TIP3    H121702   0.803   3.377   5.805  0.1514 -0.2189 -0.1272
 7253TIP3    H221703   0.786   3.500   5.718 -0.5195 -0.4851 -0.3749
 7254TIP3   OH221704   0.192   1.590   5.310 -0.3849  0.4421 -0.4765
 7254TIP3    H121705   0.270   1.534   5.309  0.7562  1.9511  1.3514
 7254TIP3    H221706   0.150   1.571   5.394 -0.2663  1.9282 -0.0751
 7255TIP3   OH221707   2.656   2.998   6.268  0.5599 -0.0236 -0.5311
 7255TIP3    H121708   2.636   2.907   6.245 -0.2061 -0.0256  0.1620
 7255TIP3    H221709   2.619   3.049   6.197  2.4485 -0.3412 -1.8021
 7256TIP3   OH221710   8.329   2.195   5.231 -0.2130 -0.2485 -0.1548
 7256TIP3    H121711   8.246   2.230   5.199  0.1340  1.1939  0.4740
 7256TIP3    H221712   8.344   2.241   5.314 -0.0876 -2.4387  1.0607
 7257TIP3   OH221713   2.328   5.014   5.731 -0.3535 -0.4738 -0.1739
 7257TIP3    H121714   2.321   4.920   5.742  1.1805 -0.5995 -0.1497
 7257TIP3    H221715   2.238   5.045   5.725 -0.8308 -2.1034 -1.6492
 7258TIP3   OH221716   0.935   2.742   5.284 -0.0131 -0.2289  0.3331
 7258TIP3    H121717   0.929   2.812   5.349 -3.1730 -0.1749  0.0498
 7258TIP3    H221718   0.918   2.785   5.200 -0.5601 -1.0692  0.0066
 7259TIP3   OH221719   0.954   5.589   5.458  0.5425  0.2083 -0.2143
 7259TIP3    H121720   0.965   5.679   5.428 -1.5091  0.7953  0.7370
 7259TIP3    H221721   0.986   5.536   5.385  4.9840  1.6581  0.4633
 7260TIP3   OH221722   2.412   5.559   4.408  0.2122  0.3133  0.6029
 7260TIP3    H121723   2.467   5.481   4.402  0.7709  0.7337  0.2469
 7260TIP3    H221724   2.452   5.612   4.476 -1.5738 -0.8101  2.6071
 7261TIP3   OH221725   1.614   5.028   5.860 -0.4551 -0.6043  0.1845
 7261TIP3    H121726   1.584   4.995   5.775  0.0373 -0.1803 -0.1642
 7261TIP3    H221727   1.546   5.003   5.922 -0.5302 -1.4507 -0.2332
 7262TIP3   OH221728   0.002   4.398   3.812  0.3448 -0.6020 -0.3593
 7262TIP3    H121729   0.084   4.392   3.763 -0.0544 -1.2003 -0.9725
 7262TIP3    H221730  -0.017   4.491   3.816 -0.1929 -0.5939 -2.3374
 7263TIP3   OH221731   6.980   5.654   6.610  0.0980 -0.2019 -0.1834
 7263TIP3    H121732   7.046   5.658   6.679  1.1682  4.6827 -1.2483
 7263TIP3    H221733   6.909   5.709   6.643 -1.8355 -2.3626 -0.6521
 7264TIP3   OH221734   1.557   4.637   4.131  0.4064  0.5666  0.1875
 7264TIP3    H121735   1.509   4.580   4.191  0.0448 -0.5531 -1.1526
 7264TIP3    H221736   1.593   4.578   4.065 -0.4735  1.9406 -1.5678
 7265TIP3   OH221737   8.384   5.615   2.709 -0.2230  0.2476 -0.3854
 7265TIP3    H121738   8.436   5.675   2.656  2.1525 -1.0890  0.3624
 7265TIP3    H221739   8.429   5.613   2.794  0.1549 -3.0664 -0.5959
 7266TIP3   OH221740   1.376   4.854   6.117 -0.0910  0.0395  0.2124
 7266TIP3    H121741   1.302   4.915   6.123  0.2335  0.6733 -1.8509
 7266TIP3    H221742   1.423   4.866   6.199 -0.3611  2.1636  0.0839
 7267TIP3   OH221743   2.003   3.089   6.542  0.2846  0.2437  0.4018
 7267TIP3    H121744   1.965   3.010   6.504  1.2214 -0.3381  0.6503
 7267TIP3    H221745   1.928   3.145   6.562 -0.3358 -0.2785 -0.4469
 7268TIP3   OH221746   2.245   4.735   3.816 -0.5313  0.1304  0.4477
 7268TIP3    H121747   2.184   4.747   3.889  1.7217 -0.5648  2.4700
 7268TIP3    H221748   2.329   4.718   3.857  0.9519  0.5315 -2.3245
 7269TIP3   OH221749   1.964   3.610   6.392 -0.1870  0.5245 -0.0459
 7269TIP3    H121750   1.876   3.637   6.420  0.0635  0.7634  0.5240
 7269TIP3    H221751   2.022   3.678   6.425  0.1765  0.5628 -0.7470
 7270TIP3   OH221752   1.386   2.741   4.608 -0.6613 -0.2738  0.3304
 7270TIP3    H121753   1.454   2.690   4.563 -0.3938 -1.2034  1.7248
 7270TIP3    H221754   1.309   2.733   4.553 -0.2025 -0.9702 -0.2184
 7271TIP3   OH221755  -0.001   5.289   4.015 -0.1378 -0.3473 -0.4187
 7271TIP3    H121756  -0.034   5.249   4.095  1.3672 -0.5978  0.0977
 7271TIP3    H221757   0.057   5.223   3.977  0.1252  0.2411 -1.0562
 7272TIP3   OH221758   8.437   4.944   5.073  0.0995  0.4893 -0.2089
 7272TIP3    H121759   8.478   4.996   5.143 -0.3361  1.0046 -0.3314
 7272TIP3    H221760   8.471   4.982   4.992 -1.2059  1.4218 -0.3299
 7273TIP3   OH221761   0.421   2.749   4.282 -0.0730  0.1224  0.3391
 7273TIP3    H121762   0.468   2.673   4.248 -0.5461 -0.0735  0.1040
 7273TIP3    H221763   0.476   2.824   4.261  0.1252 -0.1005  0.0614
 7274TIP3   OH221764   2.161   3.559   4.540 -0.0029 -0.2384 -0.4444
 7274TIP3    H121765   2.148   3.498   4.613 -0.0490  0.7782  0.4205
 7274TIP3    H221766   2.094   3.535   4.476  0.3598 -1.4688 -0.3780
 7275TIP3   OH221767   2.168   4.489   6.916  0.2100 -0.6236  0.1094
 7275TIP3    H121768   2.100   4.476   6.849 -0.7635 -0.1278  0.9834
 7275TIP3    H221769   2.121   4.484   6.999  1.4789 -1.6525  0.7879
 7276TIP3   OH221770   1.438   1.994   4.246  0.9109 -0.0432 -0.5425
 7276TIP3    H121771   1.467   1.904   4.261  0.8171 -0.1052 -0.7293
 7276TIP3    H221772   1.498   2.048   4.297  0.1036 -0.2948  0.6855
 7277TIP3   OH221773   7.853   5.260   3.259 -0.1812  0.2240 -0.0800
 7277TIP3    H121774   7.813   5.178   3.288 -0.1828 -0.3343 -1.6247
 7277TIP3    H221775   7.781   5.323   3.259 -0.4293 -0.0563 -0.0177
 7278TIP3   OH221776   6.903   4.565   4.759 -0.4304  0.2011 -0.2267
 7278TIP3    H121777   6.981   4.511   4.746  0.1958  0.9978  0.1413
 7278TIP3    H221778   6.860   4.528   4.836  0.8235  1.1529  0.9657
 7279TIP3   OH221779   7.710   5.730   4.044 -0.6784  0.1596 -0.5865
 7279TIP3    H121780   7.687   5.819   4.073  1.1650  0.2068  0.8388
 7279TIP3    H221781   7.790   5.742   3.992 -0.1326 -0.7219  0.0425
 7280TIP3   OH221782   7.297   3.667   3.369 -0.0296  0.0449  0.4064
 7280TIP3    H121783   7.376   3.706   3.330 -0.1783  0.6126  0.6631
 7280TIP3    H221784   7.254   3.740   3.414 -1.2654 -0.0255 -0.6339
 7281TIP3   OH221785   2.548   3.148   6.044  0.0736  0.0218  0.1247
 7281TIP3    H121786   2.527   3.054   6.044 -0.5877  0.1637  0.9645
 7281TIP3    H221787   2.480   3.187   5.989  0.3126  0.0234 -0.1742
 7282TIP3   OH221788   0.134   4.589   5.756  0.0838  0.1326 -0.0906
 7282TIP3    H121789   0.058   4.542   5.723  0.2606 -0.2514  0.0412
 7282TIP3    H221790   0.145   4.557   5.846  1.0083 -0.5913 -0.4428
 7283TIP3   OH221791   6.347   7.002   1.978  0.8778 -0.0424 -0.0091
 7283TIP3    H121792   6.359   7.097   1.970  0.4171 -0.1024 -1.5641
 7283TIP3    H221793   6.417   6.974   2.037  1.7564  1.1081 -0.4785
 7284TIP3   OH221794   2.142   6.042   5.438 -0.3452 -0.1019 -0.0852
 7284TIP3    H121795   2.181   6.109   5.493  0.3785 -0.4921 -0.1194
 7284TIP3    H221796   2.099   6.090   5.367 -1.0306  0.3862  0.6494
 7285TIP3   OH221797   1.959   3.454   4.397 -0.4170  0.1861 -0.2833
 7285TIP3    H121798   1.913   3.498   4.326 -1.5994  0.4895  0.6530
 7285TIP3    H221799   1.920   3.367   4.401  0.6047 -0.3034 -0.8980
 7286TIP3   OH221800   7.347   3.787   4.515  0.1371  0.3479  0.3259
 7286TIP3    H121801   7.334   3.704   4.470  0.6032  0.4158  0.0636
 7286TIP3    H221802   7.259   3.817   4.536 -0.0096 -0.5759  1.0792
 7287TIP3   OH221803   3.937   1.211   5.140  0.6987 -0.1424  0.2261
 7287TIP3    H121804   3.890   1.294   5.150 -1.8019 -0.8975 -3.9927
 7287TIP3    H221805   4.015   1.234   5.088  0.5987 -0.2722  0.0205
 7288TIP3   OH221806   0.832   4.917   3.522  0.1790  0.4759  0.3049
 7288TIP3    H121807   0.818   4.985   3.588  2.4845 -1.0041  2.4196
 7288TIP3    H221808   0.747   4.875   3.512 -0.4705  1.4589  1.5019
 7289TIP3   OH221809   3.332   6.115   4.806  0.3604  0.0821  0.1255
 7289TIP3    H121810   3.280   6.073   4.875  0.1788 -0.6648 -0.4623
 7289TIP3    H221811   3.340   6.207   4.834  1.6122 -0.5503  1.9322
 7290TIP3   OH221812   3.488   4.549   6.661 -0.0417  0.1573 -0.1239
 7290TIP3    H121813   3.482   4.586   6.573  1.7312 -0.6360 -0.5952
 7290TIP3    H221814   3.496   4.625   6.718 -2.2025  0.7277 -0.5314
 7291TIP3   OH221815   2.907   2.348   3.580 -0.3115 -0.0173 -0.1705
 7291TIP3    H121816   2.865   2.396   3.509 -1.6080  0.9203  1.1893
 7291TIP3    H221817   2.899   2.256   3.554 -0.9855  0.2956 -1.1227
 7292TIP3   OH221818   4.498   4.651   3.693 -0.6350  0.6691 -0.2218
 7292TIP3    H121819   4.529   4.710   3.624 -1.2309  0.4483 -0.6841
 7292TIP3    H221820   4.436   4.593   3.649  0.6866 -0.9721 -0.0206
 7293TIP3   OH221821   8.348   4.079   5.501 -0.5385 -0.5273  0.4708
 7293TIP3    H121822   8.397   4.036   5.571 -0.8124  1.9061  2.2268
 7293TIP3    H221823   8.257   4.079   5.531 -0.4120  2.0432  0.9680
 7294TIP3   OH221824   0.470   0.209   0.115 -0.3780 -0.0886 -0.3837
 7294TIP3    H121825   0.558   0.246   0.111  0.5674 -2.4081 -2.2256
 7294TIP3    H221826   0.456   0.190   0.207 -0.0005  2.6641  0.2922
 7295TIP3   OH221827   1.795   2.867   6.491  0.0938 -0.4142 -0.0530
 7295TIP3    H121828   1.716   2.828   6.528  0.3004 -0.1984  0.6295
 7295TIP3    H221829   1.839   2.795   6.447 -0.4864 -0.5336 -0.4327
 7296TIP3   OH221830   1.777   4.527   5.002  0.1339  0.1555 -0.0745
 7296TIP3    H121831   1.731   4.521   4.918  0.4404 -0.6483 -0.1886
 7296TIP3    H221832   1.709   4.550   5.065 -0.3494 -0.5726 -0.3210
 7297TIP3   OH221833   2.400   4.048   5.450 -0.3649 -0.8091 -0.3990
 7297TIP3    H121834   2.329   4.000   5.406  0.4636 -0.1520 -2.4763
 7297TIP3    H221835   2.387   4.028   5.543 -2.2429 -2.0885 -0.8961
 7298TIP3   OH221836   2.078   0.840   2.310 -0.4358 -0.4289  0.1993
 7298TIP3    H121837   1.993   0.872   2.338 -0.9307 -0.4052 -1.2863
 7298TIP3    H221838   2.141   0.892   2.360 -1.2774 -0.3660  1.2162
 7299TIP3   OH221839   4.764   6.619   4.854 -0.5112  0.9770 -0.2755
 7299TIP3    H121840   4.804   6.637   4.770  1.8527  1.3566  0.9088
 7299TIP3    H221841   4.699   6.689   4.865  0.7530  2.2422 -0.7602
 7300TIP3   OH221842   2.616   5.148   2.689  0.3263 -0.4024  0.1130
 7300TIP3    H121843   2.633   5.140   2.596 -0.6228 -0.6304 -0.0498
 7300TIP3    H221844   2.698   5.181   2.726  0.4599  0.4544 -0.9098
 7301TIP3   OH221845   2.185   5.720   3.345 -0.3004 -0.0844 -0.2638
 7301TIP3    H121846   2.118   5.743   3.409 -0.9157 -1.1204 -0.5207
 7301TIP3    H221847   2.136   5.703   3.264  0.3900  0.4126 -0.8017
 7302TIP3   OH221848   3.270   3.781   3.900  0.2430 -0.0125  0.1113
 7302TIP3    H121849   3.343   3.722   3.917  1.0610  0.5064 -1.5568
 7302TIP3    H221850   3.201   3.751   3.959  0.7210 -2.4979 -0.5552
 7303TIP3   OH221851   3.640   0.412   2.570 -0.1250  0.2356 -0.3235
 7303TIP3    H121852   3.598   0.328   2.586  0.1612  0.0201 -0.6825
 7303TIP3    H221853   3.729   0.389   2.543 -0.0711  0.6490 -0.5039
 7304TIP3   OH221854   3.130   4.498   4.870  0.4157  0.1311 -0.2705
 7304TIP3    H121855   3.037   4.518   4.876  0.2136 -1.0295  0.8255
 7304TIP3    H221856   3.159   4.538   4.788 -0.5358  2.4393  0.4910
 7305TIP3   OH221857   2.175   3.907   5.326  0.0729  0.1753  0.1150
 7305TIP3    H121858   2.092   3.911   5.374 -0.1250  0.5967 -0.2522
 7305TIP3    H221859   2.149   3.910   5.234  0.6016  2.5539  0.0055
 7306TIP3   OH221860   4.382   7.397   4.985 -0.6207  0.0330  0.2516
 7306TIP3    H121861   4.469   7.407   5.023 -1.5067 -1.8064  2.9773
 7306TIP3    H221862   4.396   7.346   4.905  0.8295 -0.0432  0.5406
 7307TIP3   OH221863   3.100   4.697   4.309 -0.0353 -0.2476  0.4102
 7307TIP3    H121864   3.136   4.619   4.350 -0.4868 -0.6749  0.0107
 7307TIP3    H221865   3.052   4.664   4.233  0.8105  0.5289 -0.4814
 7308TIP3   OH221866   2.708   6.004   3.790 -0.7045 -0.3528  0.4041
 7308TIP3    H121867   2.768   6.072   3.761 -0.9379 -0.3031  0.0406
 7308TIP3    H221868   2.651   6.048   3.853  0.5792 -0.7466  1.8963
 7309TIP3   OH221869   4.126   1.532   3.701 -0.2827  0.5360  0.2583
 7309TIP3    H121870   4.032   1.548   3.693 -0.3721 -0.0689  0.0631
 7309TIP3    H221871   4.138   1.444   3.665 -0.0504 -0.4909  2.7890
 7310TIP3   OH221872   1.613   4.050   4.551  0.3322  0.3089 -0.2016
 7310TIP3    H121873   1.564   4.102   4.614  1.2790 -0.7381  1.4600
 7310TIP3    H221874   1.556   3.976   4.531 -0.2213  0.9632 -1.0595
 7311TIP3   OH221875   3.216   4.673   4.668  0.1729  0.2549 -0.0789
 7311TIP3    H121876   3.282   4.685   4.600  0.6713  3.1828  0.8617
 7311TIP3    H221877   3.136   4.710   4.630 -0.6351 -2.0323 -0.6845
 7312TIP3   OH221878   2.342   5.380   4.117  0.1306  0.3710 -0.0660
 7312TIP3    H121879   2.384   5.465   4.131  0.4182  0.1984  0.1092
 7312TIP3    H221880   2.403   5.331   4.062  0.5868 -0.2064  0.9246
 7313TIP3   OH221881   3.512   4.883   3.921  0.1850 -0.4136  0.1319
 7313TIP3    H121882   3.516   4.968   3.965  1.2772  0.5105 -1.6784
 7313TIP3    H221883   3.603   4.859   3.906 -0.1409 -1.4947 -0.1549
 7314TIP3   OH221884   6.799   5.039   3.870  0.0377 -0.0729  0.2685
 7314TIP3    H121885   6.738   5.054   3.798 -0.2380  3.2004  1.0979
 7314TIP3    H221886   6.883   5.020   3.828 -0.4860  0.1502 -0.8894
 7315TIP3   OH221887   4.669   4.649   4.937 -0.0378  0.3075  0.0950
 7315TIP3    H121888   4.649   4.719   4.875  0.3417  2.2514  2.0999
 7315TIP3    H221889   4.599   4.585   4.925 -1.1065  1.6370 -0.8856
 7316TIP3   OH221890   0.975   4.265   4.864 -0.4525  0.0589 -0.0993
 7316TIP3    H121891   0.953   4.353   4.894 -0.1876  0.7274 -1.7870
 7316TIP3    H221892   0.928   4.255   4.781  0.1200 -1.0919 -0.2987
 7317TIP3   OH221893   4.173   3.267   3.771 -0.6495 -0.3189 -0.0075
 7317TIP3    H121894   4.110   3.229   3.710  0.2626 -1.7042 -0.1221
 7317TIP3    H221895   4.189   3.198   3.836  1.7821 -0.5355 -0.7742
 7318TIP3   OH221896   2.620   3.898   5.370  0.2629  0.0993  0.6525
 7318TIP3    H121897   2.632   3.992   5.383 -0.4862  0.3459 -0.3952
 7318TIP3    H221898   2.532   3.880   5.404  0.2592 -0.1575  0.5150
 7319TIP3   OH221899   3.728   4.151   2.500 -0.2591  0.3879  0.5219
 7319TIP3    H121900   3.748   4.234   2.456  1.8324 -1.4778 -2.1897
 7319TIP3    H221901   3.809   4.101   2.495 -1.1184 -1.3880  3.2416
 7320TIP3   OH221902   1.436   4.484   3.808 -0.7248 -0.2425  1.0046
 7320TIP3    H121903   1.439   4.579   3.821  0.1405  0.0728 -1.2702
 7320TIP3    H221904   1.351   4.458   3.843 -1.5802  1.5890  0.3632
 7321TIP3   OH221905   0.213   6.006   4.997 -0.3946 -0.1122  0.6125
 7321TIP3    H121906   0.133   6.029   4.949  0.0080  2.6015  1.1893
 7321TIP3    H221907   0.284   6.029   4.938  0.0416  1.1301  1.6035
 7322TIP3   OH221908   4.462   6.465   5.577 -0.0257  0.2539 -0.6095
 7322TIP3    H121909   4.435   6.381   5.614  1.2770 -0.1649 -0.6029
 7322TIP3    H221910   4.413   6.530   5.628  0.0613 -0.4223  0.3491
 7323TIP3   OH221911   1.809   5.869   5.701 -0.2699  0.0702 -0.0040
 7323TIP3    H121912   1.813   5.914   5.617  0.8943 -1.7456 -0.9435
 7323TIP3    H221913   1.897   5.879   5.738  0.1951 -1.8964 -0.5008
 7324TIP3   OH221914   5.748   6.096   3.129 -1.0090  0.0624 -0.4434
 7324TIP3    H121915   5.798   6.015   3.136  0.2971  0.8907 -0.1836
 7324TIP3    H221916   5.803   6.163   3.170 -1.5622  1.3061 -1.6954
 7325TIP3   OH221917   3.598   5.620   2.773  0.2040 -0.2059  0.0239
 7325TIP3    H121918   3.628   5.691   2.830 -2.1320  0.2157  0.8007
 7325TIP3    H221919   3.507   5.604   2.800  0.2365 -2.5383 -1.0925
 7326TIP3   OH221920   3.278   4.493   4.419 -0.3670 -0.1579  0.3960
 7326TIP3    H121921   3.337   4.472   4.346 -0.7416 -1.1897  0.3938
 7326TIP3    H221922   3.270   4.412   4.468 -2.1925 -0.1649  0.1172
 7327TIP3   OH221923   2.531   4.455   4.259  0.1226 -0.0891 -0.5903
 7327TIP3    H121924   2.450   4.507   4.255  0.6066  0.6301 -1.2365
 7327TIP3    H221925   2.590   4.499   4.198  1.5157  0.2818  1.0062
 7328TIP3   OH221926   2.528   3.012   3.849 -0.4732  0.0496 -0.0701
 7328TIP3    H121927   2.489   3.090   3.888 -0.5357  0.7081 -1.4108
 7328TIP3    H221928   2.484   3.003   3.764 -1.5165 -2.2858  0.6746
 7329TIP3   OH221929   8.470   4.717   4.423  0.1276 -0.2901 -0.1090
 7329TIP3    H121930   8.394   4.673   4.385  0.5070 -0.7273 -0.3635
 7329TIP3    H221931   8.453   4.717   4.517 -0.8854  0.9259 -0.2833
 7330TIP3   OH221932   1.190   3.621   4.318  0.5636 -0.1681 -0.5763
 7330TIP3    H121933   1.109   3.592   4.360 -0.2652  0.3243 -1.8148
 7330TIP3    H221934   1.236   3.671   4.386 -1.6610  2.2799 -0.7816
 7331TIP3   OH221935   3.829   7.573   0.230  0.4329 -0.1131  0.0583
 7331TIP3    H121936   3.777   7.623   0.167  0.2122 -1.1395 -0.5841
 7331TIP3    H221937   3.873   7.639   0.283 -1.8379  0.8089  0.8855
 7332TIP3   OH221938   2.642   3.312   3.933  0.3098 -0.0626 -0.0720
 7332TIP3    H121939   2.624   3.337   3.842  2.6265  0.6274 -0.3934
 7332TIP3    H221940   2.620   3.389   3.984  0.1960 -0.0190 -0.1862
 7333TIP3   OH221941   2.180   2.981   3.639  0.1380 -0.4644  0.3991
 7333TIP3    H121942   2.099   3.008   3.596  1.0091  1.2859 -0.2255
 7333TIP3    H221943   2.163   2.990   3.732 -0.2028  0.4949  0.2468
 7334TIP3   OH221944   3.294   2.742   3.664  0.3020 -0.1267  0.0937
 7334TIP3    H121945   3.218   2.685   3.648 -0.0983  0.5681 -0.4952
 7334TIP3    H221946   3.355   2.687   3.713 -0.1793 -0.9981 -0.2737
 7335TIP3   OH221947   2.560   3.464   4.311  0.6886  0.3914  0.2779
 7335TIP3    H121948   2.522   3.379   4.334 -0.8303  1.3722  1.5018
 7335TIP3    H221949   2.637   3.471   4.368  1.0034 -0.2846 -0.0496
 7336TIP3   OH221950   2.365   3.597   2.025  0.8355 -0.8175  0.5094
 7336TIP3    H121951   2.454   3.590   2.061  0.3423  0.0227  1.9047
 7336TIP3    H221952   2.369   3.673   1.968  1.1764 -1.1586  0.0713
 7337TIP3   OH221953   1.911   2.486   4.392  0.0033 -0.0349  0.5042
 7337TIP3    H121954   1.893   2.566   4.441 -2.1223 -0.1936  0.0449
 7337TIP3    H221955   1.868   2.417   4.442  0.2387 -0.6138 -0.0797
 7338TIP3   OH221956   4.705   7.296   1.095 -0.1380  0.4759 -0.2756
 7338TIP3    H121957   4.756   7.294   1.176  0.7036  0.1763 -0.8041
 7338TIP3    H221958   4.711   7.387   1.065  1.3456  0.0940 -1.1282
 7339TIP3   OH221959   3.110   5.186   6.385 -0.3186  0.9095  0.1840
 7339TIP3    H121960   3.143   5.129   6.316 -1.5379 -0.9355  1.0782
 7339TIP3    H221961   3.139   5.274   6.360  1.0522 -0.0109 -1.5493
 7340TIP3   OH221962   3.174   3.250   3.729 -0.3182  0.2184 -0.3412
 7340TIP3    H121963   3.265   3.278   3.726  0.0861 -1.1570 -1.4950
 7340TIP3    H221964   3.142   3.280   3.814  0.9236  1.5390 -0.3257
 7341TIP3   OH221965   7.580   3.398   4.229 -0.1599 -0.5117 -0.3295
 7341TIP3    H121966   7.546   3.338   4.295  2.0406 -1.4260 -0.0089
 7341TIP3    H221967   7.594   3.480   4.275  0.8088 -0.9784  0.2180
 7342TIP3   OH221968   8.371   2.897   3.003  0.2347 -0.2308  0.1145
 7342TIP3    H121969   8.325   2.978   2.984 -1.9439 -1.5110 -0.2749
 7342TIP3    H221970   8.388   2.900   3.097 -0.5089  0.3337  0.2324
 7343TIP3   OH221971   2.608   3.332   5.342 -0.9078  0.9856  0.0157
 7343TIP3    H121972   2.635   3.424   5.339  1.1529  0.4726  1.4162
 7343TIP3    H221973   2.690   3.283   5.352 -1.7987 -1.1745 -2.8154
 7344TIP3   OH221974   3.652   5.846   2.903  0.1331  0.5535  0.2633
 7344TIP3    H121975   3.639   5.922   2.845 -1.5925  0.5624  0.6401
 7344TIP3    H221976   3.729   5.870   2.955 -0.1124  1.8618  0.0655
 7345TIP3   OH221977   5.115   1.709   4.013 -0.1798  0.1501 -0.2500
 7345TIP3    H121978   5.162   1.681   3.935  0.2522 -0.5004  0.2269
 7345TIP3    H221979   5.092   1.800   3.998  0.0263  0.0619 -1.0694
 7346TIP3   OH221980   2.631   2.060   1.488  0.0391  0.1557 -0.3809
 7346TIP3    H121981   2.560   2.105   1.532  0.1265 -0.1064  0.0374
 7346TIP3    H221982   2.638   2.102   1.402  0.0166  0.8195 -0.0564
 7347TIP3   OH221983   2.891   4.257   6.224  0.2263 -0.1871 -0.2743
 7347TIP3    H121984   2.937   4.294   6.148  1.4499  1.5827  1.2451
 7347TIP3    H221985   2.894   4.163   6.210  2.4292 -0.0142 -1.3305
 7348TIP3   OH221986   2.290   5.607   5.745 -0.4992 -0.8288 -0.1626
 7348TIP3    H121987   2.228   5.649   5.804  0.3354 -1.3164  1.0840
 7348TIP3    H221988   2.295   5.516   5.776 -0.3097 -1.1819 -1.1969
 7349TIP3   OH221989   0.113   4.073   3.685  0.2469 -0.1046 -0.3233
 7349TIP3    H121990   0.181   4.136   3.662  0.0673  0.0723 -0.3686
 7349TIP3    H221991   0.153   4.017   3.751  0.3310  0.1935 -0.1222
 7350TIP3   OH221992   2.450   2.948   3.604  0.3373  0.5354 -0.0917
 7350TIP3    H121993   2.359   2.953   3.632  0.0563 -0.9624 -0.7014
 7350TIP3    H221994   2.446   2.957   3.509  0.4993 -2.7444 -0.4579
 7351TIP3   OH221995   3.008   2.482   2.827  0.4507  0.2460 -0.3154
 7351TIP3    H121996   3.054   2.528   2.756  0.8148 -1.1905 -1.0228
 7351TIP3    H221997   2.918   2.474   2.796  0.1230  1.4769  0.2995
 7352TIP3   OH221998   4.331   1.931   4.030  0.1002 -0.1194  0.3750
 7352TIP3    H121999   4.331   1.932   3.934  0.8952  1.2756  0.3619
 7352TIP3    H222000   4.352   1.841   4.053 -0.0419 -0.4567 -0.7651
 7353TIP3   OH222001   3.066   5.554   5.814 -0.5883 -0.2348 -1.0033
 7353TIP3    H122002   3.063   5.459   5.800 -0.3315 -1.0410  3.6507
 7353TIP3    H222003   3.156   5.571   5.843 -0.4615  1.5499 -2.3713
 7354TIP3   OH222004   2.351   4.807   4.329  0.1132  0.3260  0.1084
 7354TIP3    H122005   2.356   4.718   4.295  1.1756  0.7175 -0.7837
 7354TIP3    H222006   2.338   4.795   4.423  0.8726 -0.7896  0.0910
 7355TIP3   OH222007   2.539   4.216   4.508  0.1435 -0.6007 -0.3199
 7355TIP3    H122008   2.576   4.152   4.569  0.2345  1.4161  1.8089
 7355TIP3    H222009   2.445   4.196   4.506  0.2091 -0.9541  0.1360
 7356TIP3   OH222010   1.109   3.366   4.838 -0.2718 -0.1680  0.2057
 7356TIP3    H122011   1.110   3.440   4.777  0.9723  0.4204  0.9161
 7356TIP3    H222012   1.193   3.372   4.884  0.2024 -2.4563 -0.2539
 7357TIP3   OH222013   2.526   5.240   5.990 -0.6513 -0.8828  0.0988
 7357TIP3    H122014   2.475   5.254   6.070  0.0379 -0.2565  0.4409
 7357TIP3    H222015   2.607   5.198   6.021  0.1367  0.4497 -0.1084
 7358TIP3   OH222016   0.443   0.559   0.526  0.1897 -0.0580 -0.0868
 7358TIP3    H122017   0.379   0.561   0.456  0.5534 -0.2843 -0.4321
 7358TIP3    H222018   0.493   0.479   0.510 -1.1531 -1.2939  1.7108
 7359TIP3   OH222019   4.494   2.395   2.609 -0.0454 -0.3103  0.4167
 7359TIP3    H122020   4.505   2.445   2.528 -0.4591  1.0102  1.1519
 7359TIP3    H222021   4.541   2.314   2.594 -0.2361 -0.1402 -1.2032
 7360TIP3   OH222022   4.352   2.366   6.636 -0.0419  0.5581  0.0204
 7360TIP3    H122023   4.286   2.418   6.591 -0.0128  0.4651 -0.1291
 7360TIP3    H222024   4.303   2.318   6.702 -0.2371 -0.0956 -0.5987
 7361TIP3   OH222025   0.548   4.979   2.213 -0.3660 -0.1230  0.1194
 7361TIP3    H122026   0.523   4.989   2.305 -2.1193  0.2789 -0.3807
 7361TIP3    H222027   0.641   4.959   2.216 -0.1058  1.2017  1.9223
 7362TIP3   OH222028   2.570   3.556   4.053  0.1583  0.3695 -0.2557
 7362TIP3    H122029   2.605   3.643   4.036  0.3231  0.3430 -0.0472
 7362TIP3    H222030   2.566   3.550   4.148 -0.4650  0.3970 -0.2719
 7363TIP3   OH222031   0.926   3.790   3.572  0.1811  0.9297 -0.3062
 7363TIP3    H122032   0.974   3.725   3.623 -0.4323  0.1047 -0.7834
 7363TIP3    H222033   0.983   3.808   3.497  0.3330  0.9223 -0.1937
 7364TIP3   OH222034   2.999   4.834   5.201 -0.0935 -0.0456 -0.3454
 7364TIP3    H122035   3.074   4.871   5.154 -0.4921  0.5458 -0.5063
 7364TIP3    H222036   2.994   4.884   5.282 -0.5163  0.1304 -0.4791
 7365TIP3   OH222037   2.488   4.672   3.945 -0.2679 -0.5340  0.3888
 7365TIP3    H122038   2.576   4.689   3.913 -0.2261  1.3426  1.4423
 7365TIP3    H222039   2.497   4.596   4.003  0.7867  0.0620  1.0183
 7366TIP3   OH222040   3.140   4.975   5.909 -0.3861 -0.1308 -0.5474
 7366TIP3    H122041   3.172   5.020   5.831 -2.1181 -0.4185 -1.4475
 7366TIP3    H222042   3.124   4.885   5.880 -1.0430 -0.2385  0.1268
 7367TIP3   OH222043   4.544   3.858   1.920  0.3543  0.4294  0.0602
 7367TIP3    H122044   4.543   3.770   1.957  1.3840  0.0290 -0.8350
 7367TIP3    H222045   4.587   3.912   1.986 -0.0550  0.2137  0.5020
 7368TIP3   OH222046   3.921   6.316   5.417  0.1281 -0.2890 -0.1466
 7368TIP3    H122047   3.996   6.361   5.378 -1.4763  2.5972 -0.0429
 7368TIP3    H222048   3.858   6.306   5.346 -0.2147 -0.7995  0.2230
 7369TIP3   OH222049   3.430   5.077   5.827  1.0561 -0.0026 -0.0099
 7369TIP3    H122050   3.439   4.988   5.861 -0.4810 -0.5091 -0.8784
 7369TIP3    H222051   3.502   5.125   5.866  1.0093 -1.2672  1.6763
 7370TIP3   OH222052   2.344   3.492   5.274  0.6332 -0.3102  0.2861
 7370TIP3    H122053   2.384   3.562   5.324  0.6519  0.1701 -0.3943
 7370TIP3    H222054   2.407   3.420   5.278  1.1040  0.0894  0.0724
 7371TIP3   OH222055   2.636   6.688   2.825 -0.2401  0.2613 -0.1848
 7371TIP3    H122056   2.660   6.778   2.846 -1.0253  0.0736  1.5537
 7371TIP3    H222057   2.577   6.695   2.750 -0.4356  1.1999  0.0600
 7372TIP3   OH222058   0.389   5.215   2.494  0.1141  0.2412 -0.0808
 7372TIP3    H122059   0.296   5.231   2.513  0.2479 -1.6028  2.4422
 7372TIP3    H222060   0.435   5.284   2.542  0.0997  0.3178 -0.1780
 7373TIP3   OH222061   2.154   5.998   2.233 -0.4387 -0.4620 -0.2504
 7373TIP3    H122062   2.145   5.915   2.280  1.9774 -0.0455  1.0201
 7373TIP3    H222063   2.217   5.980   2.164 -0.1398  0.2174 -0.1614
 7374TIP3   OH222064   1.970   4.348   5.052  0.3707  0.3685  0.6511
 7374TIP3    H122065   1.909   4.412   5.015  0.2136  0.4808  1.0930
 7374TIP3    H222066   2.003   4.390   5.131 -1.1139 -0.7991  1.9373
 7375TIP3   OH222067   2.322   5.776   4.147 -0.2065 -0.2023 -1.0502
 7375TIP3    H122068   2.374   5.708   4.103 -0.9218 -1.1938 -0.3927
 7375TIP3    H222069   2.277   5.729   4.217  3.5480  1.8987  3.0257
 7376TIP3   OH222070   3.411   3.245   5.243  0.0835  0.4204  0.3798
 7376TIP3    H122071   3.318   3.262   5.227  0.2630  0.4248 -0.7262
 7376TIP3    H222072   3.423   3.261   5.337 -0.7885  1.5625  0.3142
 7377TIP3   OH222073   3.531   6.117   3.309 -0.8853 -0.1941  0.0937
 7377TIP3    H122074   3.597   6.167   3.261 -1.1655 -0.5381 -0.6618
 7377TIP3    H222075   3.486   6.066   3.242 -1.2720 -0.6994  0.7265
 7378TIP3   OH222076   3.765   4.447   3.870  0.1392  0.2373 -0.0237
 7378TIP3    H122077   3.753   4.386   3.943  0.6891  1.5630  1.2162
 7378TIP3    H222078   3.824   4.402   3.810  0.7843 -0.3252  1.0242
 7379TIP3   OH222079   2.891   4.220   5.438  0.7241 -0.3197  0.1589
 7379TIP3    H122080   2.799   4.233   5.461  0.5033  0.4198 -1.1217
 7379TIP3    H222081   2.919   4.147   5.493 -0.2942  0.2229  1.4478
 7380TIP3   OH222082   2.806   2.643   3.820 -0.1079  0.2434 -0.3461
 7380TIP3    H122083   2.782   2.676   3.733 -0.4013  1.3482  0.1527
 7380TIP3    H222084   2.895   2.676   3.834 -0.1310  0.2184 -0.1435
 7381TIP3   OH222085   1.853   4.408   4.123  0.3578 -0.0301  0.2334
 7381TIP3    H122086   1.909   4.425   4.047 -0.2424  1.2238  0.0677
 7381TIP3    H222087   1.777   4.363   4.087  1.2973 -1.9019  0.4837
 7382TIP3   OH222088   1.677   4.373   3.294 -0.5574 -0.2806  0.7761
 7382TIP3    H122089   1.619   4.301   3.272 -0.8444 -0.2203  1.2992
 7382TIP3    H222090   1.618   4.447   3.308 -0.2577  0.0810  0.1327
 7383TIP3   OH222091   2.877   3.856   4.483 -0.3202  0.0351  0.4706
 7383TIP3    H122092   2.890   3.945   4.515  0.2544  0.4219 -0.7976
 7383TIP3    H222093   2.925   3.801   4.545 -1.1823  0.5525  1.5954
 7384TIP3   OH222094   4.398   3.323   3.163  0.0357 -0.1019 -0.1191
 7384TIP3    H122095   4.424   3.351   3.251 -2.4568 -1.5412  1.1389
 7384TIP3    H222096   4.446   3.380   3.104  3.0231 -0.1636  2.1379
 7385TIP3   OH222097   2.010   4.026   4.403 -0.2694 -0.4264 -0.1821
 7385TIP3    H122098   1.927   4.065   4.376  0.2668  0.2207 -0.8978
 7385TIP3    H222099   2.065   4.100   4.426  0.1399 -0.8528  0.2205
 7386TIP3   OH222100   3.063   3.889   5.311 -0.3799  0.0161 -0.4525
 7386TIP3    H122101   3.072   3.892   5.216 -0.7807  2.8494 -0.4537
 7386TIP3    H222102   3.131   3.947   5.344 -0.1829 -1.0116  1.0209
 7387TIP3   OH222103   1.573   2.280   6.263 -0.0175 -0.4190  0.3431
 7387TIP3    H122104   1.574   2.275   6.167  2.4358 -1.2955  0.3918
 7387TIP3    H222105   1.518   2.206   6.290 -1.5115  0.3889 -0.3798
 7388TIP3   OH222106   2.269   5.564   4.714 -0.9044 -0.7107 -0.0025
 7388TIP3    H122107   2.219   5.521   4.784 -2.0573 -0.1301 -0.4576
 7388TIP3    H222108   2.202   5.602   4.657  0.0804  2.5296  0.9156
 7389TIP3   OH222109   1.436   4.129   3.809 -0.1714 -0.8071  0.2683
 7389TIP3    H122110   1.390   4.168   3.735  0.8144 -0.5424 -0.2085
 7389TIP3    H222111   1.392   4.166   3.886 -1.0511 -0.9150 -0.1774
 7390TIP3   OH222112   4.334   5.293   5.223 -0.2841  0.4363  0.0337
 7390TIP3    H122113   4.379   5.214   5.196 -0.0544  0.4124  0.4796
 7390TIP3    H222114   4.264   5.304   5.159 -0.6098 -0.3901  0.2410
 7391TIP3   OH222115   3.966   5.250   5.523 -0.4713  0.0941  0.1648
 7391TIP3    H122116   3.943   5.167   5.482 -2.3077  0.7849 -0.2367
 7391TIP3    H222117   4.061   5.254   5.516 -0.3621 -1.9195  0.0936
 7392TIP3   OH222118   3.283   5.446   5.031 -0.0440  0.5013 -0.1918
 7392TIP3    H122119   3.229   5.370   5.011  0.0289  0.8985 -2.0076
 7392TIP3    H222120   3.327   5.467   4.948  0.9955  1.6799  0.6305
 7393TIP3   OH222121   4.542   5.160   4.793 -0.2685  0.0355 -0.2081
 7393TIP3    H122122   4.613   5.165   4.858  0.0880 -0.3051 -0.5628
 7393TIP3    H222123   4.495   5.243   4.802 -2.1902 -1.2823  2.7048
 7394TIP3   OH222124   0.812   4.315   3.647 -0.4449  0.6868  0.1049
 7394TIP3    H122125   0.735   4.258   3.649  0.8911 -1.1578 -0.8439
 7394TIP3    H222126   0.842   4.317   3.738  0.3932 -1.3629 -0.1053
 7395TIP3   OH222127   0.984   5.197   2.420  0.1228  0.5980 -0.7188
 7395TIP3    H122128   1.031   5.213   2.338 -0.5471 -0.3743 -1.3140
 7395TIP3    H222129   0.994   5.278   2.470  1.4377  0.8152 -1.3167
 7396TIP3   OH222130   1.262   4.396   5.583  0.5627 -0.4062  0.3041
 7396TIP3    H122131   1.228   4.354   5.504 -1.3569  1.3210  0.1550
 7396TIP3    H222132   1.315   4.329   5.626 -0.8477 -2.3244 -0.8890
 7397TIP3   OH222133   8.137   3.544   1.671 -1.0127 -0.1141 -0.5321
 7397TIP3    H122134   8.217   3.565   1.624  0.1480  0.6625  1.7039
 7397TIP3    H222135   8.072   3.605   1.636 -0.5665 -0.5560 -2.1497
 7398TIP3   OH222136   2.935   3.632   5.389  0.0630 -0.8726 -0.2513
 7398TIP3    H122137   2.969   3.568   5.326 -0.1116 -2.1764  0.9442
 7398TIP3    H222138   3.001   3.701   5.392  1.6724 -2.4120  0.5858
 7399TIP3   OH222139   1.920   5.265   3.929  0.2274  0.0867 -0.5733
 7399TIP3    H122140   2.005   5.235   3.963 -0.2439  1.6648  2.2012
 7399TIP3    H222141   1.886   5.190   3.881  0.9891 -2.3486  2.5058
 7400TIP3   OH222142   2.639   5.249   5.007  0.5943  0.2823  0.1570
 7400TIP3    H122143   2.559   5.264   5.057 -0.8835 -2.3586 -1.3155
 7400TIP3    H222144   2.707   5.240   5.074 -0.8209 -0.2475  1.5747
 7401TIP3   OH222145   1.835   5.561   3.279 -0.3328  0.2968 -0.2125
 7401TIP3    H122146   1.831   5.592   3.370 -1.6752 -0.9642  0.1773
 7401TIP3    H222147   1.925   5.532   3.267  0.4497  2.4679  0.0246
 7402TIP3   OH222148   2.576   6.703   2.071 -0.1699  0.2242  0.3132
 7402TIP3    H122149   2.554   6.619   2.031 -0.6362  0.1401  0.7533
 7402TIP3    H222150   2.646   6.683   2.133 -0.4844  0.1123  0.6326
 7403TIP3   OH222151   2.164   1.948   0.448  0.3386  0.6397  0.0172
 7403TIP3    H122152   2.235   1.985   0.395  0.1927  0.5706 -0.2272
 7403TIP3    H222153   2.193   1.860   0.469  0.3071  0.5946 -0.1234
 7404TIP3   OH222154   3.477   5.426   3.710  0.0921 -0.0617 -0.5864
 7404TIP3    H122155   3.434   5.473   3.782  0.2433  1.3252 -1.3853
 7404TIP3    H222156   3.556   5.390   3.750 -1.3969 -1.9909  0.6990
 7405TIP3   OH222157   2.358   3.162   4.766  0.5395 -0.2517 -0.2387
 7405TIP3    H122158   2.428   3.226   4.781 -0.8330  1.0652  0.7316
 7405TIP3    H222159   2.403   3.085   4.731  2.4377  0.6574  0.1180
 7406TIP3   OH222160   2.953   4.397   2.812  0.1652 -0.4790  0.1900
 7406TIP3    H122161   2.893   4.326   2.791 -0.2423 -0.1235  0.1448
 7406TIP3    H222162   2.956   4.450   2.733 -0.1519 -0.0069  0.4900
 7407TIP3   OH222163   2.398   4.937   6.504  0.8378 -0.6989  0.0591
 7407TIP3    H122164   2.461   4.887   6.452 -0.5503 -0.7241 -1.6425
 7407TIP3    H222165   2.342   4.871   6.544  1.3541 -0.6419  0.8860
 7408TIP3   OH222166   2.995   4.304   5.970  0.2408  0.1631 -0.4126
 7408TIP3    H122167   2.981   4.368   5.900  1.2969  0.6259 -0.1982
 7408TIP3    H222168   3.086   4.276   5.959 -0.0396 -0.8780 -0.1477
 7409TIP3   OH222169   3.695   4.377   3.506 -0.1574  0.0581  0.0445
 7409TIP3    H122170   3.605   4.344   3.505 -0.4391  0.6400  2.1937
 7409TIP3    H222171   3.714   4.390   3.599  2.5774 -1.1755 -0.3127
 7410TIP3   OH222172   3.719   2.825   6.577 -0.2318 -0.1374 -0.0104
 7410TIP3    H122173   3.650   2.891   6.585 -0.1383  0.0834 -0.9068
 7410TIP3    H222174   3.704   2.785   6.492  1.8779  1.2442 -1.0846
 7411TIP3   OH222175   3.080   2.975   4.863  0.3379 -0.0631  0.0577
 7411TIP3    H122176   3.011   2.965   4.928  0.6300  0.3705  0.4362
 7411TIP3    H222177   3.034   2.988   4.781 -0.0405 -1.3451  0.0591
 7412TIP3   OH222178   1.818   4.353   4.572 -0.2080 -0.5215 -0.1788
 7412TIP3    H122179   1.732   4.394   4.568  0.8391  1.5568 -2.7782
 7412TIP3    H222180   1.803   4.264   4.540 -1.4132 -0.1921 -0.5507
 7413TIP3   OH222181   3.117   2.991   4.082  0.7083  0.5962  0.1666
 7413TIP3    H122182   3.163   2.972   4.001 -1.4190  1.9561 -1.4046
 7413TIP3    H222183   3.057   2.918   4.094  0.5351  0.7431  0.1858
 7414TIP3   OH222184   4.249   6.699   0.960 -0.0068 -0.0914  0.0279
 7414TIP3    H122185   4.312   6.661   0.899  0.0756 -0.0773  0.1055
 7414TIP3    H222186   4.302   6.740   1.028 -0.1183 -0.8937  0.5933
 7415TIP3   OH222187   1.135   4.456   6.860  0.7593 -0.1991 -0.2242
 7415TIP3    H122188   1.193   4.429   6.789 -0.1270 -0.1615 -0.9594
 7415TIP3    H222189   1.134   4.552   6.855 -0.3183 -0.2487 -0.9676
 7416TIP3   OH222190   1.613   4.383   3.980 -0.0976 -0.4046 -0.5568
 7416TIP3    H122191   1.676   4.348   3.917 -0.2770 -1.8939  0.0759
 7416TIP3    H222192   1.538   4.410   3.926  0.4048 -0.1491 -1.1362
 7417TIP3   OH222193   3.908   2.137   4.330  0.2732 -0.7280 -0.4015
 7417TIP3    H122194   3.936   2.159   4.242  2.1738  0.0996  0.3873
 7417TIP3    H222195   3.844   2.204   4.353  0.8022 -0.1345 -0.6468
 7418TIP3   OH222196   3.322   5.607   3.535  0.5298  0.1538 -0.2081
 7418TIP3    H122197   3.226   5.602   3.526  0.1574  1.1977  2.6702
 7418TIP3    H222198   3.347   5.520   3.566  0.4135  0.1165 -0.2175
 7419TIP3   OH222199   2.089   5.479   3.395 -0.3928  0.4332  0.3777
 7419TIP3    H122200   2.090   5.444   3.484 -0.8884  0.6167  0.4593
 7419TIP3    H222201   2.130   5.566   3.402 -1.2599  0.8327  0.5986
 7420TIP3   OH222202   0.757   6.123   4.388  0.2085 -0.0964 -0.2842
 7420TIP3    H122203   0.672   6.151   4.422  0.1105 -0.3014 -0.3636
 7420TIP3    H222204   0.779   6.045   4.439  0.5581  0.2178  0.0472
 7421TIP3   OH222205   0.243   5.862   3.910 -0.2195  0.8819  0.0249
 7421TIP3    H122206   0.320   5.815   3.943 -0.6383 -0.5797 -1.0189
 7421TIP3    H222207   0.279   5.928   3.850  0.3143  1.2781  0.7763
 7422TIP3   OH222208   3.500   4.628   6.400 -0.8605  0.4547 -0.3389
 7422TIP3    H122209   3.497   4.716   6.362 -0.2643  0.7176  0.2019
 7422TIP3    H222210   3.559   4.579   6.343 -1.3225  0.3584 -0.7355
 7423TIP3   OH222211   2.938   4.582   5.264  0.1565 -0.8893 -0.0070
 7423TIP3    H122212   2.843   4.574   5.271  0.3406 -0.2542  4.1281
 7423TIP3    H222213   2.951   4.670   5.229 -0.7479 -0.4318  0.7858
 7424TIP3   OH222214   1.120   4.258   5.103  0.2012 -0.2866  0.6155
 7424TIP3    H122215   1.213   4.243   5.084  0.5490 -0.2050  2.1882
 7424TIP3    H222216   1.077   4.251   5.018  1.5291 -1.2493 -0.0031
 7425TIP3   OH222217   5.915   5.041   3.102  0.1197  0.5339 -0.1643
 7425TIP3    H122218   5.984   4.993   3.056 -2.8330 -1.4690 -2.6652
 7425TIP3    H222219   5.886   5.108   3.039 -0.3929  1.1888  0.7574
 7426TIP3   OH222220   3.427   4.776   4.167  0.5339  0.2170  0.2001
 7426TIP3    H122221   3.432   4.823   4.083  0.0271 -0.0580  0.0126
 7426TIP3    H222222   3.375   4.698   4.147  1.7508 -0.6546  0.3999
 7427TIP3   OH222223   2.849   3.905   2.099  0.2105 -0.1048  0.1911
 7427TIP3    H122224   2.894   3.874   2.177  0.7023  2.2290  0.8930
 7427TIP3    H222225   2.910   3.968   2.060  0.2569 -1.7182 -2.4806
 7428TIP3   OH222226   2.935   3.688   3.814  0.0218  0.0094  0.3366
 7428TIP3    H122227   2.910   3.766   3.763  0.1654 -0.6133 -0.6938
 7428TIP3    H222228   3.011   3.653   3.769 -0.5457 -1.2118  0.3140
 7429TIP3   OH222229   7.864   4.368   2.406  0.2322  0.0322  0.1751
 7429TIP3    H122230   7.840   4.346   2.316  1.9094  0.9452 -0.5163
 7429TIP3    H222231   7.781   4.396   2.447 -0.4963 -0.1533 -1.1495
 7430TIP3   OH222232   2.902   2.790   6.316 -0.1349 -0.2987 -0.0782
 7430TIP3    H122233   2.826   2.768   6.262  0.0864 -3.0427  0.6540
 7430TIP3    H222234   2.865   2.811   6.402 -0.1465 -0.5847 -0.0128
 7431TIP3   OH222235   3.393   3.404   2.983  0.3192  0.1570  0.0316
 7431TIP3    H122236   3.435   3.440   3.061 -0.0869  0.4977  0.0948
 7431TIP3    H222237   3.464   3.363   2.935  0.5123 -0.3731  0.7589
 7432TIP3   OH222238   4.529   3.663   2.806 -0.3197  1.2158  0.5596
 7432TIP3    H122239   4.552   3.645   2.715 -1.2938  2.3963  0.0706
 7432TIP3    H222240   4.435   3.646   2.811 -0.1309  0.3839  1.5470
 7433TIP3   OH222241   2.397   2.903   2.593 -0.4833  0.1860  0.3968
 7433TIP3    H122242   2.461   2.833   2.587  0.9781  1.3134  2.2094
 7433TIP3    H222243   2.405   2.935   2.683  0.2784  3.9537 -0.9050
 7434TIP3   OH222244   2.573   3.256   4.936 -0.3775 -0.1590  0.5414
 7434TIP3    H122245   2.649   3.253   4.995 -0.9739  2.8344  1.5348
 7434TIP3    H222246   2.506   3.205   4.982 -0.2937  0.7320  1.6757
 7435TIP3   OH222247   3.800   4.055   6.001  0.1078 -0.2111 -0.0681
 7435TIP3    H122248   3.817   4.067   6.095  1.7079  1.9554 -0.5801
 7435TIP3    H222249   3.790   4.144   5.967 -3.1104 -1.0741 -1.5342
 7436TIP3   OH222250   2.024   5.395   4.440  0.0751  0.8254 -0.4321
 7436TIP3    H122251   2.097   5.347   4.401  0.3627  1.4173 -0.6370
 7436TIP3    H222252   2.065   5.467   4.487 -0.2740  0.1450  0.9356
 7437TIP3   OH222253   3.638   3.774   3.849  0.0147 -0.1842  0.3204
 7437TIP3    H122254   3.560   3.718   3.857 -1.4998  1.6754 -1.2125
 7437TIP3    H222255   3.648   3.813   3.936 -0.2086 -1.0910  0.7691
 7438TIP3   OH222256   5.128   2.018   4.070  0.3464 -0.4484 -0.0526
 7438TIP3    H122257   5.116   2.022   4.165 -1.4377 -2.4801 -0.1382
 7438TIP3    H222258   5.039   2.017   4.035  0.9841 -0.6573 -1.6950
 7439TIP3   OH222259   3.636   2.200   4.098 -0.1460  0.0363 -0.0581
 7439TIP3    H122260   3.717   2.150   4.088 -0.2103  0.3793 -2.3709
 7439TIP3    H222261   3.665   2.289   4.119  0.0363 -0.1726  0.5839
 7440TIP3   OH222262   1.362   3.838   4.481  0.2974 -0.1216  0.9037
 7440TIP3    H122263   1.390   3.862   4.392 -0.2458 -0.4827  0.6281
 7440TIP3    H222264   1.307   3.911   4.509  0.3600 -0.0692  0.8906
 7441TIP3   OH222265   3.835   2.960   5.133  0.1306 -0.2914 -0.6109
 7441TIP3    H122266   3.891   2.883   5.143  0.2983  0.1317  1.9646
 7441TIP3    H222267   3.825   2.969   5.038  2.8992 -1.4621 -1.0866
 7442TIP3   OH222268   8.465   2.074   3.649 -0.3565 -0.2326 -0.4150
 7442TIP3    H122269   8.547   2.110   3.618  0.5300 -2.1452 -0.3766
 7442TIP3    H222270   8.422   2.147   3.694  2.0012  0.4158  0.8906
 7443TIP3   OH222271   3.875   3.874   4.355 -0.4417 -0.3546  0.5960
 7443TIP3    H122272   3.868   3.851   4.448 -0.6206 -0.1631  0.6315
 7443TIP3    H222273   3.904   3.965   4.356 -0.1939 -0.4327  0.4623
 7444TIP3   OH222274   3.125   5.919   6.565  0.1996  0.1985  0.1422
 7444TIP3    H122275   3.138   6.012   6.545  0.3889  0.5316  1.6928
 7444TIP3    H222276   3.211   5.888   6.591 -0.0737 -0.1393  0.6534
 7445TIP3   OH222277   0.320   5.728   4.373  0.1227  0.4331  0.2661
 7445TIP3    H122278   0.240   5.781   4.377 -0.4267 -0.3118 -0.7450
 7445TIP3    H222279   0.298   5.648   4.420  0.5924  0.6361  0.8301
 7446TIP3   OH222280   0.368   3.609   6.891  0.1429  0.2822  0.0969
 7446TIP3    H122281   0.411   3.558   6.823  0.3232  1.0617 -0.3799
 7446TIP3    H222282   0.297   3.553   6.922  2.6064 -1.8220  2.1998
 7447TIP3   OH222283   2.987   5.506   6.475 -0.3048  0.0615  0.4814
 7447TIP3    H122284   2.912   5.564   6.464  0.5562  1.3207  1.1712
 7447TIP3    H222285   3.034   5.510   6.392 -0.9363 -0.6492  0.0845
 7448TIP3   OH222286   8.177   0.883   0.206 -0.1544 -0.5715 -0.7146
 7448TIP3    H122287   8.208   0.815   0.266 -1.9387 -0.4859  0.3527
 7448TIP3    H222288   8.089   0.855   0.182 -1.7475  2.3654  1.3845
 7449TIP3   OH222289   3.473   5.367   4.299  0.3062 -0.1697  0.5572
 7449TIP3    H122290   3.493   5.429   4.229  0.3106 -0.8627 -0.0567
 7449TIP3    H222291   3.379   5.349   4.288  0.9750 -2.8554 -1.3891
 7450TIP3   OH222292   3.576   1.471   3.685 -0.6278 -0.0021  0.1031
 7450TIP3    H122293   3.591   1.498   3.595  0.6872  2.5558  1.0457
 7450TIP3    H222294   3.503   1.526   3.715  0.9744  1.4129  1.5211
 7451TIP3   OH222295   2.877   5.400   6.073  0.1148  0.0560 -0.4542
 7451TIP3    H122296   2.965   5.363   6.062 -0.4690 -0.9910 -1.8246
 7451TIP3    H222297   2.879   5.442   6.159  1.5936 -0.9801  0.0395
 7452TIP3   OH222298   3.137   2.546   3.603 -0.2556  0.1327 -0.4361
 7452TIP3    H122299   3.093   2.462   3.615  2.7577 -1.4711 -0.0333
 7452TIP3    H222300   3.115   2.572   3.514 -5.0315  1.3176  0.9372
 7453TIP3   OH222301   2.081   5.254   3.577  0.1471  0.6403 -0.5058
 7453TIP3    H122302   2.113   5.193   3.643  0.6736  0.1607 -1.1933
 7453TIP3    H222303   2.116   5.220   3.494 -1.6440  0.4391 -1.2003
 7454TIP3   OH222304   3.845   4.873   5.796  0.1323  0.3868 -0.4722
 7454TIP3    H122305   3.763   4.831   5.769  0.2212 -0.1255  0.0445
 7454TIP3    H222306   3.903   4.862   5.720  0.4902 -1.3603  0.0347
 7455TIP3   OH222307   2.518   4.510   4.686  0.1718 -0.2972  0.2072
 7455TIP3    H122308   2.424   4.491   4.678 -0.2917  1.2915  1.5164
 7455TIP3    H222309   2.523   4.605   4.689  2.0470 -0.2762 -2.0048
 7456TIP3   OH222310   0.307   4.929   4.646 -0.0754  1.0153 -0.0209
 7456TIP3    H122311   0.233   4.897   4.697  1.6277  0.6083  2.2633
 7456TIP3    H222312   0.384   4.894   4.691  1.5645  2.5750 -1.5340
 7457TIP3   OH222313   2.368   4.641   3.195 -0.1218  0.3094  0.2317
 7457TIP3    H122314   2.311   4.704   3.152  0.6307  1.0358  0.2785
 7457TIP3    H222315   2.363   4.663   3.288  2.6549  2.4425 -0.0541
 7458TIP3   OH222316   2.165   4.830   5.510 -0.3554 -0.4075  0.2830
 7458TIP3    H122317   2.089   4.810   5.566  0.0754  1.6295  1.6496
 7458TIP3    H222318   2.186   4.921   5.530  1.9877 -0.7107 -0.6647
 7459TIP3   OH222319   3.520   3.598   4.252  0.4509  0.7905  0.4118
 7459TIP3    H122320   3.598   3.551   4.223  0.2384 -1.2531  3.0006
 7459TIP3    H222321   3.553   3.662   4.315  0.2558  1.3914 -0.0842
 7460TIP3   OH222322   2.138   4.564   5.771  0.2329  0.4258 -0.1294
 7460TIP3    H122323   2.169   4.606   5.851 -0.1190  0.5868 -0.0786
 7460TIP3    H222324   2.078   4.627   5.732  0.6804  0.4991 -0.7071
 7461TIP3   OH222325   7.961   1.096   0.204  0.3865 -0.4616 -0.1364
 7461TIP3    H122326   7.948   1.024   0.142 -2.3868 -2.1205  2.2340
 7461TIP3    H222327   8.041   1.073   0.251  0.2833 -1.2940 -0.3503
 7462TIP3   OH222328   0.626   2.655   6.261 -0.2976 -0.4410 -0.1258
 7462TIP3    H122329   0.701   2.680   6.207  0.1218 -0.0898  0.6048
 7462TIP3    H222330   0.640   2.563   6.281 -1.5527 -1.1416 -2.3590
 7463TIP3   OH222331   1.593   3.142   4.541 -0.1421 -0.4985  0.7408
 7463TIP3    H122332   1.617   3.080   4.610  2.6568  0.1760  0.4334
 7463TIP3    H222333   1.676   3.161   4.496 -1.5413  0.8102 -1.3529
 7464TIP3   OH222334   3.746   4.736   3.925  0.1803  0.1049 -0.6305
 7464TIP3    H122335   3.834   4.738   3.964 -0.6995  0.6860  1.3900
 7464TIP3    H222336   3.719   4.645   3.930  0.6129 -0.0550 -1.1508
 7465TIP3   OH222337   2.262   5.434   5.222  0.0073  0.4966 -0.6616
 7465TIP3    H122338   2.325   5.500   5.192  0.5700 -0.6146 -1.9477
 7465TIP3    H222339   2.201   5.425   5.148 -1.5172  1.3533  0.4534
 7466TIP3   OH222340   0.872   3.806   4.431  0.2409 -0.1159 -0.0172
 7466TIP3    H122341   0.878   3.737   4.365  0.6358 -0.0583 -0.0394
 7466TIP3    H222342   0.852   3.885   4.381  3.2521  0.4733 -0.3856
 7467TIP3   OH222343   3.623   2.260   4.718 -0.2154  0.1454  0.0279
 7467TIP3    H122344   3.607   2.256   4.812 -0.4978  1.0823  0.0213
 7467TIP3    H222345   3.690   2.327   4.708 -0.8915  0.7476 -0.5220
 7468TIP3   OH222346   2.727   4.575   4.063  0.0397  0.4524 -0.0207
 7468TIP3    H122347   2.769   4.498   4.100 -1.7299 -0.6653 -0.2708
 7468TIP3    H222348   2.797   4.623   4.020  1.2553 -0.7274  0.6109
 7469TIP3   OH222349   3.676   6.353   4.221  0.0522 -0.9736 -0.3393
 7469TIP3    H122350   3.655   6.266   4.255  1.6260 -1.5145 -0.6980
 7469TIP3    H222351   3.593   6.385   4.186 -0.5102 -2.4378 -0.4171
 7470TIP3   OH222352   1.920   3.177   4.724  0.5045 -0.6381  0.2150
 7470TIP3    H122353   1.887   3.148   4.639 -2.9615 -1.3148  1.7119
 7470TIP3    H222354   1.983   3.246   4.703 -0.7491 -0.3460 -2.8717
 7471TIP3   OH222355   5.716   7.128   0.372 -0.7386  0.0378 -0.1605
 7471TIP3    H122356   5.740   7.138   0.280 -1.2270 -0.0549 -0.3021
 7471TIP3    H222357   5.748   7.208   0.415 -0.8841  0.2717 -0.4905
 7472TIP3   OH222358   1.983   4.586   4.647  0.3465 -0.3767  0.1872
 7472TIP3    H122359   1.923   4.627   4.709 -0.8862  0.7117 -1.6349
 7472TIP3    H222360   1.930   4.518   4.605  0.9265 -0.5961 -0.1854
 7473TIP3   OH222361   8.378   4.101   6.912 -0.0642  0.1062  0.2467
 7473TIP3    H122362   8.468   4.125   6.936 -0.0390  0.3378 -0.0812
 7473TIP3    H222363   8.385   4.010   6.882  0.4643  0.8794 -2.0244
 7474TIP3   OH222364   2.179   6.078   6.151 -0.0135  0.2268  0.0610
 7474TIP3    H122365   2.222   6.160   6.127  1.2770  0.0643  1.7854
 7474TIP3    H222366   2.100   6.105   6.198  1.8548  0.5329  3.1731
 7475TIP3   OH222367   4.955   5.798   3.940 -0.1002 -0.0142  0.5031
 7475TIP3    H122368   4.895   5.858   3.897  0.8217  0.3745 -0.2494
 7475TIP3    H222369   4.931   5.803   4.033  0.5517  2.2065  0.5791
 7476TIP3   OH222370   5.328   5.921   3.858 -0.3063  0.1739  0.3109
 7476TIP3    H122371   5.325   5.863   3.934 -1.2490  1.2840  1.1274
 7476TIP3    H222372   5.393   5.988   3.882 -0.0220  0.0762 -0.1839
 7477TIP3   OH222373   5.127   3.990   3.805 -0.3875 -0.2382  0.2921
 7477TIP3    H122374   5.056   3.946   3.853 -1.1328  1.9749  1.2812
 7477TIP3    H222375   5.088   4.014   3.721 -0.8726  1.1309  0.9032
 7478TIP3   OH222376   2.882   2.750   3.306 -0.5516 -0.5790 -0.3112
 7478TIP3    H122377   2.948   2.732   3.239 -0.9297 -1.7766 -0.3676
 7478TIP3    H222378   2.807   2.784   3.258 -0.3198 -0.1127 -0.3456
 7479TIP3   OH222379   4.913   3.808   5.888  0.6870 -0.3869 -0.4285
 7479TIP3    H122380   4.840   3.852   5.931  0.6658  0.8233 -1.6704
 7479TIP3    H222381   4.872   3.750   5.825  0.7795 -0.0612 -0.7908
 7480TIP3   OH222382   5.729   3.356   3.044  0.0326 -0.1555  0.2119
 7480TIP3    H122383   5.713   3.328   2.954  0.8595 -1.7456  0.5319
 7480TIP3    H222384   5.642   3.369   3.081 -0.3505 -0.7932 -0.4363
 7481TIP3   OH222385   4.719   3.251   2.867  0.1065  0.0638  0.4126
 7481TIP3    H122386   4.654   3.196   2.823 -0.1387  0.5741  0.1302
 7481TIP3    H222387   4.715   3.224   2.959  0.1791 -0.5778  0.2261
 7482TIP3   OH222388   4.751   2.880   3.170  0.3972 -0.1171 -0.2812
 7482TIP3    H122389   4.791   2.793   3.175  0.5534 -0.0801 -0.8326
 7482TIP3    H222390   4.660   2.864   3.146 -0.2497 -0.2723  2.1466
 7483TIP3   OH222391   3.610   4.248   5.433  0.5395  0.1915  0.1784
 7483TIP3    H122392   3.692   4.266   5.478 -0.2602  1.3139  1.2282
 7483TIP3    H222393   3.548   4.227   5.503 -0.3384  0.4143 -0.5113
 7484TIP3   OH222394   3.837   4.003   5.576 -0.5226  0.1593 -0.0870
 7484TIP3    H122395   3.883   3.984   5.658 -0.3290 -0.0769 -0.2492
 7484TIP3    H222396   3.871   4.088   5.549  0.2811 -0.2910 -0.5249
 7485TIP3   OH222397   3.483   3.271   3.440  0.5735 -0.4506 -0.0022
 7485TIP3    H122398   3.403   3.318   3.464  2.7370  2.8717  1.1143
 7485TIP3    H222399   3.480   3.268   3.344 -1.8011 -2.1124  0.0967
 7486TIP3   OH222400   4.771   5.355   3.774 -0.1342  0.5671 -0.1765
 7486TIP3    H122401   4.844   5.365   3.834 -1.1835 -1.0167  1.3945
 7486TIP3    H222402   4.705   5.416   3.805 -0.2144  0.6320 -0.4674
 7487TIP3   OH222403   4.724   2.997   4.627  0.0700 -0.2813  0.0766
 7487TIP3    H122404   4.692   3.003   4.717  0.0886  2.3589 -0.0308
 7487TIP3    H222405   4.647   3.015   4.573  0.6060  0.8699 -0.3285
 7488TIP3   OH222406   3.834   3.949   3.695  0.2212  0.0037 -0.3160
 7488TIP3    H122407   3.797   3.864   3.716 -1.0453  1.0085  1.6831
 7488TIP3    H222408   3.760   3.998   3.659  0.6266  0.6659 -0.2543
 7489TIP3   OH222409   3.982   4.498   4.067 -0.7244 -0.0298 -0.2875
 7489TIP3    H122410   3.967   4.589   4.095 -0.6700 -0.2061  0.3109
 7489TIP3    H222411   3.943   4.494   3.980  0.6809  0.9970 -0.9701
 7490TIP3   OH222412   4.414   5.106   3.399  0.0243 -0.6652 -0.2117
 7490TIP3    H122413   4.437   5.183   3.451  0.7937 -0.0032 -1.4979
 7490TIP3    H222414   4.321   5.093   3.416 -0.0541  0.4070  0.2289
 7491TIP3   OH222415   7.061   6.007   4.592 -0.1260  0.4682 -1.0295
 7491TIP3    H122416   7.155   6.010   4.573 -0.0668  0.1001 -0.7887
 7491TIP3    H222417   7.019   6.003   4.506  0.0936  0.1922 -1.1245
 7492TIP3   OH222418   5.563   5.418   2.826  0.2002  0.3164 -0.6526
 7492TIP3    H122419   5.514   5.428   2.744 -0.9502  0.1007 -0.0011
 7492TIP3    H222420   5.591   5.327   2.826 -3.2830 -0.8338  1.0790
 7493TIP3   OH222421   4.807   3.935   3.101 -0.0086  0.0618  0.0877
 7493TIP3    H122422   4.744   3.934   3.029  0.4386 -1.5356 -0.3002
 7493TIP3    H222423   4.853   3.852   3.093  1.1802  0.6045  1.2257
 7494TIP3   OH222424   4.585   5.188   3.197  0.9386 -0.3026 -0.5545
 7494TIP3    H122425   4.526   5.136   3.253  0.8249 -1.0626 -1.3669
 7494TIP3    H222426   4.525   5.239   3.142  1.0088 -1.5659 -1.8385
 7495TIP3   OH222427   3.843   4.148   3.161 -0.5511 -0.9896  0.1481
 7495TIP3    H122428   3.929   4.106   3.169  0.5185  1.1260  0.1591
 7495TIP3    H222429   3.842   4.184   3.073 -0.3238  1.2677  1.0250
 7496TIP3   OH222430   3.931   4.572   6.847 -0.2398  0.4903  0.4861
 7496TIP3    H122431   3.883   4.598   6.769 -0.6350 -0.7370  0.3127
 7496TIP3    H222432   3.905   4.636   6.914  0.2906  1.6883 -0.4383
 7497TIP3   OH222433   4.649   2.377   2.013 -0.6213 -0.2290 -0.3360
 7497TIP3    H122434   4.721   2.378   1.950  0.3387 -0.2116  0.7505
 7497TIP3    H222435   4.623   2.468   2.022  0.5703  0.0137  0.7863
 7498TIP3   OH222436   4.182   2.319   4.191 -0.4859 -0.0457 -0.0355
 7498TIP3    H122437   4.202   2.329   4.098  2.0255 -1.3275  0.3206
 7498TIP3    H222438   4.186   2.225   4.207  0.6630  0.2502  1.6448
 7499TIP3   OH222439   4.998   4.108   3.598 -0.3013 -0.4544 -0.3932
 7499TIP3    H122440   4.914   4.152   3.609  0.7113  1.3160  0.4452
 7499TIP3    H222441   5.022   4.124   3.507  0.1420  0.9079 -0.0489
 7500TIP3   OH222442   4.700   6.644   2.766 -0.2165 -0.1540 -0.3271
 7500TIP3    H122443   4.653   6.717   2.806 -0.8144 -0.7634  0.0821
 7500TIP3    H222444   4.649   6.567   2.789 -1.2687 -0.4150 -3.3084
 7501TIP3   OH222445   5.697   2.720   3.167  0.9512 -0.3745  0.2035
 7501TIP3    H122446   5.662   2.809   3.175 -0.2894 -0.8876  0.6740
 7501TIP3    H222447   5.651   2.670   3.235  1.4364 -1.4266 -0.2331
 7502TIP3   OH222448   3.107   4.382   3.834 -0.1990  0.3894 -0.3386
 7502TIP3    H122449   3.161   4.430   3.772 -1.5489 -1.1445 -2.8258
 7502TIP3    H222450   3.018   4.388   3.797 -0.8540 -1.4602  0.8675
 7503TIP3   OH222451   4.278   6.865   3.010  0.2518  0.3427 -0.9031
 7503TIP3    H122452   4.242   6.777   3.020  1.2532  0.0416  0.1428
 7503TIP3    H222453   4.209   6.915   2.967 -1.8472  0.0533  1.9655
 7504TIP3   OH222454   4.156   5.041   4.445 -0.4658 -0.5884  0.2051
 7504TIP3    H122455   4.221   5.110   4.434 -1.3781  0.6531  2.1813
 7504TIP3    H222456   4.205   4.966   4.477 -0.0503  0.5658  2.4075
 7505TIP3   OH222457   3.889   5.201   5.841 -0.0422  0.1341  0.3590
 7505TIP3    H122458   3.917   5.208   5.750  0.8800 -0.3223  0.5970
 7505TIP3    H222459   3.914   5.285   5.880  1.7650 -0.5672  0.7618
 7506TIP3   OH222460   5.894   7.083   3.498 -0.2047  0.5033 -0.0040
 7506TIP3    H122461   5.951   7.158   3.481 -0.2391  0.5789  0.2011
 7506TIP3    H222462   5.857   7.101   3.585 -0.6912  0.5540 -0.2185
 7507TIP3   OH222463   5.168   3.672   5.800  0.3695 -0.1385  0.2215
 7507TIP3    H122464   5.101   3.724   5.846  0.7203 -0.0355  0.6282
 7507TIP3    H222465   5.183   3.597   5.858  0.3409 -0.3507 -0.0483
 7508TIP3   OH222466   4.602   3.452   3.024 -0.2790 -0.0881 -0.5117
 7508TIP3    H122467   4.633   3.401   2.949  0.2090 -0.4235 -0.0801
 7508TIP3    H222468   4.616   3.543   2.999 -0.7307 -0.1777 -1.0998
 7509TIP3   OH222469   3.762   4.815   6.426  0.0785 -0.2216  0.1387
 7509TIP3    H122470   3.695   4.880   6.445 -0.5372 -0.8934  0.2846
 7509TIP3    H222471   3.802   4.843   6.344 -0.4735  0.1015 -0.0162
 7510TIP3   OH222472   5.721   3.950   2.075  0.2028  0.2524 -0.0979
 7510TIP3    H122473   5.778   4.024   2.058  0.4482  0.0868  0.0058
 7510TIP3    H222474   5.718   3.944   2.171 -0.6569  0.7816 -0.0825
 7511TIP3   OH222475   5.446   4.552   3.257 -0.4203 -0.4392  0.1749
 7511TIP3    H122476   5.354   4.547   3.284 -0.7127  3.2716  0.0273
 7511TIP3    H222477   5.490   4.593   3.331  1.1647 -2.1786  0.2260
 7512TIP3   OH222478   6.593   5.728   4.265 -0.3301  0.0780  0.6937
 7512TIP3    H122479   6.574   5.647   4.217 -1.2477 -0.0291  1.2155
 7512TIP3    H222480   6.527   5.730   4.335  1.1829  0.0640  2.1449
 7513TIP3   OH222481   6.856   5.483   4.254  0.3110  0.2903 -0.1892
 7513TIP3    H122482   6.867   5.558   4.196  0.9421 -1.0907 -1.9017
 7513TIP3    H222483   6.777   5.439   4.223  0.3813 -0.2008  0.3013
 7514TIP3   OH222484   3.452   4.290   3.425  0.0133 -0.0568  0.0486
 7514TIP3    H122485   3.425   4.375   3.392 -0.8878  0.1640  1.3154
 7514TIP3    H222486   3.460   4.235   3.347 -0.4833  0.8831 -0.6744
 7515TIP3   OH222487   4.322   4.588   4.529  0.4861  0.5892 -0.0562
 7515TIP3    H122488   4.319   4.553   4.440  0.3825 -1.5115  0.7397
 7515TIP3    H222489   4.333   4.511   4.584  4.9807  2.1917  1.5078
 7516TIP3   OH222490   3.902   3.290   2.405  0.2940  0.0637  0.2444
 7516TIP3    H122491   3.809   3.292   2.429  0.2586  2.0145  0.0159
 7516TIP3    H222492   3.923   3.197   2.399 -1.5865 -0.4002  0.5381
 7517TIP3   OH222493   4.065   3.163   4.007 -0.8679 -0.5732 -0.0481
 7517TIP3    H122494   4.016   3.240   4.035 -0.5775  0.2264 -1.6670
 7517TIP3    H222495   4.157   3.187   4.020 -0.8176 -1.1544  0.6977
 7518TIP3   OH222496   3.935   3.233   2.701  0.3781 -0.2186 -0.4062
 7518TIP3    H122497   3.963   3.155   2.652  2.4388  0.0403  0.3146
 7518TIP3    H222498   3.890   3.198   2.778 -0.8879 -0.6456 -1.3073
 7519TIP3   OH222499   3.833   3.316   3.262 -0.1087  0.1467 -0.1881
 7519TIP3    H122500   3.785   3.236   3.237 -0.3128 -0.4379  2.0023
 7519TIP3    H222501   3.923   3.298   3.236 -0.3789 -0.2666 -0.8781
 7520TIP3   OH222502   4.816   4.406   5.317  0.3795  0.5526 -0.0949
 7520TIP3    H122503   4.741   4.464   5.326  0.4358  0.4260  1.1557
 7520TIP3    H222504   4.883   4.444   5.374  0.7789 -0.1461 -0.0958
 7521TIP3   OH222505   1.668   1.677   1.082  0.0576  0.0897 -0.0272
 7521TIP3    H122506   1.690   1.769   1.067  1.7170 -0.0221  1.5119
 7521TIP3    H222507   1.598   1.679   1.148 -0.6704  0.2744 -0.8012
 7522TIP3   OH222508   3.388   3.890   4.726 -0.0170 -0.2792  0.2299
 7522TIP3    H122509   3.427   3.927   4.805  0.2773 -0.0703 -0.0088
 7522TIP3    H222510   3.438   3.811   4.708  0.1223 -0.1588  0.0793
 7523TIP3   OH222511   5.639   3.569   3.765 -0.5119  0.5854  0.4025
 7523TIP3    H122512   5.600   3.553   3.679 -1.6367  0.0822  0.9925
 7523TIP3    H222513   5.619   3.661   3.784 -1.6528  0.2558  0.8169
 7524TIP3   OH222514   3.695   2.494   3.307  0.2873  0.0809 -0.0691
 7524TIP3    H122515   3.661   2.535   3.386  2.4235  0.3295  0.7420
 7524TIP3    H222516   3.630   2.514   3.239  0.0302  2.6018  0.8905
 7525TIP3   OH222517   2.838   3.917   4.094  0.3746  0.4723  0.0425
 7525TIP3    H122518   2.891   3.849   4.136 -1.3775 -1.4062 -0.6684
 7525TIP3    H222519   2.782   3.950   4.163 -0.3270 -0.4095 -0.0917
 7526TIP3   OH222520   2.625   6.039   3.303  0.0877 -0.0327 -0.3805
 7526TIP3    H122521   2.597   5.954   3.336  0.2242 -0.9883 -2.6393
 7526TIP3    H222522   2.544   6.081   3.274  0.2947 -0.4077 -1.5232
 7527TIP3   OH222523   3.690   3.059   3.223  0.1288  0.0146  0.1280
 7527TIP3    H122524   3.597   3.043   3.206 -0.1883  1.1771  0.6793
 7527TIP3    H222525   3.715   2.992   3.286 -0.2034 -0.6250 -0.4180
 7528TIP3   OH222526   3.522   7.739   3.232  0.1021  0.3845  0.1816
 7528TIP3    H122527   3.582   7.665   3.219  1.0853  1.2105 -0.0397
 7528TIP3    H222528   3.464   7.736   3.155 -0.4069 -0.6531  0.5961
 7529TIP3   OH222529   3.445   5.516   4.535 -0.0752 -0.3808 -0.8177
 7529TIP3    H122530   3.468   5.607   4.518  0.5700 -0.5550 -0.8763
 7529TIP3    H222531   3.421   5.481   4.450 -2.0723  0.2107 -0.5443
 7530TIP3   OH222532   4.398   3.082   5.018  0.3034 -0.3255 -0.3818
 7530TIP3    H122533   4.432   3.023   5.086 -0.8310  0.3084  0.7428
 7530TIP3    H222534   4.460   3.155   5.016  0.9422 -0.8690 -0.8104
 7531TIP3   OH222535   4.117   3.450   4.252 -0.0068 -0.1300  1.1884
 7531TIP3    H122536   4.123   3.477   4.160  1.2794 -0.8254  1.0563
 7531TIP3    H222537   4.072   3.523   4.295 -0.0979  0.4648  0.1145
 7532TIP3   OH222538   4.163   6.545   4.539 -0.0289 -0.2365  0.0152
 7532TIP3    H122539   4.161   6.640   4.550 -0.1475 -0.2833  0.3971
 7532TIP3    H222540   4.100   6.512   4.603 -0.4498 -0.5324 -0.5431
 7533TIP3   OH222541   5.320   3.628   3.717 -0.7231  0.4922  0.3103
 7533TIP3    H122542   5.369   3.581   3.649 -0.3960 -0.8691  1.4563
 7533TIP3    H222543   5.339   3.721   3.700  0.0582  0.1298 -0.9125
 7534TIP3   OH222544   5.639   5.858   5.429  0.6945 -0.3676 -0.5074
 7534TIP3    H122545   5.566   5.910   5.462 -0.0592 -1.1772 -0.9148
 7534TIP3    H222546   5.713   5.884   5.485  0.2438  0.8619 -0.4624
 7535TIP3   OH222547   4.378   3.215   1.357 -0.4131 -0.4164 -0.0146
 7535TIP3    H122548   4.446   3.233   1.421 -0.5404 -0.3069  0.0910
 7535TIP3    H222549   4.369   3.119   1.358  0.4349 -0.5105 -0.7511
 7536TIP3   OH222550   3.189   4.299   3.052 -0.5945 -0.5824 -0.2218
 7536TIP3    H122551   3.208   4.297   2.958  0.1755 -0.2385 -0.0760
 7536TIP3    H222552   3.217   4.213   3.083  0.5879 -0.1359 -0.0365
 7537TIP3   OH222553   4.515   4.030   6.643 -0.0301 -0.2686  0.4246
 7537TIP3    H122554   4.470   4.052   6.561 -1.3835 -1.7541  0.7399
 7537TIP3    H222555   4.561   4.110   6.667 -0.3590  0.4698 -1.3089
 7538TIP3   OH222556   3.655   4.387   6.245 -0.0232 -0.4306  0.0508
 7538TIP3    H122557   3.610   4.386   6.329 -0.2754 -1.1092 -0.0949
 7538TIP3    H222558   3.728   4.326   6.255 -1.6610 -2.6178 -1.1066
 7539TIP3   OH222559   5.615   6.268   5.614 -0.5134 -0.4927  0.5633
 7539TIP3    H122560   5.700   6.266   5.571 -0.4084  0.4160  0.7198
 7539TIP3    H222561   5.626   6.216   5.693 -0.4282 -1.3356 -0.0050
 7540TIP3   OH222562   5.473   4.845   2.795  0.6531  0.6494 -0.4025
 7540TIP3    H122563   5.414   4.919   2.790 -0.4490 -0.1884  0.0559
 7540TIP3    H222564   5.458   4.808   2.883  0.7953 -0.4275 -0.8244
 7541TIP3   OH222565   4.423   5.283   6.297 -0.0984  0.2177  0.6741
 7541TIP3    H122566   4.445   5.265   6.389 -0.0041 -3.3456  0.0054
 7541TIP3    H222567   4.369   5.209   6.270  0.7521  0.6760 -2.4771
 7542TIP3   OH222568   6.181   4.966   2.072  0.3464 -0.1765 -0.3423
 7542TIP3    H122569   6.154   5.024   2.144 -3.1418 -1.6285 -0.3789
 7542TIP3    H222570   6.211   4.887   2.116 -0.7793 -0.6604 -0.4276
 7543TIP3   OH222571   4.145   5.244   2.845  0.1403 -0.7510  0.7497
 7543TIP3    H122572   4.107   5.187   2.912  0.7494 -2.2488 -0.1581
 7543TIP3    H222573   4.204   5.187   2.795  0.4140  0.5644 -0.4630
 7544TIP3   OH222574   2.938   4.856   2.863  0.1879  0.4029  0.1114
 7544TIP3    H122575   2.858   4.843   2.811  1.0661 -0.0510 -1.1630
 7544TIP3    H222576   2.927   4.797   2.938  0.1663 -1.1146 -1.0563
 7545TIP3   OH222577   3.961   3.780   3.034 -0.4939 -0.0927  0.0427
 7545TIP3    H122578   3.963   3.832   2.954  1.4684 -1.0486 -0.5633
 7545TIP3    H222579   3.929   3.694   3.006  0.9519 -0.6722  0.1077
 7546TIP3   OH222580   4.989   6.506   3.850  0.2236 -0.5392  0.3777
 7546TIP3    H122581   4.999   6.426   3.902  0.3420 -0.1037  1.0447
 7546TIP3    H222582   4.977   6.575   3.916  1.4252  0.1778 -0.1417
 7547TIP3   OH222583   4.357   5.862   4.601 -0.5746  0.1617 -0.6513
 7547TIP3    H122584   4.424   5.863   4.670 -0.5449  0.5056 -0.6799
 7547TIP3    H222585   4.375   5.783   4.551  0.1619  0.5273 -0.9877
 7548TIP3   OH222586   4.345   4.584   2.664  0.2545  0.0881  0.3736
 7548TIP3    H122587   4.430   4.574   2.621 -0.8618  0.4514 -1.9868
 7548TIP3    H222588   4.354   4.664   2.716  0.7251  1.2634 -1.4629
 7549TIP3   OH222589   4.386   5.459   3.465  0.0838 -0.2929 -0.5571
 7549TIP3    H122590   4.440   5.404   3.521 -0.8747  0.0119  0.6790
 7549TIP3    H222591   4.436   5.541   3.457  0.1591 -0.2849 -0.0226
 7550TIP3   OH222592   3.633   4.785   3.251 -0.5193  0.2436 -0.0626
 7550TIP3    H122593   3.655   4.831   3.332  0.5609  2.1666 -1.4256
 7550TIP3    H222594   3.717   4.752   3.219 -0.7474  0.6588 -1.1023
 7551TIP3   OH222595   4.287   5.128   2.638 -0.1953 -0.6330 -0.1400
 7551TIP3    H122596   4.380   5.107   2.649  0.0443  0.3912 -0.1284
 7551TIP3    H222597   4.278   5.150   2.546 -0.9436 -3.1378 -0.7047
 7552TIP3   OH222598   3.625   5.478   5.353  0.7412  0.0349 -0.0280
 7552TIP3    H122599   3.658   5.411   5.412 -0.4637 -0.5470  0.0117
 7552TIP3    H222600   3.530   5.468   5.357  0.5483  1.8114  0.0370
 7553TIP3   OH222601   4.649   5.196   1.889  0.4266 -0.4926 -0.0259
 7553TIP3    H122602   4.720   5.132   1.885 -0.4032 -1.5380  1.5494
 7553TIP3    H222603   4.570   5.146   1.867  0.3321  0.9957 -3.4017
 7554TIP3   OH222604   2.551   2.674   5.929 -0.3887  0.3392 -0.2217
 7554TIP3    H122605   2.513   2.666   5.842  0.7453  0.6539 -0.7458
 7554TIP3    H222606   2.597   2.591   5.943 -3.1166 -0.9924  1.3337
 7555TIP3   OH222607   4.237   2.920   4.049 -0.6543 -0.3171  0.1483
 7555TIP3    H122608   4.219   2.983   4.118  0.4205  0.8759 -0.6549
 7555TIP3    H222609   4.194   2.956   3.971  2.0793  0.7389 -0.9159
 7556TIP3   OH222610   4.519   2.802   4.302  0.2243 -0.7064  0.2501
 7556TIP3    H122611   4.464   2.723   4.308  2.3156 -2.1787  0.7140
 7556TIP3    H222612   4.581   2.783   4.232  1.6656 -0.0791  1.3172
 7557TIP3   OH222613   2.479   6.036   4.518  0.4737 -0.9402  0.2246
 7557TIP3    H122614   2.511   6.020   4.429  0.8227 -0.4920  0.2688
 7557TIP3    H222615   2.474   5.949   4.557  0.0728 -1.1649 -0.3163
 7558TIP3   OH222616   4.623   4.363   3.478 -0.3847  0.1472  0.0099
 7558TIP3    H122617   4.656   4.412   3.403 -1.6768  2.1856  0.7592
 7558TIP3    H222618   4.532   4.389   3.486 -0.8443 -1.6529  1.0329
 7559TIP3   OH222619   5.070   3.616   1.280  0.0357 -0.0895 -0.5761
 7559TIP3    H122620   4.994   3.623   1.338 -0.2725 -1.2730 -0.8240
 7559TIP3    H222621   5.034   3.584   1.198  0.6355  0.5454 -1.0921
 7560TIP3   OH222622   3.067   3.235   1.744 -0.1685  0.1983  0.1556
 7560TIP3    H122623   3.016   3.310   1.713  1.4588  0.1145 -3.0044
 7560TIP3    H222624   3.041   3.163   1.686  0.3208 -0.9419  1.3371
 7561TIP3   OH222625   3.297   4.045   5.390  0.0307  0.5231 -0.2070
 7561TIP3    H122626   3.245   4.123   5.374  0.3500  0.7690 -0.0659
 7561TIP3    H222627   3.366   4.048   5.324  1.0005  1.2259  0.7940
 7562TIP3   OH222628   5.077   5.695   3.105 -0.4542  0.5063  0.0249
 7562TIP3    H122629   5.104   5.648   3.184  1.0686 -2.3921 -2.1359
 7562TIP3    H222630   4.985   5.672   3.094 -0.3542 -0.0531  0.3343
 7563TIP3   OH222631   4.282   2.791   2.499  0.0738  0.1390 -0.1339
 7563TIP3    H122632   4.213   2.797   2.565 -1.9797  0.1167 -2.2138
 7563TIP3    H222633   4.265   2.864   2.439  0.8372 -0.8344 -1.5860
 7564TIP3   OH222634   5.981   3.455   5.106 -0.4154  0.8853  0.4580
 7564TIP3    H122635   6.040   3.476   5.034  0.9071 -2.6744  0.4027
 7564TIP3    H222636   5.894   3.481   5.075  0.4707  1.8095 -1.3228
 7565TIP3   OH222637   3.303   5.165   3.004 -0.6898  0.2867 -0.5305
 7565TIP3    H122638   3.255   5.105   2.947  0.1381 -1.0177  0.1379
 7565TIP3    H222639   3.347   5.109   3.067 -1.3997  1.6940  1.2705
 7566TIP3   OH222640   3.353   2.532   2.467 -0.1072 -0.0247  0.0297
 7566TIP3    H122641   3.303   2.596   2.518  0.0832 -1.5120  2.1456
 7566TIP3    H222642   3.441   2.537   2.504  0.5409  0.3363 -1.5541
 7567TIP3   OH222643   3.583   3.653   5.283 -0.2154 -1.1618  0.4583
 7567TIP3    H122644   3.490   3.630   5.277  0.3079 -3.1456 -0.1932
 7567TIP3    H222645   3.593   3.686   5.373 -1.2507 -2.2830  1.0039
 7568TIP3   OH222646   3.512   3.000   4.003 -0.2221 -0.1089 -0.4638
 7568TIP3    H122647   3.567   2.925   4.026  1.3827  1.2174  0.1629
 7568TIP3    H222648   3.529   3.064   4.073 -1.8300  0.6933 -0.7934
 7569TIP3   OH222649   4.745   4.212   3.014  0.4819 -0.2913 -0.3618
 7569TIP3    H122650   4.788   4.130   3.037 -1.0713 -1.1866 -0.5687
 7569TIP3    H222651   4.670   4.217   3.074  1.1361  1.4918  0.3465
 7570TIP3   OH222652   2.299   6.328   4.759 -0.5992 -0.2423 -0.2180
 7570TIP3    H122653   2.323   6.418   4.736 -2.0632  0.3918  0.6037
 7570TIP3    H222654   2.207   6.335   4.786  0.1372 -1.4543  2.7448
 7571TIP3   OH222655   6.157   6.628   6.452  0.4276 -0.6086 -0.1329
 7571TIP3    H122656   6.251   6.641   6.438  0.6686 -2.4784 -0.4326
 7571TIP3    H222657   6.141   6.662   6.540  0.8654  2.0973 -1.0710
 7572TIP3   OH222658   5.607   4.200   3.088  0.4434 -0.1789  0.3785
 7572TIP3    H122659   5.654   4.128   3.129  0.5095  0.3219  1.1960
 7572TIP3    H222660   5.617   4.185   2.994 -2.3952 -3.1286  0.4724
 7573TIP3   OH222661   1.187   1.810   0.059  0.0370 -0.2344 -0.8188
 7573TIP3    H122662   1.199   1.904   0.045 -1.5118 -0.1051 -1.3651
 7573TIP3    H222663   1.093   1.799   0.075  0.3701 -1.5617  0.3267
 7574TIP3   OH222664   5.410   3.509   4.258  0.0984 -0.3563  0.1653
 7574TIP3    H122665   5.456   3.593   4.255 -0.2322 -0.2038 -0.5098
 7574TIP3    H222666   5.379   3.495   4.169 -0.8049 -0.6723  0.5308
 7575TIP3   OH222667   2.867   3.237   5.354 -0.1312  0.1582 -0.6329
 7575TIP3    H122668   2.894   3.293   5.428  0.9824 -0.3631 -0.6355
 7575TIP3    H222669   2.945   3.185   5.334  0.2732  1.7994 -3.5629
 7576TIP3   OH222670   3.961   4.310   3.716  0.0214 -0.2323 -0.1070
 7576TIP3    H122671   3.981   4.246   3.784  1.1482 -0.0246 -0.2203
 7576TIP3    H222672   3.953   4.257   3.636  1.0538 -0.2295 -0.2196
 7577TIP3   OH222673   4.645   6.162   4.986  0.6905  0.0180 -0.0582
 7577TIP3    H122674   4.713   6.229   4.976  0.3695  0.2261 -0.9307
 7577TIP3    H222675   4.565   6.212   5.002  0.5359 -0.1844 -0.2065
 7578TIP3   OH222676   3.836   6.043   2.491  0.2289 -0.3305 -0.1912
 7578TIP3    H122677   3.907   6.107   2.485  0.0720 -0.3897 -3.3639
 7578TIP3    H222678   3.763   6.083   2.445 -0.9464 -1.4450  0.6389
 7579TIP3   OH222679   2.619   4.144   6.310  0.8675  0.2691  0.0784
 7579TIP3    H122680   2.694   4.087   6.293  0.7651  0.4318 -0.9270
 7579TIP3    H222681   2.554   4.119   6.245  0.2148  0.4426  0.6566
 7580TIP3   OH222682   5.988   3.040   3.188 -0.7780  0.2226 -0.0038
 7580TIP3    H122683   6.026   2.973   3.245 -1.0699 -1.5436 -1.8316
 7580TIP3    H222684   6.055   3.058   3.123 -1.1685  0.8318 -0.2476
 7581TIP3   OH222685   3.668   3.380   5.242 -0.3043  0.1938  0.0395
 7581TIP3    H122686   3.620   3.463   5.237  0.3953  0.6393  0.7009
 7581TIP3    H222687   3.611   3.323   5.293 -0.4437  0.5118  0.2436
 7582TIP3   OH222688   4.505   2.671   3.999  0.2042 -0.3734 -0.4527
 7582TIP3    H122689   4.418   2.685   4.036  0.4506  1.7053 -0.6178
 7582TIP3    H222690   4.506   2.724   3.919  1.1477 -1.4735 -1.1800
 7583TIP3   OH222691   3.083   2.783   6.861 -0.2876 -0.2242  0.1560
 7583TIP3    H122692   3.088   2.766   6.955  0.2706  0.4044  0.2502
 7583TIP3    H222693   2.990   2.792   6.842 -0.3575  0.4488  0.8049
 7584TIP3   OH222694   5.302   5.059   2.739  0.5856  0.0775  0.0693
 7584TIP3    H122695   5.345   5.079   2.656 -1.2920  3.2563 -0.2131
 7584TIP3    H222696   5.209   5.063   2.720  0.1316  0.5115  2.2333
 7585TIP3   OH222697   2.816   2.332   3.214 -0.5488  0.4831 -0.4054
 7585TIP3    H122698   2.838   2.412   3.261 -2.0893  0.4946  0.3201
 7585TIP3    H222699   2.839   2.262   3.275  0.4886  0.3810 -0.9103
 7586TIP3   OH222700   5.746   6.832   4.961  0.5130 -0.4034  0.3722
 7586TIP3    H122701   5.731   6.926   4.960  0.4408 -0.4225 -0.3083
 7586TIP3    H222702   5.807   6.816   4.889 -0.6782 -1.0747 -0.5055
 7587TIP3   OH222703   5.487   5.247   3.867  0.8928 -0.2805 -0.3025
 7587TIP3    H122704   5.508   5.192   3.792  1.2342 -0.1307 -0.3156
 7587TIP3    H222705   5.415   5.201   3.911  1.4479 -0.9489 -0.0868
 7588TIP3   OH222706   5.323   6.409   4.987 -0.3841 -0.6286 -0.6627
 7588TIP3    H122707   5.255   6.342   4.980  0.0853 -1.2846  0.6444
 7588TIP3    H222708   5.335   6.420   5.081  2.1291 -1.4169 -0.8477
 7589TIP3   OH222709   4.223   5.663   5.024 -0.2309 -0.2784 -0.5733
 7589TIP3    H122710   4.249   5.754   5.012  0.1460 -0.5559 -2.0799
 7589TIP3    H222711   4.139   5.655   4.979  0.8376 -1.1891 -2.4816
 7590TIP3   OH222712   3.444   6.041   6.097 -0.6764  0.3166  0.3167
 7590TIP3    H122713   3.353   6.025   6.072 -0.3663  0.1583 -0.7394
 7590TIP3    H222714   3.496   5.995   6.031  0.1717  0.2823  0.9992
 7591TIP3   OH222715   3.706   2.821   3.912 -0.2384 -0.3738 -0.5171
 7591TIP3    H122716   3.767   2.856   3.847 -0.4791 -0.0932 -0.5940
 7591TIP3    H222717   3.646   2.766   3.861  0.5552 -1.4512 -0.2994
 7592TIP3   OH222718   4.976   4.180   6.351 -0.6149  0.1450  0.2400
 7592TIP3    H122719   4.957   4.194   6.258 -0.5669  0.5994  0.3010
 7592TIP3    H222720   4.994   4.267   6.386 -2.2061  0.1629  1.0292
 7593TIP3   OH222721   6.204   4.017   5.114  0.3319  0.0305  0.2086
 7593TIP3    H122722   6.294   4.047   5.116  1.1553 -2.1923 -1.3405
 7593TIP3    H222723   6.202   3.942   5.174 -0.7356  0.7092  1.0373
 7594TIP3   OH222724   6.684   4.252   4.159  0.6917 -0.5245 -0.3051
 7594TIP3    H122725   6.612   4.292   4.110  0.1369 -1.1651 -0.0193
 7594TIP3    H222726   6.740   4.214   4.092  1.7942  1.6358 -0.6532
 7595TIP3   OH222727   3.541   4.516   4.271 -0.0696 -0.2749 -0.3354
 7595TIP3    H122728   3.549   4.423   4.295 -2.2692 -0.0345  1.5778
 7595TIP3    H222729   3.481   4.516   4.197  0.9418 -0.4635 -1.1641
 7596TIP3   OH222730   4.795   3.612   3.910 -0.1120 -0.2783  1.1198
 7596TIP3    H122731   4.871   3.636   3.858 -0.9490 -0.0934 -0.0375
 7596TIP3    H222732   4.821   3.531   3.954  0.4906 -0.6068  0.1734
 7597TIP3   OH222733   7.057   7.185   0.208 -0.3008 -0.5145 -0.8591
 7597TIP3    H122734   6.964   7.165   0.213 -0.3954 -0.3397 -1.8098
 7597TIP3    H222735   7.074   7.197   0.115  0.4943  0.3020 -0.6200
 7598TIP3   OH222736   3.947   4.541   3.439 -0.4672 -0.4374  0.2992
 7598TIP3    H122737   3.861   4.506   3.464 -0.5176 -0.9666 -0.5921
 7598TIP3    H222738   3.999   4.536   3.519 -1.7095  1.2447  1.2225
 7599TIP3   OH222739   4.493   5.022   2.213  0.2853  0.2508 -0.5393
 7599TIP3    H122740   4.464   4.995   2.125  1.2546 -0.1110 -0.7576
 7599TIP3    H222741   4.484   4.943   2.266 -1.1535  0.7011 -0.0817
 7600TIP3   OH222742   5.052   4.806   4.725 -0.4326 -0.1249  0.3830
 7600TIP3    H122743   5.083   4.717   4.734 -1.0315 -0.2205  1.5870
 7600TIP3    H222744   5.114   4.859   4.775 -0.4725  0.0559  0.2444
 7601TIP3   OH222745   4.496   4.936   5.246  0.1967 -0.2384  0.3693
 7601TIP3    H122746   4.453   4.943   5.161  0.5173 -0.7347  0.1648
 7601TIP3    H222747   4.519   4.844   5.254  0.2623 -0.1745  0.9477
 7602TIP3   OH222748   4.827   5.652   2.260 -0.8885  0.4715  0.3116
 7602TIP3    H122749   4.910   5.686   2.228 -1.4765  1.8422  0.1783
 7602TIP3    H222750   4.828   5.559   2.239  0.1564  0.6961 -0.6314
 7603TIP3   OH222751   5.103   4.103   2.847  0.0275 -0.0941  0.1646
 7603TIP3    H122752   5.111   4.080   2.754  0.8681 -0.3138  0.2947
 7603TIP3    H222753   5.049   4.033   2.884  0.5707 -0.5643  0.0628
 7604TIP3   OH222754   5.976   4.982   4.207  0.1636  0.3301 -0.4224
 7604TIP3    H122755   5.942   5.005   4.120 -1.1357  1.3868  0.3543
 7604TIP3    H222756   5.926   4.905   4.233  0.6662 -0.0834 -0.6698
 7605TIP3   OH222757   4.705   5.471   4.371 -0.1729  0.1257  0.0121
 7605TIP3    H122758   4.790   5.428   4.370  0.5866  1.5795  1.6406
 7605TIP3    H222759   4.647   5.407   4.412  0.4888 -0.1834  0.4673
 7606TIP3   OH222760   6.007   5.876   4.393 -0.3974  0.5102 -0.2182
 7606TIP3    H122761   6.025   5.963   4.429  0.9688  0.5649 -1.0084
 7606TIP3    H222762   5.919   5.855   4.424 -1.1248  2.5769 -0.8171
 7607TIP3   OH222763   3.359   3.808   2.660 -0.5090 -0.0348  0.5878
 7607TIP3    H122764   3.415   3.885   2.649 -0.5862  0.2536  2.1843
 7607TIP3    H222765   3.318   3.820   2.745  1.4071 -3.0810  2.0207
 7608TIP3   OH222766   4.594   4.980   2.972  0.1412 -0.0580 -0.0716
 7608TIP3    H122767   4.618   5.053   3.029  0.0680  0.3930 -0.6130
 7608TIP3    H222768   4.638   4.904   3.010 -0.6356  0.0608  1.1064
 7609TIP3   OH222769   5.361   4.361   2.267  0.2754 -0.3209 -0.1381
 7609TIP3    H122770   5.272   4.355   2.300 -0.1584  0.9536 -1.0201
 7609TIP3    H222771   5.353   4.413   2.186  1.8688  0.1797  0.0058
 7610TIP3   OH222772   6.190   6.744   3.339  0.1257 -0.7403  0.2376
 7610TIP3    H122773   6.231   6.827   3.364 -0.1454 -0.7130  0.5850
 7610TIP3    H222774   6.111   6.739   3.393 -0.4681 -0.6701 -0.6108
 7611TIP3   OH222775   3.408   4.172   5.610  0.2102 -0.3689 -0.3162
 7611TIP3    H122776   3.331   4.142   5.563  0.6016  0.6107 -1.6413
 7611TIP3    H222777   3.419   4.111   5.682  0.4553 -2.8153 -2.3664
 7612TIP3   OH222778   5.517   4.013   3.557 -0.6587  0.0235 -0.5222
 7612TIP3    H122779   5.448   4.041   3.496 -0.5598  1.2647 -0.0829
 7612TIP3    H222780   5.581   4.083   3.554 -0.1644 -0.3900  0.2571
 7613TIP3   OH222781   5.042   2.498   2.833 -0.4066  0.8932  0.2125
 7613TIP3    H122782   5.137   2.484   2.831 -0.7554 -1.6753 -0.0234
 7613TIP3    H222783   5.010   2.433   2.896 -2.1772  0.6151 -0.9585
 7614TIP3   OH222784   5.563   4.232   4.779  0.0218 -0.0636 -0.6813
 7614TIP3    H122785   5.631   4.202   4.719  2.0203  0.1517  1.4024
 7614TIP3    H222786   5.610   4.254   4.860 -2.0724  3.3825 -0.2966
 7615TIP3   OH222787   5.805   4.278   5.431  0.2310 -0.2515  0.3943
 7615TIP3    H122788   5.873   4.297   5.495  0.4428 -0.2912  0.1788
 7615TIP3    H222789   5.734   4.339   5.453  0.4952  0.0659  0.3603
 7616TIP3   OH222790   6.631   4.679   4.548 -0.2167  0.0857  0.5578
 7616TIP3    H122791   6.535   4.680   4.555 -0.1404 -0.2905  1.7320
 7616TIP3    H222792   6.648   4.674   4.454 -1.3605 -0.2522  0.3619
 7617TIP3   OH222793   3.756   3.030   3.642  0.0192 -0.3055 -0.2740
 7617TIP3    H122794   3.703   2.995   3.571  0.8222  1.1643 -1.6395
 7617TIP3    H222795   3.721   3.118   3.657 -0.6333 -0.8846  1.6731
 7618TIP3   OH222796   4.014   2.254   4.776 -0.3702 -0.4331  0.6692
 7618TIP3    H122797   3.935   2.279   4.823 -1.1821 -0.5213 -0.6283
 7618TIP3    H222798   4.004   2.293   4.689  0.7201 -0.9744  0.2848
 7619TIP3   OH222799   5.445   5.796   5.085  0.3432 -0.2045  0.6036
 7619TIP3    H122800   5.446   5.876   5.138 -0.3661 -0.9998  1.8544
 7619TIP3    H222801   5.359   5.757   5.102  1.2020 -1.9449  1.0924
 7620TIP3   OH222802   5.325   4.512   0.865 -0.5297  0.1570  0.2436
 7620TIP3    H122803   5.419   4.516   0.850 -0.3871  1.1319  1.3180
 7620TIP3    H222804   5.307   4.586   0.922 -1.6906 -0.9854  1.3883
 7621TIP3   OH222805   2.936   4.720   5.831  0.5857  0.0371 -0.1689
 7621TIP3    H122806   2.907   4.760   5.749  0.5554 -0.5533 -0.4519
 7621TIP3    H222807   2.882   4.641   5.840  0.0941  0.4639  0.7775
 7622TIP3   OH222808   4.548   6.865   4.843 -0.3085 -0.6000 -0.0128
 7622TIP3    H122809   4.570   6.958   4.841  0.4404 -0.7772 -0.2859
 7622TIP3    H222810   4.469   6.859   4.897 -0.8650  0.2970 -0.7367
 7623TIP3   OH222811   2.935   3.398   3.308  0.2694 -0.8367  0.3648
 7623TIP3    H122812   2.993   3.466   3.273  0.7478 -0.6367  1.5187
 7623TIP3    H222813   2.933   3.415   3.403  0.1102 -2.2145  0.6137
 7624TIP3   OH222814   0.487   1.492   0.017  0.4192  0.2910 -0.0616
 7624TIP3    H122815   0.579   1.502   0.043  0.5758 -0.8648 -0.1580
 7624TIP3    H222816   0.467   1.400   0.035 -1.4392  1.1216  2.1958
 7625TIP3   OH222817   3.294   5.089   5.265 -0.0458  0.3848  0.1285
 7625TIP3    H122818   3.366   5.091   5.329 -0.6916 -0.3981  0.8940
 7625TIP3    H222819   3.218   5.123   5.313 -0.7856 -1.2092  0.1159
 7626TIP3   OH222820   1.512   2.896   1.335 -0.4013  0.8705  0.1682
 7626TIP3    H122821   1.476   2.841   1.405 -3.0858  0.7830 -1.2132
 7626TIP3    H222822   1.606   2.880   1.338 -0.4914  0.5279  3.4556
 7627TIP3   OH222823   5.635   5.426   4.903 -0.3382  0.2119  0.8031
 7627TIP3    H122824   5.617   5.516   4.874  0.3268 -0.0199 -0.3660
 7627TIP3    H222825   5.725   5.430   4.937 -0.5210  0.1232  1.2889
 7628TIP3   OH222826   4.150   4.235   6.317  0.1450 -0.6200 -0.4571
 7628TIP3    H122827   4.230   4.219   6.366  0.0490  0.4107  0.0537
 7628TIP3    H222828   4.097   4.290   6.375 -1.3307 -2.0551 -0.3903
 7629TIP3   OH222829   4.110   6.405   5.185 -1.3051  0.0093  0.6472
 7629TIP3    H122830   4.147   6.442   5.105 -0.3438 -0.8077  0.7070
 7629TIP3    H222831   4.080   6.318   5.159 -0.5516 -0.4450  1.2845
 7630TIP3   OH222832   4.142   6.024   5.635  0.2298 -0.3204 -0.4244
 7630TIP3    H122833   4.234   6.052   5.634  0.1228  0.0259 -2.0430
 7630TIP3    H222834   4.135   5.969   5.712  1.6363  0.2214  0.1153
 7631TIP3   OH222835   5.214   6.214   3.965 -0.2228 -0.0259 -0.1975
 7631TIP3    H122836   5.296   6.237   4.009  0.6342 -1.7112 -0.8743
 7631TIP3    H222837   5.235   6.217   3.872 -0.8792 -0.6411 -0.3731
 7632TIP3   OH222838   3.859   5.826   5.722 -0.2205 -0.6134  0.2684
 7632TIP3    H122839   3.951   5.818   5.748 -0.0509 -1.7632 -0.6399
 7632TIP3    H222840   3.839   5.919   5.733  0.9216 -0.4350  0.8891
 7633TIP3   OH222841   5.146   7.456   4.513 -0.1577  0.4465 -0.4530
 7633TIP3    H122842   5.138   7.451   4.608  0.5386  0.2232 -0.4072
 7633TIP3    H222843   5.131   7.549   4.493 -0.4487  0.4692 -0.1462
 7634TIP3   OH222844   3.057   3.477   5.197  0.2577 -0.2059 -0.2326
 7634TIP3    H122845   3.052   3.503   5.105  0.8011  0.6596 -0.0216
 7634TIP3    H222846   3.068   3.382   5.194 -1.0881 -0.3609 -1.0241
 7635TIP3   OH222847   1.886   2.090   0.295 -0.0394  0.0358 -0.1210
 7635TIP3    H122848   1.799   2.086   0.334  0.5316  0.5145  1.2155
 7635TIP3    H222849   1.881   2.030   0.220 -1.2226 -0.6928  0.5168
 7636TIP3   OH222850   4.320   5.353   3.197  0.1050  0.1064  0.3165
 7636TIP3    H122851   4.311   5.382   3.288 -0.2451 -0.7637  0.5665
 7636TIP3    H222852   4.286   5.264   3.197 -0.8932  0.4772 -0.8998
 7637TIP3   OH222853   1.574   3.316   6.739 -0.4019  0.1900 -0.3870
 7637TIP3    H122854   1.481   3.321   6.714 -0.5012 -2.1196 -0.6372
 7637TIP3    H222855   1.609   3.244   6.686  1.1387 -0.0305  0.8810
 7638TIP3   OH222856   4.285   2.544   3.757  0.0686  0.0761 -0.3742
 7638TIP3    H122857   4.350   2.614   3.753 -0.3982  0.5455  0.2089
 7638TIP3    H222858   4.203   2.588   3.780 -0.2187 -0.6626  0.0407
 7639TIP3   OH222859   4.761   3.214   3.926 -0.2793 -0.2441  0.8751
 7639TIP3    H122860   4.772   3.121   3.905  0.5896 -0.2279  1.1999
 7639TIP3    H222861   4.669   3.232   3.909  0.0394 -0.6133 -1.3626
 7640TIP3   OH222862   3.659   2.416   2.837 -0.2002  0.0477 -0.1046
 7640TIP3    H122863   3.737   2.465   2.810  0.3475 -0.3590  0.6966
 7640TIP3    H222864   3.621   2.384   2.755  1.3263 -1.0257 -0.4335
 7641TIP3   OH222865   2.500   3.117   3.312 -0.2679 -0.2035  0.6113
 7641TIP3    H122866   2.420   3.070   3.289 -0.4721  0.7209 -0.6059
 7641TIP3    H222867   2.524   3.165   3.232  0.8979  0.3709  1.2916
 7642TIP3   OH222868   5.026   2.534   2.558 -0.8773  0.1779  0.4095
 7642TIP3    H122869   4.932   2.551   2.556 -1.0333 -0.7400 -1.0371
 7642TIP3    H222870   5.054   2.561   2.646 -2.6023 -0.1528  1.0755
 7643TIP3   OH222871   6.126   4.122   4.087 -0.4347 -0.5976 -0.4129
 7643TIP3    H122872   6.066   4.057   4.124 -1.2356 -0.2892 -1.1399
 7643TIP3    H222873   6.070   4.195   4.062  0.7328  1.3631  2.4602
 7644TIP3   OH222874   4.678   4.077   5.654 -0.0427 -0.4913 -0.6801
 7644TIP3    H122875   4.647   4.134   5.584  0.0464 -0.8152 -0.9842
 7644TIP3    H222876   4.713   4.001   5.609  0.2148 -0.6044 -0.2913
 7645TIP3   OH222877   6.850   6.155   4.696  0.1735  0.4337  0.0712
 7645TIP3    H122878   6.914   6.089   4.668  0.6062  0.6638  0.5079
 7645TIP3    H222879   6.889   6.195   4.773 -0.9886 -0.1589  0.9842
 7646TIP3   OH222880   4.411   3.882   2.593  1.0111 -0.4713  0.8115
 7646TIP3    H122881   4.356   3.855   2.666 -1.0423  0.6247 -0.2841
 7646TIP3    H222882   4.450   3.965   2.621  1.9926 -1.1689  1.5261
 7647TIP3   OH222883   4.528   1.396   3.272  0.0018 -0.3549  0.1259
 7647TIP3    H122884   4.551   1.474   3.222 -0.4451 -0.1837  0.1784
 7647TIP3    H222885   4.609   1.347   3.280  0.2463  0.0193 -0.0637
 7648TIP3   OH222886   4.188   3.832   1.895 -0.0239 -0.5641  0.3899
 7648TIP3    H122887   4.253   3.775   1.854  0.3545 -1.0139  1.6262
 7648TIP3    H222888   4.105   3.785   1.884 -0.0783 -0.2289 -0.7215
 7649TIP3   OH222889   6.117   1.618   2.401  0.2467  0.3347 -0.4195
 7649TIP3    H122890   6.166   1.583   2.326  0.4192  0.8899 -0.5698
 7649TIP3    H222891   6.074   1.541   2.439 -0.7770  0.2047 -1.7796
 7650TIP3   OH222892   2.564   2.669   4.718  0.0877  0.5255  0.5535
 7650TIP3    H122893   2.594   2.671   4.628 -1.8747 -0.0362 -0.1406
 7650TIP3    H222894   2.639   2.636   4.768  0.6719 -0.7257 -1.0942
 7651TIP3   OH222895   3.984   2.867   6.502  0.0817 -0.2190 -0.2842
 7651TIP3    H122896   3.993   2.960   6.519 -1.2945 -0.4698  2.0389
 7651TIP3    H222897   3.897   2.844   6.534  1.2444 -2.7182  1.3004
 7652TIP3   OH222898   4.567   4.934   4.112  0.2892  0.1351  0.4160
 7652TIP3    H122899   4.499   4.886   4.065 -0.0155  0.9898 -0.0322
 7652TIP3    H222900   4.552   4.912   4.204 -1.2003  1.0593  0.4153
 7653TIP3   OH222901   3.808   5.128   4.051 -0.0459  0.8981  0.0857
 7653TIP3    H122902   3.825   5.207   4.102 -0.4527  0.5381  0.7963
 7653TIP3    H222903   3.807   5.058   4.116  0.6789  0.2566 -0.5854
 7654TIP3   OH222904   4.247   6.872   6.049  0.1392 -0.6725  0.1441
 7654TIP3    H122905   4.339   6.890   6.028  0.4815 -1.1747  1.1680
 7654TIP3    H222906   4.199   6.895   5.970  1.0996  0.0596 -0.2332
 7655TIP3   OH222907   6.640   4.581   1.428 -0.7575  0.1630  0.4752
 7655TIP3    H122908   6.620   4.660   1.478 -0.0268  0.9514 -0.4809
 7655TIP3    H222909   6.554   4.550   1.398 -0.8345  2.0914 -1.4055
 7656TIP3   OH222910   5.912   4.172   3.674 -0.3300 -0.0002  0.0015
 7656TIP3    H122911   5.948   4.261   3.681  1.9975 -0.9690  0.7920
 7656TIP3    H222912   5.825   4.185   3.637 -0.8157  2.7648  1.9591
 7657TIP3   OH222913   5.793   5.260   3.617  0.0287  0.0165  0.5869
 7657TIP3    H122914   5.863   5.316   3.650 -0.2148  2.3193 -2.5424
 7657TIP3    H222915   5.721   5.320   3.598 -1.9565 -1.9968  1.5160
 7658TIP3   OH222916   7.963   3.139   2.911 -0.1004  0.8184  0.0252
 7658TIP3    H122917   7.888   3.083   2.928 -0.9003  1.7471 -0.4075
 7658TIP3    H222918   7.948   3.175   2.824  1.7153 -0.3334 -0.7747
 7659TIP3   OH222919   5.369   3.597   4.533 -0.4195 -0.6084  0.2711
 7659TIP3    H122920   5.407   3.572   4.448  2.5742  1.5122  0.9049
 7659TIP3    H222921   5.291   3.647   4.510 -0.5834 -1.4951 -1.1911
 7660TIP3   OH222922   4.606   3.249   4.975 -0.1283 -0.0009  0.1501
 7660TIP3    H122923   4.664   3.298   5.034  1.7845  1.3411 -2.7505
 7660TIP3    H222924   4.655   3.169   4.954  1.4826  1.8362 -3.5201
 7661TIP3   OH222925   0.527   4.790   6.944  0.2132 -0.5018 -0.1071
 7661TIP3    H122926   0.484   4.799   6.859 -0.4582 -0.2923  0.2485
 7661TIP3    H222927   0.455   4.788   7.007  0.7480  0.6082  0.5660
 7662TIP3   OH222928   5.963   3.317   3.192 -0.1080  0.0390  0.9067
 7662TIP3    H122929   5.984   3.224   3.192 -1.2569 -0.2366  1.9478
 7662TIP3    H222930   5.894   3.327   3.126 -0.0737  0.1367  0.8843
 7663TIP3   OH222931   7.047   4.748   3.110 -0.2022  0.2973 -0.1490
 7663TIP3    H122932   7.047   4.790   3.196  0.1458 -0.3480  0.1708
 7663TIP3    H222933   6.970   4.783   3.066 -0.2954  0.7471  0.3729
 7664TIP3   OH222934   3.424   6.548   5.569 -0.0681  0.2987  0.7205
 7664TIP3    H122935   3.504   6.503   5.598 -1.3987 -0.8732  2.7084
 7664TIP3    H222936   3.449   6.640   5.562  1.4420 -0.0392  1.4299
 7665TIP3   OH222937   0.213   3.269   3.929 -0.6002  0.2742  0.0629
 7665TIP3    H122938   0.281   3.304   3.872 -1.9294 -0.9450 -2.3409
 7665TIP3    H222939   0.259   3.248   4.011  0.7595  4.8741  0.6219
 7666TIP3   OH222940   6.151   3.372   3.847 -0.5035 -0.6089  0.0590
 7666TIP3    H122941   6.238   3.411   3.858 -0.0543 -1.5487 -0.0988
 7666TIP3    H222942   6.097   3.414   3.914 -0.5204  1.7076 -1.3891
 7667TIP3   OH222943   6.170   4.824   1.810  0.9021 -0.2886 -0.2834
 7667TIP3    H122944   6.171   4.737   1.850 -1.4946  0.0627  0.6326
 7667TIP3    H222945   6.156   4.884   1.884  0.3742  0.6968 -1.1734
 7668TIP3   OH222946   5.088   4.817   0.652 -0.3948 -0.3085  0.5239
 7668TIP3    H122947   5.130   4.748   0.601 -1.4513 -1.5818  1.3425
 7668TIP3    H222948   4.995   4.809   0.631 -0.9838 -1.5454  3.4135
 7669TIP3   OH222949   6.147   5.425   5.697 -0.1816  0.2234 -0.3568
 7669TIP3    H122950   6.227   5.478   5.694 -0.4142  0.4875 -2.2107
 7669TIP3    H222951   6.100   5.458   5.774  2.3451 -1.2265  1.9062
 7670TIP3   OH222952   6.185   3.107   4.714  0.7319  0.3354 -0.2509
 7670TIP3    H122953   6.181   3.140   4.804 -0.0854 -1.7918  0.5272
 7670TIP3    H222954   6.111   3.046   4.708  2.0370 -1.1399 -1.7116
 7671TIP3   OH222955   6.704   2.874   4.557  0.0485 -0.3468 -0.0826
 7671TIP3    H122956   6.781   2.879   4.501 -0.8235 -2.6590 -1.5647
 7671TIP3    H222957   6.645   2.940   4.523 -0.0528 -1.0302 -1.2675
 7672TIP3   OH222958   4.628   5.752   2.842 -0.3370 -0.5314 -0.1558
 7672TIP3    H122959   4.571   5.722   2.772  1.2529 -1.2810 -1.1297
 7672TIP3    H222960   4.674   5.828   2.805  0.9598 -1.3051 -0.1502
 7673TIP3   OH222961   6.999   5.688   3.113  0.6603 -0.2232  0.0704
 7673TIP3    H122962   7.081   5.639   3.123 -1.0660 -3.2687 -0.1491
 7673TIP3    H222963   6.948   5.664   3.191  0.0319  1.8120  0.3041
 7674TIP3   OH222964   7.595   6.353   4.343  0.2030  0.2947  0.3272
 7674TIP3    H122965   7.513   6.333   4.388  0.4684  0.8019  1.0530
 7674TIP3    H222966   7.567   6.387   4.257 -0.3790  1.1584  0.8431
 7675TIP3   OH222967   5.871   2.743   2.934  0.4956  0.0836  0.5927
 7675TIP3    H122968   5.794   2.780   2.891 -0.5435 -2.0275  0.5703
 7675TIP3    H222969   5.844   2.733   3.025  0.3394 -1.6689  0.3666
 7676TIP3   OH222970   5.500   4.809   0.463 -0.1418 -0.8930 -0.0887
 7676TIP3    H122971   5.482   4.778   0.552 -0.6420 -2.6652 -0.7746
 7676TIP3    H222972   5.415   4.807   0.420  0.3772 -1.7135 -1.0951
 7677TIP3   OH222973   8.485   6.228   2.976  0.3885 -0.2008  0.0262
 7677TIP3    H122974   8.451   6.216   2.888  0.7498 -0.0546 -0.1310
 7677TIP3    H222975   8.411   6.207   3.033 -0.0278  0.3156 -0.3203
 7678TIP3   OH222976   5.940   4.493   1.158  0.2102  0.7650 -0.4518
 7678TIP3    H122977   6.001   4.512   1.088 -0.9290  1.0892 -1.3721
 7678TIP3    H222978   5.855   4.487   1.115 -0.5232  1.1054  0.9090
 7679TIP3   OH222979   5.510   4.535   3.551  0.0664  0.4923 -0.1081
 7679TIP3    H122980   5.503   4.521   3.645  2.8692  0.8478  0.1983
 7679TIP3    H222981   5.553   4.620   3.543 -0.7857  0.7867 -1.7227
 7680TIP3   OH222982   6.135   4.253   2.362  0.5701  0.1123 -0.2280
 7680TIP3    H122983   6.159   4.341   2.332  0.8915 -0.3275 -1.2957
 7680TIP3    H222984   6.041   4.258   2.379 -0.0581 -0.1541 -3.3312
 7681TIP3   OH222985   5.721   5.351   6.408  0.0650  0.0038  0.2030
 7681TIP3    H122986   5.782   5.278   6.405 -0.1298 -0.2447  1.7976
 7681TIP3    H222987   5.643   5.316   6.453 -0.4840  0.8521 -0.0681
 7682TIP3   OH222988   6.251   4.277   4.864 -0.3484  0.6627 -0.0735
 7682TIP3    H122989   6.188   4.206   4.874  1.7019 -0.9617  1.5356
 7682TIP3    H222990   6.271   4.305   4.953  1.4216  0.9773 -0.5526
 7683TIP3   OH222991   4.666   5.413   5.259 -0.4285 -0.4643  0.1982
 7683TIP3    H122992   4.652   5.380   5.348 -0.6842 -0.9552 -0.0236
 7683TIP3    H222993   4.682   5.507   5.271 -1.4466 -0.3353  0.6876
 7684TIP3   OH222994   4.543   4.873   4.357  0.0350 -0.3248 -0.0907
 7684TIP3    H122995   4.504   4.836   4.435  0.8580 -1.5016 -0.2252
 7684TIP3    H222996   4.622   4.918   4.389  0.8823 -1.5999 -0.3357
 7685TIP3   OH222997   5.409   5.069   5.733  0.3901 -0.0769  0.4323
 7685TIP3    H122998   5.371   5.057   5.820 -0.1880 -1.1973  0.0368
 7685TIP3    H222999   5.380   5.155   5.705  0.0770  0.0355  1.0990
 7686TIP3   OH223000   4.969   5.853   5.189 -0.2023  0.0053 -0.2975
 7686TIP3    H123001   4.889   5.899   5.167  0.1907  0.5532 -0.5892
 7686TIP3    H223002   5.017   5.846   5.107  0.6850  0.9334  0.1303
 7687TIP3   OH223003   3.667   5.079   2.000 -0.1970  0.0872 -0.1938
 7687TIP3    H123004   3.703   5.078   2.088  0.4253 -0.2891 -0.4535
 7687TIP3    H223005   3.588   5.133   2.008 -0.3838 -0.3035  0.6820
 7688TIP3   OH223006   5.693   3.450   1.090  0.0379  0.0728 -0.5190
 7688TIP3    H123007   5.723   3.424   1.178  0.8432  0.3225 -0.7142
 7688TIP3    H223008   5.678   3.544   1.097 -1.0321 -0.1070 -0.3337
 7689TIP3   OH223009   6.348   6.994   4.204  0.4368  0.2078  0.2753
 7689TIP3    H123010   6.394   7.045   4.270  0.2989  2.1879 -1.1203
 7689TIP3    H223011   6.412   6.930   4.172  0.1683 -1.5465  3.0854
 7690TIP3   OH223012   5.085   3.166   2.549  0.0704 -0.1634  0.3895
 7690TIP3    H123013   5.091   3.246   2.498  0.9421 -0.8236 -0.5827
 7690TIP3    H223014   5.053   3.194   2.634  0.9132  1.2945  0.2481
 7691TIP3   OH223015   0.355   0.262   3.060 -0.0477  0.2304 -0.3446
 7691TIP3    H123016   0.320   0.318   3.131 -0.6090 -0.4761 -0.0576
 7691TIP3    H223017   0.387   0.324   2.995  0.2126  0.8931  0.4036
 7692TIP3   OH223018   5.237   7.026   5.554  0.0347 -0.3858 -0.5911
 7692TIP3    H123019   5.309   7.007   5.495 -0.2227 -2.3545 -0.2858
 7692TIP3    H223020   5.159   7.020   5.500 -0.2755 -3.0480  0.0798
 7693TIP3   OH223021   5.376   5.860   3.546  0.3202 -0.1491 -0.1551
 7693TIP3    H123022   5.421   5.894   3.468  0.7318 -2.6355 -1.0450
 7693TIP3    H223023   5.437   5.795   3.582 -0.4610  0.0068  1.4936
 7694TIP3   OH223024   5.918   5.092   3.387  0.0021 -0.6606 -0.1195
 7694TIP3    H123025   5.934   5.039   3.308  0.6702  1.8897 -1.7532
 7694TIP3    H223026   5.918   5.182   3.356 -4.8862  0.2147  1.9532
 7695TIP3   OH223027   7.217   5.330   3.908  0.1026 -0.5881  0.0548
 7695TIP3    H123028   7.211   5.385   3.987 -1.6088 -1.1093  0.3263
 7695TIP3    H223029   7.309   5.304   3.903  0.2873 -0.3046  1.7275
 7696TIP3   OH223030   5.247   5.687   4.008 -0.2086  0.4499 -0.1241
 7696TIP3    H123031   5.259   5.670   4.101 -1.3235  0.8054  0.0855
 7696TIP3    H223032   5.153   5.697   3.997 -0.0471  0.8317 -1.2224
 7697TIP3   OH223033   5.469   3.665   4.771  0.6748  0.1998 -0.1947
 7697TIP3    H123034   5.440   3.632   4.686 -0.3485  0.0579  0.2034
 7697TIP3    H223035   5.495   3.587   4.819  1.4125  0.2944 -0.4189
 7698TIP3   OH223036   5.164   4.682   5.243 -0.0193  0.1244  0.1483
 7698TIP3    H123037   5.069   4.678   5.232  0.0426  0.1216 -0.4194
 7698TIP3    H223038   5.199   4.659   5.157  0.4585  2.4440 -0.3182
 7699TIP3   OH223039   5.380   5.626   4.615  0.5097  0.2206 -0.4036
 7699TIP3    H123040   5.455   5.589   4.568  1.4108 -0.5778  1.6132
 7699TIP3    H223041   5.404   5.620   4.707 -1.8406  0.4288  0.2508
 7700TIP3   OH223042   5.186   2.718   2.083  0.3819 -0.0200 -0.2375
 7700TIP3    H123043   5.263   2.687   2.036  1.0709  2.7848 -1.0254
 7700TIP3    H223044   5.112   2.694   2.027  0.7755 -1.3863 -0.1856
 7701TIP3   OH223045   5.867   5.773   4.807 -0.6387 -0.0279  0.0817
 7701TIP3    H123046   5.945   5.828   4.803  0.8115 -2.1090 -0.9966
 7701TIP3    H223047   5.862   5.732   4.721 -2.5042 -0.5077  0.3894
 7702TIP3   OH223048   6.700   4.569   3.860  0.1098 -0.0024 -0.0019
 7702TIP3    H123049   6.752   4.582   3.940  0.8478 -2.0505 -0.1222
 7702TIP3    H223050   6.614   4.541   3.892 -0.2378  1.1628  0.1197
 7703TIP3   OH223051   6.842   5.431   3.667 -0.0347 -0.5520 -0.4712
 7703TIP3    H123052   6.761   5.481   3.677  0.4918  0.3948 -0.9404
 7703TIP3    H223053   6.820   5.363   3.603 -1.2454 -2.0115  1.4284
 7704TIP3   OH223054   4.004   3.699   5.562 -0.0800 -0.6737  0.2109
 7704TIP3    H123055   3.918   3.692   5.602 -0.7801 -2.0680 -1.4888
 7704TIP3    H223056   4.050   3.620   5.590  0.4683 -0.2005  0.6636
 7705TIP3   OH223057   5.864   2.703   4.086 -0.3323  0.2456  0.7765
 7705TIP3    H123058   5.835   2.784   4.128  1.0115  0.8334  0.5922
 7705TIP3    H223059   5.910   2.732   4.007  1.6091 -0.5943  1.5663
 7706TIP3   OH223060   6.631   3.773   3.928 -0.2346 -0.4117  0.1982
 7706TIP3    H123061   6.581   3.855   3.927 -0.2487 -0.4183  0.3493
 7706TIP3    H223062   6.598   3.726   4.004 -0.7491 -0.8889 -0.3205
 7707TIP3   OH223063   6.331   3.030   2.572  0.1887  0.3174  0.3286
 7707TIP3    H123064   6.238   3.024   2.554  0.3765 -0.9713 -0.2546
 7707TIP3    H223065   6.338   3.096   2.641 -1.1554  0.3143  0.4788
 7708TIP3   OH223066   6.985   4.212   3.531 -0.1836  0.1225 -0.6180
 7708TIP3    H123067   6.906   4.266   3.524 -0.2950 -0.0918 -1.0595
 7708TIP3    H223068   6.954   4.122   3.521  0.0693  0.0136 -0.4180
 7709TIP3   OH223069   5.824   4.205   2.314  0.6521 -0.9296 -0.2706
 7709TIP3    H123070   5.821   4.121   2.360  1.2648  0.0869  1.6954
 7709TIP3    H223071   5.734   4.237   2.320  0.8134 -0.6221  0.5805
 7710TIP3   OH223072   4.389   3.632   3.233 -0.3689  0.1535 -0.5799
 7710TIP3    H123073   4.469   3.586   3.259 -0.3177  0.6476  0.1664
 7710TIP3    H223074   4.412   3.725   3.241 -0.7622  0.3014 -1.1623
 7711TIP3   OH223075   4.855   1.413   3.525 -0.3812  0.2712  0.4078
 7711TIP3    H123076   4.925   1.473   3.499 -0.0215 -0.5895 -0.6512
 7711TIP3    H223077   4.776   1.467   3.527  0.2829  1.2304  1.5039
 7712TIP3   OH223078   5.409   4.056   0.525  0.2804 -0.5265  0.5287
 7712TIP3    H123079   5.494   4.092   0.499  0.5324 -0.4486  1.4390
 7712TIP3    H223080   5.353   4.071   0.450  1.1495 -0.8168 -0.1828
 7713TIP3   OH223081   6.171   6.281   4.400 -0.0563 -0.3981  0.3215
 7713TIP3    H123082   6.104   6.347   4.417  0.5444  0.0308  1.0790
 7713TIP3    H223083   6.180   6.280   4.305 -1.9235 -1.2593  0.1292
 7714TIP3   OH223084   7.922   5.951   2.853  0.1858 -0.3791 -0.0948
 7714TIP3    H123085   7.912   5.916   2.765 -0.7319  0.9627 -0.5325
 7714TIP3    H223086   7.835   5.981   2.878  0.5459 -0.2486  1.0673
 7715TIP3   OH223087   4.816   3.669   3.578  0.3267 -0.0810 -0.1916
 7715TIP3    H123088   4.903   3.688   3.613 -0.4379  1.9309  0.6744
 7715TIP3    H223089   4.796   3.581   3.610  1.0830  0.3574  1.5318
 7716TIP3   OH223090   5.501   3.743   4.126 -0.7533  0.3475 -0.0157
 7716TIP3    H123091   5.592   3.772   4.133 -0.2666 -1.4005  1.2368
 7716TIP3    H223092   5.455   3.817   4.088  1.1573  1.3377 -0.4565
 7717TIP3   OH223093   4.881   4.121   3.319 -0.5645  0.0173 -0.5723
 7717TIP3    H123094   4.865   4.039   3.271 -0.3327 -0.0557 -0.5262
 7717TIP3    H223095   4.932   4.175   3.258  0.1339 -0.2545 -0.2414
 7718TIP3   OH223096   4.518   5.275   3.601 -0.1203  0.5928  0.5351
 7718TIP3    H123097   4.545   5.185   3.619 -1.9567 -0.1305 -0.1467
 7718TIP3    H223098   4.536   5.323   3.682  1.4541 -0.2406  0.6938
 7719TIP3   OH223099   6.106   3.578   2.465 -0.5430  0.2456 -0.7246
 7719TIP3    H123100   6.033   3.612   2.517 -1.3136  0.7780 -2.1329
 7719TIP3    H223101   6.183   3.591   2.521 -1.3609  0.7675  0.3006
 7720TIP3   OH223102   5.006   5.395   3.945 -0.6351  0.1160  0.3516
 7720TIP3    H123103   5.097   5.407   3.917 -0.2764 -1.1391  0.9126
 7720TIP3    H223104   4.992   5.461   4.012  0.1797 -0.3160  0.9567
 7721TIP3   OH223105   8.084   1.780   3.152 -0.3929  0.0365 -0.0933
 7721TIP3    H123106   8.008   1.721   3.149 -1.5054  1.3555  1.3545
 7721TIP3    H223107   8.151   1.730   3.198 -0.5064 -0.9786 -0.9990
 7722TIP3   OH223108   7.025   6.072   1.858 -0.1264 -0.6837  0.6857
 7722TIP3    H123109   6.940   6.115   1.871  1.1739  1.7386  1.6093
 7722TIP3    H223110   7.038   6.072   1.764 -0.2329  0.8603  0.6593
 7723TIP3   OH223111   4.535   4.417   3.858 -0.2358 -0.0411 -0.2406
 7723TIP3    H123112   4.599   4.448   3.794 -1.7519 -0.6932 -2.0882
 7723TIP3    H223113   4.555   4.467   3.937 -0.9153  3.7112 -2.3548
 7724TIP3   OH223114   4.653   4.689   5.198  0.0290 -0.3565 -0.0216
 7724TIP3    H123115   4.743   4.687   5.232 -0.3370  0.1982  1.0138
 7724TIP3    H223116   4.660   4.654   5.110  1.5023  0.9915 -0.4714
 7725TIP3   OH223117   6.347   4.098   4.537 -0.0539 -0.2625  0.3079
 7725TIP3    H123118   6.384   4.145   4.462 -1.9834 -0.9482 -1.0937
 7725TIP3    H223119   6.252   4.107   4.527 -0.3384 -0.4446  2.6178
 7726TIP3   OH223120   6.614   3.726   4.206 -0.0202  0.0881  0.3804
 7726TIP3    H123121   6.538   3.682   4.242  0.3028 -0.5609  0.2824
 7726TIP3    H223122   6.648   3.779   4.278  0.2717 -0.7342  0.8573
 7727TIP3   OH223123   5.244   5.267   4.270  0.2379 -0.2912 -0.0684
 7727TIP3    H123124   5.171   5.329   4.274 -1.1277 -1.8818  0.2106
 7727TIP3    H223125   5.212   5.196   4.214  1.5704 -1.0131  0.0633
 7728TIP3   OH223126   6.818   4.712   2.943  0.0650 -0.0096  0.0548
 7728TIP3    H123127   6.808   4.764   2.864 -2.6531  0.4236  0.6342
 7728TIP3    H223128   6.732   4.674   2.958  0.9327 -1.3125  1.9579
 7729TIP3   OH223129   5.623   4.671   4.527 -0.5157 -0.9036  0.1463
 7729TIP3    H123130   5.642   4.623   4.607 -0.5159 -2.0799 -0.5501
 7729TIP3    H223131   5.562   4.740   4.555 -0.4819 -1.2714  1.1594
 7730TIP3   OH223132   5.035   3.474   2.593 -0.0164  0.0446  0.1909
 7730TIP3    H123133   5.068   3.474   2.503  1.0517 -0.1691  0.5756
 7730TIP3    H223134   5.107   3.437   2.645 -0.5277  0.4135  1.1694
 7731TIP3   OH223135   6.410   4.499   2.851  0.1711  0.4689  0.5350
 7731TIP3    H123136   6.414   4.593   2.870 -0.4449  0.8961 -1.2968
 7731TIP3    H223137   6.328   4.488   2.803 -0.3552 -1.2177  1.7740
 7732TIP3   OH223138   5.592   5.687   4.850 -0.7233  0.0899  0.6684
 7732TIP3    H123139   5.679   5.725   4.849 -0.4379 -0.5395 -0.4482
 7732TIP3    H223140   5.549   5.725   4.926  0.0601  1.4510  0.4456
 7733TIP3   OH223141   7.434   4.630   2.541  0.5492 -0.1666  0.2126
 7733TIP3    H123142   7.356   4.625   2.597 -0.1794 -1.8852 -0.9202
 7733TIP3    H223143   7.420   4.707   2.487 -1.2516 -1.4903 -1.2491
 7734TIP3   OH223144   5.845   6.034   0.835 -0.0417 -0.1452 -0.2376
 7734TIP3    H123145   5.821   5.957   0.887  0.3376 -0.4521 -0.5050
 7734TIP3    H223146   5.825   6.109   0.890 -0.5641 -0.4341 -0.0333
 7735TIP3   OH223147   4.891   5.926   6.649  0.5448  0.1692 -0.1860
 7735TIP3    H123148   4.857   5.993   6.708 -1.2244 -0.8993  0.0640
 7735TIP3    H223149   4.881   5.844   6.698 -0.8040 -0.7135 -1.8805
 7736TIP3   OH223150   5.170   3.953   2.306 -0.0604 -0.5408  0.5992
 7736TIP3    H123151   5.231   3.981   2.374  0.6528  0.9809 -0.6183
 7736TIP3    H223152   5.227   3.914   2.239 -0.2710  1.7295 -0.9687
 7737TIP3   OH223153   4.371   3.850   4.703 -0.4996  0.5151 -0.0952
 7737TIP3    H123154   4.367   3.845   4.608  0.7658  3.0048 -0.3180
 7737TIP3    H223155   4.280   3.846   4.732 -0.9773  1.2752 -1.5000
 7738TIP3   OH223156   5.909   2.478   2.786 -0.2103 -0.4634 -0.0806
 7738TIP3    H123157   5.925   2.562   2.829 -1.3715  0.4760 -1.4312
 7738TIP3    H223158   5.969   2.477   2.712  0.3606 -1.1978  0.3747
 7739TIP3   OH223159   5.212   4.550   3.378  0.1220  0.0233  0.0194
 7739TIP3    H123160   5.219   4.478   3.442 -0.4514  0.4994  0.6242
 7739TIP3    H223161   5.118   4.562   3.366  0.1703  1.6740  1.0722
 7740TIP3   OH223162   5.685   2.932   0.883 -0.3655 -0.1854 -0.4604
 7740TIP3    H123163   5.773   2.907   0.911  0.4504  1.3354 -1.5814
 7740TIP3    H223164   5.661   3.003   0.942 -0.9933 -0.8528  0.0854
 7741TIP3   OH223165   5.357   5.741   2.494 -0.1152 -0.2138 -0.2827
 7741TIP3    H123166   5.280   5.795   2.510  0.5575  0.3563  1.0633
 7741TIP3    H223167   5.383   5.763   2.404 -0.8663  0.4106 -0.3497
 7742TIP3   OH223168   5.838   4.963   1.006 -0.1014  0.4252  0.3631
 7742TIP3    H123169   5.772   4.940   0.940 -0.8436  1.9815  0.5481
 7742TIP3    H223170   5.812   5.050   1.037  2.0729  1.0948  0.3942
 7743TIP3   OH223171   0.025   0.369   4.659 -0.1807  0.0196  0.0863
 7743TIP3    H123172  -0.015   0.308   4.597  0.2630 -0.1878  0.0061
 7743TIP3    H223173   0.115   0.380   4.629 -0.4498  1.2646 -0.3200
 7744TIP3   OH223174   6.843   5.759   3.947  0.1713 -0.0083 -0.6268
 7744TIP3    H123175   6.828   5.666   3.960  0.6314 -0.2129 -1.5400
 7744TIP3    H223176   6.775   5.786   3.885 -1.0058  0.6263  0.8979
 7745TIP3   OH223177   5.531   5.527   3.886 -0.8497 -0.3561  0.7688
 7745TIP3    H123178   5.533   5.431   3.883  0.6003 -0.3768  1.7974
 7745TIP3    H223179   5.595   5.550   3.953 -1.9741  1.3043  1.3091
 7746TIP3   OH223180   7.629   5.139   4.740 -0.5021 -0.2965  0.7541
 7746TIP3    H123181   7.697   5.110   4.679 -1.3568 -1.6091  0.4007
 7746TIP3    H223182   7.661   5.222   4.773  1.3215 -0.9235  0.6512
 7747TIP3   OH223183   6.808   4.095   3.974 -0.5659 -0.3802  0.3133
 7747TIP3    H123184   6.817   4.026   3.908 -0.4028 -1.0865  1.0752
 7747TIP3    H223185   6.857   4.064   4.049  1.4808  1.6262 -0.1514
 7748TIP3   OH223186   5.294   5.298   3.246 -0.0519  0.0169  0.0894
 7748TIP3    H123187   5.237   5.227   3.219 -0.4490  0.0994  0.6981
 7748TIP3    H223188   5.290   5.297   3.342  0.5513  0.3561  0.1199
 7749TIP3   OH223189   4.972   4.349   2.905 -0.4660 -0.2394  0.2212
 7749TIP3    H123190   5.023   4.277   2.868 -0.1570 -0.6443  1.4203
 7749TIP3    H223191   4.890   4.308   2.933 -0.7155  0.0744 -0.0431
 7750TIP3   OH223192   7.094   5.239   4.318 -0.2060  0.0389 -0.2316
 7750TIP3    H123193   7.006   5.264   4.348 -0.1276  0.0298  0.0050
 7750TIP3    H223194   7.090   5.144   4.312 -0.6389  0.1389 -1.5588
 7751TIP3   OH223195   6.341   4.417   4.646 -0.0770  0.0973 -0.2106
 7751TIP3    H123196   6.255   4.458   4.644  0.2087  0.8460  2.0919
 7751TIP3    H223197   6.340   4.363   4.724  2.3032  1.8616  1.1087
 7752TIP3   OH223198   6.508   2.812   4.750 -0.1409  0.0699  0.1857
 7752TIP3    H123199   6.530   2.790   4.841  0.2597 -3.0429 -0.6206
 7752TIP3    H223200   6.592   2.818   4.706 -0.3675  0.9360 -0.1361
 7753TIP3   OH223201   6.968   4.206   2.511  0.4587 -0.4625  0.2636
 7753TIP3    H123202   7.011   4.259   2.578 -0.1854  2.0400 -1.2604
 7753TIP3    H223203   7.039   4.179   2.453  0.6442 -0.4841  0.4983
 7754TIP3   OH223204   5.952   5.210   4.002  0.1938  0.0619 -0.2548
 7754TIP3    H123205   5.868   5.180   3.969  0.8184  0.5337 -2.3592
 7754TIP3    H223206   6.009   5.211   3.925  1.3173  2.5702  0.5593
 7755TIP3   OH223207   5.702   6.555   3.241  0.3808 -0.2021  0.1659
 7755TIP3    H123208   5.743   6.637   3.213 -0.2198  0.1635  0.3362
 7755TIP3    H223209   5.620   6.582   3.282 -0.7138 -0.9967 -1.4208
 7756TIP3   OH223210   5.239   5.318   5.677  0.0843 -0.0828 -0.1349
 7756TIP3    H123211   5.272   5.384   5.739  1.2786 -1.1296  0.3665
 7756TIP3    H223212   5.148   5.304   5.704 -0.4130  1.8845 -0.7114
 7757TIP3   OH223213   5.539   5.311   4.194  0.1987 -0.5797 -0.1336
 7757TIP3    H123214   5.577   5.390   4.156  1.3829 -0.3746  1.4102
 7757TIP3    H223215   5.497   5.266   4.120  0.5983  0.8492 -1.2530
 7758TIP3   OH223216   6.630   7.591   4.762  0.6810 -0.2106 -0.1231
 7758TIP3    H123217   6.624   7.528   4.690  1.5082 -1.2129  0.6778
 7758TIP3    H223218   6.651   7.674   4.719 -1.6840 -0.1812 -1.3225
 7759TIP3   OH223219   5.406   6.043   5.230  0.2304 -0.2444  0.2949
 7759TIP3    H123220   5.422   6.033   5.323 -0.6061  0.3993  0.5197
 7759TIP3    H223221   5.420   6.136   5.213 -4.0806  0.6117  0.7213
 7760TIP3   OH223222   6.871   4.228   2.017  0.5422  0.0785  0.2903
 7760TIP3    H123223   6.895   4.156   2.076  0.6919 -0.2802 -0.2064
 7760TIP3    H223224   6.916   4.304   2.053  0.3070 -0.0582  0.8745
 7761TIP3   OH223225   6.046   3.781   6.084 -0.2067  0.3656  0.0599
 7761TIP3    H123226   6.115   3.756   6.146 -0.0423  2.2407  0.6413
 7761TIP3    H223227   6.025   3.699   6.038  2.8206 -0.1358 -0.5466
 7762TIP3   OH223228   6.413   5.133   1.705  0.1964  0.0154  0.3101
 7762TIP3    H123229   6.322   5.105   1.717 -0.4704  1.0949 -1.8253
 7762TIP3    H223230   6.430   5.193   1.777 -0.6752 -0.4316  0.9008
 7763TIP3   OH223231   3.905   7.359   6.157  0.1313 -0.3610 -0.3268
 7763TIP3    H123232   3.953   7.354   6.239 -1.4334  0.0814  0.6295
 7763TIP3    H223233   3.887   7.452   6.144 -0.7966 -0.5549 -0.4779
 7764TIP3   OH223234   5.107   4.685   2.245 -0.7172  0.4477 -0.3160
 7764TIP3    H123235   5.182   4.669   2.302 -1.2228 -1.6536 -0.2220
 7764TIP3    H223236   5.146   4.716   2.163  0.2073  0.0885 -0.0219
 7765TIP3   OH223237   6.590   7.803   3.175  0.0707  0.2827  0.3139
 7765TIP3    H123238   6.563   7.807   3.083  0.9271 -0.1681  0.0363
 7765TIP3    H223239   6.623   7.891   3.195  0.7924  0.1150 -0.1035
 7766TIP3   OH223240   4.953   3.597   6.236 -0.4069 -0.0744 -0.2096
 7766TIP3    H123241   4.950   3.590   6.331  0.1869  0.4450 -0.1516
 7766TIP3    H223242   4.970   3.690   6.219 -0.9939 -0.0734 -0.8294
 7767TIP3   OH223243   4.390   3.585   0.616  0.5271  0.3014  0.6342
 7767TIP3    H123244   4.470   3.617   0.575  0.2984  0.6677  0.4791
 7767TIP3    H223245   4.419   3.515   0.675  0.9136  0.1495  0.2594
 7768TIP3   OH223246   5.422   2.972   4.192 -0.1903  0.0083  0.5332
 7768TIP3    H123247   5.350   3.031   4.215  0.7372  1.5927 -0.5164
 7768TIP3    H223248   5.423   2.971   4.096  1.7485  0.7490  0.5193
 7769TIP3   OH223249   5.188   3.704   3.122  0.1465 -0.1253 -0.5495
 7769TIP3    H123250   5.246   3.748   3.059  1.0026  0.4719  0.6397
 7769TIP3    H223251   5.181   3.765   3.195  0.3500 -1.4525  0.5955
 7770TIP3   OH223252   6.089   5.032   5.030  0.5844 -0.1619 -0.2748
 7770TIP3    H123253   6.116   5.111   5.076 -0.9734  1.3759 -1.8935
 7770TIP3    H223254   6.157   5.019   4.963  0.2466  0.4857 -0.7505
 7771TIP3   OH223255   7.640   3.679   0.561  0.4801  0.3616 -0.2267
 7771TIP3    H123256   7.554   3.720   0.557 -0.2380 -1.1683 -0.5656
 7771TIP3    H223257   7.684   3.709   0.481 -0.2082  0.0897 -0.7125
 7772TIP3   OH223258   5.264   3.337   4.441  0.2507 -0.1646 -1.2556
 7772TIP3    H123259   5.320   3.356   4.366  1.4928  1.0171 -0.0576
 7772TIP3    H223260   5.199   3.408   4.440 -0.3166 -0.6937 -1.7784
 7773TIP3   OH223261   5.365   3.273   4.029 -0.1003  0.0817 -0.1417
 7773TIP3    H123262   5.379   3.367   4.015  0.8442  0.2639  1.8515
 7773TIP3    H223263   5.436   3.247   4.089 -0.7435 -1.7618 -0.1537
 7774TIP3   OH223264   5.844   7.442   3.968 -0.1335 -0.0619  0.5571
 7774TIP3    H123265   5.935   7.412   3.969 -0.0796  0.0576 -0.0780
 7774TIP3    H223266   5.797   7.377   4.020 -0.0398 -1.3688 -0.9316
 7775TIP3   OH223267   4.355   5.488   5.438 -0.0168  0.0077  0.0598
 7775TIP3    H123268   4.302   5.563   5.411  1.2403  1.1785  0.8020
 7775TIP3    H223269   4.320   5.414   5.387 -2.4871  0.7045  0.7010
 7776TIP3   OH223270   6.886   5.303   4.511  0.1155  0.5870 -0.2158
 7776TIP3    H123271   6.841   5.340   4.587 -0.2478 -1.4091  0.5647
 7776TIP3    H223272   6.835   5.333   4.436 -2.7581 -1.8884  0.6747
 7777TIP3   OH223273   5.959   5.140   5.530 -0.0962  0.3023 -0.0054
 7777TIP3    H123274   5.888   5.156   5.592  0.7320  0.7207  0.8606
 7777TIP3    H223275   6.020   5.213   5.544  1.3287 -0.9350  0.4882
 7778TIP3   OH223276   5.086   4.421   4.842 -0.4399  0.1199 -0.0530
 7778TIP3    H123277   5.019   4.397   4.778 -1.4607 -0.0134  1.0484
 7778TIP3    H223278   5.058   4.380   4.923  1.8067 -1.2160  0.0847
 7779TIP3   OH223279   8.319   2.679   4.084  0.0878  0.2462  0.0835
 7779TIP3    H123280   8.357   2.676   4.172 -0.7885  1.0547  0.5001
 7779TIP3    H223281   8.312   2.772   4.064 -0.9202  0.1009 -0.3052
 7780TIP3   OH223282   0.035   5.445   6.506 -0.3782  0.2490  0.4461
 7780TIP3    H123283   0.071   5.373   6.557 -0.5053 -0.7358 -0.8559
 7780TIP3    H223284   0.110   5.482   6.459 -0.6510 -0.2484 -0.3739
 7781TIP3   OH223285   6.415   4.164   6.767  0.2655  0.2656  0.2790
 7781TIP3    H123286   6.450   4.112   6.695 -2.9854 -0.0814 -1.1249
 7781TIP3    H223287   6.443   4.118   6.846  3.8155  0.6162 -0.6894
 7782TIP3   OH223288   5.763   4.050   6.186  0.2697  0.0431  0.2159
 7782TIP3    H123289   5.780   4.125   6.243  2.3368 -0.7502  0.6712
 7782TIP3    H223290   5.832   4.052   6.121 -1.6017  0.4467 -1.8219
 7783TIP3   OH223291   5.650   4.133   5.885  0.4300 -0.1303 -0.2464
 7783TIP3    H123292   5.707   4.074   5.934 -1.0212 -2.3819 -1.1582
 7783TIP3    H223293   5.562   4.102   5.904 -0.3291  1.2791 -1.3760
 7784TIP3   OH223294   4.271   7.406   6.715 -0.2171 -0.1577 -0.2171
 7784TIP3    H123295   4.272   7.311   6.718  1.2265 -0.2727 -3.0521
 7784TIP3    H223296   4.324   7.433   6.790  1.0777 -1.6258 -0.5948
 7785TIP3   OH223297   5.937   5.517   4.908  0.3608 -0.1134  0.4032
 7785TIP3    H123298   5.907   5.601   4.873  1.2288  0.6020  1.3584
 7785TIP3    H223299   5.923   5.525   5.003  2.5721 -0.1618  0.7485
 7786TIP3   OH223300   4.690   3.701   3.315  0.3709  0.2333  0.2268
 7786TIP3    H123301   4.711   3.662   3.399  0.7275 -1.1334 -0.4825
 7786TIP3    H223302   4.775   3.719   3.274  0.2036  0.9264  0.1686
 7787TIP3   OH223303   3.668   5.723   4.236  0.3393 -0.4131  0.0193
 7787TIP3    H123304   3.683   5.793   4.173  1.3172 -1.7885 -1.3403
 7787TIP3    H223305   3.634   5.650   4.183 -1.1872 -0.7838  1.4866
 7788TIP3   OH223306   3.271   7.334   3.827 -0.0477 -0.0093 -0.0787
 7788TIP3    H123307   3.266   7.310   3.919 -1.9144  1.0208  0.1025
 7788TIP3    H223308   3.218   7.268   3.782  0.5113 -0.2604 -0.3810
 7789TIP3   OH223309   6.994   7.496   3.351 -0.4138 -0.0168 -0.2881
 7789TIP3    H123310   6.925   7.556   3.381  0.1087 -0.0412  0.9854
 7789TIP3    H223311   7.074   7.547   3.355  0.1259 -0.9733  1.3881
 7790TIP3   OH223312   7.037   5.932   2.533  0.3164  0.3467 -0.0468
 7790TIP3    H123313   6.968   5.868   2.548  0.8040  0.0993  1.2259
 7790TIP3    H223314   7.049   5.933   2.438 -0.4292 -0.6712 -0.1572
 7791TIP3   OH223315   0.050   0.072   4.212 -0.3427 -0.1107 -0.1486
 7791TIP3    H123316  -0.011   0.142   4.191 -0.5893 -0.0817  0.6520
 7791TIP3    H223317   0.137   0.109   4.195 -0.5373 -0.1562 -1.2990
 7792TIP3   OH223318   5.949   3.612   2.223  0.1116 -0.1951 -0.3790
 7792TIP3    H123319   6.009   3.605   2.298  2.1968 -0.0676 -2.0033
 7792TIP3    H223320   5.875   3.662   2.257  1.2317  0.2538  1.4995
 7793TIP3   OH223321   4.678   3.148   3.148  0.1534 -0.6023  0.5707
 7793TIP3    H123322   4.709   3.057   3.152 -2.4690 -1.6099 -0.7865
 7793TIP3    H223323   4.670   3.175   3.239  0.4565 -1.9228  1.0045
 7794TIP3   OH223324   7.006   3.595   2.988 -0.1497  0.3682 -0.1394
 7794TIP3    H123325   7.056   3.612   3.068  1.9244 -0.0295 -1.3212
 7794TIP3    H223326   7.034   3.664   2.927  0.1186 -0.7637 -1.3172
 7795TIP3   OH223327   5.965   5.740   3.844  0.2996 -0.2432  0.3778
 7795TIP3    H123328   5.949   5.821   3.795 -1.5668 -0.8735 -0.1071
 7795TIP3    H223329   5.957   5.766   3.936 -0.5670  0.0854  0.2191
 7796TIP3   OH223330   5.044   5.693   1.218  0.5534 -0.0114 -0.3677
 7796TIP3    H123331   5.091   5.617   1.184 -1.8648 -1.1177 -1.3341
 7796TIP3    H223332   5.034   5.750   1.142  1.7173  0.9879  0.2002
 7797TIP3   OH223333   4.653   2.756   2.450 -0.1464 -0.2658  0.1409
 7797TIP3    H123334   4.739   2.725   2.419  0.9207 -0.5846  3.2270
 7797TIP3    H223335   4.592   2.686   2.426  1.3358 -2.3798  2.2090
 7798TIP3   OH223336   5.539   4.451   2.023  0.1529 -0.2656 -0.0063
 7798TIP3    H123337   5.565   4.540   2.049 -0.0058 -0.1931 -0.1007
 7798TIP3    H223338   5.444   4.455   2.016  0.3277  0.3021 -2.7418
 7799TIP3   OH223339   6.669   3.220   2.754  0.2860 -0.1335 -0.2931
 7799TIP3    H123340   6.683   3.185   2.842  0.8988  0.7391 -0.0424
 7799TIP3    H223341   6.580   3.191   2.732  0.5182 -1.2611  0.1798
 7800TIP3   OH223342   5.699   4.082   1.698  0.0464  0.3914  0.4632
 7800TIP3    H123343   5.783   4.066   1.654  0.5762 -0.5633  1.8104
 7800TIP3    H223344   5.714   4.159   1.752 -0.1032  0.5244  0.3179
 7801TIP3   OH223345   5.903   3.298   4.435 -0.2263 -0.3972  0.3171
 7801TIP3    H123346   5.834   3.340   4.384 -0.7813  1.3474  2.4182
 7801TIP3    H223347   5.981   3.350   4.416 -0.4343  0.2562  1.2222
 7802TIP3   OH223348   5.960   4.256   2.688  1.0506  0.1149 -0.2907
 7802TIP3    H123349   5.922   4.314   2.754 -1.1049 -0.0349 -1.3516
 7802TIP3    H223350   5.955   4.307   2.607 -0.5790 -1.4129 -1.1811
 7803TIP3   OH223351   4.813   4.189   2.359 -0.0411  0.3841 -0.7541
 7803TIP3    H123352   4.758   4.164   2.285  0.3607 -1.5658 -0.4313
 7803TIP3    H223353   4.902   4.179   2.328  0.1655 -2.3678  0.5184
 7804TIP3   OH223354   6.656   6.014   3.924  0.2259 -0.2542 -0.0441
 7804TIP3    H123355   6.747   6.031   3.902 -0.0591 -1.1960 -2.0292
 7804TIP3    H223356   6.608   6.028   3.842 -1.5229  0.8988  1.1223
 7805TIP3   OH223357   6.515   7.402   4.531 -0.0115 -0.2532  0.0877
 7805TIP3    H123358   6.441   7.383   4.588 -0.8858 -0.9937 -1.2744
 7805TIP3    H223359   6.477   7.409   4.443  1.6020 -1.3176 -0.7259
 7806TIP3   OH223360   8.358   6.034   3.413  0.2228  0.1719 -1.1192
 7806TIP3    H123361   8.264   6.033   3.430  0.2837 -2.3601 -0.7210
 7806TIP3    H223362   8.397   6.057   3.497 -0.0059  0.3335 -1.0561
 7807TIP3   OH223363   6.157   3.499   4.891 -0.1807 -0.6222 -0.2388
 7807TIP3    H123364   6.213   3.447   4.834  1.5166  0.2844  0.5718
 7807TIP3    H223365   6.218   3.546   4.949 -1.7423  0.7673  0.3216
 7808TIP3   OH223366   4.104   3.300   3.193  0.1109  0.3482  0.0813
 7808TIP3    H123367   4.197   3.303   3.173 -0.3123  1.2251 -1.8545
 7808TIP3    H223368   4.094   3.359   3.268  0.9456  1.1818 -0.4492
 7809TIP3   OH223369   7.226   4.674   4.786 -0.1151  0.3573  0.8746
 7809TIP3    H123370   7.197   4.705   4.871  0.1046  1.0197  0.7096
 7809TIP3    H223371   7.287   4.741   4.755  0.7732 -0.4981  0.7517
 7810TIP3   OH223372   5.610   3.243   4.198  0.7524 -0.5134  0.2088
 7810TIP3    H123373   5.587   3.156   4.232 -2.2066 -0.6542 -1.9869
 7810TIP3    H223374   5.672   3.226   4.127  1.5131 -0.6645  0.8906
 7811TIP3   OH223375   5.654   3.268   2.802  0.2627  0.3014 -0.2731
 7811TIP3    H123376   5.737   3.222   2.790 -0.1637 -0.9043  1.3171
 7811TIP3    H223377   5.588   3.209   2.766 -0.0535  0.6862 -0.3310
 7812TIP3   OH223378   5.833   5.732   3.579  0.6816  0.0142 -0.1786
 7812TIP3    H123379   5.769   5.744   3.649  0.4386  0.3749 -0.4633
 7812TIP3    H223380   5.830   5.639   3.559 -0.0469  0.0987 -0.4683
 7813TIP3   OH223381   4.345   2.894   5.239  0.3851  0.6656  0.1680
 7813TIP3    H123382   4.282   2.828   5.211 -0.5461  0.9064  1.6928
 7813TIP3    H223383   4.404   2.847   5.298  2.0217  0.2966 -1.6962
 7814TIP3   OH223384   4.880   5.623   3.453  0.4491  0.1449 -0.2436
 7814TIP3    H123385   4.955   5.574   3.486  0.4563  0.3101 -0.0109
 7814TIP3    H223386   4.894   5.629   3.359  0.5030 -0.2049 -0.2609
 7815TIP3   OH223387   5.891   4.592   2.734  0.1215  0.2288 -0.0824
 7815TIP3    H123388   5.809   4.543   2.746  1.0756 -1.3867  0.0166
 7815TIP3    H223389   5.890   4.658   2.803 -2.0977  1.6438 -1.4075
 7816TIP3   OH223390   5.295   4.416   4.296 -0.4131 -0.2341  0.0878
 7816TIP3    H123391   5.372   4.361   4.283 -1.0728 -1.0272 -0.5656
 7816TIP3    H223392   5.274   4.448   4.208  0.1620  1.3412  0.5117
 7817TIP3   OH223393   3.924   5.504   4.244  0.0083  0.3651  0.4645
 7817TIP3    H123394   3.918   5.417   4.283  1.4178 -0.2582 -0.6379
 7817TIP3    H223395   3.835   5.524   4.216 -0.0847 -1.3192 -0.5120
 7818TIP3   OH223396   8.214   5.123   4.941 -0.1387  0.0547  0.3821
 7818TIP3    H123397   8.261   5.052   4.898 -1.8047  0.0533 -1.5112
 7818TIP3    H223398   8.202   5.189   4.872 -0.5077  1.2434  1.5565
 7819TIP3   OH223399   5.875   7.409   6.181  0.2095  0.0481  0.2850
 7819TIP3    H123400   5.890   7.351   6.107  2.4730  1.5365 -0.5055
 7819TIP3    H223401   5.810   7.472   6.150 -0.3283 -0.5403  0.2393
 7820TIP3   OH223402   7.334   6.061   4.501 -0.0657 -0.3502  0.1213
 7820TIP3    H123403   7.348   6.149   4.535  1.0163 -0.4112 -0.1520
 7820TIP3    H223404   7.416   6.014   4.520  2.3472  0.7722 -6.2353
 7821TIP3   OH223405   5.697   6.173   5.854 -0.0449  0.1542  0.0342
 7821TIP3    H123406   5.669   6.084   5.875  0.3352 -0.0303 -0.2301
 7821TIP3    H223407   5.638   6.230   5.904  0.6135 -0.2665  1.3216
 7822TIP3   OH223408   6.080   5.578   5.252 -0.6093 -0.4456 -0.1960
 7822TIP3    H123409   6.141   5.648   5.230 -0.3381 -0.7047 -0.2775
 7822TIP3    H223410   6.009   5.586   5.188  0.7127 -1.8851 -1.9036
 7823TIP3   OH223411   3.323   4.544   4.084 -0.1968  0.6120 -0.1990
 7823TIP3    H123412   3.369   4.524   4.002 -0.6337 -1.6138  0.0853
 7823TIP3    H223413   3.236   4.506   4.073 -1.1155  2.5132  0.3189
 7824TIP3   OH223414   4.460   4.763   2.867  0.5579  0.5045 -0.0210
 7824TIP3    H123415   4.479   4.856   2.880  0.6056  0.4612  0.2349
 7824TIP3    H223416   4.514   4.718   2.933  2.6222  0.1112 -1.8853
 7825TIP3   OH223417   5.821   5.162   2.045 -0.3921 -0.4632  0.1843
 7825TIP3    H123418   5.862   5.236   2.002 -0.0120 -0.6658  0.1998
 7825TIP3    H223419   5.744   5.199   2.089  0.3244  0.0848  0.9911
 7826TIP3   OH223420   6.362   2.643   2.945  0.6126  0.1762 -0.3074
 7826TIP3    H123421   6.344   2.708   2.877  2.5582  1.9934  0.8571
 7826TIP3    H223422   6.412   2.575   2.899  0.2571  0.4574 -1.1227
 7827TIP3   OH223423   6.031   3.966   2.892  0.1089 -0.5106  0.3085
 7827TIP3    H123424   6.043   4.031   2.961 -0.1583 -0.9031  0.7303
 7827TIP3    H223425   5.937   3.946   2.895 -0.1819  0.5764 -1.1718
 7828TIP3   OH223426   4.047   3.912   4.123  0.2121  0.2189 -0.3777
 7828TIP3    H123427   4.033   3.868   4.039  0.7761  1.2508 -1.0349
 7828TIP3    H223428   4.012   3.852   4.189 -0.0613 -0.6846 -1.3405
 7829TIP3   OH223429   5.429   3.295   4.665 -0.1198 -0.5378 -0.1503
 7829TIP3    H123430   5.403   3.364   4.726  1.9223 -0.2060  0.3945
 7829TIP3    H223431   5.385   3.317   4.583 -1.6993 -0.1550  0.7948
 7830TIP3   OH223432   5.303   3.547   3.976 -0.1781 -0.2907 -0.3880
 7830TIP3    H123433   5.325   3.579   3.889  0.0557  1.4642  0.3072
 7830TIP3    H223434   5.263   3.622   4.021  1.6016 -0.5389  1.7087
 7831TIP3   OH223435   6.066   5.061   6.004 -0.6056  0.3155  0.0862
 7831TIP3    H123436   6.037   5.000   6.071 -0.9199  1.4174  0.9756
 7831TIP3    H223437   6.138   5.017   5.960  1.7692  0.9013  3.2767
 7832TIP3   OH223438   7.969   4.357   3.541 -0.0872 -0.5026  0.1191
 7832TIP3    H123439   7.876   4.364   3.521 -0.9573  0.8915  4.3389
 7832TIP3    H223440   7.977   4.277   3.593  0.7730  0.2798  1.2219
 7833TIP3   OH223441   7.338   3.116   3.621  0.3266 -0.2791 -0.0805
 7833TIP3    H123442   7.321   3.050   3.553  0.9599 -0.2895 -0.2272
 7833TIP3    H223443   7.407   3.172   3.584 -1.6806  1.7683 -0.8295
 7834TIP3   OH223444   5.410   5.845   4.423  0.1185  0.4825  0.3420
 7834TIP3    H123445   5.393   5.937   4.444 -1.8911 -0.2340  2.0182
 7834TIP3    H223446   5.437   5.806   4.506  1.1647 -0.4296 -0.4044
 7835TIP3   OH223447   5.777   4.188   4.114  0.7935  0.0296  0.6634
 7835TIP3    H123448   5.802   4.146   4.032 -0.4220  1.6932 -0.5991
 7835TIP3    H223449   5.816   4.275   4.108 -0.3416  0.5915  1.2821
 7836TIP3   OH223450   5.981   3.816   4.176  0.0777 -0.9053  0.2232
 7836TIP3    H123451   5.977   3.799   4.270 -0.4243 -0.8389  0.2145
 7836TIP3    H223452   6.075   3.826   4.158  0.0834  0.7410  1.0179
 7837TIP3   OH223453   5.062   4.699   0.024 -0.4120  0.6261 -0.0050
 7837TIP3    H123454   5.033   4.622  -0.025  0.9531  0.0683  0.0596
 7837TIP3    H223455   5.141   4.671   0.069 -0.1803  1.9264  0.4130
 7838TIP3   OH223456   4.947   4.329   5.080  0.0174  0.1682 -0.5167
 7838TIP3    H123457   4.866   4.336   5.028 -1.7287 -1.5588  1.8609
 7838TIP3    H223458   4.925   4.371   5.163  2.1092  1.0806 -0.4159
 7839TIP3   OH223459   5.351   2.512   2.980 -0.0534  0.0552 -0.5559
 7839TIP3    H123460   5.318   2.463   2.905  0.8022  1.6908 -2.0412
 7839TIP3    H223461   5.445   2.523   2.962 -0.2560  2.3649 -0.3534
 7840TIP3   OH223462   4.953   4.440   2.657  0.1463 -0.2903 -0.1737
 7840TIP3    H123463   4.932   4.414   2.747 -1.2855  0.1037 -0.3654
 7840TIP3    H223464   5.046   4.459   2.658  0.3303 -1.2031  1.0045
 7841TIP3   OH223465   7.533   3.991   4.384 -0.1898 -0.2180 -0.4457
 7841TIP3    H123466   7.441   4.011   4.399 -0.3237 -0.9773 -0.1979
 7841TIP3    H223467   7.560   3.943   4.463  0.2414 -0.5398 -0.7838
 7842TIP3   OH223468   3.439   2.906   0.203  0.0848  0.2436 -0.0077
 7842TIP3    H123469   3.413   2.817   0.224 -0.4388  0.1732 -0.9342
 7842TIP3    H223470   3.499   2.931   0.274 -2.8122  0.5887  2.4392
 7843TIP3   OH223471   5.396   3.127   3.251  0.2835 -0.1030 -0.1333
 7843TIP3    H123472   5.433   3.041   3.276  1.4033 -0.0573 -1.5429
 7843TIP3    H223473   5.414   3.183   3.326 -0.8837 -1.2142  1.0034
 7844TIP3   OH223474   6.703   4.860   1.662 -0.2469  0.3979  0.5457
 7844TIP3    H123475   6.797   4.853   1.681 -0.2764 -0.3116  0.4579
 7844TIP3    H223476   6.677   4.943   1.701  0.2492  0.2118  1.2832
 7845TIP3   OH223477   7.905   3.154   3.620  0.2885 -0.1261  0.4573
 7845TIP3    H123478   7.812   3.163   3.641  0.3067  1.2120 -0.0191
 7845TIP3    H223479   7.945   3.234   3.654  0.9676  0.1640 -1.0155
 7846TIP3   OH223480   7.635   6.702   1.262  0.8699  0.9143 -0.3315
 7846TIP3    H123481   7.548   6.661   1.255  1.5640 -0.6914  0.1417
 7846TIP3    H223482   7.681   6.672   1.183  1.3219  0.9505 -0.0793
 7847TIP3   OH223483   7.409   4.405   3.366  0.7843  0.4309  0.5964
 7847TIP3    H123484   7.393   4.401   3.460  0.7752 -0.5615  0.5638
 7847TIP3    H223485   7.340   4.462   3.332 -1.2322 -1.7866  0.7893
 7848TIP3   OH223486   5.184   4.571   3.037 -0.1463 -0.0370 -0.3961
 7848TIP3    H123487   5.157   4.513   2.966 -1.3001  0.3839 -0.3115
 7848TIP3    H223488   5.155   4.527   3.117 -2.6077  1.4556 -0.4193
 7849TIP3   OH223489   0.466   4.188   4.391  0.0627  0.3449 -0.2940
 7849TIP3    H123490   0.549   4.234   4.376 -0.2125  0.8102 -0.4000
 7849TIP3    H223491   0.492   4.104   4.428  0.5170  1.0463  1.0107
 7850TIP3   OH223492   7.657   4.879   3.928  0.2088  0.0180  0.6852
 7850TIP3    H123493   7.584   4.891   3.868  2.2775 -1.2940 -2.1789
 7850TIP3    H223494   7.694   4.966   3.939  0.5432  0.0889 -0.9281
 7851TIP3   OH223495   6.641   3.751   4.554  0.5043 -0.5876  0.1498
 7851TIP3    H123496   6.559   3.732   4.601  0.1859 -1.8748 -0.8799
 7851TIP3    H223497   6.672   3.833   4.592 -1.5255  0.1805  0.2319
 7852TIP3   OH223498   7.025   3.283   3.236 -0.3731 -0.4000  0.0393
 7852TIP3    H123499   7.096   3.222   3.256 -0.0660  0.3149  1.2251
 7852TIP3    H223500   6.964   3.274   3.308 -1.2740 -0.6863 -0.7541
 7853TIP3   OH223501   7.135   3.678   1.347 -0.3477 -0.3865  0.1758
 7853TIP3    H123502   7.043   3.654   1.342 -0.1365 -1.1738  0.0209
 7853TIP3    H223503   7.171   3.622   1.416  0.1762 -0.6208 -0.2823
 7854TIP3   OH223504   5.949   4.655   4.129 -0.3455  0.1618 -0.0041
 7854TIP3    H123505   5.897   4.658   4.209 -0.0397  0.5353  0.1829
 7854TIP3    H223506   5.915   4.728   4.076  0.0739  0.4904  0.1751
 7855TIP3   OH223507   6.698   2.406   3.048  0.0144 -0.1004  0.0622
 7855TIP3    H123508   6.675   2.355   2.970  0.5029  0.1246 -0.2304
 7855TIP3    H223509   6.676   2.348   3.121  0.3487 -0.6462 -0.2635
 7856TIP3   OH223510   7.642   5.993   4.172 -0.1060  0.2116  0.5473
 7856TIP3    H123511   7.680   6.043   4.244 -0.9843  1.9645 -0.1779
 7856TIP3    H223512   7.646   6.052   4.096 -1.5799 -0.6364 -0.2242
 7857TIP3   OH223513   7.499   3.431   3.213 -0.1446  0.0549  0.1209
 7857TIP3    H123514   7.501   3.525   3.230 -0.4611 -0.1786  1.5441
 7857TIP3    H223515   7.578   3.415   3.161 -0.5340  1.2320 -0.8635
 7858TIP3   OH223516   6.574   5.001   4.068 -0.1412  0.4084 -0.1679
 7858TIP3    H123517   6.508   5.003   3.998  1.7244 -0.6803 -2.0351
 7858TIP3    H223518   6.656   5.022   4.023  0.9841  0.4406  1.8609
 7859TIP3   OH223519   5.314   4.611   2.478  0.0774  0.2090  0.1048
 7859TIP3    H123520   5.386   4.599   2.539 -0.5537 -0.4134  0.7323
 7859TIP3    H223521   5.350   4.666   2.408  2.1795 -2.9046 -1.3403
 7860TIP3   OH223522   8.225   5.858   2.243  0.1806 -0.4062 -0.4039
 7860TIP3    H123523   8.272   5.875   2.161 -1.3781  1.3345 -0.9613
 7860TIP3    H223524   8.154   5.799   2.217 -0.4963  0.3887 -0.3832
 7861TIP3   OH223525   7.436   5.363   4.279 -0.1408  0.8887  0.1690
 7861TIP3    H123526   7.354   5.314   4.267  0.0009  0.8327 -0.5659
 7861TIP3    H223527   7.450   5.408   4.196  0.9746  0.2936  0.0249
 7862TIP3   OH223528   7.831   5.690   5.169 -0.0951 -0.0140  0.2475
 7862TIP3    H123529   7.749   5.714   5.126 -1.1561 -0.0097  2.2126
 7862TIP3    H223530   7.832   5.594   5.169  0.1586 -0.0118 -0.2462
 7863TIP3   OH223531   8.161   3.801   3.730 -0.2343 -0.4327 -0.2739
 7863TIP3    H123532   8.225   3.855   3.776 -0.0319 -2.1492  1.5729
 7863TIP3    H223533   8.120   3.860   3.667  2.2293  1.0143 -0.5677
 7864TIP3   OH223534   7.014   4.972   3.724  0.2772 -0.2761 -0.3671
 7864TIP3    H123535   6.990   4.880   3.713 -1.8226  0.1603  0.4137
 7864TIP3    H223536   7.082   4.986   3.659  1.1472 -2.5641 -0.0244
 7865TIP3   OH223537   7.522   5.126   3.603  0.0283  0.1358  0.3648
 7865TIP3    H123538   7.528   5.201   3.544 -0.1169  0.0986  0.3032
 7865TIP3    H223539   7.438   5.085   3.583  1.2853 -1.6171 -1.5120
 7866TIP3   OH223540   8.164   5.310   5.896 -0.2756  0.2244 -0.1885
 7866TIP3    H123541   8.190   5.289   5.985 -0.7187  3.9863  0.9124
 7866TIP3    H223542   8.237   5.361   5.860 -0.8021  0.1558 -1.3883
 7867TIP3   OH223543   5.739   2.877   1.912  0.5273  0.0586  0.0953
 7867TIP3    H123544   5.826   2.841   1.927  0.4754  0.0698  0.4421
 7867TIP3    H223545   5.691   2.858   1.993  0.6912  1.4646  0.5380
 7868TIP3   OH223546   8.456   5.311   3.612  0.1327  0.4423 -0.5801
 7868TIP3    H123547   8.380   5.256   3.630  1.1418 -1.8056 -2.9719
 7868TIP3    H223548   8.510   5.305   3.691 -1.1635  0.4010  0.3140
 7869TIP3   OH223549   7.655   7.056   1.362 -0.9466 -0.3889  0.0197
 7869TIP3    H123550   7.693   6.998   1.296  0.3012  1.5532 -1.0056
 7869TIP3    H223551   7.717   7.053   1.435 -0.7418 -0.1223 -0.1441
 7870TIP3   OH223552   6.542   4.434   2.582 -0.1131  0.4014  0.1825
 7870TIP3    H123553   6.454   4.405   2.556  0.2955 -0.3499 -0.3914
 7870TIP3    H223554   6.541   4.431   2.677 -0.6506  0.2175  0.1752
 7871TIP3   OH223555   6.983   4.659   1.342  0.1141 -0.9599  0.8204
 7871TIP3    H123556   6.922   4.721   1.382  0.7855  0.6875 -0.6381
 7871TIP3    H223557   7.049   4.644   1.410 -1.8152 -2.6601  2.3548
 7872TIP3   OH223558   5.773   3.086   2.462 -0.5590 -0.3095  0.7344
 7872TIP3    H123559   5.775   3.057   2.371  2.1667 -0.2034  0.7289
 7872TIP3    H223560   5.780   3.181   2.458  0.8186 -0.3907  1.0875
 7873TIP3   OH223561   3.684   4.571   3.012 -0.2176 -0.8349  0.8505
 7873TIP3    H123562   3.639   4.648   2.976 -0.8389 -1.2667  0.6865
 7873TIP3    H223563   3.766   4.605   3.046  0.3317 -0.3996 -0.8767
 7874TIP3   OH223564   7.694   5.396   2.225  0.3447  0.1127  0.0850
 7874TIP3    H123565   7.625   5.425   2.165  1.4061  0.3654 -1.0379
 7874TIP3    H223566   7.764   5.365   2.168  1.5164  0.6725  1.1850
 7875TIP3   OH223567   8.416   6.939   3.666 -0.1280  0.1264  0.0008
 7875TIP3    H123568   8.383   6.860   3.623  0.7004 -0.7063  0.8547
 7875TIP3    H223569   8.347   7.004   3.653 -0.8678 -0.7688 -0.6284
 7876TIP3   OH223570   8.309   4.384   2.325 -0.0036 -0.5720 -0.2023
 7876TIP3    H123571   8.236   4.395   2.264  0.0804 -0.0517 -0.2097
 7876TIP3    H223572   8.314   4.467   2.372  0.9633 -0.3816 -0.6226
 7877TIP3   OH223573   6.030   4.528   5.079 -0.4907  0.1332 -0.0102
 7877TIP3    H123574   6.124   4.511   5.082 -0.4444  0.1343 -1.3788
 7877TIP3    H223575   6.022   4.622   5.093 -0.3208  0.0661  0.5562
 7878TIP3   OH223576   0.522   3.708   3.530 -0.2700  0.1284 -0.3652
 7878TIP3    H123577   0.444   3.658   3.505 -1.2201 -0.7336  3.9001
 7878TIP3    H223578   0.574   3.646   3.582  1.3272  1.8903  0.1744
 7879TIP3   OH223579   5.710   3.076   1.710  0.1466  0.2919 -0.5763
 7879TIP3    H123580   5.655   3.139   1.756  2.0111  1.0271  0.7385
 7879TIP3    H223581   5.705   2.996   1.763 -0.3317  0.0974 -0.9193
 7880TIP3   OH223582   6.363   2.427   5.702 -0.8131  0.0729  0.2193
 7880TIP3    H123583   6.327   2.341   5.723 -1.3638  0.6826  1.8750
 7880TIP3    H223584   6.305   2.461   5.634  0.3526 -1.5021 -1.6193
 7881TIP3   OH223585   6.892   4.711   3.665 -0.1876 -0.0811  0.6789
 7881TIP3    H123586   6.952   4.651   3.620  1.0228  0.2531  1.8320
 7881TIP3    H223587   6.805   4.674   3.648  0.4763 -1.6883  0.6439
 7882TIP3   OH223588   7.685   7.625   4.902  0.3353 -0.0462 -0.2302
 7882TIP3    H123589   7.772   7.659   4.924  0.2333  0.7448 -1.0032
 7882TIP3    H223590   7.633   7.639   4.981  0.2853  1.6878 -0.5290
 7883TIP3   OH223591   7.854   5.612   3.019  0.1889  0.7377  0.1727
 7883TIP3    H123592   7.895   5.695   3.044  0.9356  0.2706  0.5167
 7883TIP3    H223593   7.913   5.545   3.052 -0.2809  0.0659 -0.3289
 7884TIP3   OH223594   6.603   4.315   2.890 -0.0149  0.2665 -0.3083
 7884TIP3    H123595   6.645   4.335   2.974  1.5180  0.2650 -1.0503
 7884TIP3    H223596   6.534   4.381   2.882  0.5862  1.0120  0.4165
 7885TIP3   OH223597   5.462   5.787   3.047  0.1340 -0.1553 -0.4748
 7885TIP3    H123598   5.425   5.791   2.958  0.1113  1.5188 -0.4108
 7885TIP3    H223599   5.488   5.696   3.058  0.4561 -0.3128 -2.3426
 7886TIP3   OH223600   7.219   5.152   0.647  0.4976  0.5749 -0.2856
 7886TIP3    H123601   7.215   5.120   0.557 -0.7687 -0.3166  0.0634
 7886TIP3    H223602   7.238   5.245   0.639  0.4109  0.4895 -1.4831
 7887TIP3   OH223603   6.509   5.181   0.344  0.1830  0.4626  0.3837
 7887TIP3    H123604   6.549   5.256   0.389  1.2934  0.9597 -1.3882
 7887TIP3    H223605   6.582   5.120   0.330 -0.7296 -1.0274  1.8846
 7888TIP3   OH223606   6.934   5.879   4.917 -0.2595  0.1845 -0.4970
 7888TIP3    H123607   6.872   5.948   4.942 -0.0853  0.0014  0.4482
 7888TIP3    H223608   7.019   5.911   4.946 -0.4802 -1.4590  2.1344
 7889TIP3   OH223609   5.984   2.754   1.962  0.2460  0.3998 -0.0068
 7889TIP3    H123610   6.010   2.765   2.054 -0.0719  0.6485  0.0535
 7889TIP3    H223611   6.065   2.762   1.913  0.1201  2.3934  0.0838
 7890TIP3   OH223612   5.664   4.227   1.418 -0.7566  0.3453 -0.0226
 7890TIP3    H123613   5.702   4.287   1.482  2.3574 -1.1350 -0.4192
 7890TIP3    H223614   5.654   4.279   1.339 -3.1271  1.7444  1.1125
 7891TIP3   OH223615   8.241   4.200   3.564 -0.8926 -0.0828 -0.1936
 7891TIP3    H123616   8.288   4.276   3.531 -0.8853 -0.1695 -0.3818
 7891TIP3    H223617   8.265   4.195   3.657  2.4990 -2.3365 -1.1123
 7892TIP3   OH223618   8.273   6.348   3.502  0.3176  0.5661  0.5066
 7892TIP3    H123619   8.237   6.369   3.588 -0.7792  1.2742 -0.1049
 7892TIP3    H223620   8.200   6.309   3.454 -0.0508  3.2099 -1.1849
 7893TIP3   OH223621   5.607   4.441   2.851  0.1014 -0.2155  0.2061
 7893TIP3    H123622   5.546   4.369   2.865 -1.3928  1.2063  1.1680
 7893TIP3    H223623   5.680   4.422   2.911 -0.4163 -0.7833  0.6610
 7894TIP3   OH223624   5.215   2.622   3.195 -0.1715  0.1892 -0.5294
 7894TIP3    H123625   5.229   2.544   3.250  1.3379  0.6746 -0.2113
 7894TIP3    H223626   5.238   2.593   3.107 -2.1352 -0.4539 -0.8563
 7895TIP3   OH223627   6.325   3.568   2.608  0.0723  0.4758 -0.1782
 7895TIP3    H123628   6.398   3.507   2.605 -1.6685 -1.6674 -0.5638
 7895TIP3    H223629   6.365   3.654   2.621  2.6857 -0.5224 -1.3709
 7896TIP3   OH223630   6.478   4.602   0.768 -0.4682 -0.8390 -0.4699
 7896TIP3    H123631   6.411   4.620   0.702 -1.2155  0.6507  0.6764
 7896TIP3    H223632   6.540   4.675   0.760  0.9819 -2.1571 -1.4616
 7897TIP3   OH223633   0.486   4.461   2.618 -0.3511 -0.0373 -0.2575
 7897TIP3    H123634   0.509   4.540   2.570 -1.2939 -1.3226 -2.9204
 7897TIP3    H223635   0.398   4.440   2.589 -0.4359 -1.6017  1.0586
 7898TIP3   OH223636   6.815   2.864   3.012  0.0346 -0.0044  0.3060
 7898TIP3    H123637   6.809   2.953   2.978 -0.3038 -0.1828 -0.1059
 7898TIP3    H223638   6.756   2.863   3.088  0.5435  0.3031  0.7085
 7899TIP3   OH223639   6.451   5.269   3.608  0.0347  0.5277  0.5547
 7899TIP3    H123640   6.388   5.296   3.541 -0.2189 -0.1433  0.5239
 7899TIP3    H223641   6.489   5.351   3.639  1.0066  0.7622 -1.2495
 7900TIP3   OH223642   2.097   1.846   1.155 -0.5593 -0.0470 -0.5610
 7900TIP3    H123643   2.014   1.872   1.115 -0.6685 -0.0251 -0.3201
 7900TIP3    H223644   2.163   1.873   1.092 -0.6411  1.1925 -0.1336
 7901TIP3   OH223645   6.685   5.143   3.643  0.4356 -0.7463  0.6433
 7901TIP3    H123646   6.602   5.189   3.630  0.5211 -0.8340 -0.2624
 7901TIP3    H223647   6.699   5.096   3.560  0.0650 -2.8500  1.7397
 7902TIP3   OH223648   6.206   4.059   1.351 -0.2474  0.5185  0.1749
 7902TIP3    H123649   6.206   3.989   1.415  2.8394  0.8910  0.6648
 7902TIP3    H223650   6.214   4.139   1.403  0.8228  0.9171 -0.5886
 7903TIP3   OH223651   7.946   3.535   4.235  0.0180 -0.0401  0.0596
 7903TIP3    H123652   7.989   3.618   4.214  0.7635 -0.5253 -0.3310
 7903TIP3    H223653   8.017   3.480   4.270 -0.4811 -0.5056  0.3417
 7904TIP3   OH223654   6.294   4.417   2.166 -0.7001  0.0930 -0.7493
 7904TIP3    H123655   6.379   4.422   2.122  0.2117 -1.8592  0.6876
 7904TIP3    H223656   6.252   4.340   2.127  0.5363 -2.2816  2.3339
 7905TIP3   OH223657   3.961   2.710   2.880  0.1891 -0.3382 -0.3756
 7905TIP3    H123658   3.989   2.744   2.966 -0.3199 -0.4631 -0.1595
 7905TIP3    H223659   4.000   2.623   2.875 -0.8293 -0.8532  0.2867
 7906TIP3   OH223660   6.306   2.616   3.390  0.3037  0.0374  0.3779
 7906TIP3    H123661   6.393   2.604   3.428  0.5041 -1.5934 -0.5366
 7906TIP3    H223662   6.280   2.528   3.361 -0.9145  0.8013 -0.9113
 7907TIP3   OH223663   7.549   4.251   3.183 -0.0513 -0.0964  0.1762
 7907TIP3    H123664   7.493   4.201   3.124 -0.2985  0.6106 -0.2012
 7907TIP3    H223665   7.488   4.296   3.242  0.0845  1.1441 -0.6137
 7908TIP3   OH223666   6.519   4.921   1.298 -0.1408 -0.6251 -0.0969
 7908TIP3    H123667   6.539   5.013   1.314  2.1667 -0.8882 -1.2379
 7908TIP3    H223668   6.466   4.894   1.373 -0.5877  1.5233  0.3988
 7909TIP3   OH223669   4.844   0.361   3.937  0.8764 -0.1118  0.4291
 7909TIP3    H123670   4.939   0.351   3.946  0.9417 -1.3815 -1.2947
 7909TIP3    H223671   4.816   0.283   3.888 -0.7874  1.1155 -0.6552
 7910TIP3   OH223672   6.774   2.971   3.764  0.2052  0.0966  0.2265
 7910TIP3    H123673   6.733   3.055   3.782 -2.1029 -1.3370  2.0377
 7910TIP3    H223674   6.857   2.993   3.721 -1.1453  3.1856 -0.9495
 7911TIP3   OH223675   5.408   3.216   2.655  0.5875 -0.1234 -0.1352
 7911TIP3    H123676   5.408   3.145   2.719 -1.0736  0.7953  0.9264
 7911TIP3    H223677   5.389   3.173   2.572  2.1029 -1.2429  0.0821
 7912TIP3   OH223678   5.817   3.784   1.706  0.0642 -0.2195 -0.2015
 7912TIP3    H123679   5.750   3.845   1.675  1.1888  0.1252 -2.0149
 7912TIP3    H223680   5.890   3.796   1.646  0.7793 -2.4880  0.1698
 7913TIP3   OH223681  -0.032   4.121   2.936  0.4730  0.5903 -0.0511
 7913TIP3    H123682  -0.005   4.079   3.018  0.2893 -1.4493 -1.0039
 7913TIP3    H223683   0.045   4.170   2.908  0.7044  0.8907  1.0535
 7914TIP3   OH223684   0.339   3.967   3.516 -0.1765 -0.1075  1.2424
 7914TIP3    H123685   0.413   3.938   3.569 -0.9094  0.6810  2.7174
 7914TIP3    H223686   0.331   4.061   3.535  0.4239  0.5240 -1.3393
 7915TIP3   OH223687   8.321   5.930   2.476 -0.3531 -0.2093 -0.0921
 7915TIP3    H123688   8.285   5.900   2.393  0.5850 -0.6189 -0.3540
 7915TIP3    H223689   8.414   5.942   2.459 -0.1092 -0.5534  0.9765
 7916TIP3   OH223690   4.612   1.097   6.446  0.3379 -0.3911  0.4142
 7916TIP3    H123691   4.647   1.184   6.461  0.7377 -0.2217 -1.4106
 7916TIP3    H223692   4.685   1.038   6.463  0.9079 -0.1763 -1.2255
 7917TIP3   OH223693   8.016   6.972   3.018  0.0541 -0.0540  0.3613
 7917TIP3    H123694   8.034   6.912   3.091  1.6593  0.5618  0.4650
 7917TIP3    H223695   8.025   7.059   3.056  2.5868  0.2957 -0.9506
 7918TIP3   OH223696   7.021   4.469   2.062 -0.2195 -0.2013 -0.0182
 7918TIP3    H123697   7.052   4.485   1.972 -1.6476  0.6670 -0.3662
 7918TIP3    H223698   7.100   4.444   2.110  0.5536 -0.7269 -1.5256
 7919TIP3   OH223699   4.080   4.284   3.016  0.5972 -0.1920 -0.0506
 7919TIP3    H123700   4.107   4.192   3.010  0.3576 -0.2903  0.4225
 7919TIP3    H223701   4.108   4.322   2.932 -1.0904 -1.1538 -1.0794
 7920TIP3   OH223702   7.923   3.703   1.941  0.7456  0.1547  0.5872
 7920TIP3    H123703   7.862   3.629   1.939  0.6366  0.2776 -1.2535
 7920TIP3    H223704   7.967   3.695   2.026 -0.2884 -1.1900  1.0149
 7921TIP3   OH223705   6.752   4.041   2.824 -0.4471 -0.9934  0.8155
 7921TIP3    H123706   6.831   4.041   2.878  0.7488  0.5687 -0.8917
 7921TIP3    H223707   6.768   3.973   2.758 -0.4356 -0.5267  0.3365
 7922TIP3   OH223708   6.729   4.044   4.522  0.1227 -0.2651 -0.2168
 7922TIP3    H123709   6.747   4.134   4.551  0.3158 -0.4289  0.1788
 7922TIP3    H223710   6.811   4.015   4.481  1.3125 -1.5263  2.8917
 7923TIP3   OH223711   0.457   4.986   3.474 -0.2166  0.6851 -0.1409
 7923TIP3    H123712   0.541   5.003   3.431 -2.0861  0.9799 -3.9256
 7923TIP3    H223713   0.417   5.073   3.482 -2.2993  0.1126 -3.2530
 7924TIP3   OH223714   0.181   3.167   2.397 -0.3748  0.2534  0.0904
 7924TIP3    H123715   0.179   3.118   2.315  1.9326  1.0613 -0.4739
 7924TIP3    H223716   0.190   3.259   2.370 -1.8890  0.7478  1.2004
 7925TIP3   OH223717   5.852   2.159   3.589  0.6172  0.2571 -0.2091
 7925TIP3    H123718   5.802   2.238   3.574 -1.5951 -1.7520 -4.1211
 7925TIP3    H223719   5.792   2.100   3.634  0.9067 -0.6571 -1.0120
 7926TIP3   OH223720   8.403   5.574   2.096  0.4629  0.0912  0.0993
 7926TIP3    H123721   8.433   5.483   2.095  2.4412  0.7187 -1.2461
 7926TIP3    H223722   8.325   5.574   2.040 -0.6491 -1.0947  1.5939
 7927TIP3   OH223723   4.725   3.050   0.680  0.1834  0.1143  0.0478
 7927TIP3    H123724   4.792   3.012   0.737  0.3485  0.9584  0.4145
 7927TIP3    H223725   4.720   3.142   0.705 -1.2113  0.0404  0.1221
 7928TIP3   OH223726   5.329   6.227   1.608  1.0394  0.2412  0.1453
 7928TIP3    H123727   5.266   6.173   1.656 -0.4725  1.1122 -0.8149
 7928TIP3    H223728   5.409   6.174   1.606  0.7478 -0.3132  2.5317
 7929TIP3   OH223729   7.678   6.059   2.911 -0.3927 -0.0461  0.5292
 7929TIP3    H123730   7.682   6.119   2.985 -1.5926  1.1024 -0.3288
 7929TIP3    H223731   7.648   6.112   2.838 -1.0015 -1.5790 -0.3698
 7930TIP3   OH223732   7.298   4.186   1.638 -0.9887  0.5151  0.1763
 7930TIP3    H123733   7.325   4.263   1.688  0.1643  0.3129 -0.1069
 7930TIP3    H223734   7.307   4.213   1.547  0.0391 -0.1441  0.0685
 7931TIP3   OH223735   6.722   5.401   5.874 -0.2435 -0.5785  0.3246
 7931TIP3    H123736   6.700   5.320   5.828 -0.1211 -2.2097  3.0058
 7931TIP3    H223737   6.668   5.398   5.953 -0.0140  1.8407  0.5893
 7932TIP3   OH223738   7.846   3.816   2.254  0.4470  0.5204 -0.3511
 7932TIP3    H123739   7.911   3.885   2.244 -0.0160  0.7668 -1.7510
 7932TIP3    H223740   7.772   3.857   2.298  1.0613  0.3463  0.8550
 7933TIP3   OH223741   7.905   4.211   3.070  0.1618 -0.6406  0.1667
 7933TIP3    H123742   7.903   4.286   3.130 -1.1175 -0.7700  0.2898
 7933TIP3    H223743   7.833   4.226   3.009  1.3997 -0.5628 -1.3077
 7934TIP3   OH223744   6.785   4.369   3.666  0.4615 -0.2362  0.5310
 7934TIP3    H123745   6.830   4.314   3.730  3.1124  2.1681  0.8662
 7934TIP3    H223746   6.740   4.435   3.719  3.1191  2.0996 -0.0015
 7935TIP3   OH223747   7.305   6.036   2.732 -0.4260  0.6981 -0.2278
 7935TIP3    H123748   7.378   5.974   2.731 -0.3697  0.6819  1.6501
 7935TIP3    H223749   7.255   6.017   2.653  1.3810  0.4357 -1.3101
 7936TIP3   OH223750   7.296   6.657   3.184 -0.0015  0.1876  0.3129
 7936TIP3    H123751   7.289   6.578   3.131  0.7526 -0.3012  0.9362
 7936TIP3    H223752   7.331   6.723   3.125  1.3164 -0.4881  0.3296
 7937TIP3   OH223753   5.352   4.902   0.957 -0.0772 -0.5179 -0.3931
 7937TIP3    H123754   5.357   4.997   0.948  2.2265 -0.8652 -3.9955
 7937TIP3    H223755   5.422   4.879   1.017 -0.8067  0.0675  0.6908
 7938TIP3   OH223756   7.224   5.804   0.224 -0.1311 -0.3998  0.1254
 7938TIP3    H123757   7.174   5.723   0.218  1.6398 -1.5012  0.0622
 7938TIP3    H223758   7.291   5.796   0.156  0.0727  1.1158  0.1245
 7939TIP3   OH223759   8.194   6.180   1.962  0.7265 -0.2748  0.0427
 7939TIP3    H123760   8.117   6.139   2.003  1.9702 -2.2123  0.5331
 7939TIP3    H223761   8.260   6.180   2.030  2.0378 -1.2571 -1.1867
 7940TIP3   OH223762   6.027   3.120   3.997  0.6231 -0.3372 -0.1883
 7940TIP3    H123763   6.032   3.114   3.902 -0.9315  1.1927 -0.3844
 7940TIP3    H223764   6.114   3.152   4.023 -0.0093  2.5134 -1.4049
 7941TIP3   OH223765   7.469   5.066   5.230  0.3458 -0.1505  0.2407
 7941TIP3    H123766   7.405   5.135   5.249  0.8596  0.5298 -0.4535
 7941TIP3    H223767   7.426   4.985   5.256 -0.8560  0.2896 -0.3583
 7942TIP3   OH223768   5.236   3.907   1.517 -0.2513 -0.1775  0.3977
 7942TIP3    H123769   5.261   3.995   1.545 -0.7895  0.0876  0.0568
 7942TIP3    H223770   5.153   3.890   1.562  0.0499 -0.6705  0.7733
 7943TIP3   OH223771   0.475   5.133   1.333 -0.6085 -0.1695 -0.0294
 7943TIP3    H123772   0.396   5.118   1.281 -0.6882  0.4037 -0.0777
 7943TIP3    H223773   0.479   5.060   1.394  0.0217 -1.3982 -1.5077
 7944TIP3   OH223774   5.123   5.487   1.055 -0.6932  0.1900 -0.2726
 7944TIP3    H123775   5.044   5.483   1.001 -0.0913 -1.5391 -1.0895
 7944TIP3    H223776   5.124   5.403   1.100 -0.2866  0.9557  1.1507
 7945TIP3   OH223777   1.689   2.946   4.066  0.4574  0.1868  0.0523
 7945TIP3    H123778   1.717   2.961   4.156  1.9719  0.8466 -0.5178
 7945TIP3    H223779   1.645   2.861   4.068  3.2507 -1.2807  0.8296
 7946TIP3   OH223780   5.959   4.221   0.927  0.1774  0.1953 -0.3873
 7946TIP3    H123781   5.998   4.146   0.973 -0.1854  0.6124  0.6155
 7946TIP3    H223782   6.029   4.285   0.921 -0.1050  0.6196  0.6825
 7947TIP3   OH223783   6.825   5.111   1.714 -0.0884  0.3239 -0.4738
 7947TIP3    H123784   6.843   5.180   1.777  0.9518  0.2723 -0.6894
 7947TIP3    H223785   6.897   5.118   1.650 -1.2528  0.5362 -1.7798
 7948TIP3   OH223786   8.277   4.360   4.608  0.6688 -0.2044 -0.2399
 7948TIP3    H123787   8.368   4.338   4.627  0.8913  1.1361  0.2719
 7948TIP3    H223788   8.281   4.449   4.573 -0.5271  0.1500  0.5045
 7949TIP3   OH223789   1.050   1.848   1.520 -0.1884  0.3129 -0.3507
 7949TIP3    H123790   0.954   1.843   1.523 -0.0760 -1.0167  1.9865
 7949TIP3    H223791   1.079   1.768   1.563  2.0137 -0.1297 -2.5629
 7950TIP3   OH223792   5.943   2.617   3.234  0.4117  0.3813  0.1871
 7950TIP3    H123793   6.009   2.663   3.182  1.8253 -0.7850  0.9370
 7950TIP3    H223794   5.864   2.670   3.224  1.0534  0.9989 -1.9219
 7951TIP3   OH223795   2.213   0.113   3.207  0.2840  0.0547  0.1051
 7951TIP3    H123796   2.162   0.040   3.242  0.5712 -0.0367  0.3351
 7951TIP3    H223797   2.148   0.181   3.188 -0.0160 -0.3607 -0.3654
 7952TIP3   OH223798   5.994   4.174   3.076  0.4212  0.5306  0.2698
 7952TIP3    H123799   5.940   4.124   3.138 -0.0909 -1.1955 -1.5201
 7952TIP3    H223800   6.082   4.140   3.088  0.4873  0.8323  0.6650
 7953TIP3   OH223801   6.166   4.909   3.081 -0.1448  0.2082 -0.5189
 7953TIP3    H123802   6.180   4.982   3.142  2.2078  0.3955 -1.2179
 7953TIP3    H223803   6.162   4.832   3.138 -0.1087  0.6105  0.0409
 7954TIP3   OH223804   7.801   5.908   4.784 -0.4127  0.1983  0.9473
 7954TIP3    H123805   7.841   5.829   4.746  0.0431  0.6123  0.5516
 7954TIP3    H223806   7.764   5.879   4.867 -1.3395 -0.7064  0.2328
 7955TIP3   OH223807   4.377   0.545   6.698 -0.2159 -0.3610  0.3610
 7955TIP3    H123808   4.463   0.504   6.699 -0.8219 -1.7035 -0.0655
 7955TIP3    H223809   4.344   0.529   6.609 -1.8737 -2.0251  1.2393
 7956TIP3   OH223810   8.334   5.805   4.304 -0.3061 -0.3214  0.0799
 7956TIP3    H123811   8.405   5.780   4.363 -0.7236  3.0545  2.1554
 7956TIP3    H223812   8.365   5.884   4.260 -1.6297 -0.4764 -1.1920
 7957TIP3   OH223813   2.406   2.208   6.103 -0.7058 -0.7921  0.1658
 7957TIP3    H123814   2.409   2.116   6.074  0.5028 -0.4515 -0.7977
 7957TIP3    H223815   2.447   2.207   6.189 -0.3986 -1.0982  0.0183
 7958TIP3   OH223816   6.909   6.005   4.355  0.3055 -0.5165 -0.5000
 7958TIP3    H123817   6.828   5.994   4.305 -1.0608  2.7151  0.8602
 7958TIP3    H223818   6.936   6.095   4.336  2.4367 -0.8710  0.7486
 7959TIP3   OH223819   5.301   3.230   1.502 -0.3115  0.0182  0.5561
 7959TIP3    H123820   5.289   3.138   1.526  1.0928 -0.1622  0.6468
 7959TIP3    H223821   5.297   3.277   1.585 -1.0864  0.0457  0.5034
 7960TIP3   OH223822   6.439   3.386   1.580  0.2226 -0.2497  0.4227
 7960TIP3    H123823   6.456   3.306   1.531  2.2103  0.5929 -0.2919
 7960TIP3    H223824   6.476   3.456   1.527 -0.7463  1.0750  1.4371
 7961TIP3   OH223825   6.705   4.336   3.132  0.1426  0.0840 -0.3272
 7961TIP3    H123826   6.761   4.400   3.087  1.6325 -0.8735  0.1301
 7961TIP3    H223827   6.741   4.330   3.220 -2.0262  1.0499  0.6692
 7962TIP3   OH223828   0.479   5.171   2.017  0.4247 -0.1061  0.1411
 7962TIP3    H123829   0.497   5.104   1.951 -1.3952  0.0503 -0.5596
 7962TIP3    H223830   0.493   5.127   2.101  1.5847 -0.6573 -0.3355
 7963TIP3   OH223831   8.228   4.653   3.133  0.7150  0.2252 -0.1185
 7963TIP3    H123832   8.154   4.695   3.089  1.1879 -1.1914 -2.3167
 7963TIP3    H223833   8.258   4.718   3.196 -1.2504  1.5168 -0.4577
 7964TIP3   OH223834   7.779   3.129   4.776  0.6709 -0.1760  0.8970
 7964TIP3    H123835   7.816   3.215   4.755 -1.2774  0.3230 -0.6229
 7964TIP3    H223836   7.765   3.132   4.871 -0.9712  1.8719  0.6439
 7965TIP3   OH223837   7.057   5.291   2.421 -0.2636 -0.2358 -0.0337
 7965TIP3    H123838   6.981   5.288   2.480  0.7213  0.4229  1.3099
 7965TIP3    H223839   7.115   5.223   2.455  0.2520  0.0515 -0.3423
 7966TIP3   OH223840   6.746   3.626   0.888  0.2023 -0.1616  0.1840
 7966TIP3    H123841   6.740   3.721   0.894 -0.5261 -0.3362  2.7016
 7966TIP3    H223842   6.662   3.594   0.919  0.2619 -1.6272 -1.0998
 7967TIP3   OH223843   0.090   5.870   2.411  0.5753  0.6534 -0.1223
 7967TIP3    H123844   0.081   5.784   2.370  1.0414  0.7085 -0.3508
 7967TIP3    H223845   0.162   5.860   2.473 -0.3595  0.4767  0.9533
 7968TIP3   OH223846   6.441   4.520   3.962  0.6063  0.0928 -0.6307
 7968TIP3    H123847   6.410   4.446   4.014  0.7566  0.9095  0.6552
 7968TIP3    H223848   6.405   4.505   3.874 -2.7191  0.5208  0.5761
 7969TIP3   OH223849   7.245   4.097   3.581  0.0258  0.0634 -0.3552
 7969TIP3    H123850   7.161   4.138   3.603 -0.2984 -1.7952  2.1043
 7969TIP3    H223851   7.311   4.154   3.622 -0.1827  0.3415 -0.4081
 7970TIP3   OH223852   5.249   5.064   0.751  0.7490 -0.3220 -0.0085
 7970TIP3    H123853   5.201   4.988   0.718 -1.3768  1.5817 -1.5101
 7970TIP3    H223854   5.186   5.136   0.745  2.8498  1.6685  0.9297
 7971TIP3   OH223855   8.028   5.405   3.054 -0.0324 -0.1224  0.3380
 7971TIP3    H123856   8.032   5.330   3.115 -0.5284 -0.9283 -0.6111
 7971TIP3    H223857   8.048   5.367   2.969 -0.6290  0.7748 -0.2045
 7972TIP3   OH223858   6.821   6.588   3.742 -0.2472  0.1436  0.3555
 7972TIP3    H123859   6.884   6.656   3.764 -0.2480  0.6099 -1.0791
 7972TIP3    H223860   6.874   6.510   3.724 -0.2267 -0.1394  1.5462
 7973TIP3   OH223861   6.790   2.824   3.488 -0.5409  0.5206 -0.0523
 7973TIP3    H123862   6.885   2.816   3.495 -0.5838 -0.0072 -0.0645
 7973TIP3    H223863   6.765   2.872   3.567 -0.3397  0.0448  0.3048
 7974TIP3   OH223864   6.616   3.102   4.434  0.7804  0.1825  0.3457
 7974TIP3    H123865   6.653   3.049   4.364 -0.2376 -1.9487  1.3723
 7974TIP3    H223866   6.531   3.131   4.401  1.0584  0.6449  0.0338
 7975TIP3   OH223867   7.288   3.896   1.672 -0.5563  0.0198  0.3284
 7975TIP3    H123868   7.199   3.901   1.706 -0.3571  0.1945  0.8324
 7975TIP3    H223869   7.313   3.987   1.655 -0.2116  0.0312  0.8838
 7976TIP3   OH223870   1.017   4.004   2.858  0.3423 -0.1091 -0.0160
 7976TIP3    H123871   0.929   3.983   2.826 -0.0259  0.9026  0.3075
 7976TIP3    H223872   1.064   4.035   2.780  0.1495  0.1434 -0.0347
 7977TIP3   OH223873   7.558   5.604   4.363  0.2774 -0.3172  0.2975
 7977TIP3    H123874   7.528   5.678   4.310 -2.5447 -0.7282  1.2193
 7977TIP3    H223875   7.509   5.529   4.331  1.2441 -1.3010  1.0617
 7978TIP3   OH223876   7.092   5.180   3.076 -0.5707 -0.1523 -0.0399
 7978TIP3    H123877   7.138   5.103   3.109 -0.3164  0.0083 -0.0162
 7978TIP3    H223878   7.159   5.248   3.070 -0.1116 -0.8102 -3.0953
 7979TIP3   OH223879   2.921   4.251   1.629  0.2209 -0.0917  0.0108
 7979TIP3    H123880   3.016   4.242   1.621  0.1263 -0.4832 -0.6337
 7979TIP3    H223881   2.893   4.289   1.546 -0.0207  1.3796  0.7340
 7980TIP3   OH223882   6.666   3.611   2.385  0.2609  0.6111  0.0364
 7980TIP3    H123883   6.727   3.577   2.320 -1.2698  0.7965 -1.5456
 7980TIP3    H223884   6.611   3.536   2.409 -1.0255  1.1745 -1.0544
 7981TIP3   OH223885   5.256   4.466   1.996 -0.0109 -0.2724 -0.3443
 7981TIP3    H123886   5.203   4.394   1.962  0.3455  0.0671 -1.6624
 7981TIP3    H223887   5.200   4.543   1.991 -0.2725 -0.3930  0.7297
 7982TIP3   OH223888   5.753   5.404   0.854 -0.4767  0.0945  0.0094
 7982TIP3    H123889   5.787   5.386   0.941  0.5296  2.3372  0.1194
 7982TIP3    H223890   5.692   5.332   0.836 -0.7115 -0.3828  2.5481
 7983TIP3   OH223891   7.714   4.794   1.522 -0.0238  0.1166 -0.7250
 7983TIP3    H123892   7.766   4.874   1.532  1.1347 -0.7799  0.5633
 7983TIP3    H223893   7.708   4.781   1.427  2.3925  0.0492 -0.8925
 7984TIP3   OH223894   7.752   6.531   3.343  0.1867 -0.5089  0.4500
 7984TIP3    H123895   7.685   6.463   3.354 -0.9238  0.9266  3.2350
 7984TIP3    H223896   7.705   6.606   3.306  1.3698 -1.1310 -2.4404
 7985TIP3   OH223897   8.329   4.177   2.506 -0.2468 -0.4886 -0.3032
 7985TIP3    H123898   8.332   4.248   2.442  0.0960 -0.7731 -0.6019
 7985TIP3    H223899   8.380   4.210   2.580  1.3632 -1.0849 -1.1210
 7986TIP3   OH223900   7.194   6.777   3.661 -0.2580  0.1037 -0.2053
 7986TIP3    H123901   7.196   6.750   3.569 -0.7849 -0.3180 -0.0962
 7986TIP3    H223902   7.196   6.695   3.710 -1.0943  0.2880  0.1447
 7987TIP3   OH223903   7.693   4.572   2.835 -0.7431  0.0660  0.4548
 7987TIP3    H123904   7.653   4.658   2.822 -1.5031 -0.2188  0.8572
 7987TIP3    H223905   7.768   4.571   2.776 -1.7997  0.3064 -0.9181
 7988TIP3   OH223906   7.292   3.778   3.666  0.2527 -0.1947  0.4199
 7988TIP3    H123907   7.292   3.867   3.703  0.6265 -0.1409  0.2912
 7988TIP3    H223908   7.202   3.748   3.677  0.0026  0.3980 -0.0171
 7989TIP3   OH223909   5.189   3.778   4.096 -0.4457  0.0957 -0.3938
 7989TIP3    H123910   5.138   3.853   4.063 -0.7685  1.8407  3.7341
 7989TIP3    H223911   5.123   3.716   4.126 -0.2457  1.0918  2.2551
 7990TIP3   OH223912   7.772   3.092   2.273  0.5671  0.4548  0.5762
 7990TIP3    H123913   7.823   3.012   2.280  1.7129  1.0941 -0.2191
 7990TIP3    H223914   7.711   3.089   2.346  0.6603 -1.0930  0.6039
 7991TIP3   OH223915   6.098   3.390   5.339  0.3867 -0.0814  0.4731
 7991TIP3    H123916   6.075   3.298   5.352 -2.4753  0.7091  1.1927
 7991TIP3    H223917   6.055   3.415   5.257  1.8079  0.4202 -0.1389
 7992TIP3   OH223918   6.217   3.784   4.059  0.0409  0.0254  0.0266
 7992TIP3    H123919   6.271   3.849   4.105  0.2696  0.1787 -0.4591
 7992TIP3    H223920   6.267   3.703   4.065  0.4983  0.2536 -0.7513
 7993TIP3   OH223921   5.986   3.075   2.127 -0.1328  0.3213 -0.3072
 7993TIP3    H123922   6.073   3.069   2.167 -0.1252  1.6005 -0.1118
 7993TIP3    H223923   5.954   3.162   2.152 -0.6734  0.6084 -1.9857
 7994TIP3   OH223924   5.574   3.787   1.361 -0.1372 -0.0326  0.4111
 7994TIP3    H123925   5.567   3.741   1.444 -0.7770 -1.9056 -0.6612
 7994TIP3    H223926   5.489   3.774   1.319  0.2661  0.7008 -0.6499
 7995TIP3   OH223927   7.588   4.271   4.196  0.0604 -0.5553  0.0792
 7995TIP3    H123928   7.665   4.216   4.181  2.9524  3.0525  0.9442
 7995TIP3    H223929   7.542   4.230   4.270  2.9188 -1.0232  1.6493
 7996TIP3   OH223930   7.966   4.646   6.645 -0.6187 -0.0353 -0.6178
 7996TIP3    H123931   7.913   4.717   6.682  0.3446  0.2330  0.2773
 7996TIP3    H223932   7.968   4.580   6.714  1.9943  0.8777  0.2270
 7997TIP3   OH223933   6.826   3.866   3.755  0.5962  0.7629 -0.7671
 7997TIP3    H123934   6.742   3.829   3.782  1.1765  1.1875  1.7544
 7997TIP3    H223935   6.884   3.790   3.748  1.2834  0.9082  2.5155
 7998TIP3   OH223936   0.460   7.500   4.764  0.3717  0.4734 -0.1484
 7998TIP3    H123937   0.457   7.411   4.729  2.2113 -0.0596  0.9695
 7998TIP3    H223938   0.420   7.554   4.696 -2.1690 -1.3899 -0.1817
 7999TIP3   OH223939   7.134   5.424   3.650  0.1440  0.7239 -0.3403
 7999TIP3    H123940   7.157   5.379   3.731 -0.5744 -0.8970 -1.0020
 7999TIP3    H223941   7.041   5.445   3.660  0.5871  2.5492  0.1679
 8000TIP3   OH223942   7.746   5.399   3.648 -0.4188 -0.0388 -0.1010
 8000TIP3    H123943   7.675   5.368   3.590  1.2091 -1.4160 -1.4276
 8000TIP3    H223944   7.726   5.360   3.733 -0.9514 -0.8876 -0.6057
 8001TIP3   OH223945   6.532   3.829   0.981 -0.0855  0.2460  0.4030
 8001TIP3    H123946   6.470   3.878   0.927  0.6870  0.3236 -0.4181
 8001TIP3    H223947   6.542   3.882   1.060  0.9044  1.5560 -0.5620
 8002TIP3   OH223948   0.302   6.701   2.536  0.8102 -0.2522 -0.1015
 8002TIP3    H123949   0.343   6.625   2.578  0.3847  0.2317  1.2037
 8002TIP3    H223950   0.222   6.716   2.586 -0.8208 -0.9842 -2.4407
 8003TIP3   OH223951   0.412   6.482   2.655  0.0475  0.1011  0.3708
 8003TIP3    H123952   0.470   6.472   2.580  1.9174 -1.7097  2.0052
 8003TIP3    H223953   0.354   6.406   2.651  0.0056  0.1184  0.6453
 8004TIP3   OH223954   6.129   5.596   3.653 -0.4782 -0.3320 -0.2415
 8004TIP3    H123955   6.102   5.681   3.687  0.2064  0.2856 -1.2174
 8004TIP3    H223956   6.049   5.544   3.653 -0.7152  0.0061  1.2205
 8005TIP3   OH223957   7.546   6.062   3.451  0.5902 -0.2615  0.0327
 8005TIP3    H123958   7.476   6.052   3.386  0.9490 -0.1706 -0.3706
 8005TIP3    H223959   7.570   5.972   3.475 -0.2289 -0.2830  0.7833
 8006TIP3   OH223960   6.438   5.437   1.134  0.4250 -0.1885 -0.2497
 8006TIP3    H123961   6.479   5.512   1.177  0.5407  0.7667 -1.9543
 8006TIP3    H223962   6.344   5.448   1.150  0.5569 -0.4599  0.7029
 8007TIP3   OH223963   5.371   2.219   3.562 -0.1969  0.6759  0.6177
 8007TIP3    H123964   5.311   2.173   3.621 -1.2381  0.9211 -0.2265
 8007TIP3    H223965   5.441   2.156   3.545 -0.3714  0.2693  1.3610
 8008TIP3   OH223966   0.198   3.782   5.749 -0.1885  0.2602  0.2905
 8008TIP3    H123967   0.154   3.699   5.762  1.4434 -0.4701  1.2873
 8008TIP3    H223968   0.268   3.763   5.686  1.4762  0.3819  2.0497
 8009TIP3   OH223969   5.830   3.926   2.375 -0.0846  0.6228  0.1096
 8009TIP3    H123970   5.787   3.868   2.438 -0.5608  0.1620 -0.6123
 8009TIP3    H223971   5.923   3.917   2.393 -0.1045 -0.9230 -0.4341
 8010TIP3   OH223972   7.852   4.161   3.741 -0.4013  0.0474 -0.1278
 8010TIP3    H123973   7.831   4.084   3.690  1.3019 -1.0098  0.7010
 8010TIP3    H223974   7.885   4.127   3.824 -0.1116  1.6587  0.4499
 8011TIP3   OH223975   5.682   3.953   0.954 -0.4659 -0.4485  0.1973
 8011TIP3    H123976   5.604   3.910   0.988 -0.6841 -0.8397 -0.7635
 8011TIP3    H223977   5.704   4.019   1.019 -3.0931  1.4340 -0.7422
 8012TIP3   OH223978   6.415   5.788   2.640  0.2638 -0.1559 -0.2235
 8012TIP3    H123979   6.462   5.816   2.719  1.1096 -0.1054 -0.7364
 8012TIP3    H223980   6.324   5.815   2.655  0.6640  1.0268  0.1834
 8013TIP3   OH223981   7.750   4.112   2.600 -0.0664  0.1295 -0.4977
 8013TIP3    H123982   7.696   4.080   2.672 -0.8311  0.8329 -0.7564
 8013TIP3    H223983   7.799   4.185   2.637  2.2747 -1.7855  0.3161
 8014TIP3   OH223984   0.066   3.527   3.648 -0.0054  0.1035 -0.0467
 8014TIP3    H123985   0.009   3.588   3.695 -0.0377  0.7242 -0.8725
 8014TIP3    H223986   0.047   3.442   3.687 -1.4250  0.3202 -0.2366
 8015TIP3   OH223987   7.550   3.983   1.761 -0.3164 -0.1100 -0.4035
 8015TIP3    H123988   7.481   3.919   1.781  0.1430  0.2186  2.5183
 8015TIP3    H223989   7.523   4.062   1.808  2.3296 -0.1625  1.3063
 8016TIP3   OH223990   7.400   4.421   1.445 -0.4676  0.0185  0.1847
 8016TIP3    H123991   7.343   4.359   1.399 -0.4076  0.8092 -0.9772
 8016TIP3    H223992   7.484   4.375   1.452 -1.1103 -0.9797  1.5190
 8017TIP3   OH223993   5.909   5.519   4.291  0.0656  0.0480  0.0761
 8017TIP3    H123994   5.931   5.426   4.291  1.6916  0.4233 -0.0276
 8017TIP3    H223995   5.911   5.544   4.384  0.4016  0.1573  0.0391
 8018TIP3   OH223996   6.659   4.329   5.218 -0.4688 -0.3985  0.1772
 8018TIP3    H123997   6.653   4.235   5.205 -0.3651 -0.1393 -2.0828
 8018TIP3    H223998   6.572   4.355   5.249 -1.2770 -0.9149 -1.6074
 8019TIP3   OH223999   5.116   4.152   2.571 -0.4228 -0.0963  0.3123
 8019TIP3    H124000   5.139   4.244   2.581  1.1405 -0.3985 -0.4452
 8019TIP3    H224001   5.116   4.138   2.476 -0.0247 -1.0445  0.4543
 8020TIP3   OH224002   7.540   6.373   2.554 -0.1378  0.1072 -0.1545
 8020TIP3    H124003   7.511   6.464   2.546 -0.5221 -0.0865 -0.9798
 8020TIP3    H224004   7.597   6.358   2.479  0.9887  0.0523  0.6926
 8021TIP3   OH224005   7.468   7.424   3.815 -0.0697 -0.2290 -0.1903
 8021TIP3    H124006   7.491   7.431   3.723 -0.2289  0.0376 -0.2097
 8021TIP3    H224007   7.407   7.496   3.831 -1.1649 -1.1302 -0.2118
 8022TIP3   OH224008   0.708   4.638   4.686  0.0493 -0.3776 -0.1396
 8022TIP3    H124009   0.772   4.702   4.718 -0.7380 -0.1746  1.0534
 8022TIP3    H224010   0.739   4.615   4.598  0.8655  0.9252 -0.2079
 8023TIP3   OH224011   1.415   6.317   4.400  0.5550  0.4837  0.2719
 8023TIP3    H124012   1.401   6.290   4.310  1.2397  1.4845 -0.1391
 8023TIP3    H224013   1.330   6.350   4.429  0.6783  1.4530 -0.4555
 8024TIP3   OH224014   0.023   6.007   4.233 -0.4733  0.3030 -0.0299
 8024TIP3    H124015   0.041   5.969   4.319  0.1266  1.1112  0.2125
 8024TIP3    H224016   0.103   6.055   4.211 -0.3913 -0.3848 -1.3075
 8025TIP3   OH224017   0.660   5.825   6.201 -0.4206  0.0743  0.7915
 8025TIP3    H124018   0.573   5.845   6.236 -0.6986 -1.1566  0.8514
 8025TIP3    H224019   0.661   5.869   6.116 -0.7078  0.9590  1.2398
 8026TIP3   OH224020   2.839   6.453   3.407  0.0179 -0.3143  0.3404
 8026TIP3    H124021   2.909   6.519   3.409 -0.8012  0.5712 -0.1661
 8026TIP3    H224022   2.838   6.422   3.317 -0.3433 -0.2234  0.3137
 8027TIP3   OH224023   1.312   4.970   4.698  0.0576 -0.0192  0.8916
 8027TIP3    H124024   1.403   4.951   4.676 -0.8400  0.1371 -3.3462
 8027TIP3    H224025   1.291   5.049   4.648 -2.5575 -0.3146  1.4488
 8028TIP3   OH224026   2.403   4.657   2.633  0.2009  0.3995 -0.2165
 8028TIP3    H124027   2.442   4.599   2.699 -0.6670 -0.6807 -0.6332
 8028TIP3    H224028   2.447   4.741   2.645 -0.6198  0.4934  2.3614
 8029TIP3   OH224029   2.821   6.114   4.132 -0.2852 -0.3958 -0.0512
 8029TIP3    H124030   2.759   6.146   4.067  0.2113  0.8682  0.0936
 8029TIP3    H224031   2.778   6.127   4.216  0.0245  0.1346  0.0255
 8030TIP3   OH224032   6.547   5.929   2.039  0.0673  0.4628  0.2646
 8030TIP3    H124033   6.513   5.842   2.018  0.0346  0.6544 -0.4873
 8030TIP3    H224034   6.472   5.988   2.028  0.6893  0.9249 -1.6858
 8031TIP3   OH224035   7.895   5.595   2.346  0.2038  0.1692 -0.5617
 8031TIP3    H124036   7.954   5.541   2.400  0.2273 -0.1580 -0.9091
 8031TIP3    H224037   7.848   5.531   2.291 -0.5606  0.4195 -0.2029
 8032TIP3   OH224038   7.167   6.468   5.151  0.3495  0.3086  0.2518
 8032TIP3    H124039   7.257   6.493   5.129  0.1385  0.5430 -0.3703
 8032TIP3    H224040   7.151   6.507   5.236  1.0706 -0.3018  0.6732
 8033TIP3   OH224041   0.243   3.977   5.505 -0.0662 -0.0987 -0.8913
 8033TIP3    H124042   0.281   3.898   5.465  1.1277 -0.0535  0.1212
 8033TIP3    H224043   0.267   3.971   5.597 -1.4687  0.5853 -0.4676
 8034TIP3   OH224044   8.220   6.171   5.574  0.4377  0.2089  0.2229
 8034TIP3    H124045   8.184   6.116   5.643 -0.0016 -1.9100 -1.6463
 8034TIP3    H224046   8.244   6.110   5.504  0.5066  2.3076 -1.6547
 8035TIP3   OH224047   7.164   6.004   5.031  0.6295 -0.1519 -0.0310
 8035TIP3    H124048   7.112   6.081   5.053  0.2023 -0.3622 -0.2913
 8035TIP3    H224049   7.233   6.038   4.973  0.1321 -0.0450 -0.5709
 8036TIP3   OH224050   0.541   5.483   5.542 -0.1325  0.4976 -0.2891
 8036TIP3    H124051   0.500   5.398   5.551 -1.1159  1.0908  0.9671
 8036TIP3    H224052   0.589   5.495   5.624  1.9405  0.1521 -1.4118
 8037TIP3   OH224053   0.127   6.505   2.922  0.1592  0.0404 -0.0122
 8037TIP3    H124054   0.161   6.553   2.997  2.0135  0.8038 -1.2813
 8037TIP3    H224055   0.144   6.413   2.942 -0.5897  0.1265  1.0690
 8038TIP3   OH224056   8.404   6.051   3.982 -0.6659 -0.4635 -0.0380
 8038TIP3    H124057   8.437   6.022   4.066  2.4239  0.9043 -0.7348
 8038TIP3    H224058   8.387   5.971   3.933  1.0783 -1.1936  0.5572
 8039TIP3   OH224059   6.902   6.058   3.415 -0.4520 -0.7511 -0.2299
 8039TIP3    H124060   6.962   6.132   3.422 -1.3489 -0.0189 -0.1910
 8039TIP3    H224061   6.840   6.084   3.347 -1.8802 -0.6635  1.0709
 8040TIP3   OH224062   2.700   5.646   3.335  0.1695 -0.3056 -0.1824
 8040TIP3    H124063   2.767   5.714   3.342  0.0494 -0.2526  0.5205
 8040TIP3    H224064   2.650   5.669   3.257 -0.0329  0.5748  0.1957
 8041TIP3   OH224065   8.093   4.405   4.309 -0.7333 -0.0547 -0.4798
 8041TIP3    H124066   8.163   4.470   4.312  1.2234 -2.1479 -0.0303
 8041TIP3    H224067   8.013   4.457   4.319  0.6894  2.4274 -1.5170
 8042TIP3   OH224068   1.927   5.510   4.103 -0.3508 -0.2479 -0.0233
 8042TIP3    H124069   1.940   5.454   4.027  0.7287 -0.0101 -0.0174
 8042TIP3    H224070   1.838   5.544   4.093  0.0332  0.3127 -1.5153
 8043TIP3   OH224071   8.109   7.089   3.803 -0.2274  0.1518 -0.1884
 8043TIP3    H124072   8.102   6.994   3.811  2.0662 -0.1089 -1.0413
 8043TIP3    H224073   8.119   7.120   3.893 -0.9244 -0.3971  0.0869
 8044TIP3   OH224074   0.546   6.287   4.426 -0.4235 -0.0778  0.1721
 8044TIP3    H124075   0.524   6.282   4.333  2.0664 -1.0663 -0.3759
 8044TIP3    H224076   0.461   6.286   4.470 -1.5643 -2.4678 -1.9480
 8045TIP3   OH224077   7.281   5.084   2.038 -0.0463 -0.3290 -0.3574
 8045TIP3    H124078   7.326   5.082   2.123  0.5541  0.0966 -0.6652
 8045TIP3    H224079   7.191   5.060   2.059 -0.0212  0.2870  0.4809
 8046TIP3   OH224080   6.122   7.537   5.269  0.6048  0.4167 -0.7928
 8046TIP3    H124081   6.113   7.601   5.199  2.9748  1.5979 -0.0987
 8046TIP3    H224082   6.204   7.492   5.249  0.8960  0.2291  0.7689
 8047TIP3   OH224083   1.299   6.771   4.878  0.3840  0.0373 -0.9375
 8047TIP3    H124084   1.392   6.761   4.897  0.0253 -0.2975  0.7508
 8047TIP3    H224085   1.287   6.866   4.867  0.6522  0.2526  0.4640
 8048TIP3   OH224086   7.513   6.341   3.739  0.0462  0.0231 -0.2019
 8048TIP3    H124087   7.569   6.405   3.695 -0.5734 -0.1057 -1.1892
 8048TIP3    H224088   7.431   6.342   3.689  0.3332 -2.1521 -0.7569
 8049TIP3   OH224089   8.090   5.707   3.925  0.5543  0.0066  0.5040
 8049TIP3    H124090   8.025   5.770   3.897 -1.0393 -2.0934 -0.7005
 8049TIP3    H224091   8.174   5.744   3.897 -0.4640  0.9315 -1.3735
 8050TIP3   OH224092   5.466   1.608   0.784  0.0119  0.1640 -0.6173
 8050TIP3    H124093   5.387   1.630   0.833 -0.2081  0.4575 -1.1000
 8050TIP3    H224094   5.439   1.536   0.727 -0.0880  0.7322 -1.2835
 8051TIP3   OH224095   1.067   5.433   3.766 -0.1329 -0.1552  0.0548
 8051TIP3    H124096   1.055   5.339   3.754  1.7938 -0.4117  0.0104
 8051TIP3    H224097   1.155   5.442   3.803 -0.5700  1.5851  0.7326
 8052TIP3   OH224098   1.872   5.440   4.717  0.1420  0.3073  0.4320
 8052TIP3    H124099   1.944   5.401   4.667  0.1406  0.1805  0.5290
 8052TIP3    H224100   1.915   5.490   4.786  0.1288 -0.4805  1.0262
 8053TIP3   OH224101   0.877   5.956   3.312 -0.1054  0.1504 -0.5405
 8053TIP3    H124102   0.945   5.910   3.263 -1.5173 -1.3738 -1.1166
 8053TIP3    H224103   0.893   5.934   3.403 -0.0448 -0.5192 -0.7123
 8054TIP3   OH224104   6.527   6.111   4.404 -0.5251  0.3039  0.3841
 8054TIP3    H124105   6.535   6.031   4.352 -0.0050 -0.5519  1.7601
 8054TIP3    H224106   6.515   6.180   4.339  1.4930 -0.5703 -0.9749
 8055TIP3   OH224107   0.195   5.491   5.178 -0.0549 -0.5993  0.2768
 8055TIP3    H124108   0.230   5.538   5.253  2.0216 -0.8238 -0.5104
 8055TIP3    H224109   0.103   5.517   5.173  0.2958  0.9459  1.7035
 8056TIP3   OH224110   1.178   6.637   6.004 -0.2571 -0.1941 -0.3979
 8056TIP3    H124111   1.263   6.634   5.961 -2.2179 -1.0874 -4.4316
 8056TIP3    H224112   1.115   6.619   5.934 -3.8150  1.0371  2.3511
 8057TIP3   OH224113   0.968   6.487   4.570 -0.7904 -0.5015 -0.4859
 8057TIP3    H124114   0.884   6.507   4.529 -1.0134 -0.2507  0.0798
 8057TIP3    H224115   0.954   6.506   4.663  0.1179  0.2627 -0.4933
 8058TIP3   OH224116   1.453   6.217   4.666 -0.3981  0.3693 -0.1884
 8058TIP3    H124117   1.497   6.292   4.706 -1.2097  0.4035  0.6712
 8058TIP3    H224118   1.427   6.247   4.579 -0.4409  0.9901  0.0361
 8059TIP3   OH224119   8.409   5.513   5.105  0.3294 -0.6804 -0.2361
 8059TIP3    H124120   8.326   5.549   5.138 -1.0750 -2.3287 -1.8104
 8059TIP3    H224121   8.414   5.545   5.015  0.1036 -2.6741 -0.9799
 8060TIP3   OH224122   7.811   4.924   2.260  0.0879  0.7745  0.1344
 8060TIP3    H124123   7.787   4.832   2.262  1.8079  0.3104  0.9173
 8060TIP3    H224124   7.821   4.945   2.167  0.8044 -0.1482 -0.0049
 8061TIP3   OH224125   0.022   6.790   5.048  0.3829 -0.0325 -0.0962
 8061TIP3    H124126   0.070   6.762   5.126  1.4067  2.3713  0.1864
 8061TIP3    H224127  -0.017   6.874   5.073  0.7018  0.7584 -2.1640
 8062TIP3   OH224128   8.017   7.508   4.966  0.2637  0.1559  0.0734
 8062TIP3    H124129   8.030   7.534   5.057 -0.5322  0.4124  0.1106
 8062TIP3    H224130   7.980   7.585   4.923  0.8732  0.1231 -0.5332
 8063TIP3   OH224131   7.329   7.644   4.967  0.1901  0.3996 -0.1580
 8063TIP3    H124132   7.379   7.695   5.029 -1.1614 -0.2367  1.5030
 8063TIP3    H224133   7.386   7.570   4.945  0.1146 -0.1844  1.5152
 8064TIP3   OH224134   0.456   4.581   5.250 -1.3095  0.2539  0.6318
 8064TIP3    H124135   0.473   4.582   5.344 -2.5062 -2.6950  0.9105
 8064TIP3    H224136   0.493   4.498   5.220 -2.8088  0.2191 -1.1510
 8065TIP3   OH224137   0.540   6.183   2.692 -0.2295  0.6300 -0.0542
 8065TIP3    H124138   0.595   6.224   2.625 -0.9128  3.0783  0.8147
 8065TIP3    H224139   0.592   6.189   2.772 -1.1608  1.7368  0.4936
 8066TIP3   OH224140   1.484   4.938   5.619  0.1482 -0.1518  0.4140
 8066TIP3    H124141   1.414   4.993   5.584  0.7467 -0.4065 -1.2720
 8066TIP3    H224142   1.537   4.916   5.542  1.2230 -1.1861  1.4277
 8067TIP3   OH224143   0.442   5.153   4.171 -0.2706  0.0673  0.0476
 8067TIP3    H124144   0.416   5.230   4.222 -1.5724 -0.7573  0.6544
 8067TIP3    H224145   0.425   5.079   4.229 -0.7705 -0.8173 -1.2028
 8068TIP3   OH224146   1.317   4.985   2.361 -0.0074 -0.0976 -0.2644
 8068TIP3    H124147   1.398   5.033   2.378  0.5481 -1.1763  0.2348
 8068TIP3    H224148   1.347   4.897   2.337 -0.9983 -0.1691 -1.2525
 8069TIP3   OH224149   0.983   5.136   3.750 -0.0836 -0.0665 -0.6459
 8069TIP3    H124150   0.998   5.042   3.735 -1.8427 -0.2094 -1.6362
 8069TIP3    H224151   0.894   5.140   3.786 -0.2172  1.2834 -1.1193
 8070TIP3   OH224152   2.159   5.716   5.528 -0.0002  0.1536  0.4152
 8070TIP3    H124153   2.225   5.672   5.582 -1.0425 -1.2989  0.5282
 8070TIP3    H224154   2.076   5.694   5.568 -0.6339  1.1703 -0.3092
 8071TIP3   OH224155   4.084   5.982   4.103  0.1949 -0.2102  0.1775
 8071TIP3    H124156   4.175   6.009   4.089 -0.0081  0.1386 -0.4673
 8071TIP3    H224157   4.087   5.886   4.095  0.5380 -0.2157  0.3454
 8072TIP3   OH224158   2.898   6.397   4.468  0.2119 -0.3756 -0.5734
 8072TIP3    H124159   2.962   6.449   4.516 -0.8235  0.2475  0.1341
 8072TIP3    H224160   2.939   6.382   4.382  1.9579 -1.2750  0.3765
 8073TIP3   OH224161   8.018   6.236   2.777  0.1250 -0.2058  0.0220
 8073TIP3    H124162   7.950   6.303   2.788 -1.1134 -1.4528  0.1160
 8073TIP3    H224163   7.982   6.159   2.820  2.3196 -0.4402  1.5050
 8074TIP3   OH224164   2.297   5.191   6.431  0.4283  0.0445  0.1939
 8074TIP3    H124165   2.342   5.109   6.451 -0.2314 -0.0028  1.5285
 8074TIP3    H224166   2.303   5.241   6.512 -0.5085  0.6979 -0.1428
 8075TIP3   OH224167   1.826   5.840   5.189  0.6184 -0.2040 -0.6356
 8075TIP3    H124168   1.894   5.896   5.151  0.8025 -0.2442 -0.3651
 8075TIP3    H224169   1.800   5.782   5.117  0.2792  0.3686 -0.9709
 8076TIP3   OH224170   8.186   4.519   3.605 -0.4429 -0.0303  0.4807
 8076TIP3    H124171   8.127   4.447   3.586  0.0451  0.0042 -1.2574
 8076TIP3    H224172   8.166   4.544   3.695 -0.1459 -2.7558  1.3349
 8077TIP3   OH224173   2.227   6.627   6.737 -0.2594 -0.4216  0.4134
 8077TIP3    H124174   2.162   6.598   6.672  0.4744  0.2210 -0.6355
 8077TIP3    H224175   2.199   6.587   6.819 -1.1420 -1.3524 -0.3267
 8078TIP3   OH224176   7.292   7.736   2.614 -0.0489  0.4096  0.3320
 8078TIP3    H124177   7.341   7.686   2.679  2.4307  1.3642 -0.7171
 8078TIP3    H224178   7.279   7.675   2.541 -1.1446 -0.0787  0.9206
 8079TIP3   OH224179   0.717   6.522   4.453  0.6201 -0.3069 -0.2270
 8079TIP3    H124180   0.697   6.430   4.470  1.4887 -0.6161 -0.8747
 8079TIP3    H224181   0.642   6.554   4.402  0.3037 -0.6449  0.0248
 8080TIP3   OH224182   2.243   4.424   4.714 -0.0193  0.0213 -0.0671
 8080TIP3    H124183   2.165   4.481   4.718 -0.7156 -1.0018  1.5627
 8080TIP3    H224184   2.210   4.337   4.737  1.4485 -0.6148 -0.3234
 8081TIP3   OH224185   6.616   5.749   3.771  0.5619  0.4038  0.3653
 8081TIP3    H124186   6.551   5.809   3.807 -0.2639  0.7254 -1.5873
 8081TIP3    H224187   6.663   5.800   3.705  1.1213 -0.5249  0.0287
 8082TIP3   OH224188   6.180   5.481   2.061 -0.2251  0.1353 -0.1100
 8082TIP3    H124189   6.219   5.523   2.137  0.4834 -0.2628 -0.2519
 8082TIP3    H224190   6.192   5.544   1.990 -0.0168  0.0982 -0.1078
 8083TIP3   OH224191   1.779   4.635   4.331  0.1310 -0.1532 -0.2962
 8083TIP3    H124192   1.770   4.551   4.286 -0.1128 -1.0494  1.3887
 8083TIP3    H224193   1.689   4.660   4.354  0.0328  1.3963 -2.2286
 8084TIP3   OH224194   7.154   3.034   4.404 -0.8453  0.4262 -0.0200
 8084TIP3    H124195   7.199   3.024   4.320  1.4413  2.6609  0.8707
 8084TIP3    H224196   7.071   2.989   4.392 -0.6038  0.7579 -3.5129
 8085TIP3   OH224197   1.244   6.846   3.264 -0.1157  0.1550 -0.0946
 8085TIP3    H124198   1.152   6.824   3.271  0.1642 -0.8004  0.6736
 8085TIP3    H224199   1.254   6.925   3.318 -0.1292 -0.8123  1.3372
 8086TIP3   OH224200   7.876   6.053   4.008  0.3701 -0.4378  0.3506
 8086TIP3    H124201   7.950   6.094   3.962 -0.2005  0.8466  0.5431
 8086TIP3    H224202   7.854   6.115   4.077 -0.9888 -0.7230  0.1867
 8087TIP3   OH224203   1.172   6.431   4.416 -0.8754  0.7291  0.2404
 8087TIP3    H124204   1.136   6.369   4.353 -0.4637 -0.5338  1.2248
 8087TIP3    H224205   1.096   6.460   4.467 -0.9825  0.6488  0.1258
 8088TIP3   OH224206   2.441   5.224   3.589  0.0909  0.7948 -0.9295
 8088TIP3    H124207   2.496   5.263   3.657 -0.6973 -0.8524  0.7059
 8088TIP3    H224208   2.491   5.236   3.509  2.7601 -0.4108  0.4679
 8089TIP3   OH224209   1.564   7.443   4.836  0.3396 -0.2868 -1.2353
 8089TIP3    H124210   1.593   7.484   4.754  2.0018  0.9987 -0.0439
 8089TIP3    H224211   1.498   7.503   4.871 -0.9904 -1.2627 -2.0295
 8090TIP3   OH224212   0.982   5.832   5.301 -0.1765 -0.1384  0.4135
 8090TIP3    H124213   0.948   5.877   5.378  0.8282  2.2406 -0.4887
 8090TIP3    H224214   1.067   5.873   5.284  0.1133 -1.3886 -1.2933
 8091TIP3   OH224215   0.356   7.029   4.637 -0.1899 -0.0979  0.3694
 8091TIP3    H124216   0.285   6.965   4.637  0.5456 -0.9393  1.5006
 8091TIP3    H224217   0.432   6.981   4.604 -0.1802  0.8589 -1.0510
 8092TIP3   OH224218   8.138   6.163   2.250  0.5161  0.0498 -0.6973
 8092TIP3    H124219   8.056   6.156   2.200  0.6935 -0.9416 -0.8589
 8092TIP3    H224220   8.159   6.073   2.275  0.9763  0.4202  0.2989
 8093TIP3   OH224221   1.319   5.030   4.951  0.1391 -0.0813  0.2134
 8093TIP3    H124222   1.310   5.006   4.859 -0.5640 -0.0991  0.2866
 8093TIP3    H224223   1.323   5.126   4.951 -1.4425 -0.0067  0.2948
 8094TIP3   OH224224   1.674   6.069   5.077 -0.1620 -0.4964  0.4005
 8094TIP3    H124225   1.753   6.123   5.069 -0.7036  0.3696  0.8708
 8094TIP3    H224226   1.708   5.981   5.094  0.7561 -0.6811 -2.2491
 8095TIP3   OH224227   6.056   0.703   0.400  0.2810  0.1383  0.0028
 8095TIP3    H124228   5.969   0.663   0.389 -0.0016  0.8027 -0.2435
 8095TIP3    H224229   6.071   0.701   0.495 -0.3284  0.6804  0.1177
 8096TIP3   OH224230   0.481   5.642   2.989 -0.3864  0.2064  0.3449
 8096TIP3    H124231   0.464   5.667   3.079 -0.8136  1.5599 -0.1001
 8096TIP3    H224232   0.394   5.637   2.948 -0.1306  0.7095 -0.2733
 8097TIP3   OH224233   0.538   5.073   6.628 -0.2511 -0.2232  0.5963
 8097TIP3    H124234   0.456   5.023   6.628  0.1779 -0.9324  1.3895
 8097TIP3    H224235   0.514   5.157   6.587 -1.0729 -0.8930 -0.3398
 8098TIP3   OH224236   1.376   6.214   5.909  0.0876 -0.0279 -0.0384
 8098TIP3    H124237   1.399   6.157   5.836 -2.1275  2.0069 -2.4078
 8098TIP3    H224238   1.460   6.250   5.939  1.0982 -1.4738 -1.0729
 8099TIP3   OH224239   0.771   4.908   2.916 -0.0307 -0.4924  0.3283
 8099TIP3    H124240   0.827   4.925   2.840  0.9113 -0.4053  1.0316
 8099TIP3    H224241   0.738   4.994   2.942  1.0685 -0.2888  1.0896
 8100TIP3   OH224242   8.144   5.340   5.273 -0.0096 -0.1754 -0.3920
 8100TIP3    H124243   8.148   5.245   5.260  0.0631  0.0281 -1.8920
 8100TIP3    H224244   8.083   5.371   5.206  3.3617  1.3738 -2.8476
 8101TIP3   OH224245   1.042   5.538   6.834  0.4063 -0.1886 -0.4408
 8101TIP3    H124246   1.007   5.625   6.851  3.0191  0.7836  0.2811
 8101TIP3    H224247   1.041   5.494   6.919 -1.1222 -0.9825 -0.8461
 8102TIP3   OH224248   7.539   4.669   5.770 -0.4639  0.3513  0.0230
 8102TIP3    H124249   7.609   4.729   5.798  0.5373 -0.5630 -0.4542
 8102TIP3    H224250   7.459   4.708   5.804  0.3063  1.3067  0.7918
 8103TIP3   OH224251   0.597   4.204   6.119  0.2864 -0.1296 -0.0529
 8103TIP3    H124252   0.611   4.259   6.041 -0.5538 -1.0165 -0.8370
 8103TIP3    H224253   0.504   4.180   6.115 -0.0393  0.7583  1.8523
 8104TIP3   OH224254   1.248   5.106   5.829  0.4606 -0.1144  0.1975
 8104TIP3    H124255   1.268   5.019   5.794 -1.2402 -0.6549  0.5218
 8104TIP3    H224256   1.153   5.112   5.823  0.4925  1.3346  1.1235
 8105TIP3   OH224257   0.690   4.951   4.218  0.0691  0.0384 -0.3337
 8105TIP3    H124258   0.641   4.990   4.290  2.0842  1.4780  0.2772
 8105TIP3    H224259   0.650   4.864   4.207 -1.1676  0.3277  1.5859
 8106TIP3   OH224260   8.351   5.304   5.515  0.4909 -0.6604  0.3546
 8106TIP3    H124261   8.348   5.306   5.419 -2.3884 -0.3529  0.4138
 8106TIP3    H224262   8.335   5.212   5.537  0.5287 -0.6179  0.5570
 8107TIP3   OH224263   0.765   4.956   5.621  0.1253  0.1639 -0.1663
 8107TIP3    H124264   0.848   5.003   5.635  0.7682 -0.9780 -0.0813
 8107TIP3    H224265   0.713   5.014   5.565  2.1535 -0.4187 -2.7376
 8108TIP3   OH224266   1.016   4.573   3.879 -0.1778 -0.5109  0.0306
 8108TIP3    H124267   1.075   4.510   3.839  0.7003  0.8026 -0.7659
 8108TIP3    H224268   0.938   4.572   3.824  0.2565 -0.1472 -0.6046
 8109TIP3   OH224269   1.640   6.776   3.391 -0.0889  0.0106  0.0787
 8109TIP3    H124270   1.575   6.766   3.322 -0.9290  0.7128  0.7474
 8109TIP3    H224271   1.714   6.818   3.348 -0.0896 -0.7705 -0.6858
 8110TIP3   OH224272   0.198   6.265   4.259  0.0873 -0.3180 -0.1374
 8110TIP3    H124273   0.238   6.195   4.206  1.0152  0.8174 -0.9591
 8110TIP3    H224274   0.254   6.341   4.243 -2.2555  1.2353 -1.1147
 8111TIP3   OH224275   0.706   7.922   5.024  0.1421 -0.1228 -0.8047
 8111TIP3    H124276   0.791   7.879   5.021 -0.3765 -1.1735 -0.6964
 8111TIP3    H224277   0.707   7.982   4.950  1.8496  1.5543  0.5448
 8112TIP3   OH224278   1.877   5.761   4.285 -0.0933 -0.3676  0.2686
 8112TIP3    H124279   1.829   5.763   4.368 -1.8959 -1.5081 -0.7256
 8112TIP3    H224280   1.914   5.673   4.280  0.2658 -0.2045  0.0010
 8113TIP3   OH224281   8.005   5.315   1.411 -0.1348  0.1881 -0.3154
 8113TIP3    H124282   8.066   5.276   1.348 -0.3228 -0.3411 -0.1702
 8113TIP3    H224283   7.919   5.287   1.382 -0.3750  1.6033 -0.9860
 8114TIP3   OH224284   0.340   5.423   4.226 -0.8651  0.2503  0.3871
 8114TIP3    H124285   0.351   5.517   4.210  1.2153 -0.2438 -1.2131
 8114TIP3    H224286   0.247   5.414   4.247 -1.3611  2.5050 -0.6262
 8115TIP3   OH224287   2.455   6.382   3.692 -0.2558 -0.2889 -0.0820
 8115TIP3    H124288   2.364   6.354   3.706 -1.0686  2.5630  0.8187
 8115TIP3    H224289   2.503   6.347   3.767 -0.7753 -1.1234 -0.1341
 8116TIP3   OH224290   2.348   4.270   6.940  0.2862 -0.1156 -0.3854
 8116TIP3    H124291   2.412   4.284   6.872  0.0425 -1.1625 -0.8392
 8116TIP3    H224292   2.290   4.347   6.936 -0.0236 -0.4182 -1.6818
 8117TIP3   OH224293   0.176   4.869   2.972  0.2341  0.1733 -0.5385
 8117TIP3    H124294   0.177   4.806   3.044 -0.0520 -0.6137 -1.2190
 8117TIP3    H224295   0.268   4.879   2.948  0.1987 -0.7229 -1.0634
 8118TIP3   OH224296   2.328   4.670   6.826  1.0304 -0.3587  0.8674
 8118TIP3    H124297   2.269   4.597   6.845  1.1451 -0.6461  0.1000
 8118TIP3    H224298   2.319   4.728   6.902  1.1461 -1.2998  1.6020
 8119TIP3   OH224299   1.032   6.132   4.570  0.0403 -0.9729 -0.4202
 8119TIP3    H124300   1.100   6.087   4.519  1.2543 -0.7994  1.0267
 8119TIP3    H224301   0.994   6.195   4.508  0.4224 -1.8498 -1.5639
 8120TIP3   OH224302   1.912   6.182   4.062  0.0099  0.5100  0.3379
 8120TIP3    H124303   1.901   6.275   4.046  2.7933  0.6443 -1.0838
 8120TIP3    H224304   1.983   6.177   4.127  0.3665 -0.6251 -0.1288
 8121TIP3   OH224305   2.052   3.975   4.076 -0.5397 -0.3346  0.5461
 8121TIP3    H124306   2.110   4.030   4.127 -1.4770 -0.7839  2.1306
 8121TIP3    H224307   2.109   3.930   4.014  0.6863 -0.1574  1.5288
 8122TIP3   OH224308   7.224   5.933   4.282  0.0411  0.0233  0.1851
 8122TIP3    H124309   7.252   6.007   4.336  0.3628  1.7549 -2.2523
 8122TIP3    H224310   7.133   5.955   4.258  0.2891 -0.1234 -0.9152
 8123TIP3   OH224311   2.501   7.044   4.334  0.3744  0.8114  0.3768
 8123TIP3    H124312   2.504   6.980   4.405  2.1532 -0.2827 -0.6401
 8123TIP3    H224313   2.408   7.068   4.327 -0.2376 -1.2256  1.1490
 8124TIP3   OH224314   2.401   6.156   3.152 -0.1981  0.3155  0.4041
 8124TIP3    H124315   2.397   6.202   3.068  0.8963  0.0805  0.2131
 8124TIP3    H224316   2.369   6.220   3.216 -0.1165  0.8296 -0.0640
 8125TIP3   OH224317   1.241   6.408   3.629  0.1240  0.2934  0.0638
 8125TIP3    H124318   1.291   6.428   3.709 -2.1646  1.9470  1.1154
 8125TIP3    H224319   1.276   6.467   3.563  0.6225  0.3521  0.3778
 8126TIP3   OH224320   1.548   6.090   6.134  0.5812  0.0677  0.2170
 8126TIP3    H124321   1.527   6.173   6.177 -2.2801 -0.7302  0.4365
 8126TIP3    H224322   1.573   6.115   6.045 -5.5867  0.8600 -1.4694
 8127TIP3   OH224323   1.816   4.639   5.319 -0.2610 -0.0918 -0.2464
 8127TIP3    H124324   1.759   4.713   5.341 -0.1552  0.5553 -2.0312
 8127TIP3    H224325   1.756   4.565   5.306 -0.6431  0.4096 -1.4020
 8128TIP3   OH224326   0.969   7.055   3.282 -0.6591  0.2972  0.2158
 8128TIP3    H124327   0.989   6.998   3.208 -0.3211 -1.5318  1.6756
 8128TIP3    H224328   1.019   7.135   3.265 -0.5050 -0.1304 -1.4527
 8129TIP3   OH224329   7.562   5.404   5.244 -0.0403  0.2908  0.2107
 8129TIP3    H124330   7.589   5.432   5.157 -0.0435  1.8748  0.7033
 8129TIP3    H224331   7.489   5.344   5.229  1.4745 -1.3261 -0.9665
 8130TIP3   OH224332   0.687   5.597   5.237  0.1936 -0.4625 -0.4472
 8130TIP3    H124333   0.666   5.551   5.156  2.0871 -2.6772  0.2597
 8130TIP3    H224334   0.779   5.575   5.254  0.0871  0.6991  1.8069
 8131TIP3   OH224335   0.703   6.958   5.464  0.5420  0.0003  0.0403
 8131TIP3    H124336   0.684   7.043   5.425 -2.1577 -0.3773  0.4292
 8131TIP3    H224337   0.723   6.978   5.555 -0.3911  0.1879  0.2061
 8132TIP3   OH224338   2.966   3.517   6.597 -0.4067  0.2423 -0.2438
 8132TIP3    H124339   2.917   3.466   6.532  0.4311 -0.4805 -0.3164
 8132TIP3    H224340   3.011   3.584   6.545  0.2175 -0.2999 -0.4042
 8133TIP3   OH224341   7.684   5.622   6.016 -0.4743 -0.0220  0.4794
 8133TIP3    H124342   7.610   5.580   6.060 -0.7542  0.5441  0.5518
 8133TIP3    H224343   7.761   5.595   6.066 -0.7505  0.3144  1.0796
 8134TIP3   OH224344   0.558   3.768   3.902 -0.0846  0.0409 -0.0591
 8134TIP3    H124345   0.521   3.695   3.952  0.6379 -0.6686 -0.5530
 8134TIP3    H224346   0.632   3.730   3.855 -0.3035  0.8721 -1.0933
 8135TIP3   OH224347   8.415   6.490   2.067 -0.4250  0.2069  0.0286
 8135TIP3    H124348   8.475   6.557   2.036  0.4286  0.0795  1.4050
 8135TIP3    H224349   8.335   6.504   2.015 -0.2846  2.3055  0.3406
 8136TIP3   OH224350   2.827   4.738   3.595  0.1772  0.2689  0.1821
 8136TIP3    H124351   2.740   4.715   3.626  0.6427 -0.6748  0.8178
 8136TIP3    H224352   2.851   4.667   3.535  1.5778 -0.9143  2.0702
 8137TIP3   OH224353   2.502   7.142   2.974  0.7577  0.6530  1.0270
 8137TIP3    H124354   2.493   7.229   2.936 -0.0498 -0.0332 -0.3652
 8137TIP3    H224355   2.421   7.127   3.022  0.7897  0.5622  1.0538
 8138TIP3   OH224356   0.331   7.343   4.979 -0.3547  0.1199  0.2237
 8138TIP3    H124357   0.402   7.384   4.931  0.8010 -0.2171  1.6078
 8138TIP3    H224358   0.307   7.266   4.926 -0.3846  0.7843 -0.7450
 8139TIP3   OH224359   3.988   7.678   5.176 -0.0066  0.1507  0.8835
 8139TIP3    H124360   4.026   7.626   5.105  2.6170  0.3472  2.0855
 8139TIP3    H224361   3.907   7.633   5.199 -0.4666 -0.3792 -1.6706
 8140TIP3   OH224362   2.982   6.167   3.716  0.0341 -0.2063  0.5266
 8140TIP3    H124363   3.069   6.174   3.675  0.3832  1.9532  1.5247
 8140TIP3    H224364   2.921   6.175   3.643  0.6544  2.9602  0.2839
 8141TIP3   OH224365   1.660   6.066   4.120  0.5648 -0.1561 -0.8601
 8141TIP3    H124366   1.676   5.975   4.096  1.1984 -0.0967 -0.6584
 8141TIP3    H224367   1.745   6.109   4.111  0.6977 -0.0030  0.9637
 8142TIP3   OH224368   4.680   0.185   3.800  0.1969  0.1357  0.2155
 8142TIP3    H124369   4.651   0.237   3.726  2.3685  0.3062 -0.5445
 8142TIP3    H224370   4.601   0.171   3.852 -0.6352  3.2439 -0.1322
 8143TIP3   OH224371   1.118   5.691   4.194 -0.2074 -0.0644 -0.4896
 8143TIP3    H124372   1.046   5.661   4.250  1.1542 -0.6434  0.9760
 8143TIP3    H224373   1.138   5.615   4.139  1.1329 -0.8512  1.0440
 8144TIP3   OH224374   2.431   5.058   3.241  0.3735  0.0917 -0.1587
 8144TIP3    H124375   2.343   5.088   3.265  0.4545 -0.0157  0.2918
 8144TIP3    H224376   2.464   5.017   3.321  0.6498 -0.2976 -0.4741
 8145TIP3   OH224377   1.600   4.101   3.073  0.1897  0.0259  0.3202
 8145TIP3    H124378   1.673   4.119   3.014 -0.5719  0.7872 -0.4035
 8145TIP3    H224379   1.563   4.187   3.093 -0.6267 -0.3647  0.5252
 8146TIP3   OH224380   1.156   4.785   4.545  0.2128 -0.5482  0.4204
 8146TIP3    H124381   1.125   4.720   4.609 -0.1630  0.8074  1.6508
 8146TIP3    H224382   1.211   4.844   4.596  0.1575  0.3732 -0.5806
 8147TIP3   OH224383   1.574   0.841   0.121 -0.3260 -0.6128  0.2265
 8147TIP3    H124384   1.503   0.798   0.074 -0.0756 -0.8841  0.0882
 8147TIP3    H224385   1.634   0.770   0.144  0.4387 -0.2577 -0.6115
 8148TIP3   OH224386   4.075   4.723   5.325  0.0397  0.0484  0.5109
 8148TIP3    H124387   4.099   4.809   5.291 -0.9640  0.4768  0.8904
 8148TIP3    H224388   4.068   4.735   5.419 -0.0592 -0.4632  0.5699
 8149TIP3   OH224389   3.665   5.308   4.864  0.1103  0.4065  0.4959
 8149TIP3    H124390   3.718   5.371   4.816  0.4849 -0.5080 -0.3254
 8149TIP3    H224391   3.698   5.223   4.835 -1.6587 -0.1782  0.1399
 8150TIP3   OH224392   2.367   4.902   5.031  0.2448 -0.6313 -0.1473
 8150TIP3    H124393   2.303   4.854   4.979  0.9337  0.2042 -1.8389
 8150TIP3    H224394   2.450   4.886   4.986  0.8748  0.0203  0.7744
 8151TIP3   OH224395   1.896   6.524   5.830  0.0532  0.1382 -0.1506
 8151TIP3    H124396   1.876   6.465   5.903  1.5814  0.8457  0.8562
 8151TIP3    H224397   1.977   6.568   5.856 -0.8271  2.3642 -1.0769
 8152TIP3   OH224398   2.465   5.616   4.009 -0.2345 -0.1690  0.2581
 8152TIP3    H124399   2.559   5.623   4.026 -0.4070  2.3673  0.3214
 8152TIP3    H224400   2.460   5.593   3.916  0.4682 -1.6425  0.5788
 8153TIP3   OH224401   2.146   5.922   4.323  0.1883 -0.1567 -0.1972
 8153TIP3    H124402   2.168   5.977   4.248  1.5701  0.8445  0.9217
 8153TIP3    H224403   2.129   5.836   4.285  2.6275 -0.1168 -1.5121
 8154TIP3   OH224404   4.175   6.416   3.843 -0.2002  0.1750  0.3169
 8154TIP3    H124405   4.237   6.461   3.900  0.8281  2.1534 -2.2488
 8154TIP3    H224406   4.089   6.443   3.874  0.3946  3.1470 -0.5150
 8155TIP3   OH224407   3.030   4.938   5.465 -0.3694  0.0880 -0.1721
 8155TIP3    H124408   2.984   4.936   5.549 -0.7084  1.4536 -0.3165
 8155TIP3    H224409   3.118   4.969   5.486 -0.3393  0.0666 -0.2651
 8156TIP3   OH224410   1.994   5.999   5.026 -0.6428 -0.0129  0.0017
 8156TIP3    H124411   1.951   5.940   4.964 -0.3733 -1.5268  1.2176
 8156TIP3    H224412   2.067   6.036   4.976 -1.2818 -0.1065 -1.0191
 8157TIP3   OH224413   4.026   6.922   5.669  0.5223  0.0742  0.2601
 8157TIP3    H124414   3.976   7.002   5.654  0.8924  0.4151  0.7968
 8157TIP3    H224415   4.117   6.949   5.662  0.6840 -1.1752 -3.9900
 8158TIP3   OH224416   4.014   4.920   3.532  0.2819  0.3966  0.0305
 8158TIP3    H124417   3.928   4.885   3.556  1.0284 -1.1316  0.5373
 8158TIP3    H224418   4.053   4.852   3.477  0.3644  1.9661 -1.9261
 8159TIP3   OH224419   0.324   1.000   0.348 -0.6745  0.7811  0.0003
 8159TIP3    H124420   0.242   0.952   0.360 -0.6160  0.5860 -0.4022
 8159TIP3    H224421   0.349   0.984   0.258 -1.1072  2.2673 -0.3955
 8160TIP3   OH224422   6.043   0.490   3.727 -0.0887  0.1375  0.0408
 8160TIP3    H124423   6.088   0.413   3.691  0.5179  0.6712 -0.3612
 8160TIP3    H224424   5.953   0.481   3.697  0.1021 -0.1356 -0.4586
 8161TIP3   OH224425   1.459   4.924   2.679 -0.2588 -0.1384 -0.4639
 8161TIP3    H124426   1.474   4.832   2.657 -1.4108 -0.5563  0.4442
 8161TIP3    H224427   1.547   4.962   2.686  0.3316 -1.7918  1.7505
 8162TIP3   OH224428   2.972   4.380   5.708  0.0029 -0.3970 -0.3347
 8162TIP3    H124429   2.980   4.284   5.710  2.0131 -0.2125  1.0174
 8162TIP3    H224430   2.972   4.401   5.615  0.6164 -1.6411 -0.6387
 8163TIP3   OH224431   2.345   3.360   2.374  0.2609 -0.2850 -0.2941
 8163TIP3    H124432   2.265   3.412   2.377 -0.0385 -0.6649 -1.4621
 8163TIP3    H224433   2.314   3.269   2.377  0.6889 -0.4184  0.1032
 8164TIP3   OH224434   2.471   5.603   6.442  0.0133 -0.0462  0.3492
 8164TIP3    H124435   2.492   5.666   6.374  2.2397 -1.9342 -0.7656
 8164TIP3    H224436   2.547   5.603   6.500  0.0944 -1.7849  0.2694
 8165TIP3   OH224437   2.310   6.519   2.527 -0.1672  0.1873 -0.1419
 8165TIP3    H124438   2.348   6.597   2.568 -0.2780 -0.3068  0.9181
 8165TIP3    H224439   2.238   6.494   2.585 -0.3976 -0.4608 -0.6984
 8166TIP3   OH224440   3.825   7.583   3.816  0.1100  0.4042  0.4545
 8166TIP3    H124441   3.818   7.581   3.721 -0.3790  1.1362  0.4642
 8166TIP3    H224442   3.886   7.513   3.838  1.0035  0.8825 -0.4659
 8167TIP3   OH224443   1.294   6.847   3.892 -0.2929  0.3014  0.3603
 8167TIP3    H124444   1.260   6.915   3.950  1.7767  1.1509  0.6028
 8167TIP3    H224445   1.305   6.771   3.948  0.9251  0.8775  0.9020
 8168TIP3   OH224446   2.893   7.105   4.089 -0.0313 -0.7622  0.4280
 8168TIP3    H124447   2.824   7.064   4.140  0.9002  0.2539  2.6133
 8168TIP3    H224448   2.874   7.199   4.093  0.9077 -0.5492  0.2056
 8169TIP3   OH224449   2.222   7.646   3.596 -0.0035  0.2024  0.6781
 8169TIP3    H124450   2.200   7.673   3.686 -0.5017 -0.5843  0.7915
 8169TIP3    H224451   2.242   7.553   3.603  0.2590  0.2087  0.0198
 8170TIP3   OH224452   4.849   6.934   3.026  0.0253  0.0417 -0.1903
 8170TIP3    H124453   4.894   6.978   3.098 -0.7368 -1.2150  1.0716
 8170TIP3    H224454   4.919   6.891   2.977  0.4710  0.3458  0.1811
 8171TIP3   OH224455   2.755   7.842   2.343  0.2448 -0.2438  0.0492
 8171TIP3    H124456   2.804   7.868   2.264  1.5912 -1.8912  0.3172
 8171TIP3    H224457   2.668   7.819   2.310 -0.0433  1.6677 -0.5812
 8172TIP3   OH224458   1.713   7.274   3.247 -0.4220 -0.4119 -0.0545
 8172TIP3    H124459   1.707   7.346   3.184 -2.4341 -0.5500 -0.0605
 8172TIP3    H224460   1.742   7.199   3.196 -0.5349 -0.1535 -0.4983
 8173TIP3   OH224461   0.382   3.054   4.497 -0.1047  0.1788 -0.1000
 8173TIP3    H124462   0.472   3.074   4.472 -0.2259  0.3112 -0.4408
 8173TIP3    H224463   0.383   2.961   4.519  0.0150  0.0662 -0.5688
 8174TIP3   OH224464   1.845   2.820   4.998  0.1098 -0.0888 -0.2209
 8174TIP3    H124465   1.775   2.882   5.018  1.3235  0.8479  1.3405
 8174TIP3    H224466   1.846   2.760   5.072  1.6547  0.5971  0.3573
 8175TIP3   OH224467   2.516   6.337   2.717  0.7738 -0.0001  0.1307
 8175TIP3    H124468   2.581   6.384   2.665 -0.2934 -1.3588 -2.5631
 8175TIP3    H224469   2.432   6.360   2.677 -0.1421 -0.6372  1.6229
 8176TIP3   OH224470   1.201   5.907   5.545 -0.1794 -0.0573 -0.0785
 8176TIP3    H124471   1.169   5.850   5.615 -0.3355 -0.0514 -0.1444
 8176TIP3    H224472   1.267   5.856   5.499 -1.2614 -0.6741 -0.9701
 8177TIP3   OH224473   4.021   5.884   5.433 -0.3867 -0.4926 -0.6292
 8177TIP3    H124474   4.052   5.797   5.457  0.3319 -0.4106 -1.2483
 8177TIP3    H224475   4.065   5.943   5.494  0.3617 -0.4176 -1.2311
 8178TIP3   OH224476   1.914   6.599   3.678 -0.6863  0.6560  0.6420
 8178TIP3    H124477   1.863   6.677   3.657  0.1254  0.8930 -0.4767
 8178TIP3    H224478   1.989   6.631   3.728  0.4725  0.7847 -1.1631
 8179TIP3   OH224479   2.081   5.131   5.716 -0.3961 -0.1364  0.3397
 8179TIP3    H124480   2.074   5.165   5.805  1.2189  1.3676 -0.0689
 8179TIP3    H224481   2.009   5.171   5.669 -0.3822  0.2182  0.6197
 8180TIP3   OH224482   2.300   6.269   3.974  0.0843 -0.3088  0.4791
 8180TIP3    H124483   2.396   6.272   3.977  0.0249  1.1717  1.6128
 8180TIP3    H224484   2.278   6.177   3.988  1.3365 -0.7278 -0.1685
 8181TIP3   OH224485   2.314   4.579   5.009  0.1689  0.3009 -0.6077
 8181TIP3    H124486   2.368   4.503   4.988 -1.3909 -1.7791  2.5402
 8181TIP3    H224487   2.228   4.558   4.970 -1.0237 -0.8605  2.4924
 8182TIP3   OH224488   3.861   4.493   5.764  0.0916 -0.1323 -0.0876
 8182TIP3    H124489   3.815   4.437   5.826 -0.1205 -0.9702 -0.9833
 8182TIP3    H224490   3.800   4.564   5.744 -0.0109 -0.1091  0.3145
 8183TIP3   OH224491   1.803   4.084   2.900  0.3432  0.4046 -0.4042
 8183TIP3    H124492   1.856   4.008   2.877 -0.4727 -0.2390 -0.1674
 8183TIP3    H224493   1.856   4.159   2.873  1.4626 -0.2276  0.0414
 8184TIP3   OH224494   1.792   4.803   4.061 -0.3618 -0.2779 -0.7174
 8184TIP3    H124495   1.746   4.737   4.113  2.8293 -0.9211  1.4317
 8184TIP3    H224496   1.755   4.886   4.091  0.8371 -0.6954  2.0421
 8185TIP3   OH224497   1.034   7.359   3.430 -0.0324  0.7021 -0.2587
 8185TIP3    H124498   1.124   7.351   3.398 -0.3903 -2.1888 -0.6145
 8185TIP3    H224499   1.035   7.318   3.516 -1.0970  0.3435 -0.4119
 8186TIP3   OH224500   8.237   5.671   4.669 -0.5033  0.4202 -0.3232
 8186TIP3    H124501   8.275   5.608   4.609 -0.5223 -0.4582  0.5772
 8186TIP3    H224502   8.199   5.739   4.613  1.3691  0.7195 -1.2572
 8187TIP3   OH224503   6.648   0.421   4.866 -0.4904  1.0655 -0.5812
 8187TIP3    H124504   6.674   0.435   4.957  1.7518  0.1294 -1.0611
 8187TIP3    H224505   6.656   0.507   4.825  1.4733  0.8949 -0.6073
 8188TIP3   OH224506   4.109   5.652   5.512  0.0716 -0.4431 -0.2524
 8188TIP3    H124507   4.058   5.600   5.451 -0.6388 -1.0061  0.8210
 8188TIP3    H224508   4.121   5.596   5.589  2.9077 -0.5905 -0.7563
 8189TIP3   OH224509   1.780   5.340   3.644 -0.2322  0.1328 -0.0276
 8189TIP3    H124510   1.757   5.276   3.712  0.3917 -2.5242 -2.2108
 8189TIP3    H224511   1.871   5.318   3.621 -0.2179  1.4250 -1.2486
 8190TIP3   OH224512   0.563   5.607   4.451  0.1551  0.3624  0.7023
 8190TIP3    H124513   0.577   5.643   4.539 -2.9014  0.3942  1.2023
 8190TIP3    H224514   0.491   5.658   4.415 -0.0100 -1.0460 -1.0300
 8191TIP3   OH224515   7.514   5.088   1.665  0.1262 -0.5374  1.0786
 8191TIP3    H124516   7.598   5.081   1.711  1.0289  0.6067 -0.3974
 8191TIP3    H224517   7.524   5.162   1.606 -1.6554 -0.8946  0.2941
 8192TIP3   OH224518   2.382   6.864   2.916  0.2991  0.8519  0.3127
 8192TIP3    H124519   2.297   6.899   2.943  0.7534  0.8585  1.7592
 8192TIP3    H224520   2.443   6.937   2.930  0.6169  0.7022 -0.2890
 8193TIP3   OH224521   3.102   7.509   3.658  0.3334  0.3521  0.7122
 8193TIP3    H124522   3.054   7.439   3.613 -1.0598 -0.2407  3.0150
 8193TIP3    H224523   3.161   7.463   3.718  0.0175  1.1234  1.6354
 8194TIP3   OH224524   1.419   7.116   4.760  0.0639 -0.1553 -0.2517
 8194TIP3    H124525   1.429   7.206   4.728 -0.2439  0.1941  0.5985
 8194TIP3    H224526   1.432   7.061   4.683  1.7781  0.5503 -0.4912
 8195TIP3   OH224527   3.719   3.307   3.594 -0.2647  0.2868 -0.6293
 8195TIP3    H124528   3.646   3.279   3.537 -0.8551 -0.4451  0.4794
 8195TIP3    H224529   3.688   3.389   3.633 -0.6602 -0.2238  0.1399
 8196TIP3   OH224530   3.490   5.141   4.061 -0.3813 -0.1817 -0.0768
 8196TIP3    H124531   3.473   5.194   4.139 -0.9976  0.1192 -0.4087
 8196TIP3    H224532   3.549   5.194   4.008  0.9072 -0.8494  0.6744
 8197TIP3   OH224533   3.164   3.649   6.460 -0.3219  0.0912 -0.2771
 8197TIP3    H124534   3.158   3.577   6.398 -1.4132  0.4431 -0.5867
 8197TIP3    H224535   3.158   3.728   6.407 -1.0693  0.3982  0.2506
 8198TIP3   OH224536   3.264   7.216   4.069 -0.3938  0.5362  0.0655
 8198TIP3    H124537   3.267   7.131   4.025  0.1919 -0.0555  1.2413
 8198TIP3    H224538   3.273   7.196   4.162  0.4083  1.9416  0.3082
 8199TIP3   OH224539   3.600   3.353   3.983 -0.6881 -0.5659 -1.0016
 8199TIP3    H124540   3.626   3.291   4.053 -1.4764  0.4376  0.1972
 8199TIP3    H224541   3.566   3.297   3.914  1.9949 -1.7444 -1.4651
 8200TIP3   OH224542   3.419   6.738   3.529 -0.5215  0.4625 -0.6481
 8200TIP3    H124543   3.473   6.807   3.491  0.9237 -0.4319 -0.2524
 8200TIP3    H224544   3.406   6.765   3.620  1.7080 -0.7195  0.0675
 8201TIP3   OH224545   0.786   3.842   4.102  0.6694  0.0816 -0.6304
 8201TIP3    H124546   0.829   3.756   4.104 -0.1802 -0.3414 -0.1628
 8201TIP3    H224547   0.802   3.874   4.013  1.4557 -0.3224 -0.6388
 8202TIP3   OH224548   3.255   6.149   6.496 -0.2753 -1.1679  0.2793
 8202TIP3    H124549   3.272   6.215   6.563 -1.2240  1.2080 -1.7578
 8202TIP3    H224550   3.332   6.154   6.439  0.1279 -2.5804  0.6851
 8203TIP3   OH224551   3.474   4.888   4.682 -0.5082 -0.1069 -0.2919
 8203TIP3    H124552   3.471   4.849   4.595 -1.3627  2.9943 -1.7349
 8203TIP3    H224553   3.568   4.892   4.703 -0.3590 -1.8585 -0.5650
 8204TIP3   OH224554   2.205   4.468   6.429 -0.3751  0.4727 -0.2248
 8204TIP3    H124555   2.149   4.392   6.413  0.5339 -0.0861 -0.7890
 8204TIP3    H224556   2.293   4.431   6.438 -0.3446  1.1414  2.5664
 8205TIP3   OH224557   2.991   5.664   3.209  0.4654 -0.5082  0.0947
 8205TIP3    H124558   2.917   5.634   3.157  0.5702 -0.9906  0.2175
 8205TIP3    H224559   3.066   5.658   3.151  0.4972 -0.5418  0.1393
 8206TIP3   OH224560   1.713   6.923   5.372 -0.3657  0.1557  0.0711
 8206TIP3    H124561   1.634   6.973   5.394 -0.4818  0.7607 -1.6176
 8206TIP3    H224562   1.709   6.913   5.276  0.6921 -1.3609  0.1648
 8207TIP3   OH224563   1.564   4.902   4.619  0.7369 -0.1510  0.2730
 8207TIP3    H124564   1.632   4.967   4.598  1.3140 -1.0210 -0.6296
 8207TIP3    H224565   1.534   4.872   4.534 -0.1040 -0.4760  0.6875
 8208TIP3   OH224566   3.697   5.256   6.673  0.2147 -0.7399  0.0041
 8208TIP3    H124567   3.731   5.297   6.593  1.4423 -0.0878  0.8399
 8208TIP3    H224568   3.602   5.254   6.660  0.2289  1.2560 -0.5953
 8209TIP3   OH224569   3.126   4.944   4.096  0.4754 -0.3272 -0.0104
 8209TIP3    H124570   3.142   4.863   4.145  1.1176 -0.1480  0.0704
 8209TIP3    H224571   3.030   4.951   4.095  0.4450 -0.2979  1.2964
 8210TIP3   OH224572   6.617   6.040   4.662  0.3459  0.2926  0.0322
 8210TIP3    H124573   6.699   6.085   4.684  0.8397  0.2920 -1.7501
 8210TIP3    H224574   6.590   6.077   4.579 -1.7592  0.6387  0.8325
 8211TIP3   OH224575   1.989   5.762   3.516  0.1872 -0.3407  0.2393
 8211TIP3    H124576   1.953   5.845   3.548 -1.4824 -0.9036 -0.1491
 8211TIP3    H224577   1.926   5.696   3.544  1.5987 -1.5207  0.6985
 8212TIP3   OH224578   1.958   6.650   5.303  0.3913  0.4651  0.0740
 8212TIP3    H124579   1.999   6.716   5.358  0.7738  0.4222 -0.1578
 8212TIP3    H224580   1.869   6.642   5.337  1.3081 -1.2430  2.1920
 8213TIP3   OH224581   2.296   4.277   5.324  0.5770 -0.2596 -0.7548
 8213TIP3    H124582   2.291   4.352   5.383  0.7289  0.5816 -1.7968
 8213TIP3    H224583   2.313   4.202   5.382 -1.6502  0.1685  0.5182
 8214TIP3   OH224584   1.671   6.238   4.422  0.0130 -0.1704 -0.8525
 8214TIP3    H124585   1.705   6.271   4.339  0.3374  2.8846  0.4575
 8214TIP3    H224586   1.580   6.266   4.423 -0.1185 -0.6126 -0.3726
 8215TIP3   OH224587   2.662   4.250   3.980 -0.6972 -0.0687  0.0946
 8215TIP3    H124588   2.721   4.309   4.026 -0.4403 -0.0955 -0.1993
 8215TIP3    H224589   2.692   4.162   4.002 -0.0985 -0.0772 -0.7300
 8216TIP3   OH224590   8.126   6.547   4.918 -0.0456 -0.4355 -0.3103
 8216TIP3    H124591   8.143   6.476   4.856  0.2324  1.6865 -2.7606
 8216TIP3    H224592   8.203   6.604   4.911 -1.5945  1.6777 -0.6463
 8217TIP3   OH224593   1.324   6.937   5.129 -0.4587 -0.0003  0.4320
 8217TIP3    H124594   1.230   6.920   5.131 -0.6060  0.8679  1.4609
 8217TIP3    H224595   1.363   6.856   5.095 -1.3808 -1.2523  2.2656
 8218TIP3   OH224596   4.401   7.159   2.833 -0.1901 -0.1723  0.0976
 8218TIP3    H124597   4.358   7.204   2.905  0.2206 -2.6225  1.9322
 8218TIP3    H224598   4.492   7.147   2.862 -0.1022 -1.4882 -0.6703
 8219TIP3   OH224599   0.894   6.127   2.705  0.3063 -0.6803  0.2576
 8219TIP3    H124600   0.931   6.039   2.702 -0.5088 -1.0137  0.0839
 8219TIP3    H224601   0.875   6.143   2.798  2.5928  0.2103  0.6205
 8220TIP3   OH224602   5.068   0.284   3.135  0.2013 -0.6001  0.2096
 8220TIP3    H124603   5.105   0.299   3.048 -0.0504  0.8663  0.3535
 8220TIP3    H224604   5.141   0.250   3.187  0.4346 -1.1473 -0.4657
 8221TIP3   OH224605   5.071   5.798   4.930  0.5179 -0.0604 -0.3538
 8221TIP3    H124606   5.046   5.777   4.840  1.3465 -0.3734 -0.5166
 8221TIP3    H224607   5.092   5.713   4.969  0.2031  0.0776  0.1267
 8222TIP3   OH224608   3.172   6.241   6.888 -0.2418 -0.0055  0.4641
 8222TIP3    H124609   3.081   6.265   6.901 -0.2385  0.0069  0.4657
 8222TIP3    H224610   3.179   6.151   6.921  0.0329  0.4567  1.7135
 8223TIP3   OH224611   1.778   5.653   4.567  0.6149 -0.4570 -0.4242
 8223TIP3    H124612   1.782   5.573   4.620  1.4196 -0.8794 -1.1110
 8223TIP3    H224613   1.722   5.712   4.617  0.2927 -1.3297  0.2579
 8224TIP3   OH224614   2.546   5.980   6.175 -0.8750  0.2263 -0.2448
 8224TIP3    H124615   2.587   6.065   6.186  0.4550 -0.3427 -0.7378
 8224TIP3    H224616   2.517   5.956   6.263  1.6969 -0.2840  0.5071
 8225TIP3   OH224617   5.568   0.542   1.622  0.0004 -0.4523 -0.0716
 8225TIP3    H124618   5.498   0.579   1.676 -0.6068 -1.2066 -0.3183
 8225TIP3    H224619   5.604   0.470   1.674 -1.5738 -2.1349 -1.2297
 8226TIP3   OH224620   1.549   6.737   3.898 -0.2147 -0.1895 -0.1014
 8226TIP3    H124621   1.548   6.645   3.871  0.1244 -0.0690 -0.5235
 8226TIP3    H224622   1.474   6.776   3.854  0.6620  0.1361 -1.3402
 8227TIP3   OH224623   3.088   5.545   6.210 -0.2227 -0.2675 -0.6777
 8227TIP3    H124624   3.065   5.629   6.249 -1.0639 -0.7013 -0.2312
 8227TIP3    H224625   3.133   5.568   6.129 -0.0148  0.6159 -0.3209
 8228TIP3   OH224626   2.058   6.897   4.998  0.1796 -0.0410 -0.1847
 8228TIP3    H124627   2.015   6.825   4.952  1.0201 -1.7521  1.6132
 8228TIP3    H224628   2.140   6.910   4.950  1.4194 -2.3411  1.2090
 8229TIP3   OH224629   3.700   5.041   5.960  0.3128 -0.0833  0.7782
 8229TIP3    H124630   3.732   5.121   5.918 -0.0569  0.3291  1.2655
 8229TIP3    H224631   3.748   4.970   5.917  1.9065  0.5151  1.5392
 8230TIP3   OH224632   4.103   7.485   4.719 -0.0987 -0.6722  0.2926
 8230TIP3    H124633   4.106   7.399   4.677 -0.0716 -0.9939  0.9497
 8230TIP3    H224634   4.030   7.530   4.677  0.2722 -0.7837 -0.4881
 8231TIP3   OH224635   5.317   0.302   2.464 -0.0999  0.1898  0.0397
 8231TIP3    H124636   5.259   0.348   2.524  0.6086  0.6128  0.4086
 8231TIP3    H224637   5.277   0.216   2.452 -0.9768  0.5915  0.0245
 8232TIP3   OH224638   5.160   6.231   3.425  0.1308  0.0852 -0.1369
 8232TIP3    H124639   5.145   6.215   3.332 -0.2128 -0.0227 -0.0637
 8232TIP3    H224640   5.253   6.253   3.431  0.0690  0.4570 -0.5516
 8233TIP3   OH224641   1.170   4.569   0.133  0.0179 -0.5481  0.0055
 8233TIP3    H124642   1.174   4.565   0.037  1.0040 -0.4069  0.0326
 8233TIP3    H224643   1.231   4.501   0.162  3.3627  2.5128  0.5207
 8234TIP3   OH224644   2.854   4.974   4.133 -0.2971  0.0291 -0.4045
 8234TIP3    H124645   2.821   5.038   4.071 -1.5956  0.7000  0.9411
 8234TIP3    H224646   2.777   4.946   4.182  1.2324  2.8426  3.9161
 8235TIP3   OH224647   7.837   5.294   2.017  0.5485  0.1485  0.2065
 8235TIP3    H124648   7.788   5.298   1.935  1.1529 -2.1254 -0.2970
 8235TIP3    H224649   7.905   5.228   2.001  1.8681  1.0601  1.9054
 8236TIP3   OH224650   3.141   7.000   5.037  0.1737 -0.0103 -0.0719
 8236TIP3    H124651   3.049   6.978   5.025  0.3495 -0.4069 -0.6946
 8236TIP3    H224652   3.187   6.948   4.972  0.6980  1.3763 -0.8422
 8237TIP3   OH224653   3.020   1.287   4.444  0.3339 -0.2786 -0.2888
 8237TIP3    H124654   2.990   1.196   4.450  0.1091 -0.2095 -0.3490
 8237TIP3    H224655   3.028   1.303   4.350  1.4148 -0.5723 -0.2495
 8238TIP3   OH224656   0.855   3.310   0.735 -0.2168 -0.4149  0.1779
 8238TIP3    H124657   0.828   3.235   0.683  1.7679 -1.1591  0.1812
 8238TIP3    H224658   0.897   3.370   0.673  1.4056 -0.9282  0.7525
 8239TIP3   OH224659   3.250   5.124   3.894 -0.1633 -0.6625 -0.0175
 8239TIP3    H124660   3.299   5.191   3.943 -1.1942 -1.3183  1.9807
 8239TIP3    H224661   3.237   5.053   3.957 -1.8901 -1.3636 -1.1252
 8240TIP3   OH224662   3.602   6.954   4.300  0.2688 -0.1826  0.0586
 8240TIP3    H124663   3.546   6.944   4.377  0.2529  1.7498  0.3386
 8240TIP3    H224664   3.681   6.906   4.322  0.0793 -0.0449  1.1053
 8241TIP3   OH224665   4.717   6.735   3.164 -0.2966 -0.0405  0.1826
 8241TIP3    H124666   4.674   6.817   3.188  0.9711  0.1193  2.0175
 8241TIP3    H224667   4.794   6.762   3.113 -0.3045 -0.1421  0.1158
 8242TIP3   OH224668   3.823   6.057   4.446  0.3331 -0.2597 -0.0312
 8242TIP3    H124669   3.853   6.145   4.470 -0.1204  0.0950 -0.7387
 8242TIP3    H224670   3.762   6.072   4.374  0.7759 -1.2106 -0.6126
 8243TIP3   OH224671   3.394   4.243   5.105 -0.2131  0.2091  0.2024
 8243TIP3    H124672   3.314   4.246   5.156 -0.3964 -0.5441 -0.0319
 8243TIP3    H224673   3.365   4.247   5.014  0.1273  1.7953  0.1538
 8244TIP3   OH224674   1.397   5.954   4.644 -0.6886 -0.1195 -0.1726
 8244TIP3    H124675   1.365   5.933   4.557  0.5836 -1.2364 -0.3776
 8244TIP3    H224676   1.421   6.047   4.640 -1.7052  0.1188 -0.6760
 8245TIP3   OH224677   8.278   6.319   4.015 -0.6786 -0.1808 -0.2496
 8245TIP3    H124678   8.239   6.348   3.932  0.2052 -0.8103 -0.8864
 8245TIP3    H224679   8.344   6.255   3.990  0.8993  1.0011  0.8286
 8246TIP3   OH224680   7.939   6.752   4.635  0.4938  0.8906 -0.1131
 8246TIP3    H124681   8.011   6.793   4.683  0.7854  0.5665 -0.2780
 8246TIP3    H224682   7.975   6.670   4.603  0.4105  1.2669 -1.1962
 8247TIP3   OH224683   1.878   5.377   5.061  0.5212 -0.5175  0.0772
 8247TIP3    H124684   1.876   5.430   5.140  0.2180 -0.9132  0.3354
 8247TIP3    H224685   1.789   5.384   5.026  1.1104  1.0731 -1.1722
 8248TIP3   OH224686   4.452   5.651   4.471  0.2520  0.0184 -0.1229
 8248TIP3    H124687   4.505   5.685   4.399 -0.2188 -0.7052 -0.8300
 8248TIP3    H224688   4.394   5.587   4.429 -1.4423  1.0797  0.5731
 8249TIP3   OH224689   0.109   6.208   3.855 -0.1129  0.5180  0.1991
 8249TIP3    H124690   0.042   6.146   3.885 -0.8431 -1.3089 -4.7606
 8249TIP3    H224691   0.191   6.172   3.888 -1.0135 -0.4687  1.4216
 8250TIP3   OH224692   0.721   5.066   3.795  0.2935  0.2530 -0.2118
 8250TIP3    H124693   0.644   5.074   3.851  1.8808  1.1741  1.9063
 8250TIP3    H224694   0.749   4.975   3.805 -0.1488  0.0805 -0.5120
 8251TIP3   OH224695   0.795   3.926   2.722 -0.0309  0.1945 -0.2561
 8251TIP3    H124696   0.739   3.872   2.778 -1.7316  1.5625 -0.6034
 8251TIP3    H224697   0.758   3.917   2.635  1.8649 -0.9197 -0.9853
 8252TIP3   OH224698   8.217   1.787   0.052  0.1557 -0.3146  0.5101
 8252TIP3    H124699   8.292   1.751   0.099  0.6258 -2.4501 -1.7536
 8252TIP3    H224700   8.239   1.879   0.038  1.6165 -0.5296  1.2594
 8253TIP3   OH224701   0.971   4.129   3.106 -0.6016 -0.2507 -0.0563
 8253TIP3    H124702   0.984   4.073   3.030  0.3507  0.0185 -0.0976
 8253TIP3    H224703   0.956   4.216   3.069  2.2248  0.3427  0.0967
 8254TIP3   OH224704   2.528   5.927   1.645 -0.2726 -0.2303  0.4974
 8254TIP3    H124705   2.437   5.947   1.624 -0.6740 -0.5155  1.9031
 8254TIP3    H224706   2.566   6.010   1.671  0.0698  0.0168 -0.7390
 8255TIP3   OH224707   1.609   4.471   5.226 -0.1030 -0.2431  0.1792
 8255TIP3    H124708   1.585   4.399   5.285  2.0033 -1.5092 -0.4481
 8255TIP3    H224709   1.534   4.530   5.228 -1.6564 -2.1983  1.1317
 8256TIP3   OH224710   4.269   5.806   2.791  0.0395 -0.1344 -0.3012
 8256TIP3    H124711   4.307   5.745   2.854 -0.7611 -1.3312 -0.9460
 8256TIP3    H224712   4.176   5.784   2.790 -0.1268  0.5798 -1.1235
 8257TIP3   OH224713   2.714   6.704   5.240  0.2188  0.0581 -0.0983
 8257TIP3    H124714   2.756   6.643   5.301 -0.5133  1.0791  1.4373
 8257TIP3    H224715   2.628   6.665   5.223  0.1661  0.1128  0.0426
 8258TIP3   OH224716   1.727   6.396   2.213 -0.2328 -0.3858 -0.2044
 8258TIP3    H124717   1.657   6.395   2.279  0.6750  0.2988  0.7775
 8258TIP3    H224718   1.804   6.366   2.261  0.5310  0.5467 -0.8644
 8259TIP3   OH224719   1.856   5.893   2.263 -0.0574 -0.3799 -0.5129
 8259TIP3    H124720   1.772   5.849   2.270  0.5031 -1.1645  1.4336
 8259TIP3    H224721   1.878   5.919   2.352  0.4390  2.3714 -1.3734
 8260TIP3   OH224722   1.713   6.321   3.005 -0.2602  0.7629  0.1582
 8260TIP3    H124723   1.677   6.346   2.920  0.7938 -2.0375 -1.1721
 8260TIP3    H224724   1.805   6.346   2.999 -0.0290 -0.0898  0.2098
 8261TIP3   OH224725   2.549   3.670   3.135 -0.3191 -0.5048  0.1638
 8261TIP3    H124726   2.561   3.690   3.042  0.2304  2.0697  0.7685
 8261TIP3    H224727   2.471   3.719   3.160  0.2270 -0.2484  1.3563
 8262TIP3   OH224728   3.007   7.201   4.343  0.4471 -0.1612 -0.6650
 8262TIP3    H124729   2.986   7.198   4.249 -1.5599  1.3990 -0.3114
 8262TIP3    H224730   3.011   7.294   4.364  1.9270 -0.4878  0.6039
 8263TIP3   OH224731   7.837   6.351   3.856 -0.6249 -0.1081 -0.1369
 8263TIP3    H124732   7.856   6.330   3.765 -1.8390  0.7044 -0.5879
 8263TIP3    H224733   7.918   6.392   3.888 -0.2439 -0.2738 -0.8700
 8264TIP3   OH224734   2.692   7.303   4.926  0.0028 -0.0558 -0.4715
 8264TIP3    H124735   2.745   7.310   5.006 -0.1711 -3.3953  0.0236
 8264TIP3    H224736   2.750   7.258   4.864 -0.6513  0.4780 -1.4685
 8265TIP3   OH224737   2.503   7.761   3.566  0.3175 -0.4763 -0.3637
 8265TIP3    H124738   2.536   7.789   3.651  2.8556  0.5929 -1.6661
 8265TIP3    H224739   2.409   7.747   3.581  0.2294  2.0834  2.0113
 8266TIP3   OH224740   5.903   0.131   4.119 -0.1760 -0.1485  0.0232
 8266TIP3    H124741   5.821   0.102   4.159  0.0954 -3.1038 -1.4184
 8266TIP3    H224742   5.880   0.209   4.069 -2.0230 -0.7508 -0.1026
 8267TIP3   OH224743   1.999   7.379   3.477 -0.4096  0.3586 -0.6676
 8267TIP3    H124744   1.997   7.293   3.435 -0.1564  0.1071 -0.1662
 8267TIP3    H224745   1.991   7.441   3.404  1.0884 -0.0462 -1.2007
 8268TIP3   OH224746   2.198   5.678   6.355 -0.0820 -0.0047  0.1537
 8268TIP3    H124747   2.219   5.627   6.276 -1.3985 -2.0998  1.1422
 8268TIP3    H224748   2.277   5.671   6.409  0.2448  0.1606 -0.2904
 8269TIP3   OH224749   1.949   5.976   2.533  0.0723 -0.1294  0.0858
 8269TIP3    H124750   2.032   5.929   2.537 -0.8020 -1.6210  0.6950
 8269TIP3    H224751   1.883   5.912   2.557 -1.4589  0.5621 -2.0752
 8270TIP3   OH224752   3.272   5.451   5.523 -0.7676  0.8957 -0.6108
 8270TIP3    H124753   3.336   5.518   5.549 -1.7098  2.0940 -1.3618
 8270TIP3    H224754   3.286   5.439   5.429 -0.4040 -0.1864 -0.4257
 8271TIP3   OH224755   2.707   6.922   4.196 -0.3736 -0.3758 -0.1975
 8271TIP3    H124756   2.732   6.845   4.247  1.2614  0.9803  1.1079
 8271TIP3    H224757   2.647   6.970   4.253 -1.0559 -0.4614 -0.8381
 8272TIP3   OH224758   5.432   5.395   6.545 -0.2957 -0.5592 -0.1916
 8272TIP3    H124759   5.364   5.406   6.479  0.5589 -2.7751 -1.5163
 8272TIP3    H224760   5.392   5.337   6.611  0.2720 -1.8150 -0.9417
 8273TIP3   OH224761   2.577   5.450   4.762 -0.6170  0.0318  0.3826
 8273TIP3    H124762   2.560   5.396   4.839 -0.4047 -2.6689 -1.4033
 8273TIP3    H224763   2.496   5.446   4.711  0.2917 -0.7760 -1.0300
 8274TIP3   OH224764   3.976   6.919   4.065  0.1572  0.1602  0.2946
 8274TIP3    H124765   4.041   6.989   4.067  0.5546 -0.0733 -2.0841
 8274TIP3    H224766   4.007   6.856   4.130  3.4796 -0.8578 -2.1113
 8275TIP3   OH224767   0.076   1.284   0.578  0.0908  0.0969  0.5137
 8275TIP3    H124768   0.064   1.243   0.664  1.5555  0.1405  0.7395
 8275TIP3    H224769   0.053   1.215   0.515  1.3690 -0.6961  0.9097
 8276TIP3   OH224770   0.227   6.091   4.715 -0.0209  0.7736  0.3241
 8276TIP3    H124771   0.133   6.107   4.699  0.2455  1.1355 -0.9801
 8276TIP3    H224772   0.243   6.005   4.677 -0.0081  0.3449  1.3085
 8277TIP3   OH224773   3.381   3.951   3.253  0.2653  0.4683 -0.0516
 8277TIP3    H124774   3.465   3.984   3.283 -0.3578  2.7092 -0.6699
 8277TIP3    H224775   3.396   3.922   3.163  0.4100  0.7413 -0.1146
 8278TIP3   OH224776   2.830   7.217   3.827  0.3289  0.3159 -0.3620
 8278TIP3    H124777   2.869   7.180   3.906 -1.6217 -0.0661  0.4624
 8278TIP3    H224778   2.751   7.163   3.812  0.5622  0.5099 -2.4446
 8279TIP3   OH224779   3.714   5.697   2.344  0.7185  0.1665 -0.5062
 8279TIP3    H124780   3.688   5.749   2.420  0.8436 -0.9562  0.3085
 8279TIP3    H224781   3.717   5.761   2.272  0.0061  1.1229  0.2880
 8280TIP3   OH224782   0.229   6.331   4.951 -0.1490 -0.5294  0.0286
 8280TIP3    H124783   0.176   6.278   5.010  0.3565 -0.6267  0.3984
 8280TIP3    H224784   0.286   6.268   4.907  0.0196 -0.3650  0.0124
 8281TIP3   OH224785   4.431   6.033   5.606  0.1263  0.0337 -0.1398
 8281TIP3    H124786   4.428   5.941   5.578 -1.5458  0.0068  0.0917
 8281TIP3    H224787   4.479   6.030   5.689  0.9562 -0.4958 -0.6294
 8282TIP3   OH224788   8.464   1.944   0.439  0.8462  0.3314  0.1438
 8282TIP3    H124789   8.548   1.928   0.484 -0.3116 -0.6043  2.0328
 8282TIP3    H224790   8.398   1.918   0.503 -0.8849  0.1975 -1.6694
 8283TIP3   OH224791   2.753   5.136   4.738  0.9544 -0.0121  0.1076
 8283TIP3    H124792   2.690   5.145   4.809  1.4144 -2.7194  0.9155
 8283TIP3    H224793   2.812   5.210   4.749 -0.3645  0.9306  1.0852
 8284TIP3   OH224794  -0.001   0.762   0.739  0.1276 -0.2018  0.0088
 8284TIP3    H124795   0.052   0.841   0.749  1.1038 -0.7346 -0.8667
 8284TIP3    H224796   0.008   0.717   0.823 -0.4112  0.5937  0.5021
 8285TIP3   OH224797   3.176   5.004   6.176 -0.1046  0.4267 -0.0944
 8285TIP3    H124798   3.199   5.004   6.083  2.6055 -0.7542  0.5553
 8285TIP3    H224799   3.144   4.915   6.193 -0.6190  0.6487  0.1010
 8286TIP3   OH224800   3.182   4.043   5.056  0.3235 -0.4380 -0.0330
 8286TIP3    H124801   3.185   4.080   4.967 -1.0995 -1.7372 -0.6362
 8286TIP3    H224802   3.127   4.104   5.105  1.8462  0.7787  0.2350
 8287TIP3   OH224803   2.663   5.747   5.820 -0.0927 -0.5249 -0.3399
 8287TIP3    H124804   2.739   5.735   5.763 -0.1792 -0.4745 -0.4664
 8287TIP3    H224805   2.698   5.744   5.909 -0.1143 -1.7007 -0.3660
 8288TIP3   OH224806   3.696   4.472   5.239 -0.3968  0.3752  0.3408
 8288TIP3    H124807   3.659   4.549   5.282  0.8358  0.6570  0.9377
 8288TIP3    H224808   3.658   4.398   5.286 -1.1613  0.6337  0.1294
 8289TIP3   OH224809   4.746   0.212   6.176 -0.6199 -0.1028  0.2557
 8289TIP3    H124810   4.779   0.292   6.217  1.4008 -1.6220  1.7043
 8289TIP3    H224811   4.678   0.242   6.117  0.8486  2.8126 -0.0530
 8290TIP3   OH224812   1.589   3.932   6.649 -0.0990 -0.3120  0.1204
 8290TIP3    H124813   1.570   3.846   6.685  1.6346 -0.0281  1.7694
 8290TIP3    H224814   1.504   3.976   6.645 -0.8990 -1.8587 -0.1680
 8291TIP3   OH224815   4.060   5.262   6.377 -0.1983 -0.1658  0.2311
 8291TIP3    H124816   4.120   5.226   6.312  2.5562  1.2193  1.9093
 8291TIP3    H224817   4.004   5.322   6.327  1.0155 -0.0981 -1.0862
 8292TIP3   OH224818   0.466   6.269   2.053  0.4521 -0.0665  0.4446
 8292TIP3    H124819   0.481   6.179   2.082 -1.0901 -1.5205 -2.9822
 8292TIP3    H224820   0.550   6.297   2.017  0.5179 -0.7024  0.1081
 8293TIP3   OH224821   2.775   6.192   3.528 -0.4068  0.0275 -0.2366
 8293TIP3    H124822   2.722   6.139   3.468  1.4423 -1.2549 -0.7653
 8293TIP3    H224823   2.788   6.275   3.481 -0.6286 -0.2249 -0.7539
 8294TIP3   OH224824   0.001   6.510   1.378 -0.4736 -0.4521 -0.1509
 8294TIP3    H124825  -0.028   6.476   1.294  0.5520  0.2343 -0.8038
 8294TIP3    H224826   0.094   6.488   1.381 -0.3103  0.2883  0.4114
 8295TIP3   OH224827   1.606   7.237   5.043  0.1449 -0.3491 -0.4256
 8295TIP3    H124828   1.695   7.204   5.027 -0.6800 -2.3528 -1.0757
 8295TIP3    H224829   1.603   7.322   5.000  1.5108 -0.6123 -1.0565
 8296TIP3   OH224830   0.859   6.414   3.469 -0.0077 -0.7889  0.2651
 8296TIP3    H124831   0.864   6.351   3.398  1.1037 -1.4075  0.8825
 8296TIP3    H224832   0.913   6.488   3.439 -0.9839 -0.2789 -0.2833
 8297TIP3   OH224833   6.747   1.292   3.649  0.3997  0.7461 -0.6676
 8297TIP3    H124834   6.765   1.277   3.742 -0.3348 -0.4200 -0.7006
 8297TIP3    H224835   6.795   1.372   3.628  0.4277  1.1288  0.7597
 8298TIP3   OH224836   3.754   6.942   6.073  0.5788  0.4208  0.2990
 8298TIP3    H124837   3.702   6.919   5.995  1.0518 -0.6231  0.2822
 8298TIP3    H224838   3.748   7.037   6.078  0.3111  0.4747 -0.8590
 8299TIP3   OH224839   2.487   6.334   3.438 -0.4108 -0.0269  0.2499
 8299TIP3    H124840   2.497   6.365   3.528 -0.1741  0.9466 -0.1045
 8299TIP3    H224841   2.441   6.251   3.446  0.6314 -0.5142  1.3484
 8300TIP3   OH224842   4.455   7.363   3.355  0.3443 -0.3762  0.2054
 8300TIP3    H124843   4.378   7.313   3.329  1.9855 -2.8255 -0.1273
 8300TIP3    H224844   4.510   7.300   3.401  1.6666  1.6067  1.4164
 8301TIP3   OH224845   3.799   0.736   3.899  0.2894 -0.7719 -0.0815
 8301TIP3    H124846   3.813   0.753   3.992  0.0056  3.3929 -0.7172
 8301TIP3    H224847   3.876   0.686   3.871  1.3699 -0.2462  1.9205
 8302TIP3   OH224848   2.009   6.379   4.723  0.0356  0.0988  0.3070
 8302TIP3    H124849   1.931   6.434   4.726 -1.0362 -1.4064  0.8659
 8302TIP3    H224850   2.003   6.334   4.639  0.7466  0.5899 -0.0132
 8303TIP3   OH224851   2.621   6.118   2.596  0.5560  0.2716  0.2381
 8303TIP3    H124852   2.605   6.130   2.502  0.3829  1.5273  0.4250
 8303TIP3    H224853   2.563   6.181   2.638  1.8617  0.8766  1.1409
 8304TIP3   OH224854   3.604   6.210   5.067 -0.6693 -0.2854  0.0114
 8304TIP3    H124855   3.607   6.235   4.974 -0.5544 -1.4249 -0.2986
 8304TIP3    H224856   3.581   6.117   5.066  0.3694 -0.5682  1.0878
 8305TIP3   OH224857   5.266   5.661   6.420  0.4159 -0.3984  1.0522
 8305TIP3    H124858   5.351   5.699   6.398  0.9113 -2.1214 -0.1119
 8305TIP3    H224859   5.208   5.691   6.351 -0.0864  1.2888  2.1860
 8306TIP3   OH224860   0.652   5.530   3.744  0.0352 -0.3454  1.0771
 8306TIP3    H124861   0.647   5.453   3.687 -0.1516  0.0789  0.5179
 8306TIP3    H224862   0.646   5.494   3.833 -1.2708 -0.8719  0.7834
 8307TIP3   OH224863   4.527   6.184   3.261 -0.0670  0.5279  0.7723
 8307TIP3    H124864   4.617   6.213   3.276  0.0383  0.1712  0.8356
 8307TIP3    H224865   4.528   6.151   3.171  0.2193 -0.8118  1.2605
 8308TIP3   OH224866   7.077   1.105   4.269  0.6180 -0.2457  0.4603
 8308TIP3    H124867   7.132   1.133   4.196 -0.6830 -1.4706 -1.0487
 8308TIP3    H224868   6.997   1.157   4.259  0.7264  0.1276  1.4869
 8309TIP3   OH224869   3.551   6.108   3.926  0.8226 -0.0636 -0.0384
 8309TIP3    H124870   3.616   6.051   3.885  0.5906 -0.0668 -0.3996
 8309TIP3    H224871   3.467   6.068   3.905  0.7226 -0.3141  0.8236
 8310TIP3   OH224872   0.134   5.601   2.331 -0.2178 -0.3503  0.1307
 8310TIP3    H124873   0.073   5.575   2.262 -1.4804  0.9270  0.7333
 8310TIP3    H224874   0.211   5.633   2.285 -0.7603 -0.2095 -0.6766
 8311TIP3   OH224875   2.955   5.510   6.742  0.3161 -0.0764  0.0544
 8311TIP3    H124876   2.963   5.415   6.744  1.6572  0.0518  1.1137
 8311TIP3    H224877   2.937   5.531   6.650 -0.1419 -1.3488 -0.1559
 8312TIP3   OH224878   5.265   6.641   1.864  0.0356 -0.3064  0.0380
 8312TIP3    H124879   5.238   6.550   1.882 -0.1843 -0.1912  0.2970
 8312TIP3    H224880   5.299   6.673   1.948 -1.4917  0.4056  0.4119
 8313TIP3   OH224881   8.472   1.065   0.410 -0.0012 -0.9110 -0.2648
 8313TIP3    H124882   8.513   0.979   0.405  0.2813 -0.7040 -1.6357
 8313TIP3    H224883   8.435   1.080   0.323  0.5999  0.6777 -0.2731
 8314TIP3   OH224884   3.428   5.438   4.811  0.0019  0.1638 -0.1034
 8314TIP3    H124885   3.504   5.388   4.841  0.8273  0.5339 -1.5090
 8314TIP3    H224886   3.421   5.417   4.718 -0.4272  1.6633 -0.4250
 8315TIP3   OH224887   1.184   2.367   0.670  0.2937 -0.4087  0.2418
 8315TIP3    H124888   1.153   2.302   0.606  2.3986 -0.8925 -0.3176
 8315TIP3    H224889   1.178   2.322   0.754 -0.4980 -0.4876  0.1544
 8316TIP3   OH224890   2.631   6.472   3.183  0.1099 -0.1323 -0.1085
 8316TIP3    H124891   2.601   6.452   3.272  2.1369  1.5477  1.0003
 8316TIP3    H224892   2.577   6.545   3.155 -0.2003 -0.3431 -0.0638
 8317TIP3   OH224893   2.115   5.043   5.067 -0.7497  0.0321 -0.3279
 8317TIP3    H124894   2.188   5.073   5.012  0.3285  0.2848  1.1901
 8317TIP3    H224895   2.141   4.956   5.096 -2.0146 -0.7288 -1.4240
 8318TIP3   OH224896   4.111   3.700   5.242 -0.5369  0.0186 -0.0515
 8318TIP3    H124897   4.170   3.644   5.192 -0.8368  1.5237 -2.1596
 8318TIP3    H224898   4.027   3.653   5.241 -0.5192 -0.0117 -0.9194
 8319TIP3   OH224899   4.261   6.096   3.366  0.2299  0.5979  0.1957
 8319TIP3    H124900   4.337   6.140   3.329 -0.1655  0.7395 -0.4612
 8319TIP3    H224901   4.252   6.132   3.454  1.2229  0.2103  0.4625
 8320TIP3   OH224902   0.127   5.485   2.655 -0.5281 -0.1016 -0.0362
 8320TIP3    H124903   0.127   5.417   2.587 -1.0878 -0.1882  0.0521
 8320TIP3    H224904   0.038   5.520   2.654 -0.3657  0.3197  0.2351
 8321TIP3   OH224905   1.801   7.710   2.349  0.5154  0.3337  0.3427
 8321TIP3    H124906   1.882   7.759   2.364  1.2105 -0.6980  0.0744
 8321TIP3    H224907   1.734   7.777   2.337  1.6849  1.2616 -1.3339
 8322TIP3   OH224908   2.020   6.147   3.320  0.1216 -0.4729 -0.1980
 8322TIP3    H124909   1.962   6.121   3.248 -0.8652 -1.1677  0.8357
 8322TIP3    H224910   1.969   6.131   3.399  0.0264  3.1210  0.5803
 8323TIP3   OH224911   1.375   6.783   5.404 -0.7933 -0.2615 -0.3261
 8323TIP3    H124912   1.335   6.859   5.362  0.6448 -0.6107 -2.4075
 8323TIP3    H224913   1.375   6.716   5.336  0.0059 -1.4046  0.7860
 8324TIP3   OH224914   3.063   7.732   5.470  0.6529  0.1012 -0.3894
 8324TIP3    H124915   3.101   7.681   5.398  1.4530 -0.0889  0.1564
 8324TIP3    H224916   3.122   7.716   5.544  0.3072  0.9567  0.0788
 8325TIP3   OH224917   1.702   5.932   5.411  0.4061  0.1043  1.0235
 8325TIP3    H124918   1.614   5.893   5.414  1.1432 -1.6163  1.0122
 8325TIP3    H224919   1.745   5.887   5.338  1.0003  1.5994  0.4488
 8326TIP3   OH224920   2.871   6.554   5.390 -0.4093 -0.4183 -0.4820
 8326TIP3    H124921   2.954   6.592   5.361 -1.0642  1.0747 -0.4435
 8326TIP3    H224922   2.887   6.529   5.481 -0.3254  0.8991 -0.1195
 8327TIP3   OH224923   4.025   2.694   5.572 -0.3633 -0.2381  0.0680
 8327TIP3    H124924   4.113   2.696   5.609  0.0053 -0.5029 -0.7713
 8327TIP3    H224925   4.000   2.602   5.576  0.5052 -0.5973 -2.2177
 8328TIP3   OH224926   7.478   6.748   4.450  0.4011 -0.0354  0.7946
 8328TIP3    H124927   7.561   6.795   4.456  0.2579  0.2126  0.8113
 8328TIP3    H224928   7.485   6.679   4.515  0.1201  0.7102  1.6275
 8329TIP3   OH224929   0.400   7.006   5.146  0.2720  0.5969  0.1829
 8329TIP3    H124930   0.311   7.020   5.178 -0.1222 -0.0182 -0.6273
 8329TIP3    H224931   0.438   6.942   5.205 -0.8913 -1.5332 -1.3045
 8330TIP3   OH224932   3.918   7.158   3.903  0.1632  0.1135 -0.2995
 8330TIP3    H124933   3.942   7.069   3.930  0.6607  0.4647  0.4510
 8330TIP3    H224934   3.822   7.156   3.898  0.0186  0.0829  1.7922
 8331TIP3   OH224935   6.778   0.578   4.238  0.4212 -0.0470 -0.1038
 8331TIP3    H124936   6.801   0.651   4.295 -0.3232  0.6090 -0.6369
 8331TIP3    H224937   6.805   0.500   4.287  0.6950  0.5538  0.7123
 8332TIP3   OH224938   5.218   1.160   4.003  0.2107 -0.1461  0.0559
 8332TIP3    H124939   5.216   1.198   4.090 -0.1034  1.5063 -0.6439
 8332TIP3    H224940   5.283   1.212   3.955  0.0073 -0.6905 -0.8377
 8333TIP3   OH224941   0.598   6.571   5.303  0.1645  0.0086 -0.0601
 8333TIP3    H124942   0.650   6.528   5.235  2.9262 -1.0802  2.6780
 8333TIP3    H224943   0.561   6.500   5.354 -0.6646  0.8473  0.5316
 8334TIP3   OH224944   3.703   5.657   5.154 -0.3729 -0.2018 -1.0725
 8334TIP3    H124945   3.708   5.588   5.221  0.7184  0.5094 -0.3898
 8334TIP3    H224946   3.714   5.739   5.204 -1.0348  0.4250 -1.9473
 8335TIP3   OH224947   1.736   5.988   4.527  0.0159  0.2100  0.4596
 8335TIP3    H124948   1.641   5.980   4.535 -0.0848 -0.5922 -1.2124
 8335TIP3    H224949   1.753   6.082   4.523 -0.3961  0.4742  3.8576
 8336TIP3   OH224950   7.545   6.410   4.056  0.2749  0.2502  0.0050
 8336TIP3    H124951   7.455   6.378   4.046 -0.4273  2.1530  0.1014
 8336TIP3    H224952   7.594   6.365   3.988 -0.3673 -2.1665  1.0666
 8337TIP3   OH224953   4.822   5.404   4.875  0.3019  0.3814 -0.9438
 8337TIP3    H124954   4.775   5.337   4.826  1.2713  0.8573 -2.5792
 8337TIP3    H224955   4.881   5.355   4.932  0.6597 -0.1803 -1.7832
 8338TIP3   OH224956   2.557   4.379   6.014 -0.1038  0.0707  0.3761
 8338TIP3    H124957   2.637   4.343   6.052 -0.0287  0.4210  0.5493
 8338TIP3    H224958   2.571   4.372   5.919  0.3005  0.4943  0.4006
 8339TIP3   OH224959   1.152   4.632   2.636  0.5075  0.2243  0.3015
 8339TIP3    H124960   1.143   4.723   2.664  0.7198 -0.0061  1.1150
 8339TIP3    H224961   1.148   4.637   2.540 -0.4600  0.9824  0.3652
 8340TIP3   OH224962   2.224   3.256   4.139 -0.2202  0.4050 -0.2646
 8340TIP3    H124963   2.258   3.282   4.225  0.2984  0.6025 -0.5227
 8340TIP3    H224964   2.131   3.240   4.153 -0.5860  2.5294 -0.1135
 8341TIP3   OH224965   0.453   5.712   3.635 -0.4158 -0.4856  0.2173
 8341TIP3    H124966   0.522   5.659   3.675 -0.6927 -2.1382 -1.4704
 8341TIP3    H224967   0.496   5.756   3.562 -0.5365  0.5605  0.7606
 8342TIP3   OH224968   3.215   3.659   2.026  0.3138  0.0112 -0.4921
 8342TIP3    H124969   3.153   3.608   1.974 -0.3307  0.2904 -0.0079
 8342TIP3    H224970   3.178   3.658   2.115  0.6760  0.6998 -0.3288
 8343TIP3   OH224971   4.563   4.231   3.213  0.4278 -0.0028 -0.4867
 8343TIP3    H124972   4.468   4.228   3.198  0.2494  0.9698  0.4182
 8343TIP3    H224973   4.575   4.199   3.302  0.9721 -0.3231 -0.6735
 8344TIP3   OH224974   1.327   6.134   3.117 -0.0906  0.0968  0.6941
 8344TIP3    H124975   1.405   6.078   3.123 -0.7400 -0.7300  1.5870
 8344TIP3    H224976   1.260   6.076   3.080 -0.9694  0.0644  2.2998
 8345TIP3   OH224977   4.102   5.483   2.976  0.1176 -0.6933  0.3146
 8345TIP3    H124978   4.021   5.504   3.023 -0.6654 -0.7429 -0.9921
 8345TIP3    H224979   4.088   5.395   2.942 -0.1957  0.1474 -1.8124
 8346TIP3   OH224980   3.547   5.009   3.158 -0.4496 -0.1462 -0.5680
 8346TIP3    H124981   3.571   4.917   3.168  0.0264  0.0928  0.6150
 8346TIP3    H224982   3.580   5.051   3.238  0.1190  1.2184 -1.5169
 8347TIP3   OH224983   3.005   6.070   3.132 -0.0364  0.3419 -0.4344
 8347TIP3    H124984   2.909   6.074   3.129 -0.0854 -0.8769 -0.8286
 8347TIP3    H224985   3.025   6.055   3.225 -0.1989  1.2669 -0.2511
 8348TIP3   OH224986   6.395   0.969   4.527  0.0534 -0.4993 -0.0613
 8348TIP3    H124987   6.367   1.059   4.545 -0.7025 -0.9604  1.1557
 8348TIP3    H224988   6.414   0.932   4.614  1.2089 -1.2472 -0.6179
 8349TIP3   OH224989   1.139   5.363   4.357  0.3542 -0.6167  0.0762
 8349TIP3    H124990   1.137   5.345   4.263 -0.8130  3.0519 -0.6943
 8349TIP3    H224991   1.056   5.328   4.390  0.3495 -1.1086 -0.4528
 8350TIP3   OH224992   0.265   0.754   0.898  0.4575  0.3461 -0.6939
 8350TIP3    H124993   0.198   0.777   0.962  0.4995  0.7417 -0.7913
 8350TIP3    H224994   0.342   0.734   0.951  0.1422 -0.5581 -0.5560
 8351TIP3   OH224995   2.532   5.427   3.756 -0.2641  0.0446 -0.0427
 8351TIP3    H124996   2.602   5.454   3.696 -0.5317  0.1008 -0.3341
 8351TIP3    H224997   2.463   5.492   3.743  0.3935  1.1149  1.6794
 8352TIP3   OH224998   7.956   1.304   0.033 -0.4039 -0.1481  0.5434
 8352TIP3    H124999   7.986   1.242   0.099 -0.3544 -0.8867 -0.1611
 8352TIP3    H225000   8.033   1.357   0.013 -0.0092 -0.9281 -0.0295
 8353TIP3   OH225001   2.763   5.873   4.283  0.0056 -0.0926 -0.1678
 8353TIP3    H125002   2.690   5.924   4.248  1.6292  1.3722 -1.5240
 8353TIP3    H225003   2.798   5.927   4.354 -0.1824 -0.7691  0.4504
 8354TIP3   OH225004   3.729   4.855   4.836 -0.2331  0.0675 -0.5020
 8354TIP3    H125005   3.664   4.800   4.880 -0.9012  1.3424  0.1268
 8354TIP3    H225006   3.789   4.792   4.794 -2.0626 -1.1262 -1.4016
 8355TIP3   OH225007   2.095   4.868   6.132  0.1142  0.1178  0.1127
 8355TIP3    H125008   2.147   4.948   6.126  2.6574 -1.6174 -2.6269
 8355TIP3    H225009   2.087   4.838   6.041 -2.5871 -1.6369  0.8688
 8356TIP3   OH225010   5.608   5.499   4.496  0.1710 -0.2477  0.0364
 8356TIP3    H125011   5.554   5.442   4.441  0.5907 -0.5814 -0.0321
 8356TIP3    H225012   5.674   5.441   4.533  0.0595  0.0309  0.6803
 8357TIP3   OH225013   4.134   7.995   2.474  0.1233  0.4105 -0.9835
 8357TIP3    H125014   4.221   7.995   2.434  0.0700 -0.5460 -1.1129
 8357TIP3    H225015   4.073   7.986   2.400  0.0009 -0.8616 -0.7340
 8358TIP3   OH225016   8.240  -0.013   3.847  0.6051  0.0714  0.2765
 8358TIP3    H125017   8.311  -0.046   3.902 -0.9785  0.0933  2.3607
 8358TIP3    H225018   8.271   0.074   3.818  1.9652 -0.4563  0.0766
 8359TIP3   OH225019   2.912   4.717   3.866 -0.3179 -0.1606 -0.2125
 8359TIP3    H125020   2.873   4.695   3.782  0.1453  0.9683 -0.7301
 8359TIP3    H225021   3.006   4.711   3.852 -0.2587 -3.1556  1.1109
 8360TIP3   OH225022   6.321   0.811   5.846  0.1919 -0.0149 -0.0075
 8360TIP3    H125023   6.249   0.873   5.859 -0.8659 -0.9091 -1.3850
 8360TIP3    H225024   6.355   0.795   5.934 -2.2368 -0.6514  0.8715
 8361TIP3   OH225025   1.644   5.019   4.130 -0.0345  0.3710 -0.2468
 8361TIP3    H125026   1.706   5.091   4.142  0.4326  0.4825 -3.0062
 8361TIP3    H225027   1.570   5.058   4.083  0.1649 -0.9112 -1.6432
 8362TIP3   OH225028   4.586   7.821   1.184 -0.0543 -0.7162  0.5214
 8362TIP3    H125029   4.609   7.807   1.276 -0.1947  0.5487  0.7566
 8362TIP3    H225030   4.506   7.770   1.172 -1.0084  0.4642  1.5799
 8363TIP3   OH225031   4.214   5.432   5.682 -0.1438  0.2915  0.0566
 8363TIP3    H125032   4.279   5.430   5.611 -0.1585  0.8459  0.0258
 8363TIP3    H225033   4.243   5.363   5.742  1.4563  1.6440  0.8953
 8364TIP3   OH225034   5.372   4.277   3.197  0.4008 -0.1797  0.2873
 8364TIP3    H125035   5.456   4.248   3.161 -0.0402 -1.7673  0.4933
 8364TIP3    H225036   5.373   4.372   3.187  1.1416 -0.4033 -2.0516
 8365TIP3   OH225037   5.254   5.896   5.616 -0.3805 -0.2651 -0.4928
 8365TIP3    H125038   5.200   5.925   5.542  0.1339  1.3559 -0.2517
 8365TIP3    H225039   5.272   5.804   5.597 -1.7552 -0.3652 -1.4688
 8366TIP3   OH225040   4.414   4.426   2.947 -0.2238 -0.9780 -0.4061
 8366TIP3    H125041   4.395   4.513   2.983  3.1758 -0.6201  0.6352
 8366TIP3    H225042   4.340   4.409   2.888 -2.2282  1.5213  1.2554
 8367TIP3   OH225043   4.259   4.850   6.599 -0.3162  0.3494  0.1313
 8367TIP3    H125044   4.257   4.788   6.526 -0.8109  0.5782 -0.0480
 8367TIP3    H225045   4.167   4.870   6.616 -0.1195  2.0381 -0.6724
 8368TIP3   OH225046   4.468   6.759   3.862 -0.2609 -0.1066 -0.3224
 8368TIP3    H125047   4.500   6.849   3.864 -0.2739 -0.1093  0.1082
 8368TIP3    H225048   4.444   6.744   3.771  0.2332  0.1520 -0.4938
 8369TIP3   OH225049   6.161   4.887   3.416 -0.3147 -0.2072 -0.7538
 8369TIP3    H125050   6.170   4.901   3.511 -0.1083 -0.0368 -0.7978
 8369TIP3    H225051   6.225   4.819   3.396 -1.0628 -0.9592 -0.6021
 8370TIP3   OH225052   5.480   4.973   4.565 -0.5976 -0.6922 -0.3829
 8370TIP3    H125053   5.526   5.020   4.496 -1.4583  1.7775  0.6558
 8370TIP3    H225054   5.544   4.967   4.636 -1.2179  1.0700  0.3595
 8371TIP3   OH225055   3.837   3.100   2.975 -0.7519  0.2979  0.0053
 8371TIP3    H125056   3.783   3.071   3.049 -0.8376 -1.3725 -0.7151
 8371TIP3    H225057   3.926   3.075   2.999 -0.6468  0.6281 -0.0319
 8372TIP3   OH225058   3.504   7.288   3.535 -0.0344 -0.2323  0.0217
 8372TIP3    H125059   3.543   7.306   3.620 -0.2909  0.6608 -0.0509
 8372TIP3    H225060   3.571   7.314   3.472 -0.5279  0.7747 -0.0898
 8373TIP3   OH225061   6.483   4.997   3.807 -0.3318 -0.6700 -0.1187
 8373TIP3    H125062   6.455   5.084   3.777  0.5975 -0.0298  0.8374
 8373TIP3    H225063   6.403   4.945   3.804 -0.9242  0.2419 -0.6144
 8374TIP3   OH225064   2.580   5.586   5.601  0.0714 -0.4711 -0.6236
 8374TIP3    H125065   2.652   5.586   5.664 -0.8884 -2.4221  0.5262
 8374TIP3    H225066   2.510   5.636   5.644  0.4228  0.6876 -1.3798
 8375TIP3   OH225067   1.389   5.912   4.081  0.1406 -0.2099  0.1958
 8375TIP3    H125068   1.440   5.952   4.011  0.3570 -0.2339  0.3422
 8375TIP3    H225069   1.330   5.851   4.035  0.1709 -0.1086  0.0214
 8376TIP3   OH225070   5.251   5.249   2.932 -0.3698 -0.5488 -0.1138
 8376TIP3    H125071   5.279   5.192   2.861 -2.0245  0.3257 -1.5279
 8376TIP3    H225072   5.181   5.200   2.976 -1.2839  0.0520 -0.8698
 8377TIP3   OH225073   2.026   6.711   4.801 -0.2773  0.2428  0.1049
 8377TIP3    H125074   2.038   6.761   4.720 -3.1773 -1.2547 -1.3472
 8377TIP3    H225075   2.053   6.622   4.778 -3.9714 -0.8898 -0.2361
 8378TIP3   OH225076   5.136   4.106   4.444 -0.3403 -0.2540  0.6118
 8378TIP3    H125077   5.200   4.166   4.484 -1.7383  0.7940  1.2956
 8378TIP3    H225078   5.093   4.159   4.376  0.3440 -1.3180 -0.6739
 8379TIP3   OH225079   4.145   5.213   3.369 -0.1512 -0.2189 -0.3413
 8379TIP3    H125080   4.126   5.231   3.461 -1.3149  1.4626 -0.8925
 8379TIP3    H225081   4.063   5.233   3.323  1.1572  1.3342 -2.0525
 8380TIP3   OH225082   4.060   7.030   5.210  0.2198  0.0156 -0.0656
 8380TIP3    H125083   4.135   7.056   5.156  0.7074 -2.5230 -0.6579
 8380TIP3    H225084   4.094   7.033   5.299  0.8425 -0.5450 -0.2811
 8381TIP3   OH225085   5.902   7.838   1.684 -0.7162 -0.6461 -0.4282
 8381TIP3    H125086   5.963   7.846   1.610 -1.0310 -1.2064 -0.7474
 8381TIP3    H225087   5.897   7.927   1.720 -0.5316 -0.3777 -1.0578
 8382TIP3   OH225088   4.694   5.901   4.570  0.3211  0.0176  0.1973
 8382TIP3    H125089   4.713   5.815   4.531  0.7970 -0.3898  1.2985
 8382TIP3    H225090   4.656   5.880   4.656 -0.9406  0.8930 -0.1505
 8383TIP3   OH225091   1.553   7.006   2.520  0.1693  0.1773 -0.5610
 8383TIP3    H125092   1.474   6.957   2.542  1.1474 -1.0300  0.3690
 8383TIP3    H225093   1.616   6.939   2.494  1.6181  0.8973  0.9944
 8384TIP3   OH225094   2.562   5.398   2.216 -0.1344  0.2844  0.0243
 8384TIP3    H125095   2.584   5.416   2.308 -1.4622 -0.4804  0.5086
 8384TIP3    H225096   2.529   5.482   2.183  0.2491  0.5351  0.2690
 8385TIP3   OH225097   3.716   5.522   3.831 -0.0124  0.1683  0.5179
 8385TIP3    H125098   3.808   5.517   3.807  0.0722 -0.3647  0.9464
 8385TIP3    H225099   3.692   5.613   3.814  0.3056  0.0514 -0.5979
 8386TIP3   OH225100   3.326   4.710   5.541 -0.3570  0.2660 -0.0370
 8386TIP3    H125101   3.254   4.676   5.489  1.4170 -1.8164 -1.2298
 8386TIP3    H225102   3.338   4.645   5.611  1.1890 -0.1289 -0.6323
 8387TIP3   OH225103   4.336   7.628   4.688 -0.0739  0.3398 -0.2258
 8387TIP3    H125104   4.290   7.654   4.609 -0.6819 -1.5642 -0.5235
 8387TIP3    H225105   4.273   7.573   4.736  0.8960  0.0167  0.7004
 8388TIP3   OH225106   3.189   4.719   3.879 -0.5738 -0.1335  0.2384
 8388TIP3    H125107   3.265   4.744   3.828 -1.1120 -0.2379 -0.6333
 8388TIP3    H225108   3.215   4.731   3.970  1.1201 -1.9315  0.0356
 8389TIP3   OH225109   4.680   7.089   4.133 -0.2362  0.6849  0.0210
 8389TIP3    H125110   4.673   7.056   4.223 -0.5989  0.8977  0.0705
 8389TIP3    H225111   4.759   7.143   4.134 -0.6383  1.2712  0.3965
 8390TIP3   OH225112   3.303   6.396   6.020  0.0500  0.3381  0.4870
 8390TIP3    H125113   3.320   6.335   5.948 -2.0510 -1.3348  1.3541
 8390TIP3    H225114   3.314   6.483   5.981 -0.0820 -0.5607 -1.5942
 8391TIP3   OH225115   4.655   6.537   6.206 -0.3218  0.2691 -0.2764
 8391TIP3    H125116   4.660   6.462   6.265 -1.2912  0.6152  0.2655
 8391TIP3    H225117   4.721   6.599   6.239  0.6341 -0.4252 -0.8601
 8392TIP3   OH225118   6.442   0.468   3.921  0.0745  0.0583  0.2996
 8392TIP3    H125119   6.380   0.500   3.987 -0.6380  1.2056 -0.8986
 8392TIP3    H225120   6.398   0.484   3.837  1.7557  0.3799 -0.5485
 8393TIP3   OH225121   4.184   5.324   3.641  0.1596 -0.1414  0.5579
 8393TIP3    H125122   4.240   5.391   3.603  0.4787 -0.8769 -0.2668
 8393TIP3    H225123   4.098   5.367   3.650  0.0075 -0.0453 -1.2379
 8394TIP3   OH225124   2.580   4.732   6.383  0.3712 -0.2907  0.1807
 8394TIP3    H125125   2.593   4.665   6.450 -3.0806  0.2401  1.4893
 8394TIP3    H225126   2.580   4.684   6.301 -2.2571 -1.9695  1.1140
 8395TIP3   OH225127   4.919   4.586   2.427  0.3293  0.2828  0.2552
 8395TIP3    H125128   4.990   4.598   2.363 -0.6226 -0.8179 -1.0416
 8395TIP3    H225129   4.949   4.515   2.483  1.1470  1.2177  1.0265
 8396TIP3   OH225130   4.016   5.884   5.140 -0.2330  0.0511  0.6021
 8396TIP3    H125131   3.983   5.812   5.087  0.7392 -1.0226  1.4407
 8396TIP3    H225132   4.010   5.852   5.231  0.4560  0.9179  0.9572
 8397TIP3   OH225133   4.409   5.394   4.775  0.0497  0.4699  0.5375
 8397TIP3    H125134   4.321   5.358   4.772  0.3337 -0.2460  0.8135
 8397TIP3    H225135   4.399   5.478   4.821 -0.6467  0.8720 -0.3326
 8398TIP3   OH225136   2.756   7.487   4.440 -0.0799  0.6621  0.6804
 8398TIP3    H125137   2.720   7.566   4.400  0.4748  1.3113  1.4580
 8398TIP3    H225138   2.729   7.416   4.381 -0.4410  1.4446 -0.1042
 8399TIP3   OH225139   5.063   7.288   3.539 -0.1557  0.1818  0.4249
 8399TIP3    H125140   5.078   7.354   3.471  2.6429 -0.5073  0.2976
 8399TIP3    H225141   5.068   7.337   3.621  1.3191  0.2827  0.3037
 8400TIP3   OH225142   3.367   7.035   3.830  0.2471 -0.1769 -0.5990
 8400TIP3    H125143   3.371   6.965   3.895  1.6893 -1.2666 -1.8377
 8400TIP3    H225144   3.288   7.017   3.780 -1.7097  1.5191  1.7494
 8401TIP3   OH225145   4.098   7.217   4.656 -0.0835  0.0374  0.9339
 8401TIP3    H125146   4.018   7.167   4.671  0.1005  0.1438  2.3716
 8401TIP3    H225147   4.129   7.187   4.570 -0.6088 -1.4536  1.2428
 8402TIP3   OH225148   4.419   7.004   4.624  0.0495  0.0089 -1.0410
 8402TIP3    H125149   4.344   6.967   4.576 -1.6559  1.5961  0.3214
 8402TIP3    H225150   4.470   6.928   4.650 -2.5756 -1.3330  0.4006
 8403TIP3   OH225151   4.819   7.784   5.067  0.0421  0.5582  0.0601
 8403TIP3    H125152   4.822   7.880   5.071 -0.1807  0.5002  1.6996
 8403TIP3    H225153   4.726   7.763   5.078  0.0695  0.1475 -0.4453
 8404TIP3   OH225154   4.660   5.863   2.289  0.3336 -0.1438 -0.7205
 8404TIP3    H125155   4.725   5.921   2.329  0.6611 -1.0230  0.0616
 8404TIP3    H225156   4.700   5.776   2.296 -2.8512 -1.4277  4.0958
 8405TIP3   OH225157   2.725   5.936   2.800  0.5364 -0.3876 -0.0830
 8405TIP3    H125158   2.739   5.975   2.887  2.3776  1.9913 -1.3937
 8405TIP3    H225159   2.674   6.000   2.752 -1.5956 -2.2624 -0.4143
 8406TIP3   OH225160   5.633   5.914   2.013  0.7535 -0.0551 -0.1703
 8406TIP3    H125161   5.640   5.944   1.923 -0.0395  1.8259  0.3636
 8406TIP3    H225162   5.568   5.844   2.010  1.6182 -0.8181 -1.2432
 8407TIP3   OH225163   5.566   5.450   1.964 -0.0123 -0.1201  0.2850
 8407TIP3    H125164   5.583   5.463   2.058 -0.0874  0.4768  0.2166
 8407TIP3    H225165   5.491   5.390   1.961 -1.2871  1.4423  0.6186
 8408TIP3   OH225166   4.526   6.324   6.405 -0.3199  0.0479  0.3530
 8408TIP3    H125167   4.549   6.270   6.330 -1.6731 -1.9211  1.3174
 8408TIP3    H225168   4.434   6.345   6.391 -0.2773  0.5947  0.9033
 8409TIP3   OH225169   1.840   6.964   5.634 -0.1385 -0.0017  0.3351
 8409TIP3    H125170   1.781   6.902   5.592 -0.5786 -0.9048  2.2468
 8409TIP3    H225171   1.790   7.046   5.638  0.7672  0.8112 -3.0084
 8410TIP3   OH225172   3.249   5.544   3.868 -0.3297  0.6321  0.0746
 8410TIP3    H125173   3.163   5.536   3.827 -0.0596  2.8746 -0.9786
 8410TIP3    H225174   3.237   5.611   3.936  0.4761  0.6173  0.2329
 8411TIP3   OH225175   4.204   5.314   3.929 -0.6619 -0.2295  0.3082
 8411TIP3    H125176   4.249   5.231   3.944  0.1164  0.2498  0.6414
 8411TIP3    H225177   4.197   5.320   3.833  0.3100 -0.1408  0.2363
 8412TIP3   OH225178   3.591   5.987   4.771  0.1873 -0.1874  0.2116
 8412TIP3    H125179   3.496   5.993   4.758  0.2012 -0.6137 -0.0844
 8412TIP3    H225180   3.604   5.901   4.810  0.1832  0.9156  2.7292
 8413TIP3   OH225181   2.848   5.867   1.355  0.3267 -0.0023 -0.4480
 8413TIP3    H125182   2.931   5.854   1.309  0.0442  1.2900 -1.3435
 8413TIP3    H225183   2.812   5.779   1.365  1.2985 -0.4675 -1.0022
 8414TIP3   OH225184   2.407   6.730   5.682 -0.1211 -0.1026 -0.3549
 8414TIP3    H125185   2.471   6.778   5.629 -0.9945  0.5818 -0.8050
 8414TIP3    H225186   2.453   6.650   5.709  1.4213  1.0880  0.6057
 8415TIP3   OH225187   3.431   4.905   6.358  0.2651 -0.0749  0.1848
 8415TIP3    H125188   3.497   4.963   6.321  0.0001  1.3268  1.8447
 8415TIP3    H225189   3.362   4.900   6.292  1.0608  0.1592 -0.6638
 8416TIP3   OH225190   4.472   3.929   2.342  0.0983 -0.0409  0.2560
 8416TIP3    H125191   4.391   3.893   2.305  1.0748 -1.7055 -0.2694
 8416TIP3    H225192   4.472   3.898   2.433  0.2050 -0.1131  0.2302
 8417TIP3   OH225193   3.235   6.219   3.441 -0.8421  0.2106  0.6159
 8417TIP3    H125194   3.307   6.244   3.498  0.6277 -0.2243 -1.0125
 8417TIP3    H225195   3.223   6.293   3.382 -1.1788 -0.0659  0.3311
 8418TIP3   OH225196   4.127   3.729   5.874 -0.0928  0.4084 -0.7689
 8418TIP3    H125197   4.064   3.665   5.905  0.1006 -0.8672 -2.9511
 8418TIP3    H225198   4.157   3.695   5.790  1.9040  2.0790 -0.7707
 8419TIP3   OH225199   3.715   7.247   3.162  0.0384 -0.2592  0.4381
 8419TIP3    H125200   3.748   7.283   3.244 -1.3955 -2.4637  2.0633
 8419TIP3    H225201   3.777   7.276   3.095  1.5463  1.0903  2.3973
 8420TIP3   OH225202   2.499   4.887   2.737 -0.6884  0.3222 -0.0666
 8420TIP3    H125203   2.479   4.873   2.830 -0.8736 -0.1355 -0.1759
 8420TIP3    H225204   2.559   4.962   2.737 -0.1339 -0.1114  0.4745
 8421TIP3   OH225205   5.517   4.423   5.960 -0.0938 -0.0498  0.9269
 8421TIP3    H125206   5.503   4.465   5.875 -0.5106  1.9609  1.9512
 8421TIP3    H225207   5.563   4.342   5.940 -1.6133 -0.3832 -1.3635
 8422TIP3   OH225208   2.422   4.993   3.946  0.0918 -0.3528  0.4387
 8422TIP3    H125209   2.399   4.924   4.008  2.3745 -0.8138  0.8106
 8422TIP3    H225210   2.439   5.069   4.001  0.8526 -0.4078  0.2765
 8423TIP3   OH225211   5.451   7.065   4.873 -0.8867  0.3809  0.3404
 8423TIP3    H125212   5.537   7.097   4.902 -1.0014  0.7794  0.2497
 8423TIP3    H225213   5.417   7.015   4.947  0.2361 -1.3686 -0.2968
 8424TIP3   OH225214   5.292   5.062   3.958 -0.0978 -0.4153 -0.0309
 8424TIP3    H125215   5.215   5.093   3.910 -1.6631 -2.5240  1.0387
 8424TIP3    H225216   5.257   5.033   4.042  2.2472  0.8867  1.4582
 8425TIP3   OH225217   3.618   7.123   3.849  0.2105 -0.2099 -0.0538
 8425TIP3    H125218   3.531   7.093   3.824 -1.3626  1.8938  2.6444
 8425TIP3    H225219   3.615   7.218   3.840  2.1049 -0.0906  0.3921
 8426TIP3   OH225220   4.216   6.081   4.481  0.1816  0.1509  0.0614
 8426TIP3    H125221   4.207   6.020   4.555 -0.4329  2.5231  2.0272
 8426TIP3    H225222   4.288   6.047   4.430  0.2595 -1.8807  1.4647
 8427TIP3   OH225223   3.349   6.691   4.971  0.0060  0.0462  0.5706
 8427TIP3    H125224   3.377   6.669   5.059  0.5341 -0.7624  0.2113
 8427TIP3    H225225   3.429   6.687   4.919 -0.5991 -1.3932 -0.3002
 8428TIP3   OH225226   4.571   4.855   3.498 -0.0140  0.4781 -0.1023
 8428TIP3    H125227   4.540   4.933   3.544  0.0551  0.9754 -0.8763
 8428TIP3    H225228   4.535   4.864   3.410  0.2755 -0.1961 -0.2921
 8429TIP3   OH225229   4.208   2.718   0.696 -0.0537  0.1471  0.0167
 8429TIP3    H125230   4.250   2.726   0.610  0.6635 -0.2445  0.3190
 8429TIP3    H225231   4.281   2.718   0.757 -0.6656  2.5409  0.7956
 8430TIP3   OH225232   2.886   6.924   3.824 -0.1633  0.3790 -0.4528
 8430TIP3    H125233   2.834   6.892   3.897 -0.3893  2.2829  0.2229
 8430TIP3    H225234   2.826   6.923   3.749  0.0828 -1.6156 -0.6597
 8431TIP3   OH225235   5.410   0.097   4.094 -0.5254 -0.1282 -0.4671
 8431TIP3    H125236   5.418   0.039   4.169 -0.2563  0.9179  0.3316
 8431TIP3    H225237   5.325   0.139   4.105 -0.1744  0.5652 -0.3463
 8432TIP3   OH225238   4.792   6.008   3.872 -0.0851 -0.1173 -0.3606
 8432TIP3    H125239   4.824   6.093   3.843 -1.6265  1.0592  1.2561
 8432TIP3    H225240   4.761   5.965   3.792  2.8171 -0.1431 -1.5199
 8433TIP3   OH225241   4.778   3.897   2.532 -0.3865  0.1381  0.0258
 8433TIP3    H125242   4.738   3.848   2.459  0.5702  2.2440 -1.9872
 8433TIP3    H225243   4.753   3.988   2.516  1.0047  0.8150  1.5709
 8434TIP3   OH225244   2.988   4.969   3.628  0.0621 -0.0049 -0.2904
 8434TIP3    H125245   2.952   4.995   3.543 -1.0001  0.1287  0.1842
 8434TIP3    H225246   2.963   4.878   3.638  2.6269 -0.8818 -1.3506
 8435TIP3   OH225247   3.761   5.258   4.334 -0.4097  0.0514  0.0985
 8435TIP3    H125248   3.790   5.274   4.424 -1.6042  1.5087  0.2375
 8435TIP3    H225249   3.666   5.263   4.339 -0.4613  0.4820 -1.3110
 8436TIP3   OH225250   2.630   4.512   2.305 -0.5619  0.1766  0.0990
 8436TIP3    H125251   2.666   4.600   2.306  1.3515 -0.5807  0.5619
 8436TIP3    H225252   2.558   4.514   2.368 -0.6977  1.4555 -0.0901
 8437TIP3   OH225253   4.716   7.262   4.695  0.3804  0.0194  0.0741
 8437TIP3    H125254   4.680   7.350   4.682 -0.4415 -0.2863  0.2720
 8437TIP3    H225255   4.796   7.277   4.745  0.2163  0.6595  0.1549
 8438TIP3   OH225256   3.486   5.181   4.612  0.9146  0.3465  0.0547
 8438TIP3    H125257   3.477   5.116   4.543 -1.1800 -2.2633  2.6335
 8438TIP3    H225258   3.571   5.163   4.651  1.4525  0.8476 -0.8786
 8439TIP3   OH225259   5.574   6.076   3.567  0.0092 -0.0049  0.1047
 8439TIP3    H125260   5.639   6.049   3.502 -0.6305  0.1312 -0.5957
 8439TIP3    H225261   5.507   6.123   3.516 -0.6384 -0.1479  0.8173
 8440TIP3   OH225262   7.136   1.105   2.847 -0.0786  0.6014  0.4580
 8440TIP3    H125263   7.198   1.056   2.901 -1.1824 -1.2526  0.0879
 8440TIP3    H225264   7.094   1.165   2.908 -1.6880 -1.8306  1.8260
 8441TIP3   OH225265   6.381   6.582   4.065 -0.1040 -0.4052 -0.4761
 8441TIP3    H125266   6.389   6.563   3.972 -0.0771 -0.5606 -0.4425
 8441TIP3    H225267   6.419   6.669   4.075 -0.6523 -0.1365 -0.7062
 8442TIP3   OH225268   3.766   5.384   6.420  0.4190  0.0966  0.2225
 8442TIP3    H125269   3.684   5.404   6.375  0.4299  1.0135  0.5975
 8442TIP3    H225270   3.834   5.398   6.355  0.3345  0.1315  0.1416
 8443TIP3   OH225271   2.584   6.293   4.505  0.2475  0.1390 -0.3813
 8443TIP3    H125272   2.583   6.306   4.410  0.1554  0.5868 -0.3176
 8443TIP3    H225273   2.548   6.205   4.517  2.9803 -1.1156 -0.9540
 8444TIP3   OH225274   3.867   6.324   4.412 -0.4931 -0.0468  0.0334
 8444TIP3    H125275   3.939   6.317   4.350  0.5100 -0.2898  1.1937
 8444TIP3    H225276   3.794   6.359   4.362  1.8710  5.1676 -0.0420
 8445TIP3   OH225277   3.320   6.610   4.384  0.7505 -0.5053  0.9277
 8445TIP3    H125278   3.343   6.526   4.344 -1.3157 -1.4744  1.7076
 8445TIP3    H225279   3.344   6.599   4.476  0.4219 -0.2541  1.0418
 8446TIP3   OH225280   3.261   7.872   2.819 -0.2349  0.3450  0.1029
 8446TIP3    H125281   3.267   7.797   2.878  0.4101  0.3129 -0.0043
 8446TIP3    H225282   3.312   7.940   2.863  0.9391  0.0647 -0.8286
 8447TIP3   OH225283   4.512   8.022   3.909  0.3108 -0.0496 -0.4052
 8447TIP3    H125284   4.567   7.963   3.961 -0.9347 -0.2508  0.7078
 8447TIP3    H225285   4.461   7.963   3.853 -0.4622 -0.0058  0.2427
 8448TIP3   OH225286   4.931   4.868   2.488 -0.1339  0.1616 -0.2756
 8448TIP3    H125287   4.965   4.795   2.437 -0.1139  0.5238 -0.7859
 8448TIP3    H225288   4.858   4.831   2.537 -0.1359 -0.1985 -0.5505
 8449TIP3   OH225289   3.140   6.607   3.809  0.5368  0.2295 -0.0459
 8449TIP3    H125290   3.228   6.597   3.845 -0.2105 -0.4413  1.6154
 8449TIP3    H225291   3.147   6.574   3.719  1.3665 -2.3495  0.9278
 8450TIP3   OH225292   5.837   6.598   4.429  0.1609  0.6956  0.2098
 8450TIP3    H125293   5.888   6.634   4.358 -3.4945  0.7295 -2.5556
 8450TIP3    H225294   5.759   6.654   4.434 -2.4495 -2.7464  0.2117
 8451TIP3   OH225295   4.903   6.688   4.093 -0.4354 -0.0216  0.2184
 8451TIP3    H125296   4.933   6.776   4.074 -0.6116  0.3865  1.7269
 8451TIP3    H225297   4.808   6.694   4.094 -0.4582 -0.3039  0.0133
 8452TIP3   OH225298   6.242   2.750   4.834 -0.4998 -0.3889  0.3363
 8452TIP3    H125299   6.332   2.748   4.802 -0.4350 -0.4814  0.5252
 8452TIP3    H225300   6.250   2.774   4.926 -0.7583  1.1090 -0.0054
 8453TIP3   OH225301   5.625   7.365   2.422 -0.2348  0.0055  0.5343
 8453TIP3    H125302   5.651   7.322   2.504  0.6361 -1.3797 -0.4363
 8453TIP3    H225303   5.566   7.302   2.380 -0.0856  0.3822 -0.2429
 8454TIP3   OH225304   4.296   6.644   4.861  0.4059 -0.3811  0.6351
 8454TIP3    H125305   4.307   6.704   4.935 -2.1502 -0.7929  1.3710
 8454TIP3    H225306   4.234   6.689   4.803  1.1405 -0.7941 -0.4888
 8455TIP3   OH225307   4.144   5.840   3.306 -0.0722 -0.3217  0.4040
 8455TIP3    H125308   4.158   5.935   3.312 -0.5152 -0.2597  0.4661
 8455TIP3    H225309   4.140   5.810   3.397 -0.4856 -0.3187  0.3856
 8456TIP3   OH225310   4.281   6.625   3.377 -0.6420  0.2775 -0.3361
 8456TIP3    H125311   4.188   6.624   3.354 -0.8184 -1.5195  0.3768
 8456TIP3    H225312   4.325   6.583   3.303 -0.4934  0.3025 -0.2628
 8457TIP3   OH225313   1.893   6.869   3.297  0.6447  0.4382  0.6341
 8457TIP3    H125314   1.953   6.798   3.318  0.5619 -0.0617 -0.7677
 8457TIP3    H225315   1.864   6.850   3.208  0.7661  2.3121  0.1745
 8458TIP3   OH225316   5.099   5.090   3.216  0.2050 -0.3846 -0.7090
 8458TIP3    H125317   5.087   5.015   3.158 -0.4346  0.1168 -1.2393
 8458TIP3    H225318   5.051   5.067   3.295  1.3273 -1.1983 -0.2610
 8459TIP3   OH225319   5.567   0.089   3.604 -0.1930  0.3828  0.3732
 8459TIP3    H125320   5.590   0.084   3.697  0.5070  0.0029  0.1836
 8459TIP3    H225321   5.634   0.146   3.566 -0.3836  0.4058  0.0680
 8460TIP3   OH225322   3.731   6.260   2.914 -0.3928  0.6290 -0.1145
 8460TIP3    H125323   3.766   6.285   2.999 -0.1179  0.0063 -0.0363
 8460TIP3    H225324   3.647   6.306   2.907 -1.1967 -0.5806  1.2093
 8461TIP3   OH225325   5.085   6.923   3.838 -0.2030  0.0642 -0.0803
 8461TIP3    H125326   5.153   6.982   3.807  2.7761 -3.2693 -0.1993
 8461TIP3    H225327   5.090   6.928   3.933 -1.7302  1.8905 -0.0722
 8462TIP3   OH225328   1.608   7.307   1.158  0.0135  0.3554 -0.2920
 8462TIP3    H125329   1.619   7.265   1.073 -0.4171  2.7636 -1.5556
 8462TIP3    H225330   1.535   7.368   1.146 -1.1523 -0.4540  2.2679
 8463TIP3   OH225331   3.462   6.904   0.766 -0.6657  0.1620  0.3386
 8463TIP3    H125332   3.377   6.869   0.741 -0.1563 -0.4488 -0.5693
 8463TIP3    H225333   3.526   6.846   0.723  0.2340 -0.4222  2.3806
 8464TIP3   OH225334   3.535   6.784   5.581 -0.8605  0.5429 -0.7703
 8464TIP3    H125335   3.525   6.874   5.610  0.2222  0.2438  0.5639
 8464TIP3    H225336   3.625   6.761   5.603 -1.4239 -1.1850 -0.1583
 8465TIP3   OH225337   2.859   5.494   4.529 -0.0495 -0.0015  0.0858
 8465TIP3    H125338   2.872   5.560   4.461  0.6234  0.0296  0.2341
 8465TIP3    H225339   2.947   5.478   4.563  0.0113 -2.0270 -0.9414
 8466TIP3   OH225340   3.150   5.296   3.450  0.2475 -0.2769  0.4099
 8466TIP3    H125341   3.232   5.246   3.452 -0.0786 -0.8006  0.5320
 8466TIP3    H225342   3.085   5.234   3.417  0.2307  0.6002 -1.2635
 8467TIP3   OH225343   5.863   5.229   5.135  0.1205 -0.1776  0.5308
 8467TIP3    H125344   5.854   5.279   5.216  1.0613  0.2765  0.3562
 8467TIP3    H225345   5.941   5.265   5.092 -0.3082 -0.4767 -0.5276
 8468TIP3   OH225346   2.950   6.348   3.931  0.0288 -0.2914  0.2039
 8468TIP3    H125347   2.858   6.343   3.956 -0.3468  0.4135 -1.0039
 8468TIP3    H225348   2.960   6.280   3.864  0.1000  0.4369 -0.5287
 8469TIP3   OH225349   3.988   5.130   4.639  0.2201  0.6614  0.0819
 8469TIP3    H125350   4.037   5.090   4.568 -1.3663 -0.1302 -0.5891
 8469TIP3    H225351   3.960   5.215   4.604 -1.2480 -0.0694 -0.5468
 8470TIP3   OH225352   6.997   6.331   4.004  0.5587  0.4909  0.8324
 8470TIP3    H125353   6.912   6.342   4.047 -0.5702 -2.8065 -0.3566
 8470TIP3    H225354   6.994   6.393   3.930 -0.0928  1.6021  1.7655
 8471TIP3   OH225355   4.498   6.828   2.811  0.1118 -0.3048 -0.1853
 8471TIP3    H125356   4.436   6.839   2.883 -1.0904 -1.3270 -1.0411
 8471TIP3    H225357   4.504   6.915   2.770 -0.8741 -0.2441 -0.1981
 8472TIP3   OH225358   5.290   0.028   2.830  0.2242  0.0648  0.0371
 8472TIP3    H125359   5.371   0.025   2.780  0.4751  1.8824  0.3195
 8472TIP3    H225360   5.318   0.038   2.921 -0.2550 -2.3218  0.4982
 8473TIP3   OH225361   4.672   6.703   3.543 -0.2922 -0.2628  0.3737
 8473TIP3    H125362   4.715   6.624   3.511 -1.3817 -0.8749  0.3973
 8473TIP3    H225363   4.727   6.774   3.512 -0.3798 -0.9331 -1.3793
 8474TIP3   OH225364   3.858   3.625   5.217 -0.5853  0.1217  0.2823
 8474TIP3    H125365   3.873   3.707   5.170 -0.1930 -0.5513 -0.7832
 8474TIP3    H225366   3.764   3.625   5.236 -0.2160  1.8971  2.3571
 8475TIP3   OH225367   2.530   7.432   3.440  0.0511  0.0665  0.1022
 8475TIP3    H125368   2.448   7.480   3.425  0.9896  1.3942 -0.9898
 8475TIP3    H225369   2.531   7.366   3.370  0.0480  0.2517 -0.0758
 8476TIP3   OH225370   3.645   7.462   4.893 -0.0691  0.8670  0.1417
 8476TIP3    H125371   3.607   7.536   4.846 -0.6064  1.6719  1.8303
 8476TIP3    H225372   3.596   7.386   4.860 -1.9881  1.6909  1.0226
 8477TIP3   OH225373   5.490   0.316   2.977  0.4730 -0.3630 -0.1663
 8477TIP3    H125374   5.502   0.288   3.068 -3.3565 -3.3290 -0.4241
 8477TIP3    H225375   5.547   0.258   2.926  2.5425  1.2335  0.2337
 8478TIP3   OH225376   5.106   7.923   2.538 -0.4186  0.2908 -0.0125
 8478TIP3    H125377   5.129   7.907   2.629 -1.2624 -1.9637 -0.1483
 8478TIP3    H225378   5.189   7.936   2.494  0.2057 -1.2843  0.6393
 8479TIP3   OH225379   7.144   0.165   4.068  0.0254 -0.1292 -0.1409
 8479TIP3    H125380   7.207   0.140   4.000 -1.8673 -1.3079 -1.5646
 8479TIP3    H225381   7.176   0.123   4.147  0.4425 -1.6564 -1.0898
 8480TIP3   OH225382   6.396   0.094   3.092  0.2332  0.6737 -0.6075
 8480TIP3    H125383   6.305   0.099   3.120 -0.0093 -1.2562 -0.9625
 8480TIP3    H225384   6.391   0.069   3.000  1.1037  1.9663 -1.0179
 8481TIP3   OH225385   3.158   6.065   5.033  0.2823  0.7909  0.5442
 8481TIP3    H125386   3.115   6.074   5.118  1.7587  0.3535  1.3567
 8481TIP3    H225387   3.167   5.971   5.020 -0.6701  0.8313 -0.4918
 8482TIP3   OH225388   4.830   6.484   1.747 -0.0306 -0.5831 -0.4438
 8482TIP3    H125389   4.789   6.548   1.805  2.1816 -0.6765  1.3375
 8482TIP3    H225390   4.840   6.529   1.663  0.1892  0.9292  0.3776
 8483TIP3   OH225391   2.821   6.110   4.500 -0.3355 -0.2330 -0.6764
 8483TIP3    H125392   2.908   6.114   4.539 -0.9887 -0.3776  0.8209
 8483TIP3    H225393   2.798   6.202   4.485 -0.4137 -0.1346  0.0353
 8484TIP3   OH225394   4.242   5.551   4.264  0.2129  0.3827  0.2552
 8484TIP3    H125395   4.272   5.616   4.200 -0.0691  1.3788  1.1168
 8484TIP3    H225396   4.146   5.553   4.258  0.2397 -2.7323 -2.4275
 8485TIP3   OH225397   1.222   2.979   0.699  0.0419 -0.0832  0.0118
 8485TIP3    H125398   1.188   2.898   0.662  0.1479 -0.1975  0.1662
 8485TIP3    H225399   1.226   2.963   0.793 -0.7653  0.4064  0.1357
 8486TIP3   OH225400   5.007   7.757   5.940 -0.1463  0.0650 -0.0322
 8486TIP3    H125401   5.013   7.744   5.845 -1.6680  0.0188 -0.1277
 8486TIP3    H225402   4.916   7.781   5.955 -0.3003 -1.5020  1.6049
 8487TIP3   OH225403   4.048   6.644   1.994 -0.6824  0.5953 -0.2202
 8487TIP3    H125404   4.112   6.671   1.928  0.0706  2.8559  1.3494
 8487TIP3    H225405   4.054   6.712   2.062 -2.2176 -1.0617  1.6399
 8488TIP3   OH225406   2.764   6.811   6.661  0.4687 -0.7790 -0.2390
 8488TIP3    H125407   2.783   6.755   6.586  0.5009 -0.3531 -0.5574
 8488TIP3    H225408   2.817   6.890   6.646 -0.2243 -0.3030 -0.2528
 8489TIP3   OH225409   4.951   6.310   4.086  0.7522 -0.0988  0.9837
 8489TIP3    H125410   4.951   6.361   4.167  0.5681 -2.2880  2.3871
 8489TIP3    H225411   5.042   6.283   4.074  0.7971  0.3002  0.4006
 8490TIP3   OH225412   2.940   7.010   5.343 -0.4322 -0.3425 -0.3408
 8490TIP3    H125413   2.862   6.983   5.295 -0.3410  0.2817 -0.8420
 8490TIP3    H225414   2.985   6.928   5.362 -0.6781 -0.6304 -0.9610
 8491TIP3   OH225415   5.031   7.586   3.194 -0.1105  0.4932 -0.3686
 8491TIP3    H125416   4.964   7.586   3.262  0.4122 -0.2182  0.1666
 8491TIP3    H225417   5.087   7.511   3.216  0.3140  0.5187 -1.3360
 8492TIP3   OH225418   4.391   5.680   6.756 -0.0335  0.3545 -0.3750
 8492TIP3    H125419   4.378   5.597   6.803 -3.7781  1.7044  1.2026
 8492TIP3    H225420   4.346   5.667   6.673 -0.2743  0.6600 -0.2928
 8493TIP3   OH225421   3.277   6.734   5.851 -0.4903  0.1207  0.3151
 8493TIP3    H125422   3.185   6.762   5.845  0.3504  2.7284 -0.8166
 8493TIP3    H225423   3.305   6.725   5.760  0.5693 -0.1185  0.6649
 8494TIP3   OH225424   3.674   6.079   4.197  0.2129  0.0682 -0.2549
 8494TIP3    H125425   3.599   6.064   4.138  1.1104 -1.8036 -0.9576
 8494TIP3    H225426   3.748   6.040   4.151  1.3462  0.5577  1.1353
 8495TIP3   OH225427   4.579   4.172   6.192  1.1457 -0.6225 -0.3562
 8495TIP3    H125428   4.627   4.255   6.198  0.4449 -0.2467  0.0748
 8495TIP3    H225429   4.629   4.111   6.246 -0.1707  0.4015  2.0968
 8496TIP3   OH225430   4.488   6.939   5.949 -0.2195 -0.7037  0.3013
 8496TIP3    H125431   4.555   6.878   5.917 -0.4409 -0.2214 -1.1227
 8496TIP3    H225432   4.538   7.016   5.977 -0.1601 -0.2966 -0.8689
 8497TIP3   OH225433   4.599   3.677   6.080 -0.1194  0.6231  0.5356
 8497TIP3    H125434   4.624   3.678   6.173 -1.7915 -1.7130  1.0617
 8497TIP3    H225435   4.555   3.760   6.066  4.1428  3.0236  0.6273
 8498TIP3   OH225436   3.699   3.803   5.938 -0.1223  0.2121  0.4126
 8498TIP3    H125437   3.743   3.765   6.014  3.3175 -1.0867 -2.1338
 8498TIP3    H225438   3.757   3.874   5.909 -1.1274  0.3639 -1.3310
 8499TIP3   OH225439   4.323   6.864   5.020  0.2922  0.5693  0.4172
 8499TIP3    H125440   4.330   6.834   5.111 -0.2170  1.7161  0.8320
 8499TIP3    H225441   4.329   6.959   5.025 -2.3840  0.8099 -0.4957
 8500TIP3   OH225442   3.458   7.874   3.460  0.0528 -0.6892  0.0174
 8500TIP3    H125443   3.480   7.957   3.418 -0.6541 -1.2327 -1.4486
 8500TIP3    H225444   3.460   7.810   3.389 -1.7797 -1.5177  0.6867
 8501TIP3   OH225445   1.991   0.876   1.479  0.2380 -0.7185 -0.7370
 8501TIP3    H125446   1.920   0.858   1.417  0.1569  2.1546 -1.5748
 8501TIP3    H225447   2.070   0.843   1.436 -0.0890 -0.4788 -1.5306
 8502TIP3   OH225448   2.393   2.490   5.351 -0.1506  0.2601 -0.2233
 8502TIP3    H125449   2.348   2.434   5.415  1.3886 -2.3527 -1.3032
 8502TIP3    H225450   2.324   2.519   5.292 -1.3392  1.3897  1.6625
 8503TIP3   OH225451   3.742   7.868   6.113  0.7020  0.5952 -0.5620
 8503TIP3    H125452   3.709   7.937   6.172 -0.5060 -0.0604 -0.4601
 8503TIP3    H225453   3.684   7.872   6.037  0.0413 -0.9134 -0.1579
 8504TIP3   OH225454   4.530   5.117   6.016 -0.0674 -0.3659  0.1663
 8504TIP3    H125455   4.549   5.210   6.027 -1.2706 -0.1220  0.3230
 8504TIP3    H225456   4.530   5.103   5.922 -1.7505  0.2217  0.0587
 8505TIP3   OH225457   2.867   7.289   1.360 -0.2968 -0.3685 -0.0648
 8505TIP3    H125458   2.880   7.381   1.339 -1.1893 -0.3319 -0.4641
 8505TIP3    H225459   2.790   7.287   1.416  1.0333 -0.6464  1.8115
 8506TIP3   OH225460   3.037   6.392   4.224 -0.2276  0.0735  0.0603
 8506TIP3    H125461   3.001   6.372   4.137  0.0604 -1.8236  0.3599
 8506TIP3    H225462   3.131   6.383   4.214 -0.1508  0.4473  0.4311
 8507TIP3   OH225463   2.039   7.532   4.187 -0.2980 -0.6631  0.4224
 8507TIP3    H125464   2.107   7.600   4.192 -0.1764 -0.6752 -0.7508
 8507TIP3    H225465   2.083   7.452   4.215 -0.1428 -0.4607  0.7654
 8508TIP3   OH225466   6.492   0.589   3.238 -0.1048  0.3554 -0.0342
 8508TIP3    H125467   6.487   0.497   3.264  0.7327  0.6251  1.1146
 8508TIP3    H225468   6.458   0.590   3.149 -0.3896 -1.0256  0.0411
 8509TIP3   OH225469   3.365   6.921   4.493 -0.0480  0.8404  0.1417
 8509TIP3    H125470   3.403   6.839   4.524 -1.0420 -0.3586 -1.7317
 8509TIP3    H225471   3.360   6.976   4.571  1.3932 -0.5776  1.2608
 8510TIP3   OH225472   5.400   4.440   4.748 -0.2245 -0.5992  0.0862
 8510TIP3    H125473   5.419   4.347   4.736 -1.1147 -0.8211  0.3481
 8510TIP3    H225474   5.442   4.463   4.831 -0.4486 -0.8982  0.2829
 8511TIP3   OH225475   8.323   0.288   3.782 -0.4479 -0.0876 -0.3285
 8511TIP3    H125476   8.229   0.308   3.791 -0.3905 -0.4073  1.1689
 8511TIP3    H225477   8.367   0.371   3.802 -0.3861 -0.2148  0.0736
 8512TIP3   OH225478   5.887   5.828   3.187 -0.2565 -0.0038  0.1064
 8512TIP3    H125479   5.972   5.785   3.184 -0.1474 -0.1093  3.1145
 8512TIP3    H225480   5.828   5.769   3.141  0.1417 -2.8609  3.0710
 8513TIP3   OH225481   3.927   6.706   5.322 -0.1910 -0.1987 -0.3234
 8513TIP3    H125482   4.022   6.712   5.326 -0.1572 -0.5472 -0.5975
 8513TIP3    H225483   3.899   6.791   5.289 -0.0663  0.4141  1.1261
 8514TIP3   OH225484   3.084   5.991   3.391 -0.2882  0.4149 -0.4208
 8514TIP3    H125485   3.133   5.924   3.438  1.3378 -0.2512 -2.9900
 8514TIP3    H225486   3.144   6.066   3.387 -0.4465  0.5029 -1.3041
 8515TIP3   OH225487   5.982   6.431   2.552  0.5318 -0.5623  0.0900
 8515TIP3    H125488   6.073   6.402   2.554  0.2782 -1.2741  2.4911
 8515TIP3    H225489   5.932   6.351   2.535  0.1300 -0.8427  2.4271
 8516TIP3   OH225490   6.608   5.399   0.809 -0.6236  0.0338 -0.6051
 8516TIP3    H125491   6.567   5.326   0.762 -1.8932  0.0030  0.5412
 8516TIP3    H225492   6.552   5.474   0.791 -1.5942 -0.1528  1.4983
 8517TIP3   OH225493   3.730   5.007   2.253  0.0698  0.2864 -0.0380
 8517TIP3    H125494   3.675   4.932   2.276  1.5909 -0.9676 -0.4390
 8517TIP3    H225495   3.739   5.057   2.334 -1.0277  0.1085  0.2044
 8518TIP3   OH225496   6.557   6.811   4.137 -0.5310 -0.1710  0.0900
 8518TIP3    H125497   6.611   6.774   4.206  0.8435  1.5108 -0.0590
 8518TIP3    H225498   6.614   6.816   4.061 -0.7699  1.9709  0.0314
 8519TIP3   OH225499   5.944   7.480   3.688 -1.1511  0.2517  0.0322
 8519TIP3    H125500   5.969   7.391   3.713 -0.6504 -0.8255 -3.8879
 8519TIP3    H225501   6.013   7.536   3.723 -0.0932 -1.2113  0.3191
 8520TIP3   OH225502   4.974   5.948   5.464 -0.6254  0.6586  0.5068
 8520TIP3    H125503   4.958   5.909   5.378  2.3892 -1.2934  0.7818
 8520TIP3    H225504   4.964   5.876   5.525  0.1414  1.3885  1.5137
 8521TIP3   OH225505   5.954   6.348   4.980 -0.3070  0.0548 -0.0669
 8521TIP3    H125506   5.892   6.386   5.042 -0.1143 -0.5733  0.5099
 8521TIP3    H225507   5.911   6.268   4.949  0.6510 -0.9423  1.1230
 8522TIP3   OH225508   5.279   4.917   4.199  0.3299  0.0399  0.4404
 8522TIP3    H125509   5.224   4.851   4.157 -2.0726  1.3528  1.4009
 8522TIP3    H225510   5.249   4.918   4.290  0.8463  1.8912  0.6020
 8523TIP3   OH225511   3.735   6.768   4.015  0.4337  0.3673 -0.3879
 8523TIP3    H125512   3.778   6.842   4.058 -1.8315  1.8185 -0.5398
 8523TIP3    H225513   3.645   6.771   4.047  0.0462 -1.7181 -1.2150
 8524TIP3   OH225514   4.773   4.578   3.675  0.3330  0.3180  0.0294
 8524TIP3    H125515   4.706   4.603   3.738 -1.5589 -1.2060 -1.3098
 8524TIP3    H225516   4.853   4.619   3.707 -1.1233  1.7335  1.9562
 8525TIP3   OH225517   5.778   6.420   6.117 -0.0864 -0.5896  0.0090
 8525TIP3    H125518   5.694   6.404   6.075 -0.3555  0.5800  0.0668
 8525TIP3    H225519   5.799   6.338   6.161 -0.4354 -1.3919 -1.2973
 8526TIP3   OH225520   4.560   6.022   6.561 -0.0011 -0.2506 -0.0600
 8526TIP3    H125521   4.578   6.052   6.651 -2.9168  2.0522 -0.1720
 8526TIP3    H225522   4.573   6.100   6.508  0.2886 -1.2663 -1.4930
 8527TIP3   OH225523   5.263   4.918   4.848  0.8176  0.2073 -0.0374
 8527TIP3    H125524   5.255   4.993   4.907  0.5444 -0.8101  1.2492
 8527TIP3    H225525   5.296   4.955   4.766 -0.9550  1.9780  0.0122
 8528TIP3   OH225526   3.093   4.886   6.746 -0.1932  0.4708 -0.6074
 8528TIP3    H125527   3.127   4.973   6.725  0.9709  0.0500 -0.4945
 8528TIP3    H225528   3.144   4.826   6.691 -0.8003 -0.1649 -0.4901
 8529TIP3   OH225529   2.458   5.276   5.228 -0.1108  0.3377 -0.5969
 8529TIP3    H125530   2.384   5.328   5.257  1.3010  2.2475 -0.3413
 8529TIP3    H225531   2.531   5.305   5.283  0.7661 -1.7475 -0.6087
 8530TIP3   OH225532   7.094   1.456   4.313 -0.0409 -0.3507  0.0328
 8530TIP3    H125533   7.016   1.471   4.367  0.2154 -0.0718  0.3307
 8530TIP3    H225534   7.127   1.544   4.294  0.5111 -0.4823  0.3685
 8531TIP3   OH225535   5.623   5.631   5.258  0.0565 -0.1160  0.2743
 8531TIP3    H125536   5.618   5.711   5.311 -0.1379  0.1299 -0.1098
 8531TIP3    H225537   5.556   5.643   5.191  0.1181 -0.5455  0.1343
 8532TIP3   OH225538   4.016   4.719   2.041 -0.2125 -0.0741  0.7144
 8532TIP3    H125539   4.022   4.680   2.128  0.7953 -0.4392  0.4958
 8532TIP3    H225540   4.107   4.729   2.013 -0.5386 -0.5331 -0.5490
 8533TIP3   OH225541   3.340   7.291   4.519 -0.1663 -0.8019  0.0423
 8533TIP3    H125542   3.370   7.304   4.429  0.1087  0.9616  0.3843
 8533TIP3    H225543   3.261   7.344   4.526 -0.9915 -2.0532  0.4357
 8534TIP3   OH225544   2.913   7.401   3.342 -0.2203  0.1141  0.2399
 8534TIP3    H125545   2.888   7.369   3.429 -1.5895 -0.1942 -0.2530
 8534TIP3    H225546   2.858   7.351   3.282 -0.1820  1.2266 -0.7370
 8535TIP3   OH225547   4.844   4.594   2.972 -0.5135 -0.5430 -0.3246
 8535TIP3    H125548   4.863   4.507   2.937  2.2203 -0.3096  0.4466
 8535TIP3    H225549   4.897   4.653   2.919  0.3514  0.2668  1.4026
 8536TIP3   OH225550   1.483   7.878   4.643 -0.2274 -0.2995 -0.0351
 8536TIP3    H125551   1.517   7.946   4.585 -0.7310  0.3800  0.4658
 8536TIP3    H225552   1.535   7.886   4.723 -1.4895  0.6673  0.6883
 8537TIP3   OH225553   2.756   6.518   3.783 -0.3416 -0.2438  0.0978
 8537TIP3    H125554   2.722   6.489   3.868  0.0257 -0.3061  0.2220
 8537TIP3    H225555   2.734   6.446   3.723 -1.5697  0.2687 -0.0915
 8538TIP3   OH225556   4.684   5.214   5.032  0.0660  0.5960 -0.3294
 8538TIP3    H125557   4.718   5.156   5.101  0.1595  0.9506 -0.0742
 8538TIP3    H225558   4.685   5.301   5.072  0.3246  0.8353 -0.8585
 8539TIP3   OH225559   4.055   6.662   5.824  0.3072 -0.3529 -0.1531
 8539TIP3    H125560   4.028   6.744   5.784 -0.0537 -0.0538  0.6938
 8539TIP3    H225561   4.145   6.649   5.796  0.4767  0.5116  0.0034
 8540TIP3   OH225562   4.141   4.941   4.174 -0.1207 -0.1441  0.0237
 8540TIP3    H125563   4.104   4.967   4.258  0.6765  0.4733  0.1877
 8540TIP3    H225564   4.217   4.998   4.162  0.8976 -1.5081 -0.2181
 8541TIP3   OH225565   4.834   0.362   2.608 -0.1048 -0.2060 -0.5241
 8541TIP3    H125566   4.810   0.439   2.661 -1.6708  0.0792 -1.6020
 8541TIP3    H225567   4.769   0.296   2.631 -0.0701 -0.4818 -1.2165
 8542TIP3   OH225568   4.277   5.968   3.783 -0.3446  0.1380  0.1614
 8542TIP3    H125569   4.196   5.988   3.829 -0.0449  0.8035  0.4009
 8542TIP3    H225570   4.324   6.051   3.779 -0.2156  0.0047 -1.0487
 8543TIP3   OH225571   3.523   7.921   3.738  0.4647 -0.0637  0.6161
 8543TIP3    H125572   3.488   7.912   3.649  0.0786  1.1215  0.6373
 8543TIP3    H225573   3.587   7.992   3.731 -0.0902  0.5278  1.4263
 8544TIP3   OH225574   5.872   0.020   4.815  0.0872  0.0810 -0.7209
 8544TIP3    H125575   5.882   0.111   4.841  1.4781 -0.5752  1.2139
 8544TIP3    H225576   5.804   0.021   4.748  0.3918  2.5793 -1.0461
 8545TIP3   OH225577   6.808   1.400   5.507 -0.6775 -0.3687  0.0499
 8545TIP3    H125578   6.780   1.324   5.558 -1.4583  0.3016  0.6268
 8545TIP3    H225579   6.876   1.366   5.449  0.1831 -1.1319  1.5037
 8546TIP3   OH225580   3.473   7.401   4.282  0.9918 -0.8035 -0.3608
 8546TIP3    H125581   3.424   7.465   4.231 -1.2606 -0.9531  1.5371
 8546TIP3    H225582   3.506   7.339   4.217  0.3585  0.4134 -1.8743
 8547TIP3   OH225583   2.397   7.085   2.589  0.0334  0.0631 -0.1769
 8547TIP3    H125584   2.325   7.138   2.622  0.9813  1.1233  0.2469
 8547TIP3    H225585   2.430   7.133   2.513 -1.2243 -1.6380 -1.8310
 8548TIP3   OH225586   2.367   7.869   3.300 -0.1532  0.4460  0.6495
 8548TIP3    H125587   2.355   7.778   3.327 -0.9763  0.4709  0.3775
 8548TIP3    H225588   2.303   7.918   3.353 -0.7708  0.6751 -0.2956
 8549TIP3   OH225589   4.894   4.938   5.025 -0.6239  0.7107 -0.0151
 8549TIP3    H125590   4.913   4.847   5.048 -1.5556  0.4154 -0.3565
 8549TIP3    H225591   4.875   4.980   5.109  0.9279  0.8783  0.2649
 8550TIP3   OH225592   3.968   5.320   2.607  0.4191 -0.2104 -0.1120
 8550TIP3    H125593   4.046   5.298   2.659  0.4901 -0.0917 -0.1680
 8550TIP3    H225594   3.918   5.380   2.663 -0.1740 -1.1387  0.3653
 8551TIP3   OH225595   1.677   2.812   0.283  0.2227  0.0891  0.8572
 8551TIP3    H125596   1.587   2.801   0.316 -0.2457  1.8580  0.1958
 8551TIP3    H225597   1.709   2.722   0.275 -0.5294 -0.4862  3.6588
 8552TIP3   OH225598   4.089   7.181   3.542 -0.7092  0.6946  0.1073
 8552TIP3    H125599   4.025   7.200   3.611 -0.0150 -0.6020  1.1363
 8552TIP3    H225600   4.068   7.092   3.514  1.6826 -0.4135  1.6758
 8553TIP3   OH225601   4.991   5.151   4.592  0.3356 -0.5750 -0.6627
 8553TIP3    H125602   5.043   5.074   4.570  1.1314 -0.2088 -0.1112
 8553TIP3    H225603   5.003   5.161   4.686  1.3885  1.0447 -0.9518
 8554TIP3   OH225604   3.670   5.084   3.390  0.2721  0.3173 -0.4669
 8554TIP3    H125605   3.757   5.124   3.384 -0.6277  2.3186 -0.5586
 8554TIP3    H225606   3.653   5.076   3.484 -1.0246  3.5678 -0.3627
 8555TIP3   OH225607   4.838   6.694   4.566  0.2168 -0.4097 -0.5121
 8555TIP3    H125608   4.764   6.698   4.505 -0.3673 -0.7679  0.1701
 8555TIP3    H225609   4.866   6.785   4.576 -0.3762 -0.2281 -0.4737
 8556TIP3   OH225610   2.850   4.713   2.103 -0.3006 -0.5263 -0.2525
 8556TIP3    H125611   2.831   4.721   2.009  0.0410  1.4302 -0.1861
 8556TIP3    H225612   2.896   4.630   2.111  0.4750 -0.2939 -1.9618
 8557TIP3   OH225613   6.164   0.156   3.952 -0.1616  0.0707  0.4739
 8557TIP3    H125614   6.137   0.103   3.877 -0.1112  1.2139 -0.3693
 8557TIP3    H225615   6.107   0.233   3.949  1.2792  1.1676  0.3084
 8558TIP3   OH225616   3.398   6.012   4.555 -0.5707 -0.1479  0.4895
 8558TIP3    H125617   3.370   6.085   4.610 -0.5096 -0.7197  1.2861
 8558TIP3    H225618   3.335   5.942   4.574 -2.4660  0.6577 -2.5044
 8559TIP3   OH225619   3.638   4.015   3.303 -0.3083 -0.0293  0.4034
 8559TIP3    H125620   3.669   3.926   3.284 -2.5099 -0.5742 -0.8155
 8559TIP3    H225621   3.706   4.072   3.266 -0.8540 -1.1754 -2.5269
 8560TIP3   OH225622   5.216   5.567   1.979  0.0495  0.0457  0.4536
 8560TIP3    H125623   5.140   5.614   2.014  0.4351  1.4209 -0.5020
 8560TIP3    H225624   5.181   5.512   1.909 -0.2638 -0.3212  0.9030
 8561TIP3   OH225625   4.232   6.513   4.278  0.4558 -0.1295  0.0417
 8561TIP3    H125626   4.186   6.434   4.250  0.9119 -0.9160  1.4414
 8561TIP3    H225627   4.198   6.531   4.366 -0.5684  1.9709 -0.7431
 8562TIP3   OH225628   3.517   4.087   2.937  0.4022  0.3375 -0.6181
 8562TIP3    H125629   3.565   4.157   2.982  1.0290 -0.4549 -0.0268
 8562TIP3    H225630   3.563   4.007   2.963 -0.4430 -0.3102 -1.1118
 8563TIP3   OH225631   2.229   4.096   6.525 -0.0346  0.2797 -0.0222
 8563TIP3    H125632   2.168   4.023   6.522  0.1313  0.1277  0.1784
 8563TIP3    H225633   2.175   4.173   6.545 -0.2621  0.2789 -0.6320
 8564TIP3   OH225634   2.323   6.080   2.040  0.6561 -0.0135  0.7982
 8564TIP3    H125635   2.272   6.160   2.035 -0.9544 -1.0120  1.0451
 8564TIP3    H225636   2.374   6.089   2.120  2.0562  1.6613 -0.2454
 8565TIP3   OH225637   3.517   5.615   5.954  0.4387 -0.0028  0.2818
 8565TIP3    H125638   3.520   5.545   5.888  1.9693  1.3791 -1.1436
 8565TIP3    H225639   3.423   5.635   5.962 -0.0100 -2.0166  0.5325
 8566TIP3   OH225640   4.330   6.158   5.381  0.1648  0.0132 -0.1603
 8566TIP3    H125641   4.385   6.096   5.428  1.9052  3.2631  2.2951
 8566TIP3    H225642   4.241   6.130   5.399  0.9029 -2.1543  0.2804
 8567TIP3   OH225643   5.419   6.887   2.801 -0.5473 -0.0868  0.0791
 8567TIP3    H125644   5.445   6.969   2.758 -2.3786 -0.7104 -2.3000
 8567TIP3    H225645   5.487   6.824   2.776 -0.4087  0.1048 -0.0286
 8568TIP3   OH225646   6.779   6.241   3.662  0.2244  0.7222  0.1862
 8568TIP3    H125647   6.703   6.189   3.637  1.4457 -0.9696 -0.0878
 8568TIP3    H225648   6.811   6.200   3.743  0.3516  1.9287  0.7565
 8569TIP3   OH225649   5.169   5.554   5.082 -0.2350  0.2604 -0.2722
 8569TIP3    H125650   5.229   5.546   5.155 -1.3424  0.4943  0.6810
 8569TIP3    H225651   5.196   5.486   5.021  1.2641  0.6519 -0.0602
 8570TIP3   OH225652   6.929   0.056   1.382 -0.1348  0.3968  0.9628
 8570TIP3    H125653   7.012   0.103   1.378  1.6380 -2.6707 -0.2770
 8570TIP3    H225654   6.884   0.079   1.301 -0.0855  1.3543  1.2084
 8571TIP3   OH225655   7.220   0.049   5.697 -0.0356  0.4617 -0.3643
 8571TIP3    H125656   7.242  -0.002   5.775 -0.8854 -0.0187 -0.4286
 8571TIP3    H225657   7.134   0.086   5.716 -0.9850 -0.9743 -1.7098
 8572TIP3   OH225658   5.571   7.512   1.873 -0.1494 -0.1250  0.7440
 8572TIP3    H125659   5.657   7.529   1.910  0.6764 -0.5598 -0.9139
 8572TIP3    H225660   5.539   7.598   1.846  0.3683 -0.1308  0.0997
 8573TIP3   OH225661   4.409   4.752   3.969  0.1388 -0.2760 -0.6611
 8573TIP3    H125662   4.356   4.713   3.900 -0.3702 -0.8247  0.0276
 8573TIP3    H225663   4.390   4.699   4.046 -1.9374  2.4116  0.7469
 8574TIP3   OH225664   5.462   7.938   5.271 -0.0528  0.0003  0.3063
 8574TIP3    H125665   5.470   7.881   5.195 -1.1560  3.3067 -2.3979
 8574TIP3    H225666   5.491   8.024   5.240 -2.3805  1.8706  3.0700
 8575TIP3   OH225667   5.145   7.757   4.033 -0.6059 -0.3192  0.4232
 8575TIP3    H125668   5.157   7.849   4.010  1.8710 -0.5277  0.7976
 8575TIP3    H225669   5.059   7.753   4.074 -0.1221  2.0824  1.7215
 8576TIP3   OH225670   8.279   6.696   3.590  0.1429  0.4381 -0.3878
 8576TIP3    H125671   8.296   6.652   3.507  1.1996 -0.0890  0.1028
 8576TIP3    H225672   8.249   6.627   3.649 -0.9418  0.8692 -0.4168
 8577TIP3   OH225673   5.097   5.750   3.715 -0.2571  0.1193  0.0023
 8577TIP3    H125674   5.087   5.749   3.810  1.4663 -1.6953  0.2201
 8577TIP3    H225675   5.073   5.661   3.688 -1.0488  0.7177 -1.3094
 8578TIP3   OH225676   5.769   7.666   4.303  0.6087 -0.3768  0.1861
 8578TIP3    H125677   5.677   7.681   4.283  1.0353  2.2826  0.0415
 8578TIP3    H225678   5.769   7.594   4.366 -1.6137  0.1788  0.8507
 8579TIP3   OH225679   4.845   5.004   0.972  0.1858 -0.0688  0.8095
 8579TIP3    H125680   4.751   4.990   0.958  0.0704  1.1185  0.2511
 8579TIP3    H225681   4.883   4.917   0.968 -1.0317 -0.6842  2.1787
 8580TIP3   OH225682   5.090   6.104   6.543  0.0305  0.0767 -0.6877
 8580TIP3    H125683   5.022   6.170   6.530 -1.0863 -0.6714  1.0829
 8580TIP3    H225684   5.041   6.025   6.568  1.5548 -0.4596  0.6584
 8581TIP3   OH225685   5.486   6.632   5.773  0.2602 -0.1835  0.3580
 8581TIP3    H125686   5.473   6.542   5.743 -2.7924 -0.2018  1.4841
 8581TIP3    H225687   5.482   6.626   5.869  1.8397  0.9168  0.5070
 8582TIP3   OH225688   7.712   6.469   2.770 -0.1784  0.4281 -0.6649
 8582TIP3    H125689   7.647   6.420   2.720 -0.4768  0.7102 -0.5582
 8582TIP3    H225690   7.753   6.404   2.827 -1.8760  0.6373  0.8268
 8583TIP3   OH225691   5.396   5.618   2.231 -0.1094  0.2423  0.2133
 8583TIP3    H125692   5.367   5.638   2.142  2.2986 -0.3054 -0.7616
 8583TIP3    H225693   5.332   5.555   2.264 -0.4692 -0.3507 -1.5488
 8584TIP3   OH225694   1.804   0.320   4.444  0.5799 -1.2367 -0.1107
 8584TIP3    H125695   1.838   0.285   4.527  0.0718 -0.3067  0.5025
 8584TIP3    H225696   1.843   0.407   4.438  1.8216 -1.8629 -1.6088
 8585TIP3   OH225697   5.174   7.800   3.266 -0.2522  0.6698  0.5961
 8585TIP3    H125698   5.220   7.765   3.190  0.2229  0.2695  1.0618
 8585TIP3    H225699   5.094   7.748   3.272 -0.2613  0.6613  0.4073
 8586TIP3   OH225700   6.037   5.989   2.935  0.1153  0.3450  0.1211
 8586TIP3    H125701   6.129   6.008   2.918  0.0153  0.9636  0.2651
 8586TIP3    H225702   6.022   6.019   3.025 -0.4737  1.1691 -0.2450
 8587TIP3   OH225703   6.262   5.780   4.297 -0.2696  0.3807 -0.3515
 8587TIP3    H125704   6.298   5.855   4.250  0.9242  0.1064  0.1086
 8587TIP3    H225705   6.217   5.818   4.372 -1.5384  0.7687 -1.2805
 8588TIP3   OH225706   6.947   5.419   4.912  0.1237  0.2704 -0.7122
 8588TIP3    H125707   6.888   5.352   4.948  1.7058 -1.4582 -1.2686
 8588TIP3    H225708   6.891   5.496   4.901 -1.7373 -0.9367 -0.0309
 8589TIP3   OH225709   4.462   6.523   2.465  0.0872 -0.4297 -0.2745
 8589TIP3    H125710   4.405   6.504   2.539 -2.2376 -0.5357 -2.0449
 8589TIP3    H225711   4.453   6.617   2.451  1.2782 -0.2371  0.1529
 8590TIP3   OH225712   6.532   5.666   4.637 -0.4325  0.3451 -0.0272
 8590TIP3    H125713   6.611   5.683   4.586  0.1658  1.5297  1.2733
 8590TIP3    H225714   6.513   5.749   4.680 -1.3331 -0.4522  1.1353
 8591TIP3   OH225715   5.207   2.821   3.422 -0.0773 -0.2160 -0.1981
 8591TIP3    H125716   5.125   2.870   3.425 -0.0949 -0.3080  0.7439
 8591TIP3    H225717   5.227   2.815   3.328 -0.8585  0.2758 -0.4028
 8592TIP3   OH225718   6.760   6.222   3.214 -0.0905  0.3440  0.0677
 8592TIP3    H125719   6.745   6.294   3.276 -0.5794 -0.3120  0.7293
 8592TIP3    H225720   6.834   6.251   3.161  0.6303  0.7399  1.2482
 8593TIP3   OH225721   5.272   6.583   1.350  0.0096  0.1423  0.3564
 8593TIP3    H125722   5.346   6.642   1.340  1.4227 -1.8838 -1.4886
 8593TIP3    H225723   5.196   6.636   1.326  1.1353  1.4956 -0.2892
 8594TIP3   OH225724   5.355   4.548   1.761 -0.6293  0.0669  0.5420
 8594TIP3    H125725   5.434   4.493   1.756 -0.4391  0.5193 -2.3362
 8594TIP3    H225726   5.341   4.560   1.854 -0.2844 -4.3282  1.2774
 8595TIP3   OH225727   7.922   0.285   4.148 -0.8942  0.4759  0.4660
 8595TIP3    H125728   7.910   0.298   4.054 -2.2660 -1.5302  0.3164
 8595TIP3    H225729   7.897   0.368   4.188  0.8095  1.7098 -1.0039
 8596TIP3   OH225730   6.193   5.775   2.227  0.1966 -0.3748 -0.0758
 8596TIP3    H125731   6.147   5.730   2.298  1.5374 -0.3670  0.8110
 8596TIP3    H225732   6.284   5.748   2.237  0.8430  1.7082 -0.1795
 8597TIP3   OH225733   5.089   5.235   2.163 -0.7467  0.1926  0.7345
 8597TIP3    H125734   5.029   5.171   2.201  1.0442 -1.2955  1.1679
 8597TIP3    H225735   5.176   5.197   2.178  0.4050  3.0269  1.5038
 8598TIP3   OH225736   7.151   7.300   3.682 -0.1667  0.0427  0.2467
 8598TIP3    H125737   7.107   7.228   3.636 -0.0959  0.1342  0.0332
 8598TIP3    H225738   7.242   7.296   3.653 -0.1306  0.1287  0.3471
 8599TIP3   OH225739   7.177   5.516   2.311 -0.1693  0.3359  0.3586
 8599TIP3    H125740   7.187   5.487   2.220 -0.5946  2.6451 -0.4499
 8599TIP3    H225741   7.124   5.447   2.351  0.5341 -1.0234 -0.9712
 8600TIP3   OH225742   5.468   5.505   3.332  0.6420  0.0789 -0.3545
 8600TIP3    H125743   5.418   5.424   3.332  0.0972  0.4168 -0.1871
 8600TIP3    H225744   5.453   5.543   3.246  0.4416  0.2867 -0.2271
 8601TIP3   OH225745   6.657   7.850   4.527  0.7267  0.2123  0.2272
 8601TIP3    H125746   6.713   7.797   4.470  1.9747 -0.0937  1.6963
 8601TIP3    H225747   6.716   7.881   4.596 -0.9258 -0.1624  1.8510
 8602TIP3   OH225748   7.104   7.009   3.226 -0.1374  0.3594  0.3925
 8602TIP3    H125749   7.101   6.925   3.271  0.3127 -0.2859 -0.7444
 8602TIP3    H225750   7.013   7.028   3.204 -0.1366 -0.3740 -0.2979
 8603TIP3   OH225751   5.073   6.707   3.674 -0.2759  0.4303 -0.4586
 8603TIP3    H125752   5.047   6.644   3.740 -2.7516  1.2567 -0.6056
 8603TIP3    H225753   5.071   6.791   3.719  4.0095  0.4092  0.0303
 8604TIP3   OH225754   5.858   7.292   3.022 -0.5302 -0.3755 -0.2647
 8604TIP3    H125755   5.910   7.301   2.943 -1.2204 -0.9195 -0.7798
 8604TIP3    H225756   5.912   7.240   3.082 -0.4309 -0.8304 -0.7520
 8605TIP3   OH225757   0.662   0.698   4.079  0.2800  1.3804 -0.4132
 8605TIP3    H125758   0.656   0.669   4.170 -0.6095 -0.3325 -0.9918
 8605TIP3    H225759   0.668   0.793   4.084 -0.3178  1.3378  1.4147
 8606TIP3   OH225760   7.913   0.123   3.057 -0.2611  0.1426  0.2976
 8606TIP3    H125761   7.861   0.084   3.127  1.4631 -0.9275  1.0381
 8606TIP3    H225762   7.943   0.049   3.005 -0.2160  0.8031 -0.6320
 8607TIP3   OH225763   3.944   6.453   4.689 -0.2975 -0.0503 -0.5474
 8607TIP3    H125764   3.933   6.420   4.600 -0.6822  0.2511 -0.6119
 8607TIP3    H225765   3.935   6.375   4.745  1.7724 -0.5464 -0.8758
 8608TIP3   OH225766   5.770   7.003   3.775  0.3255 -0.2070  0.0152
 8608TIP3    H125767   5.732   6.918   3.794 -0.8881  0.7817  2.2807
 8608TIP3    H225768   5.856   7.002   3.817 -0.0172 -0.0509  0.7297
 8609TIP3   OH225769   5.659   7.885   5.452  0.2348 -0.0548  0.1577
 8609TIP3    H125770   5.696   7.812   5.401  0.6478  0.8832 -0.9105
 8609TIP3    H225771   5.584   7.915   5.401  1.2110  1.5078 -0.4133
 8610TIP3   OH225772   4.571   5.746   1.115  0.5032 -0.1521  0.2727
 8610TIP3    H125773   4.555   5.653   1.125  3.4069 -0.7615 -0.2459
 8610TIP3    H225774   4.643   5.765   1.176 -0.4206  1.8896  0.7966
 8611TIP3   OH225775   5.371   3.816   2.171  0.1414  0.1763  0.7418
 8611TIP3    H125776   5.412   3.821   2.257  0.3465 -3.4199  0.9384
 8611TIP3    H225777   5.431   3.863   2.113  1.1113  0.7346  2.1677
 8612TIP3   OH225778   5.736   6.941   4.140  0.0121  0.2834  0.4084
 8612TIP3    H125779   5.733   6.846   4.128 -2.3985  0.3528  0.1495
 8612TIP3    H225780   5.652   6.962   4.180  1.0316  2.1699  1.6297
 8613TIP3   OH225781   3.904   6.203   4.868 -0.7410  0.0011  0.4726
 8613TIP3    H125782   3.936   6.183   4.955  0.4943 -3.8604 -0.7623
 8613TIP3    H225783   3.966   6.160   4.809 -1.8542  2.0556 -2.2900
 8614TIP3   OH225784   5.519   7.016   3.547  0.0145  0.0169  0.2765
 8614TIP3    H125785   5.424   7.019   3.542  0.0368 -0.6779 -0.7162
 8614TIP3    H225786   5.543   7.086   3.607 -1.1646 -0.2500  1.0671
 8615TIP3   OH225787   1.103   0.634   4.158 -0.2574  0.0618  0.3511
 8615TIP3    H125788   1.028   0.693   4.166 -0.2925  0.0999 -0.2964
 8615TIP3    H225789   1.102   0.584   4.240 -0.6458  0.4604  0.5944
 8616TIP3   OH225790   6.973   7.523   3.662  0.1015  0.5716 -0.7679
 8616TIP3    H125791   7.036   7.454   3.684  0.0958  1.6121  2.8467
 8616TIP3    H225792   6.887   7.482   3.673  0.1039  0.6634 -0.4197
 8617TIP3   OH225793   5.348   6.420   5.257 -0.0727 -0.3557  0.1827
 8617TIP3    H125794   5.364   6.356   5.326  1.6617 -0.9117 -0.7061
 8617TIP3    H225795   5.367   6.505   5.297 -0.0038 -0.5944  0.6561
 8618TIP3   OH225796   5.787   6.120   4.930 -0.1832 -0.0313 -0.3381
 8618TIP3    H125797   5.713   6.135   4.871 -0.8182 -3.4049 -0.4727
 8618TIP3    H225798   5.748   6.089   5.011  0.9758  0.4869  0.4356
 8619TIP3   OH225799   4.310   7.889   3.338  0.2204  0.0297  0.4223
 8619TIP3    H125800   4.327   7.902   3.431 -0.9494  0.6997  0.5481
 8619TIP3    H225801   4.277   7.799   3.332 -0.6130  0.3076  0.7867
 8620TIP3   OH225802   6.606   6.030   3.384 -0.0961 -0.1143  0.5689
 8620TIP3    H125803   6.549   5.994   3.316 -0.7194  0.1968  0.9232
 8620TIP3    H225804   6.629   6.117   3.352  0.6671 -0.4653  0.1467
 8621TIP3   OH225805   5.894   7.454   5.117 -0.2832 -0.0066 -0.2624
 8621TIP3    H125806   5.976   7.496   5.140 -0.5811 -0.8846  2.5308
 8621TIP3    H225807   5.918   7.363   5.098 -0.5422 -0.1190 -0.0498
 8622TIP3   OH225808   5.155   6.440   5.655  0.5082  0.2459 -0.4313
 8622TIP3    H125809   5.093   6.408   5.589  0.3762  0.9230 -0.6372
 8622TIP3    H225810   5.237   6.450   5.608  0.4750  0.4978 -0.4345
 8623TIP3   OH225811   4.892   4.775   5.334  0.2913 -0.2136  0.3117
 8623TIP3    H125812   4.832   4.830   5.386 -0.0812 -1.0677  0.7935
 8623TIP3    H225813   4.928   4.713   5.397 -1.0845 -2.0565 -0.6529
 8624TIP3   OH225814   7.185   4.146   2.346  0.2960  0.6844 -0.2322
 8624TIP3    H125815   7.217   4.236   2.356  0.1337  0.8917 -1.4909
 8624TIP3    H225816   7.255   4.100   2.301 -0.0996  0.4709 -0.6295
 8625TIP3   OH225817   6.669   5.108   4.595 -0.2308 -0.1550 -0.0411
 8625TIP3    H125818   6.751   5.144   4.563  0.9094 -1.5557  1.2464
 8625TIP3    H225819   6.624   5.077   4.517  1.4093 -1.2703 -0.5653
 8626TIP3   OH225820   4.087   6.733   0.656 -0.8522 -0.1842 -0.3470
 8626TIP3    H125821   4.035   6.661   0.692 -3.7409  2.1621  0.3501
 8626TIP3    H225822   4.024   6.784   0.604  0.8860  2.3828 -0.0052
 8627TIP3   OH225823   6.558   5.182   2.158  0.7847  0.1522  0.1040
 8627TIP3    H125824   6.632   5.219   2.207  0.1329 -0.6785  1.7653
 8627TIP3    H225825   6.484   5.187   2.218  0.2792 -2.2148 -0.2390
 8628TIP3   OH225826   6.907   3.927   4.318 -0.5587 -0.2917 -0.4406
 8628TIP3    H125827   6.968   3.952   4.249 -1.5332  0.3852 -1.0805
 8628TIP3    H225828   6.905   3.831   4.315 -1.4140 -0.2450 -2.1036
 8629TIP3   OH225829   4.898   6.934   4.812  0.1848  0.5417  0.5106
 8629TIP3    H125830   4.972   6.877   4.791  0.4123  1.5789 -1.6652
 8629TIP3    H225831   4.879   6.979   4.730 -2.6586  0.5256  1.0948
 8630TIP3   OH225832   8.127   5.051   2.537  0.3556  0.7985  0.0664
 8630TIP3    H125833   8.219   5.056   2.564  0.9553 -1.8722 -1.3007
 8630TIP3    H225834   8.124   5.101   2.455  0.6894  0.5296 -0.1118
 8631TIP3   OH225835   4.244   5.718   4.058 -0.1794  0.1593 -0.0537
 8631TIP3    H125836   4.202   5.713   3.972 -0.1767 -2.1743  0.0558
 8631TIP3    H225837   4.338   5.713   4.040 -0.0128  2.6760 -0.0974
 8632TIP3   OH225838   4.658   6.121   4.386 -0.1457  0.0567  0.4294
 8632TIP3    H125839   4.622   6.190   4.441  0.7222 -0.6199  1.8924
 8632TIP3    H225840   4.670   6.047   4.446  1.1397 -0.5820 -0.5946
 8633TIP3   OH225841   4.555   4.056   3.464 -0.1362  0.0283 -0.0440
 8633TIP3    H125842   4.619   4.127   3.460 -0.2381  0.1399  0.3118
 8633TIP3    H225843   4.598   3.987   3.515 -0.9735  0.8078  1.7760
 8634TIP3   OH225844   4.222   6.916   3.658 -0.3792  0.2954  0.4329
 8634TIP3    H125845   4.282   6.841   3.661  0.7354  1.2362  2.7776
 8634TIP3    H225846   4.265   6.980   3.603  0.2670  0.5521  1.2395
 8635TIP3   OH225847   5.979   5.318   3.194  0.0290  0.2180  0.3658
 8635TIP3    H125848   6.023   5.271   3.123  0.6427  0.7433  0.3968
 8635TIP3    H225849   5.903   5.359   3.152 -0.4836 -0.7552  0.3297
 8636TIP3   OH225850   6.308   6.961   4.843  0.1685  0.1977  0.6365
 8636TIP3    H125851   6.309   6.912   4.761 -1.4130  2.3011 -0.6841
 8636TIP3    H225852   6.398   6.993   4.853  0.5636 -0.7675  0.1573
 8637TIP3   OH225853   6.393   5.836   1.785  0.1277 -0.1646 -0.6080
 8637TIP3    H125854   6.300   5.857   1.777 -0.4212 -2.8362 -2.0428
 8637TIP3    H225855   6.396   5.740   1.780  2.9247 -0.1387 -0.1775
 8638TIP3   OH225856   6.543   7.171   3.624  0.4838  0.3869 -0.3997
 8638TIP3    H125857   6.489   7.096   3.598 -0.1723  0.8736 -0.4588
 8638TIP3    H225858   6.502   7.203   3.704  1.0243  0.4147 -0.1366
 8639TIP3   OH225859   4.895   3.570   2.301  0.7815  0.0861 -0.0227
 8639TIP3    H125860   4.978   3.619   2.300 -0.1546  1.8948  2.8821
 8639TIP3    H225861   4.832   3.629   2.260  0.2502  0.0978  0.8040
 8640TIP3   OH225862   4.610   6.034   4.078 -0.5629  0.1651 -0.0886
 8640TIP3    H125863   4.626   6.109   4.136  0.6314 -1.3256  1.5570
 8640TIP3    H225864   4.697   5.995   4.064 -0.9050  0.1229 -2.4282
 8641TIP3   OH225865   6.005   6.573   4.012  0.4772  0.0661  0.6578
 8641TIP3    H125866   5.985   6.630   4.086  0.8374  2.2007 -0.8577
 8641TIP3    H225867   5.983   6.625   3.935  0.9549 -1.7934 -0.7578
 8642TIP3   OH225868   5.681   6.328   2.234  0.6276  0.2721 -1.0625
 8642TIP3    H125869   5.673   6.244   2.190 -2.0718  1.0250 -2.0919
 8642TIP3    H225870   5.617   6.324   2.305 -0.8145  2.1347 -2.2399
 8643TIP3   OH225871   6.162   7.487   4.959 -0.4351 -0.2279  0.2574
 8643TIP3    H125872   6.238   7.545   4.958  0.7319 -1.7147 -0.6416
 8643TIP3    H225873   6.197   7.402   4.988 -1.0957 -1.7367 -3.1048
 8644TIP3   OH225874   6.377   7.944   5.495 -0.0752  0.2273 -0.2504
 8644TIP3    H125875   6.350   7.855   5.520 -2.2954  0.7455 -0.6714
 8644TIP3    H225876   6.445   7.931   5.429  0.1740 -1.1508  0.2586
 8645TIP3   OH225877   5.150   5.497   2.864 -0.1512  0.3438 -0.1237
 8645TIP3    H125878   5.227   5.546   2.836  0.9104 -1.7033 -0.9045
 8645TIP3    H225879   5.184   5.428   2.921 -1.3418 -0.7334 -0.6678
 8646TIP3   OH225880   6.140   6.402   6.283 -0.1970  0.4047  0.0731
 8646TIP3    H125881   6.186   6.336   6.335  0.6983 -0.7318 -2.0945
 8646TIP3    H225882   6.160   6.485   6.327 -1.2535 -0.6997  2.7810
 8647TIP3   OH225883   6.204   5.855   4.701 -0.3751 -0.1940  0.4353
 8647TIP3    H125884   6.201   5.901   4.618 -0.1207  0.1479  0.6149
 8647TIP3    H225885   6.177   5.919   4.766 -2.0290 -0.8804  0.4510
 8648TIP3   OH225886   5.423   4.825   3.929  0.2710  0.4777 -0.3122
 8648TIP3    H125887   5.497   4.819   3.990 -1.0934 -0.1821  1.3437
 8648TIP3    H225888   5.386   4.912   3.945 -2.0121 -0.8592  2.1957
 8649TIP3   OH225889   4.237   4.076   1.022  0.4412 -0.2499 -0.3811
 8649TIP3    H125890   4.278   4.002   1.066 -0.5344 -0.6685 -0.1721
 8649TIP3    H225891   4.267   4.069   0.931  1.3144 -0.2014 -0.1000
 8650TIP3   OH225892   6.872   5.009   6.450 -0.2085  0.3594  0.4402
 8650TIP3    H125893   6.855   5.030   6.358  0.4627  0.0431  0.2374
 8650TIP3    H225894   6.918   5.085   6.484 -0.7723  0.6246  0.6081
 8651TIP3   OH225895   6.524   6.082   2.721  0.4197 -0.4135  0.0549
 8651TIP3    H125896   6.543   6.017   2.654 -1.1282 -0.2713 -0.5480
 8651TIP3    H225897   6.608   6.097   2.765  1.4224 -0.6318 -1.7331
 8652TIP3   OH225898   4.805   4.879   4.753  0.0064  0.1702 -0.2227
 8652TIP3    H125899   4.816   4.913   4.841  0.2158 -1.5240  0.4183
 8652TIP3    H225900   4.892   4.848   4.728 -0.5476 -1.5276 -0.0974
 8653TIP3   OH225901   6.266   6.104   2.803 -0.1158 -0.6488  0.2468
 8653TIP3    H125902   6.361   6.105   2.793 -0.2835  0.2953 -1.3225
 8653TIP3    H225903   6.237   6.188   2.767 -1.6182 -1.2064  0.1226
 8654TIP3   OH225904   3.649   7.986   5.543  0.2919  0.0430  0.0932
 8654TIP3    H125905   3.567   8.026   5.573  1.2927  1.5211  0.9538
 8654TIP3    H225906   3.662   8.021   5.455  0.2208  0.1652  0.1308
 8655TIP3   OH225907   4.957   6.671   2.968  0.3612 -0.0693 -0.3012
 8655TIP3    H125908   4.880   6.664   2.911 -0.4321  1.0102  0.6007
 8655TIP3    H225909   5.022   6.716   2.915 -0.3569  0.8924 -0.3844
 8656TIP3   OH225910   8.007   0.666   4.153  0.0625 -0.0113  0.6943
 8656TIP3    H125911   8.045   0.588   4.113  2.2352  1.7542 -0.8524
 8656TIP3    H225912   8.042   0.666   4.243  1.4173  0.0525  0.1809
 8657TIP3   OH225913   6.080   4.878   0.807  0.3183  0.2174  0.3603
 8657TIP3    H125914   6.154   4.939   0.812  0.4894  0.1535 -1.0599
 8657TIP3    H225915   6.080   4.833   0.891  1.1584  1.0646  0.8320
 8658TIP3   OH225916   7.667   0.978   4.606  0.8503 -0.1423 -0.2324
 8658TIP3    H125917   7.712   1.060   4.584 -2.0860  0.9740 -2.3833
 8658TIP3    H225918   7.586   0.981   4.556 -0.6524 -3.0883  1.8832
 8659TIP3   OH225919   6.901   6.870   2.646 -0.0456 -0.6394 -0.1212
 8659TIP3    H125920   6.918   6.879   2.740  0.3073 -1.3891 -0.1145
 8659TIP3    H225921   6.906   6.960   2.613  2.9143 -0.6939  0.0364
 8660TIP3   OH225922   5.141   6.039   3.613 -0.2269 -0.1442  0.3947
 8660TIP3    H125923   5.179   6.099   3.549 -0.9805  1.6093  1.5313
 8660TIP3    H225924   5.047   6.059   3.612 -0.0980  0.8097  2.8845
 8661TIP3   OH225925   6.731   7.576   5.037 -0.3413  0.0938  0.3756
 8661TIP3    H125926   6.643   7.584   5.073 -0.7582 -2.0016 -0.0580
 8661TIP3    H225927   6.716   7.548   4.946  0.7732 -1.5420  0.6790
 8662TIP3   OH225928   5.081   6.534   4.609  0.2553 -0.5294  0.3044
 8662TIP3    H125929   5.000   6.570   4.573  0.4017 -0.3255  0.1828
 8662TIP3    H225930   5.052   6.460   4.662 -0.0353 -0.2921  0.4795
 8663TIP3   OH225931   4.341   6.413   3.197  0.7048 -0.1336 -0.3886
 8663TIP3    H125932   4.354   6.325   3.162  3.8737 -0.5157  1.5777
 8663TIP3    H225933   4.409   6.466   3.155 -0.3310  1.0917 -0.5518
 8664TIP3   OH225934   8.026   7.182   4.075  0.3282  0.4452 -0.3483
 8664TIP3    H125935   8.082   7.258   4.091 -1.4167  2.1269 -1.8646
 8664TIP3    H225936   8.006   7.147   4.162  1.9373  1.1261  0.3079
 8665TIP3   OH225937   2.856   4.797   4.962  0.2396 -0.1525 -0.7745
 8665TIP3    H125938   2.881   4.855   4.890  0.3106  0.2440 -0.4326
 8665TIP3    H225939   2.923   4.812   5.029 -0.4042  0.2372 -0.2158
 8666TIP3   OH225940   6.656   7.554   4.262 -0.1918  0.2607 -0.5022
 8666TIP3    H125941   6.573   7.588   4.296  0.7174  1.7179  0.3089
 8666TIP3    H225942   6.651   7.569   4.168 -1.3269 -0.7337 -0.6211
 8667TIP3   OH225943   5.641   4.934   0.796 -0.0340 -0.6017  0.2792
 8667TIP3    H125944   5.677   4.931   0.707  0.5364 -0.3429  0.5004
 8667TIP3    H225945   5.563   4.878   0.792 -0.9725  0.7174 -0.8121
 8668TIP3   OH225946   5.501   7.577   5.780  0.0453 -0.4807 -0.5405
 8668TIP3    H125947   5.571   7.532   5.734  2.0734  0.0782  1.8548
 8668TIP3    H225948   5.500   7.665   5.742  1.9161  0.0794  0.6330
 8669TIP3   OH225949   6.369   6.655   2.699  0.0316  0.0261  0.7547
 8669TIP3    H125950   6.444   6.702   2.661 -1.6308  1.0329 -1.3828
 8669TIP3    H225951   6.343   6.708   2.774 -0.3195  1.2690 -0.2237
 8670TIP3   OH225952   4.271   5.247   5.878 -0.1209 -0.1475  0.0385
 8670TIP3    H125953   4.234   5.183   5.938 -1.6009  0.6599  0.0278
 8670TIP3    H225954   4.347   5.203   5.839 -0.1249 -1.2637  1.2634
 8671TIP3   OH225955   7.588   5.909   1.911  0.0968 -0.4990 -0.0704
 8671TIP3    H125956   7.669   5.882   1.867  0.6707  1.1495 -0.0677
 8671TIP3    H225957   7.532   5.832   1.908  1.2001 -1.2768 -1.1857
 8672TIP3   OH225958   0.685   2.161   0.540  0.2108  0.4310  0.3942
 8672TIP3    H125959   0.720   2.173   0.629 -1.3400  3.6721  0.6788
 8672TIP3    H225960   0.726   2.231   0.489  1.5345 -1.7761 -1.6231
 8673TIP3   OH225961   4.505   4.064   2.879  0.3070 -0.2347  0.6069
 8673TIP3    H125962   4.562   3.989   2.864 -0.3816 -0.5944 -0.2515
 8673TIP3    H225963   4.549   4.114   2.948  3.7208  1.5722 -2.6783
 8674TIP3   OH225964   4.905   4.812   2.087  0.3131  0.5258  0.2107
 8674TIP3    H125965   4.827   4.778   2.043  0.0056  0.6391  0.6589
 8674TIP3    H225966   4.961   4.736   2.100 -0.6887  0.0432  1.8691
 8675TIP3   OH225967   4.155   5.069   2.123  0.1643 -0.0649 -1.3796
 8675TIP3    H125968   4.172   5.157   2.089  1.5959  0.4722  0.6418
 8675TIP3    H225969   4.064   5.050   2.097 -0.1358  1.9873 -1.8774
 8676TIP3   OH225970   0.845   0.753   6.154  0.7596 -0.3068 -0.3472
 8676TIP3    H125971   0.772   0.712   6.200  1.2303 -0.9974 -0.2143
 8676TIP3    H225972   0.804   0.821   6.100 -0.0587 -1.1645 -0.8164
 8677TIP3   OH225973   5.584   5.917   0.793  0.0552 -0.6922 -0.3211
 8677TIP3    H125974   5.563   5.850   0.728  1.3447  0.0469 -1.5232
 8677TIP3    H225975   5.672   5.946   0.770  0.5068 -0.3559  1.7248
 8678TIP3   OH225976   5.755   5.159   2.903  0.0494 -0.0848 -0.6328
 8678TIP3    H125977   5.703   5.184   2.980 -1.0033 -1.4623 -0.8897
 8678TIP3    H225978   5.694   5.113   2.846  1.8156 -2.8105 -0.3931
 8679TIP3   OH225979   4.994   4.948   3.843 -0.1507 -0.6720  0.1717
 8679TIP3    H125980   5.043   4.915   3.919  1.0455  0.9593  0.1573
 8679TIP3    H225981   4.934   5.013   3.880 -0.8128 -1.1435 -0.0712
 8680TIP3   OH225982   4.399   6.241   5.126 -0.4201 -0.4409  0.0245
 8680TIP3    H125983   4.329   6.291   5.083 -0.6055  0.5283  1.4272
 8680TIP3    H225984   4.368   6.230   5.216  1.0106 -0.4709  0.5144
 8681TIP3   OH225985   5.131   6.766   4.738  0.2239 -0.0584 -0.4467
 8681TIP3    H125986   5.213   6.730   4.773  1.0719  2.3678  0.1703
 8681TIP3    H225987   5.078   6.689   4.717  1.9312 -1.6490  0.8885
 8682TIP3   OH225988   4.828   4.977   4.197  0.3770  0.2641  0.4071
 8682TIP3    H125989   4.753   4.972   4.138  1.6263  0.5934 -1.2566
 8682TIP3    H225990   4.791   5.005   4.281 -1.5158 -0.8080 -0.0511
 8683TIP3   OH225991   5.557   5.227   3.172 -0.6635 -0.1355  0.1761
 8683TIP3    H125992   5.590   5.139   3.184 -0.1709 -0.3420 -2.3971
 8683TIP3    H225993   5.464   5.222   3.196 -0.9962 -1.7094 -1.4048
 8684TIP3   OH225994   6.420   5.000   5.181 -0.4834 -0.1779  0.4259
 8684TIP3    H125995   6.391   5.033   5.266  1.7047  1.1783  0.6817
 8684TIP3    H225996   6.471   5.072   5.144  0.0764 -1.4225 -1.2714
 8685TIP3   OH225997   4.715   2.973   1.703  0.6529 -0.6075  0.5254
 8685TIP3    H125998   4.704   2.879   1.695  0.8972 -0.6392  0.5537
 8685TIP3    H225999   4.700   3.007   1.615  1.2328 -0.7399  0.3753
 8686TIP3   OH226000   4.903   5.404   2.902 -0.2628  0.4527 -0.2557
 8686TIP3    H126001   4.905   5.394   2.997  0.6759  0.2076 -0.2916
 8686TIP3    H226002   4.992   5.432   2.879 -0.4255  0.3282 -1.0763
 8687TIP3   OH226003   5.379   6.834   2.474 -0.3096 -0.4661 -0.2026
 8687TIP3    H126004   5.386   6.912   2.418  0.6490 -1.1102 -1.0005
 8687TIP3    H226005   5.438   6.771   2.434  0.9333 -0.7053  1.9207
 8688TIP3   OH226006   6.040   5.147   2.840  0.6914  0.3349  0.3946
 8688TIP3    H126007   6.038   5.053   2.823  0.4419  0.4564 -0.2582
 8688TIP3    H226008   5.949   5.175   2.831  0.6852  0.5607  1.0674
 8689TIP3   OH226009   5.448   6.060   5.503 -0.1881 -0.7305  0.2846
 8689TIP3    H126010   5.487   6.138   5.541  0.0117 -0.1274 -1.1360
 8689TIP3    H226011   5.423   6.006   5.578  0.2232  0.4261  1.2543
 8690TIP3   OH226012   5.322   5.237   4.528 -0.0325 -0.0865 -0.2149
 8690TIP3    H126013   5.365   5.153   4.547  1.2918  0.4441 -0.8292
 8690TIP3    H226014   5.299   5.232   4.436 -1.7789 -0.5611  0.2204
 8691TIP3   OH226015   3.922   7.105   4.340  0.6984 -0.3617  0.3871
 8691TIP3    H126016   3.880   7.184   4.306 -1.2779 -1.1068  1.0458
 8691TIP3    H226017   4.015   7.128   4.346  0.0437  2.1722  1.3274
 8692TIP3   OH226018   5.526   7.415   3.563 -0.5012 -0.3186  0.2314
 8692TIP3    H126019   5.537   7.340   3.623  1.4465  0.8836  1.4533
 8692TIP3    H226020   5.559   7.490   3.613  1.1755  0.7261 -2.3552
 8693TIP3   OH226021   4.686   6.323   4.030 -0.1089 -0.6503  0.2471
 8693TIP3    H126022   4.667   6.352   3.941 -1.2219  0.6570  0.8857
 8693TIP3    H226023   4.781   6.317   4.034  0.0015  0.3305 -0.7189
 8694TIP3   OH226024   4.910   7.047   3.265  0.3927 -0.0297 -0.7700
 8694TIP3    H126025   4.934   7.103   3.339 -0.8433  0.3405 -0.6392
 8694TIP3    H226026   4.914   6.958   3.300 -0.6964  0.1773 -0.1126
 8695TIP3   OH226027   5.044   5.064   2.672  0.5782  0.4592 -0.0645
 8695TIP3    H126028   5.012   5.006   2.602  0.1274  0.4709  0.1321
 8695TIP3    H226029   4.965   5.105   2.707  0.8893  1.0913 -0.1094
 8696TIP3   OH226030   4.845   6.685   6.353  0.1284  0.0634  0.3772
 8696TIP3    H126031   4.937   6.686   6.376 -0.4439  0.0556  2.7514
 8696TIP3    H226032   4.837   6.750   6.282  2.1963 -1.1367 -0.9841
 8697TIP3   OH226033   4.437   7.594   1.704  0.3387  0.0567 -0.2380
 8697TIP3    H126034   4.472   7.533   1.769 -2.1554  1.8516  2.9154
 8697TIP3    H226035   4.355   7.554   1.675  1.0745 -0.3717 -1.8159
 8698TIP3   OH226036   7.557   5.653   2.364 -0.1135 -0.0675 -0.3193
 8698TIP3    H126037   7.585   5.570   2.325  1.1089  1.0831 -1.9591
 8698TIP3    H226038   7.631   5.682   2.417 -0.3303  0.2545 -0.1880
 8699TIP3   OH226039   5.263   6.005   3.023 -0.2492  0.1729 -0.1578
 8699TIP3    H126040   5.254   6.049   2.938 -0.3577 -1.2401 -0.8847
 8699TIP3    H226041   5.339   5.947   3.012 -0.2414  0.0136  0.7266
 8700TIP3   OH226042   7.318   6.975   2.647 -0.4169 -0.1925  0.4108
 8700TIP3    H126043   7.256   6.918   2.602 -3.2448  1.9740  1.3302
 8700TIP3    H226044   7.318   6.944   2.737  0.8031 -0.9700  0.1403
 8701TIP3   OH226045   5.724   7.271   4.365  0.1163  0.3778 -0.1885
 8701TIP3    H126046   5.729   7.348   4.421  0.4912 -0.0541  0.3809
 8701TIP3    H226047   5.664   7.212   4.410  1.5977 -0.5969  0.5523
 8702TIP3   OH226048   4.455   7.264   1.566 -0.1945  0.1104 -0.2426
 8702TIP3    H126049   4.524   7.204   1.594 -0.5022 -0.5598 -0.8916
 8702TIP3    H226050   4.397   7.271   1.641  0.7600  0.9596  0.4358
 8703TIP3   OH226051   4.027   1.776   0.631  0.2370  0.6663  0.1108
 8703TIP3    H126052   4.070   1.845   0.580 -1.0027  1.0873 -0.3772
 8703TIP3    H226053   4.049   1.797   0.722  0.1996  1.4815 -0.0622
 8704TIP3   OH226054   5.310   6.367   3.153  0.5872 -0.4398  0.2006
 8704TIP3    H126055   5.281   6.416   3.076  0.4613 -0.7665  0.0364
 8704TIP3    H226056   5.249   6.292   3.158  1.0527 -0.8228  0.1804
 8705TIP3   OH226057   6.085   3.143   2.605 -0.1037 -0.2037 -0.1440
 8705TIP3    H126058   6.110   3.161   2.696 -0.2438 -0.1617 -0.1143
 8705TIP3    H226059   6.013   3.081   2.612 -0.3432  0.0680 -0.2188
 8706TIP3   OH226060   1.504   1.465   0.641 -0.0772  0.4136 -0.0339
 8706TIP3    H126061   1.444   1.513   0.697 -0.0508  1.1202 -0.5987
 8706TIP3    H226062   1.449   1.433   0.569  0.1410  0.6816 -0.3201
 8707TIP3   OH226063   3.448   6.535   5.172 -0.6965 -1.2285 -0.1567
 8707TIP3    H126064   3.525   6.584   5.200 -0.3661 -0.7842 -1.7748
 8707TIP3    H226065   3.440   6.464   5.236 -1.0251  0.7542  2.0506
 8708TIP3   OH226066   6.434   6.019   4.886 -0.5083 -0.3862 -0.2345
 8708TIP3    H126067   6.361   6.078   4.905 -0.3364 -0.5839  1.0763
 8708TIP3    H226068   6.467   6.048   4.801 -0.3274  1.5276  0.4656
 8709TIP3   OH226069   5.752   5.762   4.504 -0.0861  0.3607  0.3780
 8709TIP3    H126070   5.700   5.794   4.431 -0.2064  0.7703  0.6413
 8709TIP3    H226071   5.708   5.681   4.531  0.5178 -0.3222 -0.6252
 8710TIP3   OH226072   6.124   5.568   2.685  0.1086  0.6193  0.1358
 8710TIP3    H126073   6.079   5.526   2.759  0.2770  0.8033  0.3461
 8710TIP3    H226074   6.102   5.661   2.694 -0.2941  0.5749 -0.3487
 8711TIP3   OH226075   5.618   6.434   6.460 -0.3142  0.3436 -0.1087
 8711TIP3    H126076   5.577   6.421   6.374  1.4545 -2.3686 -0.6129
 8711TIP3    H226077   5.709   6.408   6.446  0.1786  0.6322  2.4342
 8712TIP3   OH226078   5.692   5.948   3.974 -0.5251 -0.3584  0.0759
 8712TIP3    H126079   5.627   6.009   3.941 -1.5217 -1.1156  0.6243
 8712TIP3    H226080   5.772   6.000   3.983 -1.2915  0.7861  0.2587
 8713TIP3   OH226081   4.791   6.402   5.018 -0.2437 -0.3388  0.6751
 8713TIP3    H126082   4.772   6.475   4.958 -0.7121 -0.9557  0.0694
 8713TIP3    H226083   4.886   6.404   5.028 -0.1677 -0.2101 -0.0531
 8714TIP3   OH226084   6.451   6.200   1.759  0.7372 -0.3776  0.1795
 8714TIP3    H126085   6.539   6.224   1.732  0.9637 -1.1002  0.2510
 8714TIP3    H226086   6.404   6.185   1.678  0.5326  0.5161  0.1314
 8715TIP3   OH226087   6.635   5.344   3.147  0.4552  0.5240 -0.5128
 8715TIP3    H126088   6.578   5.269   3.129 -0.4268  1.3480 -1.2098
 8715TIP3    H226089   6.713   5.306   3.188 -0.7223 -0.5760  0.7196
 8716TIP3   OH226090   5.364   6.299   3.759  0.0562 -0.8485 -0.0702
 8716TIP3    H126091   5.392   6.267   3.674 -3.2364 -1.0393 -1.1777
 8716TIP3    H226092   5.348   6.393   3.745  0.7111 -0.6200  0.6799
 8717TIP3   OH226093   5.484   6.647   6.050 -0.2159 -0.0171  0.6449
 8717TIP3    H126094   5.543   6.721   6.066 -0.3306  0.1865  0.1166
 8717TIP3    H226095   5.458   6.619   6.138 -0.8021  1.0734  0.8263
 8718TIP3   OH226096   4.463   5.043   5.739 -0.4434 -0.6863 -0.1706
 8718TIP3    H126097   4.541   5.071   5.691 -2.3370  1.2836 -2.2230
 8718TIP3    H226098   4.454   4.950   5.718  0.9570 -0.7587 -0.4874
 8719TIP3   OH226099   5.552   6.494   3.576  0.0322  0.2986 -0.0302
 8719TIP3    H126100   5.638   6.456   3.594  0.0646  0.5361  0.3196
 8719TIP3    H226101   5.570   6.581   3.541 -0.0614  0.3223 -0.0197
 8720TIP3   OH226102   6.257   4.995   4.556  0.2429  0.6793  0.1971
 8720TIP3    H126103   6.260   5.015   4.650  0.5715  0.3067  0.2650
 8720TIP3    H226104   6.228   5.077   4.516  0.0258  0.8190  0.6301
 8721TIP3   OH226105   6.839   4.496   2.754  0.1978  0.3021 -0.2492
 8721TIP3    H126106   6.912   4.450   2.713 -1.3359 -0.9738 -1.6133
 8721TIP3    H226107   6.795   4.541   2.682  2.1377  4.7337  1.1341
 8722TIP3   OH226108   5.511   6.234   4.856 -0.5739 -0.1265  0.1540
 8722TIP3    H126109   5.444   6.241   4.788 -1.0041  1.5258  0.7344
 8722TIP3    H226110   5.475   6.283   4.930  0.1274 -1.4506  1.4028
 8723TIP3   OH226111   5.404   7.371   2.653  0.4383 -0.1936  0.4265
 8723TIP3    H126112   5.451   7.438   2.702 -0.2919 -0.3430  1.3659
 8723TIP3    H226113   5.355   7.419   2.586  0.8454  0.0947  0.3409
 8724TIP3   OH226114   6.030   7.029   3.865  0.4647 -0.0515 -0.2990
 8724TIP3    H126115   6.062   7.064   3.949 -0.3699  0.8222 -0.3381
 8724TIP3    H226116   6.100   7.048   3.803  0.1333  1.3355 -0.2631
 8725TIP3   OH226117   7.289   7.971   5.238 -0.0715  0.0627  0.0724
 8725TIP3    H126118   7.295   8.057   5.279  0.7038 -0.1715  0.4463
 8725TIP3    H226119   7.229   7.984   5.164  0.4143  1.0283 -0.1545
 8726TIP3   OH226120   5.179   6.335   1.415  0.7963 -0.0330  0.1508
 8726TIP3    H126121   5.218   6.413   1.376 -1.3165  1.1384  0.3412
 8726TIP3    H226122   5.212   6.334   1.505 -0.7043  1.7272  0.7359
 8727TIP3   OH226123   5.901   6.315   3.921 -0.9742 -0.0868  0.5520
 8727TIP3    H126124   5.941   6.399   3.942  0.2175 -0.4285 -0.2431
 8727TIP3    H226125   5.901   6.266   4.004 -0.4253  0.2003  0.7212
 8728TIP3   OH226126   6.700   4.661   2.551  0.1872 -0.6292  0.3920
 8728TIP3    H126127   6.627   4.602   2.569  1.9301 -2.1030  2.9880
 8728TIP3    H226128   6.725   4.642   2.460 -1.7635 -1.0782 -0.0627
 8729TIP3   OH226129   8.448   0.637   3.525 -0.0398 -0.1119 -0.0933
 8729TIP3    H126130   8.394   0.572   3.479  0.7262 -1.1239  0.4293
 8729TIP3    H226131   8.384   0.696   3.564 -0.7492 -0.4635 -0.6920
 8730TIP3   OH226132   7.109   5.810   1.211  0.0327 -0.1581  0.1929
 8730TIP3    H126133   7.091   5.837   1.122 -0.8072  0.6669  0.6152
 8730TIP3    H226134   7.083   5.718   1.214 -1.3664  0.2199 -0.0029
 8731TIP3   OH226135   8.328   5.189   2.799  0.4230  0.4236  0.1917
 8731TIP3    H126136   8.341   5.096   2.779 -0.3220 -0.4378  3.2716
 8731TIP3    H226137   8.386   5.206   2.873  0.1512  2.2864  0.0046
 8732TIP3   OH226138   5.256   3.748   1.879 -0.1085 -0.2707 -0.4214
 8732TIP3    H126139   5.284   3.663   1.914  0.7067  0.3798  0.5498
 8732TIP3    H226140   5.338   3.797   1.870 -0.6206  0.5415 -0.6171
 8733TIP3   OH226141   1.031   0.215   5.288  0.1912  0.7934 -0.1170
 8733TIP3    H126142   1.052   0.308   5.280 -0.7472  0.9639 -0.5963
 8733TIP3    H226143   1.029   0.199   5.382 -1.5690  1.6967  0.0122
 8734TIP3   OH226144   7.792   6.615   4.175  0.7810  0.2263 -0.2019
 8734TIP3    H126145   7.870   6.582   4.130 -0.4848  0.4483 -2.6484
 8734TIP3    H226146   7.775   6.550   4.243  2.4339 -0.4264 -0.3818
 8735TIP3   OH226147   5.283   7.536   4.172 -0.1463 -1.0309  0.2518
 8735TIP3    H126148   5.221   7.609   4.167 -0.4750 -1.4655 -2.9168
 8735TIP3    H226149   5.360   7.573   4.214 -1.6268  0.1567  2.0530
 8736TIP3   OH226150   6.247   5.085   3.263 -0.1423 -0.7765  0.9045
 8736TIP3    H126151   6.196   5.035   3.326  1.6713  0.0498  3.1254
 8736TIP3    H226152   6.258   5.171   3.304  0.4649  0.0120 -0.8628
 8737TIP3   OH226153   4.300   5.667   3.015  0.0223  0.2727  0.6821
 8737TIP3    H126154   4.237   5.595   3.015  1.4619 -1.0091  0.1675
 8737TIP3    H226155   4.384   5.625   3.035  1.0773  1.6276 -0.8255
 8738TIP3   OH226156   6.609   4.403   4.611  0.1471 -0.1379 -0.3215
 8738TIP3    H126157   6.621   4.496   4.590  0.6642 -0.0122  0.5203
 8738TIP3    H226158   6.514   4.390   4.607 -0.0709  0.8394  1.2620
 8739TIP3   OH226159   4.977   6.327   4.732  0.0037  0.0283  0.0244
 8739TIP3    H126160   4.997   6.308   4.823  1.3471 -0.8238 -0.4250
 8739TIP3    H226161   4.897   6.277   4.714 -0.0085 -0.1659  0.6086
 8740TIP3   OH226162   4.487   5.895   5.290 -0.3661  0.0292 -0.0641
 8740TIP3    H126163   4.451   5.872   5.375 -2.8414  3.4585 -0.0814
 8740TIP3    H226164   4.417   5.875   5.228  0.4965 -0.1066 -1.0122
 8741TIP3   OH226165   7.187   7.216   2.454 -0.1537  0.7411  1.2754
 8741TIP3    H126166   7.137   7.159   2.513  1.3664  0.4554  2.3020
 8741TIP3    H226167   7.264   7.165   2.430  0.8946  2.1119  1.6671
 8742TIP3   OH226168   5.939   3.374   2.759 -0.0071 -0.3282 -0.1410
 8742TIP3    H126169   6.032   3.396   2.763 -0.1832  0.3361  0.5409
 8742TIP3    H226170   5.932   3.289   2.802 -0.0206  0.6750  1.9159
 8743TIP3   OH226171   4.783   6.129   5.548 -0.3658 -0.1746  0.0991
 8743TIP3    H126172   4.707   6.108   5.494 -0.2264 -0.7992  0.1360
 8743TIP3    H226173   4.855   6.081   5.508  0.2243  1.1954 -0.5177
 8744TIP3   OH226174   6.703   6.024   4.991  0.0578 -0.2188  0.6400
 8744TIP3    H126175   6.610   6.016   4.968  0.4707 -0.6855 -0.9369
 8744TIP3    H226176   6.715   6.117   5.007 -0.1731  0.2102 -1.5082
 8745TIP3   OH226177   6.841   7.704   4.387 -0.0700  0.0515 -0.2451
 8745TIP3    H126178   6.777   7.654   4.336 -0.1835 -0.3013  0.2375
 8745TIP3    H226179   6.925   7.664   4.366 -0.1414 -0.2363  0.0067
 8746TIP3   OH226180   7.050   4.793   2.388  0.5767  0.1016  0.3490
 8746TIP3    H126181   7.038   4.841   2.471 -0.6686  2.3401 -1.0834
 8746TIP3    H226182   6.977   4.732   2.385 -0.4781  1.3404  0.0518
 8747TIP3   OH226183   6.504   5.581   1.954 -0.0179  0.1257 -0.3896
 8747TIP3    H126184   6.596   5.553   1.954 -0.2283 -0.5782  0.3247
 8747TIP3    H226185   6.486   5.603   2.045 -0.7274 -0.2974 -0.4261
 8748TIP3   OH226186   6.225   5.612   3.400 -0.0754 -0.0153  0.1659
 8748TIP3    H126187   6.215   5.619   3.495  1.1690 -0.0590  0.2998
 8748TIP3    H226188   6.316   5.635   3.383 -0.2292 -0.2366 -0.9959
 8749TIP3   OH226189   5.345   5.133   2.233 -0.4864  0.3451  0.0488
 8749TIP3    H126190   5.344   5.058   2.173 -0.1052 -0.2078  0.7277
 8749TIP3    H226191   5.434   5.168   2.226 -0.3513  0.1011  0.5057
 8750TIP3   OH226192   8.211   0.297   4.114  0.2607 -0.0532  0.2000
 8750TIP3    H126193   8.117   0.315   4.109  0.1098  0.7754  4.4829
 8750TIP3    H226194   8.252   0.378   4.082 -0.5293  1.2286  2.2845
 8751TIP3   OH226195   5.658   5.500   3.518  0.5293 -0.2645 -0.5873
 8751TIP3    H126196   5.715   5.485   3.443  0.2900  0.5056 -0.9373
 8751TIP3    H226197   5.569   5.492   3.482  0.4113  0.5435 -0.4930
 8752TIP3   OH226198   5.732   7.572   2.735  0.5886 -0.4639 -0.2249
 8752TIP3    H126199   5.680   7.614   2.667  0.6483 -0.8467 -0.5057
 8752TIP3    H226200   5.742   7.482   2.706  0.4328 -0.6865  0.3939
 8753TIP3   OH226201   5.215   7.247   2.900  0.1228  0.2566  0.3509
 8753TIP3    H126202   5.259   7.314   2.952 -1.7583  2.0824 -0.3367
 8753TIP3    H226203   5.283   7.182   2.883  1.5999  1.2011  2.3481
 8754TIP3   OH226204   6.148   5.913   3.234  0.2630  0.2903 -0.3341
 8754TIP3    H126205   6.231   5.876   3.263  0.0728 -0.2463 -0.4794
 8754TIP3    H226206   6.169   6.003   3.211  1.4246 -0.6766 -3.2426
 8755TIP3   OH226207   3.724   6.896   6.342 -0.9680  0.1059 -0.3539
 8755TIP3    H126208   3.652   6.957   6.354 -0.1728  1.2198 -1.1234
 8755TIP3    H226209   3.741   6.897   6.247 -0.5614 -0.8512 -0.2956
 8756TIP3   OH226210   2.980   6.981   6.574  0.2076  0.1692 -0.6639
 8756TIP3    H126211   3.002   6.983   6.481  0.9345 -0.0745 -0.4982
 8756TIP3    H226212   3.060   6.953   6.618 -0.0669  0.4831  0.0589
 8757TIP3   OH226213   4.762   5.991   2.661 -0.1456 -0.0591  0.0718
 8757TIP3    H126214   4.838   6.049   2.656 -1.4551  1.5886 -1.1595
 8757TIP3    H226215   4.784   5.917   2.604  0.8846 -0.0297  0.4184
 8758TIP3   OH226216   5.522   7.387   5.523 -0.6134 -0.4338 -0.3704
 8758TIP3    H126217   5.593   7.326   5.503 -0.4794 -1.0774  1.9512
 8758TIP3    H226218   5.443   7.345   5.489 -0.6216 -2.2721  1.8313
 8759TIP3   OH226219   5.348   6.148   6.608  0.2291 -0.8124  0.1810
 8759TIP3    H126220   5.264   6.120   6.571 -0.8646  1.9524  0.4491
 8759TIP3    H226221   5.324   6.211   6.675  2.5766  1.1067 -0.7213
 8760TIP3   OH226222   6.147   7.433   2.583  0.5903 -0.0745  0.1013
 8760TIP3    H126223   6.195   7.356   2.552 -0.2903  0.3147 -2.2897
 8760TIP3    H226224   6.124   7.481   2.504 -1.1047  1.3272  1.4035
 8761TIP3   OH226225   5.900   1.026   4.895  0.0712 -0.2526 -1.1322
 8761TIP3    H126226   5.896   1.120   4.877 -0.2507 -0.3547 -1.5956
 8761TIP3    H226227   5.993   1.009   4.910  0.3746 -0.1770 -2.8091
 8762TIP3   OH226228   5.815   5.763   6.024  0.0697 -0.1678  0.7152
 8762TIP3    H126229   5.773   5.829   6.079 -1.2166 -0.0935 -0.3336
 8762TIP3    H226230   5.804   5.796   5.935  1.7488 -0.4938  0.3694
 8763TIP3   OH226231   2.864   4.590   3.009 -0.0880  0.1513 -0.5588
 8763TIP3    H126232   2.853   4.509   2.959 -0.6383 -1.1204  1.5930
 8763TIP3    H226233   2.794   4.589   3.074 -1.1350  3.1896 -1.5535
 8764TIP3   OH226234   4.501   6.034   1.948  0.7802 -0.1848 -0.1826
 8764TIP3    H126235   4.509   6.123   1.982  2.4873  0.3149 -1.8162
 8764TIP3    H226236   4.479   5.981   2.025  1.3907  1.3883  1.1091
 8765TIP3   OH226237   5.072   4.808   0.943  0.6129 -0.6156 -1.0760
 8765TIP3    H126238   5.095   4.805   0.850  1.3856 -1.7916 -0.8433
 8765TIP3    H226239   5.151   4.840   0.986  0.4828 -0.7539 -0.7355
 8766TIP3   OH226240   4.262   5.297   4.353 -0.0732 -0.1810 -0.0669
 8766TIP3    H126241   4.246   5.244   4.275 -0.1622  0.9802 -0.8500
 8766TIP3    H226242   4.275   5.386   4.320 -0.2130  0.3470  1.2494
 8767TIP3   OH226243   3.213   6.335   3.195  0.1024 -0.3327  0.9808
 8767TIP3    H126244   3.249   6.406   3.142  0.7646 -1.5543 -0.2289
 8767TIP3    H226245   3.242   6.255   3.151 -0.2928 -1.3602  2.5530
 8768TIP3   OH226246   5.616   5.192   2.626  0.5418  0.6204 -0.5647
 8768TIP3    H126247   5.532   5.218   2.589  0.3672  0.4599 -0.2811
 8768TIP3    H226248   5.623   5.099   2.608  0.7448  0.6711 -0.7531
 8769TIP3   OH226249   4.966   5.946   2.099  0.1637 -0.0347  0.6088
 8769TIP3    H126250   5.028   5.966   2.028  1.2996  1.4908  1.9702
 8769TIP3    H226251   4.982   5.854   2.120  1.1304  0.0117  0.1198
 8770TIP3   OH226252   7.491   6.905   3.849  0.0305  0.1068  0.3404
 8770TIP3    H126253   7.552   6.884   3.778  0.0309 -0.8388  0.6112
 8770TIP3    H226254   7.513   6.842   3.918 -0.8519  0.1658  0.6750
 8771TIP3   OH226255   5.043   5.953   1.447  0.2024 -0.3369  0.1827
 8771TIP3    H126256   5.118   5.984   1.396  1.6079 -0.1814  2.2726
 8771TIP3    H226257   4.993   6.032   1.466  0.8286 -0.1015  0.8593
 8772TIP3   OH226258   4.700   3.080   1.435 -0.1123  0.3694  0.0222
 8772TIP3    H126259   4.700   3.018   1.362  2.0803  1.0272 -0.5672
 8772TIP3    H226260   4.702   3.166   1.394 -0.8091  0.8006  0.8694
 8773TIP3   OH226261   3.643   6.267   4.822  0.1902  0.1993  0.1626
 8773TIP3    H126262   3.732   6.254   4.854 -0.0978 -1.2136  0.4036
 8773TIP3    H226263   3.630   6.198   4.757 -0.9423  0.0257  0.5629
 8774TIP3   OH226264   6.721   7.209   2.640 -0.2224  0.4399 -0.5705
 8774TIP3    H126265   6.706   7.116   2.621  0.0062  0.2308  0.2252
 8774TIP3    H226266   6.661   7.256   2.582  0.0642 -0.1896 -1.3792
 8775TIP3   OH226267   5.098   7.255   4.343  0.1397  0.0544 -0.2619
 8775TIP3    H126268   5.160   7.185   4.362 -2.3029 -2.0620  0.2058
 8775TIP3    H226269   5.114   7.321   4.410 -0.3062 -1.9489  1.8838
 8776TIP3   OH226270   5.295   6.074   5.838  0.0531  0.3732 -0.8243
 8776TIP3    H126271   5.279   6.017   5.762 -2.6979  0.5298 -0.4124
 8776TIP3    H226272   5.299   6.015   5.913 -3.1336  0.6684 -0.3513
 8777TIP3   OH226273   2.496   0.613   0.516 -0.0242 -0.4063  0.1976
 8777TIP3    H126274   2.475   0.520   0.508 -0.4610 -0.2432 -0.6228
 8777TIP3    H226275   2.521   0.640   0.428 -0.8348  0.4763  0.2254
 8778TIP3   OH226276   3.448   3.380   1.556 -0.3468 -0.7941 -0.2456
 8778TIP3    H126277   3.400   3.312   1.603 -2.0791  0.2654 -0.4363
 8778TIP3    H226278   3.514   3.410   1.618 -1.6937 -0.3996  1.0410
 8779TIP3   OH226279   5.860   4.736   2.989  0.3432 -0.0913 -0.0775
 8779TIP3    H126280   5.914   4.668   3.029 -1.0267 -0.8543  0.5092
 8779TIP3    H226281   5.815   4.777   3.063 -1.6483 -1.0166 -0.7486
 8780TIP3   OH226282   5.202   7.298   4.058 -0.1644 -0.6246  0.3935
 8780TIP3    H126283   5.192   7.260   4.145 -3.7372  0.1503  0.4020
 8780TIP3    H226284   5.219   7.391   4.074  0.9621 -0.8042  0.2715
 8781TIP3   OH226285   7.923   6.793   2.390  0.2309 -0.5190  0.2443
 8781TIP3    H126286   7.969   6.851   2.450  1.9018 -2.0336  0.4704
 8781TIP3    H226287   7.981   6.717   2.380 -1.3411 -1.6064 -0.9902
 8782TIP3   OH226288   7.414   4.294   3.669  0.2613 -0.4968 -0.1869
 8782TIP3    H126289   7.436   4.373   3.720 -0.9812 -1.1054  1.3479
 8782TIP3    H226290   7.493   4.275   3.619  1.7864 -0.2813  2.0707
 8783TIP3   OH226291   6.891   4.053   1.290  0.4535 -0.4758  0.2599
 8783TIP3    H126292   6.805   4.093   1.287  0.1750 -0.9429  1.5246
 8783TIP3    H226293   6.939   4.103   1.356  1.4053  0.2523 -0.9615
 8784TIP3   OH226294   6.478   7.121   2.250 -0.0083  0.6641 -0.1439
 8784TIP3    H126295   6.385   7.110   2.232  0.0382  2.0834 -1.3140
 8784TIP3    H226296   6.509   7.032   2.268 -1.4979  0.1263 -0.1521
 8785TIP3   OH226297   7.168   5.278   0.929  0.1686  0.7021  0.8465
 8785TIP3    H126298   7.207   5.362   0.906  1.7570 -0.1778  0.2639
 8785TIP3    H226299   7.182   5.223   0.852 -1.1857  0.0037  1.0795
 8786TIP3   OH226300   6.299   7.190   3.031 -0.2047 -0.2633  0.6376
 8786TIP3    H126301   6.391   7.164   3.016  0.2835  1.6274  0.2222
 8786TIP3    H226302   6.258   7.181   2.945 -0.8085 -2.5167  1.1181
 8787TIP3   OH226303   6.929   7.782   4.954 -0.4943 -0.5770  0.3402
 8787TIP3    H126304   6.992   7.713   4.934 -1.0857 -0.9372 -0.3014
 8787TIP3    H226305   6.846   7.735   4.968 -1.4651  0.1749 -2.5960
 8788TIP3   OH226306   0.428   7.174   1.606 -0.2632  0.2081 -0.6433
 8788TIP3    H126307   0.475   7.248   1.645 -0.5685 -0.1979  0.5057
 8788TIP3    H226308   0.379   7.213   1.534  2.2526  0.5516 -2.2570
 8789TIP3   OH226309   7.437   5.906   2.261 -0.7934 -0.0793 -0.0500
 8789TIP3    H126310   7.484   5.838   2.308  1.5097 -0.0407 -2.1845
 8789TIP3    H226311   7.376   5.859   2.204 -0.4129 -0.2915 -0.2810
 8790TIP3   OH226312   1.598   4.862   1.689 -0.5341  0.3743  0.0286
 8790TIP3    H126313   1.563   4.931   1.633 -1.1748  0.8892  1.0540
 8790TIP3    H226314   1.559   4.781   1.655  0.7689  0.4122 -1.6151
 8791TIP3   OH226315   7.276   5.830   3.053 -0.4575 -0.0893  0.4190
 8791TIP3    H126316   7.266   5.754   3.111 -1.3650  0.1973  0.6389
 8791TIP3    H226317   7.242   5.799   2.969 -0.1179 -0.1693  0.3103
 8792TIP3   OH226318   7.182   7.254   1.731  0.0291 -0.1374 -0.3250
 8792TIP3    H126319   7.118   7.212   1.788  1.3889  0.2262  1.5184
 8792TIP3    H226320   7.139   7.333   1.700 -0.2394  0.3676  1.2992
 8793TIP3   OH226321   6.422   7.109   0.726  0.3682 -0.5889  0.7866
 8793TIP3    H126322   6.517   7.098   0.729  0.2841 -1.0263  2.6654
 8793TIP3    H226323   6.391   7.070   0.808 -1.2602  1.1991  1.0674
 8794TIP3   OH226324   6.218   6.058   1.823 -0.0002  0.6234 -0.0872
 8794TIP3    H126325   6.295   6.113   1.837 -1.5389  2.8656 -0.1917
 8794TIP3    H226326   6.193   6.027   1.910 -0.3019  1.7486  0.2319
 8795TIP3   OH226327   6.536   6.416   2.754  0.2750  0.0359  0.0914
 8795TIP3    H126328   6.471   6.368   2.701  0.4406  0.2825 -0.3368
 8795TIP3    H226329   6.513   6.508   2.742  2.3985  0.3256 -2.3459
 8796TIP3   OH226330   6.763   6.005   2.176 -0.0133 -0.4154 -0.3463
 8796TIP3    H126331   6.690   6.008   2.115 -1.5306 -0.9568  1.3949
 8796TIP3    H226332   6.730   6.046   2.256  1.4506 -1.0441  0.6122
 8797TIP3   OH226333   6.735   6.813   2.238 -0.0561 -0.7853 -0.3410
 8797TIP3    H126334   6.752   6.819   2.145  1.5806 -0.4194 -0.0257
 8797TIP3    H226335   6.810   6.764   2.273 -0.4432 -0.5548  0.8357
 8798TIP3   OH226336   6.498   7.801   4.076  0.4714 -0.3323  0.1760
 8798TIP3    H126337   6.409   7.774   4.055 -0.0766  2.7984 -1.8680
 8798TIP3    H226338   6.495   7.817   4.171 -0.4127 -2.6236  0.5812
 8799TIP3   OH226339   6.420   5.820   0.668 -0.5389  0.1358  0.0739
 8799TIP3    H126340   6.385   5.867   0.744 -0.2985  0.8359 -0.2549
 8799TIP3    H226341   6.515   5.822   0.680 -0.5903 -2.9836  1.7134
 8800TIP3   OH226342   6.476   5.923   3.169 -0.3056 -0.6257 -0.4836
 8800TIP3    H126343   6.494   5.988   3.101 -1.2312  1.0162  0.8177
 8800TIP3    H226344   6.511   5.842   3.133 -0.6884  0.2196 -2.8820
 8801TIP3   OH226345   6.849   7.525   3.949  0.4335  0.2897  0.1500
 8801TIP3    H126346   6.808   7.466   3.886 -0.6506  0.9453  0.2318
 8801TIP3    H226347   6.943   7.519   3.931  0.2717 -0.9098 -0.3132
 8802TIP3   OH226348   7.567   7.358   1.995 -0.1161 -0.1156  0.3371
 8802TIP3    H126349   7.499   7.422   2.016 -0.8452 -1.1825  1.2951
 8802TIP3    H226350   7.535   7.276   2.032  1.5277 -0.7096  0.4862
 8803TIP3   OH226351   7.864   5.964   2.212  0.2173 -0.4043 -0.2095
 8803TIP3    H126352   7.888   6.010   2.131  2.0178 -1.9679 -0.6019
 8803TIP3    H226353   7.904   5.878   2.203  0.2623 -0.6773  2.2769
 8804TIP3   OH226354   6.483   2.933   1.571 -0.0419 -0.0054 -0.1661
 8804TIP3    H126355   6.552   2.879   1.533  0.3577  0.3769  0.0164
 8804TIP3    H226356   6.500   3.021   1.539 -0.1469  0.1812  0.2777
 8805TIP3   OH226357   6.226   7.828   0.500  0.1943  0.1657 -0.1690
 8805TIP3    H126358   6.317   7.834   0.529  0.1578  0.5779 -0.1290
 8805TIP3    H226359   6.232   7.821   0.405  0.3259 -1.5547 -0.0346
 8806TIP3   OH226360   1.562   0.079   1.228 -0.1752 -0.0597 -0.0003
 8806TIP3    H126361   1.585   0.156   1.176 -0.8888  0.3227  0.2391
 8806TIP3    H226362   1.600   0.005   1.180  0.9586  0.4856  0.0450
 8807TIP3   OH226363   1.042   0.376   0.738 -0.1803 -0.1185 -0.0292
 8807TIP3    H126364   1.077   0.457   0.702  1.6782 -1.3005 -0.9835
 8807TIP3    H226365   0.989   0.403   0.813 -0.7958  2.0692 -1.2269
 8808TIP3   OH226366   8.103   6.078   3.504 -0.4477 -0.7225 -0.0395
 8808TIP3    H126367   8.056   5.995   3.513  0.2182 -1.0428  0.6024
 8808TIP3    H226368   8.034   6.144   3.501 -1.0056 -1.3405 -1.1156
 8809TIP3   OH226369   0.553   7.989   2.051  0.3082 -0.2110  0.5658
 8809TIP3    H126370   0.626   8.051   2.045  0.3199 -0.1463  1.3121
 8809TIP3    H226371   0.595   7.906   2.075  0.1298 -0.1652  1.0277
 8810TIP3   OH226372   7.257   8.045   4.458 -0.1188 -0.4197 -0.1417
 8810TIP3    H126373   7.289   7.961   4.424  0.1635 -0.8313  1.1058
 8810TIP3    H226374   7.259   8.034   4.553 -1.1999  0.5912  0.0038
 8811TIP3   OH226375   4.403   3.108   6.871  0.0639 -0.0030 -0.1070
 8811TIP3    H126376   4.321   3.071   6.839 -0.8871  1.3280  0.7408
 8811TIP3    H226377   4.448   3.138   6.792 -0.7375  0.2125 -0.4872
 8812TIP3   OH226378   0.136   0.382   4.358  0.1354 -0.0885 -0.0861
 8812TIP3    H126379   0.230   0.397   4.370  0.2594  0.1792 -1.3363
 8812TIP3    H226380   0.130   0.329   4.278 -0.6413 -2.1317  1.2676
 8813TIP3   OH226381   0.079   7.508   2.978  0.7430 -0.4668 -0.6436
 8813TIP3    H126382   0.138   7.551   3.040 -1.8675  2.0309  0.2435
 8813TIP3    H226383   0.070   7.572   2.906  0.1276 -1.3451 -1.3542
 8814TIP3   OH226384   7.839   7.251   3.001  0.3135 -0.0121 -0.3047
 8814TIP3    H126385   7.823   7.294   2.917  0.5156 -1.6032 -1.1740
 8814TIP3    H226386   7.930   7.273   3.022 -0.4052  2.2426  0.6238
 8815TIP3   OH226387   7.864   6.089   2.445  0.3601 -0.3889 -0.3715
 8815TIP3    H126388   7.942   6.054   2.487  0.4131 -1.1932 -1.1259
 8815TIP3    H226389   7.838   6.022   2.383 -2.1276 -1.0375  1.2952
 8816TIP3   OH226390   1.463   5.776   0.528 -0.0315 -0.9724  0.3204
 8816TIP3    H126391   1.494   5.800   0.441 -1.6272  3.2687  0.7709
 8816TIP3    H226392   1.542   5.762   0.579  0.9414 -1.5783 -1.3270
 8817TIP3   OH226393   5.634   5.514   2.278  0.7620 -0.1517  0.0776
 8817TIP3    H126394   5.713   5.568   2.267  0.5079  0.4179  1.0665
 8817TIP3    H226395   5.562   5.577   2.277  0.4672 -0.4621  1.2618
 8818TIP3   OH226396   6.907   7.762   3.761  0.3596  0.6910  0.2114
 8818TIP3    H126397   6.942   7.688   3.712  2.0952  1.3357  0.4373
 8818TIP3    H226398   6.919   7.837   3.703 -1.6239  0.7838 -0.1217
 8819TIP3   OH226399   7.984   7.443   2.361 -0.3556 -0.2563  0.1900
 8819TIP3    H126400   8.065   7.484   2.333 -0.4693  0.9640  1.5670
 8819TIP3    H226401   7.944   7.410   2.280  0.4896  0.9907 -0.7528
 8820TIP3   OH226402   6.935   7.106   0.651  0.2053 -0.2114 -0.1639
 8820TIP3    H126403   6.875   7.159   0.704  0.4129  0.6627 -0.7791
 8820TIP3    H226404   6.891   7.022   0.640 -0.0033 -0.2761  1.0786
 8821TIP3   OH226405   7.511   7.372   2.572  0.2395  0.2407 -0.0057
 8821TIP3    H126406   7.455   7.309   2.525  1.8994 -1.5265  0.3141
 8821TIP3    H226407   7.451   7.418   2.631 -1.0986 -0.7096 -0.5970
 8822TIP3   OH226408   6.965   6.267   4.284 -0.6190  0.0178 -0.4025
 8822TIP3    H126409   6.879   6.287   4.246  0.3048  3.6654 -0.7406
 8822TIP3    H226410   7.027   6.279   4.212  0.4064 -0.5342  0.3711
 8823TIP3   OH226411   5.582   5.795   4.210 -0.5503 -0.6049 -0.0918
 8823TIP3    H126412   5.527   5.851   4.265  0.6258 -0.7609  1.2757
 8823TIP3    H226413   5.619   5.854   4.145 -2.1664 -0.4629 -0.9153
 8824TIP3   OH226414   5.305   5.265   3.510 -0.4652  0.2186 -0.3311
 8824TIP3    H126415   5.232   5.223   3.555 -0.6862  1.6712  0.7150
 8824TIP3    H226416   5.381   5.248   3.567 -0.0831 -0.8639 -1.1611
 8825TIP3   OH226417   1.110   0.391   3.654  0.4975  0.0864  0.3030
 8825TIP3    H126418   1.144   0.436   3.732  0.0742 -0.2054  0.6572
 8825TIP3    H226419   1.052   0.455   3.613 -0.2838 -0.2120  0.9326
 8826TIP3   OH226420   6.812   7.026   3.138  0.4711 -0.2364 -0.3374
 8826TIP3    H126421   6.838   7.118   3.133 -1.4023  0.3352  0.1939
 8826TIP3    H226422   6.742   7.024   3.203 -1.0772 -1.6819 -1.9987
 8827TIP3   OH226423   0.911   6.218   3.238 -0.4586 -0.4783  0.5148
 8827TIP3    H126424   0.915   6.124   3.254 -0.9398 -0.3637  1.3409
 8827TIP3    H226425   0.904   6.226   3.143 -1.2970 -1.3047  0.5035
 8828TIP3   OH226426   0.422   6.792   2.960 -0.3177  0.4129  0.3774
 8828TIP3    H126427   0.432   6.697   2.961 -0.7073  0.3001 -2.3037
 8828TIP3    H226428   0.362   6.811   3.032  0.2585 -1.2944  1.3291
 8829TIP3   OH226429   7.318   6.467   2.987 -0.0335  0.5935  0.5680
 8829TIP3    H126430   7.259   6.431   2.921 -1.3117  1.7317  1.0842
 8829TIP3    H226431   7.382   6.517   2.936  0.1161 -0.0932  0.0638
 8830TIP3   OH226432   6.974   3.287   3.860 -0.2008 -0.2569 -0.1093
 8830TIP3    H126433   7.020   3.310   3.941 -0.5763  1.9069 -0.4683
 8830TIP3    H226434   6.911   3.358   3.847 -0.7996 -1.0539 -1.8089
 8831TIP3   OH226435   0.557   5.774   1.670 -0.0558  0.0834 -0.1616
 8831TIP3    H126436   0.499   5.842   1.704 -0.4671 -1.1409  1.6463
 8831TIP3    H226437   0.526   5.693   1.712  0.3372 -1.2530 -2.3548
 8832TIP3   OH226438   6.783   4.328   2.318  0.3583  0.0782  0.8208
 8832TIP3    H126439   6.826   4.296   2.398  0.3370 -0.6067  0.5636
 8832TIP3    H226440   6.705   4.274   2.310 -0.0248  0.6389  0.7313
 8833TIP3   OH226441   4.711   4.343   0.344  0.6127  0.3413  0.1392
 8833TIP3    H126442   4.753   4.421   0.308  0.9558 -1.0668 -2.6856
 8833TIP3    H226443   4.782   4.280   0.355  0.2887  0.2791  2.0748
 8834TIP3   OH226444   7.093   7.382   2.214  0.2155  0.2345 -0.3694
 8834TIP3    H126445   7.069   7.318   2.281  1.0234  0.5561  0.2356
 8834TIP3    H226446   7.013   7.432   2.199 -0.2400 -0.4844 -0.3628
 8835TIP3   OH226447   6.360   4.766   2.899 -0.2408  0.0761  0.1546
 8835TIP3    H126448   6.407   4.849   2.907 -0.3255  0.1831 -0.4262
 8835TIP3    H226449   6.306   4.761   2.978  0.2271  0.2767  0.4909
 8836TIP3   OH226450   7.934   7.947   1.441 -0.0937 -0.0307  0.0316
 8836TIP3    H126451   7.874   8.008   1.485 -1.4823 -1.4450  0.1541
 8836TIP3    H226452   8.012   7.945   1.496 -0.5679  0.6289  0.7293
 8837TIP3   OH226453   5.662   6.982   2.479  0.0930 -0.4110  0.0592
 8837TIP3    H126454   5.590   7.019   2.428  1.0656  1.3795 -0.0679
 8837TIP3    H226455   5.724   6.950   2.413  0.8083  0.8325  0.1148
 8838TIP3   OH226456   7.266   6.080   1.086 -0.5231  0.1614  0.0607
 8838TIP3    H126457   7.326   6.155   1.080 -0.5807  0.1609 -0.5542
 8838TIP3    H226458   7.324   6.005   1.100 -0.3735  0.1682 -0.4772
 8839TIP3   OH226459   7.324   6.031   3.994 -0.0132  0.5034  0.6961
 8839TIP3    H126460   7.316   5.954   4.052  1.3279  0.8349  1.3462
 8839TIP3    H226461   7.371   5.998   3.918  0.6413  0.6851  1.0142
 8840TIP3   OH226462   6.938   5.243   2.849  0.6547 -0.3789  0.3864
 8840TIP3    H126463   6.883   5.166   2.864  0.5376  0.0112  2.0097
 8840TIP3    H226464   6.999   5.245   2.923 -0.2655  1.8596  1.1575
 8841TIP3   OH226465   7.211   4.948   4.365  0.0028 -0.0659  0.3591
 8841TIP3    H126466   7.269   4.891   4.416  0.6602  0.2083 -0.0841
 8841TIP3    H226467   7.267   5.019   4.335 -1.1002  1.5760  2.0349
 8842TIP3   OH226468   6.506   4.803   2.109 -0.0296  0.3138  0.0696
 8842TIP3    H126469   6.426   4.758   2.135 -0.1585  1.4618  1.7486
 8842TIP3    H226470   6.476   4.877   2.056  0.0976 -0.7021 -1.4601
 8843TIP3   OH226471   7.132   2.982   2.788  0.0805 -0.4939  0.4884
 8843TIP3    H126472   7.111   2.897   2.826 -0.0394 -0.5917  0.2005
 8843TIP3    H226473   7.067   2.995   2.719  0.0880 -0.1642  0.5416
 8844TIP3   OH226474   6.271   6.226   1.247  0.1951  0.6390  0.0422
 8844TIP3    H126475   6.200   6.232   1.182 -0.5059  1.1182  0.8425
 8844TIP3    H226476   6.340   6.283   1.212  0.1723  0.2123 -0.7160
 8845TIP3   OH226477   7.660   6.140   2.651  0.3304 -0.4511  0.2848
 8845TIP3    H126478   7.717   6.195   2.597 -0.6229  1.2515  1.0001
 8845TIP3    H226479   7.574   6.147   2.610 -0.0490 -0.4618  1.0834
 8846TIP3   OH226480   7.826   5.893   1.516 -0.0072 -0.2308  0.4092
 8846TIP3    H126481   7.759   5.879   1.449 -0.3165  3.7617 -0.2392
 8846TIP3    H226482   7.908   5.901   1.467  0.2390 -0.3751  0.7947
 8847TIP3   OH226483   6.797   6.396   2.688 -0.3115 -0.8000 -0.2143
 8847TIP3    H126484   6.703   6.384   2.703 -0.6674 -0.3266 -2.0194
 8847TIP3    H226485   6.822   6.319   2.637  0.2265 -0.7751  0.0145
 8848TIP3   OH226486   6.847   5.188   4.122  0.0232 -0.7808 -0.0574
 8848TIP3    H126487   6.814   5.150   4.041  1.2457  0.4224 -1.1293
 8848TIP3    H226488   6.931   5.144   4.136  1.0770  0.9512 -0.8886
 8849TIP3   OH226489   7.763   6.312   1.944 -0.3678 -0.0779  0.5192
 8849TIP3    H126490   7.736   6.331   1.854 -0.8816  0.4941  0.7940
 8849TIP3    H226491   7.683   6.283   1.987  0.7156 -4.9153 -0.3960
 8850TIP3   OH226492   0.566   5.815   3.376 -0.1557 -0.0737  0.0130
 8850TIP3    H126493   0.658   5.788   3.370 -0.3480 -0.4843 -1.1952
 8850TIP3    H226494   0.568   5.893   3.431  0.8511 -0.4032  0.4555
 8851TIP3   OH226495   6.744   6.360   4.141  0.5505 -0.2829 -0.3850
 8851TIP3    H126496   6.742   6.455   4.155 -0.0791 -0.4444  0.6620
 8851TIP3    H226497   6.652   6.333   4.149  1.1042 -1.4716  2.9872
 8852TIP3   OH226498   0.384   6.316   4.633 -0.0712 -0.0926  0.6971
 8852TIP3    H126499   0.345   6.240   4.677 -0.6745  0.2626  0.7784
 8852TIP3    H226500   0.319   6.386   4.643 -0.4217 -0.1293 -1.1626
 8853TIP3   OH226501   6.843   4.580   1.617  0.2543  0.2125  0.7718
 8853TIP3    H126502   6.800   4.581   1.532  2.7225  0.7006 -0.5204
 8853TIP3    H226503   6.883   4.666   1.626  0.0585  0.1635  2.4394
 8854TIP3   OH226504   5.827   7.018   2.107  0.1182 -0.4690 -0.6163
 8854TIP3    H126505   5.876   6.988   2.031  1.7954 -2.0633  1.0395
 8854TIP3    H226506   5.832   6.945   2.170 -0.1937  1.2636  1.4877
 8855TIP3   OH226507   6.641   5.456   2.896  0.3171 -0.1757  0.3389
 8855TIP3    H126508   6.656   5.422   2.984  0.8793 -3.0469 -0.8055
 8855TIP3    H226509   6.727   5.490   2.869  0.0710  0.9875  0.9899
 8856TIP3   OH226510   0.073   5.500   4.173 -0.5393  0.1240 -0.0820
 8856TIP3    H126511   0.078   5.560   4.099 -0.4520 -0.5642 -0.6390
 8856TIP3    H226512   0.040   5.418   4.136  0.5356 -0.5517  0.4261
 8857TIP3   OH226513   8.487   0.820   6.064  0.0555 -0.3120 -0.5687
 8857TIP3    H126514   8.485   0.755   6.134 -0.2026 -0.0523 -0.3380
 8857TIP3    H226515   8.503   0.769   5.985 -1.2054 -0.7815 -0.5322
 8858TIP3   OH226516   8.258   0.162   1.671  0.1550  0.0289 -0.1050
 8858TIP3    H126517   8.335   0.157   1.727  0.7322  0.5920 -0.8228
 8858TIP3    H226518   8.286   0.121   1.588  1.0152  3.7970 -1.7757
 8859TIP3   OH226519   7.024   6.442   2.835 -0.1340 -0.2134 -0.1435
 8859TIP3    H126520   6.959   6.426   2.767 -1.2305  0.2246  0.7874
 8859TIP3    H226521   7.108   6.433   2.790 -0.8137  3.4869 -2.3911
 8860TIP3   OH226522   5.336   6.910   3.050  0.4560  0.3768  0.4899
 8860TIP3    H126523   5.416   6.944   3.091  0.6744  0.9045 -0.3530
 8860TIP3    H226524   5.356   6.908   2.956 -0.5047  0.4754  0.2762
 8861TIP3   OH226525   4.991   6.367   2.773  0.0064  0.1167  0.0044
 8861TIP3    H126526   4.914   6.419   2.796  0.0478  0.2837 -0.2460
 8861TIP3    H226527   5.063   6.409   2.819 -0.0434 -0.0201  0.2103
 8862TIP3   OH226528   7.774   7.759   2.748  0.5160  0.5254 -0.5716
 8862TIP3    H126529   7.809   7.702   2.680  1.8966 -0.5906  1.0529
 8862TIP3    H226530   7.740   7.699   2.814  0.7267  1.5904  0.5141
 8863TIP3   OH226531   5.031   5.387   1.866 -0.0667  0.1085 -0.1657
 8863TIP3    H126532   5.025   5.293   1.854 -1.9692  0.0552  0.9876
 8863TIP3    H226533   4.985   5.424   1.790  0.8190  0.1248 -0.7023
 8864TIP3   OH226534   3.913   6.287   2.380 -0.4280  0.2100  0.3506
 8864TIP3    H126535   3.948   6.338   2.453  0.8444 -0.2744  0.0931
 8864TIP3    H226536   3.952   6.328   2.302  0.0532 -0.7063  0.1003
 8865TIP3   OH226537   7.024   5.948   1.466  0.2618  0.0992 -0.3207
 8865TIP3    H126538   7.028   5.913   1.377  0.7632 -1.1982  0.1959
 8865TIP3    H226539   7.115   5.966   1.489  0.3938 -1.7069  0.7276
 8866TIP3   OH226540   3.558   0.017   4.742  0.0562 -0.5287  0.4011
 8866TIP3    H126541   3.477  -0.031   4.760 -0.7835  0.7580  0.0750
 8866TIP3    H226542   3.550   0.045   4.651  0.3090  0.6986  0.7567
 8867TIP3   OH226543   6.996   7.799   3.363 -0.1013  0.5530  0.6210
 8867TIP3    H126544   6.930   7.746   3.317  1.1269 -1.4270  1.0663
 8867TIP3    H226545   6.949   7.878   3.389 -1.8271 -0.0165 -0.6426
 8868TIP3   OH226546   1.070   0.416   1.085  0.3850 -0.2358  0.0808
 8868TIP3    H126547   1.013   0.386   1.156  0.0797  0.3582  0.0888
 8868TIP3    H226548   1.010   0.443   1.016  0.6295  0.7915  0.2502
 8869TIP3   OH226549   8.195   6.872   2.850 -0.1028 -0.2116 -0.5189
 8869TIP3    H126550   8.262   6.932   2.883 -1.7351  0.7744  1.0851
 8869TIP3    H226551   8.118   6.889   2.905 -1.6374 -1.4164 -2.2225
 8870TIP3   OH226552   6.720   7.232   2.178 -0.0494 -0.0996 -0.4003
 8870TIP3    H126553   6.634   7.207   2.210  0.8845 -0.7173  1.7082
 8870TIP3    H226554   6.736   7.319   2.216  0.5371 -0.2904 -0.1953
 8871TIP3   OH226555   0.132   6.470   2.359 -0.3303  0.2527  0.5070
 8871TIP3    H126556   0.094   6.553   2.331 -0.0442  0.8248  1.7663
 8871TIP3    H226557   0.205   6.495   2.415 -0.5847 -0.8428  1.3448
 8872TIP3   OH226558   0.750   7.903   0.298  0.4219  0.1577 -0.2565
 8872TIP3    H126559   0.825   7.855   0.331 -0.8262 -2.3705 -0.9519
 8872TIP3    H226560   0.743   7.877   0.206 -1.4875  0.0557 -0.1125
 8873TIP3   OH226561   8.322   6.857   3.248  0.3454 -0.2773 -0.1882
 8873TIP3    H126562   8.366   6.859   3.164 -1.0030  1.5464 -0.8948
 8873TIP3    H226563   8.353   6.777   3.290  0.7279 -1.4068 -2.5657
 8874TIP3   OH226564   7.316   5.610   2.525  0.3075  0.3961  0.0479
 8874TIP3    H126565   7.396   5.610   2.472 -0.3707  0.4030 -0.9879
 8874TIP3    H226566   7.248   5.578   2.466 -0.4061  0.1236  1.0082
 8875TIP3   OH226567   7.781   6.202   1.373 -0.0280 -0.0825 -0.1590
 8875TIP3    H126568   7.721   6.210   1.299 -0.5159  0.0205  0.2462
 8875TIP3    H226569   7.837   6.279   1.367 -0.8072  0.5126  0.2386
 8876TIP3   OH226570   6.165   4.563   1.854 -0.4729 -0.1121 -0.0705
 8876TIP3    H126571   6.154   4.574   1.759 -1.7641 -1.0746 -0.0354
 8876TIP3    H226572   6.207   4.478   1.864 -0.3573 -0.0208  0.2284
 8877TIP3   OH226573   6.568   7.586   3.919 -0.5712  0.0670 -0.2356
 8877TIP3    H126574   6.541   7.666   3.964 -0.5280 -0.3594  0.5447
 8877TIP3    H226575   6.661   7.578   3.937 -0.9003 -1.0501  1.0949
 8878TIP3   OH226576   6.761   7.652   3.355  0.1067  1.4101  0.2171
 8878TIP3    H126577   6.724   7.685   3.437 -2.9547  1.7976 -1.2839
 8878TIP3    H226578   6.725   7.708   3.287  0.8230 -0.3243 -1.6517
 8879TIP3   OH226579   0.890   0.095   3.213  0.0048  0.4659 -0.1535
 8879TIP3    H126580   0.872   0.171   3.158 -2.1430  0.7270  0.8472
 8879TIP3    H226581   0.907   0.132   3.300  1.5580 -0.0522 -0.2281
 8880TIP3   OH226582   6.675   7.054   3.410 -0.4284  0.4436  0.3354
 8880TIP3    H126583   6.643   7.112   3.479 -0.9565 -0.7802  1.1279
 8880TIP3    H226584   6.748   7.007   3.450  0.9600  1.6077 -0.7679
 8881TIP3   OH226585   7.411   3.079   1.611 -0.8191 -0.3395  0.4712
 8881TIP3    H126586   7.492   3.031   1.624  1.8573  3.4931 -1.0209
 8881TIP3    H226587   7.381   3.100   1.700  1.3769  0.5551  1.0460
 8882TIP3   OH226588   5.878   7.038   2.901 -0.5034 -0.5794 -0.3101
 8882TIP3    H126589   5.889   7.124   2.859 -1.7714 -0.1400  0.2111
 8882TIP3    H226590   5.857   6.979   2.829  0.4711 -0.4738 -0.6858
 8883TIP3   OH226591   7.190   5.117   2.565 -0.3472 -0.1602 -0.8261
 8883TIP3    H126592   7.222   5.155   2.646 -1.9734  1.9886 -1.1672
 8883TIP3    H226593   7.150   5.034   2.591 -2.1990  1.2047  0.7942
 8884TIP3   OH226594   7.184   5.458   4.135  0.1371  0.0943  0.2703
 8884TIP3    H126595   7.135   5.392   4.183 -0.4106  0.3066  0.0035
 8884TIP3    H226596   7.150   5.542   4.167 -0.5469  0.2391 -0.7925
 8885TIP3   OH226597   5.867   5.353   2.648  0.5695  0.1485 -0.5523
 8885TIP3    H126598   5.874   5.367   2.743  0.5844  1.9612 -0.7923
 8885TIP3    H226599   5.777   5.325   2.635  0.7660 -0.7880  0.0747
 8886TIP3   OH226600   6.461   6.851   2.338  0.2850 -0.3830  0.1728
 8886TIP3    H126601   6.554   6.842   2.318  0.1738 -0.3348 -0.3821
 8886TIP3    H226602   6.428   6.761   2.337 -0.0690 -0.2603 -1.6237
 8887TIP3   OH226603   5.357   6.588   4.003 -0.2129  0.4326  0.0914
 8887TIP3    H126604   5.346   6.576   3.909  0.0019 -2.0695  0.3425
 8887TIP3    H226605   5.450   6.608   4.014  0.4517 -2.4911  0.0206
 8888TIP3   OH226606   7.117   6.927   2.338 -0.2205  0.3922 -0.0669
 8888TIP3    H126607   7.128   6.896   2.247  2.5887  0.4091  0.2275
 8888TIP3    H226608   7.043   6.987   2.334  0.2022  0.8117 -2.4763
 8889TIP3   OH226609   7.757   6.834   1.767 -0.1964 -0.2383 -0.0204
 8889TIP3    H126610   7.794   6.878   1.844  0.2981 -2.8823  1.2966
 8889TIP3    H226611   7.669   6.872   1.759  0.3497  1.2576  0.8540
 8890TIP3   OH226612   2.541   0.259   4.172  0.4245  0.4342  0.1724
 8890TIP3    H126613   2.584   0.343   4.191  1.9033  0.1310 -1.6900
 8890TIP3    H226614   2.504   0.270   4.085  1.3888 -1.1140 -0.4577
 8891TIP3   OH226615   6.489   6.811   3.501 -0.2748 -0.1221 -0.0501
 8891TIP3    H126616   6.451   6.887   3.457  1.1023  0.8928  0.4690
 8891TIP3    H226617   6.469   6.825   3.594 -1.0311 -0.9951 -0.0780
 8892TIP3   OH226618   5.715   6.034   1.785 -0.1199 -0.4430 -0.1546
 8892TIP3    H126619   5.806   6.063   1.793  0.4781 -1.6569 -2.2553
 8892TIP3    H226620   5.697   6.039   1.691 -1.6082 -2.0123  0.0286
 8893TIP3   OH226621   0.863   7.616   3.774 -0.0885 -0.0343 -0.3131
 8893TIP3    H126622   0.799   7.640   3.707  0.7047  0.4520 -0.9100
 8893TIP3    H226623   0.941   7.591   3.725  0.5449  0.4519  0.4279
 8894TIP3   OH226624   5.520   7.909   2.187  0.6168 -0.3041  0.0106
 8894TIP3    H126625   5.537   7.957   2.106 -0.2730 -0.4008 -0.2424
 8894TIP3    H226626   5.596   7.927   2.242  0.5273  1.0094 -0.2674
 8895TIP3   OH226627   0.445   7.523   3.441 -0.3808  0.4180 -0.4991
 8895TIP3    H126628   0.362   7.509   3.396  0.2839  0.4741 -1.7612
 8895TIP3    H226629   0.439   7.471   3.521 -1.2402 -0.3550 -1.0677
 8896TIP3   OH226630   6.114   6.746   4.792 -0.2247 -0.0965  0.4008
 8896TIP3    H126631   6.123   6.801   4.870 -0.7521 -0.0754  0.4521
 8896TIP3    H226632   6.032   6.776   4.751 -0.0070 -0.1825 -0.1025
 8897TIP3   OH226633   7.385   6.908   3.082 -0.2358 -0.2037 -0.2349
 8897TIP3    H126634   7.424   6.996   3.081  2.5017 -1.3256  1.2773
 8897TIP3    H226635   7.304   6.919   3.131  1.9544  0.8478  3.3934
 8898TIP3   OH226636   7.615   7.313   4.640 -0.1246  0.3234  0.5842
 8898TIP3    H126637   7.578   7.282   4.558  1.0337  0.0768  0.1485
 8898TIP3    H226638   7.622   7.236   4.696  0.8503  0.1455  0.2297
 8899TIP3   OH226639   2.508   1.878   1.157  0.2003  0.2980 -0.2416
 8899TIP3    H126640   2.444   1.889   1.085  0.3280  1.3726 -0.2022
 8899TIP3    H226641   2.489   1.951   1.216  1.1582  0.3481  0.0064
 8900TIP3   OH226642   7.290   7.491   4.508  0.0238 -0.2912 -0.2119
 8900TIP3    H126643   7.267   7.541   4.586 -1.3969  1.0102 -1.4211
 8900TIP3    H226644   7.364   7.538   4.470  1.2662 -1.4042  0.7699
 8901TIP3   OH226645   8.456   7.158   1.480  0.0672  0.0108  0.3177
 8901TIP3    H126646   8.385   7.217   1.453  0.8430  0.5668 -0.5173
 8901TIP3    H226647   8.505   7.141   1.400  1.6859  0.7186  1.1463
 8902TIP3   OH226648   6.850   6.889   3.543  0.4367 -0.3328 -0.3737
 8902TIP3    H126649   6.888   6.883   3.631  0.9432 -0.6238 -0.6106
 8902TIP3    H226650   6.809   6.804   3.529  0.1394 -0.1988 -0.3235
 8903TIP3   OH226651   1.791   6.461   5.574  0.1641 -0.0605 -0.2713
 8903TIP3    H126652   1.856   6.422   5.516 -0.8764 -1.2617 -0.6290
 8903TIP3    H226653   1.829   6.452   5.662  0.6572 -0.3882 -0.5193
 8904TIP3   OH226654   4.215   0.216   5.719 -0.4915 -0.2288 -0.1079
 8904TIP3    H126655   4.166   0.178   5.646 -2.0807  1.8952 -0.1712
 8904TIP3    H226656   4.307   0.208   5.693 -0.9272 -1.5840 -1.2883
 8905TIP3   OH226657   7.257   7.536   2.421 -0.3512 -0.4023  0.0552
 8905TIP3    H126658   7.246   7.446   2.453  1.0342 -0.5299  0.1899
 8905TIP3    H226659   7.326   7.530   2.356  0.2993  0.6953  0.6301
 8906TIP3   OH226660   6.992   5.033   5.233 -0.3587 -0.1757  0.5773
 8906TIP3    H126661   7.067   4.979   5.208 -0.0155  0.9912 -0.9992
 8906TIP3    H226662   6.916   4.988   5.196 -0.1954 -0.1554  0.2227
 8907TIP3   OH226663   6.705   7.823   2.302  0.2356 -0.4801 -0.0116
 8907TIP3    H126664   6.707   7.794   2.393  1.1062  1.7466  0.7197
 8907TIP3    H226665   6.753   7.906   2.302  0.3737 -0.5092 -2.5285
 8908TIP3   OH226666   6.755   6.360   1.577 -0.2016  0.5689  0.0951
 8908TIP3    H126667   6.726   6.451   1.567 -0.8959  0.2301 -1.1346
 8908TIP3    H226668   6.834   6.353   1.524 -1.3118 -0.0588 -1.5247
 8909TIP3   OH226669   7.442   6.296   2.093 -0.3195  0.0462 -0.4547
 8909TIP3    H126670   7.373   6.241   2.055  0.9167 -2.0817  0.2992
 8909TIP3    H226671   7.490   6.237   2.152  0.3407  2.2436  1.2535
 8910TIP3   OH226672   6.608   6.128   3.020 -0.0923  0.5284  0.3292
 8910TIP3    H126673   6.684   6.095   2.972  0.2309 -1.3781  2.0713
 8910TIP3    H226674   6.644   6.164   3.101 -0.9321  0.5383  0.7084
 8911TIP3   OH226675   6.919   6.374   4.882 -0.0716 -0.5486 -0.6172
 8911TIP3    H126676   6.893   6.466   4.885 -3.4967 -1.3645 -2.6046
 8911TIP3    H226677   7.015   6.376   4.878 -0.1434  2.9621 -1.8901
 8912TIP3   OH226678   1.882   0.136   0.760 -0.3322 -0.5145 -0.1958
 8912TIP3    H126679   1.889   0.214   0.815  0.9092 -0.5678 -0.2559
 8912TIP3    H226680   1.961   0.138   0.706  1.0127 -3.0966  1.5134
 8913TIP3   OH226681   5.532   4.590   2.650  0.3428  0.0228 -0.0032
 8913TIP3    H126682   5.510   4.676   2.686  1.8435  0.7928 -0.8516
 8913TIP3    H226683   5.548   4.535   2.727 -1.2424  0.3306  0.5505
 8914TIP3   OH226684   7.288   0.031   1.107  0.1401  0.0756  0.0616
 8914TIP3    H126685   7.335  -0.051   1.119  1.6404  0.7953 -0.8225
 8914TIP3    H226686   7.255   0.026   1.017 -1.2133 -0.2716  0.5557
 8915TIP3   OH226687   7.823   4.563   4.891  0.3351 -0.0440 -0.0824
 8915TIP3    H126688   7.879   4.621   4.943 -0.4524  1.1118 -0.5173
 8915TIP3    H226689   7.761   4.621   4.847 -0.4416 -1.2073 -0.5635
 8916TIP3   OH226690   6.982   6.175   2.602 -0.3764  0.0733  0.0389
 8916TIP3    H126691   7.021   6.229   2.533  0.2976 -0.1300  0.2682
 8916TIP3    H226692   7.007   6.086   2.581 -1.7031 -0.1920 -0.4788
 8917TIP3   OH226693   7.062   7.866   1.509 -0.3825  0.4487 -0.1660
 8917TIP3    H126694   7.028   7.814   1.436 -2.0884  1.6811 -0.2684
 8917TIP3    H226695   7.050   7.957   1.482  0.3878  0.9132  1.0016
 8918TIP3   OH226696   6.414   3.487   2.231  0.2156  0.1888 -0.3098
 8918TIP3    H126697   6.460   3.544   2.170 -0.4315  0.0562 -0.9359
 8918TIP3    H226698   6.335   3.536   2.255  0.0643 -0.1002 -0.2168
 8919TIP3   OH226699   7.758   7.428   3.641  0.2489  0.2176 -0.3435
 8919TIP3    H126700   7.801   7.351   3.677 -1.1231 -0.4954 -0.2133
 8919TIP3    H226701   7.706   7.395   3.568  2.4460  1.5490 -2.5570
 8920TIP3   OH226702   6.634   7.905   2.033 -0.1073 -0.6543 -0.3061
 8920TIP3    H126703   6.715   7.898   1.982  0.4436 -0.4412  0.5096
 8920TIP3    H226704   6.660   7.881   2.122 -1.1645 -1.5212 -0.2300
 8921TIP3   OH226705   6.848   3.682   1.928  0.5416 -0.1816  0.0564
 8921TIP3    H126706   6.800   3.619   1.982 -0.4561  0.4965 -0.0393
 8921TIP3    H226707   6.810   3.767   1.950 -0.5465  0.0166 -2.3932
 8922TIP3   OH226708   5.524   3.869   2.397  0.2436  0.2196 -0.2193
 8922TIP3    H126709   5.518   3.954   2.352 -1.5341 -0.9605 -2.3044
 8922TIP3    H226710   5.462   3.876   2.469 -1.8186 -0.2068 -1.9319
 8923TIP3   OH226711   7.362   5.551   3.636 -0.6697 -0.1152 -0.5706
 8923TIP3    H126712   7.380   5.578   3.726  0.1249 -0.0212 -0.7518
 8923TIP3    H226713   7.285   5.496   3.643 -0.8482  0.2081  0.1226
 8924TIP3   OH226714   0.157   6.410   1.786 -0.3983  0.5019 -0.1500
 8924TIP3    H126715   0.133   6.476   1.850  1.3156 -0.4627  1.5378
 8924TIP3    H226716   0.075   6.366   1.764 -0.8272 -0.1132  2.5122
 8925TIP3   OH226717   7.348   6.001   3.270  0.4901 -0.3262  0.1090
 8925TIP3    H126718   7.307   5.940   3.208 -0.6477  2.3651 -1.8644
 8925TIP3    H226719   7.349   6.085   3.224  3.9003  0.7442  1.9856
 8926TIP3   OH226720   0.445   6.254   0.677 -0.4843  0.4453  0.6740
 8926TIP3    H126721   0.356   6.252   0.640  0.3733 -0.5635 -1.4300
 8926TIP3    H226722   0.448   6.334   0.728 -1.6362  2.0682 -1.7276
 8927TIP3   OH226723   5.593   2.797   3.964  0.2269 -0.4916  0.1048
 8927TIP3    H126724   5.677   2.806   3.919 -0.4095 -0.3827 -1.0890
 8927TIP3    H226725   5.532   2.851   3.913 -1.3338 -3.2155 -1.0318
 8928TIP3   OH226726   3.034   4.552   4.082  0.0490  0.4085  0.5148
 8928TIP3    H126727   2.954   4.500   4.094  0.5341 -0.8635 -1.4390
 8928TIP3    H226728   3.022   4.596   3.998  1.4478  0.0882  0.1235
 8929TIP3   OH226729   7.021   5.734   2.295  0.2103  0.6160  0.4811
 8929TIP3    H126730   7.083   5.660   2.297 -1.3314 -0.7628 -1.2683
 8929TIP3    H226731   7.052   5.788   2.223  0.4700  0.9121  0.8135
 8930TIP3   OH226732   6.431   6.685   6.026 -0.1059  0.0593 -0.0789
 8930TIP3    H126733   6.483   6.621   5.977 -0.3124 -0.8810  0.8964
 8930TIP3    H226734   6.439   6.766   5.976 -0.2250 -0.8528 -1.5936
 8931TIP3   OH226735   0.738   6.933   4.821 -0.2142 -0.4161 -0.3509
 8931TIP3    H126736   0.702   6.848   4.794 -0.1235 -1.1699  1.7830
 8931TIP3    H226737   0.664   6.993   4.816 -1.3233 -1.5204  2.0599
 8932TIP3   OH226738   0.806   0.125   2.333  0.0143 -0.0079  0.0969
 8932TIP3    H126739   0.815   0.150   2.241 -0.7821 -0.6473 -0.1646
 8932TIP3    H226740   0.887   0.079   2.355 -0.1714 -0.6458 -0.5464
 8933TIP3   OH226741   2.481   0.399   2.534 -0.7088  0.2407 -0.0133
 8933TIP3    H126742   2.418   0.347   2.484 -1.0774  0.4428  0.2454
 8933TIP3    H226743   2.562   0.347   2.530 -1.8774 -1.9392  2.9485
 8934TIP3   OH226744   0.264   7.757   4.839 -0.4050 -0.4891 -0.0916
 8934TIP3    H126745   0.283   7.695   4.768 -0.0963  0.3497 -0.7571
 8934TIP3    H226746   0.168   7.759   4.843 -0.4182 -1.2540  0.1660
 8935TIP3   OH226747   8.311   0.916   3.397  0.0953 -0.5373 -0.1917
 8935TIP3    H126748   8.301   0.930   3.491  1.4592  2.7503 -0.4740
 8935TIP3    H226749   8.310   1.004   3.360 -1.1286 -1.8188 -3.3521
 8936TIP3   OH226750   5.647   6.997   5.237  0.4135 -0.3510 -0.5594
 8936TIP3    H126751   5.730   6.951   5.248  0.2701 -0.9639 -1.9299
 8936TIP3    H226752   5.657   7.047   5.156 -0.1517  0.4805 -0.1360
 8937TIP3   OH226753   6.543   6.588   3.833 -0.7113 -0.4795 -0.1112
 8937TIP3    H126754   6.638   6.593   3.820 -0.2334 -3.0386  1.7629
 8937TIP3    H226755   6.521   6.499   3.807 -2.9751  0.7188 -2.4269
 8938TIP3   OH226756   6.331   6.208   2.307 -0.2227 -0.1476  0.4268
 8938TIP3    H126757   6.351   6.273   2.374  0.1332 -0.0661  0.2434
 8938TIP3    H226758   6.246   6.234   2.272 -0.6334 -0.4667  1.1799
 8939TIP3   OH226759   6.770   6.557   2.086 -0.0498 -0.3795  0.1145
 8939TIP3    H126760   6.841   6.535   2.026 -0.9551  0.7264 -1.3751
 8939TIP3    H226761   6.765   6.481   2.145  0.0619 -2.0243 -1.9339
 8940TIP3   OH226762   6.904   5.558   2.847  0.1241 -0.0588 -0.0197
 8940TIP3    H126763   6.957   5.628   2.886  0.5466  0.0140 -0.7196
 8940TIP3    H226764   6.954   5.478   2.864  0.3715 -0.0128 -0.5041
 8941TIP3   OH226765   7.673   4.964   4.539  0.1341 -0.1482  0.3713
 8941TIP3    H126766   7.612   4.959   4.466  0.2396 -0.6910  0.3157
 8941TIP3    H226767   7.759   4.948   4.500  0.3598  1.0288  0.3827
 8942TIP3   OH226768   7.829   5.833   4.322 -0.0847 -0.7513  0.4764
 8942TIP3    H126769   7.758   5.826   4.258  1.7573  1.8961 -1.9664
 8942TIP3    H226770   7.810   5.912   4.371  0.8207 -0.3739  0.2312
 8943TIP3   OH226771   7.445   4.238   2.714  0.2517  0.3406  0.1774
 8943TIP3    H126772   7.385   4.297   2.759  1.3710  1.3814  0.3247
 8943TIP3    H226773   7.439   4.156   2.764 -0.0781  0.8319  0.9672
 8944TIP3   OH226774   5.290   5.169   2.495 -0.4509 -0.3228  0.0367
 8944TIP3    H126775   5.225   5.238   2.485 -0.8078 -0.8484 -1.3513
 8944TIP3    H226776   5.308   5.139   2.406  1.8435 -0.0614  0.3744
 8945TIP3   OH226777   5.565   5.696   3.680 -0.7517 -0.1541 -0.8637
 8945TIP3    H126778   5.564   5.670   3.772  0.2243 -0.7953 -1.0291
 8945TIP3    H226779   5.608   5.624   3.634  0.0026  0.7527 -1.6280
 8946TIP3   OH226780   6.666   4.175   2.602  0.1467  0.5811  0.2800
 8946TIP3    H126781   6.744   4.134   2.566  0.8336  1.0608  1.1978
 8946TIP3    H226782   6.632   4.229   2.531  1.3423  1.3258  0.2636
 8947TIP3   OH226783   5.194   5.987   2.520 -0.1476 -0.2645  0.2225
 8947TIP3    H126784   5.226   6.071   2.488  1.1568 -0.2719  1.4601
 8947TIP3    H226785   5.159   6.007   2.608 -0.6299 -0.8523  0.1677
 8948TIP3   OH226786   8.057   4.943   1.575  0.1262 -0.1444  0.0860
 8948TIP3    H126787   8.016   4.927   1.660  0.6572  0.9009  0.5411
 8948TIP3    H226788   8.008   5.015   1.537 -1.1313 -1.6406 -1.2064
 8949TIP3   OH226789   1.845   0.289   1.815  0.2274  0.2307  0.4117
 8949TIP3    H126790   1.800   0.373   1.809  1.6788  0.9862 -0.4421
 8949TIP3    H226791   1.795   0.230   1.758 -0.0506  0.8708 -0.0090
 8950TIP3   OH226792   1.334   0.426   2.067 -0.4629  0.0298  0.4460
 8950TIP3    H126793   1.314   0.434   1.974  0.2144  3.3607  0.5285
 8950TIP3    H226794   1.426   0.400   2.071 -0.2075  0.9103  0.2047
 8951TIP3   OH226795   6.228   4.076   1.728  0.6527 -0.3082 -0.0764
 8951TIP3    H126796   6.213   4.012   1.798  1.4741 -0.4763 -0.0517
 8951TIP3    H226797   6.191   4.035   1.650 -0.2361 -0.1389  0.2439
 8952TIP3   OH226798   7.415   5.288   5.640 -0.3204  0.4496 -0.4444
 8952TIP3    H126799   7.482   5.349   5.671  0.7040 -0.7754 -0.2300
 8952TIP3    H226800   7.448   5.202   5.663 -1.6517 -0.2156 -0.9658
 8953TIP3   OH226801   2.641   0.690   4.787 -0.3051 -0.0546 -0.1152
 8953TIP3    H126802   2.622   0.772   4.741 -0.7666 -0.2776 -0.3205
 8953TIP3    H226803   2.684   0.718   4.868 -0.5372  0.3970 -0.1442
 8954TIP3   OH226804   8.013   4.840   3.670  0.1400  0.3029 -0.1660
 8954TIP3    H126805   8.018   4.760   3.721 -1.0866  0.2118 -0.1774
 8954TIP3    H226806   8.048   4.908   3.728  1.0906 -0.2114 -0.1228
 8955TIP3   OH226807   0.326   5.192   4.426 -0.0031 -0.0106  0.0045
 8955TIP3    H126808   0.256   5.256   4.417  0.1764  0.3466  1.0128
 8955TIP3    H226809   0.289   5.110   4.394 -1.7294 -0.3802  2.7720
 8956TIP3   OH226810   0.518   5.170   4.669 -0.0809  0.2782 -0.0056
 8956TIP3    H126811   0.426   5.156   4.647  0.0941 -0.8175 -0.0901
 8956TIP3    H226812   0.530   5.123   4.751  0.4241  0.3370 -0.0447
 8957TIP3   OH226813   1.842   7.580   4.973  0.0497  0.6376  0.4554
 8957TIP3    H126814   1.848   7.495   4.930  0.1852  0.4600  0.8232
 8957TIP3    H226815   1.813   7.560   5.062  2.9723  0.6906  1.4704
 8958TIP3   OH226816   8.041   6.583   4.046 -0.2917  0.5646  0.3038
 8958TIP3    H126817   8.085   6.560   4.128 -3.9499 -1.7379  1.7493
 8958TIP3    H226818   8.095   6.544   3.978  2.1736  1.5085  1.6592
 8959TIP3   OH226819   2.172   6.954   5.231  0.1474 -0.5134 -0.3607
 8959TIP3    H126820   2.133   6.930   5.147  0.2443 -0.4139 -0.4337
 8959TIP3    H226821   2.100   6.945   5.294  0.1287 -0.7831 -0.4212
 8960TIP3   OH226822   3.907   0.651   4.992 -0.1165 -0.2250  0.1402
 8960TIP3    H126823   3.921   0.746   4.996 -1.2110 -0.0162 -0.7303
 8960TIP3    H226824   3.852   0.638   4.914 -0.9795 -1.4468  0.9283
 8961TIP3   OH226825   2.007   6.830   4.521  0.0293  0.4572  0.3373
 8961TIP3    H126826   1.994   6.906   4.578 -0.0618  0.4625  0.3102
 8961TIP3    H226827   2.073   6.857   4.458 -1.0694  1.0285 -0.5890
 8962TIP3   OH226828   8.229   7.146   3.550 -0.6257  0.0255 -0.4338
 8962TIP3    H126829   8.172   7.128   3.625  0.6316 -0.6234  0.3941
 8962TIP3    H226830   8.267   7.232   3.570 -1.1461  0.3610 -0.8795
 8963TIP3   OH226831   4.540   0.138   5.862  0.1314 -0.2488  0.0218
 8963TIP3    H126832   4.533   0.051   5.823  0.8145 -0.9651  1.4465
 8963TIP3    H226833   4.534   0.199   5.788  0.5517 -1.5294 -1.0775
 8964TIP3   OH226834   2.449   4.345   4.910  0.1565 -0.3631  0.5705
 8964TIP3    H126835   2.475   4.400   4.836 -2.7975 -0.1144 -0.3458
 8964TIP3    H226836   2.412   4.267   4.869 -1.2415 -0.3418  1.7668
 8965TIP3   OH226837   1.436   6.029   3.802 -0.8583  0.6938  0.0746
 8965TIP3    H126838   1.532   6.026   3.793 -0.6009 -2.4760  2.7345
 8965TIP3    H226839   1.404   5.980   3.726 -0.1710 -1.1532  0.9491
 8966TIP3   OH226840   1.935   6.268   6.797  0.4123  0.6875  0.9604
 8966TIP3    H126841   1.885   6.325   6.738  1.8491  0.5302 -0.4526
 8966TIP3    H226842   1.897   6.181   6.784  0.8273  0.6215  0.1114
 8967TIP3   OH226843   1.900   5.490   6.291 -0.1836 -0.2271  1.3371
 8967TIP3    H126844   1.816   5.447   6.309  0.1862 -1.3125  0.5003
 8967TIP3    H226845   1.960   5.452   6.355  0.0267 -0.5936  0.9246
 8968TIP3   OH226846   1.761   5.742   4.939 -0.0116  0.4468 -0.1796
 8968TIP3    H126847   1.807   5.799   4.877  0.2541 -0.9252 -1.2611
 8968TIP3    H226848   1.674   5.732   4.901  1.1102 -2.9719 -2.0716
 8969TIP3   OH226849   1.147   5.616   3.248  0.4587  0.5365  0.1862
 8969TIP3    H126850   1.119   5.562   3.174  0.5414 -1.2140  1.3851
 8969TIP3    H226851   1.218   5.565   3.289  0.8791  1.7977  1.0546
 8970TIP3   OH226852   8.439   5.500   6.869  0.2658  0.0429  0.1893
 8970TIP3    H126853   8.528   5.490   6.904  1.3610  3.7680 -1.3125
 8970TIP3    H226854   8.450   5.497   6.774 -1.4864 -1.1035 -0.0128
 8971TIP3   OH226855   0.117   7.689   3.391  0.7977 -0.2627 -0.2268
 8971TIP3    H126856   0.024   7.666   3.393  0.7334  0.0376  1.1096
 8971TIP3    H226857   0.119   7.780   3.420  1.5118 -0.2863 -0.2062
 8972TIP3   OH226858   2.828   5.457   4.839 -0.1990  0.2701 -0.5673
 8972TIP3    H126859   2.794   5.416   4.918  1.3777 -0.3034 -0.1891
 8972TIP3    H226860   2.749   5.474   4.786 -0.9736 -2.5204 -0.4089
 8973TIP3   OH226861   7.364   2.230   0.461 -0.0836 -0.1631 -0.0264
 8973TIP3    H126862   7.368   2.321   0.491  1.6006  0.1743 -1.1438
 8973TIP3    H226863   7.455   2.207   0.443 -0.4913 -2.0923  0.2516
 8974TIP3   OH226864   0.363   5.183   2.828 -0.1412  0.3315  0.2025
 8974TIP3    H126865   0.362   5.166   2.734 -1.4907 -0.0722  0.2815
 8974TIP3    H226866   0.370   5.278   2.836  2.7052  0.2116 -0.2779
 8975TIP3   OH226867   3.244   0.755   3.564 -0.0860  0.0606  0.0750
 8975TIP3    H126868   3.267   0.824   3.626  0.9095 -0.0048 -0.2134
 8975TIP3    H226869   3.309   0.762   3.494 -0.3983 -0.7141 -0.3042
 8976TIP3   OH226870   0.477   7.212   2.203 -0.6706  0.1774 -0.0515
 8976TIP3    H126871   0.481   7.274   2.276  1.8350  0.5457 -0.4406
 8976TIP3    H226872   0.423   7.255   2.137 -0.5642  1.0903  0.4500
 8977TIP3   OH226873   6.544   0.338   0.556  0.4487  0.2655  0.8184
 8977TIP3    H126874   6.614   0.400   0.533  0.5352  0.8334  2.5238
 8977TIP3    H226875   6.584   0.252   0.542  0.9954  0.5880  0.3462
 8978TIP3   OH226876   2.381   5.888   5.523 -0.3757 -0.5678  0.0301
 8978TIP3    H126877   2.454   5.945   5.501 -1.2039  0.6499  0.3520
 8978TIP3    H226878   2.374   5.893   5.618 -1.3718 -0.0224 -0.0577
 8979TIP3   OH226879   7.419   7.411   4.820 -0.3108  0.4229 -0.3384
 8979TIP3    H126880   7.484   7.393   4.752 -0.0629  1.3528 -0.3640
 8979TIP3    H226881   7.337   7.375   4.785 -0.1769  0.8512 -1.1179
 8980TIP3   OH226882   0.252   7.657   4.563  0.1441  0.0560 -0.3852
 8980TIP3    H126883   0.163   7.690   4.552  0.2866  0.5188 -0.1679
 8980TIP3    H226884   0.305   7.712   4.504  0.4362  0.4522  0.2459
 8981TIP3   OH226885   0.888   5.913   3.867  0.7558 -0.0525  0.4932
 8981TIP3    H126886   0.892   5.827   3.826  0.5496  1.0105 -1.8198
 8981TIP3    H226887   0.854   5.896   3.955 -1.0785 -2.1262 -0.5779
 8982TIP3   OH226888   7.942   5.576   5.840 -0.0664 -0.2841 -0.2464
 8982TIP3    H126889   7.938   5.481   5.829  0.6359 -0.4129  0.5095
 8982TIP3    H226890   7.935   5.589   5.935 -1.0685  0.4741 -0.4244
 8983TIP3   OH226891   1.695   5.850   1.816  0.7417  0.2630  0.4959
 8983TIP3    H126892   1.623   5.802   1.775 -0.0686  2.6085 -0.8966
 8983TIP3    H226893   1.720   5.795   1.891 -2.8649 -0.3421  1.3514
 8984TIP3   OH226894   1.313   5.977   3.568 -0.1009  0.1467 -0.5670
 8984TIP3    H126895   1.264   5.898   3.547  0.3588 -0.0033 -1.0888
 8984TIP3    H226896   1.264   6.048   3.525 -0.0964  0.0487 -0.7351
 8985TIP3   OH226897   1.661   6.420   2.564  0.1572 -0.1563 -0.1753
 8985TIP3    H126898   1.679   6.342   2.616  0.3382  0.5176  0.7795
 8985TIP3    H226899   1.612   6.388   2.488  1.5290 -1.4062 -0.5519
 8986TIP3   OH226900   2.843   5.241   5.586  0.2980 -0.5221 -0.3875
 8986TIP3    H126901   2.779   5.177   5.616  1.8704 -2.0369 -0.2245
 8986TIP3    H226902   2.794   5.296   5.524 -1.4623 -0.8854  0.6411
 8987TIP3   OH226903   0.526   6.333   5.447 -0.3400 -0.1893 -0.7299
 8987TIP3    H126904   0.499   6.242   5.457  0.6779 -0.6313 -1.8888
 8987TIP3    H226905   0.611   6.338   5.491  0.1152 -0.0621 -1.6156
 8988TIP3   OH226906   1.384   4.636   5.290 -0.3222 -0.3569  0.5142
 8988TIP3    H126907   1.294   4.604   5.303  0.0224 -1.9027 -0.6834
 8988TIP3    H226908   1.374   4.729   5.270 -1.5665 -0.2653  1.4960
 8989TIP3   OH226909   0.445   7.272   4.576 -0.3410  0.0089  0.4714
 8989TIP3    H126910   0.366   7.314   4.541 -0.6018 -1.2579 -0.4881
 8989TIP3    H226911   0.415   7.185   4.605  0.5406 -0.1729  0.8535
 8990TIP3   OH226912   0.917   4.636   3.093  0.6173  0.2859  0.4309
 8990TIP3    H126913   0.952   4.568   3.150  1.9232  0.5178 -0.0930
 8990TIP3    H226914   0.871   4.589   3.024  1.2913 -0.0658  0.2193
 8991TIP3   OH226915   3.724   0.565   5.619  0.3300  0.4071 -0.1866
 8991TIP3    H126916   3.764   0.612   5.546  0.9421  0.5394  0.2333
 8991TIP3    H226917   3.778   0.486   5.628  0.2671  0.4036  0.1368
 8992TIP3   OH226918   2.414   6.726   4.956 -0.1944 -0.0201 -0.0176
 8992TIP3    H126919   2.380   6.812   4.931  0.9252  0.1062 -1.1679
 8992TIP3    H226920   2.471   6.701   4.883  4.0448  0.8019  2.8415
 8993TIP3   OH226921   2.195   6.399   1.472  0.6213 -0.4074 -0.1228
 8993TIP3    H126922   2.280   6.385   1.513 -0.3030  0.9663  2.3141
 8993TIP3    H226923   2.211   6.467   1.406  1.2053  0.5874  1.0311
 8994TIP3   OH226924   0.596   6.153   3.305  0.7708 -0.1016  0.1489
 8994TIP3    H126925   0.556   6.218   3.363  0.0344 -2.1449  1.9977
 8994TIP3    H226926   0.688   6.149   3.333  1.0132  0.7193 -0.5149
 8995TIP3   OH226927   7.378   7.901   3.521  0.1630 -0.3083 -0.2648
 8995TIP3    H126928   7.417   7.959   3.586 -2.4412 -0.0250  1.1106
 8995TIP3    H226929   7.352   7.959   3.449  1.5947 -0.4036 -0.8716
 8996TIP3   OH226930   0.247   7.704   5.539 -0.0177  0.0761  0.0114
 8996TIP3    H126931   0.225   7.669   5.453  0.9651 -0.1494 -0.1486
 8996TIP3    H226932   0.342   7.698   5.544  0.2214  2.9933 -0.1573
 8997TIP3   OH226933   1.939   6.332   1.797 -0.1034 -0.4786  0.7380
 8997TIP3    H126934   1.879   6.405   1.814  0.6572 -0.4609  3.6296
 8997TIP3    H226935   1.887   6.254   1.816 -0.1130 -0.5921  0.2499
 8998TIP3   OH226936   4.323   0.386   5.123  0.5449 -0.4353  0.2143
 8998TIP3    H126937   4.264   0.334   5.176  0.8649 -1.3460 -0.3041
 8998TIP3    H226938   4.268   0.453   5.083 -0.2670 -1.6908 -0.8028
 8999TIP3   OH226939   4.296   2.029   5.089 -0.4142  0.4499  0.0559
 8999TIP3    H126940   4.274   2.076   5.008 -3.6822 -0.9502  0.0646
 8999TIP3    H226941   4.329   1.945   5.059 -2.4541 -0.4070  0.1520
 9000TIP3   OH226942   0.182   6.635   4.055  0.0961 -0.2105 -0.4963
 9000TIP3    H126943   0.111   6.608   3.997 -0.1610  3.7517 -2.2174
 9000TIP3    H226944   0.140   6.653   4.139 -0.2637 -1.6643 -0.3555
 9001TIP3   OH226945   5.205   4.933   1.811 -1.1865  0.2536  0.8720
 9001TIP3    H126946   5.289   4.925   1.765 -1.6119 -0.3422  0.1957
 9001TIP3    H226947   5.173   5.020   1.788 -1.1111  0.1885  0.5203
 9002TIP3   OH226948   2.182   7.570   4.531 -0.3340 -0.5866 -0.2768
 9002TIP3    H126949   2.216   7.534   4.450  3.7137  3.5840 -0.6633
 9002TIP3    H226950   2.238   7.533   4.599  1.1227  1.5631 -0.2542
 9003TIP3   OH226951   1.015   7.346   1.947  0.4933 -0.2726 -0.1816
 9003TIP3    H126952   1.104   7.344   1.912 -0.2865  0.1228 -2.2477
 9003TIP3    H226953   0.959   7.349   1.870 -1.3244 -0.5839  1.1006
 9004TIP3   OH226954   0.908   6.667   4.890 -0.0578  0.1662  0.1771
 9004TIP3    H126955   0.968   6.670   4.815 -2.2441 -2.6702 -1.8108
 9004TIP3    H226956   0.823   6.694   4.854 -1.4440 -2.5753  1.2579
 9005TIP3   OH226957   1.367   6.987   3.466 -0.0320 -0.0179 -0.0023
 9005TIP3    H126958   1.415   7.005   3.385  1.0742  0.5182  0.7504
 9005TIP3    H226959   1.363   7.072   3.511  1.9044 -0.8448  1.8263
 9006TIP3   OH226960   2.849   7.717   4.100  0.3734 -0.1603 -0.2830
 9006TIP3    H126961   2.866   7.772   4.023  0.3172 -0.1312 -0.2747
 9006TIP3    H226962   2.933   7.675   4.118  0.3036 -0.4283 -0.5652
 9007TIP3   OH226963   2.103   6.244   4.244  0.4259  0.2276 -0.2290
 9007TIP3    H126964   2.108   6.286   4.330 -1.8352  0.5400 -0.2216
 9007TIP3    H226965   2.182   6.272   4.199  2.2360 -0.8959  2.1653
 9008TIP3   OH226966   6.079   4.119   6.131  0.1661  0.3049 -0.1750
 9008TIP3    H126967   6.162   4.076   6.149  0.3739  0.4509 -0.7640
 9008TIP3    H226968   6.050   4.081   6.048 -0.2788  0.3682 -0.0508
 9009TIP3   OH226969   8.400   7.607   3.186  0.5420  0.8416 -0.2615
 9009TIP3    H126970   8.407   7.640   3.096 -0.2270 -0.4378 -0.7934
 9009TIP3    H226971   8.435   7.519   3.182 -0.2438  0.4919  0.5325
 9010TIP3   OH226972   2.015   5.972   3.069  0.3963  0.3685 -0.1327
 9010TIP3    H126973   1.934   6.020   3.089  0.7232  0.4059  1.1011
 9010TIP3    H226974   1.988   5.881   3.063  0.3851  0.2846  1.0546
 9011TIP3   OH226975   3.711   6.838   3.215  0.6136  0.1436 -0.2862
 9011TIP3    H126976   3.623   6.800   3.210  0.4894  0.5665 -1.6755
 9011TIP3    H226977   3.702   6.912   3.275  0.0817  0.0008 -0.1906
 9012TIP3   OH226978   6.269   1.244   6.257  0.1927 -0.0745 -0.0860
 9012TIP3    H126979   6.181   1.216   6.284  0.1829 -0.9596 -1.0082
 9012TIP3    H226980   6.295   1.181   6.190  1.1295  0.7759 -0.5381
 9013TIP3   OH226981   3.348   0.276   5.471 -0.1343 -0.3908 -0.3076
 9013TIP3    H126982   3.417   0.253   5.409  0.4884 -0.9440  0.5901
 9013TIP3    H226983   3.371   0.364   5.502 -0.2233 -0.2843 -0.5390
 9014TIP3   OH226984   3.274   7.493   5.033 -0.1673 -0.6202 -0.2577
 9014TIP3    H126985   3.225   7.415   5.006  1.2222 -1.2581 -1.0041
 9014TIP3    H226986   3.306   7.529   4.950  0.6596 -0.2408  0.2331
 9015TIP3   OH226987   3.944   7.890   3.560  0.0107 -0.3010 -0.6411
 9015TIP3    H126988   4.010   7.953   3.590 -1.1687  1.6280 -1.9841
 9015TIP3    H226989   3.884   7.881   3.634 -1.0041  1.8419 -1.1561
 9016TIP3   OH226990   5.263   0.644   2.274  0.4817  0.4384 -0.0635
 9016TIP3    H126991   5.253   0.701   2.198 -2.1753  1.4512  0.9925
 9016TIP3    H226992   5.190   0.582   2.269  0.6703  0.0813  1.2807
 9017TIP3   OH226993   6.629   0.511   5.686 -0.2075 -0.3159 -0.1516
 9017TIP3    H126994   6.580   0.564   5.623  0.0492  0.4461  0.2701
 9017TIP3    H226995   6.596   0.539   5.771 -0.0571 -0.8307  0.0785
 9018TIP3   OH226996   1.056   7.514   4.168  0.2370  0.5657  0.5941
 9018TIP3    H126997   1.098   7.514   4.254  0.5800  1.3625  0.4333
 9018TIP3    H226998   1.122   7.550   4.109  0.2969 -0.7565 -0.1535
 9019TIP3   OH226999   1.143   5.431   2.774  0.4999  0.1932  0.4506
 9019TIP3    H127000   1.194   5.350   2.773  0.5784  0.2454  0.2768
 9019TIP3    H227001   1.080   5.421   2.703  1.7109  1.0578 -0.7842
 9020TIP3   OH227002   4.709   0.818   2.794 -0.4520 -0.2188  0.3978
 9020TIP3    H127003   4.753   0.791   2.874 -2.4122 -0.5294  1.3958
 9020TIP3    H227004   4.741   0.906   2.777  1.0114 -0.6668  0.7431
 9021TIP3   OH227005   5.356   0.071   2.278  0.3101  0.0764 -0.3816
 9021TIP3    H127006   5.436   0.120   2.260  1.2798 -1.5508 -0.6136
 9021TIP3    H227007   5.299   0.087   2.202  0.5397  0.9564 -0.3733
 9022TIP3   OH227008   3.385   7.994   5.060  0.0851 -0.0069 -0.3568
 9022TIP3    H127009   3.404   8.019   4.970  0.2040  0.9360 -0.0810
 9022TIP3    H227010   3.369   7.900   5.057  0.2117  0.0039 -1.3389
 9023TIP3   OH227011   0.582   5.421   4.763  0.2871  0.2792  0.1806
 9023TIP3    H127012   0.487   5.426   4.759  0.2438 -0.8098 -0.2626
 9023TIP3    H227013   0.605   5.351   4.701  1.3198  0.1288  0.7276
 9024TIP3   OH227014   1.915   7.163   2.267  0.4303 -0.4062 -0.3348
 9024TIP3    H127015   1.997   7.210   2.285  0.8206 -1.2503  0.0993
 9024TIP3    H227016   1.939   7.100   2.199 -0.1901  0.2816 -1.2162
 9025TIP3   OH227017   8.145   7.643   5.183 -0.1762  0.0962 -0.3849
 9025TIP3    H127018   8.214   7.627   5.118 -0.3035  1.2276 -0.8070
 9025TIP3    H227019   8.136   7.738   5.186 -0.5254  0.0421  0.9326
 9026TIP3   OH227020   5.616   1.623   4.875 -0.1535 -0.0409 -0.6136
 9026TIP3    H127021   5.694   1.567   4.877  0.4973  0.8212 -1.2954
 9026TIP3    H227022   5.650   1.709   4.850 -1.3175  0.3607 -0.8119
 9027TIP3   OH227023   2.398   7.261   3.290  0.3037 -0.0298  0.3786
 9027TIP3    H127024   2.362   7.189   3.237  0.2287  0.6660 -0.5261
 9027TIP3    H227025   2.339   7.334   3.273  1.0567  0.5801  0.3745
 9028TIP3   OH227026   5.631   0.607   2.565  0.5374 -0.4760  0.4787
 9028TIP3    H127027   5.625   0.536   2.501 -0.6922  0.2942 -0.2900
 9028TIP3    H227028   5.568   0.582   2.634 -0.1850  0.0522  0.0152
 9029TIP3   OH227029   7.581   6.689   4.011 -0.0282 -0.3906  0.1795
 9029TIP3    H127030   7.675   6.698   3.999 -0.2279 -0.8843 -1.8554
 9029TIP3    H227031   7.570   6.605   4.055  0.3830 -1.2010 -1.2433
 9030TIP3   OH227032   0.123   6.191   3.232 -0.4231 -0.4992  0.2634
 9030TIP3    H127033   0.071   6.200   3.152 -0.6152 -0.9644  0.3304
 9030TIP3    H227034   0.078   6.247   3.296 -0.8555 -0.9054  0.3234
 9031TIP3   OH227035   2.496   1.722   6.178 -0.1892 -0.3518 -0.5616
 9031TIP3    H127036   2.514   1.628   6.184 -1.3817 -0.4314  2.7827
 9031TIP3    H227037   2.550   1.761   6.246 -1.3868  1.1227 -0.4285
 9032TIP3   OH227038   6.441   0.132   5.281 -0.1697  0.0310  0.1209
 9032TIP3    H127039   6.452   0.048   5.235  0.0307 -0.2250  0.6402
 9032TIP3    H227040   6.350   0.157   5.263  0.1721  0.3814 -1.1788
 9033TIP3   OH227041   7.744   6.746   4.454  0.0009  0.3927  0.1329
 9033TIP3    H127042   7.773   6.664   4.415 -0.0397 -0.0915  1.1056
 9033TIP3    H227043   7.809   6.764   4.523  0.6236  1.7276 -0.7738
 9034TIP3   OH227044   0.732   7.204   5.301  0.0569  0.2030  0.5848
 9034TIP3    H127045   0.761   7.145   5.231  1.2227  0.1157  1.1340
 9034TIP3    H227046   0.649   7.240   5.269  0.9452  0.7238 -1.1792
 9035TIP3   OH227047   1.782   6.831   3.617 -0.2997  0.1886 -0.2616
 9035TIP3    H127048   1.714   6.896   3.633 -2.1388 -1.8129  0.2754
 9035TIP3    H227049   1.751   6.781   3.541  0.5280 -0.7807  0.0196
 9036TIP3   OH227050   2.295   7.570   3.284 -0.3328  0.3686  0.0488
 9036TIP3    H127051   2.269   7.574   3.192 -1.6808 -0.5270  0.3847
 9036TIP3    H227052   2.231   7.625   3.330  0.3456  0.8257  0.4604
 9037TIP3   OH227053   2.261   6.534   1.755 -0.6684 -0.0875  0.5677
 9037TIP3    H127054   2.324   6.593   1.714 -1.1911 -0.7208 -1.1979
 9037TIP3    H227055   2.180   6.548   1.706 -1.5721 -0.2259  1.9767
 9038TIP3   OH227056   2.846   7.782   0.501  0.0232  0.1307 -0.5834
 9038TIP3    H127057   2.819   7.807   0.412 -0.4067  1.0450 -0.2063
 9038TIP3    H227058   2.897   7.702   0.489 -1.6753 -0.8559 -1.4649
 9039TIP3   OH227059   1.061   6.117   3.888  0.1555  0.3683  0.1234
 9039TIP3    H127060   1.003   6.050   3.852 -0.0895 -0.9786  2.9178
 9039TIP3    H227061   1.035   6.198   3.844 -1.2367 -0.8941 -1.4397
 9040TIP3   OH227062   4.467   1.056   4.144 -0.1046 -0.3704 -0.3828
 9040TIP3    H127063   4.540   1.095   4.192 -1.2395  0.3260  0.8248
 9040TIP3    H227064   4.468   1.099   4.058  1.2046 -0.7348 -0.5540
 9041TIP3   OH227065   1.193   6.346   3.005 -0.3844 -0.3350 -0.0035
 9041TIP3    H127066   1.198   6.391   3.089  3.0008  1.1718 -0.9531
 9041TIP3    H227067   1.246   6.267   3.017  0.3262  0.0201 -0.8083
 9042TIP3   OH227068   5.363   0.202   5.062  0.5979 -0.5214 -0.3269
 9042TIP3    H127069   5.413   0.284   5.066 -0.2994 -0.0014  0.6335
 9042TIP3    H227070   5.348   0.187   4.969 -0.0346  0.9108 -0.4690
 9043TIP3   OH227071   1.973   7.207   3.698 -0.7225  0.0858  0.6008
 9043TIP3    H127072   1.971   7.301   3.681  0.2782 -0.1981 -1.1888
 9043TIP3    H227073   2.042   7.173   3.640 -2.5393 -2.0484 -0.4082
 9044TIP3   OH227074   2.406   7.333   4.079  0.0614  0.1785 -0.0449
 9044TIP3    H127075   2.426   7.254   4.029 -0.0541  0.5495 -0.6895
 9044TIP3    H227076   2.364   7.391   4.016  0.4007  0.8642  0.3546
 9045TIP3   OH227077   8.200   7.032   0.404 -0.4464 -0.2501  0.2896
 9045TIP3    H127078   8.261   7.104   0.411 -1.0231  0.1118  1.7351
 9045TIP3    H227079   8.245   6.967   0.351  1.0289  0.1640  1.0256
 9046TIP3   OH227080   1.966   0.774   5.281  0.0261 -0.1282  0.3253
 9046TIP3    H127081   1.889   0.830   5.274  0.4893  0.5284  0.3745
 9046TIP3    H227082   2.026   0.808   5.214 -0.0246 -1.1092 -0.2171
 9047TIP3   OH227083   1.762   3.928   2.495  0.7326  0.4085 -0.2909
 9047TIP3    H127084   1.760   4.006   2.440 -0.8800  0.7531  0.2343
 9047TIP3    H227085   1.831   3.946   2.559  0.8284  1.1097 -0.5808
 9048TIP3   OH227086   2.309   6.515   3.289 -0.2465 -0.1579 -0.0592
 9048TIP3    H127087   2.370   6.476   3.352  0.3763  0.1092 -0.4901
 9048TIP3    H227088   2.349   6.598   3.265 -2.2137  1.3971  1.8492
 9049TIP3   OH227089   5.631   1.030   4.962 -0.0739  0.2527 -0.4715
 9049TIP3    H127090   5.619   1.053   5.054 -2.5737 -0.7828 -0.4894
 9049TIP3    H227091   5.725   1.039   4.947  0.1971  1.7447  1.8119
 9050TIP3   OH227092   4.667   1.122   4.325 -0.1444  0.3910  0.0825
 9050TIP3    H127093   4.732   1.167   4.379 -0.6970  0.3903  0.7723
 9050TIP3    H227094   4.605   1.086   4.389 -2.3926  2.8152 -0.6283
 9051TIP3   OH227095   0.347   7.721   0.556 -0.1373  0.4250  0.3406
 9051TIP3    H127096   0.368   7.717   0.463  0.4564  0.9457  0.4512
 9051TIP3    H227097   0.420   7.677   0.599  0.1123  1.1310  0.6367
 9052TIP3   OH227098   2.869   7.949   2.871  0.0522  0.1817  0.3676
 9052TIP3    H127099   2.880   7.956   2.965 -3.8054  0.7420  0.8479
 9052TIP3    H227100   2.848   7.856   2.856  1.2057 -0.0209 -0.0013
 9053TIP3   OH227101   6.533   3.319   6.732  0.3549  0.8641 -0.5183
 9053TIP3    H127102   6.496   3.233   6.754 -0.9039  1.5985  0.2866
 9053TIP3    H227103   6.543   3.363   6.817  1.7897  1.2038 -0.8475
 9054TIP3   OH227104   1.592   6.192   5.322 -0.3463  0.0554 -0.1864
 9054TIP3    H127105   1.593   6.119   5.384  2.8639 -0.0542 -0.2877
 9054TIP3    H227106   1.604   6.151   5.236  0.8040  0.6294 -0.3079
 9055TIP3   OH227107   4.519   2.076   2.977 -0.6156 -0.3430 -0.3640
 9055TIP3    H127108   4.517   2.161   2.932  0.4872 -0.7210 -1.1345
 9055TIP3    H227109   4.611   2.051   2.979 -0.7206 -0.6707  1.5150
 9056TIP3   OH227110   7.279   7.452   4.189  0.2464 -0.2549  0.0515
 9056TIP3    H127111   7.375   7.459   4.190  0.1335  1.6856 -0.0364
 9056TIP3    H227112   7.260   7.403   4.110  1.1980 -1.1472  0.3639
 9057TIP3   OH227113   0.527   7.674   5.562 -0.1328 -0.0276  0.1273
 9057TIP3    H127114   0.552   7.618   5.488 -0.3698 -0.4872  0.3951
 9057TIP3    H227115   0.506   7.613   5.632 -2.0502  0.3357 -0.0939
 9058TIP3   OH227116   2.864   7.681   5.984 -0.3716 -0.4548  0.0450
 9058TIP3    H127117   2.859   7.720   5.896  1.2303 -0.5451 -0.1098
 9058TIP3    H227118   2.787   7.624   5.989 -1.4464  0.8930 -0.6216
 9059TIP3   OH227119   5.174   1.404   3.774  0.0916 -0.5764  0.0663
 9059TIP3    H127120   5.267   1.383   3.784  0.4745  0.5234 -0.9775
 9059TIP3    H227121   5.145   1.426   3.862  0.2138 -3.2286  0.8056
 9060TIP3   OH227122   2.423   7.429   2.863 -0.2360  0.0536  0.1080
 9060TIP3    H127123   2.485   7.448   2.792  1.4561 -0.5377  1.3951
 9060TIP3    H227124   2.447   7.491   2.932 -0.1333 -1.1646  1.1736
 9061TIP3   OH227125   4.663   0.978   3.257  0.4181 -0.0068  0.2827
 9061TIP3    H127126   4.674   0.947   3.347  1.8892 -2.2681 -0.6086
 9061TIP3    H227127   4.668   0.898   3.204 -1.5630  1.1672 -1.7283
 9062TIP3   OH227128   2.099   7.931   3.783  0.7640  0.0069 -0.4910
 9062TIP3    H127129   2.006   7.933   3.760  0.7600 -1.1549 -0.6363
 9062TIP3    H227130   2.134   8.014   3.752 -0.5181  1.0539  0.8208
 9063TIP3   OH227131   0.952   5.431   2.574  0.2356  0.3670 -0.1026
 9063TIP3    H127132   0.929   5.492   2.643  0.6536  0.5926 -0.1598
 9063TIP3    H227133   0.878   5.434   2.513 -0.2632 -0.0582  0.4850
 9064TIP3   OH227134   5.649   0.264   2.258  0.5862 -0.3151 -0.2117
 9064TIP3    H127135   5.681   0.224   2.339 -0.8367 -2.6385 -0.7299
 9064TIP3    H227136   5.616   0.350   2.284  1.1178 -0.6097  1.4795
 9065TIP3   OH227137   1.872   7.539   3.958 -0.2798 -0.2669  0.5034
 9065TIP3    H127138   1.903   7.558   3.870 -0.9292  0.7639  0.4920
 9065TIP3    H227139   1.951   7.523   4.009  0.2519  1.8735  0.3666
 9066TIP3   OH227140   0.132   6.907   4.799  0.2576  0.0007  0.5383
 9066TIP3    H127141   0.093   6.945   4.720 -0.1507  1.6547  1.5083
 9066TIP3    H227142   0.060   6.902   4.861  1.0474  0.7542  1.5254
 9067TIP3   OH227143   3.257   7.314   2.445 -0.4731 -0.4067  0.3418
 9067TIP3    H127144   3.202   7.308   2.523  0.3503 -1.2064  0.8735
 9067TIP3    H227145   3.252   7.228   2.404  2.3437 -1.3100  1.7742
 9068TIP3   OH227146   2.267   6.156   3.459  0.1167 -0.3633  0.3756
 9068TIP3    H127147   2.261   6.196   3.546 -0.7668 -2.4409  1.2988
 9068TIP3    H227148   2.182   6.173   3.420  0.9544  1.6911 -0.6073
 9069TIP3   OH227149   0.093   4.789   4.787  0.2022 -0.5163 -0.6422
 9069TIP3    H127150   0.000   4.811   4.784  0.6707  2.1868  1.6882
 9069TIP3    H227151   0.096   4.694   4.792 -2.5872 -0.5418  1.8556
 9070TIP3   OH227152   2.019   7.797   2.719  0.1720 -0.5086 -0.1786
 9070TIP3    H127153   2.007   7.803   2.624  1.0860 -1.3560 -0.3699
 9070TIP3    H227154   2.064   7.713   2.731  0.2963 -0.2788  0.9814
 9071TIP3   OH227155   2.541   7.635   4.026 -0.3183 -0.2063 -0.1160
 9071TIP3    H127156   2.575   7.702   3.965 -1.0659  1.2946  1.0841
 9071TIP3    H227157   2.590   7.556   4.004  0.5392  0.7142 -1.6216
 9072TIP3   OH227158   2.253   6.965   5.565 -0.3215  0.2591  0.1325
 9072TIP3    H127159   2.333   6.955   5.513 -1.0675  0.8088 -1.1557
 9072TIP3    H227160   2.280   7.019   5.640  0.4420  0.7466 -0.4772
 9073TIP3   OH227161   1.938   7.605   3.711  0.1960 -0.2700 -0.0355
 9073TIP3    H127162   1.904   7.693   3.702  0.1144 -0.3696 -0.7840
 9073TIP3    H227163   1.923   7.565   3.625 -0.0973 -1.1236  0.4106
 9074TIP3   OH227164   4.791   1.008   1.907 -0.0895 -0.4228  0.4157
 9074TIP3    H127165   4.735   1.086   1.911 -1.4570 -1.4238  1.1937
 9074TIP3    H227166   4.730   0.935   1.894  1.1036 -1.4609  0.4754
 9075TIP3   OH227167   5.107   0.410   3.765 -0.1239  0.0330 -0.2042
 9075TIP3    H127168   5.139   0.320   3.772 -0.4617 -0.1122 -0.5104
 9075TIP3    H227169   5.165   0.460   3.822  0.2702 -0.3283 -0.2801
 9076TIP3   OH227170   1.296   6.240   3.898  0.2873  0.5202  0.0319
 9076TIP3    H127171   1.213   6.194   3.889 -0.9443  2.6241  0.3988
 9076TIP3    H227172   1.362   6.177   3.869 -1.4228 -1.1935 -0.1728
 9077TIP3   OH227173   6.069   0.379   5.218  0.0148  0.0820  0.0934
 9077TIP3    H127174   6.004   0.432   5.264 -2.6320  0.4869 -3.8559
 9077TIP3    H227175   6.109   0.440   5.156 -0.2819 -1.6053 -1.7996
 9078TIP3   OH227176   2.364   7.386   1.430  0.1372  0.3757 -0.0496
 9078TIP3    H127177   2.394   7.302   1.396  0.6025  0.6902 -0.4200
 9078TIP3    H227178   2.426   7.449   1.395 -0.6955  0.9788 -0.4592
 9079TIP3   OH227179   1.470   5.949   2.251  0.0701 -0.4217  0.0905
 9079TIP3    H127180   1.486   5.858   2.278 -1.2052 -0.3987  0.9285
 9079TIP3    H227181   1.411   5.941   2.176  0.6210 -0.3123 -0.3609
 9080TIP3   OH227182   0.746   4.192   2.753  0.1408  0.4128 -0.2186
 9080TIP3    H127183   0.762   4.104   2.720 -2.5122  0.0610 -0.6622
 9080TIP3    H227184   0.814   4.206   2.819  0.3346 -2.1264  0.1502
 9081TIP3   OH227185   0.221   5.897   3.543  0.3068 -0.7814  0.4712
 9081TIP3    H127186   0.275   5.818   3.550 -0.9667 -1.8990 -1.6183
 9081TIP3    H227187   0.243   5.932   3.456 -1.0303 -0.2846  0.3255
 9082TIP3   OH227188   1.285   5.163   4.043 -0.5348 -0.4607  0.2185
 9082TIP3    H127189   1.209   5.194   3.994 -0.4790 -2.4584 -1.1896
 9082TIP3    H227190   1.359   5.213   4.008 -0.9721  0.3945  0.5128
 9083TIP3   OH227191   5.394   0.856   3.217  0.4672  0.3814  0.1133
 9083TIP3    H127192   5.368   0.782   3.162  0.5699  0.0524  0.5096
 9083TIP3    H227193   5.313   0.907   3.227  0.8852  1.4700 -1.9234
 9084TIP3   OH227194   1.515   5.766   3.552  0.3512 -0.2386 -0.0571
 9084TIP3    H127195   1.478   5.854   3.554 -0.0196 -0.4174  1.3760
 9084TIP3    H227196   1.473   5.721   3.624  0.4837 -1.6286 -0.8320
 9085TIP3   OH227197   0.925   7.291   4.318 -0.3134  0.1703 -0.7074
 9085TIP3    H127198   0.852   7.344   4.348 -0.2933  0.2640 -0.8242
 9085TIP3    H227199   0.989   7.353   4.283  1.5248  0.4179  2.9002
 9086TIP3   OH227200   1.399   5.473   5.666 -0.0521  0.0766  0.3762
 9086TIP3    H127201   1.390   5.559   5.706 -1.6614  0.1451 -0.0759
 9086TIP3    H227202   1.325   5.467   5.606  0.6563 -1.1958 -0.3901
 9087TIP3   OH227203   1.023   4.711   3.462 -0.2803  0.0658  0.3411
 9087TIP3    H127204   0.959   4.781   3.475 -0.0596 -0.1383  2.7893
 9087TIP3    H227205   0.971   4.633   3.443 -0.6107  0.5412 -0.6913
 9088TIP3   OH227206   0.370   5.239   6.865 -0.1683 -0.8009  0.1683
 9088TIP3    H127207   0.427   5.175   6.908  0.3335 -0.5827 -0.1750
 9088TIP3    H227208   0.428   5.291   6.811 -0.4973  0.3496  0.9046
 9089TIP3   OH227209   1.955   7.448   4.584 -0.7559  0.5861  0.1842
 9089TIP3    H127210   1.877   7.482   4.540 -0.0901  0.6151 -0.9745
 9089TIP3    H227211   2.024   7.511   4.563  0.0174 -0.4292 -0.3257
 9090TIP3   OH227212   0.663   6.906   3.078 -0.4534  0.2123  0.1384
 9090TIP3    H127213   0.591   6.877   3.022 -0.4019  0.7061 -0.1827
 9090TIP3    H227214   0.622   6.962   3.144 -0.4357  0.0686  0.2735
 9091TIP3   OH227215   0.813   8.028   2.239  0.3798 -0.2823 -0.2783
 9091TIP3    H127216   0.869   8.060   2.310  0.0453  0.7829 -0.4902
 9091TIP3    H227217   0.836   7.935   2.230  0.7535 -0.3057  0.9058
 9092TIP3   OH227218   3.914   0.536   3.600 -0.2350  0.1508  0.6974
 9092TIP3    H127219   3.993   0.487   3.622  0.2825  0.2408 -0.8941
 9092TIP3    H227220   3.863   0.537   3.681  0.5113 -1.5572  1.2064
 9093TIP3   OH227221   0.804   5.755   5.803  0.1405  0.0945  0.2867
 9093TIP3    H127222   0.735   5.821   5.803  1.3876  1.4310 -0.2775
 9093TIP3    H227223   0.870   5.789   5.864  1.2381 -0.1440 -0.7523
 9094TIP3   OH227224   3.802   0.490   4.173  0.3901 -0.4932  0.9364
 9094TIP3    H127225   3.824   0.582   4.183 -0.7755 -0.1201  0.2015
 9094TIP3    H227226   3.758   0.466   4.254  3.2718 -1.2161  2.3736
 9095TIP3   OH227227   5.042   0.417   4.363 -0.4214  0.3027  0.0980
 9095TIP3    H127228   4.973   0.481   4.346 -2.1372 -2.1295 -2.4657
 9095TIP3    H227229   5.007   0.361   4.432  0.0655  0.5591  0.5672
 9096TIP3   OH227230   8.417   6.746   3.013  0.3548 -0.0280  0.0694
 9096TIP3    H127231   8.383   6.675   2.959  2.0018  1.3651 -2.9525
 9096TIP3    H227232   8.401   6.825   2.961  2.7967  1.2887  1.2190
 9097TIP3   OH227233   0.355   7.236   3.908 -0.5928  0.5485  0.2354
 9097TIP3    H127234   0.311   7.246   3.824  1.0635  1.8867 -0.5070
 9097TIP3    H227235   0.400   7.320   3.922 -0.5764  0.2224  2.2916
 9098TIP3   OH227236   5.744   1.525   3.973  0.1022 -0.1972  0.3208
 9098TIP3    H127237   5.731   1.517   3.879  0.1304  0.9148  0.2175
 9098TIP3    H227238   5.793   1.606   3.984  0.5600 -0.5889  1.2591
 9099TIP3   OH227239   5.578   2.259   4.129 -0.5748  0.5058  0.5211
 9099TIP3    H127240   5.577   2.285   4.037 -0.7277  0.8427  0.6164
 9099TIP3    H227241   5.487   2.236   4.148  0.0852 -3.3051 -0.4556
 9100TIP3   OH227242   0.449   6.289   3.705 -0.8122  0.0754  0.0304
 9100TIP3    H127243   0.505   6.352   3.750  0.0047 -1.4809  1.2303
 9100TIP3    H227244   0.474   6.297   3.613  0.6533  0.1332  0.4180
 9101TIP3   OH227245   1.087   6.632   5.220  0.1201 -0.4813 -0.4152
 9101TIP3    H127246   1.078   6.720   5.184 -1.2383 -0.6416 -0.5019
 9101TIP3    H227247   1.115   6.579   5.146 -0.4007 -0.3776 -0.6889
 9102TIP3   OH227248   1.188   7.895   3.490 -0.6586  0.5726 -0.1957
 9102TIP3    H127249   1.207   7.820   3.433 -0.2630 -0.4624  1.2678
 9102TIP3    H227250   1.110   7.869   3.538 -0.7017  1.2365  0.0907
 9103TIP3   OH227251   5.654   0.621   4.713 -0.2046  0.1268 -0.1096
 9103TIP3    H127252   5.579   0.667   4.677  1.2967  1.9340 -1.0155
 9103TIP3    H227253   5.727   0.646   4.656  0.9263 -2.3171  0.1865
 9104TIP3   OH227254   1.448   7.206   4.329 -0.4305  0.0230 -0.2221
 9104TIP3    H127255   1.438   7.287   4.279 -1.6929 -0.0696 -0.1464
 9104TIP3    H227256   1.504   7.151   4.275  1.0603  1.2263  0.0792
 9105TIP3   OH227257   8.240   6.981   4.367 -0.7992 -0.3351 -0.1941
 9105TIP3    H127258   8.244   7.030   4.449  1.9520  1.6202 -1.4027
 9105TIP3    H227259   8.153   7.001   4.331 -0.9367  1.0956  0.8900
 9106TIP3   OH227260   5.341   0.322   4.420 -0.1104 -0.2710 -0.5570
 9106TIP3    H127261   5.359   0.364   4.336 -0.6271  0.3626 -0.3655
 9106TIP3    H227262   5.250   0.346   4.439  0.6424  1.3948  1.1762
 9107TIP3   OH227263   8.295   5.273   6.137 -0.7747  0.5847  0.1829
 9107TIP3    H127264   8.335   5.190   6.160  0.2713  0.1864 -2.8829
 9107TIP3    H227265   8.277   5.315   6.221  0.4076 -1.9042  1.7306
 9108TIP3   OH227266   6.614   0.893   6.287 -0.5257 -0.8243 -0.1064
 9108TIP3    H127267   6.701   0.932   6.282 -0.7591 -0.3592 -0.5488
 9108TIP3    H227268   6.615   0.845   6.370 -0.6021  1.0446  1.0138
 9109TIP3   OH227269   4.329   6.690   5.707 -0.4064 -0.3320  0.2614
 9109TIP3    H127270   4.388   6.684   5.782  0.1336  1.4374 -0.0210
 9109TIP3    H227271   4.323   6.783   5.688 -0.5930 -0.7636 -1.8778
 9110TIP3   OH227272   0.362   4.598   6.146 -0.1361 -0.2580 -0.1103
 9110TIP3    H127273   0.333   4.689   6.154 -0.0147 -0.0866 -1.4946
 9110TIP3    H227274   0.295   4.556   6.093  0.7225 -0.5458 -0.9772
 9111TIP3   OH227275   1.089   7.015   4.712  0.2513 -0.0414  0.3262
 9111TIP3    H127276   1.118   7.078   4.645  1.3343  0.8537  1.6189
 9111TIP3    H227277   1.124   6.931   4.681  0.5209  0.3163 -0.3700
 9112TIP3   OH227278   1.715   7.758   4.802 -0.6987  0.6430  0.3544
 9112TIP3    H127279   1.788   7.811   4.772 -0.7353  1.7266  2.1191
 9112TIP3    H227280   1.755   7.683   4.846 -0.6561 -0.0893 -0.9063
 9113TIP3   OH227281   1.506   7.554   2.123  0.4116 -0.0061  0.0159
 9113TIP3    H127282   1.580   7.519   2.174 -1.0802 -1.8267  1.0043
 9113TIP3    H227283   1.443   7.582   2.190 -0.6859 -0.4695 -0.8201
 9114TIP3   OH227284   1.549   7.113   0.378  1.1804  0.0070  0.4047
 9114TIP3    H127285   1.626   7.092   0.326  0.5824  0.3073 -0.6268
 9114TIP3    H227286   1.516   7.195   0.340 -0.9903 -1.3371 -0.7215
 9115TIP3   OH227287   5.132   0.055   2.581  0.0190  0.0363  0.0253
 9115TIP3    H127288   5.191   0.032   2.653  1.3228  0.4628 -0.8822
 9115TIP3    H227289   5.047   0.067   2.622  0.4007 -1.3333  1.2579
 9116TIP3   OH227290   3.210   7.742   2.574 -0.0286 -0.4071  0.1539
 9116TIP3    H127291   3.213   7.787   2.658 -1.5772  0.2910 -0.1512
 9116TIP3    H227292   3.174   7.807   2.513 -1.1330 -1.6614 -0.5458
 9117TIP3   OH227293   2.268   6.877   3.338 -0.2453  0.1426  0.2427
 9117TIP3    H127294   2.220   6.795   3.328  1.9477 -1.4106  1.8413
 9117TIP3    H227295   2.236   6.932   3.267 -1.4056 -2.2629 -1.1826
 9118TIP3   OH227296   0.845   6.813   4.548 -0.2324  0.3668  0.0948
 9118TIP3    H127297   0.909   6.752   4.586 -2.0821 -0.4653  1.9950
 9118TIP3    H227298   0.854   6.893   4.600  0.5611  0.9258 -0.8786
 9119TIP3   OH227299   1.964   7.289   6.281 -0.3731  0.2678 -0.0823
 9119TIP3    H127300   1.891   7.315   6.338 -0.0653  0.1033  0.3881
 9119TIP3    H227301   2.042   7.314   6.329 -0.1008 -0.2717 -0.2424
 9120TIP3   OH227302   2.134   6.565   4.495 -0.5028 -0.4727  0.1387
 9120TIP3    H127303   2.081   6.644   4.507  0.2059 -0.3136  2.4057
 9120TIP3    H227304   2.070   6.495   4.484 -1.1366  0.2672 -1.0563
 9121TIP3   OH227305   2.319   6.979   4.882  0.3041  0.0806 -0.0860
 9121TIP3    H127306   2.245   6.988   4.821  0.3921  0.9030 -0.0865
 9121TIP3    H227307   2.352   7.069   4.892  0.3130 -0.0442  1.1428
 9122TIP3   OH227308   5.058   5.498   3.637 -1.1029  0.3365  0.2711
 9122TIP3    H127309   5.104   5.464   3.714  1.3808  1.0192 -0.8690
 9122TIP3    H227310   4.990   5.432   3.619 -0.7027 -0.6018  2.0968
 9123TIP3   OH227311   1.729   6.317   3.534  0.2523  0.3583  0.4613
 9123TIP3    H127312   1.764   6.354   3.453  1.0041 -0.6605  0.3150
 9123TIP3    H227313   1.642   6.284   3.510  0.4971  0.0045  0.0480
 9124TIP3   OH227314   5.277   2.183   4.850 -0.3521  0.0659 -0.2224
 9124TIP3    H127315   5.238   2.257   4.896 -1.1456  0.1692 -1.0447
 9124TIP3    H227316   5.371   2.190   4.868 -0.4130  1.3090 -0.3536
 9125TIP3   OH227317   4.510   7.705   5.464  0.0448  0.9934 -0.7387
 9125TIP3    H127318   4.583   7.643   5.468 -1.5815 -1.2352 -3.5541
 9125TIP3    H227319   4.463   7.692   5.546  0.9086 -0.0609 -0.3942
 9126TIP3   OH227320   2.362   7.480   4.706 -0.4140 -0.2654  0.6255
 9126TIP3    H127321   2.456   7.484   4.724 -0.0727 -0.6203 -0.9577
 9126TIP3    H227322   2.340   7.387   4.713 -0.2777 -0.4105 -0.6504
 9127TIP3   OH227323   2.030   7.752   0.705  0.8017 -0.3976 -1.0008
 9127TIP3    H127324   1.970   7.721   0.637  1.1755 -1.0521 -1.0297
 9127TIP3    H227325   2.102   7.793   0.657 -0.0132  1.1114 -0.9493
 9128TIP3   OH227326   0.355   6.953   4.001 -0.2380 -0.2204 -0.1212
 9128TIP3    H127327   0.333   7.046   3.995  1.2533  0.1503 -0.0764
 9128TIP3    H227328   0.451   6.951   3.995 -0.0433 -1.5043  2.7894
 9129TIP3   OH227329   7.213   5.960   5.643 -0.0560  0.1700 -0.0988
 9129TIP3    H127330   7.290   5.957   5.586  0.1752 -0.8072  0.2715
 9129TIP3    H227331   7.140   5.936   5.585  0.1495 -0.6092 -0.0333
 9130TIP3   OH227332   1.447   6.611   5.208 -0.3345 -0.3491 -0.2258
 9130TIP3    H127333   1.429   6.518   5.197 -1.9722 -0.1289  0.4588
 9130TIP3    H227334   1.471   6.641   5.121 -4.0091 -0.5531 -1.3956
 9131TIP3   OH227335   0.320   7.816   4.047 -0.4342  0.3692  0.6742
 9131TIP3    H127336   0.384   7.809   3.977 -1.7200 -0.9751 -0.4116
 9131TIP3    H227337   0.354   7.885   4.104  0.0848  2.3001 -1.8648
 9132TIP3   OH227338   2.480   5.774   4.649  0.2622  0.1791  0.3210
 9132TIP3    H127339   2.513   5.787   4.738 -0.2997 -1.0200  0.7044
 9132TIP3    H227340   2.398   5.727   4.660 -0.3323  0.9237 -0.7843
 9133TIP3   OH227341   7.207   6.752   4.712  0.0022  0.4254  0.5968
 9133TIP3    H127342   7.111   6.753   4.714 -0.0388  0.9074 -0.7618
 9133TIP3    H227343   7.231   6.844   4.726  0.0974  1.1015 -3.2103
 9134TIP3   OH227344   3.092   7.196   3.652  0.5222  0.4859 -0.0472
 9134TIP3    H127345   3.001   7.205   3.624  0.9042  0.1637 -1.4410
 9134TIP3    H227346   3.101   7.103   3.675  0.3361  0.6503  0.6965
 9135TIP3   OH227347   4.922   0.069   2.832 -0.2254 -0.4276 -0.9793
 9135TIP3    H127348   4.903  -0.021   2.805 -1.5776 -1.1590  2.2424
 9135TIP3    H227349   4.980   0.060   2.907 -1.4167  1.3175  0.1995
 9136TIP3   OH227350   0.461   5.261   3.194 -0.4263  0.1289 -0.4583
 9136TIP3    H127351   0.395   5.194   3.215 -1.6125  1.0101 -1.2790
 9136TIP3    H227352   0.519   5.218   3.132 -2.1778  0.3483 -2.3233
 9137TIP3   OH227353   2.118   5.413   4.910  0.4383 -0.0200  0.1321
 9137TIP3    H127354   2.177   5.345   4.876 -0.5280 -0.1755 -1.3076
 9137TIP3    H227355   2.052   5.364   4.959 -1.0191 -0.2785 -2.0257
 9138TIP3   OH227356   1.345   5.624   3.690 -0.3086 -0.0136  0.2075
 9138TIP3    H127357   1.296   5.648   3.611 -0.0123 -0.4598 -0.1186
 9138TIP3    H227358   1.338   5.528   3.694 -1.2973  0.0963  1.3689
 9139TIP3   OH227359   2.419   6.754   2.639  0.3203 -0.2579  0.2924
 9139TIP3    H127360   2.429   6.838   2.594 -2.9829 -0.4396 -0.8842
 9139TIP3    H227361   2.385   6.776   2.725 -0.2145 -0.3583  0.1084
 9140TIP3   OH227362   1.977   6.808   3.972  0.2498  0.5774  0.3453
 9140TIP3    H127363   1.897   6.859   3.969 -1.2810 -1.7757 -0.9898
 9140TIP3    H227364   2.015   6.817   3.885 -0.9384 -1.8604 -0.4732
 9141TIP3   OH227365   8.243   6.691   4.472 -0.3047 -0.1410 -0.1390
 9141TIP3    H127366   8.333   6.699   4.504  0.1237 -0.1787 -1.3297
 9141TIP3    H227367   8.228   6.771   4.421 -0.4566 -0.7850 -1.1222
 9142TIP3   OH227368   2.898   5.511   5.366  0.1328  0.0734 -0.7540
 9142TIP3    H127369   2.924   5.533   5.276 -0.2544 -1.1622 -1.1693
 9142TIP3    H227370   2.965   5.553   5.421  0.9579 -0.0430 -1.6578
 9143TIP3   OH227371   3.320   5.579   2.745  0.4382 -0.2419  0.1574
 9143TIP3    H127372   3.302   5.488   2.766  2.0200 -0.2453  1.5591
 9143TIP3    H227373   3.234   5.615   2.719 -1.1552 -0.8756  4.2459
 9144TIP3   OH227374   2.720   7.447   3.898  0.2407  0.0543  0.0791
 9144TIP3    H127375   2.759   7.365   3.867 -2.5839 -1.5008  0.4273
 9144TIP3    H227376   2.694   7.494   3.819  0.8624  0.0950 -0.0994
 9145TIP3   OH227377   2.844   6.600   6.837 -0.1789 -0.0917  0.2750
 9145TIP3    H127378   2.761   6.563   6.808  0.4103 -0.8459 -0.4799
 9145TIP3    H227379   2.910   6.558   6.781  0.4357  2.6466 -1.1543
 9146TIP3   OH227380   3.654   0.963   3.894 -0.0912 -0.0017  0.0241
 9146TIP3    H127381   3.575   0.941   3.943  0.1992  0.1680  0.5743
 9146TIP3    H227382   3.703   0.881   3.888 -0.4875 -0.1881 -0.6427
 9147TIP3   OH227383   7.800   0.960   4.130 -0.0480  0.1838 -0.2938
 9147TIP3    H127384   7.847   0.916   4.059  0.0596 -0.8086  0.3754
 9147TIP3    H227385   7.708   0.954   4.105 -0.1985 -2.0762  0.6502
 9148TIP3   OH227386   6.875   0.576   6.543 -0.1742  0.5737 -0.4095
 9148TIP3    H127387   6.867   0.482   6.531  0.8646  0.5350 -0.8204
 9148TIP3    H227388   6.962   0.598   6.510 -0.7926  1.8222 -1.2736
 9149TIP3   OH227389   6.954   1.616   5.621 -0.0977 -0.2036 -0.5405
 9149TIP3    H127390   7.024   1.584   5.677  3.6482  2.2398 -3.5953
 9149TIP3    H227391   6.905   1.538   5.595  1.5910 -1.9683  1.4926
 9150TIP3   OH227392   3.608   6.981   1.915  0.0579  0.5893  0.0278
 9150TIP3    H127393   3.517   6.981   1.885  0.2177  2.8760 -0.5376
 9150TIP3    H227394   3.603   6.946   2.004 -1.3426  0.3999 -0.1070
 9151TIP3   OH227395   6.986   1.081   5.105  0.3132  0.2362  0.3982
 9151TIP3    H127396   6.897   1.080   5.140  0.6192 -0.1061  1.1668
 9151TIP3    H227397   6.979   1.032   5.023 -0.3784  0.9345  0.0301
 9152TIP3   OH227398   3.257   7.474   5.487  0.3659 -0.2323  0.0902
 9152TIP3    H127399   3.218   7.423   5.558  0.5038 -0.5605 -0.0713
 9152TIP3    H227400   3.323   7.417   5.449  1.3825  0.5257  0.6977
 9153TIP3   OH227401   5.655   0.872   2.374 -0.1701  0.0548 -0.3745
 9153TIP3    H127402   5.670   0.786   2.333  1.0335 -0.4632  1.1274
 9153TIP3    H227403   5.620   0.851   2.461 -0.3588  1.1077 -0.1957
 9154TIP3   OH227404   4.639   6.505   3.829  0.0824  0.4163 -1.0041
 9154TIP3    H127405   4.568   6.552   3.785 -2.9507 -2.4270  0.7224
 9154TIP3    H227406   4.701   6.574   3.853 -3.0551  3.2458 -0.6972
 9155TIP3   OH227407   5.664   1.640   5.295  0.5981  0.5529  0.3693
 9155TIP3    H127408   5.625   1.556   5.318 -1.6916  1.5639  0.2782
 9155TIP3    H227409   5.757   1.621   5.282 -0.3678 -2.5500 -2.5855
 9156TIP3   OH227410   1.397   7.462   1.869  0.1055 -0.0472  0.2941
 9156TIP3    H127411   1.402   7.369   1.891 -1.3965 -0.3320 -0.5018
 9156TIP3    H227412   1.449   7.505   1.936  0.9985 -1.4801  0.5528
 9157TIP3   OH227413   3.671   7.336   1.118  0.1308 -0.5306 -0.2202
 9157TIP3    H127414   3.713   7.253   1.141 -0.8082 -0.6306  1.2190
 9157TIP3    H227415   3.601   7.311   1.057  0.4296 -0.6898 -0.4987
 9158TIP3   OH227416   5.496   0.476   2.359 -0.8184 -0.7601  0.0228
 9158TIP3    H127417   5.435   0.418   2.406 -1.6422  0.2276  0.2016
 9158TIP3    H227418   5.441   0.548   2.329  0.4381  0.5836  0.9330
 9159TIP3   OH227419   2.748   7.377   2.370 -0.2260 -0.4518 -0.4210
 9159TIP3    H127420   2.752   7.338   2.283 -2.5779  3.0346 -2.2280
 9159TIP3    H227421   2.821   7.440   2.371  0.7271 -1.5632  0.7222
 9160TIP3   OH227422   4.446   4.997   3.687 -0.1277 -0.7903 -0.0715
 9160TIP3    H127423   4.361   5.038   3.701  1.0395  0.9602  2.2611
 9160TIP3    H227424   4.441   4.914   3.735 -0.4188 -0.5165  0.3742
 9161TIP3   OH227425   1.596   7.263   3.496 -0.0853  0.5359 -0.2135
 9161TIP3    H127426   1.555   7.348   3.506 -0.8164  0.4309 -2.0351
 9161TIP3    H227427   1.644   7.269   3.413  2.2013  0.0967  1.0115
 9162TIP3   OH227428   3.867   7.533   3.528  0.5164  0.2649 -0.1163
 9162TIP3    H127429   3.959   7.543   3.549  0.6505 -0.8117 -0.1305
 9162TIP3    H227430   3.849   7.600   3.461  0.1253  3.5871  3.1825
 9163TIP3   OH227431   2.409   7.868   5.218 -0.1543  0.1169  0.2494
 9163TIP3    H127432   2.342   7.802   5.196 -0.2312 -0.4909  2.2597
 9163TIP3    H227433   2.491   7.830   5.187 -0.4148 -0.1976 -0.0618
 9164TIP3   OH227434   1.254   0.842   4.475  0.1336  0.3423  0.2438
 9164TIP3    H127435   1.334   0.799   4.444  0.2525  0.9635 -0.3184
 9164TIP3    H227436   1.206   0.773   4.521  0.1438 -0.5131 -0.9925
 9165TIP3   OH227437   2.501   5.967   4.261  0.2037  0.5825 -0.3689
 9165TIP3    H127438   2.449   6.047   4.262 -2.7145 -1.2299  1.1358
 9165TIP3    H227439   2.441   5.900   4.227  2.0010 -1.3185  0.0888
 9166TIP3   OH227440   5.039   2.598   3.492  0.3006  0.1747  0.0629
 9166TIP3    H127441   5.073   2.582   3.580  0.8356  1.3973  0.0753
 9166TIP3    H227442   5.103   2.655   3.450  1.3095 -2.2928 -1.9712
 9167TIP3   OH227443   0.843   5.298   2.161 -0.3601 -0.3568 -0.6310
 9167TIP3    H127444   0.757   5.283   2.122  0.0377 -2.3540 -0.7874
 9167TIP3    H227445   0.896   5.334   2.089 -0.4231 -1.3085 -1.1558
 9168TIP3   OH227446   4.692   7.525   3.928  0.7094  0.2245  0.0682
 9168TIP3    H127447   4.687   7.481   3.843  3.7106 -0.2766  0.1029
 9168TIP3    H227448   4.605   7.514   3.966 -0.0316 -1.4130 -2.0166
 9169TIP3   OH227449   5.451   6.604   4.865  0.2995  0.2504 -0.2294
 9169TIP3    H127450   5.429   6.570   4.778  0.3929 -1.2949  0.3462
 9169TIP3    H227451   5.403   6.548   4.926  1.8362  0.0233  0.8092
 9170TIP3   OH227452   2.056   6.855   3.688  0.3132  0.0319  0.2138
 9170TIP3    H127453   1.973   6.836   3.644  0.7426 -0.4512 -0.3951
 9170TIP3    H227454   2.065   6.950   3.684 -0.0467  0.0566 -0.0105
 9171TIP3   OH227455   3.662   6.168   2.089  0.3047 -0.3096  0.0595
 9171TIP3    H127456   3.744   6.208   2.061  0.9809 -0.7372  1.3584
 9171TIP3    H227457   3.641   6.211   2.172 -1.3551  0.5463 -0.7787
 9172TIP3   OH227458   1.909   6.714   2.193 -0.0071 -0.3877 -0.2477
 9172TIP3    H127459   1.987   6.676   2.233  1.5707  0.3953 -2.4772
 9172TIP3    H227460   1.879   6.647   2.131 -0.0178  0.0497 -0.7186
 9173TIP3   OH227461   6.368   1.520   2.761  0.1846  0.8497  0.4861
 9173TIP3    H127462   6.335   1.585   2.698  4.5148  1.5525 -1.2461
 9173TIP3    H227463   6.354   1.436   2.718 -2.3183  0.8238  1.2585
 9174TIP3   OH227464   8.303   0.465   3.384 -0.7698  0.7354  0.2219
 9174TIP3    H127465   8.367   0.405   3.348  1.1312  1.6992  1.9110
 9174TIP3    H227466   8.238   0.408   3.426 -0.5146 -0.2030 -0.6329
 9175TIP3   OH227467   7.269   2.013   4.106 -0.3456 -0.2609 -0.4003
 9175TIP3    H127468   7.280   2.061   4.024  1.1140 -1.0167 -0.6599
 9175TIP3    H227469   7.186   1.968   4.096 -1.5051  1.8083 -0.3559
 9176TIP3   OH227470   5.164   1.207   1.417 -0.0081 -0.0243 -0.7036
 9176TIP3    H127471   5.088   1.180   1.364 -1.4950  0.7715  0.9670
 9176TIP3    H227472   5.126   1.231   1.502  2.1091  0.6225  0.0785
 9177TIP3   OH227473   3.491   7.414   5.182 -0.0340  0.1594  0.0407
 9177TIP3    H127474   3.448   7.385   5.262  0.3042 -0.3955  0.0246
 9177TIP3    H227475   3.421   7.451   5.129 -0.4566 -0.5250  0.1103
 9178TIP3   OH227476   5.640   0.512   4.349 -0.1123  0.1300 -0.3030
 9178TIP3    H127477   5.616   0.453   4.277  0.2338  1.0715 -1.1946
 9178TIP3    H227478   5.579   0.585   4.342 -2.2704 -1.3121  2.4046
 9179TIP3   OH227479   6.641   0.801   3.606 -0.3621  0.1621 -0.3174
 9179TIP3    H127480   6.647   0.719   3.656  1.2249  0.7553  0.5033
 9179TIP3    H227481   6.724   0.845   3.623 -0.1104  0.7358 -2.8676
 9180TIP3   OH227482   4.594   5.533   3.865 -0.0082  0.0592 -0.3216
 9180TIP3    H127483   4.568   5.613   3.820 -2.3633  0.2148  1.2374
 9180TIP3    H227484   4.619   5.562   3.953 -1.7918 -0.9944  0.5636
 9181TIP3   OH227485   6.511   0.144   4.533 -0.5361 -0.2118 -0.0992
 9181TIP3    H127486   6.437   0.188   4.491 -1.2427 -1.4995 -0.2289
 9181TIP3    H227487   6.481   0.125   4.621 -0.1649 -0.2675  0.0178
 9182TIP3   OH227488   4.367   6.541   4.021 -0.0684  0.1465  0.1914
 9182TIP3    H127489   4.409   6.616   3.978  1.8535 -0.8696  0.2790
 9182TIP3    H227490   4.326   6.578   4.099 -1.3696  1.5531 -1.1108
 9183TIP3   OH227491   2.550   7.482   2.515  0.0521  0.4108  0.1971
 9183TIP3    H127492   2.612   7.442   2.454  0.1139 -0.1628  0.6353
 9183TIP3    H227493   2.581   7.573   2.524 -0.5838  0.8128 -1.4525
 9184TIP3   OH227494  -0.035   6.406   4.291  0.6085 -0.2899 -0.0443
 9184TIP3    H127495   0.011   6.488   4.306  2.1255 -1.3426  1.2028
 9184TIP3    H227496   0.034   6.345   4.263 -0.6522 -0.8893 -1.9184
 9185TIP3   OH227497   4.643   7.577   3.600 -0.0307 -0.3887 -0.1394
 9185TIP3    H127498   4.737   7.583   3.582 -0.0360  2.8038  0.6156
 9185TIP3    H227499   4.602   7.591   3.514  0.1627  0.6782 -0.0660
 9186TIP3   OH227500   1.060   6.876   5.092  0.0883  0.4294  0.2274
 9186TIP3    H127501   1.036   6.828   5.012  0.2360 -2.9335  2.1108
 9186TIP3    H227502   0.985   6.932   5.110 -0.6696 -0.0588 -1.3242
 9187TIP3   OH227503   6.774   0.103   4.484  0.5710  0.5999  0.7918
 9187TIP3    H127504   6.785   0.020   4.530 -0.5202  1.3400  2.4577
 9187TIP3    H227505   6.680   0.122   4.491  0.4707  1.0065 -1.2851
 9188TIP3   OH227506   3.531   7.384   3.797 -0.1810  0.0905  1.1471
 9188TIP3    H127507   3.533   7.466   3.846 -1.9073  0.4382  0.6704
 9188TIP3    H227508   3.437   7.364   3.788  0.0454  0.4462 -2.6519
 9189TIP3   OH227509   4.218   7.625   3.340 -0.0578  0.1776  0.8896
 9189TIP3    H127510   4.188   7.590   3.424 -0.8241 -0.4467  0.3661
 9189TIP3    H227511   4.144   7.611   3.280  0.8776 -0.4014 -0.1595
 9190TIP3   OH227512   4.702   7.832   3.410  0.1699  0.1883 -0.1923
 9190TIP3    H127513   4.762   7.785   3.468  0.4056 -0.6961 -1.1276
 9190TIP3    H227514   4.646   7.764   3.373 -1.6896  1.0594  0.9656
 9191TIP3   OH227515   2.051   7.525   1.341 -0.3751 -0.1767 -0.0398
 9191TIP3    H127516   2.012   7.441   1.316 -1.6493  0.6270 -0.7945
 9191TIP3    H227517   2.009   7.547   1.424  0.1385 -0.3894  0.2822
 9192TIP3   OH227518   5.297   0.623   3.044 -0.0093 -0.1135  0.5788
 9192TIP3    H127519   5.344   0.577   3.114  0.5615 -0.9093 -0.2980
 9192TIP3    H227520   5.215   0.574   3.034 -1.6274  2.0283  2.9594
 9193TIP3   OH227521   4.710   1.865   3.272  0.0867 -0.2279 -0.0706
 9193TIP3    H127522   4.686   1.957   3.262 -0.1807 -0.3261 -0.3200
 9193TIP3    H227523   4.639   1.828   3.324 -1.0789 -0.8696 -2.1096
 9194TIP3   OH227524   3.922   7.320   3.009  0.0838 -0.0464 -0.0011
 9194TIP3    H127525   4.005   7.356   3.037 -0.3442  0.9609  0.0037
 9194TIP3    H227526   3.908   7.356   2.921 -0.4393 -0.0444  0.0765
 9195TIP3   OH227527   6.311   1.581   3.464 -0.5001  0.1378  0.0249
 9195TIP3    H127528   6.322   1.487   3.468  2.8202  0.5354  1.7903
 9195TIP3    H227529   6.394   1.614   3.430 -1.2344  2.4942  0.3876
 9196TIP3   OH227530   7.284   0.733   3.374 -0.2634  0.3810 -0.0503
 9196TIP3    H127531   7.301   0.647   3.333 -0.1642  1.2538 -1.9001
 9196TIP3    H227532   7.188   0.741   3.371 -0.2102  0.8027 -0.9141
 9197TIP3   OH227533   4.676   0.770   2.182  0.9436 -0.7766 -0.1732
 9197TIP3    H127534   4.595   0.721   2.194 -1.4393  3.0329  0.0844
 9197TIP3    H227535   4.710   0.783   2.271  0.3693 -0.0433 -0.0576
 9198TIP3   OH227536   1.137   6.183   3.452 -0.1151 -0.2081 -0.7270
 9198TIP3    H127537   1.133   6.253   3.517 -0.5354 -0.9264  0.0208
 9198TIP3    H227538   1.064   6.202   3.393 -0.5832 -0.3460 -0.1933
 9199TIP3   OH227539   5.109   0.456   3.494  1.0739 -0.0133  0.0356
 9199TIP3    H127540   5.016   0.459   3.471  1.2553 -0.4562 -0.7470
 9199TIP3    H227541   5.110   0.472   3.588  0.1283 -0.9715  0.2194
 9200TIP3   OH227542   6.835   0.147   4.208  0.1603  0.3223  0.2121
 9200TIP3    H127543   6.798   0.234   4.195  0.9937  1.2160  3.3825
 9200TIP3    H227544   6.810   0.123   4.297  2.5353 -1.3496  0.4904
 9201TIP3   OH227545   5.274   7.620   3.818 -0.0692  0.4250  0.0938
 9201TIP3    H127546   5.359   7.591   3.851 -0.2917  0.4335  0.6957
 9201TIP3    H227547   5.231   7.657   3.895 -1.1183 -0.7248  0.0637
 9202TIP3   OH227548   3.337   6.710   2.619 -0.2972 -0.1898  0.3332
 9202TIP3    H127549   3.262   6.657   2.648 -0.8924  0.6400  0.3299
 9202TIP3    H227550   3.376   6.742   2.700  1.7914 -2.9246  0.4927
 9203TIP3   OH227551   2.141   6.500   4.025 -0.1675 -0.7311 -0.1076
 9203TIP3    H127552   2.185   6.416   4.008  0.6346 -0.2753 -0.2956
 9203TIP3    H227553   2.049   6.476   4.039 -0.2769 -1.4544 -1.9164
 9204TIP3   OH227554   4.575   6.510   3.097  0.1059  0.1920  0.7096
 9204TIP3    H127555   4.620   6.593   3.116  0.6034  0.7000 -2.3931
 9204TIP3    H227556   4.645   6.451   3.070 -0.5387 -0.5182  0.5862
 9205TIP3   OH227557   4.879   1.387   1.402  0.3338 -0.2094  0.2999
 9205TIP3    H127558   4.822   1.348   1.335  1.5328  0.5718 -1.2041
 9205TIP3    H227559   4.881   1.322   1.473 -2.4985 -0.2118  0.4513
 9206TIP3   OH227560   2.657   7.470   4.717  0.2120 -0.5306  0.1238
 9206TIP3    H127561   2.699   7.401   4.768 -0.4517 -1.7087 -0.8900
 9206TIP3    H227562   2.715   7.484   4.642  1.2119  1.2354  1.1788
 9207TIP3   OH227563   4.744   7.278   3.197 -0.0019 -0.0817  0.3361
 9207TIP3    H127564   4.750   7.194   3.151  0.1860  0.3466 -0.4308
 9207TIP3    H227565   4.781   7.260   3.283  0.1443 -0.7587  0.1412
 9208TIP3   OH227566   3.414   5.922   5.508  0.0467 -0.0140  0.2062
 9208TIP3    H127567   3.453   5.971   5.436  1.9299 -1.4035  0.2206
 9208TIP3    H227568   3.428   5.977   5.585 -1.6611  1.3190 -0.4051
 9209TIP3   OH227569   3.841   7.377   4.196  0.3139  0.0812  0.0388
 9209TIP3    H127570   3.769   7.348   4.140  0.7192  0.4113 -0.6610
 9209TIP3    H227571   3.798   7.418   4.271 -0.2218  0.6105 -0.5553
 9210TIP3   OH227572   6.438   1.589   2.377 -0.8046 -0.3174 -0.1699
 9210TIP3    H127573   6.422   1.495   2.388  1.3208 -0.5572  1.2096
 9210TIP3    H227574   6.432   1.625   2.465  3.3236 -0.0459  0.1064
 9211TIP3   OH227575   5.893   0.464   2.344  0.2003 -0.0120 -0.1915
 9211TIP3    H127576   5.919   0.391   2.400  0.1389 -0.6434 -0.9678
 9211TIP3    H227577   5.958   0.532   2.362 -0.2639  0.0821  1.1923
 9212TIP3   OH227578   6.083   0.823   5.091  0.2486  0.1367  0.0222
 9212TIP3    H127579   6.122   0.865   5.014  1.3675 -0.2823  0.3452
 9212TIP3    H227580   6.097   0.730   5.077 -1.4176 -0.0828 -0.2551
 9213TIP3   OH227581   3.318   6.921   4.085  0.2340  0.2386 -0.1901
 9213TIP3    H127582   3.228   6.891   4.083  0.1269  0.5472 -0.1249
 9213TIP3    H227583   3.324   6.975   4.164 -0.5153  3.2149 -2.0713
 9214TIP3   OH227584   4.234   7.383   3.814 -0.5842  0.6847 -0.5590
 9214TIP3    H127585   4.183   7.401   3.892  0.1537  0.3503  0.0122
 9214TIP3    H227586   4.319   7.425   3.831  0.0489 -0.5619 -0.5833
 9215TIP3   OH227587   4.170   7.088   2.708  0.2419  0.1800  0.3381
 9215TIP3    H127588   4.256   7.079   2.748 -0.0872 -0.7129  0.8635
 9215TIP3    H227589   4.188   7.105   2.615  0.9814 -2.5117 -0.0518
 9216TIP3   OH227590   6.714   0.973   2.600 -0.0664 -0.2987  0.2286
 9216TIP3    H127591   6.809   0.965   2.593 -0.1261 -0.1105 -0.7973
 9216TIP3    H227592   6.699   0.997   2.691  0.7613 -2.0990  0.8643
 9217TIP3   OH227593   5.966   0.051   3.616  0.2440 -0.0202  0.0928
 9217TIP3    H127594   5.950  -0.042   3.601  0.3447 -0.3027  1.6538
 9217TIP3    H227595   5.879   0.091   3.615  0.0461 -0.4038  1.1084
 9218TIP3   OH227596   3.220   6.350   4.021 -0.1994 -0.0180 -0.3104
 9218TIP3    H127597   3.131   6.356   3.987 -0.1393  1.9137 -0.1906
 9218TIP3    H227598   3.275   6.337   3.943 -0.5784 -1.2178 -0.3819
 9219TIP3   OH227599   4.014   7.850   2.770 -0.4325 -1.3335 -0.1980
 9219TIP3    H127600   3.958   7.826   2.844 -0.2231 -0.7123  0.1644
 9219TIP3    H227601   3.961   7.829   2.692 -1.3513 -0.3139  0.1452
 9220TIP3   OH227602   7.825   0.002   3.705  0.1385  0.2911  0.6488
 9220TIP3    H127603   7.862   0.063   3.640 -0.7750 -1.2530 -1.3657
 9220TIP3    H227604   7.896  -0.059   3.724 -0.4346 -0.9008 -0.9874
 9221TIP3   OH227605   7.863   2.589   2.567  0.1221  0.6299 -0.5717
 9221TIP3    H127606   7.895   2.671   2.604 -0.0039  0.5015 -0.1683
 9221TIP3    H227607   7.796   2.559   2.629 -0.1355  0.4390 -0.9376
 9222TIP3   OH227608   7.062   1.794   4.092  0.2162  0.1333  0.3675
 9222TIP3    H127609   7.089   1.790   4.001 -0.2538  0.4053  0.2178
 9222TIP3    H227610   6.989   1.732   4.098 -0.7631  1.2521  0.2092
 9223TIP3   OH227611   6.832   1.307   3.953 -0.0407 -0.0388 -0.0008
 9223TIP3    H127612   6.917   1.347   3.970  0.2909 -0.5079 -0.5403
 9223TIP3    H227613   6.841   1.217   3.986 -1.0693  0.5738  2.0358
 9224TIP3   OH227614   3.066   0.399   5.997  0.2119  0.1390  0.2522
 9224TIP3    H127615   3.113   0.435   6.072  0.8143 -2.1705  1.0384
 9224TIP3    H227616   3.125   0.412   5.923  0.4421  0.6890  0.5285
 9225TIP3   OH227617   7.091   0.786   2.246  0.1563  0.0489  0.8183
 9225TIP3    H127618   7.120   0.863   2.295 -0.3683  1.0814 -0.4850
 9225TIP3    H227619   7.168   0.729   2.244  0.4391  0.3711  2.0827
 9226TIP3   OH227620   2.246   6.107   6.857  0.4911  0.5272 -0.7599
 9226TIP3    H127621   2.311   6.107   6.928 -0.9997 -0.3181  0.6266
 9226TIP3    H227622   2.268   6.185   6.806  3.2326 -0.2926 -0.9342
 9227TIP3   OH227623   4.831   7.856   2.983  0.1804 -0.2374 -0.4461
 9227TIP3    H127624   4.799   7.855   2.893 -1.1192 -0.9735  0.0074
 9227TIP3    H227625   4.917   7.813   2.979  0.8509  1.1898 -1.5778
 9228TIP3   OH227626   1.915   7.705   1.554  0.0443 -0.4002 -0.2742
 9228TIP3    H127627   1.970   7.772   1.513 -0.0699  0.0101  0.2324
 9228TIP3    H227628   1.904   7.735   1.644 -0.2900 -0.9297 -0.1354
 9229TIP3   OH227629   4.772   0.680   2.467 -0.6238 -0.4727  0.4929
 9229TIP3    H127630   4.685   0.674   2.506 -0.4607 -2.3308  0.6367
 9229TIP3    H227631   4.828   0.710   2.539 -1.1047  0.4935  0.4645
 9230TIP3   OH227632   3.588   7.929   2.298 -0.1111 -0.7063 -0.1578
 9230TIP3    H127633   3.645   7.973   2.361 -1.0749  2.0266 -1.0755
 9230TIP3    H227634   3.549   7.857   2.347  2.0848 -0.9831  1.2374
 9231TIP3   OH227635   1.420   7.178   3.215 -0.2351 -0.0381  0.6252
 9231TIP3    H127636   1.379   7.146   3.135  1.1867 -1.9629  0.6060
 9231TIP3    H227637   1.508   7.204   3.188  0.2060 -0.5711  1.5040
 9232TIP3   OH227638   2.538   6.869   3.373  0.4044  0.3092 -0.2444
 9232TIP3    H127639   2.444   6.881   3.359  0.3916  0.4885  0.0011
 9232TIP3    H227640   2.545   6.787   3.423  0.4016  0.1156 -0.5539
 9233TIP3   OH227641   2.706   7.008   2.382  0.0617  0.9958 -0.8015
 9233TIP3    H127642   2.727   6.916   2.401 -2.1306  0.7935  0.8250
 9233TIP3    H227643   2.775   7.058   2.426 -0.1549  0.2022  0.4650
 9234TIP3   OH227644   5.018   5.587   4.190 -0.3000  0.1319  0.8293
 9234TIP3    H127645   5.101   5.605   4.233  0.5082 -0.6479 -0.3778
 9234TIP3    H227646   4.963   5.662   4.212  0.4965  0.3326  2.1928
 9235TIP3   OH227647   6.491   0.645   4.224  0.1751  0.2029 -0.4994
 9235TIP3    H127648   6.586   0.646   4.236  0.1796  0.5835 -0.5734
 9235TIP3    H227649   6.468   0.552   4.221  0.4227  0.1017  0.4830
 9236TIP3   OH227650   7.297   0.160   3.566  0.4899  0.6477 -1.0355
 9236TIP3    H127651   7.226   0.187   3.508  1.0339  0.2797 -1.8728
 9236TIP3    H227652   7.371   0.144   3.508  1.5069  1.8265 -0.0929
 9237TIP3   OH227653   5.367   6.367   4.176 -0.8127 -0.3125  0.3631
 9237TIP3    H127654   5.346   6.450   4.133 -1.2158 -0.7664 -0.3300
 9237TIP3    H227655   5.283   6.323   4.187 -0.6018 -0.6328  0.7081
 9238TIP3   OH227656   0.081   2.649   3.317 -0.6735 -0.1101  0.0330
 9238TIP3    H127657   0.069   2.657   3.411  0.4840 -0.7915  0.2525
 9238TIP3    H227658   0.036   2.568   3.294 -0.4832 -0.2345  0.0949
 9239TIP3   OH227659   1.697   6.029   3.731  0.4785 -0.5921 -0.3215
 9239TIP3    H127660   1.770   6.064   3.680  0.4916  0.7505  0.6035
 9239TIP3    H227661   1.735   5.957   3.781  0.7862 -0.9927 -1.1253
 9240TIP3   OH227662   2.076   7.107   2.791  0.2103 -0.0797  0.5229
 9240TIP3    H127663   2.148   7.151   2.836  1.5510  0.7838 -2.3575
 9240TIP3    H227664   2.080   7.017   2.822  2.0806  0.1172  0.9305
 9241TIP3   OH227665   5.205   0.590   4.534 -0.1766  0.2778 -0.2040
 9241TIP3    H127666   5.206   0.535   4.455  0.2439  0.7636 -0.5375
 9241TIP3    H227667   5.126   0.643   4.525 -0.7886 -0.5399  0.3060
 9242TIP3   OH227668   2.154   7.111   1.799  0.0437 -0.2035  0.4310
 9242TIP3    H127669   2.186   7.023   1.819 -0.4120 -0.1203  1.5466
 9242TIP3    H227670   2.214   7.169   1.846 -1.0224 -0.0021  1.5469
 9243TIP3   OH227671   4.511   5.510   3.111 -0.2529  0.6345 -0.3636
 9243TIP3    H127672   4.440   5.457   3.147  0.3062 -0.3770 -0.7297
 9243TIP3    H227673   4.556   5.544   3.188 -0.0969 -0.1274 -0.1123
 9244TIP3   OH227674   6.895   0.704   2.070 -0.0355 -0.7668  0.5906
 9244TIP3    H127675   6.941   0.728   1.990 -3.1540  3.4108 -0.1656
 9244TIP3    H227676   6.956   0.726   2.141  0.6587  0.8561 -0.4922
 9245TIP3   OH227677   5.639   1.927   4.087 -0.3072  0.2302 -0.1427
 9245TIP3    H127678   5.655   2.002   4.144  0.6586  0.7210 -1.0526
 9245TIP3    H227679   5.722   1.880   4.084 -0.3192  0.2590 -1.2116
 9246TIP3   OH227680   6.706   6.358   4.547  0.3658  0.1879 -0.2893
 9246TIP3    H127681   6.689   6.264   4.537  3.0146 -0.1620 -2.1923
 9246TIP3    H227682   6.760   6.365   4.626  0.9268  0.0003 -0.6547
 9247TIP3   OH227683   1.681   7.824   2.936 -0.0394  0.0984  0.2090
 9247TIP3    H127684   1.673   7.817   3.031 -1.7085 -0.3972  0.0430
 9247TIP3    H227685   1.669   7.917   2.918  1.1879  0.3353  0.5493
 9248TIP3   OH227686   5.272   0.859   3.519 -0.1211  0.0661  0.1925
 9248TIP3    H127687   5.291   0.779   3.471  1.3299 -0.4989  1.6518
 9248TIP3    H227688   5.335   0.923   3.486 -1.4583  0.7043 -1.1684
 9249TIP3   OH227689   7.158   0.833   3.765 -0.6106  0.0687  0.4744
 9249TIP3    H127690   7.076   0.882   3.758 -1.2717 -0.6685  2.5809
 9249TIP3    H227691   7.148   0.761   3.703  0.4607  2.6091 -2.7997
 9250TIP3   OH227692   5.339   2.647   4.524  0.0723 -0.0548  0.2993
 9250TIP3    H127693   5.409   2.703   4.559 -0.1174  0.8473 -0.7387
 9250TIP3    H227694   5.324   2.680   4.435 -1.2469 -0.6353  0.2966
 9251TIP3   OH227695   6.695   0.150   2.165  0.3852  0.2266  0.0462
 9251TIP3    H127696   6.780   0.117   2.137  1.0365  0.4709  1.6895
 9251TIP3    H227697   6.709   0.243   2.182 -0.2898  0.3446 -0.0379
 9252TIP3   OH227698   2.603   7.131   3.420 -0.4962  0.1661  0.5940
 9252TIP3    H127699   2.516   7.138   3.382  0.6580 -0.4185 -2.3479
 9252TIP3    H227700   2.610   7.040   3.448 -0.6082  0.0466  0.2376
 9253TIP3   OH227701   1.453   7.473   4.251  0.0136  0.2528  0.1800
 9253TIP3    H127702   1.393   7.511   4.188 -0.4257 -0.0683  0.4050
 9253TIP3    H227703   1.540   7.484   4.211 -0.0419  2.0115  0.5072
 9254TIP3   OH227704   2.228   7.576   1.594 -0.2582 -0.3655 -0.6110
 9254TIP3    H127705   2.206   7.489   1.627  1.1261 -0.4899  0.0537
 9254TIP3    H227706   2.214   7.571   1.500 -0.9028 -1.0822 -0.4793
 9255TIP3   OH227707   3.919   4.957   5.013 -0.4322 -0.6764  0.4739
 9255TIP3    H127708   3.845   4.919   4.965  0.0202 -2.8295  1.4512
 9255TIP3    H227709   3.996   4.935   4.959 -0.2495 -0.4354  0.6351
 9256TIP3   OH227710   4.879   6.071   2.994  0.1714 -0.4280  0.4522
 9256TIP3    H127711   4.785   6.070   3.008  0.3632  0.1346  1.8363
 9256TIP3    H227712   4.909   5.988   3.031  0.3101 -0.2904  0.6466
 9257TIP3   OH227713   6.889   0.498   5.725 -0.7780 -0.0891 -0.0018
 9257TIP3    H127714   6.796   0.494   5.705 -0.5559  0.3448 -1.1762
 9257TIP3    H227715   6.928   0.540   5.648  0.1474  1.3891  1.2437
 9258TIP3   OH227716   5.753   0.311   3.530  0.3327 -0.2440  0.0168
 9258TIP3    H127717   5.764   0.399   3.565 -0.0777 -0.5960  1.0288
 9258TIP3    H227718   5.799   0.313   3.445  0.9175  0.7346  0.3515
 9259TIP3   OH227719   5.533   2.003   3.562  0.3921  0.5385 -0.0567
 9259TIP3    H127720   5.604   2.035   3.617 -0.5594  0.6754  1.1040
 9259TIP3    H227721   5.520   1.913   3.590 -0.3342  0.7194  0.1881
 9260TIP3   OH227722   5.036   6.979   4.107  0.8187 -0.2068  0.0355
 9260TIP3    H127723   5.102   6.994   4.174  0.3005 -0.7786  0.6895
 9260TIP3    H227724   4.978   7.056   4.112 -0.3841 -1.1867  1.6476
 9261TIP3   OH227725   7.125   1.226   6.081  0.5504 -0.2676 -0.5265
 9261TIP3    H127726   7.039   1.260   6.056  0.3554  0.3044  0.8653
 9261TIP3    H227727   7.134   1.144   6.033  0.3256  0.9343 -2.6923
 9262TIP3   OH227728   7.297   0.254   3.807  0.3801  0.4318 -0.4752
 9262TIP3    H127729   7.303   0.242   3.712 -0.9644  0.7431 -0.6097
 9262TIP3    H227730   7.339   0.176   3.843 -0.4423 -0.4248 -1.3274
 9263TIP3   OH227731   3.088   6.136   4.338 -0.3814  0.6981  0.3923
 9263TIP3    H127732   3.104   6.098   4.424  1.6242  0.7333  0.0400
 9263TIP3    H227733   3.060   6.226   4.356 -1.0521  0.3654  1.0421
 9264TIP3   OH227734   4.475   5.803   6.340 -0.2415 -0.6401  0.0175
 9264TIP3    H127735   4.518   5.858   6.405 -2.1461 -0.2146  0.9458
 9264TIP3    H227736   4.535   5.729   6.327  0.2510 -0.6175  2.0756
 9265TIP3   OH227737   4.958   1.942   1.065  0.9078 -0.0830 -0.1846
 9265TIP3    H127738   4.959   2.022   1.118 -2.0770  0.8793 -1.4922
 9265TIP3    H227739   5.025   1.957   0.998  0.6345  1.1773 -0.1851
 9266TIP3   OH227740   5.660   7.890   3.664 -0.2461 -0.0862 -0.1680
 9266TIP3    H127741   5.743   7.929   3.638 -0.0348 -0.9389 -0.7762
 9266TIP3    H227742   5.606   7.893   3.586 -1.0131  1.0258  0.3896
 9267TIP3   OH227743   4.035   6.671   3.238  0.3100  0.0894 -0.0969
 9267TIP3    H127744   4.033   6.576   3.226  0.0976  0.2693 -1.4953
 9267TIP3    H227745   4.002   6.706   3.156  0.6762  1.3894  0.3106
 9268TIP3   OH227746   5.312   6.245   2.443 -0.5269  0.0417  0.4308
 9268TIP3    H127747   5.227   6.280   2.470  0.0017  1.7247 -0.0174
 9268TIP3    H227748   5.349   6.313   2.387  0.8364 -0.9633  0.0810
 9269TIP3   OH227749   3.878   7.425   2.752 -0.6661 -0.7998 -0.0393
 9269TIP3    H127750   3.876   7.521   2.753  0.2294 -0.7753  0.1713
 9269TIP3    H227751   3.907   7.403   2.663  0.7053 -0.8253  0.4008
 9270TIP3   OH227752   3.028   6.110   4.658 -0.5590  0.0586  0.8638
 9270TIP3    H127753   3.053   6.034   4.710  1.4333  0.8227  1.0851
 9270TIP3    H227754   3.063   6.185   4.706 -3.7814  1.2563  1.4027
 9271TIP3   OH227755   4.217   7.074   2.368  0.3700 -0.1726  0.4622
 9271TIP3    H127756   4.297   7.080   2.315 -0.2372  0.6616 -0.3867
 9271TIP3    H227757   4.159   7.141   2.331 -0.6832 -0.7020  1.1316
 9272TIP3   OH227758   6.851   0.135   3.918 -0.2800 -0.0955  0.1827
 9272TIP3    H127759   6.780   0.169   3.972  0.9754 -0.7801  2.3437
 9272TIP3    H227760   6.916   0.104   3.981 -0.3618 -4.3966 -1.6779
 9273TIP3   OH227761   2.064   4.792   4.007 -0.2678 -0.0532  0.1243
 9273TIP3    H127762   1.968   4.799   4.013 -0.3417 -0.7030 -0.2165
 9273TIP3    H227763   2.089   4.752   4.091 -0.4323 -1.0611 -0.2892
 9274TIP3   OH227764   4.868   8.007   4.674 -0.2403  0.0705 -0.3183
 9274TIP3    H127765   4.922   8.085   4.688 -0.8645  1.1393 -3.4172
 9274TIP3    H227766   4.924   7.948   4.622 -1.2171  0.2180 -1.5574
 9275TIP3   OH227767   0.338   0.822   3.762  0.9331  0.0932 -0.1138
 9275TIP3    H127768   0.400   0.894   3.752  0.2088  0.6457 -0.7278
 9275TIP3    H227769   0.308   0.803   3.673 -0.2811  0.2935  0.2335
 9276TIP3   OH227770   3.573   6.056   1.089  0.0586 -0.0505  0.7987
 9276TIP3    H127771   3.534   6.016   1.012 -1.0845  0.0713  1.2979
 9276TIP3    H227772   3.657   6.091   1.059  0.1202 -0.9847 -0.1152
 9277TIP3   OH227773   6.377   4.559   1.026 -0.1725  0.2024 -0.0351
 9277TIP3    H127774   6.440   4.601   1.084  0.6871  1.0165 -1.5307
 9277TIP3    H227775   6.385   4.607   0.943 -1.4269 -0.8885 -0.8048
 9278TIP3   OH227776   6.169   6.367   2.826  0.1124  0.0169 -0.0195
 9278TIP3    H127777   6.163   6.456   2.790 -0.0347 -0.1851 -0.4922
 9278TIP3    H227778   6.079   6.335   2.825  0.1449 -0.0800  0.2961
 9279TIP3   OH227779   3.093   6.866   4.715 -0.0020 -0.0744  0.0272
 9279TIP3    H127780   3.035   6.942   4.721 -0.0675 -0.0621 -0.7050
 9279TIP3    H227781   3.173   6.900   4.676  0.1855 -0.2664  0.2431
 9280TIP3   OH227782   6.501   7.261   5.523  0.0580  0.4184  0.0790
 9280TIP3    H127783   6.490   7.281   5.616 -2.7846  2.7985 -0.6933
 9280TIP3    H227784   6.422   7.295   5.482  0.4412 -2.2311 -3.0033
 9281TIP3   OH227785   4.347   6.843   5.286  0.5416  0.5439 -0.4165
 9281TIP3    H127786   4.427   6.791   5.294 -0.7293 -1.4615 -0.3745
 9281TIP3    H227787   4.281   6.794   5.337 -0.6888  2.2042 -0.3690
 9282TIP3   OH227788   2.598   7.744   2.611 -0.2459 -0.2319  0.1782
 9282TIP3    H127789   2.630   7.834   2.614  0.2223 -0.3866 -0.0726
 9282TIP3    H227790   2.611   7.712   2.700  0.9046 -0.4940 -0.0730
 9283TIP3   OH227791   2.178   7.925   4.291  0.3017 -0.3460  0.2751
 9283TIP3    H127792   2.145   8.015   4.296 -0.0023 -0.4386 -0.0676
 9283TIP3    H227793   2.194   7.900   4.382  1.3460  0.4137  0.3167
 9284TIP3   OH227794   5.746   0.929   5.487  0.3149 -0.1307  0.4962
 9284TIP3    H127795   5.776   0.849   5.443 -0.9543 -0.4793  0.2346
 9284TIP3    H227796   5.786   1.000   5.438  0.1487 -0.5644 -0.2847
 9285TIP3   OH227797   3.787   6.933   5.187  0.5570 -0.1802 -0.2469
 9285TIP3    H127798   3.880   6.952   5.172  0.3792 -0.9835 -2.6812
 9285TIP3    H227799   3.743   7.016   5.169  0.7456  0.0095  0.1680
 9286TIP3   OH227800   5.273   7.612   2.537 -0.2536 -0.0222 -0.5796
 9286TIP3    H127801   5.230   7.568   2.463 -0.3345  0.9647 -1.1308
 9286TIP3    H227802   5.243   7.703   2.531  0.8026  0.3604 -0.1251
 9287TIP3   OH227803   1.663   5.930   2.883 -0.1988 -0.6210  0.1361
 9287TIP3    H127804   1.748   5.891   2.906 -0.3585 -1.1421 -0.1637
 9287TIP3    H227805   1.626   5.871   2.818 -1.2072 -0.8799  0.9352
 9288TIP3   OH227806   5.797   0.369   4.523 -0.0596  0.0391 -0.1823
 9288TIP3    H127807   5.722   0.312   4.538  0.1071 -1.4789 -4.2869
 9288TIP3    H227808   5.762   0.443   4.474  0.3406  1.7431  2.0551
 9289TIP3   OH227809   5.771   7.074   3.257 -0.0716  0.1258 -0.2980
 9289TIP3    H127810   5.729   7.159   3.261  2.5010  1.4583 -0.6064
 9289TIP3    H227811   5.803   7.059   3.347 -1.3957 -0.9826 -0.0027
 9290TIP3   OH227812   7.126   0.626   6.459 -0.1058  0.1023  0.0719
 9290TIP3    H127813   7.125   0.712   6.417 -0.5490 -0.4121 -0.9997
 9290TIP3    H227814   7.120   0.564   6.386 -2.2549 -0.7778  0.9714
 9291TIP3   OH227815   2.902   7.956   3.145  0.5938 -0.9082  0.1052
 9291TIP3    H127816   2.829   7.912   3.189  0.5488 -0.0094  0.9498
 9291TIP3    H227817   2.980   7.918   3.184  0.5653 -0.9906  0.0807
 9292TIP3   OH227818   5.075   7.227   0.749 -0.2125  0.2785 -0.2856
 9292TIP3    H127819   5.027   7.211   0.830 -1.1110  0.7380 -0.7301
 9292TIP3    H227820   5.031   7.301   0.708  0.6255  0.4532 -0.8890
 9293TIP3   OH227821   3.967   5.505   3.529 -0.0977  0.5903 -0.3809
 9293TIP3    H127822   3.897   5.451   3.492 -0.0281  0.4814 -0.3538
 9293TIP3    H227823   4.015   5.537   3.452  0.2611  0.0766 -0.3731
 9294TIP3   OH227824   3.125   7.773   3.514  0.1817 -0.1146  0.5595
 9294TIP3    H127825   3.087   7.721   3.585  0.9091 -0.7837  0.4578
 9294TIP3    H227826   3.217   7.748   3.512 -0.2744 -1.7200 -2.0641
 9295TIP3   OH227827   5.801   0.230   3.233  0.0803 -0.3409  0.2152
 9295TIP3    H127828   5.805   0.204   3.141 -0.7418 -0.4098  0.1965
 9295TIP3    H227829   5.892   0.239   3.259  0.3639  4.0419 -1.8498
 9296TIP3   OH227830   4.872   5.508   2.635  0.2021 -0.2431  0.3124
 9296TIP3    H127831   4.790   5.463   2.614  0.6511 -0.4571 -1.0347
 9296TIP3    H227832   4.890   5.483   2.726 -0.5522 -1.2276  0.2052
 9297TIP3   OH227833   4.583   7.083   2.585 -0.5217  0.3479 -0.2897
 9297TIP3    H127834   4.532   7.144   2.637  0.8813  1.3383 -0.0334
 9297TIP3    H227835   4.669   7.125   2.577  0.3371 -1.3993 -0.4589
 9298TIP3   OH227836   4.064   5.529   2.427  0.5438 -0.5393 -0.0288
 9298TIP3    H127837   4.007   5.582   2.484  0.1187 -1.2319  0.1905
 9298TIP3    H227838   4.082   5.451   2.478 -0.4018 -1.4865 -1.1251
 9299TIP3   OH227839   7.844   0.963   2.259  0.4504  0.1468 -0.3961
 9299TIP3    H127840   7.772   0.954   2.196 -0.4810  2.5725  0.2623
 9299TIP3    H227841   7.826   0.895   2.324 -0.8375  0.2443 -0.6248
 9300TIP3   OH227842   3.576   6.506   3.503  0.0073 -0.0814 -0.0109
 9300TIP3    H127843   3.515   6.578   3.515 -0.1466 -0.3199  0.6663
 9300TIP3    H227844   3.663   6.547   3.505 -0.0464 -0.0262  1.2403
 9301TIP3   OH227845   3.483   6.144   5.786  0.5303 -0.6029 -0.3069
 9301TIP3    H127846   3.558   6.088   5.806  0.2074 -0.5254  1.1350
 9301TIP3    H227847   3.408   6.099   5.825  0.3047  0.9348  1.0962
 9302TIP3   OH227848   3.170   6.398   4.649  0.2496  0.3510 -0.3670
 9302TIP3    H127849   3.216   6.368   4.570  0.6587  1.6170 -0.6187
 9302TIP3    H227850   3.230   6.380   4.720 -0.2056 -0.9921 -0.3047
 9303TIP3   OH227851   1.419   0.748   2.830  0.1871  0.7109  0.2199
 9303TIP3    H127852   1.359   0.817   2.857  0.2159  0.8352 -0.0348
 9303TIP3    H227853   1.366   0.669   2.829  0.0730  0.7880  0.1781
 9304TIP3   OH227854   5.366   7.843   3.484  0.4787 -0.3029 -0.1709
 9304TIP3    H127855   5.330   7.887   3.561  2.3746  0.7843  0.1475
 9304TIP3    H227856   5.295   7.844   3.420  0.0610  2.1619  0.2638
 9305TIP3   OH227857   5.360   6.601   3.735 -0.0603  0.4283  0.3239
 9305TIP3    H127858   5.417   6.560   3.670  1.2474  0.6549  1.3021
 9305TIP3    H227859   5.292   6.644   3.684  0.0261 -0.7558 -0.8211
 9306TIP3   OH227860   8.521   2.556   3.872  0.2724  0.2649  0.3037
 9306TIP3    H127861   8.482   2.572   3.958 -1.1558 -0.7102 -0.1357
 9306TIP3    H227862   8.479   2.618   3.813 -1.3310 -1.3795 -0.3461
 9307TIP3   OH227863   7.683   7.589   3.362  0.2540  0.4082 -0.2045
 9307TIP3    H127864   7.732   7.516   3.324  1.0366  0.5509  0.5022
 9307TIP3    H227865   7.594   7.556   3.372  0.6804 -0.5751  0.4514
 9308TIP3   OH227866   4.504   7.401   1.877 -0.0746 -0.3445  0.4486
 9308TIP3    H127867   4.600   7.395   1.877 -0.0383  0.1212  1.1100
 9308TIP3    H227868   4.479   7.380   1.967 -0.6763 -1.5766  0.0031
 9309TIP3   OH227869   7.848   1.766   4.755  0.2333  0.2008  0.5856
 9309TIP3    H127870   7.853   1.682   4.709 -1.0771 -0.0346  0.8793
 9309TIP3    H227871   7.879   1.830   4.690  0.2274 -0.3757  0.0118
 9310TIP3   OH227872   8.118   0.257   3.473  0.3614 -0.1744 -0.3430
 9310TIP3    H127873   8.087   0.189   3.413  0.2374 -0.5480  0.1391
 9310TIP3    H227874   8.049   0.323   3.473  1.6810  1.2908 -2.9200
 9311TIP3   OH227875   5.938   6.421   3.301 -0.3295 -0.2019 -0.4477
 9311TIP3    H127876   5.858   6.434   3.250  0.1828  0.9071 -0.9877
 9311TIP3    H227877   5.927   6.335   3.342 -2.2846  0.4347  0.3945
 9312TIP3   OH227878   7.894   0.414   3.009  0.3130  0.2421 -0.4153
 9312TIP3    H127879   7.926   0.324   3.003  0.2976  0.1007  1.1662
 9312TIP3    H227880   7.895   0.447   2.920  0.7140 -1.1997 -0.9514
 9313TIP3   OH227881   8.034   1.339   2.104 -0.1589  0.2413 -0.2805
 9313TIP3    H127882   7.963   1.396   2.073 -0.7308 -0.3031  0.0205
 9313TIP3    H227883   7.990   1.274   2.159  0.2764 -1.4594 -1.8989
 9314TIP3   OH227884   7.789   2.243   2.939  0.5349 -0.5256  0.3782
 9314TIP3    H127885   7.860   2.179   2.941  0.2784 -0.8306 -0.0568
 9314TIP3    H227886   7.831   2.327   2.953  1.0976 -0.6002 -0.8139
 9315TIP3   OH227887   5.897   6.873   1.836  0.0509 -0.3804  0.1501
 9315TIP3    H127888   5.940   6.799   1.792 -0.6847 -0.3315 -0.6649
 9315TIP3    H227889   5.828   6.900   1.776 -0.3885  0.2761  0.9362
 9316TIP3   OH227890   7.901   0.343   2.582  0.0335 -0.7584  0.2729
 9316TIP3    H127891   7.866   0.261   2.546 -0.1252 -0.3239 -0.5773
 9316TIP3    H227892   7.962   0.315   2.650 -0.5412 -1.5705  0.4658
 9317TIP3   OH227893   0.792   0.717   5.025  0.2875 -0.1706 -0.5314
 9317TIP3    H127894   0.711   0.765   5.005 -0.3042 -1.8247 -2.3000
 9317TIP3    H227895   0.783   0.692   5.117 -0.2534  1.4639 -0.1220
 9318TIP3   OH227896   7.529   0.067   2.980 -0.1792  0.4073 -0.6337
 9318TIP3    H127897   7.550  -0.026   2.989 -0.8122  0.2251 -1.1113
 9318TIP3    H227898   7.592   0.110   3.038 -0.5085 -0.3851  0.3341
 9319TIP3   OH227899   0.045   0.147   2.354  0.2013  0.2137 -0.0948
 9319TIP3    H127900   0.110   0.203   2.396 -1.3514  2.0399 -0.0778
 9319TIP3    H227901   0.031   0.075   2.417 -0.7898  1.9692  1.7482
 9320TIP3   OH227902   4.862   1.593   4.068 -0.0505 -0.2107  0.0252
 9320TIP3    H127903   4.945   1.630   4.037  0.3744  0.2523  1.6890
 9320TIP3    H227904   4.795   1.646   4.024  0.5316  0.1397 -0.4540
 9321TIP3   OH227905   7.388   7.663   3.290 -0.2293  0.2528 -0.3421
 9321TIP3    H127906   7.431   7.746   3.268 -0.2847  0.6598  1.0323
 9321TIP3    H227907   7.342   7.681   3.371 -1.1944 -0.8110 -0.6407
 9322TIP3   OH227908   6.160   5.856   2.672  0.4068 -0.3246 -0.1407
 9322TIP3    H127909   6.161   5.947   2.701  0.2519 -0.6195  0.8099
 9322TIP3    H227910   6.110   5.858   2.590 -0.2486  0.3356  0.2624
 9323TIP3   OH227911   7.309   7.640   3.779  0.0395 -0.3426  0.5163
 9323TIP3    H127912   7.383   7.698   3.798 -0.6617  0.0615  2.1430
 9323TIP3    H227913   7.274   7.671   3.696  1.8567 -0.7162 -0.4170
 9324TIP3   OH227914   4.037   7.876   4.609 -0.2518  0.0566 -0.3243
 9324TIP3    H127915   4.077   7.856   4.694 -0.7149  1.8767  0.3439
 9324TIP3    H227916   3.992   7.795   4.585  0.3417 -0.6602  0.9131
 9325TIP3   OH227917   6.172   7.369   2.060  0.2646 -0.5749  0.3914
 9325TIP3    H127918   6.150   7.443   2.116 -0.7491 -0.1047 -0.5990
 9325TIP3    H227919   6.089   7.323   2.048  0.8288 -1.6961  0.7480
 9326TIP3   OH227920   7.621   0.643   3.739  0.0449  0.6391  0.0748
 9326TIP3    H127921   7.591   0.705   3.671 -0.0950  1.1262  0.5765
 9326TIP3    H227922   7.672   0.697   3.799  0.1574  0.2052  0.3638
 9327TIP3   OH227923   0.879   0.150   2.083  0.0005  0.1834  0.3823
 9327TIP3    H127924   0.962   0.196   2.098  1.2640 -2.0721  0.5151
 9327TIP3    H227925   0.905   0.060   2.063 -2.4359 -0.5801  0.5546
 9328TIP3   OH227926   6.098   7.254   3.587 -0.1861  0.5627  0.1366
 9328TIP3    H127927   6.133   7.321   3.529  0.9092  2.4833  2.9458
 9328TIP3    H227928   6.172   7.195   3.603 -0.8760 -0.8045 -1.5100
 9329TIP3   OH227929   5.351   5.730   2.783 -0.5668  0.5088  0.2330
 9329TIP3    H127930   5.353   5.701   2.692  0.3592  0.0339  0.4037
 9329TIP3    H227931   5.259   5.748   2.800 -0.6051  1.7913 -1.1778
 9330TIP3   OH227932   2.569   0.663   1.167  0.2350 -0.4686 -0.3547
 9330TIP3    H127933   2.554   0.740   1.111 -1.5973 -1.0007 -0.6143
 9330TIP3    H227934   2.597   0.594   1.106 -0.2591 -0.6208 -0.4080
 9331TIP3   OH227935   6.066   7.443   1.517  0.5102  0.5630 -0.0082
 9331TIP3    H127936   6.008   7.422   1.590  0.7700  2.0565  0.6381
 9331TIP3    H227937   6.121   7.515   1.549  0.1075  1.7667 -1.9333
 9332TIP3   OH227938   1.074   1.756   2.050  0.2182 -0.1575 -0.4257
 9332TIP3    H127939   1.076   1.849   2.073  0.3859 -0.0994 -0.6737
 9332TIP3    H227940   1.102   1.710   2.129 -0.4967 -0.0342 -0.0952
 9333TIP3   OH227941   5.552   7.607   2.525  0.2280  0.4552 -0.1247
 9333TIP3    H127942   5.588   7.530   2.481 -1.4523 -0.3040 -0.2196
 9333TIP3    H227943   5.462   7.613   2.494  0.1254  2.0709  0.4107
 9334TIP3   OH227944   5.961   7.784   2.436  0.6649 -0.5347 -0.4543
 9334TIP3    H127945   5.880   7.835   2.440 -0.6613 -2.6969  2.0804
 9334TIP3    H227946   5.990   7.778   2.527  2.6469 -1.4501 -1.1039
 9335TIP3   OH227947   0.054   0.052   2.671 -0.2449  0.2268 -0.2858
 9335TIP3    H127948  -0.020   0.112   2.671  0.1861  0.7622 -0.0036
 9335TIP3    H227949   0.095   0.064   2.757 -0.2454 -0.5777 -0.1689
 9336TIP3   OH227950   5.122   7.220   1.882 -0.0735  0.3149 -0.0622
 9336TIP3    H127951   5.197   7.178   1.841  0.6512  3.4718 -2.1857
 9336TIP3    H227952   5.160   7.283   1.943 -0.9982  1.6083 -0.7989
 9337TIP3   OH227953   0.804   1.646   3.099 -0.1762  0.2613 -0.2012
 9337TIP3    H127954   0.856   1.618   3.174 -0.1834 -0.5655 -0.4989
 9337TIP3    H227955   0.728   1.587   3.099  0.5140 -0.6623 -1.6500
 9338TIP3   OH227956   0.357   0.723   1.687  0.5652 -0.0296  0.1824
 9338TIP3    H127957   0.359   0.773   1.606  0.6990  3.0265  2.0053
 9338TIP3    H227958   0.383   0.634   1.661  0.4519  0.8290 -3.1027
 9339TIP3   OH227959   1.686   1.939   6.684 -0.3189  0.2960  0.0556
 9339TIP3    H127960   1.773   1.900   6.679 -0.9806 -1.3270  0.8320
 9339TIP3    H227961   1.626   1.866   6.668 -1.5711  1.1542  0.7635
 9340TIP3   OH227962   0.849   0.385   4.786 -0.5192  0.1453 -0.6363
 9340TIP3    H127963   0.868   0.382   4.880  1.5618  2.4190 -0.9398
 9340TIP3    H227964   0.923   0.340   4.745 -1.6487 -1.2581 -1.2007
 9341TIP3   OH227965   6.200   0.544   5.453  0.1535  0.8599  0.2028
 9341TIP3    H127966   6.181   0.635   5.433  0.1075  0.8433  0.1698
 9341TIP3    H227967   6.182   0.497   5.372 -0.1232  0.7802  0.3073
 9342TIP3   OH227968   6.663   0.363   2.556 -0.3039  0.0285  0.0894
 9342TIP3    H127969   6.707   0.380   2.473  1.4890 -0.2296  0.9633
 9342TIP3    H227970   6.685   0.272   2.577 -1.4375 -0.1746  0.4349
 9343TIP3   OH227971   0.977   0.038   1.686  0.2036 -0.4034  0.3958
 9343TIP3    H127972   1.038   0.112   1.686 -1.4358  0.9731  1.2675
 9343TIP3    H227973   1.031  -0.037   1.711  1.4963  0.8145  1.3331
 9344TIP3   OH227974   7.287   1.200   6.289  0.1669 -0.6754  0.0338
 9344TIP3    H127975   7.248   1.206   6.202 -0.1290 -0.9334  0.1474
 9344TIP3    H227976   7.235   1.260   6.342  0.6635 -0.1408 -0.0814
 9345TIP3   OH227977   4.181   6.943   4.471 -0.0917  0.2787 -0.2813
 9345TIP3    H127978   4.183   7.003   4.396 -0.3326  1.3737  0.5733
 9345TIP3    H227979   4.146   6.861   4.435 -2.6297  1.5518 -0.8682
 9346TIP3   OH227980   6.367   7.539   3.595  0.7713 -0.8280 -0.5967
 9346TIP3    H127981   6.431   7.478   3.630 -0.5637 -1.0525  1.5810
 9346TIP3    H227982   6.391   7.550   3.503  1.6860 -3.7760 -0.7462
 9347TIP3   OH227983   6.152   7.770   4.787  0.3236 -0.2326 -0.7178
 9347TIP3    H127984   6.141   7.863   4.766  1.9396  0.0126 -0.4945
 9347TIP3    H227985   6.246   7.755   4.785  0.1874 -1.4876  0.8595
 9348TIP3   OH227986   0.787   2.345   1.911 -0.3397 -0.2652 -0.0517
 9348TIP3    H127987   0.818   2.416   1.967 -0.6448 -2.2142  2.7148
 9348TIP3    H227988   0.695   2.336   1.933  0.1847 -2.9249  1.3222
 9349TIP3   OH227989   4.621   6.389   2.832  0.5024 -0.2831  0.7834
 9349TIP3    H127990   4.653   6.349   2.913  0.8404  0.4246  1.0079
 9349TIP3    H227991   4.577   6.318   2.786  0.7129 -0.8055  1.3739
 9350TIP3   OH227992   3.988   7.410   3.958 -0.2180 -0.1929 -0.1825
 9350TIP3    H127993   3.967   7.320   3.935 -1.9610  0.2177 -0.2530
 9350TIP3    H227994   3.946   7.425   4.042  1.0512  0.2102  0.4028
 9351TIP3   OH227995   7.388   0.489   3.237 -0.2438 -0.1487 -0.4151
 9351TIP3    H127996   7.387   0.421   3.169  0.3190 -0.5989  0.0202
 9351TIP3    H227997   7.465   0.468   3.290 -1.9908 -1.1581  1.7735
 9352TIP3   OH227998   7.556   1.112   2.393 -0.2705  0.9575  0.1577
 9352TIP3    H127999   7.543   1.045   2.461  0.5205 -0.1641 -0.7763
 9352TIP3    H228000   7.610   1.179   2.436  0.8966 -0.1227  0.4316
 9353TIP3   OH228001   3.832   6.881   4.459 -0.2174  0.3501  0.1542
 9353TIP3    H128002   3.871   6.961   4.425  2.1013 -0.5860  0.5134
 9353TIP3    H228003   3.837   6.890   4.554  1.9306 -1.0319  0.2229
 9354TIP3   OH228004   0.169   1.176   3.243  0.4595 -0.0743  0.6964
 9354TIP3    H128005   0.085   1.161   3.200  0.6599  0.2206  0.1918
 9354TIP3    H228006   0.147   1.195   3.334 -0.0312  0.1276  0.5369
 9355TIP3   OH228007   7.420   0.138   5.057  0.6125  0.7221 -0.1839
 9355TIP3    H128008   7.436   0.174   5.144 -1.9689  1.4458  0.0364
 9355TIP3    H228009   7.502   0.095   5.033  1.5378  1.0080  2.3487
 9356TIP3   OH228010   6.676   6.525   3.010  0.3471 -0.4071  0.0204
 9356TIP3    H128011   6.609   6.486   2.954 -0.9566  1.9202 -0.1119
 9356TIP3    H228012   6.635   6.532   3.096  0.1429  1.6136 -0.2106
 9357TIP3   OH228013   6.453   6.183   5.222 -0.2870  0.1456  0.9384
 9357TIP3    H128014   6.399   6.245   5.271 -1.0239 -0.9460  1.5450
 9357TIP3    H228015   6.458   6.220   5.134 -0.0441  1.4574  1.4941
 9358TIP3   OH228016   1.497   6.403   2.347 -0.2140  0.3500 -0.6006
 9358TIP3    H128017   1.410   6.371   2.320  0.3485  0.2929 -2.4378
 9358TIP3    H228018   1.487   6.498   2.352 -0.2432  0.3962 -1.3970
 9359TIP3   OH228019   4.779   7.240   3.490 -0.4104  0.2271  0.5556
 9359TIP3    H128020   4.694   7.199   3.477 -0.0208 -0.4994  0.3387
 9359TIP3    H228021   4.823   7.185   3.555  1.3601 -1.5421 -2.0504
 9360TIP3   OH228022   5.523   7.292   5.180 -0.3190 -0.0847  0.2183
 9360TIP3    H128023   5.500   7.377   5.143 -0.0530  0.2331  0.7689
 9360TIP3    H228024   5.615   7.280   5.157  0.5023  1.1424  2.6433
 9361TIP3   OH228025   8.082   0.064   3.282  0.9344 -0.3687 -0.2281
 9361TIP3    H128026   8.075   0.125   3.208 -1.0975  1.7329  1.6141
 9361TIP3    H228027   8.010   0.002   3.268  0.8634 -0.2708 -0.2987
 9362TIP3   OH228028   6.075   7.856   3.222 -1.0068  1.1173  0.4304
 9362TIP3    H128029   6.106   7.798   3.153 -1.6869  0.6648  0.4960
 9362TIP3    H228030   6.149   7.862   3.283 -0.2324  1.9022 -0.5592
 9363TIP3   OH228031   5.353   6.156   4.435  0.0677 -0.2216 -0.5713
 9363TIP3    H128032   5.440   6.196   4.435  0.1350 -0.3706 -0.7116
 9363TIP3    H228033   5.308   6.198   4.361 -0.6534  1.3356  0.7106
 9364TIP3   OH228034   2.541   6.157   2.327 -0.0188 -0.2805  0.2475
 9364TIP3    H128035   2.452   6.186   2.347 -0.2665  0.0586 -1.2399
 9364TIP3    H228036   2.592   6.237   2.320  0.3238 -0.4559  0.7678
 9365TIP3   OH228037   4.893   7.745   3.608 -0.1124 -0.2318 -0.4869
 9365TIP3    H128038   4.905   7.836   3.635 -0.5065  0.1360 -1.5094
 9365TIP3    H228039   4.970   7.725   3.556  0.0158 -0.5137 -0.1902
 9366TIP3   OH228040   4.192   5.221   1.746  0.1315 -0.1643 -0.1891
 9366TIP3    H128041   4.227   5.305   1.715  1.9351 -0.8732 -0.1926
 9366TIP3    H228042   4.216   5.218   1.838  2.0763 -1.5989 -0.6925
 9367TIP3   OH228043   4.918   7.269   2.865 -0.0474 -0.8909  0.0097
 9367TIP3    H128044   5.014   7.264   2.862 -0.0270 -0.0382 -0.9371
 9367TIP3    H228045   4.900   7.352   2.910 -0.3559 -1.5273  1.0926
 9368TIP3   OH228046   0.430   0.234   3.706 -0.4127  0.4960 -0.0693
 9368TIP3    H128047   0.341   0.202   3.691 -0.3358 -0.2473  1.0574
 9368TIP3    H228048   0.470   0.170   3.764  0.8074  0.9261 -0.4155
 9369TIP3   OH228049   0.539   1.927   3.105  0.0321  0.4961 -0.0470
 9369TIP3    H128050   0.500   1.983   3.171  0.1514  0.1289  0.3393
 9369TIP3    H228051   0.559   1.845   3.151  2.1091  0.9903  0.0120
 9370TIP3   OH228052   7.991   0.067   5.145  0.1598 -0.2735 -0.3553
 9370TIP3    H128053   7.953   0.041   5.229 -1.1090  3.0919  0.2260
 9370TIP3    H228054   8.054   0.136   5.168 -0.8644  1.3409 -2.1922
 9371TIP3   OH228055   6.103   6.931   4.446  0.3394  0.7641  0.4467
 9371TIP3    H128056   6.101   7.009   4.390  1.4576  0.2050 -0.3944
 9371TIP3    H228057   6.032   6.945   4.509 -0.0743  2.0263 -0.2753
 9372TIP3   OH228058   1.925   0.073   3.663 -0.2191 -0.0068 -0.0179
 9372TIP3    H128059   1.950   0.133   3.593 -0.8217 -0.0977 -0.3191
 9372TIP3    H228060   2.005   0.059   3.713  0.2400 -0.0014 -0.7433
 9373TIP3   OH228061   5.707   6.713   2.013 -0.4577 -0.3683 -0.4451
 9373TIP3    H128062   5.771   6.765   1.965 -0.7201  0.8556  0.4904
 9373TIP3    H228063   5.736   6.623   2.002  1.6818  0.1870  0.2841
 9374TIP3   OH228064   7.979   0.066   4.647 -0.7990 -0.3421 -0.2120
 9374TIP3    H128065   7.999   0.020   4.728 -0.8922  1.2883  0.7463
 9374TIP3    H228066   8.018   0.012   4.578  0.1556 -1.2063  0.9961
 9375TIP3   OH228067   5.533   7.185   1.335  0.1081  0.0432  0.2099
 9375TIP3    H128068   5.441   7.209   1.340  0.1610  0.1583  0.6745
 9375TIP3    H228069   5.545   7.151   1.246 -0.6848 -1.2078  0.5741
 9376TIP3   OH228070   5.964   7.884   2.704  0.1357 -0.6257 -0.6216
 9376TIP3    H128071   6.037   7.945   2.709  0.1520 -0.7968  3.6718
 9376TIP3    H228072   5.890   7.936   2.674  1.0890  0.5424 -0.9669
 9377TIP3   OH228073   4.077   6.251   4.249 -0.3748 -0.1266 -0.2018
 9377TIP3    H128074   4.080   6.177   4.188  1.0565  0.5779 -1.0262
 9377TIP3    H228075   4.108   6.216   4.332 -1.8387 -0.9794 -0.0208
 9378TIP3   OH228076   0.818   0.387   1.680  0.2298 -0.6210 -0.6866
 9378TIP3    H128077   0.794   0.455   1.743  0.5307 -1.4519  0.3465
 9378TIP3    H228078   0.760   0.402   1.606 -0.0427  0.4609 -0.2654
 9379TIP3   OH228079   7.747   7.909   1.754 -0.2241 -0.0453  0.1009
 9379TIP3    H128080   7.684   7.934   1.685  0.8571  0.8377 -0.5813
 9379TIP3    H228081   7.776   7.822   1.729 -0.1502  0.1022 -0.3371
 9380TIP3   OH228082   6.585   7.303   3.263  0.2367  0.0852  0.1162
 9380TIP3    H128083   6.675   7.334   3.252  1.4707 -2.5831  2.0885
 9380TIP3    H228084   6.595   7.214   3.296 -3.1529 -0.7875 -1.0241
 9381TIP3   OH228085   4.959   4.894   3.546 -0.1734 -0.1143 -0.7128
 9381TIP3    H128086   4.959   4.836   3.622  0.6620  0.6738 -0.0986
 9381TIP3    H228087   5.050   4.898   3.518 -0.0435  1.6778 -0.1241
 9382TIP3   OH228088   4.738   7.516   4.230 -0.1447 -0.1228  0.9075
 9382TIP3    H128089   4.661   7.485   4.277 -0.2534 -0.2663  0.6346
 9382TIP3    H228090   4.725   7.487   4.140  1.0504 -1.7004  1.1974
 9383TIP3   OH228091   2.167   0.210   1.309  0.0782 -0.2334 -0.3697
 9383TIP3    H128092   2.242   0.178   1.260  0.0509  0.5700 -0.9612
 9383TIP3    H228093   2.200   0.285   1.359 -0.2419 -0.0969 -0.3572
 9384TIP3   OH228094   0.788   1.660   4.703  0.0519 -0.6863 -0.4224
 9384TIP3    H128095   0.710   1.713   4.688  1.6559  2.1574  0.8824
 9384TIP3    H228096   0.844   1.676   4.627  0.5649 -0.4747 -0.0059
 9385TIP3   OH228097   6.866   0.593   4.659  0.2202  0.7449  0.2748
 9385TIP3    H128098   6.862   0.507   4.617  1.8798  0.9508 -0.3541
 9385TIP3    H228099   6.853   0.655   4.587 -1.9725  1.0310  0.8728
 9386TIP3   OH228100   5.183   5.966   1.942 -0.0246  0.2212 -0.2652
 9386TIP3    H128101   5.186   6.030   1.871  0.8448  1.8604  1.1993
 9386TIP3    H228102   5.266   5.978   1.988 -1.0146 -0.0934  1.6369
 9387TIP3   OH228103   0.379   0.094   1.122  0.1543 -0.6995  0.2840
 9387TIP3    H128104   0.448   0.103   1.188 -0.0332 -0.7131  0.4822
 9387TIP3    H228105   0.300   0.073   1.172  0.1210 -1.2286  0.0102
 9388TIP3   OH228106   2.822   6.129   1.472 -0.5082 -0.8067  0.5403
 9388TIP3    H128107   2.774   6.161   1.395 -1.6271 -1.0172  1.1474
 9388TIP3    H228108   2.816   6.034   1.466  0.1584 -0.8412  0.4152
 9389TIP3   OH228109   7.838   0.437   5.197 -0.0192 -0.2339  0.1771
 9389TIP3    H128110   7.910   0.414   5.256 -0.5481 -2.0516  0.1579
 9389TIP3    H228111   7.866   0.405   5.112 -1.3062 -2.0457  0.3829
 9390TIP3   OH228112   4.935   7.299   2.084 -0.4656 -0.4066  0.4937
 9390TIP3    H128113   4.921   7.214   2.125  0.1582  0.8204  3.3342
 9390TIP3    H228114   5.019   7.291   2.039  0.1240 -0.9370  1.6972
 9391TIP3   OH228115   4.480   7.346   4.252 -0.2453 -0.5709 -0.1349
 9391TIP3    H128116   4.441   7.361   4.338 -0.6702 -0.9314 -0.2638
 9391TIP3    H228117   4.518   7.258   4.257 -0.8126 -0.8381 -0.5193
 9392TIP3   OH228118   1.547   0.742   5.375  0.2961  0.3610  0.7486
 9392TIP3    H128119   1.558   0.818   5.432  3.9523  0.4842 -0.0369
 9392TIP3    H228120   1.511   0.778   5.294  0.5450  1.0433  0.9381
 9393TIP3   OH228121   0.393   0.352   4.030  0.0241  0.3248 -0.2383
 9393TIP3    H128122   0.316   0.402   4.059  1.2409  1.6459  0.7889
 9393TIP3    H228123   0.418   0.394   3.948 -0.5024 -0.2771 -0.7098
 9394TIP3   OH228124   1.311   5.057   5.442  0.5857  0.1623 -0.5048
 9394TIP3    H128125   1.293   5.151   5.447  1.6887  0.3875 -0.4573
 9394TIP3    H228126   1.233   5.015   5.477  0.6215  1.1035  0.7117
 9395TIP3   OH228127   6.750   0.369   2.296  0.4408  0.0609  0.6573
 9395TIP3    H128128   6.685   0.417   2.245 -0.1956 -0.8613  0.5865
 9395TIP3    H228129   6.834   0.391   2.256  0.0759  0.5005  0.1379
 9396TIP3   OH228130   4.548   7.862   2.487  0.0365 -0.1914 -0.1422
 9396TIP3    H128131   4.636   7.889   2.514  0.1281 -0.5312 -0.1018
 9396TIP3    H228132   4.548   7.872   2.392 -0.2943  1.0261 -0.0224
 9397TIP3   OH228133   6.934   6.641   3.013  0.0944 -0.3266 -0.3106
 9397TIP3    H128134   6.994   6.574   2.979  0.2080  0.2296 -1.2249
 9397TIP3    H228135   6.849   6.618   2.975 -0.3310 -1.2327  1.1482
 9398TIP3   OH228136   4.742   7.769   4.569  0.1497  0.2265  0.2513
 9398TIP3    H128137   4.810   7.762   4.636  0.6319  0.6398 -0.1920
 9398TIP3    H228138   4.786   7.807   4.494 -0.0009 -1.7636 -0.8736
 9399TIP3   OH228139   7.779   1.946   4.493 -0.3692 -0.9315 -0.6919
 9399TIP3    H128140   7.704   1.976   4.443 -0.3870 -0.0919 -0.1669
 9399TIP3    H228141   7.814   2.025   4.535  0.1213 -1.4931 -0.0227
 9400TIP3   OH228142   5.961   6.257   3.026  0.7945 -0.1761 -0.5202
 9400TIP3    H128143   5.931   6.348   3.025 -1.5801 -0.8916  0.4494
 9400TIP3    H228144   5.947   6.227   2.936 -1.3187 -0.4206 -0.1481
 9401TIP3   OH228145   3.598   8.004   2.838  0.5702 -0.0729 -0.2461
 9401TIP3    H128146   3.538   8.048   2.777  0.3523 -0.2898 -0.1937
 9401TIP3    H228147   3.630   7.928   2.788 -0.5623 -0.9490  0.3247
 9402TIP3   OH228148   7.435   0.229   1.309 -0.1892  0.1721  0.5565
 9402TIP3    H128149   7.407   0.213   1.219 -0.7948 -1.7143  1.0466
 9402TIP3    H228150   7.435   0.324   1.318 -1.4572  0.3475 -1.0203
 9403TIP3   OH228151   0.030   2.118   4.005  0.3286 -0.7190  0.0355
 9403TIP3    H128152  -0.005   2.046   3.952 -2.1001  1.1216 -0.9623
 9403TIP3    H228153   0.006   2.197   3.957 -0.2261  0.9355  2.9021
 9404TIP3   OH228154   4.289   7.980   4.852  0.7386 -0.0548  0.0389
 9404TIP3    H128155   4.297   8.061   4.802  2.0124 -0.9094 -1.1875
 9404TIP3    H228156   4.368   7.931   4.829 -0.7434 -2.2858 -0.3815
 9405TIP3   OH228157   5.798   6.881   2.683 -0.2385 -0.7460 -0.1908
 9405TIP3    H128158   5.889   6.858   2.661 -0.3932 -1.6782  0.1121
 9405TIP3    H228159   5.756   6.895   2.598  0.2206 -0.2005 -0.3288
 9406TIP3   OH228160   4.439   4.962   1.923  0.4859  0.3184 -0.1507
 9406TIP3    H128161   4.478   4.883   1.886 -0.1811 -0.2385  0.3307
 9406TIP3    H228162   4.364   4.931   1.974 -0.2458  1.3232 -0.5795
 9407TIP3   OH228163   5.438   0.609   2.745 -0.2447  0.0265 -0.2555
 9407TIP3    H128164   5.451   0.536   2.806 -0.4069 -0.1973 -0.4845
 9407TIP3    H228165   5.343   0.620   2.740 -0.2261  0.1638 -0.3270
 9408TIP3   OH228166   5.410   7.372   4.460  0.4214  0.0777 -0.0664
 9408TIP3    H128167   5.319   7.402   4.454  0.0932 -1.0167 -0.7325
 9408TIP3    H228168   5.462   7.452   4.456 -0.5129  0.7133  0.3009
 9409TIP3   OH228169   7.705   2.132   3.398 -0.5047  0.0066 -0.3083
 9409TIP3    H128170   7.716   2.225   3.380  0.2897 -0.1238 -0.5337
 9409TIP3    H228171   7.672   2.096   3.316  0.1416 -0.0683 -0.5437
 9410TIP3   OH228172   8.019   0.402   4.728  0.2359  0.3361  0.0243
 9410TIP3    H128173   7.960   0.473   4.753  0.5410  0.5655  0.0890
 9410TIP3    H228174   8.107   0.437   4.742  0.3947  0.1524 -0.5026
 9411TIP3   OH228175   5.832   5.298   1.735 -0.2426  0.1265 -0.1698
 9411TIP3    H128176   5.854   5.347   1.814 -0.2327 -0.7940  0.4103
 9411TIP3    H228177   5.856   5.356   1.663 -0.8560  1.2452  0.5024
 9412TIP3   OH228178   0.370   0.613   4.481  0.4201  0.0061 -0.3300
 9412TIP3    H128179   0.452   0.657   4.459  1.0825  0.9637  3.7139
 9412TIP3    H228180   0.302   0.678   4.461  0.8509  0.2507 -1.0136
 9413TIP3   OH228181   1.188   2.859   5.495 -0.3552  0.0404  0.0628
 9413TIP3    H128182   1.209   2.936   5.442 -0.4821  0.6799  0.9273
 9413TIP3    H228183   1.148   2.798   5.434 -1.8068  1.3182 -0.3029
 9414TIP3   OH228184   7.461   7.632   1.762 -0.2103  0.5986 -0.0828
 9414TIP3    H128185   7.432   7.626   1.854 -1.2880 -0.1446 -0.4568
 9414TIP3    H228186   7.429   7.717   1.733 -1.5972  0.0015 -0.3386
 9415TIP3   OH228187   6.739   1.559   5.305 -0.1503 -0.2141 -0.8796
 9415TIP3    H128188   6.646   1.550   5.287 -0.0163 -1.8601 -0.8778
 9415TIP3    H228189   6.752   1.514   5.389  0.4065  1.2652 -0.1573
 9416TIP3   OH228190   1.549   0.256   4.696  0.1197 -0.1811  0.2891
 9416TIP3    H128191   1.468   0.305   4.709 -0.5892 -1.6126  1.4063
 9416TIP3    H228192   1.597   0.306   4.630 -1.8712  0.4492 -0.7229
 9417TIP3   OH228193   5.824   7.119   4.650  0.1732  0.3961  0.6110
 9417TIP3    H128194   5.737   7.095   4.617  0.4557 -0.4852  0.4905
 9417TIP3    H228195   5.807   7.154   4.737 -0.1709 -1.1461  1.1819
 9418TIP3   OH228196   0.678   0.457   4.572 -0.6546  0.7911  0.4396
 9418TIP3    H128197   0.737   0.461   4.647  0.6832  1.3509 -0.6297
 9418TIP3    H228198   0.592   0.478   4.609  0.0767  1.6206  1.7165
 9419TIP3   OH228199   1.603   0.963   6.102  0.4669  0.0223 -0.1356
 9419TIP3    H128200   1.671   0.907   6.140 -0.5933 -2.1118 -1.2933
 9419TIP3    H228201   1.535   0.902   6.075 -0.4800  1.8472 -1.9611
 9420TIP3   OH228202   7.404   2.471   5.034 -0.7118 -0.2148  0.1676
 9420TIP3    H128203   7.406   2.419   5.115 -1.8132 -0.6906 -0.1101
 9420TIP3    H228204   7.345   2.544   5.054  0.3985  0.6344  0.3730
 9421TIP3   OH228205   4.577   5.555   4.138 -0.4212  0.2374 -0.0206
 9421TIP3    H128206   4.576   5.645   4.170 -1.4899  0.1110  0.3209
 9421TIP3    H228207   4.632   5.508   4.201  1.0773  0.8757 -0.8418
 9422TIP3   OH228208   4.604   7.612   6.239 -0.0283  0.4449 -0.2090
 9422TIP3    H128209   4.692   7.578   6.224  0.3872  1.3945  0.0428
 9422TIP3    H228210   4.612   7.706   6.226 -0.8927  0.6028  0.3407
 9423TIP3   OH228211   3.713   7.564   3.106  0.5597  0.4525  0.3096
 9423TIP3    H128212   3.665   7.521   3.035 -1.1724  2.6646  0.0864
 9423TIP3    H228213   3.761   7.493   3.148  0.0098 -1.2357 -1.7821
 9424TIP3   OH228214   8.271   0.579   5.644  0.7455 -0.3727  0.7260
 9424TIP3    H128215   8.200   0.604   5.703  0.4296 -1.3034  0.7515
 9424TIP3    H228216   8.238   0.601   5.557  1.2438  1.0733  0.8888
 9425TIP3   OH228217   7.057   1.324   3.004 -0.9128  0.4576 -0.1904
 9425TIP3    H128218   7.145   1.307   3.039 -0.6586  1.3178 -0.3923
 9425TIP3    H228219   7.072   1.386   2.933 -1.8568  1.8932  0.8512
 9426TIP3   OH228220   7.149   6.769   2.566 -0.2741  0.0743 -0.1375
 9426TIP3    H128221   7.073   6.798   2.617 -0.0846  0.5063 -0.1072
 9426TIP3    H228222   7.130   6.797   2.476 -0.3983 -0.2933 -0.2301
 9427TIP3   OH228223   0.581   0.298   1.512  0.1825 -0.1808  0.1779
 9427TIP3    H128224   0.584   0.237   1.586  1.3339 -0.0441  0.2393
 9427TIP3    H228225   0.606   0.245   1.437  0.3051 -0.0004  0.0915
 9428TIP3   OH228226   7.805   0.341   2.017  0.1833  0.0885  0.2864
 9428TIP3    H128227   7.839   0.310   2.101  1.3236  1.4063  0.3176
 9428TIP3    H228228   7.860   0.298   1.952  2.2026  2.4620  0.3436
 9429TIP3   OH228229   0.619   0.126   1.276 -0.3653  0.4876 -0.6327
 9429TIP3    H128230   0.703   0.091   1.303 -1.1906 -0.8801  0.2347
 9429TIP3    H228231   0.638   0.174   1.195  1.3677  0.9006  0.0054
 9430TIP3   OH228232   6.189   7.128   2.750 -0.1363  0.1721 -0.2602
 9430TIP3    H128233   6.222   7.151   2.663 -0.3870  0.4648 -0.2794
 9430TIP3    H228234   6.160   7.038   2.742 -1.0909  0.5209 -0.7527
 9431TIP3   OH228235   0.404   1.029   3.450  0.1312  0.3818  0.1570
 9431TIP3    H128236   0.409   0.957   3.387 -1.0272 -0.2615  0.7730
 9431TIP3    H228237   0.333   1.084   3.418  0.4268  0.7723  0.1756
 9432TIP3   OH228238   0.753   2.517   4.028  0.5504 -0.3103  0.6064
 9432TIP3    H128239   0.681   2.496   4.088  0.1378 -0.4694  0.0607
 9432TIP3    H228240   0.795   2.433   4.011 -0.1366 -0.4750 -0.3438
 9433TIP3   OH228241   5.891   7.581   1.192  0.3976 -0.1669 -0.0785
 9433TIP3    H128242   5.834   7.528   1.247 -2.2066  0.0293 -2.5000
 9433TIP3    H228243   5.980   7.558   1.221 -0.8220 -1.7861  2.5521
 9434TIP3   OH228244   6.160   6.202   3.215 -0.1923 -0.0387  0.0942
 9434TIP3    H128245   6.085   6.237   3.166  0.6272  0.9434 -0.4565
 9434TIP3    H228246   6.228   6.268   3.205  0.7851 -0.9827  0.5242
 9435TIP3   OH228247   7.027   7.711   2.374 -0.0609 -0.0521 -0.0085
 9435TIP3    H128248   7.096   7.646   2.385  1.7882  1.4622 -2.1168
 9435TIP3    H228249   7.038   7.770   2.448 -0.6920 -1.1872  1.0100
 9436TIP3   OH228250   6.808   7.319   1.921  0.3629  0.4514  0.4405
 9436TIP3    H128251   6.890   7.271   1.909  0.9687  1.8322 -1.0863
 9436TIP3    H228252   6.766   7.276   1.996  1.6223 -1.4311  0.1053
 9437TIP3   OH228253   6.015   0.705   4.347 -0.1472 -0.7043 -0.6450
 9437TIP3    H128254   6.106   0.733   4.344  0.0509 -1.3395 -0.6759
 9437TIP3    H228255   6.019   0.615   4.379 -0.7780 -0.6605 -0.4385
 9438TIP3   OH228256   6.337   7.959   3.141  0.6875  0.0197  1.0871
 9438TIP3    H128257   6.421   7.982   3.180  1.2020 -0.6933  0.4373
 9438TIP3    H228258   6.351   7.870   3.108  0.2661  0.5916 -0.6650
 9439TIP3   OH228259   1.817   1.375   2.377 -0.1518 -0.1010  0.5130
 9439TIP3    H128260   1.758   1.302   2.394  0.9774 -0.6054  2.3867
 9439TIP3    H228261   1.809   1.431   2.454  0.7595  0.5336  0.1527
 9440TIP3   OH228262   6.466   1.520   5.305  0.1872  0.0560  0.1358
 9440TIP3    H128263   6.481   1.604   5.348  1.1292  1.3931 -2.6605
 9440TIP3    H228264   6.380   1.529   5.263 -0.1196 -0.7389  0.5648
 9441TIP3   OH228265   4.017   7.574   3.160  0.2247  0.0897  0.4114
 9441TIP3    H128266   4.029   7.624   3.079  0.6877  1.0442  1.0512
 9441TIP3    H228267   3.956   7.627   3.211 -1.3670 -1.3214  0.0275
 9442TIP3   OH228268   8.170   6.650   2.679  0.0226  0.3887  0.2656
 9442TIP3    H128269   8.163   6.736   2.720  2.2447  0.5107  0.4703
 9442TIP3    H228270   8.193   6.591   2.751 -0.4332 -0.1741 -0.0519
 9443TIP3   OH228271   1.402   0.493   2.640 -0.1996  0.3049  0.1212
 9443TIP3    H128272   1.490   0.523   2.664  0.3876 -0.6431 -0.8432
 9443TIP3    H228273   1.405   0.398   2.649 -0.2574 -0.0028 -2.6636
 9444TIP3   OH228274   4.269   7.810   2.678  0.0793  0.0756 -0.1852
 9444TIP3    H128275   4.200   7.788   2.740 -0.6191  0.7448 -0.7057
 9444TIP3    H228276   4.238   7.891   2.636  1.5820  0.8666  0.1975
 9445TIP3   OH228277   6.503   6.729   4.906 -0.0456 -0.2911  0.4873
 9445TIP3    H128278   6.542   6.715   4.992  0.6276 -2.0583 -0.1045
 9445TIP3    H228279   6.571   6.774   4.856 -0.2465  0.2617  0.7074
 9446TIP3   OH228280   7.867   6.521   3.636  0.4138 -0.0165 -0.2362
 9446TIP3    H128281   7.955   6.508   3.672 -0.4014 -0.2214  1.7587
 9446TIP3    H228282   7.880   6.577   3.559  2.4862 -1.5741 -1.0513
 9447TIP3   OH228283   5.779   7.210   4.102 -0.1899 -0.3807  0.1494
 9447TIP3    H128284   5.758   7.240   4.191  0.6016 -0.1284  0.2570
 9447TIP3    H228285   5.770   7.115   4.106  2.1231 -0.5996  1.1439
 9448TIP3   OH228286   6.256   7.226   5.012 -0.0715  0.6400 -0.4681
 9448TIP3    H128287   6.256   7.131   5.010  0.4048  0.6384 -0.4200
 9448TIP3    H228288   6.321   7.252   4.946 -1.7346  0.9715 -2.0227
 9449TIP3   OH228289   6.934   6.911   2.926 -0.5224 -0.1812 -0.0737
 9449TIP3    H128290   6.888   6.944   3.003  2.1209 -0.4799  1.7086
 9449TIP3    H228291   6.942   6.817   2.941  0.6593 -0.1291 -0.3237
 9450TIP3   OH228292   5.332   4.900   2.084  0.2421 -0.4935 -0.2942
 9450TIP3    H128293   5.264   4.898   2.017 -0.3602  2.5888  0.1298
 9450TIP3    H228294   5.412   4.923   2.037  0.1358  0.0396 -0.2257
 9451TIP3   OH228295   3.846   5.673   1.725  0.4608 -0.0310 -0.2312
 9451TIP3    H128296   3.752   5.664   1.711  1.0401 -1.4809 -3.6179
 9451TIP3    H228297   3.870   5.596   1.776 -0.4458  1.3314  2.3376
 9452TIP3   OH228298   6.294   7.840   2.556 -0.2032 -0.0090 -0.3485
 9452TIP3    H128299   6.377   7.888   2.562 -0.1117 -0.0222 -1.3057
 9452TIP3    H228300   6.314   7.753   2.593  0.4389 -0.2820 -1.3084
 9453TIP3   OH228301   4.796   6.292   3.393  0.1366  0.2708 -0.5364
 9453TIP3    H128302   4.790   6.383   3.365 -0.7271  0.6418  0.8152
 9453TIP3    H228303   4.795   6.296   3.489  0.3269 -1.1470 -0.4582
 9454TIP3   OH228304   6.056   7.310   4.710  0.7854  0.2470 -0.1752
 9454TIP3    H128305   5.970   7.268   4.699  0.3834  1.2296 -0.9772
 9454TIP3    H228306   6.040   7.381   4.772  0.7141  1.2046 -1.2545
 9455TIP3   OH228307   5.103   6.898   2.881 -0.7263  0.0918 -0.6249
 9455TIP3    H128308   5.108   6.894   2.785  0.0114 -1.5894 -0.5363
 9455TIP3    H228309   5.191   6.925   2.908 -0.6808 -0.2858 -0.3913
 9456TIP3   OH228310   5.576   6.046   2.263  0.1074  0.3961  0.0498
 9456TIP3    H128311   5.609   6.025   2.176  0.2237 -2.3034  0.7110
 9456TIP3    H228312   5.495   6.094   2.247 -0.1052 -0.4857 -1.5526
 9457TIP3   OH228313   4.608   6.759   5.324  0.2753 -0.3283  0.2039
 9457TIP3    H128314   4.639   6.691   5.264  2.6218  1.4816 -0.7040
 9457TIP3    H228315   4.638   6.730   5.410 -1.9076 -2.2381  0.3760
 9458TIP3   OH228316   5.471   6.293   3.403 -0.0570  0.5729 -0.4907
 9458TIP3    H128317   5.499   6.380   3.431  3.1312  0.2168 -2.4105
 9458TIP3    H228318   5.434   6.307   3.316 -1.1596  0.2594 -0.0736
 9459TIP3   OH228319   1.101   1.318   5.891 -0.0054  0.0598  0.1743
 9459TIP3    H128320   1.086   1.313   5.797 -0.0364  1.1191  0.1179
 9459TIP3    H228321   1.119   1.228   5.917  2.0050  0.0264 -1.1911
 9460TIP3   OH228322   8.383   1.383   4.330 -0.0899  0.1753 -0.5394
 9460TIP3    H128323   8.396   1.299   4.286  0.1640 -0.6659  1.0812
 9460TIP3    H228324   8.301   1.372   4.378  1.5210 -0.3063  2.2072
 9461TIP3   OH228325   5.670   7.921   3.105  0.6775 -0.6021  0.1962
 9461TIP3    H128326   5.617   7.943   3.181  0.5317 -1.2506  0.2821
 9461TIP3    H228327   5.718   7.843   3.131  0.0764 -1.2582 -0.6361
 9462TIP3   OH228328   5.706   7.807   1.502 -0.2206  0.2036 -0.3486
 9462TIP3    H128329   5.799   7.815   1.523 -0.3802 -0.1864  0.5348
 9462TIP3    H228330   5.662   7.812   1.587 -0.9133 -1.1331 -0.6137
 9463TIP3   OH228331   1.306   0.302   1.196 -0.3021  0.3324  0.1865
 9463TIP3    H128332   1.322   0.262   1.281 -1.9600 -0.5466  0.0879
 9463TIP3    H228333   1.213   0.322   1.195  0.1063  2.3323 -0.5849
 9464TIP3   OH228334   0.090   0.912   2.035 -0.3001 -0.2191  0.2858
 9464TIP3    H128335  -0.005   0.903   2.035 -0.5524  1.5485 -3.6211
 9464TIP3    H228336   0.121   0.842   1.977  0.4441  1.5193 -1.4683
 9465TIP3   OH228337   6.698   7.606   2.860 -0.0029 -0.7148  0.3836
 9465TIP3    H128338   6.631   7.669   2.883  0.6045  0.0882 -0.0412
 9465TIP3    H228339   6.774   7.658   2.837  0.5230 -1.5974  0.0762
 9466TIP3   OH228340   2.235   1.073   2.725 -0.4737  0.0872 -0.4620
 9466TIP3    H128341   2.198   1.146   2.776  0.6428 -0.1403  0.7207
 9466TIP3    H228342   2.177   0.999   2.743  0.6603 -0.3379  1.5982
 9467TIP3   OH228343   6.897   7.821   1.989 -0.0378  0.0411  0.1680
 9467TIP3    H128344   6.891   7.729   1.963 -1.0459  0.0537  0.3450
 9467TIP3    H228345   6.972   7.824   2.049  1.7478 -0.1398 -2.0146
 9468TIP3   OH228346   7.016   6.293   3.087  0.2629 -0.6119  0.4474
 9468TIP3    H128347   7.008   6.349   3.010  2.2300 -0.1008  0.5948
 9468TIP3    H228348   7.026   6.205   3.052  1.7660 -0.3097  0.0816
 9469TIP3   OH228349   7.836   7.911   2.393 -0.0813  0.5473  0.0137
 9469TIP3    H128350   7.822   7.985   2.451 -0.4065  0.2153  0.3649
 9469TIP3    H228351   7.858   7.838   2.452 -0.3319  0.2297 -0.2847
 9470TIP3   OH228352   1.561   0.907   1.604  0.8533  0.0562  0.1318
 9470TIP3    H128353   1.538   0.914   1.697  0.4684  0.6076 -0.0001
 9470TIP3    H228354   1.627   0.975   1.590  0.9120 -0.0267 -0.0008
 9471TIP3   OH228355   7.382   6.842   1.935 -0.4478 -0.0620  0.0208
 9471TIP3    H128356   7.473   6.833   1.961 -0.9271 -2.1997  1.1165
 9471TIP3    H228357   7.364   6.936   1.940  1.4904  0.3002  0.4263
 9472TIP3   OH228358   7.520   6.796   1.557 -0.0292  0.3613  0.4124
 9472TIP3    H128359   7.479   6.803   1.471  2.6915  1.1195 -0.9068
 9472TIP3    H228360   7.514   6.884   1.593 -1.9216 -0.1515  1.3898
 9473TIP3   OH228361   6.360   7.600   2.688  0.3091  0.2917  0.0093
 9473TIP3    H128362   6.404   7.568   2.767  0.7009  0.2378 -0.2340
 9473TIP3    H228363   6.291   7.535   2.671  0.8354 -0.2059 -0.2439
 9474TIP3   OH228364   7.844   7.412   2.087 -0.1018  0.4390  0.1244
 9474TIP3    H128365   7.763   7.396   2.038  0.0968  1.0216 -0.4094
 9474TIP3    H228366   7.875   7.496   2.053  1.0393 -0.0618 -0.0859
 9475TIP3   OH228367   6.263   7.706   2.206  0.0814  0.1636  0.0965
 9475TIP3    H128368   6.198   7.661   2.260  1.1704 -0.4379  0.9266
 9475TIP3    H228369   6.269   7.794   2.243  0.4877 -0.1026  0.6665
 9476TIP3   OH228370   1.824   0.464   0.602  0.0565  0.3674 -0.3317
 9476TIP3    H128371   1.882   0.504   0.667 -0.7954  3.1512 -1.1902
 9476TIP3    H228372   1.878   0.457   0.523  0.0704  0.2580 -0.3123
 9477TIP3   OH228373   2.006   0.837   2.994 -0.2844 -0.0497  0.3822
 9477TIP3    H128374   2.078   0.824   2.932 -0.2193  0.4236  0.3510
 9477TIP3    H228375   2.046   0.828   3.080 -0.1064  0.6107  0.3695
 9478TIP3   OH228376   0.340   1.005   4.672 -0.0480 -0.2541 -0.0235
 9478TIP3    H128377   0.420   1.044   4.636 -2.1223  1.4224 -3.1067
 9478TIP3    H228378   0.301   1.076   4.724  0.6766 -1.2157  1.8548
 9479TIP3   OH228379   1.018   1.370   1.371 -0.2932 -0.4053 -0.0689
 9479TIP3    H128380   0.964   1.423   1.429  0.8489 -1.9056  2.4439
 9479TIP3    H228381   0.957   1.331   1.309 -1.7502  0.0069  1.0890
 9480TIP3   OH228382   8.177   7.713   3.309  0.1697  0.1912 -0.3699
 9480TIP3    H128383   8.118   7.653   3.262  0.6926 -0.1736 -0.5580
 9480TIP3    H228384   8.264   7.691   3.277  0.7307 -1.1705  1.9304
 9481TIP3   OH228385   6.290   6.995   3.371  0.4313 -0.5597  0.2498
 9481TIP3    H128386   6.351   6.983   3.298  2.0280  2.9587  0.9030
 9481TIP3    H228387   6.229   7.062   3.340 -1.2766 -1.8660  0.7363
 9482TIP3   OH228388   0.056   1.360   2.254 -0.4467  0.2831 -0.2682
 9482TIP3    H128389   0.109   1.280   2.254 -0.1494  0.4806 -0.4194
 9482TIP3    H228390  -0.030   1.331   2.225 -0.3233  0.0292 -0.3842
 9483TIP3   OH228391   1.191   0.184   2.897 -0.3843 -0.1264  0.4554
 9483TIP3    H128392   1.215   0.153   2.984  0.2994 -1.9847 -0.3794
 9483TIP3    H228393   1.096   0.174   2.893 -0.8225  2.7157  2.0059
 9484TIP3   OH228394   0.754   0.263   3.035 -0.5934 -0.6889 -0.4271
 9484TIP3    H128395   0.723   0.353   3.041  0.8131 -0.1892 -0.4708
 9484TIP3    H228396   0.675   0.211   3.020 -1.3058  0.6281 -1.2912
 9485TIP3   OH228397   6.461   1.175   3.630 -0.1655  0.2823 -0.1164
 9485TIP3    H128398   6.551   1.208   3.621  1.0628 -2.8743 -0.1165
 9485TIP3    H228399   6.441   1.184   3.723 -0.0163  1.3972 -0.1885
 9486TIP3   OH228400   8.339   1.743   2.461 -0.4125 -0.3670 -0.0340
 9486TIP3    H128401   8.257   1.694   2.454 -0.4962 -0.1344 -0.7522
 9486TIP3    H228402   8.397   1.703   2.397 -0.1499 -0.1627  0.0707
 9487TIP3   OH228403   5.924   6.211   2.744  0.6204 -0.2886 -0.0953
 9487TIP3    H128404   5.921   6.121   2.776  0.1439  0.2142  1.3008
 9487TIP3    H228405   5.853   6.217   2.681  0.9437 -1.0103 -0.5345
 9488TIP3   OH228406   6.070   7.555   2.348 -0.1701 -0.3940 -0.0107
 9488TIP3    H128407   6.017   7.630   2.375  1.6083  0.5476  0.9084
 9488TIP3    H228408   6.006   7.489   2.322 -1.7712  1.2299 -0.2811
 9489TIP3   OH228409   7.411   6.244   3.140  0.9001  0.0262 -0.4993
 9489TIP3    H128410   7.482   6.294   3.180  0.5784  0.0250  0.0652
 9489TIP3    H228411   7.375   6.303   3.073 -0.6877  1.2735  1.4035
 9490TIP3   OH228412   6.765   8.016   1.304  0.3207  0.1840  0.0083
 9490TIP3    H128413   6.779   7.952   1.234 -2.2605  1.8346 -2.1337
 9490TIP3    H228414   6.851   8.052   1.321  1.7308 -3.3237  0.7913
 9491TIP3   OH228415   8.055   5.378   2.472  0.0771 -0.1617  0.5821
 9491TIP3    H128416   8.078   5.308   2.411  1.2633  1.4848 -0.9169
 9491TIP3    H228417   8.134   5.391   2.524  0.3523  0.9979 -0.1033
 9492TIP3   OH228418   6.858   7.084   4.581 -0.2702 -0.1288  1.0775
 9492TIP3    H128419   6.883   7.157   4.524  0.3210  0.8599  2.5427
 9492TIP3    H228420   6.775   7.112   4.619 -0.1797 -0.3309  1.4267
 9493TIP3   OH228421   6.305   6.540   2.012 -0.1484 -0.0623  0.0408
 9493TIP3    H128422   6.286   6.459   1.964 -0.2485 -0.7988  1.2937
 9493TIP3    H228423   6.252   6.606   1.969  1.2021 -0.3140 -2.0615
 9494TIP3   OH228424   6.700   6.976   1.085  0.2972 -0.2409 -0.2754
 9494TIP3    H128425   6.723   6.891   1.049  1.0103 -0.8605  1.5965
 9494TIP3    H228426   6.779   7.005   1.131 -0.7309  0.3185  1.1718
 9495TIP3   OH228427   7.017   7.023   1.436  0.3838 -0.0464  0.1532
 9495TIP3    H128428   6.929   6.996   1.461 -1.7283  2.4277 -4.0412
 9495TIP3    H228429   7.021   7.116   1.458  1.3339  0.2405 -1.1477
 9496TIP3   OH228430   6.785   6.083   2.817  0.5463 -0.0782 -0.2857
 9496TIP3    H128431   6.851   6.115   2.756  1.4496  0.3197  0.8883
 9496TIP3    H228432   6.832   6.020   2.872 -0.3901 -0.8279 -0.3336
 9497TIP3   OH228433   7.129   6.753   3.370 -0.1766  0.2639 -0.4919
 9497TIP3    H128434   7.195   6.720   3.309  1.2949  0.5683  0.9317
 9497TIP3    H228435   7.053   6.697   3.354  0.6491 -0.5792 -1.6088
 9498TIP3   OH228436   7.888   6.786   3.259  0.0135 -0.6434  0.0250
 9498TIP3    H128437   7.913   6.754   3.346 -0.6034 -2.1556 -0.3387
 9498TIP3    H228438   7.819   6.851   3.277 -0.7190 -1.5786  0.6163
 9499TIP3   OH228439   6.937   7.611   2.722 -0.0795 -0.2658 -0.1698
 9499TIP3    H128440   7.028   7.610   2.692 -1.0521 -1.0399 -3.3343
 9499TIP3    H228441   6.906   7.522   2.708 -1.2198 -0.1192  1.2762
 9500TIP3   OH228442   2.859   1.145   3.818 -0.5681  0.0922  0.5523
 9500TIP3    H128443   2.943   1.191   3.817 -0.3354 -0.3359 -0.0926
 9500TIP3    H228444   2.877   1.064   3.867 -0.2193 -0.7036 -0.8731
 9501TIP3   OH228445   0.673   0.636   5.806  0.3213 -0.1756  0.0646
 9501TIP3    H128446   0.602   0.587   5.765  1.1705 -0.3818 -1.1947
 9501TIP3    H228447   0.699   0.583   5.881  0.5581 -1.1656 -0.7000
 9502TIP3   OH228448   0.231   0.516   3.776 -0.1296  0.4623  0.3561
 9502TIP3    H128449   0.267   0.534   3.690  0.2567  1.6254  0.7552
 9502TIP3    H228450   0.294   0.554   3.838  0.0034 -1.0549  1.1805
 9503TIP3   OH228451   6.607   6.583   2.402 -0.0147 -0.5883 -0.3217
 9503TIP3    H128452   6.678   6.540   2.355  1.6112  3.4029 -1.6952
 9503TIP3    H228453   6.641   6.596   2.490 -0.0484 -0.9651 -0.2500
 9504TIP3   OH228454   7.644   6.916   3.340  0.4958  0.5099 -0.1256
 9504TIP3    H128455   7.638   7.000   3.294  1.4066  0.0373 -1.1118
 9504TIP3    H228456   7.622   6.851   3.275  0.5292 -0.0734  0.4425
 9505TIP3   OH228457   4.203   5.495   2.708  0.1183 -0.1946 -0.6042
 9505TIP3    H128458   4.122   5.540   2.732  0.2445 -0.5803  0.5634
 9505TIP3    H228459   4.212   5.425   2.772  1.3005 -0.2533 -0.8187
 9506TIP3   OH228460   6.138   5.380   0.834  0.3966 -0.0718  0.0277
 9506TIP3    H128461   6.205   5.324   0.874 -0.6031 -0.1212  1.7054
 9506TIP3    H228462   6.068   5.320   0.808  0.0146  0.2147  0.3736
 9507TIP3   OH228463   0.621   7.132   3.965  0.1438 -0.4538  0.0457
 9507TIP3    H128464   0.625   7.184   4.046  0.4289 -0.2557 -0.0948
 9507TIP3    H228465   0.540   7.161   3.923  0.1827 -0.2927  0.0806
 9508TIP3   OH228466   8.450   0.147   0.519  0.2225 -0.0653  0.4474
 9508TIP3    H128467   8.542   0.153   0.492  0.2783 -0.1050  0.6251
 9508TIP3    H228468   8.437   0.055   0.539  0.5675  0.1864  1.8917
 9509TIP3   OH228469   8.008   0.548   2.026 -0.0487 -0.4569 -0.0602
 9509TIP3    H128470   8.010   0.642   2.008 -1.0518 -0.7177 -1.6621
 9509TIP3    H228471   7.920   0.520   2.000  0.5779 -2.0104 -0.5836
 9510TIP3   OH228472   4.338   6.572   2.939  0.5020 -0.0241  0.1994
 9510TIP3    H128473   4.428   6.582   2.969 -0.1027  0.2611  1.9903
 9510TIP3    H228474   4.331   6.628   2.862  2.2464 -1.1760 -0.8124
 9511TIP3   OH228475   2.436   0.116   2.140 -0.6222  0.0401  0.0968
 9511TIP3    H128476   2.347   0.083   2.153 -0.5082  0.0772  1.0208
 9511TIP3    H228477   2.424   0.209   2.120 -0.7660  0.1620  0.7387
 9512TIP3   OH228478   1.979   1.422   6.143  0.7946 -0.2811 -0.2474
 9512TIP3    H128479   1.891   1.398   6.117  0.6648 -0.7249  0.5891
 9512TIP3    H228480   1.983   1.517   6.133 -0.1300 -0.1282  0.7465
 9513TIP3   OH228481   6.662   0.459   0.335 -0.0815  0.3348  0.4315
 9513TIP3    H128482   6.601   0.481   0.265  0.3212 -0.4034 -0.1646
 9513TIP3    H228483   6.732   0.411   0.291 -0.8239 -1.9287  1.6416
 9514TIP3   OH228484   2.821   0.624   6.630  0.0294  0.0534 -0.0592
 9514TIP3    H128485   2.795   0.616   6.722 -0.8781 -0.0709 -0.3183
 9514TIP3    H228486   2.738   0.623   6.582  0.5355 -0.5230 -0.9273
 9515TIP3   OH228487   4.909   5.209   1.578  0.5009 -0.6028 -0.3257
 9515TIP3    H128488   4.896   5.152   1.654 -0.6299 -1.9867 -1.5231
 9515TIP3    H228489   5.003   5.220   1.573  0.6790 -1.5738  0.5154
 9516TIP3   OH228490   4.318   6.306   2.137  0.5952  0.3429 -0.1875
 9516TIP3    H128491   4.409   6.326   2.114  0.4143 -0.0262 -1.2481
 9516TIP3    H228492   4.313   6.211   2.132  0.2327  0.3449  0.1839
 9517TIP3   OH228493   6.159   4.612  -0.015  0.4389  0.0692 -0.1492
 9517TIP3    H128494   6.100   4.686  -0.027 -0.6077 -0.5159  1.2171
 9517TIP3    H228495   6.219   4.641   0.054 -0.8011 -0.8161  1.3363
 9518TIP3   OH228496   8.375   1.890   5.502  0.4933 -0.3767 -0.2771
 9518TIP3    H128497   8.367   1.907   5.409 -2.0056 -0.6325 -0.1262
 9518TIP3    H228498   8.404   1.974   5.539 -1.1807  0.5182 -0.9426
 9519TIP3   OH228499   0.978   1.320   5.020  0.2170  0.2775 -0.5041
 9519TIP3    H128500   0.909   1.311   5.085  1.5041 -1.2673  0.6744
 9519TIP3    H228501   0.932   1.322   4.936 -1.2212 -1.2720  0.2286
 9520TIP3   OH228502   0.846   2.714   6.541  0.0826  0.0113  0.0713
 9520TIP3    H128503   0.877   2.710   6.450 -0.5499  0.0572 -0.1466
 9520TIP3    H228504   0.866   2.627   6.576 -0.6878 -0.3759 -0.4418
 9521TIP3   OH228505   1.937   0.988   4.966  0.3181 -0.3431  0.1458
 9521TIP3    H128506   2.011   0.972   5.024  0.0433 -1.0209  0.3120
 9521TIP3    H228507   1.899   1.070   4.997  2.1848  1.0647 -1.1716
 9522TIP3   OH228508   2.407   3.252   5.567  0.3020 -0.1506  0.7364
 9522TIP3    H128509   2.399   3.235   5.473  0.4585 -0.6494  0.8101
 9522TIP3    H228510   2.501   3.248   5.583  0.1084 -2.5277  1.3585
 9523TIP3   OH228511   1.785   0.694   5.711 -0.5751 -0.3091  0.0283
 9523TIP3    H128512   1.732   0.772   5.691  0.3586  0.6417  1.1421
 9523TIP3    H228513   1.870   0.712   5.670 -0.7596 -1.3152 -0.7896
 9524TIP3   OH228514   1.408   0.816   5.958  0.7494  0.3312 -0.2504
 9524TIP3    H128515   1.454   0.761   5.895  0.2023 -0.5071  0.0758
 9524TIP3    H228516   1.346   0.866   5.906 -0.3525 -1.0383 -0.2747
 9525TIP3   OH228517   6.957   3.449   0.120 -0.5560 -0.5038  0.0327
 9525TIP3    H128518   6.921   3.499   0.193 -0.3960  0.4132 -0.5124
 9525TIP3    H228519   7.011   3.382   0.161 -0.8123 -0.2597  0.7681
 9526TIP3   OH228520   2.204   2.584   5.702  0.0332  0.0380 -0.1622
 9526TIP3    H128521   2.287   2.536   5.711 -0.1109 -0.0983  0.4492
 9526TIP3    H228522   2.226   2.659   5.646  0.4706 -0.2344 -0.3587
 9527TIP3   OH228523   7.578   1.196   5.835 -0.0830  0.0692 -1.0273
 9527TIP3    H128524   7.586   1.138   5.911  0.5872  2.3734  0.7696
 9527TIP3    H228525   7.484   1.202   5.820 -0.2782  0.1612  0.1275
 9528TIP3   OH228526   1.640   0.936   5.545  0.3277 -0.2507 -0.1036
 9528TIP3    H128527   1.699   0.971   5.478  1.3054 -0.1738  0.7840
 9528TIP3    H228528   1.640   1.003   5.613 -0.6925 -0.3131 -0.0428
 9529TIP3   OH228529   0.299   2.039   6.549 -0.0280  0.1325 -0.0592
 9529TIP3    H128530   0.318   2.095   6.624  2.2568 -0.1488 -0.3921
 9529TIP3    H228531   0.318   2.094   6.473  0.1220 -0.4008 -0.4103
 9530TIP3   OH228532   3.233   6.128   1.118 -0.7249 -0.3473  0.1964
 9530TIP3    H128533   3.314   6.154   1.161 -0.6009 -0.0697 -0.2064
 9530TIP3    H228534   3.177   6.097   1.189 -1.1393  1.6622  0.7860
 9531TIP3   OH228535   1.822   3.150   5.399 -0.8525  0.2550 -0.1500
 9531TIP3    H128536   1.766   3.179   5.327 -0.7484 -0.7962 -0.6629
 9531TIP3    H228537   1.879   3.083   5.361 -0.0995  0.4138  0.6680
 9532TIP3   OH228538   0.915   1.033   5.722  0.0957  0.6134  0.6393
 9532TIP3    H128539   0.903   0.983   5.641 -0.7469  1.0462  0.4862
 9532TIP3    H228540   0.935   1.122   5.693 -0.9067  0.9345  0.8889
 9533TIP3   OH228541   2.598   1.913   4.411  0.1806 -0.2675  0.1436
 9533TIP3    H128542   2.534   1.897   4.341  1.4281 -0.1669 -1.0609
 9533TIP3    H228543   2.671   1.957   4.366  0.1366  1.6688  1.9215
 9534TIP3   OH228544   4.076   0.487   6.038  0.3330 -0.3307  0.2267
 9534TIP3    H128545   4.029   0.570   6.051 -1.1461 -0.8156 -1.7482
 9534TIP3    H228546   4.047   0.456   5.952  0.4426 -3.1799  1.1639
 9535TIP3   OH228547   8.183   2.918   4.981 -0.2811  0.1565  0.1744
 9535TIP3    H128548   8.122   2.908   4.909  0.1290 -0.9618 -0.0166
 9535TIP3    H228549   8.152   2.857   5.048 -1.3867  2.0733  1.4527
 9536TIP3   OH228550   2.202   3.345   5.740  0.3247  0.2202  0.1316
 9536TIP3    H128551   2.113   3.350   5.706  0.3549  0.4378  0.0803
 9536TIP3    H228552   2.252   3.303   5.670  0.6055  1.6435 -0.5547
 9537TIP3   OH228553   3.253   1.586   5.364 -0.3982  0.1324 -0.5084
 9537TIP3    H128554   3.180   1.607   5.306  0.1616 -1.3641 -1.7611
 9537TIP3    H228555   3.323   1.558   5.306  1.0891  1.2357  0.7065
 9538TIP3   OH228556   4.978   0.012   6.453 -0.2364  0.2596 -0.1897
 9538TIP3    H128557   5.052   0.010   6.392  1.4934  1.5477  1.7751
 9538TIP3    H228558   4.961   0.105   6.467 -1.9521 -0.0317 -0.2610
 9539TIP3   OH228559   3.446   1.118   5.094 -0.1920 -0.2156 -0.2307
 9539TIP3    H128560   3.532   1.082   5.071 -1.3939 -2.3036 -1.6949
 9539TIP3    H228561   3.400   1.125   5.010 -1.2803  1.3724  0.4779
 9540TIP3   OH228562   2.380   2.414   6.577 -0.3181  0.4912  0.2407
 9540TIP3    H128563   2.425   2.370   6.505 -1.5137  0.8189 -0.7265
 9540TIP3    H228564   2.373   2.347   6.645 -0.1545 -0.1597 -0.3766
 9541TIP3   OH228565   2.810   0.843   5.633 -0.1072  0.3279 -0.1781
 9541TIP3    H128566   2.802   0.753   5.601  1.6566 -0.2199  0.8804
 9541TIP3    H228567   2.886   0.842   5.691 -0.2815  2.4264  0.1387
 9542TIP3   OH228568   6.584   4.527   2.121 -0.0174 -0.1592 -0.0354
 9542TIP3    H128569   6.654   4.514   2.184  1.7683  1.5285 -1.5860
 9542TIP3    H228570   6.580   4.622   2.110 -1.5043 -0.3374 -1.1161
 9543TIP3   OH228571   6.613   5.330   1.626 -0.2387  0.0805 -0.1529
 9543TIP3    H128572   6.672   5.271   1.580 -0.6176  0.0940 -0.6595
 9543TIP3    H228573   6.566   5.274   1.688 -2.4543 -0.6423 -2.4143
 9544TIP3   OH228574   5.865   7.891   5.141  0.3327  0.4045  0.4403
 9544TIP3    H128575   5.936   7.848   5.095  0.2157  0.2260  0.4271
 9544TIP3    H228576   5.825   7.822   5.195 -0.3326  0.3199 -0.1572
 9545TIP3   OH228577   3.269   6.443   0.338 -0.3222 -0.1977  0.5060
 9545TIP3    H128578   3.205   6.406   0.398 -0.0154  1.6902  2.0438
 9545TIP3    H228579   3.354   6.426   0.379 -0.0634  0.4590  0.2474
 9546TIP3   OH228580   2.479   0.627   5.441 -0.5671 -0.0735 -0.1948
 9546TIP3    H128581   2.476   0.595   5.351  1.6088 -1.6367  0.2392
 9546TIP3    H228582   2.536   0.703   5.437  0.0751 -0.5409 -0.0434
 9547TIP3   OH228583   6.979   4.961   2.194  0.6629  0.0650 -0.2448
 9547TIP3    H128584   7.011   4.921   2.275  0.1764 -1.3023 -0.7067
 9547TIP3    H228585   6.927   4.892   2.152  0.1730  1.0468 -1.2910
 9548TIP3   OH228586   4.180   0.616   6.432  0.2642 -0.2429  0.4253
 9548TIP3    H128587   4.234   0.695   6.443  0.0425 -0.0136 -0.0705
 9548TIP3    H228588   4.233   0.558   6.378 -0.2700  0.2835 -0.6921
 9549TIP3   OH228589   4.956   2.352   6.283 -0.1647 -0.4849 -0.2041
 9549TIP3    H128590   4.873   2.309   6.301 -0.1097 -0.0205  1.2040
 9549TIP3    H228591   4.947   2.439   6.322  1.2276 -0.6811  0.5917
 9550TIP3   OH228592   6.685   4.616   0.544  0.1911  0.3014 -0.1291
 9550TIP3    H128593   6.677   4.630   0.450  0.5922  0.5116 -0.1307
 9550TIP3    H228594   6.715   4.525   0.552  0.0255  0.2399 -0.1984
 9551TIP3   OH228595   5.460   6.638   1.647  0.1727 -0.0245 -0.0981
 9551TIP3    H128596   5.438   6.722   1.606 -1.0070 -0.8608 -1.2325
 9551TIP3    H228597   5.411   6.638   1.729  1.3211  1.0067  0.5945
 9552TIP3   OH228598   4.426   5.616   0.199 -0.1728  0.1712  0.3174
 9552TIP3    H128599   4.500   5.595   0.256  1.1560  0.3145 -1.3103
 9552TIP3    H228600   4.406   5.534   0.154  1.4382  1.0070 -1.9821
 9553TIP3   OH228601   3.894   2.260   6.470  0.7189 -0.0421 -0.0292
 9553TIP3    H128602   3.917   2.257   6.563 -0.0146  0.5517  0.1730
 9553TIP3    H228603   3.827   2.328   6.463  0.7100 -0.1309 -0.9842
 9554TIP3   OH228604   5.337   4.401   1.292  0.0837 -0.2833 -0.0997
 9554TIP3    H128605   5.362   4.321   1.337 -0.3875 -0.7101 -0.5892
 9554TIP3    H228606   5.402   4.466   1.319 -0.3665 -0.4590  1.4213
 9555TIP3   OH228607   1.406   7.596   6.330  0.3094  0.2084  0.2584
 9555TIP3    H128608   1.322   7.608   6.286  1.1740 -0.1679 -1.5467
 9555TIP3    H228609   1.465   7.657   6.285  1.4758 -0.9882  0.1596
 9556TIP3   OH228610   1.455   7.719   6.568 -0.0385 -0.2996 -0.1265
 9556TIP3    H128611   1.462   7.678   6.481 -3.2846 -3.0223  0.7648
 9556TIP3    H228612   1.363   7.744   6.575  0.4069  0.7802  2.1456
 9557TIP3   OH228613   8.179   2.615   0.258  0.7202 -0.6471 -0.0400
 9557TIP3    H128614   8.101   2.561   0.269  1.2098 -2.1107 -3.2663
 9557TIP3    H228615   8.145   2.704   0.249 -0.6081 -1.2548 -1.2410
 9558TIP3   OH228616   3.460   1.144   6.567 -0.7286 -0.4493 -0.8780
 9558TIP3    H128617   3.431   1.057   6.595 -1.6841  0.0108 -0.4479
 9558TIP3    H228618   3.465   1.195   6.648 -0.6490  0.0439 -1.1918
 9559TIP3   OH228619   5.972   0.153   5.055 -0.1063  0.4444 -0.0893
 9559TIP3    H128620   6.011   0.226   5.103  1.0091  0.8395 -1.5447
 9559TIP3    H228621   6.042   0.087   5.052 -0.4196  0.1347 -0.5556
 9560TIP3   OH228622   2.951   6.994   6.043  0.1228  0.1907  0.1304
 9560TIP3    H128623   2.875   7.023   5.992 -0.1147 -0.8741 -0.1397
 9560TIP3    H228624   3.018   7.060   6.026 -0.8257  1.2997  0.5901
 9561TIP3   OH228625   3.252   2.245   6.174  0.2099 -0.6698  0.5450
 9561TIP3    H128626   3.282   2.276   6.089 -0.0278  1.0164  1.0677
 9561TIP3    H228627   3.254   2.149   6.166  0.7860 -0.5386 -1.1342
 9562TIP3   OH228628   0.160   6.177   0.200  0.3048  0.1876 -0.2164
 9562TIP3    H128629   0.152   6.093   0.246  1.6872 -0.0321 -0.3600
 9562TIP3    H228630   0.252   6.182   0.175  0.2896  1.9038  0.0581
 9563TIP3   OH228631   4.762   1.810   5.137  0.2405  0.0222  0.4874
 9563TIP3    H128632   4.791   1.719   5.131 -0.8406 -0.4204  1.7890
 9563TIP3    H228633   4.726   1.818   5.226 -1.0098  1.3257 -0.1157
 9564TIP3   OH228634   5.826   4.490   1.405  0.1050 -0.2599 -0.5652
 9564TIP3    H128635   5.743   4.526   1.375  1.0007  2.1280 -0.3578
 9564TIP3    H228636   5.881   4.485   1.326  0.5145  0.3780 -0.3260
 9565TIP3   OH228637   1.503   1.688   6.349  0.4734  0.2229  0.2572
 9565TIP3    H128638   1.508   1.594   6.367 -1.6242  0.2883  1.2830
 9565TIP3    H228639   1.517   1.695   6.254 -2.0859 -1.3916 -0.2857
 9566TIP3   OH228640   6.108   5.454   0.175 -0.0282 -0.0247  0.3794
 9566TIP3    H128641   6.080   5.406   0.097 -1.1588 -2.2489  2.1094
 9566TIP3    H228642   6.179   5.401   0.212 -1.4270 -0.5205  2.4151
 9567TIP3   OH228643   5.000   0.284   6.482 -0.2648 -0.5809 -0.1345
 9567TIP3    H128644   5.087   0.323   6.473 -1.4433  2.1420 -0.2024
 9567TIP3    H228645   4.942   0.341   6.431 -2.2886 -1.6834  0.8485
 9568TIP3   OH228646   4.055   0.822   5.265  0.0354 -0.0743  0.4543
 9568TIP3    H128647   3.975   0.864   5.233  0.3273 -0.5384 -0.8992
 9568TIP3    H228648   4.124   0.886   5.248  0.4076 -0.8870 -1.1738
 9569TIP3   OH228649   4.730   1.519   5.404  0.0617  0.0071  0.1216
 9569TIP3    H128650   4.756   1.462   5.476  0.7326  0.1366 -0.0134
 9569TIP3    H228651   4.698   1.598   5.446 -0.0229 -0.1200  0.2928
 9570TIP3   OH228652   5.640   4.703   2.048 -0.4026  0.0168  0.0083
 9570TIP3    H128653   5.713   4.688   2.109 -1.0896  1.0859  1.1299
 9570TIP3    H228654   5.633   4.798   2.042 -0.1840 -0.0839 -1.9735
 9571TIP3   OH228655   1.036   8.010   5.760 -0.0582  0.0847 -0.1791
 9571TIP3    H128656   0.958   8.039   5.806  0.3980  0.4160  0.3984
 9571TIP3    H228657   1.010   7.929   5.716 -1.1014  0.9165 -1.1164
 9572TIP3   OH228658   2.393   5.845   6.763 -0.0564  1.0369 -0.5134
 9572TIP3    H128659   2.463   5.819   6.823  1.9531  1.8349 -2.4196
 9572TIP3    H228660   2.363   5.929   6.796 -0.5380  0.4151  0.6608
 9573TIP3   OH228661   4.652   5.206   0.240 -0.5569 -0.7689  0.4182
 9573TIP3    H128662   4.598   5.137   0.280 -0.5026  0.1132  2.0378
 9573TIP3    H228663   4.719   5.224   0.305  1.2834 -1.3313 -1.2859
 9574TIP3   OH228664   7.514   3.873   0.870  0.1777 -0.3448  0.2322
 9574TIP3    H128665   7.427   3.897   0.838  0.1299  1.0790  1.3579
 9574TIP3    H228666   7.502   3.786   0.907 -0.7939 -0.1563  0.3975
 9575TIP3   OH228667   7.331   3.604   1.861 -0.6005  0.4315 -0.4738
 9575TIP3    H128668   7.272   3.532   1.841  1.6097 -1.5932 -0.0063
 9575TIP3    H228669   7.393   3.605   1.788  0.0315  1.1098  0.0628
 9576TIP3   OH228670   6.561   0.284   5.843 -0.0081  0.1099  0.3942
 9576TIP3    H128671   6.575   0.330   5.760  0.3003 -0.5858  0.0566
 9576TIP3    H228672   6.520   0.349   5.900  2.0345  1.3356  0.5085
 9577TIP3   OH228673   2.198   7.043   5.916  0.3852  0.3619 -0.1521
 9577TIP3    H128674   2.258   6.969   5.923  0.8080  0.7668  0.6937
 9577TIP3    H228675   2.114   7.009   5.948  0.7839  0.4600  1.0571
 9578TIP3   OH228676   6.353   1.616   0.053 -0.0087  0.3853 -0.1675
 9578TIP3    H128677   6.424   1.662   0.008  0.7074 -0.7693 -0.2143
 9578TIP3    H228678   6.278   1.626  -0.005  0.5086  0.2596 -0.8613
 9579TIP3   OH228679   6.092   5.638   0.545 -0.1635 -0.2247 -0.1274
 9579TIP3    H128680   6.018   5.631   0.486 -2.0747  0.1743  2.1383
 9579TIP3    H228681   6.080   5.722   0.589  1.2145 -0.5052  0.8226
 9580TIP3   OH228682   3.427   1.195   5.580  0.4007  0.4468  0.3268
 9580TIP3    H128683   3.482   1.245   5.639  0.2219  1.1056 -0.0627
 9580TIP3    H228684   3.360   1.156   5.636  1.3187 -0.4607  0.8224
 9581TIP3   OH228685   3.511   1.249   6.831 -0.5173  0.2607 -0.0114
 9581TIP3    H128686   3.598   1.209   6.829 -0.0782  1.2084  0.1187
 9581TIP3    H228687   3.526   1.339   6.860 -1.5277  0.4648 -0.1012
 9582TIP3   OH228688   3.583   6.441   1.060 -0.2571  0.1191  0.7821
 9582TIP3    H128689   3.525   6.400   1.124  0.7900 -1.7332  0.5965
 9582TIP3    H228690   3.556   6.404   0.976  0.1455  0.4574  0.4987
 9583TIP3   OH228691   4.075   0.475   5.763  0.3952 -0.3515 -0.7808
 9583TIP3    H128692   4.101   0.401   5.709 -2.0706 -0.4099 -1.9945
 9583TIP3    H228693   4.050   0.543   5.700  0.7572  0.7985  0.3032
 9584TIP3   OH228694   5.267   1.349   6.329  0.5498 -0.1958 -0.4112
 9584TIP3    H128695   5.271   1.379   6.420  2.9370 -1.3893 -0.0856
 9584TIP3    H228696   5.277   1.254   6.334  0.4412 -0.3040 -1.9204
 9585TIP3   OH228697   2.103   0.930   6.879 -0.3488  0.0052 -0.0067
 9585TIP3    H128698   2.112   1.014   6.924  0.2843 -0.7800  1.3810
 9585TIP3    H228699   2.139   0.866   6.941 -2.1538 -1.4645 -0.4129
 9586TIP3   OH228700   8.212   6.025   0.274  0.5518 -0.0554  0.1122
 9586TIP3    H128701   8.292   6.074   0.253  0.4057  0.1141 -0.0371
 9586TIP3    H228702   8.149   6.052   0.209  0.5542 -0.6576 -0.1436
 9587TIP3   OH228703   5.146   6.931   1.342 -0.1545  0.0233 -0.2501
 9587TIP3    H128704   5.091   7.007   1.357 -0.9394  0.0292 -2.8757
 9587TIP3    H228705   5.089   6.856   1.360  0.2351  0.0413  1.0845
 9588TIP3   OH228706   2.287   0.461   5.589  0.1406 -0.1353 -0.2246
 9588TIP3    H128707   2.222   0.511   5.638 -0.7137 -1.3686 -0.0748
 9588TIP3    H228708   2.345   0.527   5.551 -0.6426  0.9325  0.4202
 9589TIP3   OH228709   7.590   2.819   0.533  0.1786 -0.4015  0.0908
 9589TIP3    H128710   7.622   2.868   0.457  1.1620  0.3020  0.9540
 9589TIP3    H228711   7.539   2.884   0.583  0.0498 -0.7081  0.3542
 9590TIP3   OH228712   3.216   1.415   6.526  0.2920  0.0204 -0.0460
 9590TIP3    H128713   3.210   1.351   6.597  2.7774 -0.3330 -0.1056
 9590TIP3    H228714   3.192   1.498   6.567  0.9713 -0.2982  1.0332
 9591TIP3   OH228715   1.688   0.907   6.889 -0.0157  0.1864 -0.1815
 9591TIP3    H128716   1.683   0.985   6.834 -1.3466 -1.4954 -2.5553
 9591TIP3    H228717   1.691   0.834   6.827  1.6013 -1.6572  1.9694
 9592TIP3   OH228718   3.283   0.482   6.147 -0.1580 -0.5504  0.6613
 9592TIP3    H128719   3.249   0.455   6.232  0.5436  0.7556  1.3771
 9592TIP3    H228720   3.373   0.509   6.165 -0.2425  0.4382 -0.3625
 9593TIP3   OH228721   4.564   0.500   6.352 -0.5067 -0.2895 -0.0802
 9593TIP3    H128722   4.509   0.570   6.319  0.5078  0.6353  0.1576
 9593TIP3    H228723   4.510   0.422   6.346 -1.1517  0.2685 -1.6865
 9594TIP3   OH228724   4.437   1.423   3.653  0.3776  0.0919 -0.1116
 9594TIP3    H128725   4.379   1.496   3.630 -1.7472 -1.5371 -0.0089
 9594TIP3    H228726   4.414   1.354   3.591  0.3047 -1.4987  1.6511
 9595TIP3   OH228727   7.473   4.678   1.561 -0.1533  0.5074  0.2384
 9595TIP3    H128728   7.492   4.585   1.568 -1.2139  0.1570 -1.3288
 9595TIP3    H228729   7.552   4.721   1.593  0.3204 -0.9267  1.0228
 9596TIP3   OH228730   7.408   1.005   0.046  0.4106 -0.4757 -0.7278
 9596TIP3    H128731   7.374   0.952   0.118 -1.6072  2.2707  0.4370
 9596TIP3    H228732   7.501   1.014   0.064  0.4617 -2.1736 -0.0453
 9597TIP3   OH228733   0.416   7.023   3.518  0.6291 -0.1724  0.1373
 9597TIP3    H128734   0.325   7.034   3.547  0.7427  0.4314  0.2703
 9597TIP3    H228735   0.448   6.949   3.568  0.2379 -0.3235  0.1685
 9598TIP3   OH228736   1.748   7.807   6.303  0.7411  0.2346 -0.9609
 9598TIP3    H128737   1.833   7.814   6.261  0.0230  1.0709 -2.3176
 9598TIP3    H228738   1.728   7.895   6.334  0.6273 -0.0762 -0.1482
 9599TIP3   OH228739   7.662   2.495   1.418 -0.3033  0.3087  0.2878
 9599TIP3    H128740   7.646   2.531   1.330  0.2758  3.2339  1.3386
 9599TIP3    H228741   7.738   2.439   1.407 -1.4555 -0.9809 -1.4785
 9600TIP3   OH228742   4.447   5.343   0.148 -0.5892 -0.1125 -0.1030
 9600TIP3    H128743   4.526   5.296   0.175 -0.1712  0.6659  0.0557
 9600TIP3    H228744   4.405   5.286   0.085 -0.3581 -0.9278  0.4736
 9601TIP3   OH228745   5.881   4.646   2.307  0.8183 -0.0567  0.0782
 9601TIP3    H128746   5.930   4.618   2.230  0.1785  2.3524 -1.2607
 9601TIP3    H228747   5.828   4.570   2.331 -0.8652 -0.0657 -3.4050
 9602TIP3   OH228748   2.681   0.692   6.883 -0.3713  0.2895  0.1671
 9602TIP3    H128749   2.638   0.719   6.802  1.0953  0.7945 -0.4635
 9602TIP3    H228750   2.691   0.773   6.933  1.9266  0.5947 -0.7133
 9603TIP3   OH228751   1.203   5.959   5.212 -0.2720 -0.0741 -0.1872
 9603TIP3    H128752   1.220   5.919   5.126  0.3675 -1.2660  0.4801
 9603TIP3    H228753   1.180   6.050   5.192 -3.3825 -1.1317 -1.8832
 9604TIP3   OH228754   3.985   3.303   6.029  0.0997  0.1932 -0.6734
 9604TIP3    H128755   3.916   3.237   6.031 -0.1516  0.4751  0.5702
 9604TIP3    H228756   4.062   3.256   5.998  0.7366 -1.5315  3.1753
 9605TIP3   OH228757   3.412   1.042   6.326 -0.4971 -0.1276  0.3930
 9605TIP3    H128758   3.481   0.998   6.376 -0.1395 -0.6254 -0.5079
 9605TIP3    H228759   3.400   1.126   6.369 -1.2231 -1.1218  2.1924
 9606TIP3   OH228760   4.837   0.452   6.328  0.1105 -0.2134 -0.4231
 9606TIP3    H128761   4.746   0.481   6.339  0.2160  0.1649 -0.5293
 9606TIP3    H228762   4.876   0.518   6.271 -0.2324 -1.7204 -2.4963
 9607TIP3   OH228763   2.619   2.025   6.671  0.2428  0.0212  0.0279
 9607TIP3    H128764   2.603   2.084   6.597  1.5184 -0.9432 -1.0285
 9607TIP3    H228765   2.688   2.068   6.721  0.6385 -0.1954 -0.3270
 9608TIP3   OH228766   2.310   1.395   6.310  0.2685 -0.0092  0.6583
 9608TIP3    H128767   2.235   1.361   6.357 -0.0987 -0.7947 -0.4730
 9608TIP3    H228768   2.367   1.432   6.378 -0.5272 -0.5761  1.6352
 9609TIP3   OH228769   5.750   0.671   5.083 -0.1890  0.4170 -0.1858
 9609TIP3    H128770   5.666   0.694   5.044  1.2713  0.8312 -3.2153
 9609TIP3    H228771   5.810   0.664   5.009  2.3201 -0.5019  1.8517
 9610TIP3   OH228772   6.016   0.283   4.401  0.7466  0.6974  0.0824
 9610TIP3    H128773   5.948   0.301   4.466  0.2302 -1.1744  0.0648
 9610TIP3    H228774   5.988   0.203   4.357  2.7639  0.1103 -0.1922
 9611TIP3   OH228775   5.091   0.058   5.912 -0.0037 -0.2610 -0.2068
 9611TIP3    H128776   5.095   0.144   5.953  0.4182 -0.4208  0.0876
 9611TIP3    H228777   4.997   0.042   5.900 -0.0585  0.4539 -0.7194
 9612TIP3   OH228778   5.518   4.357   0.214  0.6982  0.2313  0.4018
 9612TIP3    H128779   5.552   4.398   0.294  0.4121 -0.2754  0.7872
 9612TIP3    H228780   5.586   4.373   0.148  1.5124 -0.4303  1.0638
 9613TIP3   OH228781   5.441   1.034   5.755  0.5761  0.0485  0.5425
 9613TIP3    H128782   5.397   0.951   5.735  1.0911  0.3756 -2.1766
 9613TIP3    H228783   5.535   1.013   5.754  0.6873  0.5303  0.4730
 9614TIP3   OH228784   6.476   6.259   0.187  0.3365 -0.3494 -0.1457
 9614TIP3    H128785   6.430   6.342   0.180  0.3641 -0.4230 -1.2623
 9614TIP3    H228786   6.534   6.257   0.111  2.2895 -0.1996  1.2857
 9615TIP3   OH228787   4.434   0.719   6.220  0.2035  0.1436 -0.5220
 9615TIP3    H128788   4.382   0.775   6.278  0.0461 -2.2494  1.7390
 9615TIP3    H228789   4.489   0.780   6.171 -0.8424  2.3582  0.9485
 9616TIP3   OH228790   4.788   1.484   6.841 -0.6853  0.5436  0.0040
 9616TIP3    H128791   4.865   1.428   6.842 -0.6498  0.5937  0.0945
 9616TIP3    H228792   4.808   1.554   6.903 -1.2416 -0.0249  0.8203
 9617TIP3   OH228793   3.425   0.468   6.683 -1.2060 -0.6402  0.1420
 9617TIP3    H128794   3.349   0.505   6.729 -1.5940 -1.5998  0.2792
 9617TIP3    H228795   3.488   0.449   6.753 -0.8415  0.1102  0.0338
 9618TIP3   OH228796   7.793   4.531   0.466  0.3326 -0.2371  0.0142
 9618TIP3    H128797   7.867   4.472   0.483 -0.3516 -0.6937  1.4207
 9618TIP3    H228798   7.829   4.597   0.407  1.6555 -0.9188  0.0375
 9619TIP3   OH228799   3.256   0.716   5.885  0.5514 -0.3597 -0.3269
 9619TIP3    H128800   3.350   0.702   5.878  0.3019 -1.2838 -1.9741
 9619TIP3    H228801   3.217   0.640   5.842 -0.9320  0.6136 -0.7387
 9620TIP3   OH228802   3.051  -0.011   4.265 -0.2035  0.2431 -0.2903
 9620TIP3    H128803   3.080   0.036   4.186  0.5165 -2.2283 -1.5669
 9620TIP3    H228804   2.957  -0.024   4.252 -0.3634  1.1119 -0.0353
 9621TIP3   OH228805   3.210   0.804   6.387  0.1284  0.4575  0.6545
 9621TIP3    H128806   3.276   0.857   6.343 -2.5174  2.9942 -0.3572
 9621TIP3    H228807   3.192   0.851   6.469 -3.6042  2.2850 -1.1065
 9622TIP3   OH228808   0.825   4.980   1.482 -0.2112  0.2529  0.0355
 9622TIP3    H128809   0.880   4.936   1.417 -0.1153 -0.9638  0.9296
 9622TIP3    H228810   0.810   5.067   1.445  1.3958  0.2263 -0.7312
 9623TIP3   OH228811   3.770   2.458   6.301 -0.1663 -0.1683 -0.6452
 9623TIP3    H128812   3.754   2.458   6.207  2.2009  1.3744 -1.0891
 9623TIP3    H228813   3.802   2.547   6.320  1.1662 -1.0184  1.2899
 9624TIP3   OH228814   1.080   1.359   6.505 -0.2156 -0.1518  0.5962
 9624TIP3    H128815   1.138   1.307   6.560  0.0899  0.1368  0.5463
 9624TIP3    H228816   1.128   1.440   6.488 -0.9009  0.3596  1.0870
 9625TIP3   OH228817   4.034   1.285   6.008  0.9875  0.1702 -0.1281
 9625TIP3    H128818   4.051   1.376   5.983  1.3542  0.2828  0.5319
 9625TIP3    H228819   4.117   1.241   5.994  1.0389  0.1148  0.3780
 9626TIP3   OH228820   3.440   2.188   5.361 -0.5519 -0.1633  0.0904
 9626TIP3    H128821   3.499   2.219   5.430  0.5806 -0.9327 -0.5182
 9626TIP3    H228822   3.477   2.104   5.334 -1.7291 -0.4854 -0.5544
 9627TIP3   OH228823   5.243   5.334   0.445  0.4467  0.2735  0.0019
 9627TIP3    H128824   5.294   5.253   0.443 -1.3166 -0.8706  0.0947
 9627TIP3    H228825   5.209   5.344   0.356  0.4483  0.7853  0.0537
 9628TIP3   OH228826   4.615   1.143   5.077 -0.1735  0.1058 -0.1063
 9628TIP3    H128827   4.523   1.170   5.081  0.3836  2.0005  0.3724
 9628TIP3    H228828   4.645   1.176   4.992  0.0674 -0.5162 -0.2644
 9629TIP3   OH228829   6.971   4.033   0.539  0.5195 -0.2688 -0.1702
 9629TIP3    H128830   6.901   4.078   0.492  0.3398  0.6891  0.9809
 9629TIP3    H228831   7.046   4.035   0.479  0.7884  2.4190  0.2043
 9630TIP3   OH228832   4.703   6.401   0.302 -0.0360 -0.2484  0.0235
 9630TIP3    H128833   4.783   6.453   0.307  0.0725 -0.4459  0.3784
 9630TIP3    H228834   4.705   6.363   0.213  0.1546 -0.0780 -0.0456
 9631TIP3   OH228835   3.833   1.129   4.225  0.2117 -0.6533 -0.3528
 9631TIP3    H128836   3.842   1.205   4.283 -0.7770 -0.8787  0.1107
 9631TIP3    H228837   3.841   1.165   4.137 -3.1398  0.4686 -0.2575
 9632TIP3   OH228838   4.229   4.131   2.059  0.0152 -0.2638 -0.0381
 9632TIP3    H128839   4.302   4.193   2.057 -0.3370  0.1869  1.1272
 9632TIP3    H228840   4.245   4.076   2.135 -1.6281  0.7758  1.0831
 9633TIP3   OH228841   4.004   0.691   4.551  0.4124  0.6496 -0.3081
 9633TIP3    H128842   4.048   0.625   4.498  0.8192  0.4665  0.2484
 9633TIP3    H228843   4.009   0.771   4.498 -1.7009 -0.1620 -1.7907
 9634TIP3   OH228844   2.193   6.660   6.195 -0.2592 -0.2661  0.2671
 9634TIP3    H128845   2.278   6.703   6.198  0.4868 -1.8030  1.6592
 9634TIP3    H228846   2.146   6.694   6.271 -0.3920 -0.4187  0.2542
 9635TIP3   OH228847   5.789   4.809   0.093  0.7110  0.4379  0.2623
 9635TIP3    H128848   5.766   4.777   0.180  0.2390 -0.0381 -0.0354
 9635TIP3    H228849   5.883   4.792   0.085  0.5856 -0.3105  0.3460
 9636TIP3   OH228850   4.811   0.709   5.784 -0.3040 -0.3108 -0.1381
 9636TIP3    H128851   4.886   0.768   5.789 -1.3548  1.0268  0.2628
 9636TIP3    H228852   4.798   0.695   5.690 -0.3362  0.4811 -0.2541
 9637TIP3   OH228853   5.283   0.512   5.908  0.0550 -0.0948 -0.3569
 9637TIP3    H128854   5.236   0.552   5.981  1.6798  1.3197 -0.0424
 9637TIP3    H228855   5.368   0.487   5.946  1.7002  2.4867 -2.1791
 9638TIP3   OH228856   3.166   1.929   5.460 -0.7660  0.0133  0.8367
 9638TIP3    H128857   3.205   1.911   5.375  0.9842 -0.6727  1.7520
 9638TIP3    H228858   3.079   1.890   5.457 -0.6478 -0.1442 -0.5680
 9639TIP3   OH228859   3.648   1.475   6.266 -0.2585  0.1367  0.2369
 9639TIP3    H128860   3.723   1.416   6.259  0.4325  0.9909  0.4116
 9639TIP3    H228861   3.595   1.437   6.336  0.0426 -0.4259  0.1654
 9640TIP3   OH228862   8.443   6.763   1.016 -0.3652 -0.4745 -0.2196
 9640TIP3    H128863   8.352   6.751   0.987 -0.9340  0.8510  0.9965
 9640TIP3    H228864   8.437   6.773   1.111  1.0971 -0.7663 -0.0866
 9641TIP3   OH228865   3.516   1.650   4.944  0.2100  0.3366 -0.5073
 9641TIP3    H128866   3.493   1.609   5.027  0.1673  0.0112 -0.6825
 9641TIP3    H228867   3.433   1.687   4.912  0.0987 -0.0850 -0.7132
 9642TIP3   OH228868   2.919   6.639   4.667 -0.1142  0.3441 -0.3806
 9642TIP3    H128869   2.981   6.701   4.628  3.0003 -1.7168  1.0645
 9642TIP3    H228870   2.881   6.685   4.742  0.6776  1.1699 -0.4854
 9643TIP3   OH228871   5.677   4.658   1.152  0.6546 -0.0832  0.1890
 9643TIP3    H128872   5.661   4.656   1.247  1.0237  0.8050  0.2746
 9643TIP3    H228873   5.665   4.750   1.128 -0.2197 -0.4500 -0.7678
 9644TIP3   OH228874   0.037   4.122   0.145  0.0422 -0.1797 -0.2046
 9644TIP3    H128875   0.025   4.189   0.078 -0.0770  1.3861  1.3592
 9644TIP3    H228876  -0.051   4.085   0.157 -0.6366  1.8615  1.4529
 9645TIP3   OH228877   3.852   0.353   6.342  0.1776 -0.3799  0.1143
 9645TIP3    H128878   3.770   0.306   6.327 -1.5162  2.5215 -0.1765
 9645TIP3    H228879   3.917   0.307   6.288 -1.9992 -0.7525 -2.3080
 9646TIP3   OH228880   3.047   4.549   6.414  0.1126  0.1881  0.6211
 9646TIP3    H128881   3.047   4.594   6.499  1.2713  0.6600  0.3850
 9646TIP3    H228882   2.963   4.505   6.410  0.2667 -0.2745  2.2515
 9647TIP3   OH228883   4.478   1.004   6.670  0.1338 -0.4592  0.6317
 9647TIP3    H128884   4.524   1.030   6.590 -0.3853 -1.5445 -0.0292
 9647TIP3    H228885   4.545   0.961   6.723 -0.3743 -3.2457 -0.8980
 9648TIP3   OH228886   5.429   4.764   0.734  0.2000  0.2234 -0.9973
 9648TIP3    H128887   5.367   4.804   0.795  2.1457  3.2972 -0.9320
 9648TIP3    H228888   5.479   4.701   0.787  0.0190  0.8509 -0.0788
 9649TIP3   OH228889   4.239   0.654   4.729  0.1085  0.1901  0.2076
 9649TIP3    H128890   4.156   0.663   4.682  0.6823 -1.9601 -1.3268
 9649TIP3    H228891   4.215   0.612   4.811 -0.1205 -2.3953 -1.1270
 9650TIP3   OH228892   7.457   3.357   0.197  0.3545  0.6179 -0.1614
 9650TIP3    H128893   7.494   3.333   0.281 -1.5191 -0.6979  0.3196
 9650TIP3    H228894   7.506   3.434   0.170  1.8154  0.2987  1.5380
 9651TIP3   OH228895   6.637   2.871   1.348 -0.4208 -0.2880 -0.2508
 9651TIP3    H128896   6.672   2.789   1.383  2.9954  0.1736 -2.4126
 9651TIP3    H228897   6.632   2.857   1.254 -0.8590  1.6067 -0.5326
 9652TIP3   OH228898   7.925   4.192   0.364 -0.1606 -0.3556  0.4468
 9652TIP3    H128899   7.941   4.122   0.427 -2.4956 -0.0686  1.4125
 9652TIP3    H228900   7.964   4.270   0.404  1.4462 -0.8415 -0.1153
 9653TIP3   OH228901   4.113   2.046   4.146  0.1716  0.2598 -0.0123
 9653TIP3    H128902   4.177   1.990   4.102 -0.5673 -0.6729  0.0734
 9653TIP3    H228903   4.121   2.024   4.238  1.9100  2.4117  0.3970
 9654TIP3   OH228904   3.967   1.004   4.752  0.2040  0.2350 -0.2959
 9654TIP3    H128905   3.895   1.067   4.757 -0.0275 -0.0227 -0.4036
 9654TIP3    H228906   3.938   0.939   4.688 -0.1051 -0.6819  0.7638
 9655TIP3   OH228907   1.106   3.540   5.934  0.1504  0.4365 -0.2018
 9655TIP3    H128908   1.043   3.468   5.929  0.5835  0.0643 -0.3506
 9655TIP3    H228909   1.152   3.538   5.850  1.0649  0.0554  0.3005
 9656TIP3   OH228910   4.364   5.916   2.538  0.1066  0.3485  0.1783
 9656TIP3    H128911   4.334   5.912   2.629  0.4872 -0.5935  0.2583
 9656TIP3    H228912   4.286   5.892   2.487 -0.1346  0.9758  0.2462
 9657TIP3   OH228913   2.222   7.484   6.326 -0.3878 -0.6844  0.3269
 9657TIP3    H128914   2.173   7.524   6.254 -0.7438 -1.0232  0.3779
 9657TIP3    H228915   2.243   7.557   6.383  2.0468 -0.0178 -1.3537
 9658TIP3   OH228916   6.639   7.230   0.099  0.1414  0.0011  0.1811
 9658TIP3    H128917   6.560   7.216   0.152 -0.6810  2.8978 -0.2109
 9658TIP3    H228918   6.625   7.176   0.021 -1.7061  0.8609 -0.1210
 9659TIP3   OH228919   4.855   1.133   6.923 -0.2682  0.1470 -0.8127
 9659TIP3    H128920   4.821   1.123   6.834 -1.2253  1.5187 -0.6281
 9659TIP3    H228921   4.790   1.189   6.967 -0.3085 -1.3105  1.0343
 9660TIP3   OH228922   7.665   2.029   0.042 -0.3008 -0.4918  0.6547
 9660TIP3    H128923   7.748   2.069   0.016 -0.2207 -1.4408 -0.6269
 9660TIP3    H228924   7.685   1.986   0.125  0.8795 -1.8567 -0.2970
 9661TIP3   OH228925   7.199   4.712   1.766  0.0681 -0.1513 -0.1065
 9661TIP3    H128926   7.252   4.787   1.794  3.0178 -2.3527  0.5130
 9661TIP3    H228927   7.198   4.719   1.670  0.0173  0.8579 -0.0399
 9662TIP3   OH228928   0.615   6.898   0.224  0.0761 -0.2115 -0.1100
 9662TIP3    H128929   0.607   6.979   0.273 -0.0509 -0.0521 -0.3958
 9662TIP3    H228930   0.574   6.916   0.139  2.5869  0.3210 -1.2526
 9663TIP3   OH228931   4.918   6.123   0.221  0.0874  0.2651 -0.0316
 9663TIP3    H128932   4.893   6.125   0.129 -0.7388 -1.3463  0.1442
 9663TIP3    H228933   4.967   6.205   0.234  1.1752 -0.0180 -2.1421
 9664TIP3   OH228934   6.476   5.413   0.497 -0.0061 -0.3828 -0.3713
 9664TIP3    H128935   6.497   5.393   0.588 -0.3371  1.9146  0.2438
 9664TIP3    H228936   6.380   5.416   0.494 -0.0055 -0.9355 -0.8955
 9665TIP3   OH228937   1.721   6.875   4.499  0.1575 -0.0422 -0.1863
 9665TIP3    H128938   1.710   6.959   4.455  0.0033  0.3417  0.5802
 9665TIP3    H228939   1.810   6.877   4.535  0.4686 -0.5640 -0.9118
 9666TIP3   OH228940   5.508   4.971   0.069 -0.5287 -0.2747  0.1752
 9666TIP3    H128941   5.471   5.052   0.035  0.5522  0.5268  0.8678
 9666TIP3    H228942   5.571   4.999   0.136  3.1420 -1.4489 -2.5811
 9667TIP3   OH228943   4.944   4.629   1.111 -0.1214 -0.3507  0.0038
 9667TIP3    H128944   4.975   4.701   1.057  0.5288 -0.0639  0.7514
 9667TIP3    H228945   4.904   4.671   1.188 -1.9948 -0.7281 -0.7391
 9668TIP3   OH228946   6.688   5.566   1.008 -1.1518 -0.3442 -0.8575
 9668TIP3    H128947   6.675   5.547   1.101  0.6441  0.9053 -0.3335
 9668TIP3    H228948   6.673   5.483   0.964  2.5026 -2.0864  0.9858
 9669TIP3   OH228949   4.785   7.314   5.679  0.0564 -0.1316 -0.0974
 9669TIP3    H128950   4.699   7.315   5.720  0.7474 -0.9689  1.4031
 9669TIP3    H228951   4.844   7.348   5.746  1.2750 -1.9386 -0.2190
 9670TIP3   OH228952   7.141   2.373   0.334  0.3245 -0.1924 -0.7222
 9670TIP3    H128953   7.206   2.326   0.385 -1.6204  0.7077  2.7255
 9670TIP3    H228954   7.154   2.465   0.358 -0.1933  0.3391 -2.4038
 9671TIP3   OH228955   2.031   7.979   6.212 -0.2949  0.4121  0.3891
 9671TIP3    H128956   2.048   8.008   6.301 -0.0277 -0.5679  0.6623
 9671TIP3    H228957   1.972   8.045   6.176  0.6662  1.5259  0.8435
 9672TIP3   OH228958   7.901   3.762   1.018  0.1333  0.3112  0.0264
 9672TIP3    H128959   7.849   3.728   0.946  0.1179  0.3928 -0.0013
 9672TIP3    H228960   7.838   3.775   1.089 -0.3017  2.5277 -0.7185
 9673TIP3   OH228961   6.958   5.148   0.087  0.0214  0.7758  0.1812
 9673TIP3    H128962   6.923   5.075   0.037  0.9231 -0.7227  1.6943
 9673TIP3    H228963   6.885   5.175   0.143  0.9330 -1.8250  2.7531
 9674TIP3   OH228964   4.524   5.610   1.977 -0.2487  0.2606 -0.2616
 9674TIP3    H128965   4.547   5.553   2.050 -2.1733  0.2854  0.4025
 9674TIP3    H228966   4.532   5.554   1.900  0.5475 -0.1245  0.0894
 9675TIP3   OH228967   2.458   1.004   6.041 -0.1044 -0.1847  0.0769
 9675TIP3    H128968   2.456   0.997   6.136  0.6150  1.4683  0.2267
 9675TIP3    H228969   2.381   0.954   6.011 -1.4451  0.9376  1.6205
 9676TIP3   OH228970   3.350   2.596   6.766  0.3902  0.2508  0.4148
 9676TIP3    H128971   3.367   2.503   6.781 -1.1131 -0.1227 -0.2031
 9676TIP3    H228972   3.262   2.610   6.799 -0.3340  0.9103 -1.7462
 9677TIP3   OH228973   8.219   7.228   1.353 -1.0429  0.4135  0.2611
 9677TIP3    H128974   8.205   7.162   1.285 -0.5179  0.9862 -0.4109
 9677TIP3    H228975   8.248   7.306   1.305 -0.0678  0.6352  1.1964
 9678TIP3   OH228976   4.757   4.785   0.558 -0.1200 -0.1817  0.3416
 9678TIP3    H128977   4.703   4.731   0.500  0.0912  0.1537 -0.1743
 9678TIP3    H228978   4.769   4.732   0.637 -0.9294 -0.3924  0.3295
 9679TIP3   OH228979   6.092   3.958   2.363  0.2301 -0.1665 -0.5213
 9679TIP3    H128980   6.140   3.998   2.436 -0.6885  0.9258 -0.5091
 9679TIP3    H228981   6.097   4.022   2.292 -0.8745 -0.2188 -0.6533
 9680TIP3   OH228982   2.242   1.441   6.035 -0.0525  0.3668  0.0394
 9680TIP3    H128983   2.314   1.445   6.098 -0.1809  0.3710  0.1873
 9680TIP3    H228984   2.164   1.423   6.088  0.2723 -2.7726 -0.4013
 9681TIP3   OH228985   6.286   6.702   0.623  0.4141  0.0653 -0.3382
 9681TIP3    H128986   6.234   6.773   0.587 -0.1922  1.2193  2.6370
 9681TIP3    H228987   6.240   6.622   0.596 -1.3205  0.9751 -0.0897
 9682TIP3   OH228988   4.663   5.807   1.533 -0.6125 -0.3903 -0.0353
 9682TIP3    H128989   4.591   5.748   1.556 -0.0889 -0.3100  1.8981
 9682TIP3    H228990   4.679   5.857   1.613  1.3010 -0.0902 -0.5851
 9683TIP3   OH228991   4.084   1.342   6.689 -0.0925  0.1014  0.4075
 9683TIP3    H128992   4.157   1.282   6.704  0.2885  0.3385 -0.4692
 9683TIP3    H228993   4.039   1.306   6.613 -1.6202 -0.7209  1.6798
 9684TIP3   OH228994   4.908   6.354   0.773 -0.7600 -0.3297  0.2923
 9684TIP3    H128995   4.866   6.434   0.741 -2.1209 -1.3210 -0.4510
 9684TIP3    H228996   4.839   6.308   0.820  0.2049 -0.7404  1.3281
 9685TIP3   OH228997   3.717   6.006   1.520 -0.0926 -0.4384 -0.6272
 9685TIP3    H128998   3.805   6.001   1.482 -0.4863 -2.8410 -1.2891
 9685TIP3    H228999   3.732   6.007   1.614  0.6761 -0.5401 -0.7412
 9686TIP3   OH229000   7.999   7.114   0.035  0.8686 -0.0509 -0.1170
 9686TIP3    H129001   8.078   7.145   0.079  1.3874 -1.5044 -0.0159
 9686TIP3    H229002   7.952   7.194   0.011  1.5557  0.7943  1.2858
 9687TIP3   OH229003   2.507   7.538   6.185  0.5880  0.1743 -0.1540
 9687TIP3    H129004   2.464   7.507   6.265  1.6525 -0.8125  0.0472
 9687TIP3    H229005   2.496   7.467   6.122  6.1269 -2.3670  1.3908
 9688TIP3   OH229006   3.678   5.202   1.358  0.0183  0.2812 -0.1140
 9688TIP3    H129007   3.654   5.202   1.451  0.7610  0.3404  0.0828
 9688TIP3    H229008   3.763   5.159   1.356 -1.2135 -2.1942 -1.0966
 9689TIP3   OH229009   7.747   5.630   0.359 -0.0282 -0.0984  0.4298
 9689TIP3    H129010   7.704   5.674   0.286 -0.1477 -0.6972  0.1452
 9689TIP3    H229011   7.835   5.668   0.360  0.0880 -0.3490 -0.2426
 9690TIP3   OH229012   2.142   7.958   5.038 -0.6366 -0.3306  0.3132
 9690TIP3    H129013   2.131   8.053   5.042 -0.9128 -0.4186  1.9563
 9690TIP3    H229014   2.227   7.942   5.080  0.2239 -0.6834 -1.4977
 9691TIP3   OH229015   0.286   4.661   1.064  0.1439  0.1418 -0.4893
 9691TIP3    H129016   0.370   4.693   1.029 -0.7648  2.6022 -0.5251
 9691TIP3    H229017   0.255   4.599   0.998  1.2694  0.2628 -1.1536
 9692TIP3   OH229018   7.724   2.801   2.085 -0.5252  0.0575  0.5392
 9692TIP3    H129019   7.804   2.821   2.134 -0.4291  1.2748 -0.1239
 9692TIP3    H229020   7.671   2.880   2.091 -0.4050  0.3243 -1.5482
 9693TIP3   OH229021   4.858   2.599   5.956  0.6951 -0.5497 -0.4785
 9693TIP3    H129022   4.798   2.602   6.031  1.7133 -2.2199  0.4146
 9693TIP3    H229023   4.826   2.668   5.898 -1.6822 -0.9375  0.3016
 9694TIP3   OH229024   0.283   4.939   1.455 -0.3846  0.1640 -0.0053
 9694TIP3    H129025   0.355   4.924   1.517 -0.3466 -0.5483 -0.2103
 9694TIP3    H229026   0.216   4.875   1.481 -0.3751 -0.1199 -0.6785
 9695TIP3   OH229027   4.040   1.043   6.306 -0.2960 -0.8695 -0.4875
 9695TIP3    H129028   4.019   1.086   6.223 -1.8693  0.1512  0.4274
 9695TIP3    H229029   3.983   0.966   6.308 -0.2692 -0.8847 -0.3358
 9696TIP3   OH229030   8.115   5.530   0.361  0.2751 -0.2439 -0.1933
 9696TIP3    H129031   8.156   5.504   0.444  0.3717  0.4465 -0.0145
 9696TIP3    H229032   8.064   5.608   0.384 -0.5020 -0.6420 -0.5810
 9697TIP3   OH229033   5.616   3.723   4.417 -0.2738 -0.0878  0.2994
 9697TIP3    H129034   5.525   3.753   4.410  0.6504  2.8862  0.1071
 9697TIP3    H229035   5.663   3.773   4.349  1.2148 -2.9073 -0.8295
 9698TIP3   OH229036   5.255   2.793   6.307 -0.3571  0.5461  0.1848
 9698TIP3    H129037   5.187   2.764   6.246  0.3804  1.7155 -1.2476
 9698TIP3    H229038   5.228   2.760   6.392 -0.5607 -2.6159 -1.0347
 9699TIP3   OH229039   7.124   2.465   3.753 -0.3255 -0.8644 -0.0216
 9699TIP3    H129040   7.135   2.444   3.845 -0.1870  1.1554  0.4454
 9699TIP3    H229041   7.035   2.438   3.732 -0.9862  0.3701  1.1870
 9700TIP3   OH229042   2.133   7.167   6.538 -0.3458  0.6658 -0.0269
 9700TIP3    H129043   2.065   7.230   6.562 -0.5805  0.7466 -0.8935
 9700TIP3    H229044   2.120   7.094   6.599  0.5251  1.8376  1.5987
 9701TIP3   OH229045   2.891   6.326   6.745 -0.0420 -0.2753 -0.2758
 9701TIP3    H129046   2.902   6.231   6.757  3.9484  0.3446  1.5277
 9701TIP3    H229047   2.931   6.344   6.660 -0.5551 -0.1488 -0.4923
 9702TIP3   OH229048   5.570   2.641   5.682 -0.2535  0.1828 -0.2547
 9702TIP3    H129049   5.497   2.579   5.686  0.2799 -0.4001  0.5064
 9702TIP3    H229050   5.539   2.710   5.623 -0.2776 -1.5469 -2.3330
 9703TIP3   OH229051   8.071   3.946   0.912 -0.0795  0.2167  0.0825
 9703TIP3    H129052   8.017   3.895   0.973 -1.2966 -0.9801 -1.9197
 9703TIP3    H229053   8.060   4.037   0.940 -0.6831 -0.3089  1.5908
 9704TIP3   OH229054   3.394   4.827   1.181  0.7326 -0.3736 -0.1619
 9704TIP3    H129055   3.380   4.880   1.260  0.6105  0.8458 -0.9805
 9704TIP3    H229056   3.330   4.756   1.188 -3.4341  2.9607 -1.9601
 9705TIP3   OH229057   7.723   5.476   0.573  0.0691  0.2046 -0.0895
 9705TIP3    H129058   7.709   5.540   0.643  0.4232  0.7743 -0.5332
 9705TIP3    H229059   7.714   5.527   0.493 -3.2921 -1.0306 -0.5518
 9706TIP3   OH229060   1.481   6.465   0.521  0.5149  0.0143 -0.7636
 9706TIP3    H129061   1.467   6.407   0.446  2.2143 -1.5592  0.0855
 9706TIP3    H229062   1.480   6.406   0.596  1.4823  1.2017  0.1918
 9707TIP3   OH229063   5.264   0.821   6.595 -0.6094 -0.4390  0.5453
 9707TIP3    H129064   5.304   0.760   6.533 -1.1896 -0.0520 -0.2242
 9707TIP3    H229065   5.336   0.874   6.628 -0.5210  0.5069 -1.1096
 9708TIP3   OH229066   1.697   4.410   0.657  0.0168 -0.1841 -0.6106
 9708TIP3    H129067   1.740   4.400   0.741 -0.3639  1.5038 -0.2095
 9708TIP3    H229068   1.766   4.394   0.592 -0.2530 -4.0535 -0.0404
 9709TIP3   OH229069   7.661   4.139   0.323  0.4253  0.0306  0.2962
 9709TIP3    H129070   7.753   4.141   0.347  0.7927 -1.3096 -0.9615
 9709TIP3    H229071   7.617   4.106   0.402  1.3308 -1.9714 -0.0290
 9710TIP3   OH229072   6.572   2.106   6.833  0.2874  0.0039 -0.0660
 9710TIP3    H129073   6.550   2.013   6.825  1.7954 -0.4617  1.0312
 9710TIP3    H229074   6.588   2.135   6.743  1.2693 -1.1721 -0.2848
 9711TIP3   OH229075   3.845   1.355   4.383  0.1360 -0.5902 -0.3928
 9711TIP3    H129076   3.871   1.367   4.475 -0.8371 -1.7988  0.0468
 9711TIP3    H229077   3.756   1.389   4.379  0.4559  0.1711 -1.0718
 9712TIP3   OH229078   5.730   1.874   4.882 -0.3348 -0.1355 -0.1209
 9712TIP3    H129079   5.815   1.894   4.920 -0.0561  0.8723 -1.2478
 9712TIP3    H229080   5.674   1.947   4.910 -0.4835 -0.1141 -0.4722
 9713TIP3   OH229081   6.658   3.174   5.174 -0.1604 -0.5839 -0.2521
 9713TIP3    H129082   6.571   3.193   5.208  0.7057  0.5173  1.4671
 9713TIP3    H229083   6.667   3.229   5.096 -0.2522  0.8901  0.7567
 9714TIP3   OH229084   6.512   2.514   6.778 -0.4263  0.4281 -0.1691
 9714TIP3    H129085   6.486   2.535   6.868 -0.2080 -3.9421  1.0293
 9714TIP3    H229086   6.607   2.526   6.777  0.1307 -3.2145  1.4021
 9715TIP3   OH229087   7.005   1.907   6.321 -0.1012 -0.3007 -0.5921
 9715TIP3    H129088   6.959   1.990   6.312  1.4696  0.5447 -1.0876
 9715TIP3    H229089   6.938   1.844   6.346 -1.4906  0.9048 -1.2647
 9716TIP3   OH229090   5.855   1.634   6.148  0.4502  0.2129 -0.4759
 9716TIP3    H129091   5.761   1.648   6.143  0.3637 -0.0342  0.3493
 9716TIP3    H229092   5.894   1.713   6.110 -0.0877  0.2569 -0.9324
 9717TIP3   OH229093   4.864   1.296   6.390  0.3350  0.5369 -0.1232
 9717TIP3    H129094   4.929   1.350   6.434  0.9581 -0.1861 -0.1577
 9717TIP3    H229095   4.813   1.358   6.338  2.4272  0.8391 -1.8906
 9718TIP3   OH229096   5.490   2.485   6.214  0.0504 -0.2140 -0.1424
 9718TIP3    H129097   5.533   2.417   6.265  0.1570 -1.6563 -2.0762
 9718TIP3    H229098   5.404   2.449   6.194 -1.0927  1.5382  1.4257
 9719TIP3   OH229099   5.535   0.430   5.676  0.3057  0.6796 -0.5490
 9719TIP3    H129100   5.540   0.337   5.657  0.7607  1.2346 -3.3448
 9719TIP3    H229101   5.443   0.444   5.700  0.1712 -0.4285 -0.3761
 9720TIP3   OH229102   5.103   2.402   5.304 -0.4301  0.4006  0.2129
 9720TIP3    H129103   5.010   2.389   5.285 -0.9799  2.9208  0.9739
 9720TIP3    H229104   5.114   2.497   5.310  2.0480  0.1277  0.8727
 9721TIP3   OH229105   0.722   5.224   0.048  0.0957  0.2283 -0.2212
 9721TIP3    H129106   0.792   5.286   0.068 -0.1416  0.1360  0.9030
 9721TIP3    H229107   0.754   5.140   0.083  0.0422 -0.1129 -0.9742
 9722TIP3   OH229108   5.692   1.204   6.508  0.1143 -0.0569 -0.1875
 9722TIP3    H129109   5.653   1.261   6.442 -1.3836 -0.0035  0.7033
 9722TIP3    H229110   5.690   1.117   6.470 -1.1265 -0.0905 -0.0685
 9723TIP3   OH229111   1.755   5.790   0.905  0.1780 -0.6491 -0.5814
 9723TIP3    H129112   1.689   5.816   0.840  0.7072 -0.1877 -0.9397
 9723TIP3    H229113   1.800   5.716   0.864  0.7622 -0.1206 -0.9138
 9724TIP3   OH229114   5.597   0.084   5.375 -0.5242 -0.5178  0.7481
 9724TIP3    H129115   5.594   0.179   5.362  0.0252 -0.6016  0.0174
 9724TIP3    H229116   5.622   0.048   5.290 -0.3316 -1.2957  1.1245
 9725TIP3   OH229117   7.652   3.789   0.252 -0.1424 -0.1622  0.1605
 9725TIP3    H129118   7.665   3.717   0.191  1.2018 -1.0083  1.3993
 9725TIP3    H229119   7.562   3.817   0.238 -0.5377 -1.7950 -0.6352
 9726TIP3   OH229120   6.127   3.087   6.179 -0.1731  0.1958  0.2357
 9726TIP3    H129121   6.215   3.113   6.206 -0.9462  0.9081  2.1420
 9726TIP3    H229122   6.081   3.169   6.163 -0.5417 -0.1698 -0.5946
 9727TIP3   OH229123   5.104   0.901   6.070 -0.0315  0.3584 -0.3631
 9727TIP3    H129124   5.052   0.893   6.150  0.2176 -1.4197 -0.3632
 9727TIP3    H229125   5.177   0.958   6.095 -0.8528  1.1781  0.2070
 9728TIP3   OH229126   7.769   0.371   5.689  0.1611 -0.4884  0.0247
 9728TIP3    H129127   7.715   0.450   5.683  0.7049 -0.2045 -1.1994
 9728TIP3    H229128   7.707   0.299   5.676 -0.2267 -0.2442  0.4983
 9729TIP3   OH229129   0.132   5.613   1.385  0.4334  0.6226 -0.3696
 9729TIP3    H129130   0.216   5.646   1.418  0.7849  1.2052 -1.8223
 9729TIP3    H229131   0.119   5.659   1.302  0.1997 -1.7330 -1.6825
 9730TIP3   OH229132   3.204   0.852   6.927 -0.4196  0.3301  0.7804
 9730TIP3    H129133   3.130   0.912   6.919 -0.6983 -0.0761  0.2527
 9730TIP3    H229134   3.272   0.904   6.971 -0.9117  0.7966  0.9987
 9731TIP3   OH229135   7.376   5.705   0.022 -0.0778 -0.0796  0.2004
 9731TIP3    H129136   7.372   5.626   0.075  1.5719  0.6949  1.4970
 9731TIP3    H229137   7.442   5.686  -0.045  1.0104  0.5178  1.0837
 9732TIP3   OH229138   7.048   7.567   0.061  0.0722 -0.0553  0.0311
 9732TIP3    H129139   7.017   7.658   0.061  0.2108  0.0483 -3.3739
 9732TIP3    H229140   6.969   7.515   0.069 -0.1227  0.3169  0.6215
 9733TIP3   OH229141   6.139   2.832   6.060 -0.0668 -0.4463 -0.4197
 9733TIP3    H129142   6.073   2.782   6.109  0.9669 -1.4337 -0.0174
 9733TIP3    H229143   6.170   2.898   6.122  0.8989 -1.3916  0.1145
 9734TIP3   OH229144   6.620   6.456   1.048  0.2991  0.6371 -0.2007
 9734TIP3    H129145   6.714   6.471   1.056 -0.0084  2.1174  0.6973
 9734TIP3    H229146   6.612   6.394   0.975  1.9173  1.0253 -0.7209
 9735TIP3   OH229147   5.365   1.817   6.486 -0.0554 -0.2310  0.0751
 9735TIP3    H129148   5.281   1.783   6.518 -0.0747 -2.3285 -2.0434
 9735TIP3    H229149   5.343   1.860   6.403  0.9846 -1.0040 -0.6106
 9736TIP3   OH229150   7.499   3.814   5.549 -0.0379 -0.1337  0.0050
 9736TIP3    H129151   7.461   3.869   5.617  0.6772  0.2658  0.0889
 9736TIP3    H229152   7.532   3.876   5.484  2.1792 -0.3803  0.8396
 9737TIP3   OH229153   0.864   5.538   0.367 -0.1402 -0.2038 -0.2233
 9737TIP3    H129154   0.930   5.572   0.428 -0.1644  1.3518 -1.0376
 9737TIP3    H229155   0.793   5.601   0.372 -0.4722 -0.4879 -1.2810
 9738TIP3   OH229156   0.144   3.859   0.740  0.5257 -0.5333  0.3461
 9738TIP3    H129157   0.217   3.897   0.690 -0.0282  0.0049 -0.0640
 9738TIP3    H229158   0.083   3.932   0.753  0.0679 -0.9760  0.7029
 9739TIP3   OH229159   3.296   0.209   0.257  0.4565 -0.2976 -0.5362
 9739TIP3    H129160   3.306   0.116   0.276 -0.3344 -0.4845 -1.0210
 9739TIP3    H229161   3.350   0.225   0.180 -0.4060 -0.6254 -1.2136
 9740TIP3   OH229162   4.297   3.824   3.053  0.1029 -0.0688  0.4759
 9740TIP3    H129163   4.371   3.878   3.080  0.8170 -1.1834  0.7386
 9740TIP3    H229164   4.293   3.753   3.117 -0.5167 -0.6226 -0.1651
 9741TIP3   OH229165   0.385   2.633   0.686  0.8523  0.2554 -0.3092
 9741TIP3    H129166   0.353   2.696   0.751  1.2488 -1.8242  1.9657
 9741TIP3    H229167   0.315   2.629   0.621  0.3205  2.1846  0.0903
 9742TIP3   OH229168   5.051   1.730   5.296  0.1021  0.3910  0.6558
 9742TIP3    H129169   5.126   1.752   5.240 -1.1859 -0.9062 -1.6781
 9742TIP3    H229170   5.020   1.646   5.263 -2.5396  1.0181  1.3881
 9743TIP3   OH229171   6.452   1.769   4.545  0.6862 -0.4498 -0.0558
 9743TIP3    H129172   6.469   1.822   4.623 -0.4398 -2.4439  1.6017
 9743TIP3    H229173   6.372   1.807   4.507 -1.1988 -2.0467  2.1762
 9744TIP3   OH229174   6.430   2.557   6.152  0.3925 -0.1686  0.1998
 9744TIP3    H129175   6.373   2.565   6.075  2.3788 -1.3430 -1.4738
 9744TIP3    H229176   6.423   2.465   6.177  0.2263  0.0733  1.0541
 9745TIP3   OH229177   2.647   7.694   4.290 -0.3819 -0.1792  0.2860
 9745TIP3    H129178   2.592   7.667   4.217 -1.3807 -1.1006  1.3502
 9745TIP3    H229179   2.733   7.708   4.251 -1.1402  0.3470 -1.2374
 9746TIP3   OH229180   6.523   2.055   6.329  0.3304  0.6528 -0.0344
 9746TIP3    H129181   6.540   2.022   6.241  1.0316  0.4419  0.1693
 9746TIP3    H229182   6.458   1.995   6.365  0.9492 -0.0034  0.0193
 9747TIP3   OH229183   0.837   5.372   1.670 -0.0028  0.2446 -0.1197
 9747TIP3    H129184   0.823   5.453   1.620  1.1662  1.5879  1.6760
 9747TIP3    H229185   0.750   5.334   1.678 -0.5507  1.2287 -1.1520
 9748TIP3   OH229186   5.893   0.734   6.079  0.3085 -0.5361  0.3841
 9748TIP3    H129187   5.942   0.709   6.001  1.3524  1.2725  0.4316
 9748TIP3    H229188   5.953   0.717   6.152  0.9211  1.6681  0.4418
 9749TIP3   OH229189   5.192   3.076   6.194 -0.5917  0.1254  0.5556
 9749TIP3    H129190   5.215   3.118   6.277  0.1041  0.0339  0.4055
 9749TIP3    H229191   5.200   2.982   6.211  2.8669  0.1435 -0.5511
 9750TIP3   OH229192   6.390   2.368   6.592 -0.5025  0.3800 -0.1743
 9750TIP3    H129193   6.439   2.427   6.650  0.2732  0.1943 -0.6416
 9750TIP3    H229194   6.452   2.299   6.570 -2.2836 -2.2952  2.7718
 9751TIP3   OH229195   8.384   5.097   0.936  0.2198 -0.2194  0.5810
 9751TIP3    H129196   8.393   5.021   0.878 -0.5486  0.0241  0.1354
 9751TIP3    H229197   8.453   5.156   0.908  0.6588 -0.6427  0.7616
 9752TIP3   OH229198   5.897   1.161   3.377 -0.8352  0.1237 -0.1337
 9752TIP3    H129199   5.838   1.100   3.332  0.1019 -0.3813 -0.6953
 9752TIP3    H229200   5.934   1.110   3.449 -1.4645  0.5918  0.5238
 9753TIP3   OH229201   2.496   7.226   5.463  0.5595 -0.5292 -0.2611
 9753TIP3    H129202   2.449   7.241   5.545 -0.1102  0.2618 -0.7704
 9753TIP3    H229203   2.572   7.174   5.487 -0.1706 -1.1569  0.7022
 9754TIP3   OH229204   7.826   6.913   1.213  0.9464  0.0604 -0.0133
 9754TIP3    H129205   7.862   6.874   1.134 -1.3597 -0.5425 -0.8015
 9754TIP3    H229206   7.782   6.841   1.258 -0.8604  1.1122 -0.0250
 9755TIP3   OH229207   6.284   2.133   5.883  0.0860  0.1167 -0.1736
 9755TIP3    H129208   6.204   2.095   5.846 -1.5088  2.6655  0.6043
 9755TIP3    H229209   6.254   2.192   5.952  2.5272  2.1442 -0.7662
 9756TIP3   OH229210   7.752   3.092   5.064  0.3688 -0.1329 -0.3121
 9756TIP3    H129211   7.845   3.111   5.054  0.3524 -0.1486 -0.5002
 9756TIP3    H229212   7.728   3.135   5.146  0.6371 -0.4845 -0.0472
 9757TIP3   OH229213   0.730   5.773   0.745 -0.1032  0.7172  0.2694
 9757TIP3    H129214   0.814   5.754   0.788 -0.1348  0.5968  0.2770
 9757TIP3    H229215   0.669   5.788   0.817 -0.0488  0.9783  0.2629
 9758TIP3   OH229216   1.865   7.009   6.473 -0.1380 -0.0868 -0.2822
 9758TIP3    H129217   1.785   7.017   6.422 -0.7292 -0.9637  0.4810
 9758TIP3    H229218   1.935   7.038   6.414 -0.8371 -0.7923 -1.4778
 9759TIP3   OH229219   4.025   1.911   6.269 -0.1543  0.9078  0.1626
 9759TIP3    H129220   3.939   1.905   6.228 -0.8751 -1.0362  1.8898
 9759TIP3    H229221   4.085   1.870   6.207 -0.8482  0.1344  0.0089
 9760TIP3   OH229222   5.023   1.899   5.902  0.8050  0.1012  0.1822
 9760TIP3    H129223   4.958   1.965   5.927 -0.6287 -0.2127 -2.5102
 9760TIP3    H229224   5.053   1.927   5.815  1.5184 -1.8081 -0.2146
 9761TIP3   OH229225   8.084   4.088   0.149  0.3447 -0.2454 -0.4100
 9761TIP3    H129226   8.040   4.004   0.138  1.9301 -1.4191  1.9775
 9761TIP3    H229227   8.043   4.127   0.226 -0.3975  1.2352 -1.5154
 9762TIP3   OH229228   1.467   7.348   6.573  0.1710  0.1060 -0.0079
 9762TIP3    H129229   1.465   7.443   6.565  1.2545  0.1794  0.4412
 9762TIP3    H229230   1.520   7.319   6.499 -0.5512 -0.1886 -0.4125
 9763TIP3   OH229231   6.583   4.667   1.128  0.3026 -0.4705  0.0796
 9763TIP3    H129232   6.569   4.704   1.215  0.6639  1.2211 -0.5490
 9763TIP3    H229233   6.673   4.634   1.130  1.2549  1.9589 -0.4387
 9764TIP3   OH229234   1.021   4.136   0.249  0.6120  0.0612  0.1582
 9764TIP3    H129235   0.990   4.226   0.235  0.2454  0.0489  0.9018
 9764TIP3    H229236   1.110   4.146   0.280  0.2662  0.1962  1.1092
 9765TIP3   OH229237   6.539   2.900   5.868 -0.1385  0.0025 -0.9401
 9765TIP3    H129238   6.538   2.814   5.827 -2.0524 -0.3780 -0.1344
 9765TIP3    H229239   6.451   2.935   5.854  0.2491  1.3210 -0.2027
 9766TIP3   OH229240   6.649   1.830   6.777  0.7714 -0.4368 -0.4489
 9766TIP3    H129241   6.626   1.756   6.834  0.5928  0.3022  0.4428
 9766TIP3    H229242   6.737   1.810   6.746  0.7900 -0.9368 -0.0800
 9767TIP3   OH229243   6.199   1.748   6.722 -0.4265 -0.0261 -0.0998
 9767TIP3    H129244   6.242   1.809   6.781 -0.9919  0.0440  0.2476
 9767TIP3    H229245   6.235   1.662   6.745 -0.4619  0.0332  0.1804
 9768TIP3   OH229246   7.471   6.261   1.000 -0.3327 -0.1313  0.0734
 9768TIP3    H129247   7.551   6.219   1.031 -1.1537 -1.5848  0.2464
 9768TIP3    H229248   7.477   6.256   0.904  0.1197  0.4161  0.0697
 9769TIP3   OH229249   4.776   2.126   5.415  0.5169  0.5560  0.1382
 9769TIP3    H129250   4.791   2.177   5.495  0.1361  2.5034 -1.0072
 9769TIP3    H229251   4.683   2.102   5.419  0.5491  0.4692  0.3733
 9770TIP3   OH229252   5.265   0.287   6.173  0.1898 -0.7626 -0.2346
 9770TIP3    H129253   5.329   0.321   6.111  0.2283 -1.5857 -0.6555
 9770TIP3    H229254   5.180   0.305   6.132  0.2154 -1.3136 -0.5345
 9771TIP3   OH229255   5.146   1.557   5.546  0.2520 -0.2121  0.5482
 9771TIP3    H129256   5.191   1.500   5.607  1.3163 -0.0756 -0.0880
 9771TIP3    H229257   5.128   1.502   5.470  2.4176  0.5817 -0.5882
 9772TIP3   OH229258   2.304   2.076   4.126  0.1811  0.3521  0.0429
 9772TIP3    H129259   2.358   2.004   4.160  1.0912  0.2729 -1.5534
 9772TIP3    H229260   2.360   2.153   4.134 -1.4447  1.2774  3.5038
 9773TIP3   OH229261   6.373   5.485   2.610 -0.2473  0.1667  0.1403
 9773TIP3    H129262   6.288   5.479   2.653 -0.6005  0.7155 -0.4658
 9773TIP3    H229263   6.389   5.580   2.603  0.5356  0.0592  0.5100
 9774TIP3   OH229264   6.555   1.474   4.971  0.6015  0.2539 -0.1477
 9774TIP3    H129265   6.580   1.528   4.896 -0.5175  2.4147  1.0031
 9774TIP3    H229266   6.616   1.498   5.040 -0.7491  1.0741  0.7869
 9775TIP3   OH229267   5.986   2.357   5.023  0.2309  0.4037  0.7441
 9775TIP3    H129268   5.966   2.367   5.116  0.6323  0.4807  0.8236
 9775TIP3    H229269   5.902   2.335   4.983  0.5722 -2.3787  1.5110
 9776TIP3   OH229270   6.181   0.557   5.042  0.2102  0.3320  0.3401
 9776TIP3    H129271   6.252   0.612   5.073  0.3149 -0.0510  0.7956
 9776TIP3    H229272   6.196   0.547   4.948  1.1815 -0.3518  0.5629
 9777TIP3   OH229273   6.673   1.326   6.083  0.5916 -0.0076 -0.5460
 9777TIP3    H129274   6.597   1.294   6.035  1.3390  0.8312 -2.3147
 9777TIP3    H229275   6.724   1.248   6.101  0.1902 -0.3592 -0.9102
 9778TIP3   OH229276   1.030   4.768   0.247  0.4466  0.0625  0.0797
 9778TIP3    H129277   1.061   4.689   0.204  0.4987 -0.2615  0.7187
 9778TIP3    H229278   1.070   4.767   0.334 -1.3248 -0.3657  0.9194
 9779TIP3   OH229279   1.159   4.417   0.530  0.1577 -0.1401 -0.8813
 9779TIP3    H129280   1.175   4.406   0.623 -0.9251 -3.0254 -0.9873
 9779TIP3    H229281   1.237   4.462   0.497  0.1507  1.7404  1.5278
 9780TIP3   OH229282   4.857   0.299   5.657  0.0898 -0.5142  0.0943
 9780TIP3    H129283   4.849   0.295   5.752 -0.4816 -0.3555  0.0543
 9780TIP3    H229284   4.771   0.272   5.624 -0.1147  0.6236 -0.3531
 9781TIP3   OH229285   2.906   7.773   5.742 -0.4879  0.3557  0.1799
 9781TIP3    H129286   2.921   7.731   5.658  0.7500 -0.4067  0.7756
 9781TIP3    H229287   2.879   7.862   5.719  3.1742  1.2476 -1.0089
 9782TIP3   OH229288   0.019   5.639   0.465 -0.0058 -0.1274  0.2199
 9782TIP3    H129289   0.050   5.555   0.432 -4.3618 -0.7856 -2.5559
 9782TIP3    H229290   0.065   5.704   0.413 -0.6772 -0.9899 -1.4861
 9783TIP3   OH229291   4.903   1.027   5.671 -0.4303 -0.0190  0.4285
 9783TIP3    H129292   4.931   1.082   5.598  0.7409 -1.2872 -0.0963
 9783TIP3    H229293   4.808   1.018   5.660 -0.4427  0.8349 -0.2021
 9784TIP3   OH229294   6.274   0.823   6.926 -0.2641  0.1090 -0.0643
 9784TIP3    H129295   6.181   0.803   6.917 -0.4400  0.4020  1.1375
 9784TIP3    H229296   6.300   0.852   6.838 -0.8530 -1.7959 -0.9117
 9785TIP3   OH229297   3.594   3.990   5.267 -0.4496  0.1204  0.4437
 9785TIP3    H129298   3.618   4.077   5.300 -1.6740  0.1040  1.4113
 9785TIP3    H229299   3.593   3.934   5.344 -2.0210 -0.2149  0.2141
 9786TIP3   OH229300   3.872   3.438   5.486 -0.0339  0.0826 -0.0880
 9786TIP3    H129301   3.944   3.501   5.477  1.0471 -0.9434  1.2247
 9786TIP3    H229302   3.849   3.414   5.396  1.8797 -0.2863 -0.4911
 9787TIP3   OH229303   8.074   4.181   1.105 -0.4312  0.1484 -0.2888
 9787TIP3    H129304   7.994   4.175   1.053  0.1140 -0.6370 -1.0459
 9787TIP3    H229305   8.066   4.264   1.152 -2.4115 -0.6459  0.8469
 9788TIP3   OH229306   3.454   0.514   5.549 -0.3169  0.8546 -0.1299
 9788TIP3    H129307   3.414   0.595   5.581 -3.2661  0.8934 -3.5928
 9788TIP3    H229308   3.547   0.535   5.538 -0.4650  2.7542  2.0110
 9789TIP3   OH229309   7.232   3.387   6.324  0.2913  0.3260 -0.5793
 9789TIP3    H129310   7.198   3.299   6.311 -0.9111  0.7911 -0.5879
 9789TIP3    H229311   7.317   3.387   6.279  0.8575 -1.1882  0.4491
 9790TIP3   OH229312   5.252   0.398   6.425  0.0366  0.2648 -0.1349
 9790TIP3    H129313   5.264   0.362   6.337 -1.9970  0.7078 -0.6189
 9790TIP3    H229314   5.303   0.478   6.425 -0.9319  0.9080 -1.3571
 9791TIP3   OH229315   7.898   5.739   0.672  0.2811  0.0561 -0.3772
 9791TIP3    H129316   7.892   5.819   0.725  0.0196  0.5120 -1.0920
 9791TIP3    H229317   7.934   5.674   0.732  0.8805  0.8165  0.1012
 9792TIP3   OH229318   0.300   5.200   1.735 -0.2307  0.1596 -0.1206
 9792TIP3    H129319   0.313   5.109   1.762  1.3668 -0.1495 -1.8575
 9792TIP3    H229320   0.209   5.202   1.704 -0.4274 -0.7353  0.3701
 9793TIP3   OH229321   5.390   2.005   6.838 -0.3466 -0.2499 -0.4954
 9793TIP3    H129322   5.297   1.982   6.828 -0.4356  0.2384 -0.8295
 9793TIP3    H229323   5.426   1.935   6.892 -0.1560 -2.2997 -3.1756
 9794TIP3   OH229324   7.851   4.462   0.043  0.0348 -0.0140  0.3407
 9794TIP3    H129325   7.847   4.388  -0.017 -0.3789 -0.1058  0.4849
 9794TIP3    H229326   7.937   4.501   0.027  1.4401 -2.2092  2.2792
 9795TIP3   OH229327   5.204   3.751   4.770  0.1608 -0.9000  0.0183
 9795TIP3    H129328   5.177   3.772   4.860  0.3635  0.0089 -0.1267
 9795TIP3    H229329   5.296   3.727   4.778  0.0540 -1.2825  0.1171
 9796TIP3   OH229330   0.261   5.114   1.115  0.1215 -0.1286  0.2789
 9796TIP3    H129331   0.307   5.090   1.034 -0.6032  0.5813 -0.3593
 9796TIP3    H229332   0.215   5.035   1.142 -2.5078  0.5438 -1.9680
 9797TIP3   OH229333   7.340   5.465   0.257  0.1192  0.3743  0.2367
 9797TIP3    H129334   7.248   5.466   0.286  0.3853  0.3061  1.0892
 9797TIP3    H229335   7.385   5.524   0.318  0.4312  1.3550 -0.9022
 9798TIP3   OH229336   1.470   4.201   3.328 -0.1948  0.4831 -0.2854
 9798TIP3    H129337   1.376   4.197   3.340 -0.3469  1.5646 -1.0211
 9798TIP3    H229338   1.495   4.112   3.301 -1.0787  0.3340 -0.6117
 9799TIP3   OH229339   5.515   2.774   5.387  0.3124  0.0605  0.0681
 9799TIP3    H129340   5.525   2.842   5.452 -0.1033  0.5771 -0.4069
 9799TIP3    H229341   5.427   2.785   5.352 -0.3239 -1.6797  1.0655
 9800TIP3   OH229342   1.031   6.122   1.344  0.7267 -0.7056 -0.2257
 9800TIP3    H129343   1.034   6.218   1.344 -0.7283 -0.6461 -0.8686
 9800TIP3    H229344   1.004   6.099   1.255  0.0030 -1.6642  0.2356
 9801TIP3   OH229345   6.437   1.187   5.994  0.4187  0.0260  0.2097
 9801TIP3    H129346   6.387   1.119   6.041 -1.0807  1.3922  0.6299
 9801TIP3    H229347   6.382   1.209   5.919  0.7527  1.0164  0.2565
 9802TIP3   OH229348   4.066   0.726   5.648  0.1924 -0.2127  0.5460
 9802TIP3    H129349   4.076   0.750   5.740  1.7411  1.1024  0.0582
 9802TIP3    H229350   3.992   0.779   5.618  0.6741  0.5064  0.6346
 9803TIP3   OH229351   2.897   5.411   1.609 -0.5065  0.4195 -0.0591
 9803TIP3    H129352   2.921   5.384   1.698 -0.5666  0.4829 -0.0232
 9803TIP3    H229353   2.802   5.406   1.608 -0.3881 -1.9797 -0.8904
 9804TIP3   OH229354   6.664   0.702   5.913  0.0987  0.1732  0.6054
 9804TIP3    H129355   6.623   0.765   5.972  0.0986 -0.5613  1.3974
 9804TIP3    H229356   6.598   0.634   5.900  0.1317  0.2873 -0.1710
 9805TIP3   OH229357   1.520   5.605   1.125 -0.5976 -0.6348  0.3414
 9805TIP3    H129358   1.428   5.590   1.103 -0.7498 -0.1994  0.6737
 9805TIP3    H229359   1.526   5.699   1.142  0.3413 -0.3308 -1.6248
 9806TIP3   OH229360   6.089   1.846   6.354  0.9295  0.5253  0.0341
 9806TIP3    H129361   6.022   1.863   6.288  1.5867  0.9817 -0.5244
 9806TIP3    H229362   6.143   1.776   6.316 -0.7345 -1.6823  1.5809
 9807TIP3   OH229363   6.562   2.308   5.558 -0.5508 -0.0781  0.2420
 9807TIP3    H129364   6.504   2.358   5.617  0.3301  0.4949  0.6419
 9807TIP3    H229365   6.594   2.373   5.496 -0.5927 -0.4639 -0.1853
 9808TIP3   OH229366   1.658   3.930   0.183 -0.1540  0.1064 -0.1774
 9808TIP3    H129367   1.734   3.969   0.139  1.2466  0.2734  2.2698
 9808TIP3    H229368   1.611   4.005   0.219 -0.1511 -0.1486  0.3575
 9809TIP3   OH229369   7.216   1.676   5.044  0.0229 -0.1279 -0.1370
 9809TIP3    H129370   7.221   1.763   5.003 -0.4920 -0.1867 -0.3196
 9809TIP3    H229371   7.154   1.628   4.990 -1.9011  0.2883  1.6348
 9810TIP3   OH229372   0.354   4.172   0.077 -0.0874  0.1516 -0.4458
 9810TIP3    H129373   0.264   4.195   0.100  1.0214  1.3123  3.1173
 9810TIP3    H229374   0.349   4.082   0.047 -2.1487 -0.4967  1.6963
 9811TIP3   OH229375   1.092   3.449   1.072  0.0782  0.3856  0.2335
 9811TIP3    H129376   1.109   3.365   1.030  1.4163  1.0933 -0.6905
 9811TIP3    H229377   1.031   3.493   1.012  2.4161  1.6182 -1.3249
 9812TIP3   OH229378   4.870   6.167   1.115 -0.0586  0.1534  0.2280
 9812TIP3    H129379   4.951   6.116   1.109  0.2864  0.3965  2.4376
 9812TIP3    H229380   4.841   6.176   1.024  0.9778 -2.2020 -0.3900
 9813TIP3   OH229381   5.545   0.665   6.704 -0.4312  0.3428 -0.0630
 9813TIP3    H129382   5.520   0.753   6.734 -0.1523  0.1059  0.9044
 9813TIP3    H229383   5.618   0.641   6.762  1.4244  0.6523 -2.1800
 9814TIP3   OH229384   4.688   1.747   6.667  0.0389  0.2520 -0.0816
 9814TIP3    H129385   4.595   1.728   6.661 -0.0956  0.6976  0.5771
 9814TIP3    H229386   4.731   1.665   6.640 -0.5352 -0.0130 -0.2014
 9815TIP3   OH229387   4.708   0.735   6.474  0.2939 -0.0041 -0.3474
 9815TIP3    H129388   4.634   0.734   6.414 -0.5634 -1.5118  0.6998
 9815TIP3    H229389   4.715   0.644   6.506  3.0962 -0.0881 -1.0603
 9816TIP3   OH229390   5.004   1.645   5.800 -0.8596  0.4015  0.7011
 9816TIP3    H129391   5.042   1.651   5.712  0.5661 -0.0938  1.2540
 9816TIP3    H229392   5.009   1.734   5.834 -0.3654  0.3833  0.6876
 9817TIP3   OH229393   7.980   4.622   2.652  0.1062 -0.1786  0.5711
 9817TIP3    H129394   7.952   4.713   2.662 -0.7173 -0.4340  0.6799
 9817TIP3    H229395   7.924   4.589   2.581  0.4653 -0.5734  0.4750
 9818TIP3   OH229396   7.767   5.236   1.292 -0.1280 -0.0921 -0.2015
 9818TIP3    H129397   7.704   5.299   1.326 -1.2099 -1.8605  1.2052
 9818TIP3    H229398   7.751   5.234   1.198 -1.1628  0.5744 -0.0466
 9819TIP3   OH229399   7.955   2.505   4.596  0.2465 -0.0123 -0.0619
 9819TIP3    H129400   7.913   2.518   4.511 -4.7277 -0.1872  2.1964
 9819TIP3    H229401   7.966   2.411   4.603 -1.2010 -0.1611  0.2968
 9820TIP3   OH229402   7.363   0.330   6.428 -0.2620  0.2972  0.3183
 9820TIP3    H129403   7.314   0.251   6.405  1.2716 -0.5988  0.0826
 9820TIP3    H229404   7.444   0.323   6.379 -0.7159  2.7619 -0.8584
 9821TIP3   OH229405   4.737   2.185   6.332  0.0567  0.4291  0.0681
 9821TIP3    H129406   4.732   2.108   6.388  0.4785 -0.2604 -0.8196
 9821TIP3    H229407   4.649   2.222   6.333 -0.5128 -0.8700 -0.6006
 9822TIP3   OH229408   7.924   6.306   0.638  0.1823  0.3766 -0.0670
 9822TIP3    H129409   7.852   6.315   0.700  0.2431  3.6523 -0.3938
 9822TIP3    H229410   7.881   6.288   0.554 -0.1967  0.9900 -0.0100
 9823TIP3   OH229411   7.812   0.388   3.914 -0.3878  0.6393 -0.8692
 9823TIP3    H129412   7.824   0.482   3.930 -1.2394  0.8686 -1.5310
 9823TIP3    H229413   7.722   0.371   3.942 -0.3455  0.0890 -1.0690
 9824TIP3   OH229414   4.347   7.567   6.161  0.2923  0.1878  0.6478
 9824TIP3    H129415   4.324   7.540   6.251 -1.2155  0.1473  0.2754
 9824TIP3    H229416   4.441   7.554   6.155  0.1339 -1.5718  1.6556
 9825TIP3   OH229417   6.308   2.325   5.422  0.1013  0.4324 -0.0205
 9825TIP3    H129418   6.389   2.297   5.466  0.9271  0.6199 -1.3943
 9825TIP3    H229419   6.321   2.302   5.330 -1.4658  0.3665 -0.2392
 9826TIP3   OH229420   3.659   0.905   6.375  0.4797 -0.6397  0.3141
 9826TIP3    H129421   3.702   0.951   6.448  0.0805 -1.2580  0.9522
 9826TIP3    H229422   3.610   0.835   6.418 -0.6855 -0.3013 -0.4544
 9827TIP3   OH229423   8.327   4.732   0.384  0.1650  0.3233  0.1899
 9827TIP3    H129424   8.311   4.648   0.427 -0.6495  0.4859  0.2200
 9827TIP3    H229425   8.416   4.756   0.410  1.2442 -1.5915 -1.6106
 9828TIP3   OH229426   1.394   5.389   0.154 -0.4241  0.0930 -0.1780
 9828TIP3    H129427   1.325   5.394   0.088  0.2657  2.4901 -0.7579
 9828TIP3    H229428   1.428   5.299   0.147 -1.3343 -0.1124 -2.0875
 9829TIP3   OH229429   8.242   1.629   4.710  0.4265  0.1864 -0.5242
 9829TIP3    H129430   8.327   1.601   4.677  0.3972 -0.9182  0.3064
 9829TIP3    H229431   8.262   1.702   4.769  0.7242  0.4207 -0.9142
 9830TIP3   OH229432   6.737   2.437   4.995 -0.2688 -0.1580  0.0782
 9830TIP3    H129433   6.684   2.358   5.005 -0.2585 -0.1138  0.4742
 9830TIP3    H229434   6.783   2.446   5.078 -1.8548  1.4117  0.8181
 9831TIP3   OH229435   5.148   3.932   3.304 -0.1071 -1.0424  0.2841
 9831TIP3    H129436   5.206   3.974   3.368  0.3463 -1.0586 -0.1137
 9831TIP3    H229437   5.140   3.995   3.233 -0.9248 -0.8655  0.5327
 9832TIP3   OH229438   6.818   5.275   2.600 -0.4469 -0.0160  0.1845
 9832TIP3    H129439   6.731   5.285   2.638 -0.3615 -1.8859  0.9085
 9832TIP3    H229440   6.875   5.256   2.674  0.5189  0.7255 -0.3461
 9833TIP3   OH229441   7.170   6.089   0.134  0.1559 -0.4206 -0.3934
 9833TIP3    H129442   7.167   6.004   0.179  0.4240 -0.5563 -0.6333
 9833TIP3    H229443   7.118   6.147   0.190  2.5260  0.0395  1.3789
 9834TIP3   OH229444   4.999   0.852   5.464  0.1372  0.0284 -0.5003
 9834TIP3    H129445   5.025   0.918   5.400 -0.2970  1.2594  0.5713
 9834TIP3    H229446   4.998   0.899   5.548 -1.0882 -1.0991  0.1383
 9835TIP3   OH229447   6.805   6.752   1.001  0.3615 -0.2287  0.0435
 9835TIP3    H129448   6.837   6.743   0.911  0.9056 -1.0106  0.3143
 9835TIP3    H229449   6.840   6.676   1.047  0.8197  0.6242  1.1316
 9836TIP3   OH229450   0.642   5.092   0.367 -0.1692 -0.3890 -0.0286
 9836TIP3    H129451   0.555   5.060   0.341 -0.4797  0.4595 -0.0666
 9836TIP3    H229452   0.703   5.037   0.319 -0.7288  0.5669 -1.8919
 9837TIP3   OH229453   6.512   2.064   5.727  0.0741 -0.5752 -0.6970
 9837TIP3    H129454   6.444   2.108   5.779  0.0315 -0.2500 -1.0269
 9837TIP3    H229455   6.509   1.973   5.757  2.4996  0.3037  2.4538
 9838TIP3   OH229456   4.986   1.316   6.119 -0.4107 -0.7524  0.1129
 9838TIP3    H129457   5.052   1.272   6.066  0.1975 -1.0626  1.1192
 9838TIP3    H229458   5.028   1.329   6.204 -1.3850 -0.2891  0.5306
 9839TIP3   OH229459   6.739   1.790   5.603 -0.5607  0.5168  0.0976
 9839TIP3    H129460   6.793   1.713   5.585 -0.2044  0.7039  0.3610
 9839TIP3    H229461   6.780   1.830   5.680 -1.3616  0.3858  0.5982
 9840TIP3   OH229462   4.472   2.469   5.966 -0.1218 -0.4079 -0.1424
 9840TIP3    H129463   4.494   2.483   5.874  2.5342 -0.3996  0.4387
 9840TIP3    H229464   4.409   2.537   5.987  1.2493  1.2494 -1.2877
 9841TIP3   OH229465   3.697   0.949   6.659  0.0433 -0.8574  0.5434
 9841TIP3    H129466   3.723   0.885   6.724 -1.9385 -2.4738 -0.1877
 9841TIP3    H229467   3.699   1.033   6.705 -1.6517 -1.9989  2.7996
 9842TIP3   OH229468   0.486   5.099   0.613 -0.1799 -0.1243 -0.7365
 9842TIP3    H129469   0.545   5.092   0.538 -3.6581 -1.8529 -3.4321
 9842TIP3    H229470   0.457   5.190   0.612 -1.4021 -0.5198 -2.4618
 9843TIP3   OH229471   3.298   3.597   5.276 -0.0175 -0.4132 -0.0204
 9843TIP3    H129472   3.229   3.538   5.246 -1.2658  0.6950  0.6025
 9843TIP3    H229473   3.275   3.617   5.367  0.5406  0.8006 -0.1362
 9844TIP3   OH229474   5.843   4.427   0.562 -0.0395  0.3169 -0.4532
 9844TIP3    H129475   5.904   4.420   0.488  1.3620 -0.5290  0.7469
 9844TIP3    H229476   5.872   4.505   0.609  0.4992 -0.4143  0.4451
 9845TIP3   OH229477   7.099   4.990   0.859 -0.4169  0.1373  0.1285
 9845TIP3    H129478   7.031   4.960   0.798  1.1343 -1.7291 -0.7432
 9845TIP3    H229479   7.164   5.032   0.802 -0.3304  0.9835  0.8434
 9846TIP3   OH229480   7.699   5.232   0.281 -0.6600 -0.3306 -0.2313
 9846TIP3    H129481   7.772   5.287   0.252  0.2347 -1.5669 -0.3564
 9846TIP3    H229482   7.626   5.258   0.224  0.3984 -0.9459 -1.9058
 9847TIP3   OH229483   2.165   4.375   1.421 -0.1500  0.7791  0.6229
 9847TIP3    H129484   2.086   4.390   1.474  0.6133  1.5523  1.5595
 9847TIP3    H229485   2.237   4.378   1.484  0.6941  0.7151 -0.3250
 9848TIP3   OH229486   3.114   2.144   4.602 -0.2752 -0.4098 -0.3211
 9848TIP3    H129487   3.209   2.145   4.588 -0.3363 -1.5391 -0.8839
 9848TIP3    H229488   3.104   2.148   4.697  0.3156  0.7111 -0.3028
 9849TIP3   OH229489   5.535   2.548   5.205  0.4285 -0.3316  0.2914
 9849TIP3    H129490   5.550   2.547   5.111 -1.2638  0.3675 -0.0093
 9849TIP3    H229491   5.514   2.639   5.225  0.0316 -0.6158  1.2186
 9850TIP3   OH229492   6.311   1.287   5.756 -0.4448 -0.1566  0.1908
 9850TIP3    H129493   6.263   1.235   5.692  0.2168 -1.1167  0.4633
 9850TIP3    H229494   6.248   1.354   5.784 -0.6686  0.4092 -1.6051
 9851TIP3   OH229495   1.900   5.298   0.949 -0.8752  0.2718 -0.3838
 9851TIP3    H129496   1.847   5.360   0.998 -0.7939  2.5159 -2.9750
 9851TIP3    H229497   1.843   5.267   0.879 -0.4031 -1.3544 -0.0617
 9852TIP3   OH229498   5.991   1.965   4.912 -0.0693  0.0279  0.3941
 9852TIP3    H129499   5.991   2.024   4.837 -0.3622  0.0596  0.4199
 9852TIP3    H229500   6.076   1.981   4.954  0.7037 -1.0253 -0.7215
 9853TIP3   OH229501   1.321   2.580   5.203  0.1373 -0.5811  0.2582
 9853TIP3    H129502   1.374   2.512   5.244 -0.3683 -0.5378  1.0081
 9853TIP3    H229503   1.253   2.599   5.268 -0.0776  0.2141 -0.1957
 9854TIP3   OH229504   6.517   2.650   5.746  0.2776 -0.3004 -0.5794
 9854TIP3    H129505   6.493   2.559   5.765  2.2038 -0.1173  3.2198
 9854TIP3    H229506   6.604   2.644   5.705  0.4504 -0.1633 -0.2319
 9855TIP3   OH229507   7.220   2.488   4.006  0.2529  0.5599  0.0194
 9855TIP3    H129508   7.235   2.467   4.099 -2.9571 -0.8854  0.2646
 9855TIP3    H229509   7.246   2.580   3.998  0.1140  0.8612  2.4749
 9856TIP3   OH229510   5.319   2.251   5.659  0.0038  0.0635 -0.7092
 9856TIP3    H129511   5.299   2.228   5.569  2.4785 -1.9636 -0.7933
 9856TIP3    H229512   5.243   2.222   5.709 -0.9296  0.2642 -2.0035
 9857TIP3   OH229513   4.318   7.716   6.773 -0.2743 -0.5028 -0.1717
 9857TIP3    H129514   4.321   7.809   6.748 -0.1383 -0.2531  0.7540
 9857TIP3    H229515   4.410   7.690   6.778 -0.3176 -0.7779 -0.7407
 9858TIP3   OH229516   8.229   0.381   6.238 -0.2550 -0.5075  0.3677
 9858TIP3    H129517   8.243   0.356   6.329 -4.8136 -1.6061  0.8749
 9858TIP3    H229518   8.234   0.477   6.238 -1.2165 -0.4508  1.9681
 9859TIP3   OH229519   8.311   4.992   6.162  0.1965  0.4598  0.0126
 9859TIP3    H129520   8.287   4.970   6.072  1.1630  1.6970 -0.5565
 9859TIP3    H229521   8.278   4.918   6.214 -1.5307  0.3442 -1.1788
 9860TIP3   OH229522   0.335   4.135   0.765  0.3599  0.1466 -0.6202
 9860TIP3    H129523   0.268   4.194   0.799 -0.9199 -1.4443 -0.2919
 9860TIP3    H229524   0.406   4.138   0.829 -0.4629 -0.0269  0.3039
 9861TIP3   OH229525   7.057   1.290   6.473  0.3499  0.0061  0.1293
 9861TIP3    H129526   7.121   1.253   6.533  0.5062 -0.0919 -0.0981
 9861TIP3    H229527   6.976   1.296   6.524  0.0887 -1.4840 -0.0915
 9862TIP3   OH229528   5.763   0.894   6.482 -0.4611 -1.3051  0.1848
 9862TIP3    H129529   5.857   0.895   6.502 -0.5178 -0.9052  0.4343
 9862TIP3    H229530   5.751   0.817   6.427 -0.3640 -2.6331  1.9924
 9863TIP3   OH229531   7.557   2.047   6.181 -0.5887 -0.2261 -0.4137
 9863TIP3    H129532   7.510   1.966   6.203 -0.5070 -0.3380 -0.6464
 9863TIP3    H229533   7.494   2.117   6.201 -0.8730 -0.3781 -0.7609
 9864TIP3   OH229534   5.953   2.560   4.810 -0.0296  0.5293  0.0298
 9864TIP3    H129535   5.937   2.482   4.756  1.5609  0.7707 -0.8052
 9864TIP3    H229536   5.961   2.525   4.899  1.3203 -0.3402 -0.4245
 9865TIP3   OH229537   8.341   1.909   4.790  1.1507 -0.6835 -0.0148
 9865TIP3    H129538   8.344   1.879   4.699 -0.9321 -0.0066 -0.3342
 9865TIP3    H229539   8.412   1.973   4.796  0.1012  0.6959 -1.7147
 9866TIP3   OH229540   7.516   2.972   4.942 -0.1784  0.2129  0.0955
 9866TIP3    H129541   7.461   3.015   5.008  0.2035  1.9751 -0.7126
 9866TIP3    H229542   7.606   2.993   4.969 -0.0220  0.9533 -0.9976
 9867TIP3   OH229543   0.602   4.850   0.636  0.1250 -0.4443 -0.1759
 9867TIP3    H129544   0.690   4.886   0.628 -0.3404  0.8650  0.4409
 9867TIP3    H229545   0.544   4.926   0.624 -0.9122 -1.2766 -0.4960
 9868TIP3   OH229546   8.045   1.552   4.933  0.1073 -0.3731  0.6600
 9868TIP3    H129547   8.081   1.582   4.850 -0.6430  0.2510  0.5589
 9868TIP3    H229548   7.951   1.541   4.917 -0.2261  0.7739  1.7075
 9869TIP3   OH229549   6.486   2.849   3.960  0.0561  0.3139 -0.4809
 9869TIP3    H129550   6.473   2.785   4.030 -1.1810 -0.3666 -1.3273
 9869TIP3    H229551   6.468   2.801   3.880  1.1468  1.1816 -1.2634
 9870TIP3   OH229552   5.678   2.314   4.973  0.2093  0.0193 -0.8290
 9870TIP3    H129553   5.621   2.379   5.013  0.0911 -1.9129  2.3686
 9870TIP3    H229554   5.628   2.233   4.977  1.6733 -0.9493 -1.5367
 9871TIP3   OH229555   7.057   0.361   5.896  0.1892  0.0819 -0.1321
 9871TIP3    H129556   7.149   0.389   5.901 -0.7735  3.1432  1.5355
 9871TIP3    H229557   7.019   0.419   5.829 -0.5869 -1.0638 -0.6887
 9872TIP3   OH229558   1.370   2.505   5.460 -0.3506 -0.6993 -0.1032
 9872TIP3    H129559   1.412   2.426   5.426  0.2655 -1.1519  1.6955
 9872TIP3    H229560   1.344   2.483   5.549 -1.1343  0.7786  0.0568
 9873TIP3   OH229561   7.874   1.192   4.580 -0.1724  0.1969  0.0282
 9873TIP3    H129562   7.851   1.185   4.487 -0.7640 -2.0300  0.3218
 9873TIP3    H229563   7.966   1.166   4.583 -0.5500 -1.1635  0.2353
 9874TIP3   OH229564   1.598   4.657   0.595  0.5576  0.0040 -0.3277
 9874TIP3    H129565   1.642   4.577   0.623  1.9935  0.5310 -1.0208
 9874TIP3    H229566   1.656   4.694   0.529 -1.0094  0.6562 -1.3564
 9875TIP3   OH229567   2.032   4.743   0.218 -0.4200 -0.0457  0.2510
 9875TIP3    H129568   2.060   4.695   0.140 -0.6467  0.7007 -0.2887
 9875TIP3    H229569   2.099   4.723   0.284  0.9220  1.0398 -0.7718
 9876TIP3   OH229570   6.640   1.489   4.158  0.2669  0.8135 -0.2063
 9876TIP3    H129571   6.549   1.480   4.130  0.0599  2.1853 -0.0169
 9876TIP3    H229572   6.636   1.545   4.236  1.3128  1.3059 -0.4880
 9877TIP3   OH229573   0.987   3.306   5.864 -0.4062 -0.3558 -0.6224
 9877TIP3    H129574   1.081   3.293   5.876 -0.5076  0.5626  1.3797
 9877TIP3    H229575   0.947   3.258   5.936 -1.3691  0.8044 -0.3689
 9878TIP3   OH229576   0.659   0.014   4.223  0.2012  0.0296  0.1028
 9878TIP3    H129577   0.696   0.098   4.195  1.6661 -1.4045 -2.3817
 9878TIP3    H229578   0.601  -0.013   4.152 -2.8052  0.3949  2.2880
 9879TIP3   OH229579   0.705   3.006   6.036 -0.7427 -0.5865 -0.0155
 9879TIP3    H129580   0.796   3.024   6.015 -0.8051 -1.2707 -0.8880
 9879TIP3    H229581   0.657   3.029   5.957 -1.2599 -0.8411  0.2217
 9880TIP3   OH229582   0.350   1.786   5.025 -0.2312  0.9466  0.0180
 9880TIP3    H129583   0.316   1.874   5.009 -1.3399  0.4252 -0.5286
 9880TIP3    H229584   0.295   1.729   4.972  2.0227  0.1520 -1.5366
 9881TIP3   OH229585   0.924   4.254   0.520 -0.2502 -0.2149  0.3918
 9881TIP3    H129586   0.951   4.298   0.439  0.2697 -4.1089 -1.6849
 9881TIP3    H229587   0.988   4.282   0.585 -0.4988  2.7511 -0.5490
 9882TIP3   OH229588   1.969   4.826   1.034  0.2566 -0.5297 -0.1340
 9882TIP3    H129589   1.896   4.862   1.084 -0.3993 -2.0596  0.0151
 9882TIP3    H229590   1.954   4.732   1.032  3.1924 -1.0830  1.4387
 9883TIP3   OH229591   2.732   7.073   0.501 -0.2003 -0.1606 -0.1016
 9883TIP3    H129592   2.771   6.999   0.547  1.2334  1.3665  1.1990
 9883TIP3    H229593   2.779   7.076   0.417  0.9830  0.3244  0.5610
 9884TIP3   OH229594   7.364   1.750   6.771 -0.1339  0.3279 -0.3330
 9884TIP3    H129595   7.416   1.691   6.716  2.2219  2.0328 -0.0531
 9884TIP3    H229596   7.279   1.756   6.727  0.0407 -2.1499 -1.0843
 9885TIP3   OH229597   1.567   1.394   4.989 -0.4259 -0.4259 -0.5584
 9885TIP3    H129598   1.536   1.344   5.064 -0.9705  0.7669  0.0325
 9885TIP3    H229599   1.566   1.332   4.916 -1.5254 -1.1433  0.0569
 9886TIP3   OH229600   6.838   1.081   6.089  0.2697  0.1158  0.3744
 9886TIP3    H129601   6.810   1.078   6.181  0.7336 -0.6821  0.4946
 9886TIP3    H229602   6.910   1.018   6.084 -0.7330 -0.9550 -0.8707
 9887TIP3   OH229603   7.755   2.495   3.625 -0.1102 -0.0489 -0.2839
 9887TIP3    H129604   7.808   2.455   3.694  0.9229 -0.4136 -1.2674
 9887TIP3    H229605   7.756   2.589   3.646 -0.3120 -0.2267  0.5295
 9888TIP3   OH229606   0.642   5.958   5.949 -0.3320 -0.0873 -0.1680
 9888TIP3    H129607   0.592   5.961   5.867 -0.4670 -1.4544 -0.1500
 9888TIP3    H229608   0.692   6.039   5.950 -0.3130 -0.0755 -1.6164
 9889TIP3   OH229609   4.453   0.887   5.155 -0.2128  0.0625 -0.4714
 9889TIP3    H129610   4.492   0.957   5.103 -0.5468  0.3528 -0.3343
 9889TIP3    H229611   4.459   0.917   5.245 -2.2794  0.8914 -0.5719
 9890TIP3   OH229612   0.844   0.998   4.772 -0.1063  0.0288 -0.0551
 9890TIP3    H129613   0.808   0.928   4.717  0.2153 -0.1697 -0.0161
 9890TIP3    H229614   0.902   0.952   4.833 -0.6044  0.2272  0.5645
 9891TIP3   OH229615   7.198   2.426   6.700  0.0486 -0.3456  0.1865
 9891TIP3    H129616   7.162   2.514   6.711  1.5801  0.2841  0.1939
 9891TIP3    H229617   7.205   2.392   6.789 -1.3701 -0.8372  0.1359
 9892TIP3   OH229618   7.043   3.042   5.555 -0.7725 -0.4709  0.2952
 9892TIP3    H129619   6.973   3.009   5.612 -0.7680  0.4450  0.8275
 9892TIP3    H229620   6.999   3.066   5.474 -1.1696  0.6200  0.8232
 9893TIP3   OH229621   5.803   4.409   5.191 -0.3004  0.8145  0.3298
 9893TIP3    H129622   5.808   4.365   5.275  0.3606  0.2217 -0.0154
 9893TIP3    H229623   5.886   4.457   5.184 -0.4668  1.0769  0.1321
 9894TIP3   OH229624   7.777   2.148   5.927 -0.6463  0.0657 -0.4450
 9894TIP3    H129625   7.821   2.143   6.011 -0.7780 -0.1782 -0.3884
 9894TIP3    H229626   7.688   2.116   5.944 -1.5398  2.6264 -0.0902
 9895TIP3   OH229627   0.875   7.499   0.021  0.0279  0.3044 -0.3646
 9895TIP3    H129628   0.890   7.462   0.107  2.4951 -0.4348 -1.0573
 9895TIP3    H229629   0.901   7.591   0.029 -0.0904  0.3233 -0.2114
 9896TIP3   OH229630   2.137   5.302   0.776  0.0469  0.2765  0.0352
 9896TIP3    H129631   2.069   5.306   0.843  0.4691 -0.1583  0.4988
 9896TIP3    H229632   2.097   5.252   0.705  0.0316 -0.3804  0.4938
 9897TIP3   OH229633   7.541   2.651   3.480  0.8944 -0.1635 -0.1605
 9897TIP3    H129634   7.604   2.582   3.457 -1.3200 -2.2138 -0.3654
 9897TIP3    H229635   7.497   2.617   3.558  0.2110  1.3331  0.1115
 9898TIP3   OH229636   7.877   2.766   3.793  0.1755 -0.0705  0.0101
 9898TIP3    H129637   7.830   2.819   3.729  0.6996 -1.3709 -1.4832
 9898TIP3    H229638   7.970   2.784   3.776  0.2951  0.3594  1.0881
 9899TIP3   OH229639   6.940   2.137   6.844  0.0741 -0.0433 -0.1897
 9899TIP3    H129640   6.952   2.145   6.749  1.1730 -0.1751 -0.0738
 9899TIP3    H229641   6.845   2.140   6.857 -0.0337  1.4879 -1.1584
 9900TIP3   OH229642   0.906   2.370   4.288 -0.7615  0.5399 -0.3970
 9900TIP3    H129643   0.865   2.307   4.348 -0.7339  0.4013 -0.5248
 9900TIP3    H229644   0.912   2.323   4.205 -0.1815  0.4992 -0.3314
 9901TIP3   OH229645   4.884   6.845   0.985 -0.2337 -0.1755  0.4536
 9901TIP3    H129646   4.964   6.847   0.932 -1.1527  1.0512 -0.8895
 9901TIP3    H229647   4.813   6.855   0.923 -1.2757  2.5407  2.0156
 9902TIP3   OH229648   0.299   1.522   6.698 -0.5380 -0.0964 -0.3783
 9902TIP3    H129649   0.352   1.549   6.623  1.3104  0.5769  1.1276
 9902TIP3    H229650   0.222   1.580   6.696 -0.1550  0.3824 -1.3301
 9903TIP3   OH229651   2.774   4.541   0.216  0.1037  0.1881  0.3995
 9903TIP3    H129652   2.758   4.457   0.258  0.5486  0.6892  1.6011
 9903TIP3    H229653   2.822   4.592   0.281 -0.1907  1.3849 -0.2950
 9904TIP3   OH229654   0.223   1.465   6.076 -0.2756 -0.0851  0.0467
 9904TIP3    H129655   0.151   1.415   6.039 -0.3539  0.3178 -0.3438
 9904TIP3    H229656   0.245   1.419   6.158 -0.8097 -0.3456  0.0414
 9905TIP3   OH229657   0.055   1.284   5.235  0.0896 -0.2322  0.6194
 9905TIP3    H129658   0.080   1.224   5.164 -0.6354 -2.3558  2.1035
 9905TIP3    H229659   0.132   1.285   5.292 -0.4861 -1.0194  1.4182
 9906TIP3   OH229660   0.515   3.623   4.695  0.2939  0.2863 -0.6769
 9906TIP3    H129661   0.550   3.699   4.740  1.6336 -0.5860 -0.2191
 9906TIP3    H229662   0.423   3.645   4.678  0.9272  2.4287 -1.5065
 9907TIP3   OH229663   2.374   6.845   0.262 -0.2248  0.0542  0.3302
 9907TIP3    H129664   2.409   6.765   0.222 -0.4450  0.1633 -0.0848
 9907TIP3    H229665   2.427   6.858   0.341  0.2814 -0.1092  0.0222
 9908TIP3   OH229666   4.821   3.242   5.613 -0.5715  0.5013 -0.4755
 9908TIP3    H129667   4.760   3.231   5.685 -0.1777 -0.1108 -0.2293
 9908TIP3    H229668   4.907   3.227   5.653 -0.2920  0.9373 -0.9060
 9909TIP3   OH229669   8.000   3.285   3.334  0.6059 -0.0658 -0.5355
 9909TIP3    H129670   7.980   3.377   3.318  1.3882  0.7144  2.6096
 9909TIP3    H229671   7.923   3.252   3.381  0.6781 -0.8047 -0.9285
 9910TIP3   OH229672   4.616   6.703   4.410 -0.2386  0.4398 -0.3559
 9910TIP3    H129673   4.567   6.626   4.435 -1.1679  1.3466  0.6303
 9910TIP3    H229674   4.582   6.726   4.323 -1.1667  0.7355  0.0822
 9911TIP3   OH229675   8.130   2.296   5.637  0.0606  0.3952  0.3817
 9911TIP3    H129676   8.088   2.349   5.570 -2.1921 -1.0656  0.5778
 9911TIP3    H229677   8.105   2.337   5.720  2.7638  2.1447  0.3653
 9912TIP3   OH229678   3.124   0.344   0.415 -0.6537 -0.0045 -0.4480
 9912TIP3    H129679   3.180   0.278   0.374  0.2500 -0.1423  0.9728
 9912TIP3    H229680   3.048   0.350   0.357  0.5150 -0.2985 -2.0545
 9913TIP3   OH229681   1.171   1.623   6.527 -0.3595  0.1159  0.1085
 9913TIP3    H129682   1.092   1.655   6.483  0.0296 -0.7279 -1.2190
 9913TIP3    H229683   1.232   1.696   6.522 -0.3612  0.0670 -0.6364
 9914TIP3   OH229684   7.326   1.488   6.166  0.3417  0.6641 -0.4652
 9914TIP3    H129685   7.351   1.402   6.201 -0.2469  0.0939 -1.4244
 9914TIP3    H229686   7.331   1.547   6.241  0.0423 -0.3478  0.3601
 9915TIP3   OH229687   6.142   2.572   4.456 -0.5158  0.2461 -0.4687
 9915TIP3    H129688   6.056   2.602   4.487  0.2132  1.3127  0.5742
 9915TIP3    H229689   6.124   2.535   4.369 -2.3954 -1.6545  0.6726
 9916TIP3   OH229690   1.057   0.173   4.647  0.0750 -0.0194 -0.5110
 9916TIP3    H129691   1.094   0.186   4.559  0.2695  0.3394 -0.3795
 9916TIP3    H229692   1.092   0.089   4.676 -0.7003 -0.5502 -1.1347
 9917TIP3   OH229693   4.614   4.537   0.009 -0.3853  0.1183  0.5098
 9917TIP3    H129694   4.543   4.597   0.029 -0.2687  0.0610  1.1125
 9917TIP3    H229695   4.597   4.459   0.062 -0.3349 -0.2382  0.0143
 9918TIP3   OH229696   8.074   1.980   3.332  0.1800  0.7354 -0.3933
 9918TIP3    H129697   8.059   1.941   3.418 -2.5437 -0.1519 -1.2166
 9918TIP3    H229698   8.064   1.907   3.271 -1.2399  1.9581 -1.6742
 9919TIP3   OH229699   7.035   2.917   5.285  0.2080  0.2662 -0.4496
 9919TIP3    H129700   6.996   3.004   5.284  4.0364  2.1162 -0.9937
 9919TIP3    H229701   7.067   2.904   5.196  0.2598 -1.4262 -0.1978
 9920TIP3   OH229702   6.880   3.563   4.939 -0.4215 -0.4285  0.1458
 9920TIP3    H129703   6.958   3.537   4.987 -0.3905  1.4636  1.1679
 9920TIP3    H229704   6.908   3.569   4.848  0.8350  0.9571  0.5977
 9921TIP3   OH229705   7.633   3.200   3.649  0.0043 -0.5403  0.3701
 9921TIP3    H129706   7.632   3.257   3.726  0.5392  1.3167 -0.9766
 9921TIP3    H229707   7.604   3.115   3.682 -2.1430  0.8360  2.1505
 9922TIP3   OH229708   6.205   1.033   6.044 -0.0390 -0.1836  0.6275
 9922TIP3    H129709   6.116   1.067   6.036 -0.4650 -1.2717  0.6584
 9922TIP3    H229710   6.200   0.969   6.115  0.7963 -0.1551  0.7145
 9923TIP3   OH229711   0.745   5.219   1.362  0.4318 -0.0493 -0.5604
 9923TIP3    H129712   0.766   5.311   1.346 -0.7378  0.1037 -1.2854
 9923TIP3    H229713   0.652   5.219   1.386  0.2699 -1.1032 -1.1363
 9924TIP3   OH229714   1.874   5.770   0.241  0.0094 -0.6286  0.4113
 9924TIP3    H129715   1.801   5.725   0.198 -0.1915 -0.0399  0.1326
 9924TIP3    H229716   1.859   5.863   0.223 -0.5513 -0.2881  2.4726
 9925TIP3   OH229717   8.012   7.925   4.710  0.0052 -0.7262 -1.0245
 9925TIP3    H129718   8.098   7.950   4.744 -1.4283  1.1779  1.3845
 9925TIP3    H229719   8.011   7.962   4.621  1.0737  0.6456 -0.4953
 9926TIP3   OH229720   8.005   3.519   2.911  0.4512 -0.1571 -0.2211
 9926TIP3    H129721   7.984   3.435   2.952 -0.2598  0.4382  0.6532
 9926TIP3    H229722   8.078   3.553   2.962  0.3252  0.0524 -0.1804
 9927TIP3   OH229723   1.421   0.905   4.905  0.1011  0.7151 -0.4003
 9927TIP3    H129724   1.409   0.810   4.897 -0.3312  0.8091 -0.8873
 9927TIP3    H229725   1.478   0.916   4.981 -2.2168  0.2227  1.4377
 9928TIP3   OH229726   8.398   2.306   5.461  0.2782  0.0377 -0.0128
 9928TIP3    H129727   8.492   2.285   5.467  0.1904 -0.1183  0.9998
 9928TIP3    H229728   8.367   2.298   5.551 -1.2675 -2.5026 -0.7342
 9929TIP3   OH229729   6.505   1.314   5.509 -0.1876 -0.6141  0.6199
 9929TIP3    H129730   6.453   1.332   5.587  1.1741  1.2171  1.1582
 9929TIP3    H229731   6.494   1.392   5.454  1.3840 -0.5015  0.4288
 9930TIP3   OH229732   5.723   2.379   4.709 -0.1702 -0.0965  0.3118
 9930TIP3    H129733   5.632   2.375   4.678  0.3199  2.2522 -1.5889
 9930TIP3    H229734   5.716   2.375   4.804 -2.2072 -0.7176  0.1685
 9931TIP3   OH229735   1.415   4.506   0.456 -0.1247 -0.1921 -0.1652
 9931TIP3    H129736   1.479   4.566   0.496 -0.6173  0.1496  0.1184
 9931TIP3    H229737   1.465   4.459   0.389  0.6697 -0.6398  0.7236
 9932TIP3   OH229738   7.962   1.338   5.326  0.3457  0.3965  0.3237
 9932TIP3    H129739   8.031   1.403   5.340  0.4310  0.4277 -0.2256
 9932TIP3    H229740   7.887   1.372   5.375  0.6542  0.4686  0.7488
 9933TIP3   OH229741   1.196   0.814   6.157  0.4041  0.1651 -0.0221
 9933TIP3    H129742   1.272   0.778   6.112 -0.1383 -1.2749  0.2050
 9933TIP3    H229743   1.137   0.740   6.168 -1.4166  1.4390 -0.9730
 9934TIP3   OH229744   8.208   0.124   6.133 -0.0707  0.4918 -0.2666
 9934TIP3    H129745   8.251   0.205   6.160 -0.6957  0.9049 -0.4948
 9934TIP3    H229746   8.145   0.106   6.203 -0.3806  0.5493 -0.5310
 9935TIP3   OH229747   7.617   0.524   6.889 -0.2542  0.0120 -0.3630
 9935TIP3    H129748   7.705   0.555   6.908  0.0066 -1.1421  0.3627
 9935TIP3    H229749   7.606   0.540   6.795  0.8512 -0.1312 -0.5265
 9936TIP3   OH229750   6.367   3.013   3.722 -0.8134  0.3163  0.1440
 9936TIP3    H129751   6.377   3.105   3.746 -0.0175  0.1357  0.5014
 9936TIP3    H229752   6.430   2.966   3.777 -0.7121 -0.3655 -0.5442
 9937TIP3   OH229753   7.587   0.928   6.750 -0.1576 -0.1954 -0.5943
 9937TIP3    H129754   7.555   0.903   6.837  0.6107  0.7579 -0.0356
 9937TIP3    H229755   7.638   1.007   6.764  1.2681 -0.8908 -1.6922
 9938TIP3   OH229756   2.472   2.297   5.682 -0.1957 -0.4032 -0.0152
 9938TIP3    H129757   2.528   2.227   5.714 -0.5114 -0.4122  0.5121
 9938TIP3    H229758   2.384   2.271   5.709 -0.0239  1.5390  2.5883
 9939TIP3   OH229759   3.555   6.811   5.887  0.2064 -0.0852 -0.1547
 9939TIP3    H129760   3.510   6.889   5.919  1.0088  0.4612 -0.3691
 9939TIP3    H229761   3.485   6.756   5.853 -0.2479  0.9840 -0.9602
 9940TIP3   OH229762   6.124   2.800   2.806  0.7656 -0.2931  0.1671
 9940TIP3    H129763   6.038   2.771   2.838  0.4556  0.7902  0.3468
 9940TIP3    H229764   6.130   2.763   2.718  0.7574 -1.6163  0.7064
 9941TIP3   OH229765   5.573   3.296   3.773  0.3557  0.1446  0.1921
 9941TIP3    H129766   5.576   3.392   3.780  0.1429  0.2321 -0.8286
 9941TIP3    H229767   5.626   3.265   3.847  1.6044  1.0756 -0.2882
 9942TIP3   OH229768   7.626   1.952   4.761 -0.4457 -0.3490 -0.0687
 9942TIP3    H129769   7.557   1.891   4.733 -0.7719  0.1294 -0.3181
 9942TIP3    H229770   7.698   1.895   4.787 -0.4963 -0.8370 -0.9595
 9943TIP3   OH229771   3.507   3.844   0.618 -0.7163 -0.4786 -0.1032
 9943TIP3    H129772   3.452   3.818   0.692 -1.8203 -0.6636 -0.9818
 9943TIP3    H229773   3.592   3.864   0.657 -1.3261 -0.4646  1.2334
 9944TIP3   OH229774   3.519   4.532   0.837 -0.0283  0.1329 -0.1439
 9944TIP3    H129775   3.443   4.558   0.785 -0.2928 -0.5002 -0.0835
 9944TIP3    H229776   3.594   4.559   0.786 -0.2829 -0.8949 -1.0782
 9945TIP3   OH229777   6.061   3.613   4.597 -0.4894 -0.3677  0.0426
 9945TIP3    H129778   6.126   3.574   4.656  0.5156  0.9073 -0.2063
 9945TIP3    H229779   6.003   3.663   4.655 -0.1401  0.0163  0.0572
 9946TIP3   OH229780   6.722   0.951   5.477  0.9462 -0.1038 -0.0270
 9946TIP3    H129781   6.728   0.965   5.571  1.7016  1.3954 -0.2813
 9946TIP3    H229782   6.675   1.029   5.444 -1.1488 -1.5825 -0.6484
 9947TIP3   OH229783   5.059   1.431   5.282  0.4934 -0.0330 -0.0180
 9947TIP3    H129784   4.987   1.411   5.223 -0.4490 -1.5388  1.5874
 9947TIP3    H229785   5.104   1.347   5.295 -1.8415 -0.7332  4.6270
 9948TIP3   OH229786   6.675   3.287   4.899 -0.0174  0.2425  0.0020
 9948TIP3    H129787   6.726   3.336   4.835  1.2909 -1.7260 -0.4708
 9948TIP3    H229788   6.626   3.223   4.848 -1.2961  0.6400  0.6843
 9949TIP3   OH229789   5.619   0.807   0.177 -0.4380 -0.0199  0.5659
 9949TIP3    H129790   5.540   0.760   0.149  1.2544 -2.1161 -0.8455
 9949TIP3    H229791   5.598   0.899   0.162 -2.3603 -0.5998 -0.5305
 9950TIP3   OH229792   4.619   4.224   5.253 -0.0030  0.2170 -0.3786
 9950TIP3    H129793   4.701   4.272   5.262  0.6122 -0.5067 -1.9355
 9950TIP3    H229794   4.620   4.192   5.163 -1.8515 -0.0683 -0.3123
 9951TIP3   OH229795   1.500   6.927   5.703 -0.2378 -0.1461 -0.0012
 9951TIP3    H129796   1.406   6.943   5.699 -0.2313 -0.3990 -1.2098
 9951TIP3    H229797   1.515   6.852   5.645  0.6197 -0.5337  0.6959
 9952TIP3   OH229798   8.304   1.868   5.823 -0.2694 -0.0449 -0.0100
 9952TIP3    H129799   8.321   1.829   5.909  0.9818  0.6185  0.0548
 9952TIP3    H229800   8.273   1.796   5.769  1.0423 -0.9299  0.3922
 9953TIP3   OH229801   6.363   4.187   3.737  0.1648  0.6681 -0.2133
 9953TIP3    H129802   6.368   4.282   3.749 -0.1400  0.7165 -0.4832
 9953TIP3    H229803   6.321   4.155   3.817 -0.6431  0.8599 -0.5623
 9954TIP3   OH229804   7.818   2.390   5.776  0.1655  0.1934 -0.2076
 9954TIP3    H129805   7.866   2.440   5.842 -0.4275  0.8431 -0.2623
 9954TIP3    H229806   7.788   2.312   5.822  0.2832  0.3495  0.1339
 9955TIP3   OH229807   8.067   2.430   6.149  0.9605 -0.1390 -0.5782
 9955TIP3    H129808   8.011   2.495   6.107  0.1824 -0.0869  0.5373
 9955TIP3    H229809   8.037   2.346   6.115  0.4621 -0.0804 -0.2861
 9956TIP3   OH229810   1.855   5.324   2.644 -0.0669  0.2777  0.4885
 9956TIP3    H129811   1.948   5.322   2.619  0.0316 -0.9227  0.9364
 9956TIP3    H229812   1.850   5.271   2.723 -0.5905  2.9749  2.3617
 9957TIP3   OH229813   6.622   1.113   4.851 -0.4430  0.4445  0.0822
 9957TIP3    H129814   6.651   1.086   4.938  0.5584 -2.3727 -1.0466
 9957TIP3    H229815   6.621   1.208   4.854 -1.4947  0.3925  3.4993
 9958TIP3   OH229816   7.576   0.659   5.980  0.1804  0.4901  0.3374
 9958TIP3    H129817   7.648   0.617   6.027  1.1603  0.2922 -1.2870
 9958TIP3    H229818   7.497   0.634   6.028  0.9857 -1.1178  0.8501
 9959TIP3   OH229819   6.676   0.900   6.806 -0.0149 -0.1828  0.3364
 9959TIP3    H129820   6.610   0.923   6.740 -0.4804  0.0289  0.8645
 9959TIP3    H229821   6.671   0.805   6.813 -1.0614 -0.0776  1.1775
 9960TIP3   OH229822   8.066   7.544   0.087 -0.6683  0.0508  0.5784
 9960TIP3    H129823   8.119   7.619   0.058 -0.9242 -0.1373 -0.4043
 9960TIP3    H229824   8.067   7.550   0.182 -0.2822  1.0316  0.5277
 9961TIP3   OH229825   1.338   5.160   1.717  0.1037 -0.4833  0.1310
 9961TIP3    H129826   1.428   5.157   1.749  0.3557 -0.1396 -0.5420
 9961TIP3    H229827   1.346   5.161   1.622 -0.5168  1.8522  0.0513
 9962TIP3   OH229828   3.989   7.882   6.330 -0.1427  0.3667  0.4675
 9962TIP3    H129829   3.966   7.966   6.291  0.5223 -0.1812 -1.2023
 9962TIP3    H229830   3.919   7.863   6.392 -0.0245  2.3876  1.2429
 9963TIP3   OH229831   5.889   2.996   4.817 -0.8890  0.0957  0.1335
 9963TIP3    H129832   5.837   2.918   4.801 -0.8628  0.2982 -1.0256
 9963TIP3    H229833   5.849   3.064   4.762 -1.2491  1.0465  1.5381
 9964TIP3   OH229834   0.563   1.192   6.208 -1.0992  0.0382  0.1311
 9964TIP3    H129835   0.608   1.276   6.213  0.3466 -0.8218  2.4243
 9964TIP3    H229836   0.575   1.163   6.117  1.1536  0.8145  0.1613
 9965TIP3   OH229837   1.019   1.181   6.299  0.2301 -0.1789  0.4645
 9965TIP3    H129838   0.957   1.201   6.229 -0.2822 -0.2838  0.8827
 9965TIP3    H229839   1.024   1.263   6.349 -1.4984 -0.9147  1.8991
 9966TIP3   OH229840   3.024   5.660   0.004  0.5067 -0.0531  0.2209
 9966TIP3    H129841   3.007   5.747  -0.031 -1.3438 -0.3941  0.2135
 9966TIP3    H229842   3.037   5.673   0.098 -0.3618  0.1557  0.3116
 9967TIP3   OH229843   0.263   2.248   4.056 -0.2941  0.2579  0.1379
 9967TIP3    H129844   0.275   2.285   4.143 -0.4973 -2.6336  1.4265
 9967TIP3    H229845   0.194   2.184   4.066  0.0023 -0.4492 -2.0630
 9968TIP3   OH229846   7.972   3.321   4.728  0.7347 -0.1041  0.5219
 9968TIP3    H129847   7.984   3.385   4.658  0.5156  0.4442  0.9757
 9968TIP3    H229848   8.038   3.254   4.711  0.3279 -0.2417 -0.5029
 9969TIP3   OH229849   5.661   7.789   5.705 -0.3009 -0.1502 -0.2861
 9969TIP3    H129850   5.657   7.769   5.612 -0.0186 -0.6391 -0.1941
 9969TIP3    H229851   5.615   7.872   5.714  0.1413  0.1606 -0.9364
 9970TIP3   OH229852   0.143   5.376   0.411 -0.2770 -0.3823 -0.1884
 9970TIP3    H129853   0.230   5.341   0.392 -0.2447 -1.8693  2.4127
 9970TIP3    H229854   0.083   5.304   0.390 -0.7018 -0.0288 -0.1982
 9971TIP3   OH229855   1.490   6.093   0.607 -0.2290 -0.0690 -0.1037
 9971TIP3    H129856   1.438   6.061   0.534  0.6344 -0.6058 -0.4886
 9971TIP3    H229857   1.430   6.149   0.657 -0.5400  1.1455 -1.7846
 9972TIP3   OH229858   3.205   1.523   4.941 -0.1504  0.2845  0.0409
 9972TIP3    H129859   3.129   1.581   4.949  0.8056  1.5608  0.1385
 9972TIP3    H229860   3.191   1.456   5.007 -1.2885  0.3904 -0.0797
 9973TIP3   OH229861   6.852   2.376   3.714  0.3608  0.0630 -0.0591
 9973TIP3    H129862   6.808   2.423   3.785  0.0045  1.5252 -1.2060
 9973TIP3    H229863   6.792   2.306   3.691 -0.1243  0.3804  0.2147
 9974TIP3   OH229864   0.698   1.953   6.662 -0.0277 -0.1862 -0.1716
 9974TIP3    H129865   0.780   1.910   6.685 -0.3485 -0.2389  0.9162
 9974TIP3    H229866   0.637   1.880   6.645 -0.5448 -0.1911  1.5774
 9975TIP3   OH229867   8.039   0.102   5.625 -0.5844  0.4619  0.0926
 9975TIP3    H129868   8.075   0.152   5.552  1.4043  0.1215  0.7831
 9975TIP3    H229869   8.053   0.158   5.701  0.2248 -0.4795  0.6458
 9976TIP3   OH229870   2.469   2.018   0.580 -0.5125 -0.0066  0.7979
 9976TIP3    H129871   2.551   2.067   0.578 -1.4431  1.5489 -0.2917
 9976TIP3    H229872   2.425   2.041   0.498 -1.5194 -1.7392  0.8254
 9977TIP3   OH229873   0.120   1.006   2.500  0.4824 -0.8045  0.2061
 9977TIP3    H129874   0.183   0.963   2.559  0.7941 -0.5478  0.0644
 9977TIP3    H229875   0.171   1.024   2.421 -0.0439 -1.5252 -0.3078
 9978TIP3   OH229876   8.349   3.205   5.506 -0.1020  0.0767 -0.3095
 9978TIP3    H129877   8.283   3.136   5.516 -0.3362  0.4117  0.4942
 9978TIP3    H229878   8.320   3.275   5.564  0.7892  0.3606 -0.1947
 9979TIP3   OH229879   5.060   7.999   5.390  0.1923 -0.1454 -0.0977
 9979TIP3    H129880   5.149   8.004   5.425  0.2597  1.1411 -0.4157
 9979TIP3    H229881   5.004   8.033   5.460 -0.0044 -0.5646 -0.0512
 9980TIP3   OH229882   2.050   0.973   4.282  0.5048 -0.0423  0.0384
 9980TIP3    H129883   1.989   1.024   4.336  1.7015 -0.5271  1.8715
 9980TIP3    H229884   2.026   0.996   4.192 -1.4835  0.8228  0.7510
 9981TIP3   OH229885   8.356   0.029   5.757  0.0354 -0.2489  0.4213
 9981TIP3    H129886   8.345  -0.048   5.813  0.3389  1.3787  2.8174
 9981TIP3    H229887   8.315   0.101   5.807  1.9431  1.6067 -0.5917
 9982TIP3   OH229888   7.344   2.080   5.191 -0.1495 -0.1710  0.1494
 9982TIP3    H129889   7.414   2.058   5.252 -0.4286 -1.2792  0.0789
 9982TIP3    H229890   7.333   2.175   5.201  1.8639  0.1494 -0.3807
 9983TIP3   OH229891   2.326   0.639   4.477  0.7010 -0.2496  0.5543
 9983TIP3    H129892   2.237   0.663   4.450  1.1295 -1.3542 -1.9558
 9983TIP3    H229893   2.358   0.716   4.524 -1.2082  0.5544  0.6058
 9984TIP3   OH229894   1.015   1.263   5.625  0.2400  0.0266  0.1016
 9984TIP3    H129895   1.079   1.223   5.566  1.2480 -0.2334  1.3483
 9984TIP3    H229896   0.937   1.277   5.570  0.9322 -0.7976 -1.1176
 9985TIP3   OH229897   1.564   5.159   0.116 -0.6834  0.3487 -0.6682
 9985TIP3    H129898   1.552   5.170   0.211 -0.9061 -0.2694 -0.6240
 9985TIP3    H229899   1.632   5.093   0.107 -0.6050  0.4654 -0.9407
 9986TIP3   OH229900   5.513   1.083   6.085 -0.0199  0.4378  0.1000
 9986TIP3    H129901   5.529   1.069   5.991 -1.8888  1.8513 -0.4616
 9986TIP3    H229902   5.519   1.178   6.096  1.8206  0.1622  1.7616
 9987TIP3   OH229903   7.578   2.366   3.866 -0.4541  0.1585 -0.2279
 9987TIP3    H129904   7.608   2.428   3.932  0.7806  0.5737 -1.1584
 9987TIP3    H229905   7.624   2.392   3.786  0.3206 -2.1365 -0.5634
 9988TIP3   OH229906   0.747   3.063   5.683 -0.0149  0.6121 -0.5173
 9988TIP3    H129907   0.767   3.132   5.620 -0.4938 -0.2697 -1.6391
 9988TIP3    H229908   0.668   3.021   5.650  1.4065 -1.8344 -0.9741
 9989TIP3   OH229909   6.017   1.401   6.168  0.4396 -0.0393 -0.2125
 9989TIP3    H129910   5.948   1.467   6.168 -0.6524 -1.1684 -0.1119
 9989TIP3    H229911   6.063   1.415   6.085  0.7959  1.4128  0.2008
 9990TIP3   OH229912   7.152   2.219   5.731  0.0808 -0.4569 -0.6181
 9990TIP3    H129913   7.174   2.310   5.714  0.3522 -0.9555 -3.2352
 9990TIP3    H229914   7.072   2.222   5.782  0.0925  1.2577 -0.6787
 9991TIP3   OH229915   7.996   2.957   6.201  0.2167  0.2120  0.0715
 9991TIP3    H129916   8.022   2.877   6.247 -0.2513 -1.1634 -1.9967
 9991TIP3    H229917   8.056   3.024   6.234  1.6433 -1.3365  0.6798
 9992TIP3   OH229918   7.847   4.837   5.434  0.0119  0.3504  0.5653
 9992TIP3    H129919   7.917   4.844   5.370  0.7493 -1.5161  1.1291
 9992TIP3    H229920   7.794   4.763   5.404 -1.8023  1.7869  0.0876
 9993TIP3   OH229921   0.146   4.518   4.745  0.3345 -0.1077  0.0694
 9993TIP3    H129922   0.207   4.555   4.809 -0.2270 -0.4477  0.8115
 9993TIP3    H229923   0.198   4.508   4.665  1.5079 -1.2877  0.9652
 9994TIP3   OH229924   1.908   4.335   0.868  0.4000 -0.1142  0.1021
 9994TIP3    H129925   1.993   4.378   0.882 -0.0718  0.7283  0.4134
 9994TIP3    H229926   1.870   4.327   0.955  0.2019 -0.5699 -0.0278
 9995TIP3   OH229927   1.465   1.406   5.307  0.4467  0.3920 -0.5022
 9995TIP3    H129928   1.401   1.403   5.378  0.6948  0.5609 -0.2717
 9995TIP3    H229929   1.449   1.326   5.256 -2.8736  2.4592 -2.9670
 9996TIP3   OH229930   0.999   3.565   6.682 -0.0160 -0.1373  0.1459
 9996TIP3    H129931   1.058   3.552   6.755  0.2844  0.6426  0.0423
 9996TIP3    H229932   0.921   3.514   6.704 -0.3118  0.8779  1.4500
 9997TIP3   OH229933   2.982   4.964   0.385 -0.6292 -0.1884  0.0564
 9997TIP3    H129934   3.031   5.022   0.327 -0.1865  1.3283  1.8705
 9997TIP3    H229935   2.909   5.017   0.416 -0.3038 -0.6326  1.6278
 9998TIP3   OH229936   7.100   1.715   6.673 -0.4515 -0.0412 -0.1507
 9998TIP3    H129937   7.076   1.656   6.602  0.2341  0.8651 -1.1553
 9998TIP3    H229938   7.017   1.740   6.713 -0.7775 -1.2822 -0.0339
 9999TIP3   OH229939   6.490   0.054   6.307 -0.0995 -0.4367  0.0340
 9999TIP3    H129940   6.558   0.033   6.372 -0.9915 -1.0543  0.7801
 9999TIP3    H229941   6.414   0.003   6.335 -0.3059 -1.1940 -1.8593
10000TIP3   OH229942   6.697   2.312   4.539  0.3605 -0.9520  0.4118
10000TIP3    H129943   6.765   2.304   4.472 -1.9741 -1.8734 -1.8930
10000TIP3    H229944   6.690   2.407   4.554  0.7422 -0.7201 -0.8182
10001TIP3   OH229945   8.047   0.401   5.713  0.5422  0.2059 -0.3628
10001TIP3    H129946   7.955   0.400   5.686 -0.0452 -1.8826  1.6068
10001TIP3    H229947   8.061   0.490   5.746 -0.8034  0.5108 -0.5741
10002TIP3   OH229948   0.150   2.631   5.997 -0.4367 -0.3357  0.5795
10002TIP3    H129949   0.228   2.632   6.052  0.4734  0.2039 -0.7006
10002TIP3    H229950   0.158   2.550   5.947 -1.6478 -1.2077  1.7661
10003TIP3   OH229951   7.257   1.680   4.251 -0.1135  0.6961  0.0683
10003TIP3    H129952   7.199   1.690   4.175 -0.2987  0.5690  0.1913
10003TIP3    H229953   7.335   1.732   4.229 -0.6226  1.5596  0.2610
10004TIP3   OH229954   6.845   2.595   4.810 -1.0002 -0.0800  0.5277
10004TIP3    H129955   6.785   2.628   4.743 -0.8207  0.2027  0.5055
10004TIP3    H229956   6.795   2.526   4.855 -1.8070  0.9984  1.3300
10005TIP3   OH229957   1.232   0.645   6.490 -0.2227 -0.1933 -0.1676
10005TIP3    H129958   1.179   0.664   6.412  0.5566 -0.8802 -0.8805
10005TIP3    H229959   1.317   0.617   6.454  0.4935  0.5157  0.9462
10006TIP3   OH229960   6.131   1.986   4.250  0.2040  0.7740 -0.1939
10006TIP3    H129961   6.099   2.074   4.270  0.9891  0.6296  1.8115
10006TIP3    H229962   6.221   1.999   4.220  0.9376  0.5487  1.8083
10007TIP3   OH229963   0.131   0.948   6.498  0.0238  0.4615  0.1305
10007TIP3    H129964   0.137   0.993   6.583  1.5577  0.4133  0.0613
10007TIP3    H229965   0.193   0.995   6.442 -1.9837  1.3576 -1.3637
10008TIP3   OH229966   1.016   0.133   5.555  0.1926  0.0804 -0.5208
10008TIP3    H129967   0.959   0.204   5.584 -1.5221 -0.7148 -1.8107
10008TIP3    H229968   0.991   0.058   5.609  1.2260  0.1644  0.0840
10009TIP3   OH229969   8.275   1.209   5.247 -0.1608  0.3148 -0.2846
10009TIP3    H129970   8.351   1.243   5.295  0.7168  0.4739 -1.7626
10009TIP3    H229971   8.217   1.285   5.239 -0.1477  0.3794  0.2176
10010TIP3   OH229972   0.303   2.512   5.810  0.6056  0.0048 -0.2151
10010TIP3    H129973   0.365   2.538   5.878  0.6912  1.2597 -0.7517
10010TIP3    H229974   0.298   2.588   5.752  1.7028 -1.5982 -2.4948
10011TIP3   OH229975   0.473   2.320   4.772  0.0708  0.1088 -0.0873
10011TIP3    H129976   0.551   2.287   4.728 -0.7622 -0.3126 -1.2772
10011TIP3    H229977   0.506   2.379   4.839  1.4889 -1.4267  0.5950
10012TIP3   OH229978   6.971   7.322   4.870  0.3349 -0.2533  0.1248
10012TIP3    H129979   7.052   7.280   4.841  0.7521  0.8199 -0.2879
10012TIP3    H229980   6.998   7.381   4.941 -0.1699 -0.3275  0.3810
10013TIP3   OH229981   0.462   0.511   6.645 -0.5202 -0.3469 -1.1153
10013TIP3    H129982   0.428   0.541   6.560 -1.1527  1.1303 -0.3612
10013TIP3    H229983   0.413   0.562   6.709  1.4811  0.0967  0.0745
10014TIP3   OH229984   2.791   5.982   0.342 -0.4051 -0.2557  0.1481
10014TIP3    H129985   2.717   5.943   0.389 -0.4964 -0.0834  0.1510
10014TIP3    H229986   2.846   6.019   0.411 -1.2005  1.1503  0.0615
10015TIP3   OH229987   4.740   4.874   0.110  0.1657  0.4323  0.2055
10015TIP3    H129988   4.794   4.919   0.044 -0.8318 -2.6863 -2.9031
10015TIP3    H229989   4.652   4.874   0.072 -0.3308 -1.9042  1.3093
10016TIP3   OH229990   6.337   1.933   5.288 -0.0040 -0.7018  0.3656
10016TIP3    H129991   6.381   1.884   5.357 -0.9670  0.8788  2.1347
10016TIP3    H229992   6.254   1.961   5.327 -1.5761 -1.6871 -2.1669
10017TIP3   OH229993   0.290   0.737   6.730  0.0558  0.5985  0.5347
10017TIP3    H129994   0.209   0.775   6.697  0.1149  1.6883  1.6108
10017TIP3    H229995   0.354   0.808   6.726  0.6008  0.1372  0.9526
10018TIP3   OH229996   8.488   3.008   5.271  0.1494  0.3606 -0.1962
10018TIP3    H129997   8.404   3.052   5.272  0.6579  1.3386 -0.4879
10018TIP3    H229998   8.532   3.038   5.350  0.9630  1.2874 -0.9968
10019TIP3   OH229999   1.122   1.756   6.160  0.4658 -0.2601 -0.4503
10019TIP3    H130000   1.122   1.852   6.153 -1.3272 -0.2664 -0.5951
10019TIP3    H230001   1.136   1.726   6.070  1.5260 -0.1544 -0.3370
10020TIP3   OH230002   8.224   4.096   5.177 -0.5111  0.0004  0.3167
10020TIP3    H130003   8.208   4.105   5.271 -2.2488  0.9982 -0.0551
10020TIP3    H230004   8.167   4.024   5.150  1.4073 -1.5808  0.3405
10021TIP3   OH230005   8.189   0.853   6.592  0.6111 -0.3012 -0.0073
10021TIP3    H130006   8.095   0.850   6.577  0.5107 -0.4008  0.6325
10021TIP3    H230007   8.200   0.838   6.686  1.1809  1.0736  0.1743
10022TIP3   OH230008   7.614   2.535   6.114 -0.6125 -0.0552  0.5229
10022TIP3    H130009   7.602   2.516   6.207  0.6910 -0.1715  0.6743
10022TIP3    H230010   7.531   2.573   6.086 -0.8155  0.5044  1.8758
10023TIP3   OH230011   1.207   1.164   5.034 -0.2541 -0.1258  0.9226
10023TIP3    H130012   1.136   1.228   5.040  0.4523  0.5465  2.8624
10023TIP3    H230013   1.172   1.084   5.073 -0.3681 -0.1794  0.7064
10024TIP3   OH230014   4.434   5.684   1.613  0.1977  0.2067 -0.0432
10024TIP3    H130015   4.419   5.733   1.694  0.8979  2.1372 -1.0611
10024TIP3    H230016   4.356   5.701   1.560 -0.0865 -0.7504  0.0480
10025TIP3   OH230017   1.249   4.958   4.300  0.1693  0.1029  0.4405
10025TIP3    H130018   1.218   4.994   4.217  2.0974  1.4533  0.2897
10025TIP3    H230019   1.219   5.021   4.366 -0.7738 -0.6207  0.7188
10026TIP3   OH230020   7.931   2.083   6.680  0.4586 -0.2121 -0.3699
10026TIP3    H130021   7.866   2.048   6.741  0.4105 -1.2668 -1.0096
10026TIP3    H230022   7.996   2.012   6.670  2.3330  1.2409  1.1466
10027TIP3   OH230023   0.968   2.395   5.550 -0.5274 -0.1940  0.1523
10027TIP3    H130024   1.026   2.386   5.625  0.5447 -1.7462 -0.8435
10027TIP3    H230025   0.883   2.363   5.581 -0.5066  0.6908  1.1665
10028TIP3   OH230026   0.034   2.674   5.311  0.0033  0.0134  0.5400
10028TIP3    H130027  -0.018   2.693   5.389  0.9772  1.3306  0.8825
10028TIP3    H230028   0.108   2.734   5.316  2.3007 -2.7313  0.7382
10029TIP3   OH230029   0.213   2.729   5.007  0.7806  0.0101 -0.2081
10029TIP3    H130030   0.246   2.717   4.918  0.4098 -0.4270 -0.2842
10029TIP3    H230031   0.131   2.778   4.996 -0.2817 -1.7328 -0.2512
10030TIP3   OH230032   2.023   3.066   4.952 -0.3084  0.3427 -0.5509
10030TIP3    H130033   2.008   3.106   4.866 -0.7852  0.3169 -0.4805
10030TIP3    H230034   1.969   2.988   4.951 -3.6250  2.5385  1.3669
10031TIP3   OH230035   5.259   6.141   1.068  0.4648 -0.0388  0.6167
10031TIP3    H130036   5.345   6.124   1.028 -0.1250  1.3273 -1.2941
10031TIP3    H230037   5.247   6.236   1.060  0.1807  0.2415  3.8191
10032TIP3   OH230038   3.173   2.173   6.453 -0.4721  0.2076 -0.0306
10032TIP3    H130039   3.230   2.168   6.376  0.2933 -0.6444  0.5850
10032TIP3    H230040   3.085   2.186   6.417 -0.3132 -1.5012 -1.1173
10033TIP3   OH230041   4.515   5.612   0.866 -0.0888 -0.4976 -0.2211
10033TIP3    H130042   4.428   5.653   0.863 -0.9127 -2.2190 -1.2617
10033TIP3    H230043   4.524   5.582   0.956 -0.3807  0.1202  0.0156
10034TIP3   OH230044   5.108   7.545   0.541 -0.2741 -0.4038  0.5580
10034TIP3    H130045   5.109   7.638   0.565 -0.9070  0.1787 -1.5387
10034TIP3    H230046   5.026   7.512   0.575 -2.5782  1.1294 -3.1627
10035TIP3   OH230047   1.746   3.990   3.826 -0.5073  0.5104  0.1703
10035TIP3    H130048   1.830   4.021   3.792  0.3504  0.2802  2.0277
10035TIP3    H230049   1.681   4.046   3.785  0.5740  0.8029 -1.1497
10036TIP3   OH230050   1.935   3.358   6.043 -0.4335 -0.2413 -0.0932
10036TIP3    H130051   1.954   3.322   6.130  0.7092  0.3229 -0.0964
10036TIP3    H230052   1.889   3.440   6.060  1.0283  0.5832  0.0429
10037TIP3   OH230053   0.511   1.826   6.338 -0.0762 -0.4864  0.2058
10037TIP3    H130054   0.557   1.802   6.419  0.0606 -0.6761  0.0734
10037TIP3    H230055   0.461   1.904   6.361  1.2568  0.4271  0.0221
10038TIP3   OH230056   6.808   5.220   1.399  0.2331 -0.0778  0.1052
10038TIP3    H130057   6.820   5.127   1.420 -0.0820 -0.2802 -0.6173
10038TIP3    H230058   6.897   5.253   1.386  0.3411 -0.2940  0.2995
10039TIP3   OH230059   1.400   3.021   6.555  0.3582  0.2376  0.1881
10039TIP3    H130060   1.363   2.945   6.509  1.9042 -0.8175  0.6562
10039TIP3    H230061   1.378   3.006   6.647  0.4831  0.4559  0.2526
10040TIP3   OH230062   8.439   0.106   0.837  0.6451  0.1884 -0.3708
10040TIP3    H130063   8.463   0.071   0.923 -1.0954  1.3135  0.6061
10040TIP3    H230064   8.482   0.048   0.774  2.8906  0.0398  1.2654
10041TIP3   OH230065   4.341   5.424   1.634 -0.3901 -0.5710  0.2829
10041TIP3    H130066   4.405   5.427   1.705 -1.2163  0.4853  0.9965
10041TIP3    H230067   4.344   5.511   1.596  0.5056 -1.3194 -1.4136
10042TIP3   OH230068   5.268   1.790   5.467 -0.2933  0.2154 -0.6275
10042TIP3    H130069   5.223   1.814   5.386  0.2926  0.7622 -0.7868
10042TIP3    H230070   5.235   1.702   5.487 -2.0888  0.9449 -0.2793
10043TIP3   OH230071   1.631   1.663   6.100  0.4797 -0.3446  0.3493
10043TIP3    H130072   1.668   1.617   6.024  2.4442  0.9671  0.4670
10043TIP3    H230073   1.689   1.738   6.113 -1.3897  0.9458  1.5233
10044TIP3   OH230074   2.047   2.551   5.931  0.6369  0.6226  0.0043
10044TIP3    H130075   2.102   2.564   5.854  1.4219 -1.3401  0.2070
10044TIP3    H230076   2.033   2.639   5.966  3.0302  1.2379 -0.4839
10045TIP3   OH230077   0.109   1.712   6.149 -0.1746  0.0369  0.3060
10045TIP3    H130078   0.149   1.793   6.116  1.0001  0.1880  2.0217
10045TIP3    H230079   0.173   1.644   6.129  0.3793  0.0747  1.8725
10046TIP3   OH230080   4.688   5.999   1.739 -0.3294  0.8953 -1.0979
10046TIP3    H130081   4.636   6.002   1.820  1.2792  1.7685 -0.0704
10046TIP3    H230082   4.695   6.090   1.711  4.1655  1.3678  1.1194
10047TIP3   OH230083   3.079   2.839   6.027  0.1226  0.0950  0.1483
10047TIP3    H130084   2.998   2.874   5.992 -0.0695 -1.5533 -1.1289
10047TIP3    H230085   3.057   2.813   6.117 -0.5497  0.3764  0.0682
10048TIP3   OH230086   1.112   4.646   6.398 -0.1148 -0.1525 -0.1537
10048TIP3    H130087   1.080   4.662   6.309  0.9865 -0.8989 -0.6965
10048TIP3    H230088   1.034   4.629   6.450 -0.6192 -1.6214 -1.3849
10049TIP3   OH230089   2.026   2.917   5.745  0.3827  0.5805  0.1658
10049TIP3    H130090   2.095   2.949   5.802  0.8368 -0.2978  0.1274
10049TIP3    H230091   1.948   2.912   5.801  0.8594 -0.4176  0.7576
10050TIP3   OH230092   4.916   6.420   1.394  0.0550  0.0689 -0.0743
10050TIP3    H130093   4.884   6.453   1.309  1.4443 -0.8134 -0.9547
10050TIP3    H230094   5.001   6.381   1.374  0.8037  0.6339  1.8986
10051TIP3   OH230095   0.428   1.673   5.792 -0.3018 -0.2932 -0.2959
10051TIP3    H130096   0.458   1.714   5.711 -1.0689 -0.1702 -0.5153
10051TIP3    H230097   0.399   1.585   5.766  1.8099 -1.1907  0.2533
10052TIP3   OH230098   1.342   3.061   4.525 -0.6363  0.2181 -0.4519
10052TIP3    H130099   1.297   3.109   4.456 -0.5187  0.2130 -0.5328
10052TIP3    H230100   1.432   3.096   4.523 -0.2509 -0.7815 -1.2521
10053TIP3   OH230101   1.819   2.419   6.327  0.0805  0.3791 -0.1608
10053TIP3    H130102   1.725   2.403   6.326  0.0854  0.3334  0.1298
10053TIP3    H230103   1.857   2.342   6.285  0.1047 -0.3694  1.2122
10054TIP3   OH230104   0.241   2.483   5.333 -0.0233 -0.0261  0.6703
10054TIP3    H130105   0.151   2.512   5.324  0.3790  1.5910  1.6415
10054TIP3    H230106   0.284   2.513   5.253 -0.5055 -1.5198 -0.1752
10055TIP3   OH230107   5.638   7.342   0.735  0.0738  0.0888  0.1829
10055TIP3    H130108   5.693   7.356   0.658 -1.7287  1.6529 -0.8680
10055TIP3    H230109   5.699   7.320   0.805  1.9067  0.4940 -1.2567
10056TIP3   OH230110   7.934   0.739   6.638 -0.7616 -0.0627 -0.0149
10056TIP3    H130111   7.858   0.757   6.693 -0.0748  0.7549  0.6788
10056TIP3    H230112   7.949   0.644   6.646  0.2042  0.2613  2.3658
10057TIP3   OH230113   3.070   4.752   6.181  0.7355  0.4863 -0.0564
10057TIP3    H130114   2.988   4.785   6.144  1.4074  2.1566 -0.0711
10057TIP3    H230115   3.042   4.689   6.248 -0.5077 -1.4057 -2.2915
10058TIP3   OH230116   4.759   7.968   0.141 -0.3314 -0.1965  0.4404
10058TIP3    H130117   4.755   7.962   0.236 -1.4417  0.8745  0.4761
10058TIP3    H230118   4.671   7.995   0.115  0.3526  0.9074 -0.7845
10059TIP3   OH230119   4.998   6.892   0.255 -0.5882 -0.1822 -0.4977
10059TIP3    H130120   4.985   6.878   0.161 -0.6758  0.1662 -0.5362
10059TIP3    H230121   5.091   6.874   0.270 -0.1607  1.5784 -0.9695
10060TIP3   OH230122   2.284   3.989   5.969  0.6614 -0.7229 -0.2913
10060TIP3    H130123   2.250   4.045   6.039  1.3098  0.0675 -0.5952
10060TIP3    H230124   2.247   3.903   5.987 -0.1403 -0.2609  0.3409
10061TIP3   OH230125   2.203   2.377   6.130  0.3113 -0.0858 -0.3345
10061TIP3    H130126   2.187   2.434   6.055  0.5342 -0.4738 -0.6751
10061TIP3    H230127   2.279   2.324   6.105  0.6212  0.0418  0.3094
10062TIP3   OH230128   1.653   3.341   6.294  0.0061 -0.2010  0.2802
10062TIP3    H130129   1.620   3.401   6.361  0.9522  1.0639 -0.3561
10062TIP3    H230130   1.740   3.376   6.273 -0.0564 -0.9291 -1.1844
10063TIP3   OH230131   2.367   2.034   5.165 -0.2284  0.3011 -0.3014
10063TIP3    H130132   2.454   2.069   5.186  0.3374 -2.0061  1.5014
10063TIP3    H230133   2.311   2.065   5.236 -0.0007 -1.2685  0.6051
10064TIP3   OH230134   3.886   2.733   4.530  0.4374  0.7563 -0.1879
10064TIP3    H130135   3.847   2.802   4.477  0.1822  0.5323 -0.2933
10064TIP3    H230136   3.938   2.780   4.596 -0.3892  1.0741  0.2502
10065TIP3   OH230137   4.354   3.916   5.531  0.0485  0.2658  0.2423
10065TIP3    H130138   4.449   3.929   5.528  0.1712 -0.4796  0.7222
10065TIP3    H230139   4.343   3.827   5.565 -0.8292  0.4533  0.4602
10066TIP3   OH230140   1.801   7.202  -0.008 -0.1999  0.1369 -0.3439
10066TIP3    H130141   1.896   7.217  -0.012 -0.1563 -0.1479 -0.4564
10066TIP3    H230142   1.768   7.271   0.049  0.5662 -1.9968  2.8237
10067TIP3   OH230143   6.195   0.055   2.229 -0.1448 -0.1495 -0.4876
10067TIP3    H130144   6.274   0.006   2.254 -0.3587 -0.2023  0.0775
10067TIP3    H230145   6.213   0.083   2.139 -0.0858 -1.4165 -0.8881
10068TIP3   OH230146   3.072   7.032   0.968  0.0470 -0.1749  0.2013
10068TIP3    H130147   3.081   6.937   0.973  1.3062 -0.2591 -2.5327
10068TIP3    H230148   3.009   7.046   0.897 -0.9489  1.0350  1.2862
10069TIP3   OH230149   2.940   7.780   1.317 -0.4572  0.2145  0.1116
10069TIP3    H130150   2.912   7.856   1.266  0.4703  0.1600 -0.4833
10069TIP3    H230151   2.981   7.818   1.395 -0.3208  0.3173 -0.0101
10070TIP3   OH230152   8.392   0.422   0.603  0.0511  0.4010  0.2481
10070TIP3    H130153   8.433   0.339   0.578  2.2407  1.5264  0.0239
10070TIP3    H230154   8.394   0.474   0.523 -2.2433  0.3379  0.1216
10071TIP3   OH230155   0.801   3.349   6.136 -0.1035 -0.1585 -0.1075
10071TIP3    H130156   0.734   3.330   6.201  0.3866  1.7503  1.0027
10071TIP3    H230157   0.872   3.288   6.156  0.3994  0.9703  1.7716
10072TIP3   OH230158   1.641   4.872   5.311  0.0774  0.2590 -0.7176
10072TIP3    H130159   1.601   4.852   5.227  1.1892  0.3633 -1.2806
10072TIP3    H230160   1.634   4.967   5.319 -1.9473  0.0660  0.3064
10073TIP3   OH230161   0.967   3.111   5.160 -0.1749 -0.2843  0.3615
10073TIP3    H130162   1.022   3.070   5.093 -1.6692 -0.8654 -0.5323
10073TIP3    H230163   0.977   3.205   5.143  0.2226 -0.3916 -0.0436
10074TIP3   OH230164   1.309   4.785   5.783 -0.1165 -0.7075 -0.2921
10074TIP3    H130165   1.328   4.704   5.831  1.8538  1.1127  2.0913
10074TIP3    H230166   1.389   4.802   5.734 -0.8022 -0.5535 -1.3796
10075TIP3   OH230167   7.504   1.603   6.567 -0.4347  0.1314  0.5481
10075TIP3    H130168   7.535   1.515   6.545 -0.9602 -0.1565  0.9244
10075TIP3    H230169   7.582   1.649   6.598 -0.1056 -0.1190  0.1008
10076TIP3   OH230170   4.474   5.821   0.573  0.3372  0.1909  0.2310
10076TIP3    H130171   4.444   5.902   0.531  1.4175  0.4279 -0.1117
10076TIP3    H230172   4.402   5.759   0.561 -1.4515  1.7570  2.4919
10077TIP3   OH230173   5.143   5.652   0.333 -0.1922 -0.3789  0.6649
10077TIP3    H130174   5.163   5.635   0.425  0.8792  1.6376  0.8192
10077TIP3    H230175   5.166   5.744   0.320 -1.0457 -0.4457 -1.4318
10078TIP3   OH230176   2.995   6.035   2.108 -0.0389 -0.4123 -0.5659
10078TIP3    H130177   3.085   6.046   2.137 -0.8470  1.7687  1.3091
10078TIP3    H230178   2.944   6.036   2.189 -1.7501 -1.5261 -1.6072
10079TIP3   OH230179   8.508   0.785   6.755 -0.7912  0.4792 -0.0942
10079TIP3    H130180   8.548   0.785   6.842  2.4634  0.9407 -1.5271
10079TIP3    H230181   8.418   0.813   6.770  0.5806  3.6483  2.7889
10080TIP3   OH230182   0.177   1.747   6.601 -0.2518 -0.1148  0.1806
10080TIP3    H130183   0.176   1.842   6.589  0.2693 -0.1118  0.1716
10080TIP3    H230184   0.226   1.714   6.526  1.5398 -0.2245  1.3566
10081TIP3   OH230185   3.821   5.002   1.787 -0.1912  0.2322  0.1413
10081TIP3    H130186   3.796   5.023   1.877  0.2721 -2.2945  0.8960
10081TIP3    H230187   3.797   4.910   1.776  1.8890 -0.1556 -1.5524
10082TIP3   OH230188   2.643   3.740   5.891 -0.3115  0.2430 -0.2064
10082TIP3    H130189   2.557   3.706   5.916 -0.0499 -2.1871 -2.2944
10082TIP3    H230190   2.644   3.830   5.922 -2.0435 -0.8978  3.4156
10083TIP3   OH230191   4.877   7.508   3.427  0.2880 -0.0470 -0.1687
10083TIP3    H130192   4.938   7.497   3.500  0.3273  0.4774 -0.1203
10083TIP3    H230193   4.836   7.422   3.416  0.3491 -0.1478  0.4065
10084TIP3   OH230194   3.758   1.543   6.563 -0.5359  0.0720  0.2075
10084TIP3    H130195   3.708   1.464   6.543  0.0436  0.0642 -1.2304
10084TIP3    H230196   3.699   1.615   6.542 -1.0863  0.0500  1.5743
10085TIP3   OH230197   3.519   6.959   1.017 -0.8202 -0.3406  0.4971
10085TIP3    H130198   3.535   6.865   1.028  3.1513  0.1119 -0.5911
10085TIP3    H230199   3.486   6.968   0.928  0.1895 -0.5944  0.0888
10086TIP3   OH230200   0.720   2.203   6.746  0.4561  0.3468  0.0813
10086TIP3    H130201   0.813   2.216   6.761  0.6152 -0.0275 -0.6029
10086TIP3    H230202   0.712   2.112   6.717 -0.0193  0.6561 -0.7707
10087TIP3   OH230203   4.128   4.834   6.278  0.1453 -0.5246  0.3138
10087TIP3    H130204   4.097   4.903   6.337  0.4997  0.0611 -0.1848
10087TIP3    H230205   4.201   4.793   6.324  0.6569  0.1744  0.1194
10088TIP3   OH230206   1.726   3.364   4.964  0.2489  0.3277  0.2422
10088TIP3    H130207   1.738   3.457   4.987  0.3035  0.5142 -0.5442
10088TIP3    H230208   1.679   3.366   4.881 -0.7232 -0.3582  0.7578
10089TIP3   OH230209   3.408   2.356   6.846  0.0720  0.0186 -0.1045
10089TIP3    H130210   3.341   2.354   6.915  1.8271 -1.4276  1.6009
10089TIP3    H230211   3.435   2.265   6.836  1.5926  0.5478 -0.9962
10090TIP3   OH230212   3.473   6.243   1.898  0.6377  0.0216  0.1964
10090TIP3    H130213   3.427   6.168   1.861 -2.3615  1.0816  1.5750
10090TIP3    H230214   3.539   6.205   1.956  1.1667 -1.5676 -1.4353
10091TIP3   OH230215   8.332   2.154   6.289  0.0724  0.8269 -0.5339
10091TIP3    H130216   8.378   2.151   6.205 -0.3671 -0.2466 -0.7413
10091TIP3    H230217   8.243   2.127   6.268  0.1382 -0.1245  0.3940
10092TIP3   OH230218   2.880   7.490   0.355  0.1099  0.3621 -0.4890
10092TIP3    H130219   2.944   7.449   0.296  0.5611 -1.0203  0.9376
10092TIP3    H230220   2.824   7.418   0.384 -0.5664  1.1548  0.1849
10093TIP3   OH230221   0.571   2.776   6.748 -0.1192 -0.3823 -0.5002
10093TIP3    H130222   0.544   2.690   6.716 -0.7536 -0.0400 -0.8906
10093TIP3    H230223   0.585   2.828   6.669 -1.6231  0.4461 -0.2411
10094TIP3   OH230224   5.355   6.166   2.071  0.1519 -0.3656  0.0858
10094TIP3    H130225   5.435   6.183   2.022  0.2285 -3.2459 -0.8614
10094TIP3    H230226   5.288   6.218   2.027  0.8640 -0.4764 -1.1358
10095TIP3   OH230227   1.957   3.804   6.162  0.2060 -0.1019 -0.2338
10095TIP3    H130228   2.043   3.763   6.168 -0.0105 -0.6094 -0.5893
10095TIP3    H230229   1.895   3.731   6.156 -0.1389  0.2734 -1.3839
10096TIP3   OH230230   3.655   2.434   6.047 -0.5498  0.0459  0.0899
10096TIP3    H130231   3.625   2.346   6.025 -0.5557 -0.0759  0.5672
10096TIP3    H230232   3.575   2.482   6.069 -0.4183 -0.2594  1.2946
10097TIP3   OH230233   1.163   2.853   6.524  0.5710  0.1399  0.2301
10097TIP3    H130234   1.098   2.822   6.461  1.8704  0.1974 -1.1688
10097TIP3    H230235   1.111   2.896   6.593 -0.8848 -0.1801 -0.6441
10098TIP3   OH230236   1.702   0.144   5.786 -0.0312 -0.1225  0.3567
10098TIP3    H130237   1.648   0.115   5.713  0.3894 -1.2637  0.4826
10098TIP3    H230238   1.652   0.120   5.864  0.0114  0.1016  0.4518
10099TIP3   OH230239   0.959   2.003   6.499  0.0485 -0.1140  0.0305
10099TIP3    H130240   0.879   2.046   6.471  0.5257  0.1534 -0.9444
10099TIP3    H230241   0.931   1.916   6.529 -0.6937  0.2588  0.4157
10100TIP3   OH230242   1.798   4.601   6.480 -0.4432 -0.0612 -0.2159
10100TIP3    H130243   1.857   4.641   6.415  0.7718 -1.3067  0.0847
10100TIP3    H230244   1.753   4.532   6.432 -0.9335  0.2397 -0.1924
10101TIP3   OH230245   8.383   6.018   4.569 -0.0524 -0.0588 -0.1514
10101TIP3    H130246   8.302   6.008   4.620  0.1380  0.7976  0.3258
10101TIP3    H230247   8.383   6.110   4.542  0.9900  0.0642  0.2409
10102TIP3   OH230248   8.347   4.714   6.835  0.0829 -0.1250 -0.0697
10102TIP3    H130249   8.334   4.676   6.748 -0.2534 -0.0409 -0.0553
10102TIP3    H230250   8.430   4.760   6.828  1.1732 -1.9699  0.2912
10103TIP3   OH230251   8.206   3.137   5.843 -0.5413 -0.2635 -0.2460
10103TIP3    H130252   8.118   3.102   5.827 -0.4986 -0.3280 -0.3401
10103TIP3    H230253   8.259   3.060   5.864 -0.7374 -0.1014  0.8481
10104TIP3   OH230254   7.142   0.131   1.660 -0.3393  0.2143 -0.0390
10104TIP3    H130255   7.161   0.178   1.579 -1.1815 -2.0635 -1.5822
10104TIP3    H230256   7.054   0.161   1.684 -0.8373 -0.4906 -0.9667
10105TIP3   OH230257   2.480   2.925   4.671 -0.1246 -0.3118 -0.9211
10105TIP3    H130258   2.457   2.932   4.579 -1.1054 -0.6428 -0.7140
10105TIP3    H230259   2.502   2.833   4.684 -1.3586 -0.5593 -0.5298
10106TIP3   OH230260   1.672   1.193   6.748  0.4056 -0.1780 -0.3244
10106TIP3    H130261   1.658   1.168   6.657  0.3364 -1.0908 -0.0609
10106TIP3    H230262   1.598   1.250   6.769 -0.5343 -1.3814 -0.3038
10107TIP3   OH230263   3.594   4.375   0.027  0.4958  0.3967  0.3451
10107TIP3    H130264   3.547   4.398  -0.053  1.6265 -1.0620 -0.7860
10107TIP3    H230265   3.607   4.458   0.073 -4.1787  0.7137  1.3006
10108TIP3   OH230266   1.739   0.995   4.749  0.2681 -0.4278 -0.0686
10108TIP3    H130267   1.802   1.002   4.820  2.6199 -0.3987 -2.0929
10108TIP3    H230268   1.738   0.902   4.727  0.0027 -0.3484 -0.3951
10109TIP3   OH230269   5.684   3.508   6.008  0.2836 -0.0079 -0.4383
10109TIP3    H130270   5.740   3.496   6.085 -1.6503 -1.4408  0.8066
10109TIP3    H230271   5.675   3.419   5.972 -0.7993  0.2702 -0.8741
10110TIP3   OH230272   6.252   5.234   0.250  0.0538 -0.4365  0.1771
10110TIP3    H130273   6.336   5.203   0.283  0.7339  1.5712  0.4311
10110TIP3    H230274   6.202   5.256   0.329 -0.6447 -1.4297  0.0194
10111TIP3   OH230275   7.405   3.032   5.780  0.2552  0.1820  0.0546
10111TIP3    H130276   7.466   2.958   5.776 -2.0705 -1.7620 -0.2979
10111TIP3    H230277   7.379   3.037   5.872 -0.5657 -0.2686 -0.1484
10112TIP3   OH230278   3.847   6.609   0.772  0.0854  0.1391 -0.2279
10112TIP3    H130279   3.788   6.538   0.746 -2.1076  1.4058  1.0683
10112TIP3    H230280   3.872   6.588   0.862 -1.5155  1.5523  0.5815
10113TIP3   OH230281   5.182   6.014   0.568  0.1654 -0.3582 -0.1982
10113TIP3    H130282   5.209   5.937   0.618  0.6802 -1.0972 -1.5947
10113TIP3    H230283   5.173   6.083   0.634  0.5222 -1.3901  0.9528
10114TIP3   OH230284   0.245   2.597   6.594 -0.4416 -0.0486 -0.0773
10114TIP3    H130285   0.338   2.610   6.578 -0.6452  2.0548  0.2157
10114TIP3    H230286   0.241   2.530   6.663  0.9008  0.7640  0.8189
10115TIP3   OH230287   0.097   2.031   4.639 -0.0236 -0.3722  0.5475
10115TIP3    H130288   0.084   1.946   4.597 -1.0355  0.5549 -1.0906
10115TIP3    H230289   0.185   2.057   4.612 -0.8846  0.4821 -1.5540
10116TIP3   OH230290   1.885   2.576   5.355  0.2682 -0.7619  0.3731
10116TIP3    H130291   1.797   2.548   5.384  0.3743 -2.5534 -0.9486
10116TIP3    H230292   1.901   2.657   5.403 -0.9928 -1.8281  2.7236
10117TIP3   OH230293   8.255   4.093   3.117 -0.7294  0.1871 -0.1377
10117TIP3    H130294   8.268   4.003   3.145 -0.1141  0.3129 -0.0208
10117TIP3    H230295   8.301   4.100   3.034  2.8831  1.5296  1.8729
10118TIP3   OH230296   3.598   4.815   0.411  0.0289 -0.0039  0.6859
10118TIP3    H130297   3.550   4.886   0.369  2.2640  1.1690  0.0292
10118TIP3    H230298   3.635   4.854   0.490 -0.9065 -1.1563  1.7099
10119TIP3   OH230299   3.926   7.002   2.624 -0.6393  0.0416 -0.1870
10119TIP3    H130300   4.003   7.044   2.662  0.2629 -0.0696 -1.8405
10119TIP3    H230301   3.879   7.074   2.582 -0.8670 -0.0632 -0.1106
10120TIP3   OH230302   0.392   3.350   6.678 -0.1161  0.4802 -0.3302
10120TIP3    H130303   0.308   3.315   6.650  0.9403  0.7771 -4.0860
10120TIP3    H230304   0.429   3.390   6.600  3.7647 -0.1024  1.1077
10121TIP3   OH230305   0.582   2.480   5.403 -0.5378 -0.2963 -0.7360
10121TIP3    H130306   0.517   2.412   5.420  0.7918 -1.4974 -0.3298
10121TIP3    H230307   0.627   2.452   5.324  0.0048  0.1167 -0.5782
10122TIP3   OH230308   0.769   3.636   6.064 -0.0188  0.2781  1.2924
10122TIP3    H130309   0.757   3.547   6.099  1.2072  0.1838  1.4910
10122TIP3    H230310   0.864   3.647   6.059 -0.1608  0.8385 -0.6137
10123TIP3   OH230311   4.636   6.158   0.402  0.1864 -0.5803 -0.2348
10123TIP3    H130312   4.656   6.243   0.363  1.3441  0.3876  2.4081
10123TIP3    H230313   4.720   6.125   0.434 -0.5994 -1.7127  0.7277
10124TIP3   OH230314   1.604   1.023   3.717  0.1377 -0.2629  0.0820
10124TIP3    H130315   1.548   0.972   3.775  0.9841 -0.1241  1.0407
10124TIP3    H230316   1.592   1.114   3.744  1.4422 -0.3008  0.8766
10125TIP3   OH230317   5.837   7.350   0.540 -0.3467 -0.1835 -0.4445
10125TIP3    H130318   5.905   7.304   0.492  0.1376  0.0899 -0.0260
10125TIP3    H230319   5.853   7.443   0.520 -0.3366 -0.0915 -0.0034
10126TIP3   OH230320   3.811   4.981   1.151  0.3017  0.0159 -0.2684
10126TIP3    H130321   3.762   4.918   1.098  1.2253 -1.0445  0.1131
10126TIP3    H230322   3.797   4.952   1.241 -0.0897  0.9653 -0.0157
10127TIP3   OH230323   4.014   5.753   0.142 -0.0662 -0.5411  0.1784
10127TIP3    H130324   3.977   5.798   0.218 -0.3609 -3.9313  2.1770
10127TIP3    H230325   4.100   5.791   0.130 -0.7198  1.2727  1.0988
10128TIP3   OH230326   1.924   3.485   5.372  0.2749 -0.6140 -0.3943
10128TIP3    H130327   2.003   3.538   5.356  0.4295 -0.7646 -0.1475
10128TIP3    H230328   1.946   3.398   5.338  0.7226 -1.0197  0.8780
10129TIP3   OH230329   0.829   4.659   5.184 -0.4003 -0.0508 -0.0807
10129TIP3    H130330   0.799   4.622   5.267 -0.5606  0.2738  0.0072
10129TIP3    H230331   0.813   4.590   5.120 -1.2132  0.0655 -0.0133
10130TIP3   OH230332   2.937   5.713   0.904  0.2547 -0.5039 -0.4659
10130TIP3    H130333   2.979   5.743   0.985  1.3299  1.8426 -1.8304
10130TIP3    H230334   2.844   5.712   0.926  0.3673  1.7911  0.3436
10131TIP3   OH230335   7.052   4.537   5.480  0.0669  0.2469  0.2145
10131TIP3    H130336   7.056   4.600   5.551  0.0303  0.3789  0.0984
10131TIP3    H230337   7.144   4.517   5.460  0.1011  1.0703 -0.4707
10132TIP3   OH230338   5.784   7.053   0.650  0.6978 -0.4798 -0.1307
10132TIP3    H130339   5.727   7.030   0.576 -0.5279 -1.7137  1.1464
10132TIP3    H230340   5.846   7.116   0.615 -0.4125 -0.3975 -1.9986
10133TIP3   OH230341   7.469   1.769   0.926 -0.5536  0.6015  0.6661
10133TIP3    H130342   7.385   1.781   0.881 -0.1971 -0.4790 -0.3178
10133TIP3    H230343   7.532   1.755   0.855 -0.0770 -1.7262  1.5061
10134TIP3   OH230344   2.490   3.279   6.537 -0.1530 -0.5420 -0.9665
10134TIP3    H130345   2.432   3.205   6.523  0.2269 -0.9863 -0.2354
10134TIP3    H230346   2.487   3.328   6.455 -1.3210 -0.7176 -1.0445
10135TIP3   OH230347   3.018   2.517   5.680 -0.1754  0.1110  0.0216
10135TIP3    H130348   2.975   2.513   5.594  2.1307 -0.6622 -1.1326
10135TIP3    H230349   2.952   2.483   5.741 -1.1208 -1.2957 -1.7385
10136TIP3   OH230350   1.638   2.403   6.889  0.0907 -0.3311  0.2143
10136TIP3    H130351   1.573   2.460   6.930  1.7058  1.7978 -0.0890
10136TIP3    H230352   1.713   2.406   6.949  1.1117 -0.1283 -1.0583
10137TIP3   OH230353   3.252   3.804   6.223 -0.1052 -0.1614 -0.3213
10137TIP3    H130354   3.303   3.885   6.229  0.9140 -0.7370 -0.9266
10137TIP3    H230355   3.253   3.782   6.130 -1.1388 -0.3962 -0.2804
10138TIP3   OH230356   6.631   0.314   1.321 -0.2472 -0.3504 -0.0674
10138TIP3    H130357   6.702   0.285   1.264  0.4602  0.2310  0.5077
10138TIP3    H230358   6.553   0.309   1.266  0.6977  2.0895 -1.7243
10139TIP3   OH230359   3.325   2.561   4.660  0.1639 -0.4194 -0.2668
10139TIP3    H130360   3.388   2.525   4.723 -0.1433 -2.0164 -0.8399
10139TIP3    H230361   3.283   2.633   4.707  1.0674 -0.5650  0.7936
10140TIP3   OH230362   0.229   2.247   5.777 -0.1439 -0.2347  0.2619
10140TIP3    H130363   0.257   2.339   5.787 -2.5215  0.5295  0.0991
10140TIP3    H230364   0.201   2.240   5.686 -0.5445 -0.9559  0.4379
10141TIP3   OH230365   1.765   3.656   5.015 -0.1422  0.4194 -0.3818
10141TIP3    H130366   1.693   3.699   4.969 -0.6176  0.5173  0.4352
10141TIP3    H230367   1.746   3.672   5.108  1.5706  1.4681 -0.1987
10142TIP3   OH230368   2.630   2.403   5.998  0.6654  0.8814  0.5124
10142TIP3    H130369   2.609   2.387   6.090 -3.7635  1.1396 -0.3575
10142TIP3    H230370   2.587   2.331   5.951  1.8118  1.4418 -1.4499
10143TIP3   OH230371   6.062   7.465   0.805  0.5515  0.0023  0.5001
10143TIP3    H130372   6.030   7.486   0.717 -0.8651  0.1592  1.0298
10143TIP3    H230373   5.987   7.425   0.848  0.9557  0.7469  1.9271
10144TIP3   OH230374   2.115   1.811   5.399 -0.0131  0.7866 -0.2239
10144TIP3    H130375   2.060   1.747   5.353  0.2877 -0.8444  1.6266
10144TIP3    H230376   2.095   1.894   5.356 -2.1839 -0.1527 -1.1240
10145TIP3   OH230377   1.654   2.209   5.985  0.3938 -0.1910 -0.2817
10145TIP3    H130378   1.703   2.167   5.915  1.4348 -0.7687  0.7583
10145TIP3    H230379   1.722   2.247   6.042 -0.3840 -0.3275  0.7601
10146TIP3   OH230380   3.890   1.894   6.528 -0.5101 -0.1661  0.0170
10146TIP3    H130381   3.914   1.912   6.437  0.5931 -2.3557 -0.1648
10146TIP3    H230382   3.796   1.880   6.526 -0.3572 -1.0955 -0.9491
10147TIP3   OH230383   5.896   6.092   1.403 -0.0824  0.1461  0.7771
10147TIP3    H130384   5.803   6.108   1.419 -0.1839  1.2787 -0.8411
10147TIP3    H230385   5.934   6.179   1.390  0.8809 -0.4195 -0.2801
10148TIP3   OH230386   7.145   2.105   0.053  0.0081 -0.1911  0.3251
10148TIP3    H130387   7.240   2.112   0.065  0.2674  0.2828 -1.7041
10148TIP3    H230388   7.117   2.195   0.035 -0.9931 -0.1741  1.8604
10149TIP3   OH230389   7.890   3.721   4.984 -0.1587  0.2099  0.2778
10149TIP3    H130390   7.896   3.626   4.994 -0.7575  0.1780  0.3418
10149TIP3    H230391   7.796   3.738   4.972 -0.1899  0.9008  1.4212
10150TIP3   OH230392   0.084   3.090   6.168  0.1699 -0.4191 -0.4304
10150TIP3    H130393   0.004   3.040   6.158  0.8859 -1.8852  0.9781
10150TIP3    H230394   0.120   3.062   6.252  3.8674 -2.3184 -2.4914
10151TIP3   OH230395   8.113   1.711   6.228  0.2608  0.1451 -0.0948
10151TIP3    H130396   8.069   1.648   6.171 -0.2749 -1.1290  1.6717
10151TIP3    H230397   8.204   1.711   6.198  0.0534 -0.7254 -0.7522
10152TIP3   OH230398   0.512   1.660   2.886  0.1810  0.0224 -0.0842
10152TIP3    H130399   0.484   1.749   2.908 -0.4807  0.3106 -1.9941
10152TIP3    H230400   0.438   1.623   2.836  1.2764 -0.8739 -1.0732
10153TIP3   OH230401   0.136   3.263   6.654  0.5431 -0.2076  0.3166
10153TIP3    H130402   0.122   3.239   6.746  0.4194  1.3534  0.7147
10153TIP3    H230403   0.090   3.346   6.644  1.6063  0.2505 -0.8402
10154TIP3   OH230404   0.950   2.464   6.558  0.3987  0.2132  0.0604
10154TIP3    H130405   1.001   2.384   6.571 -1.7915 -1.0983  0.9477
10154TIP3    H230406   0.895   2.445   6.482 -2.3185 -0.3319  2.1032
10155TIP3   OH230407   6.369   7.647   0.806  0.5960  0.3400  0.8390
10155TIP3    H130408   6.277   7.632   0.829  0.5532  0.2183  0.5940
10155TIP3    H230409   6.366   7.724   0.748  0.4910 -0.5103 -0.3114
10156TIP3   OH230410   2.795   3.537   6.806 -0.0444  0.2424 -0.5228
10156TIP3    H130411   2.848   3.521   6.728 -0.5495  1.4722 -1.1292
10156TIP3    H230412   2.729   3.468   6.806  0.4484 -0.2281 -0.7474
10157TIP3   OH230413   7.033   2.515   5.538  0.0215  0.5049  0.3301
10157TIP3    H130414   7.075   2.550   5.617  0.4630  0.0220  0.3145
10157TIP3    H230415   7.002   2.592   5.491  0.7517  0.8612  0.4227
10158TIP3   OH230416   2.199   7.618   0.117  0.2656 -0.1887 -0.6622
10158TIP3    H130417   2.212   7.697   0.169  1.3648 -0.8430  0.0716
10158TIP3    H230418   2.147   7.647   0.041 -2.1069  0.6214  1.1934
10159TIP3   OH230419   6.890   0.919   1.030 -0.0242  0.2303 -0.2196
10159TIP3    H130420   6.802   0.955   1.018 -0.5881 -1.1486 -0.3627
10159TIP3    H230421   6.879   0.853   1.099  0.6608 -0.7263 -1.0041
10160TIP3   OH230422   4.573   5.458   1.756 -0.0753  0.0119  0.3800
10160TIP3    H130423   4.609   5.387   1.810  1.7359  1.4977  1.1736
10160TIP3    H230424   4.645   5.483   1.698 -0.3423  1.9275  0.8554
10161TIP3   OH230425   3.719   5.510   0.368  0.3229 -0.1300 -0.1780
10161TIP3    H130426   3.693   5.598   0.342 -0.6246  0.0984  1.5035
10161TIP3    H230427   3.805   5.498   0.328  0.1334  1.2681 -1.0364
10162TIP3   OH230428   2.273   3.080   5.846  0.3529  0.0164  0.0447
10162TIP3    H130429   2.320   3.026   5.782 -0.8917 -1.3921  0.2733
10162TIP3    H230430   2.248   3.159   5.798 -1.1639 -1.3171 -1.4251
10163TIP3   OH230431   8.432   2.828   5.673  0.0750  0.0582 -0.3947
10163TIP3    H130432   8.363   2.842   5.609  1.1335 -0.3934 -1.6644
10163TIP3    H230433   8.475   2.746   5.645  1.8089  0.9004 -0.2887
10164TIP3   OH230434   2.021   1.690   6.164  0.1846 -0.4707  0.4540
10164TIP3    H130435   2.055   1.710   6.251 -0.1498  1.0250  0.2448
10164TIP3    H230436   2.094   1.707   6.104  0.8528 -2.7981  0.5355
10165TIP3   OH230437   4.145   5.288   0.154  0.7868 -0.1552 -0.1186
10165TIP3    H130438   4.208   5.225   0.190  0.3640 -0.2618  0.4311
10165TIP3    H230439   4.194   5.333   0.085  1.4016 -0.3945  0.1541
10166TIP3   OH230440   4.194   5.693   0.530 -0.8016 -0.6576  0.3326
10166TIP3    H130441   4.135   5.623   0.502 -0.1638 -0.2934 -2.0149
10166TIP3    H230442   4.161   5.771   0.486 -0.0923  0.0660  1.0528
10167TIP3   OH230443   4.060   6.663   0.220  0.1868  0.2590 -0.0782
10167TIP3    H130444   4.061   6.571   0.193 -0.7527  0.0511  0.5686
10167TIP3    H230445   4.135   6.671   0.279 -0.7138 -0.5231  1.2071
10168TIP3   OH230446   7.862   1.501   6.812  0.3199 -0.1444 -0.6584
10168TIP3    H130447   7.948   1.474   6.778  1.0417  2.1346 -0.7165
10168TIP3    H230448   7.876   1.510   6.906 -0.0946 -0.6017 -0.5523
10169TIP3   OH230449   0.645   4.060   3.901 -0.0391  0.4123 -0.1784
10169TIP3    H130450   0.694   4.035   3.822 -0.6391  0.0807 -0.4474
10169TIP3    H230451   0.587   3.986   3.917  0.4064  0.2822  0.8414
10170TIP3   OH230452   1.246   3.120   5.352 -0.1618 -0.4780 -0.4887
10170TIP3    H130453   1.330   3.106   5.309 -0.7766 -1.7860 -1.3305
10170TIP3    H230454   1.199   3.181   5.295  0.1515  0.1175 -0.1085
10171TIP3   OH230455   7.818   0.932   2.725 -0.0024 -0.1658 -0.6134
10171TIP3    H130456   7.830   0.858   2.666  2.1932 -1.0441  0.8838
10171TIP3    H230457   7.731   0.966   2.703 -1.2948 -3.5251 -0.9164
10172TIP3   OH230458   5.867   6.628   0.755 -0.7021 -1.1483 -0.1753
10172TIP3    H130459   5.909   6.623   0.670 -2.7824  0.6210 -1.3539
10172TIP3    H230460   5.905   6.705   0.797 -1.3915 -0.6171 -0.5043
10173TIP3   OH230461   4.489   3.466   6.558  0.4187  0.2066 -0.0340
10173TIP3    H130462   4.417   3.406   6.580  0.5108  0.1816  0.1963
10173TIP3    H230463   4.469   3.546   6.606  0.5347  0.2079  0.0113
10174TIP3   OH230464   7.951   0.484   3.470 -0.1873  0.1323  0.1617
10174TIP3    H130465   7.893   0.430   3.525  0.3906 -0.2680  0.3918
10174TIP3    H230466   7.919   0.573   3.481 -1.2349 -0.1766 -0.3157
10175TIP3   OH230467   4.500   3.270   3.828  0.1883 -0.4290 -0.0353
10175TIP3    H130468   4.459   3.293   3.744 -0.3443  0.2810  0.4135
10175TIP3    H230469   4.451   3.194   3.859 -0.6051  0.2416  0.3619
10176TIP3   OH230470   2.368   0.941   3.689 -0.4943  0.8803  0.0303
10176TIP3    H130471   2.369   0.997   3.611  0.6164 -1.4287 -1.6449
10176TIP3    H230472   2.459   0.933   3.715 -0.3387 -2.1154 -1.2276
10177TIP3   OH230473   2.276   2.929   6.255  0.2817 -0.3509  0.4591
10177TIP3    H130474   2.251   2.845   6.293  0.3949 -0.8865 -0.6298
10177TIP3    H230475   2.328   2.906   6.178  0.3641  0.7162  0.1843
10178TIP3   OH230476   4.356   6.614   0.091 -0.0283 -0.5357 -0.3772
10178TIP3    H130477   4.270   6.612   0.048  1.2013 -0.7965 -2.9396
10178TIP3    H230478   4.394   6.697   0.062  0.8683 -0.7402  0.2151
10179TIP3   OH230479   2.606   0.053   0.694  0.1066  0.1377  0.2968
10179TIP3    H130480   2.574  -0.035   0.673 -0.6684  0.7131 -1.0267
10179TIP3    H230481   2.674   0.070   0.629  2.1350 -0.5114  2.2101
10180TIP3   OH230482   1.553   1.416   6.412 -0.1967 -0.0192  0.0655
10180TIP3    H130483   1.542   1.352   6.481 -0.5722  0.4493  0.4460
10180TIP3    H230484   1.640   1.453   6.426  1.3968 -2.7543 -2.1157
10181TIP3   OH230485   4.341   2.750   5.702 -0.7704 -0.0554 -0.3072
10181TIP3    H130486   4.330   2.700   5.783 -0.3382 -0.8448 -0.7256
10181TIP3    H230487   4.302   2.835   5.721 -0.3017 -0.0885  0.8764
10182TIP3   OH230488   3.056   1.401   6.304  0.3024 -0.0861 -0.0067
10182TIP3    H130489   3.053   1.493   6.276 -0.7847 -0.2737 -0.5112
10182TIP3    H230490   3.124   1.399   6.372  0.8525  0.9484 -0.5131
10183TIP3   OH230491   7.912   3.393   6.029  0.0559  0.6091  0.2295
10183TIP3    H130492   7.928   3.484   6.002  1.9611  0.3822  0.5262
10183TIP3    H230493   7.994   3.365   6.069 -0.1294 -1.6099 -0.8637
10184TIP3   OH230494   3.581   2.743   4.779 -0.2073  0.1817  0.2886
10184TIP3    H130495   3.510   2.807   4.790 -0.1551  0.4702 -0.9847
10184TIP3    H230496   3.586   2.698   4.863 -1.8975  0.1697  0.3994
10185TIP3   OH230497   3.863   6.021   0.165 -0.3240  0.6946  0.2759
10185TIP3    H130498   3.851   5.991   0.075 -0.6185 -1.2755  0.9511
10185TIP3    H230499   3.957   6.040   0.171  0.1021 -1.2096  0.1284
10186TIP3   OH230500   3.183   3.437   6.292  0.9425  0.5702  0.1084
10186TIP3    H130501   3.144   3.352   6.270 -0.3328  0.7814  1.4828
10186TIP3    H230502   3.252   3.450   6.226  0.5577 -1.1157 -0.6411
10187TIP3   OH230503   4.187   2.923   6.319  0.5801 -0.1159 -0.0248
10187TIP3    H130504   4.128   2.897   6.390 -0.1015  1.8316  0.1561
10187TIP3    H230505   4.129   2.941   6.245  0.9180  1.9362  0.1915
10188TIP3   OH230506   3.124   7.093   0.078 -0.1954 -0.0381 -0.4086
10188TIP3    H130507   3.166   7.051   0.154 -0.0793  0.2062 -0.3381
10188TIP3    H230508   3.103   7.020   0.020 -0.1208 -0.2107 -0.2218
10189TIP3   OH230509   1.579   2.727   6.580  0.0290 -0.2813 -0.2494
10189TIP3    H130510   1.519   2.721   6.654  0.9072 -0.4538  0.4607
10189TIP3    H230511   1.523   2.747   6.505 -1.1821 -2.5796  0.0001
10190TIP3   OH230512   6.438   5.533   1.665  0.4216  0.2108 -0.1096
10190TIP3    H130513   6.488   5.460   1.629  0.4039 -0.1788  0.6564
10190TIP3    H230514   6.451   5.528   1.760  0.7980  1.4771 -0.0760
10191TIP3   OH230515   3.073   1.666   6.278 -0.3765 -0.3252  0.1799
10191TIP3    H130516   3.146   1.709   6.322 -0.6013 -1.5289  1.7847
10191TIP3    H230517   3.061   1.715   6.197  0.8252  1.2030  0.9118
10192TIP3   OH230518   5.679   6.589   0.466 -0.0530  0.0340 -0.2895
10192TIP3    H130519   5.773   6.588   0.449  0.4618  0.2851  2.2690
10192TIP3    H230520   5.663   6.510   0.518 -0.9095  0.9864  0.9261
10193TIP3   OH230521   7.476   5.338   0.660  0.0423  0.0467 -0.1608
10193TIP3    H130522   7.537   5.408   0.637 -0.7108  0.7070 -0.1713
10193TIP3    H230523   7.507   5.262   0.610  0.3991  0.5803 -0.7683
10194TIP3   OH230524   2.095   4.284   5.895 -0.0834 -0.2585 -0.9547
10194TIP3    H130525   2.089   4.377   5.871 -1.7828 -0.5761 -1.8039
10194TIP3    H230526   2.052   4.279   5.981 -1.3374 -0.4874 -1.5781
10195TIP3   OH230527   3.845   4.191   6.269  0.4137  0.2542 -0.0804
10195TIP3    H130528   3.799   4.158   6.347  2.8422  0.6719  1.5855
10195TIP3    H230529   3.912   4.125   6.251  0.8319  0.9015 -0.9216
10196TIP3   OH230530   1.858   0.026   1.928 -0.1357 -0.0248 -0.1755
10196TIP3    H130531   1.864   0.119   1.904  1.7673  0.0571  0.5130
10196TIP3    H230532   1.940  -0.012   1.895 -0.8124 -1.4105 -0.2514
10197TIP3   OH230533   6.276   6.460   2.518  0.2041 -0.0889 -0.3416
10197TIP3    H130534   6.310   6.518   2.586  1.2758  0.0084 -0.9433
10197TIP3    H230535   6.280   6.512   2.438 -1.3789 -0.0836 -0.4292
10198TIP3   OH230536   3.325   2.910   6.123  0.1715 -0.2600  0.5558
10198TIP3    H130537   3.344   2.837   6.181  0.0480 -0.6679  0.0937
10198TIP3    H230538   3.243   2.885   6.080 -0.3056  0.5347  1.0164
10199TIP3   OH230539   5.723   5.138   5.700 -0.0015 -0.0861  0.0191
10199TIP3    H130540   5.668   5.177   5.632 -0.1207  1.4989  1.0117
10199TIP3    H230541   5.687   5.171   5.783  0.7343 -1.2313  0.8234
10200TIP3   OH230542   8.031   6.622   1.619 -0.3287 -0.2124 -0.4947
10200TIP3    H130543   7.944   6.656   1.598 -1.3731 -1.4834  1.5890
10200TIP3    H230544   8.017   6.530   1.641  1.5574 -0.4618 -0.2180
10201TIP3   OH230545   5.289   3.157   5.948  0.3644  0.8160  0.0238
10201TIP3    H130546   5.333   3.229   5.994  1.4042  0.3094 -0.1621
10201TIP3    H230547   5.242   3.110   6.017  1.5541  0.3203  0.5115
10202TIP3   OH230548   2.305   2.662   4.839  0.7242 -0.5677  0.1163
10202TIP3    H130549   2.269   2.735   4.788  1.5955 -0.6469 -0.6489
10202TIP3    H230550   2.389   2.643   4.796  0.6622 -1.7922  0.5251
10203TIP3   OH230551   2.038   1.972   6.303  0.7195  0.8103  0.2442
10203TIP3    H130552   2.099   1.909   6.264 -0.3278 -1.1805  1.7413
10203TIP3    H230553   2.094   2.029   6.357  1.2415 -1.3646  2.0735
10204TIP3   OH230554   2.962   1.533   5.302 -0.1922 -0.2456 -0.3300
10204TIP3    H130555   2.966   1.622   5.266 -0.0538 -0.0530  0.1582
10204TIP3    H230556   2.916   1.482   5.235 -2.0652  0.6259  0.2634
10205TIP3   OH230557   5.305   3.969   5.073 -0.6313 -0.8451 -0.2710
10205TIP3    H130558   5.210   3.976   5.064 -0.6359 -1.2568 -0.5273
10205TIP3    H230559   5.318   3.939   5.163 -0.7170 -0.1359 -0.0195
10206TIP3   OH230560   2.151   2.686   6.260  0.4506 -0.3745  0.3769
10206TIP3    H130561   2.191   2.602   6.239  0.2546  0.0634 -1.8691
10206TIP3    H230562   2.157   2.692   6.356  0.5099 -2.9028  0.5820
10207TIP3   OH230563   2.364   1.045   6.529 -0.2505  0.2519 -0.2092
10207TIP3    H130564   2.356   1.141   6.531 -1.0724  0.1752  0.8930
10207TIP3    H230565   2.392   1.022   6.618 -4.7364 -0.9062  1.0340
10208TIP3   OH230566   2.068   0.984   6.428 -0.3524  0.5561 -0.3067
10208TIP3    H130567   2.077   0.913   6.364  2.2718 -0.6322  1.3439
10208TIP3    H230568   2.120   1.055   6.391  0.6097  0.1042  0.1784
10209TIP3   OH230569   5.566   6.343   1.210  0.7609  0.4760  0.1449
10209TIP3    H130570   5.475   6.366   1.191  0.3143  0.6487  2.4268
10209TIP3    H230571   5.561   6.283   1.284  2.4907  0.2677  0.1057
10210TIP3   OH230572   3.106   0.585   6.598  0.3944  0.1110  0.4471
10210TIP3    H130573   3.148   0.656   6.550 -2.0272  1.4265  0.1999
10210TIP3    H230574   3.013   0.603   6.591 -0.2772 -3.0999  0.4121
10211TIP3   OH230575   7.176   6.412   0.859 -0.2804  0.3360 -0.1861
10211TIP3    H130576   7.255   6.363   0.834 -0.1644  0.0046  0.8110
10211TIP3    H230577   7.104   6.350   0.843 -0.3273  0.5809 -0.9381
10212TIP3   OH230578   2.258   1.774   6.306  0.4217 -0.2949 -0.4732
10212TIP3    H130579   2.332   1.767   6.246 -0.2667 -0.2284 -1.3409
10212TIP3    H230580   2.288   1.835   6.374  1.3917 -0.7852 -0.4649
10213TIP3   OH230581   2.738   4.455   6.340 -0.5965  0.7000  0.0555
10213TIP3    H130582   2.788   4.391   6.290 -2.6613 -0.6509 -0.3737
10213TIP3    H230583   2.710   4.407   6.418  0.1125  1.9107  1.0671
10214TIP3   OH230584   7.742   6.207   0.441  0.1837 -0.1736 -0.2206
10214TIP3    H130585   7.778   6.118   0.443  2.7268  0.8369  0.6882
10214TIP3    H230586   7.776   6.244   0.359 -0.9160 -0.0384 -0.6262
10215TIP3   OH230587   2.847   2.061   5.731  0.2239  0.1929  0.4367
10215TIP3    H130588   2.766   2.084   5.776  0.0209  0.2382  0.0434
10215TIP3    H230589   2.855   1.967   5.743 -0.3539  0.0468 -0.3004
10216TIP3   OH230590   4.873   2.863   5.555 -0.1425 -0.1856 -0.2346
10216TIP3    H130591   4.825   2.878   5.473 -0.3955  0.5260  0.0441
10216TIP3    H230592   4.916   2.947   5.574  1.9101 -1.0485 -0.9208
10217TIP3   OH230593   7.676   7.294   0.191 -0.4117  0.3295 -0.5249
10217TIP3    H130594   7.745   7.322   0.131  0.2662  3.4460  1.5702
10217TIP3    H230595   7.596   7.297   0.139  0.4321  1.1079 -1.7993
10218TIP3   OH230596   5.782   6.508   1.150  0.3030 -0.3546 -0.0462
10218TIP3    H130597   5.733   6.579   1.110  1.2691 -0.0339 -0.6799
10218TIP3    H230598   5.717   6.458   1.199 -0.7685 -0.3255 -1.4161
10219TIP3   OH230599   4.503   3.120   6.617  0.2612  0.0829 -0.2211
10219TIP3    H130600   4.585   3.164   6.594 -0.8538  1.9746 -0.6730
10219TIP3    H230601   4.489   3.056   6.546  1.2555 -0.1537 -0.2097
10220TIP3   OH230602   1.551   2.822   5.786 -0.5503  0.0388  0.3435
10220TIP3    H130603   1.463   2.832   5.823 -0.2343 -0.5846  1.2819
10220TIP3    H230604   1.536   2.811   5.692 -1.3460  1.9920  0.2034
10221TIP3   OH230605   4.711   6.579   1.511  0.1950 -0.1364  0.1620
10221TIP3    H130606   4.624   6.540   1.497 -0.1313 -0.8789  3.9573
10221TIP3    H230607   4.771   6.519   1.469 -0.7322 -2.2598  1.7988
10222TIP3   OH230608   8.427   0.682   1.506  0.2848  0.8982  0.1770
10222TIP3    H130609   8.416   0.658   1.598  0.4120  0.2765  0.0375
10222TIP3    H230610   8.359   0.747   1.490  1.1579  2.0570  1.0733
10223TIP3   OH230611   1.992   4.298   6.146  0.0520  0.3775 -0.0142
10223TIP3    H130612   2.019   4.214   6.185  1.4379  0.8415  0.0510
10223TIP3    H230613   1.915   4.324   6.197 -0.4041 -0.8592 -0.0447
10224TIP3   OH230614   4.316   2.906   6.053  0.3056 -0.0137 -0.2343
10224TIP3    H130615   4.246   2.965   6.024  0.4954  0.4967  0.3483
10224TIP3    H230616   4.337   2.935   6.142  0.1183 -1.2260  0.2052
10225TIP3   OH230617   1.911   2.666   5.655  0.1428  0.1659  0.1164
10225TIP3    H130618   1.934   2.754   5.687  0.2741  0.4786 -0.8282
10225TIP3    H230619   1.994   2.619   5.653  0.2285  0.3387 -0.3588
10226TIP3   OH230620   3.163   3.050   6.479 -0.6579  0.6988 -0.3357
10226TIP3    H130621   3.135   2.959   6.476 -0.0415  0.5289 -1.1390
10226TIP3    H230622   3.215   3.056   6.559  0.1267  0.0963 -0.7947
10227TIP3   OH230623   5.825   5.795   1.031 -0.5325  0.3558  0.3690
10227TIP3    H130624   5.870   5.724   0.984  2.0482  3.0833 -1.4469
10227TIP3    H230625   5.812   5.761   1.120  1.7615 -1.9198 -0.1212
10228TIP3   OH230626   6.156   1.824   5.921 -0.0608  0.6093 -0.0096
10228TIP3    H130627   6.201   1.816   6.005  0.4895  1.7033 -0.2000
10228TIP3    H230628   6.121   1.913   5.921 -0.3715  0.4893 -0.7955
10229TIP3   OH230629   4.219   3.623   6.241 -0.1526  0.0264 -0.4619
10229TIP3    H130630   4.221   3.679   6.319  1.1811 -1.2293  0.4123
10229TIP3    H230631   4.257   3.678   6.172  0.6278  0.3976  0.2567
10230TIP3   OH230632   3.704   2.292   6.736  1.1476 -0.3539  0.5546
10230TIP3    H130633   3.665   2.209   6.762  0.0080 -0.0988 -0.3040
10230TIP3    H230634   3.763   2.314   6.808 -0.7882 -0.4243  2.2062
10231TIP3   OH230635   3.739   1.593   5.380 -0.3637 -0.1504  0.3839
10231TIP3    H130636   3.764   1.532   5.450  0.2076 -2.3634 -1.6788
10231TIP3    H230637   3.752   1.679   5.418 -0.7960 -1.2774  3.2728
10232TIP3   OH230638   5.278   0.600   6.877  0.1726 -0.3147 -0.1296
10232TIP3    H130639   5.343   0.634   6.938  0.3090 -1.3665  0.3195
10232TIP3    H230640   5.329   0.568   6.803  0.1897 -1.3841  0.3416
10233TIP3   OH230641   3.846   1.274   6.231 -0.3908  0.0004  0.4036
10233TIP3    H130642   3.811   1.186   6.216  1.2634 -0.2131 -2.6746
10233TIP3    H230643   3.906   1.288   6.158  1.2396  2.7488  2.2062
10234TIP3   OH230644   3.208   3.102   5.880 -0.0932  0.2884  0.3441
10234TIP3    H130645   3.286   3.091   5.825  0.1771 -0.0227  0.7921
10234TIP3    H230646   3.224   3.046   5.956 -1.7026 -1.4614 -0.5796
10235TIP3   OH230647   2.734   1.063   5.937 -0.3809  0.4742 -0.4346
10235TIP3    H130648   2.655   1.049   5.991 -1.6486  1.6542 -1.9253
10235TIP3    H230649   2.796   0.997   5.968 -2.1027 -0.7668  0.4792
10236TIP3   OH230650   4.672   7.035   0.282  0.0727  0.2416  0.0731
10236TIP3    H130651   4.649   6.956   0.234  0.8680 -0.0593  0.1798
10236TIP3    H230652   4.744   7.073   0.232  0.3052  0.4055  0.5343
10237TIP3   OH230653   5.344   6.369   0.850 -0.4209  0.4428 -0.0098
10237TIP3    H130654   5.276   6.324   0.800  1.2112  0.3147 -2.1477
10237TIP3    H230655   5.410   6.301   0.867  0.2163  1.0988  0.1452
10238TIP3   OH230656   3.419   0.717   5.180 -0.3423  0.0361  0.2631
10238TIP3    H130657   3.499   0.670   5.206  0.8987  2.2817  0.6962
10238TIP3    H230658   3.432   0.735   5.087 -0.5843 -0.0534  0.2136
10239TIP3   OH230659   3.717   1.787   5.100 -0.4962  0.8123  0.0322
10239TIP3    H130660   3.653   1.768   5.031 -0.9714  0.7767  0.4834
10239TIP3    H230661   3.673   1.763   5.181  0.1330  0.6810  0.3371
10240TIP3   OH230662   4.373   6.497   0.810  0.1624 -0.4865 -0.3080
10240TIP3    H130663   4.284   6.463   0.821 -0.7225  1.4340 -1.2976
10240TIP3    H230664   4.418   6.428   0.761 -0.5930 -1.7519  0.7457
10241TIP3   OH230665   3.388   1.678   5.592 -0.1516 -0.1951  0.5210
10241TIP3    H130666   3.318   1.683   5.657 -0.4836  1.4048  0.0620
10241TIP3    H230667   3.344   1.650   5.512 -0.6991  2.9335 -0.3307
10242TIP3   OH230668   3.583   1.602   6.045  0.3940  0.2633 -0.5959
10242TIP3    H130669   3.618   1.595   6.134  1.4828  0.6644 -0.9783
10242TIP3    H230670   3.498   1.559   6.049  1.2699 -1.4455  0.1853
10243TIP3   OH230671   1.341   2.578   6.793  0.5467 -0.0802  0.4193
10243TIP3    H130672   1.258   2.531   6.795  1.6439 -2.0817  2.5859
10243TIP3    H230673   1.405   2.511   6.767  1.5801  1.2426 -0.4843
10244TIP3   OH230674   2.790   3.883   5.668 -0.1483 -0.0860  0.3459
10244TIP3    H130675   2.767   3.825   5.741 -1.5010 -0.0472 -0.0343
10244TIP3    H230676   2.714   3.880   5.610  0.4554  0.7641 -0.5034
10245TIP3   OH230677   4.160   0.894   5.857  0.2685 -0.8241 -0.6836
10245TIP3    H130678   4.226   0.879   5.789  2.1897 -0.2096  1.0223
10245TIP3    H230679   4.139   0.987   5.850  0.7481 -0.6778 -0.1893
10246TIP3   OH230680   3.644   3.813   5.510  0.1421  0.3069 -0.5299
10246TIP3    H130681   3.670   3.756   5.582  0.7919  1.3835  0.1189
10246TIP3    H230682   3.693   3.894   5.525  1.2634  0.1156 -2.8965
10247TIP3   OH230683   6.755   6.902   0.629 -0.3092  0.1110 -0.4934
10247TIP3    H130684   6.790   6.814   0.640  0.8064  0.6720  0.4750
10247TIP3    H230685   6.663   6.894   0.655 -0.1515 -0.7147 -0.1673
10248TIP3   OH230686   2.496   7.725   0.252  0.1808 -0.5526  0.1924
10248TIP3    H130687   2.471   7.659   0.187 -2.6796  2.6052 -2.0559
10248TIP3    H230688   2.581   7.758   0.221 -0.0223 -0.7541 -0.5926
10249TIP3   OH230689   3.879   0.682   5.426  0.0217 -0.4133  0.4354
10249TIP3    H130690   3.953   0.630   5.397 -0.6111 -0.1675 -1.7076
10249TIP3    H230691   3.908   0.773   5.417 -0.2371 -0.3302  0.4267
10250TIP3   OH230692   4.768   5.769   0.872  0.0609 -0.3031 -0.1626
10250TIP3    H130693   4.736   5.841   0.818 -1.0884 -0.2421  0.5940
10250TIP3    H230694   4.691   5.737   0.919  1.3740  1.0560  3.0941
10251TIP3   OH230695   1.126   2.034   6.218 -0.4874  0.2335  0.0802
10251TIP3    H130696   1.114   2.107   6.279  0.9991 -1.1409  2.0981
10251TIP3    H230697   1.160   2.075   6.138  2.0171  1.5963  1.7625
10252TIP3   OH230698   4.818   2.080   2.868 -0.1615  0.3054 -0.2090
10252TIP3    H130699   4.847   2.015   2.805 -0.0732 -0.8962  1.0346
10252TIP3    H230700   4.895   2.099   2.921 -0.9255 -0.8371  1.3472
10253TIP3   OH230701   4.423   3.664   5.572 -0.2421 -0.5169  0.3240
10253TIP3    H130702   4.513   3.679   5.601 -0.1694  0.0478 -0.1819
10253TIP3    H230703   4.431   3.604   5.497 -0.3059 -0.6252  0.4029
10254TIP3   OH230704   3.164   1.317   5.116  0.1433  0.2388  0.0662
10254TIP3    H130705   3.091   1.256   5.129 -0.5484  0.4280 -2.5640
10254TIP3    H230706   3.230   1.266   5.070  1.4886  0.2203  1.9691
10255TIP3   OH230707   5.422   7.496   0.770 -0.2670 -1.1018  0.2560
10255TIP3    H130708   5.491   7.430   0.762  1.9149  1.3047 -1.5506
10255TIP3    H230709   5.370   7.487   0.690  1.2983  0.6645 -1.0202
10256TIP3   OH230710   4.215   0.979   5.072  0.0486 -0.2240 -0.4655
10256TIP3    H130711   4.295   0.929   5.087  0.0458 -0.0937  0.0142
10256TIP3    H230712   4.221   1.009   4.981  1.0821  0.7305 -0.0909
10257TIP3   OH230713   1.023   4.106   6.189 -0.1249 -0.0384 -0.0669
10257TIP3    H130714   1.016   4.196   6.221  1.9564  0.0515  0.1788
10257TIP3    H230715   1.113   4.098   6.159 -0.4762 -1.8598 -0.6909
10258TIP3   OH230716   3.072   2.075   6.855 -0.2767 -1.0984  0.4223
10258TIP3    H130717   3.056   1.987   6.890 -3.5783  0.1187  2.1868
10258TIP3    H230718   3.073   2.132   6.933 -1.7631  0.8754 -0.9564
10259TIP3   OH230719   4.572   7.055   1.676 -0.4592 -0.3565  0.1336
10259TIP3    H130720   4.630   7.060   1.751 -0.1786  1.2813 -0.1767
10259TIP3    H230721   4.614   6.993   1.616  0.8280  0.5840  0.0446
10260TIP3   OH230722   6.330   6.735   0.242  0.5577  0.4567  0.2366
10260TIP3    H130723   6.415   6.779   0.229  0.0479  1.1638 -0.8303
10260TIP3    H230724   6.304   6.759   0.330  1.6910 -0.1626  0.7584
10261TIP3   OH230725   5.530   3.435   5.264 -0.0200  0.3556  0.6393
10261TIP3    H130726   5.506   3.504   5.327 -0.9378 -0.9989  1.7915
10261TIP3    H230727   5.514   3.353   5.311  3.4479 -0.6526  0.1585
10262TIP3   OH230728   1.903   3.915   5.889  0.1465  0.7314 -0.2101
10262TIP3    H130729   1.924   3.876   5.974  0.7868  1.4975 -0.0105
10262TIP3    H230730   1.963   3.989   5.881 -0.8287  1.4827 -0.7200
10263TIP3   OH230731   0.878   6.222   1.765 -0.3576 -0.5545 -0.0838
10263TIP3    H130732   0.973   6.230   1.772 -0.5678  2.2078  0.3475
10263TIP3    H230733   0.850   6.190   1.851  0.0004  0.9434  0.6047
10264TIP3   OH230734   4.825   3.803   4.776 -0.4312 -0.1493  0.1015
10264TIP3    H130735   4.743   3.782   4.822 -0.1064  0.1039  0.8054
10264TIP3    H230736   4.888   3.740   4.810 -0.5698 -1.0099 -1.1905
10265TIP3   OH230737   3.847   2.430   6.917 -0.5271  0.1081 -0.5873
10265TIP3    H130738   3.890   2.510   6.886  0.0298  0.3954  0.9162
10265TIP3    H230739   3.758   2.456   6.939 -0.5711  0.1424 -0.7995
10266TIP3   OH230740   2.296   3.101   6.464  0.1710 -0.2894  0.3191
10266TIP3    H130741   2.204   3.119   6.485 -0.0422 -0.3461 -0.5404
10266TIP3    H230742   2.292   3.047   6.385  0.9284 -0.7822  0.6147
10267TIP3   OH230743   2.422   1.846   4.227  0.5479 -0.2909 -0.1396
10267TIP3    H130744   2.467   1.818   4.147  0.2963 -0.9103 -0.0652
10267TIP3    H230745   2.335   1.806   4.221  0.4282 -0.0957  0.2977
10268TIP3   OH230746   2.014   2.936   5.325  0.5154 -0.6690  0.2706
10268TIP3    H130747   1.996   2.879   5.250 -0.1081 -0.9902  0.6590
10268TIP3    H230748   2.109   2.942   5.329  0.5266  1.1000 -1.8830
10269TIP3   OH230749   7.048   5.564   0.283 -0.2759  0.1406  0.1728
10269TIP3    H130750   7.011   5.538   0.368 -0.3633  1.9806  0.7125
10269TIP3    H230751   7.008   5.504   0.220  1.6497 -2.9118  1.6911
10270TIP3   OH230752   4.402   4.740   5.960 -0.4022  0.0218  0.6825
10270TIP3    H130753   4.420   4.783   6.044 -0.3787  2.3593 -0.4725
10270TIP3    H230754   4.390   4.648   5.982  0.1458  0.5131  3.1802
10271TIP3   OH230755   3.544   1.932   5.826  0.6675  0.0140 -0.1134
10271TIP3    H130756   3.491   1.947   5.747  1.1346  1.0120 -0.2485
10271TIP3    H230757   3.483   1.891   5.888  1.1894 -4.1632 -2.1758
10272TIP3   OH230758   0.389   1.468   0.953 -0.5558 -0.4434 -0.4459
10272TIP3    H130759   0.299   1.480   0.922 -0.2743 -0.2784 -1.2121
10272TIP3    H230760   0.380   1.442   1.045 -1.3900 -0.6245 -0.5806
10273TIP3   OH230761   3.638   2.582   6.780  0.3939 -0.2660 -0.0952
10273TIP3    H130762   3.555   2.620   6.752 -0.4545 -0.9206  1.4702
10273TIP3    H230763   3.635   2.492   6.748  0.4948 -0.2941 -0.0237
10274TIP3   OH230764   2.795   2.266   4.760  0.5335 -0.0122  0.5764
10274TIP3    H130765   2.724   2.215   4.799  0.1783  2.7746  3.8405
10274TIP3    H230766   2.781   2.259   4.666 -2.3254 -1.9172  1.0946
10275TIP3   OH230767   6.144   5.792   1.086 -0.1672  0.4703  0.0358
10275TIP3    H130768   6.164   5.872   1.037 -2.7209 -0.2694 -2.3640
10275TIP3    H230769   6.102   5.822   1.167 -0.7128  1.5985 -0.6548
10276TIP3   OH230770   3.494   4.348   6.473 -0.5254 -0.1796  0.1553
10276TIP3    H130771   3.507   4.407   6.547 -1.7029  1.0198 -0.5667
10276TIP3    H230772   3.438   4.398   6.413 -2.4404 -2.4177  0.0085
10277TIP3   OH230773   0.164   1.086   1.143 -0.1765  0.5633  0.0414
10277TIP3    H130774   0.228   1.122   1.082 -0.6759  0.9853 -0.2349
10277TIP3    H230775   0.205   1.093   1.229  0.0042  1.1627 -0.0958
10278TIP3   OH230776   4.191   3.525   5.699  0.6767 -0.1250  0.6868
10278TIP3    H130777   4.211   3.469   5.774  1.2740  1.0246  1.3959
10278TIP3    H230778   4.275   3.565   5.676  0.9222 -1.9478 -1.8282
10279TIP3   OH230779   3.709   3.630   6.185 -0.0909  0.9927  0.3223
10279TIP3    H130780   3.663   3.547   6.197 -1.2718  1.5398 -0.3177
10279TIP3    H230781   3.790   3.606   6.140  1.7556 -0.3678  4.1200
10280TIP3   OH230782   3.512   3.025   4.780  0.1271 -0.1085 -0.2676
10280TIP3    H130783   3.515   2.999   4.872 -0.9140 -1.8263 -0.6946
10280TIP3    H230784   3.447   3.095   4.776 -1.0041 -1.1371  0.0517
10281TIP3   OH230785   2.946   1.813   6.058 -0.0351  0.1947  0.1762
10281TIP3    H130786   2.931   1.724   6.027  0.1175  0.6262 -1.1690
10281TIP3    H230787   2.862   1.857   6.045 -0.2797  0.1115  1.3702
10282TIP3   OH230788   2.661   0.757   6.367  0.1008  0.0399 -0.4590
10282TIP3    H130789   2.740   0.811   6.373  1.0061 -1.3196  0.1514
10282TIP3    H230790   2.672   0.710   6.284  1.3692 -2.3116  0.9934
10283TIP3   OH230791   8.126   7.907   5.161 -0.1755  0.1023  0.1093
10283TIP3    H130792   8.141   7.941   5.073  0.5045 -1.1306 -0.2660
10283TIP3    H230793   8.164   7.973   5.219  0.1327  0.5175 -0.5638
10284TIP3   OH230794   6.202   6.742   1.857 -0.0460  0.1207  0.1045
10284TIP3    H130795   6.270   6.799   1.893  0.7558 -0.3705 -0.6132
10284TIP3    H230796   6.221   6.739   1.763 -1.1618  0.1059 -0.1245
10285TIP3   OH230797   8.109   4.897   0.369 -0.2915  0.3880 -0.5223
10285TIP3    H130798   8.172   4.825   0.365 -0.5042  0.1018  0.9441
10285TIP3    H230799   8.153   4.965   0.420 -0.1535  1.2498 -1.7660
10286TIP3   OH230800   3.025   1.608   5.553  0.2211  0.1600  0.0678
10286TIP3    H130801   3.084   1.633   5.624  2.0824 -0.7627 -1.1097
10286TIP3    H230802   2.966   1.682   5.543  0.2813  0.5184  2.2090
10287TIP3   OH230803   2.736   3.491   5.810  0.3315 -0.2243 -0.2483
10287TIP3    H130804   2.654   3.443   5.817  0.3140 -0.1361  0.1858
10287TIP3    H230805   2.711   3.583   5.817  0.4759 -0.2020 -0.0087
10288TIP3   OH230806   2.872   1.797   6.500 -0.5866 -0.4369  1.3533
10288TIP3    H130807   2.929   1.867   6.530  0.5653 -1.2906  1.1804
10288TIP3    H230808   2.930   1.735   6.457 -1.6186 -1.3961  1.3089
10289TIP3   OH230809   7.046   7.469   1.149 -0.0134  0.4251 -0.0115
10289TIP3    H130810   7.070   7.417   1.226  0.5878  0.7158 -0.0042
10289TIP3    H230811   7.079   7.418   1.074 -1.0131 -0.0926 -0.1133
10290TIP3   OH230812   4.472   1.434   6.405  0.5916 -0.0626 -0.5013
10290TIP3    H130813   4.529   1.441   6.481 -0.4751 -1.5276  0.4734
10290TIP3    H230814   4.532   1.427   6.331  1.6893 -1.8336  0.5197
10291TIP3   OH230815   7.673   0.411   0.180 -0.2258  0.4789  0.3335
10291TIP3    H130816   7.595   0.362   0.155  0.6431 -0.4582 -0.5902
10291TIP3    H230817   7.697   0.376   0.266  0.8779 -1.3666 -0.6843
10292TIP3   OH230818   3.635   4.656   5.710  0.3864  0.2042 -0.0637
10292TIP3    H130819   3.631   4.652   5.614 -0.3712 -0.6450 -0.0097
10292TIP3    H230820   3.563   4.599   5.738  0.9834 -0.0122  1.0096
10293TIP3   OH230821   2.071   2.423   6.810  0.2425 -0.1518 -0.4551
10293TIP3    H130822   2.130   2.355   6.779 -0.4730  0.2759 -2.8271
10293TIP3    H230823   2.007   2.434   6.740 -0.8112  1.5995  0.7211
10294TIP3   OH230824   7.715   3.335   1.610  0.6398 -0.2643 -0.5835
10294TIP3    H130825   7.785   3.322   1.674  0.7789  0.0778 -0.6690
10294TIP3    H230826   7.756   3.383   1.538 -0.1325  1.6536  0.2149
10295TIP3   OH230827   1.116   4.566   6.106  0.6391  0.3236 -0.5222
10295TIP3    H130828   1.047   4.511   6.069 -0.1726  0.1778  1.1482
10295TIP3    H230829   1.088   4.656   6.087  0.2294  0.2497 -0.2784
10296TIP3   OH230830   4.125   7.815   0.336 -0.6409 -0.3516  0.2660
10296TIP3    H130831   4.188   7.747   0.361  2.6148  1.9545 -1.2857
10296TIP3    H230832   4.134   7.823   0.241 -2.1721  1.1102  0.2187
10297TIP3   OH230833   7.358   7.080   0.922 -0.1631 -0.3953  0.5681
10297TIP3    H130834   7.318   7.164   0.898  0.2091 -0.0705  1.0604
10297TIP3    H230835   7.360   7.082   1.018  0.8178 -0.5141  0.5535
10298TIP3   OH230836   6.846   6.633   0.699  0.1733 -0.2484 -0.5239
10298TIP3    H130837   6.845   6.565   0.768  0.2356  1.2764  1.0158
10298TIP3    H230838   6.847   6.583   0.617  0.6389 -2.1251  0.5751
10299TIP3   OH230839   5.868   7.337   0.972  0.3997  0.0160 -0.4414
10299TIP3    H130840   5.916   7.286   1.037 -0.3547 -0.1602 -0.0124
10299TIP3    H230841   5.801   7.383   1.022  0.2802  0.4532 -0.9965
10300TIP3   OH230842   3.721   2.359   5.161  0.1018 -0.6658 -0.1284
10300TIP3    H130843   3.736   2.442   5.207 -0.1519  0.4415 -2.0051
10300TIP3    H230844   3.799   2.307   5.180  0.7446  0.4015  0.2168
10301TIP3   OH230845   5.399   5.930   1.652  0.5215  0.5593  0.1672
10301TIP3    H130846   5.451   5.966   1.580  0.2045  1.7210  0.5050
10301TIP3    H230847   5.348   5.859   1.611  0.1766  1.3528 -0.8147
10302TIP3   OH230848   2.024   0.562   6.342  0.2352 -0.0868 -0.4356
10302TIP3    H130849   1.987   0.494   6.286 -0.3312  0.8942 -1.2510
10302TIP3    H230850   2.080   0.514   6.404 -1.1430 -1.4097 -0.1966
10303TIP3   OH230851   6.041   7.084   0.902  0.4629 -0.2089  0.1882
10303TIP3    H130852   5.952   7.063   0.931  0.4947 -0.0776  0.3805
10303TIP3    H230853   6.085   7.117   0.980  0.7597 -0.5202  0.1552
10304TIP3   OH230854   3.759   3.425   4.235 -0.4415 -0.5035 -0.4297
10304TIP3    H130855   3.781   3.445   4.326 -0.9041  0.8923 -0.6039
10304TIP3    H230856   3.729   3.334   4.236  1.1575 -1.0233  0.5202
10305TIP3   OH230857   3.635   0.961   5.951  0.5149 -0.2270  1.0812
10305TIP3    H130858   3.631   0.876   5.908 -0.4614  0.9038 -1.1183
10305TIP3    H230859   3.549   0.971   5.992  0.4840 -0.0993  0.9841
10306TIP3   OH230860   5.026   1.176   4.992 -0.5031  0.3703  0.0039
10306TIP3    H130861   5.029   1.266   4.961 -0.2491 -0.4822 -2.5596
10306TIP3    H230862   4.992   1.126   4.918  0.3791 -1.8016  1.0037
10307TIP3   OH230863   2.370   0.595   1.651  0.2992 -0.6754  0.5124
10307TIP3    H130864   2.413   0.608   1.736  1.6578  0.3060 -0.3104
10307TIP3    H230865   2.283   0.632   1.662  1.0256  0.9180  0.9841
10308TIP3   OH230866   1.905   2.332   5.837  0.3444  0.2957  0.4856
10308TIP3    H130867   1.957   2.391   5.891  0.6792  1.1814 -0.8051
10308TIP3    H230868   1.827   2.382   5.815  0.7737  0.3724 -0.8732
10309TIP3   OH230869   4.899   1.857   6.297 -0.0294  0.1703  0.0803
10309TIP3    H130870   4.914   1.952   6.299 -1.3202  0.4198 -1.2053
10309TIP3    H230871   4.806   1.848   6.277  0.2072 -1.3737 -0.3596
10310TIP3   OH230872   4.533   3.518   5.339 -0.0755 -0.1574  0.3612
10310TIP3    H130873   4.595   3.573   5.292 -1.6471  0.7533 -0.7143
10310TIP3    H230874   4.585   3.476   5.408  1.6813  0.6600 -0.4329
10311TIP3   OH230875   6.437   5.857   1.140 -0.5344 -0.0674  0.0870
10311TIP3    H130876   6.382   5.911   1.197 -0.5101 -0.3150  0.3470
10311TIP3    H230877   6.439   5.905   1.057  0.8277  1.1900  0.8166
10312TIP3   OH230878   2.916   0.868   6.355  0.0415  0.0624  0.4019
10312TIP3    H130879   2.929   0.955   6.317  0.5584 -1.3734 -2.9107
10312TIP3    H230880   2.993   0.855   6.410  0.9659  0.9372 -0.6431
10313TIP3   OH230881   6.140   7.663   0.085 -0.1530 -0.0558 -0.0392
10313TIP3    H130882   6.142   7.671  -0.010 -0.3669 -0.9065 -0.1244
10313TIP3    H230883   6.090   7.582   0.101  0.0132 -0.0003  0.7854
10314TIP3   OH230884   5.844   7.440   2.256 -0.1036  0.0451  0.4016
10314TIP3    H130885   5.779   7.409   2.319 -1.1520  0.8082 -0.2981
10314TIP3    H230886   5.815   7.528   2.232  1.2668  0.4470  0.1836
10315TIP3   OH230887   2.750   0.561   5.545  0.3882 -0.0647  0.0109
10315TIP3    H130888   2.782   0.485   5.594  1.4279 -0.0420 -0.6156
10315TIP3    H230889   2.655   0.551   5.546  0.5082 -1.3760 -0.0461
10316TIP3   OH230890   5.713   6.345   1.619  0.0266 -0.2450  0.1826
10316TIP3    H130891   5.756   6.367   1.537  0.9384 -2.5346  0.0116
10316TIP3    H230892   5.651   6.276   1.597 -1.4993  0.8317  1.0002
10317TIP3   OH230893   5.690   5.605   0.180 -0.4445  0.1930  0.1717
10317TIP3    H130894   5.595   5.609   0.184 -0.4691  1.3487 -1.1089
10317TIP3    H230895   5.709   5.524   0.133 -0.8066  0.0065  0.3499
10318TIP3   OH230896   6.142   5.503   1.104 -0.1422 -0.2412  0.5717
10318TIP3    H130897   6.109   5.489   1.015 -0.6309  0.4160  0.6479
10318TIP3    H230898   6.159   5.597   1.109 -1.0955 -0.1034  1.5047
10319TIP3   OH230899   3.904   3.537   4.036  0.4887  0.2969  0.3478
10319TIP3    H130900   3.909   3.471   3.967 -3.5633  0.8840 -0.6285
10319TIP3    H230901   3.861   3.494   4.109  0.3438  1.0606  0.7234
10320TIP3   OH230902   7.127   5.472   2.056 -0.0824  0.4974  0.0384
10320TIP3    H130903   7.126   5.377   2.042  0.2256  0.2875  1.4337
10320TIP3    H230904   7.100   5.508   1.971 -0.2583 -0.8319 -0.4897
10321TIP3   OH230905   3.349   1.423   6.049  0.4895 -0.1095 -0.8707
10321TIP3    H130906   3.367   1.341   6.003  0.6321 -0.1062 -0.8207
10321TIP3    H230907   3.311   1.396   6.133  2.5583 -0.2103  0.0841
10322TIP3   OH230908   3.040   2.398   5.401 -0.1692 -0.3832  0.0423
10322TIP3    H130909   3.052   2.369   5.311 -0.2746  1.0559 -0.4372
10322TIP3    H230910   3.091   2.335   5.453 -1.3874 -2.1726 -0.8674
10323TIP3   OH230911   4.385   3.324   4.828  0.0375  0.1317 -0.2643
10323TIP3    H130912   4.478   3.313   4.847  0.0465 -0.0242 -0.3962
10323TIP3    H230913   4.353   3.235   4.812  0.3689  0.4058 -2.6040
10324TIP3   OH230914   7.814  -0.009   0.001  0.1866 -0.4291 -0.5865
10324TIP3    H130915   7.748  -0.013   0.070 -1.0083 -0.0572 -1.7090
10324TIP3    H230916   7.889   0.033   0.043 -0.6364  0.0749  0.4041
10325TIP3   OH230917   5.269   6.785   0.478  0.0898  0.2013 -0.1428
10325TIP3    H130918   5.302   6.775   0.567 -0.9205 -0.1773  0.1967
10325TIP3    H230919   5.213   6.863   0.482  1.8341  1.5171 -0.9791
10326TIP3   OH230920   7.298   7.256   2.803 -0.1549 -0.2337 -0.0293
10326TIP3    H130921   7.272   7.213   2.722 -0.2759  1.4738 -0.9226
10326TIP3    H230922   7.216   7.268   2.851 -0.4361  1.0896 -0.8269
10327TIP3   OH230923   5.560   5.951   1.201  0.5534 -0.2315 -0.0832
10327TIP3    H130924   5.518   5.998   1.274 -2.0898  2.3606 -3.1275
10327TIP3    H230925   5.651   5.981   1.204  1.2795 -2.4301  3.8515
10328TIP3   OH230926   7.048   6.661   1.530 -0.0217 -0.1179  0.1205
10328TIP3    H130927   7.120   6.682   1.590 -0.6065  0.4486  0.6257
10328TIP3    H230928   6.970   6.697   1.572 -0.5836 -0.6023 -0.4983
10329TIP3   OH230929   6.050   7.224   0.422  0.1382  0.2271  0.0296
10329TIP3    H130930   6.094   7.195   0.502 -0.0022  0.1148  0.0668
10329TIP3    H230931   6.083   7.313   0.407  1.3888 -0.3375 -0.6826
10330TIP3   OH230932   2.467   0.631   0.240 -0.4257 -0.0873 -0.2093
10330TIP3    H130933   2.468   0.607   0.148 -0.3446 -0.3054 -0.1514
10330TIP3    H230934   2.409   0.568   0.281 -2.1950  1.3243 -0.4628
10331TIP3   OH230935   4.733   2.482   3.996 -0.1284 -0.0152 -0.2067
10331TIP3    H130936   4.677   2.549   4.034 -0.0458  0.0337 -0.1702
10331TIP3    H230937   4.711   2.402   4.043 -0.9833 -0.2432 -0.9753
10332TIP3   OH230938   7.526   6.118   1.467 -0.3524 -0.1332 -0.8557
10332TIP3    H130939   7.512   6.196   1.520 -1.2499 -0.7854 -0.1134
10332TIP3    H230940   7.619   6.120   1.443  0.2022 -0.1669  1.2497
10333TIP3   OH230941   7.125   7.233   0.483  0.2311 -0.0278 -0.5445
10333TIP3    H130942   7.058   7.195   0.539 -1.3582  1.0702 -1.6611
10333TIP3    H230943   7.106   7.200   0.396  0.9413  0.5345 -0.9215
10334TIP3   OH230944   4.612   1.448   5.830 -0.2852  0.4173 -0.2225
10334TIP3    H130945   4.530   1.479   5.869 -0.2470  1.2143 -0.7554
10334TIP3    H230946   4.678   1.461   5.899 -0.5418  0.1095  0.0813
10335TIP3   OH230947   2.203   0.269   4.350  0.0371 -0.2259  0.6463
10335TIP3    H130948   2.276   0.299   4.297 -0.6077 -0.3556 -0.3228
10335TIP3    H230949   2.131   0.328   4.327 -0.2040 -0.1710  1.5087
10336TIP3   OH230950   5.102   0.869   6.389 -0.0857 -0.0935 -0.3289
10336TIP3    H130951   5.149   0.832   6.464 -2.5683  0.0401  1.3348
10336TIP3    H230952   5.166   0.927   6.348  0.9624  0.7768  2.3973
10337TIP3   OH230953   0.109   1.531   0.897  0.1153  0.2951 -0.1563
10337TIP3    H130954   0.038   1.467   0.888 -0.7000  1.1639  0.0574
10337TIP3    H230955   0.084   1.584   0.972  1.3074  0.2194  0.2935
10338TIP3   OH230956   7.933   7.704   0.665  0.3825  0.2453 -0.0729
10338TIP3    H130957   7.881   7.755   0.728  0.6473  0.4769 -0.0407
10338TIP3    H230958   7.871   7.680   0.597  0.1702  0.2871  0.1050
10339TIP3   OH230959   3.634   3.453   4.973  0.4709  0.1025 -0.4742
10339TIP3    H130960   3.654   3.541   5.004  0.3602  0.0364 -0.2048
10339TIP3    H230961   3.646   3.398   5.050  0.1630 -0.0619 -0.5409
10340TIP3   OH230962   6.618   4.881  -0.024 -0.1751  0.1761  0.6399
10340TIP3    H130963   6.580   4.894   0.063 -1.0618  1.5623  0.0547
10340TIP3    H230964   6.711   4.897  -0.011  0.2012 -2.7332  1.9735
10341TIP3   OH230965   4.037   2.541   6.042  0.0299  0.0834  0.6786
10341TIP3    H130966   4.042   2.544   6.137  1.6444  1.2114  0.5775
10341TIP3    H230967   4.033   2.448   6.020 -1.0487 -0.1556  1.8697
10342TIP3   OH230968   6.771   7.020   0.363  0.1745  0.2177  0.1042
10342TIP3    H130969   6.743   7.108   0.388  0.6343  0.2616  0.4617
10342TIP3    H230970   6.790   6.976   0.446  2.3226  0.5662 -0.1866
10343TIP3   OH230971   3.946   4.926   0.332  0.5185  0.0081 -0.3054
10343TIP3    H130972   3.864   4.893   0.369 -0.1713  1.0103 -0.9185
10343TIP3    H230973   3.937   4.912   0.237  0.9553  0.3325 -0.3982
10344TIP3   OH230974   4.003   1.522   6.384 -0.2596  0.0347 -0.3245
10344TIP3    H130975   4.053   1.442   6.400  0.6529  0.6092 -0.2231
10344TIP3    H230976   3.943   1.528   6.458  1.0597  0.4928  0.7356
10345TIP3   OH230977   5.180   0.155   5.301  0.0771  0.3690 -0.3056
10345TIP3    H130978   5.191   0.061   5.291  0.8268  0.2899  1.1762
10345TIP3    H230979   5.216   0.192   5.220  1.0279 -0.5449 -0.3090
10346TIP3   OH230980   3.349   0.772   5.617 -0.0439  0.3367  0.1639
10346TIP3    H130981   3.333   0.855   5.664  0.5472  0.9763 -0.7421
10346TIP3    H230982   3.304   0.783   5.534  0.6942  0.0524 -0.2733
10347TIP3   OH230983   2.002   4.449   5.285 -0.0659 -0.2447 -0.1479
10347TIP3    H130984   1.931   4.513   5.292  1.0725  1.0821 -0.4584
10347TIP3    H230985   2.037   4.442   5.374  0.1322 -0.0542 -0.2101
10348TIP3   OH230986   5.996   2.583   6.547  0.0115 -0.1684  0.0901
10348TIP3    H130987   6.064   2.546   6.492 -0.3403 -1.3289  0.4264
10348TIP3    H230988   6.044   2.633   6.613  0.5254 -0.5962  0.0483
10349TIP3   OH230989   4.936   4.564   5.535 -0.4011 -0.1082 -0.2137
10349TIP3    H130990   5.029   4.553   5.552 -0.2480  1.0787 -0.3051
10349TIP3    H230991   4.898   4.583   5.621 -0.8949 -2.7431  0.2028
10350TIP3   OH230992   6.264   6.653   1.228 -0.3700  0.1683  0.1394
10350TIP3    H130993   6.179   6.609   1.224 -0.4978  0.5319 -1.6210
10350TIP3    H230994   6.243   6.744   1.251 -0.3736  0.0232  0.7061
10351TIP3   OH230995   4.131   5.908   0.345 -0.0845 -0.0172 -0.2335
10351TIP3    H130996   4.147   5.965   0.420 -0.6222  0.2408 -0.3111
10351TIP3    H230997   4.151   5.963   0.269  0.1564 -0.1802 -0.2897
10352TIP3   OH230998   7.454   5.483   1.157  0.8081  0.1476  0.1408
10352TIP3    H130999   7.467   5.388   1.159 -0.9406 -0.1394 -0.8715
10352TIP3    H231000   7.378   5.498   1.214 -0.4960  0.6427 -1.7007
10353TIP3   OH231001   5.805   7.689   3.170  0.2046  0.0849 -0.8102
10353TIP3    H131002   5.892   7.654   3.189 -0.6520 -0.8462  1.6843
10353TIP3    H231003   5.764   7.624   3.114  0.5944 -0.1888 -0.7783
10354TIP3   OH231004   5.958   5.713   1.679 -0.3222 -0.2780 -0.2322
10354TIP3    H131005   5.985   5.805   1.681  0.4459 -0.5154  1.1612
10354TIP3    H231006   5.885   5.709   1.741 -0.7579 -0.4769 -0.7658
10355TIP3   OH231007   1.920   1.792   0.443 -0.1266 -0.5593  0.0008
10355TIP3    H131008   1.968   1.710   0.457  1.4406  0.5033  1.0030
10355TIP3    H231009   1.979   1.860   0.476 -1.8717  0.8713  0.2180
10356TIP3   OH231010   7.671   7.718   1.518  0.2360  0.0251 -0.2783
10356TIP3    H131011   7.653   7.797   1.466  0.6206 -0.0171 -0.4750
10356TIP3    H231012   7.677   7.648   1.454  3.0041  0.3401 -0.4209
10357TIP3   OH231013   3.932   5.413   6.193  0.5536 -0.1194 -0.0312
10357TIP3    H131014   3.865   5.479   6.210  1.8012  0.9374  0.8444
10357TIP3    H231015   3.948   5.418   6.099  0.4483  0.6394 -0.0100
10358TIP3   OH231016   0.523   0.604   1.344  0.1014 -0.1853  0.3702
10358TIP3    H131017   0.479   0.519   1.351  0.1021 -0.1152  1.3013
10358TIP3    H231018   0.605   0.593   1.391  0.6741 -0.0353 -0.5850
10359TIP3   OH231019   4.200   6.070   1.325  0.3644 -0.1282 -0.0708
10359TIP3    H131020   4.260   5.998   1.307  0.4826 -0.2971  0.9602
10359TIP3    H231021   4.255   6.148   1.325  0.3933 -0.1489 -0.2674
10360TIP3   OH231022   0.964   0.039   0.799 -0.0929  0.1357 -0.2341
10360TIP3    H131023   1.044  -0.006   0.773  1.2310  0.8443  2.3869
10360TIP3    H231024   0.968   0.123   0.753  1.2844  0.6480  0.7896
10361TIP3   OH231025   2.683   2.207   6.856 -0.5356  0.3354  0.1493
10361TIP3    H131026   2.682   2.199   6.951  1.6649  1.7821  0.3346
10361TIP3    H231027   2.742   2.281   6.839 -1.0809  0.2437 -2.3248
10362TIP3   OH231028   8.045   1.709   6.504  0.2301  0.0471 -0.0334
10362TIP3    H131029   8.078   1.725   6.416 -0.1626 -0.3108 -0.2461
10362TIP3    H231030   7.965   1.657   6.491  0.6399 -0.7473  0.5713
10363TIP3   OH231031   1.093   2.956   4.615 -0.6496  0.4585 -0.2664
10363TIP3    H131032   1.173   3.003   4.590 -1.2450  0.0016 -3.3078
10363TIP3    H231033   1.054   3.010   4.683  1.1547  1.8241 -0.2676
10364TIP3   OH231034   3.671   2.772   6.269  0.3495  0.6283  0.0131
10364TIP3    H131035   3.678   2.862   6.238 -1.4925  0.9385  0.3800
10364TIP3    H231036   3.581   2.746   6.246  0.5952 -0.8317  0.6326
10365TIP3   OH231037   2.853   2.164   6.337 -0.2423  0.3122  0.5507
10365TIP3    H131038   2.836   2.179   6.244  2.8448  1.1318  0.0761
10365TIP3    H231039   2.766   2.163   6.377 -1.6102  0.0953 -2.2997
10366TIP3   OH231040   3.198   2.619   5.911 -0.3752 -0.6161  0.1210
10366TIP3    H131041   3.129   2.584   5.855 -1.2829  2.5533 -0.8394
10366TIP3    H231042   3.159   2.694   5.954  1.5407 -0.6401  1.9822
10367TIP3   OH231043   0.026   5.156   0.277  0.3427 -0.3103 -0.7398
10367TIP3    H131044  -0.053   5.207   0.259  1.2121  0.8813 -1.2183
10367TIP3    H231045   0.046   5.114   0.193  0.1929 -0.6602 -0.6028
10368TIP3   OH231046   2.738   2.536   5.587  0.1267  0.1893 -0.4274
10368TIP3    H131047   2.706   2.447   5.570  0.0148 -0.1089  1.2108
10368TIP3    H231048   2.725   2.583   5.505 -0.0905 -1.2331 -1.2155
10369TIP3   OH231049   5.063   6.359   0.312 -0.6992  0.0219  0.2873
10369TIP3    H131050   5.085   6.452   0.306  1.5055 -0.5355 -0.7144
10369TIP3    H231051   5.124   6.316   0.252 -2.6998 -1.9212 -0.4288
10370TIP3   OH231052   1.797   2.069   5.758 -0.2260 -0.5286  0.2814
10370TIP3    H131053   1.845   2.131   5.704 -2.6918  0.3039 -1.0348
10370TIP3    H231054   1.839   1.984   5.740  0.5830  0.1268 -1.0193
10371TIP3   OH231055   4.487   1.333   5.609 -0.4566 -0.6381  0.4923
10371TIP3    H131056   4.407   1.380   5.585  0.4646 -0.4163 -2.3918
10371TIP3    H231057   4.517   1.375   5.690 -1.3869  1.5890 -0.2927
10372TIP3   OH231058   3.858   2.655   4.960  0.6376 -0.2777 -0.3986
10372TIP3    H131059   3.888   2.731   4.909  0.4421  0.1064  0.0555
10372TIP3    H231060   3.799   2.692   5.026  0.9737 -0.7575  0.1762
10373TIP3   OH231061   2.563   4.609   5.633 -0.4280 -0.1802  0.2170
10373TIP3    H131062   2.492   4.563   5.589  0.2599 -0.4291 -0.6584
10373TIP3    H231063   2.570   4.568   5.719 -0.2682 -1.2512 -0.3097
10374TIP3   OH231064   2.696   2.460   6.533  0.3053  0.4636 -0.0473
10374TIP3    H131065   2.759   2.389   6.521  2.2881  2.3173 -0.9650
10374TIP3    H231066   2.719   2.498   6.618  1.1803  1.8256 -0.8669
10375TIP3   OH231067   4.669   3.518   5.875  0.2418 -1.0191  0.0086
10375TIP3    H131068   4.633   3.528   5.963 -1.5323 -1.8059 -0.5941
10375TIP3    H231069   4.643   3.598   5.829  1.1076 -0.6387  0.1782
10376TIP3   OH231070   5.907   6.112   0.203 -0.8329  0.4203  0.1008
10376TIP3    H131071   5.964   6.064   0.264 -0.3297 -0.2630 -0.9043
10376TIP3    H231072   5.841   6.152   0.260  1.2139  2.0733  1.3774
10377TIP3   OH231073   1.718   3.757   4.730 -0.2170  0.0232 -0.2771
10377TIP3    H131074   1.715   3.746   4.635  0.7715  1.6850 -0.5170
10377TIP3    H231075   1.629   3.736   4.759 -1.3560  2.4271 -1.9050
10378TIP3   OH231076   2.744   1.993   6.064 -0.4104 -0.1510 -0.4970
10378TIP3    H131077   2.675   2.011   6.129 -1.8065 -1.5526 -1.5610
10378TIP3    H231078   2.778   2.080   6.040 -2.2826  0.6048 -0.4725
10379TIP3   OH231079   2.873   3.636   6.352 -0.3436 -0.1012  0.0341
10379TIP3    H131080   2.905   3.556   6.309 -0.6873 -0.1095 -0.2070
10379TIP3    H231081   2.779   3.635   6.337 -0.1513  1.1456 -1.3256
10380TIP3   OH231082   4.584   0.850   5.870  0.1355  0.3607 -0.6563
10380TIP3    H131083   4.661   0.796   5.852  0.6747  1.1462 -0.7367
10380TIP3    H231084   4.532   0.846   5.790 -0.9055 -1.7753  0.0767
10381TIP3   OH231085   4.739   3.954   6.263 -0.1854  0.0267 -0.0128
10381TIP3    H131086   4.746   3.859   6.274 -0.1095  0.0647  0.2779
10381TIP3    H231087   4.797   3.990   6.330 -0.8118  0.2919  0.3902
10382TIP3   OH231088   6.466   7.472   0.377 -0.0416 -0.1040  0.3060
10382TIP3    H131089   6.444   7.513   0.293  0.5218 -0.1905  0.1088
10382TIP3    H231090   6.557   7.445   0.366 -0.1176 -0.5509  0.7756
10383TIP3   OH231091   1.615   1.491   0.353  0.1498  0.2582  0.1562
10383TIP3    H131092   1.644   1.565   0.406 -0.6781  1.2406 -0.7376
10383TIP3    H231093   1.525   1.512   0.331  0.8277  0.4010 -2.5675
10384TIP3   OH231094   3.677   4.238   4.998 -0.6998  0.4866  0.3889
10384TIP3    H131095   3.676   4.245   5.093  1.4384  0.9418  0.4155
10384TIP3    H231096   3.672   4.329   4.967  2.7184  0.6697  0.1923
10385TIP3   OH231097   5.129   4.795   6.123 -0.0849 -0.3991 -0.1426
10385TIP3    H131098   5.131   4.816   6.029  0.5167 -1.1588 -0.3074
10385TIP3    H231099   5.185   4.719   6.131  0.5291  0.1651  0.9757
10386TIP3   OH231100   4.640   3.383   6.831  0.1641 -0.0231 -0.0989
10386TIP3    H131101   4.583   3.411   6.903  0.2134  0.2261 -0.1571
10386TIP3    H231102   4.656   3.290   6.849  0.2816  0.0679  0.2837
10387TIP3   OH231103   3.563   1.960   5.262  0.9517 -0.0989  0.1244
10387TIP3    H131104   3.597   1.963   5.172  0.9572  3.0295  0.1698
10387TIP3    H231105   3.641   1.944   5.316  1.2810  0.1218 -0.2811
10388TIP3   OH231106   4.852   1.041   6.308 -0.4909  0.3248 -0.0574
10388TIP3    H131107   4.921   0.997   6.358 -2.7669 -2.4849  0.7512
10388TIP3    H231108   4.861   1.134   6.331  3.3152  0.1287 -0.4237
10389TIP3   OH231109   6.015   4.578   6.275  0.2889  0.1528 -0.7236
10389TIP3    H131110   6.019   4.500   6.220 -0.8825  0.2807 -0.9984
10389TIP3    H231111   5.923   4.604   6.274  0.2358  0.1225  1.3520
10390TIP3   OH231112   7.081   4.333   4.095 -0.3811 -0.0769  0.3629
10390TIP3    H131113   7.010   4.352   4.155 -0.1499 -0.5089  0.7817
10390TIP3    H231114   7.140   4.408   4.102  0.7767 -1.1160  2.3749
10391TIP3   OH231115   6.262   2.776   5.684 -0.1799  0.2334 -0.3750
10391TIP3    H131116   6.216   2.713   5.628 -0.6404 -1.1736  1.5328
10391TIP3    H231117   6.351   2.742   5.690 -0.9847 -1.5456  2.4646
10392TIP3   OH231118   6.921   6.330   0.074  0.1221  0.3750 -0.3135
10392TIP3    H131119   6.945   6.421   0.092  1.1134  0.3269 -1.3047
10392TIP3    H231120   6.834   6.335   0.035  0.2157  0.9208 -0.4545
10393TIP3   OH231121   5.277   2.091   6.031  0.6070  0.3137 -0.2289
10393TIP3    H131122   5.294   2.075   5.938 -1.4969 -1.8137 -0.3158
10393TIP3    H231123   5.196   2.143   6.032 -0.4328 -1.2484  0.3915
10394TIP3   OH231124   6.506   4.877   0.233 -0.0851  0.0965  0.3856
10394TIP3    H131125   6.435   4.939   0.251 -0.0210  0.0059  0.9495
10394TIP3    H231126   6.570   4.892   0.302 -0.0867 -0.6300  0.5466
10395TIP3   OH231127   5.844   7.650   0.308 -0.1778  0.1430  0.5521
10395TIP3    H131128   5.855   7.579   0.245 -0.1756  0.4265  0.2305
10395TIP3    H231129   5.749   7.657   0.319 -0.2343  0.9412 -0.3964
10396TIP3   OH231130   3.008   2.362   5.129 -0.2218  0.1008  0.2277
10396TIP3    H131131   3.066   2.289   5.109 -1.0740 -0.5416  0.0907
10396TIP3    H231132   2.921   2.323   5.138 -0.9211  1.2583 -1.1681
10397TIP3   OH231133   5.293   1.463   6.777 -0.5327 -0.1948  0.0543
10397TIP3    H131134   5.208   1.425   6.797 -0.1344 -1.1954 -0.1284
10397TIP3    H231135   5.354   1.389   6.779 -0.0191  0.1467 -1.9651
10398TIP3   OH231136   5.420   4.979   6.251  0.0643 -0.3460  0.0472
10398TIP3    H131137   5.343   4.987   6.307  0.3125  2.7506  0.0592
10398TIP3    H231138   5.494   4.993   6.310  0.5226 -0.9266 -0.3802
10399TIP3   OH231139   7.384   5.111   6.638 -0.0318  0.4600 -0.3491
10399TIP3    H131140   7.309   5.075   6.686 -1.5426  1.4331 -1.9403
10399TIP3    H231141   7.446   5.137   6.707 -0.9209 -0.8228  0.9670
10400TIP3   OH231142   7.444   6.103   0.013  0.1043  0.6260 -0.5893
10400TIP3    H131143   7.397   6.084  -0.068 -1.2525  2.9435 -0.3748
10400TIP3    H231144   7.379   6.090   0.082  0.9414 -0.1992  0.0595
10401TIP3   OH231145   1.534   1.166   4.808 -0.1514 -0.3699  0.3386
10401TIP3    H131146   1.469   1.097   4.797 -0.7907  0.0362  1.5491
10401TIP3    H231147   1.617   1.125   4.782 -0.7923 -1.0416 -0.6932
10402TIP3   OH231148   4.160   1.867   6.608  0.2627 -0.1926 -0.0033
10402TIP3    H131149   4.076   1.826   6.588 -0.8169  1.5063  0.9088
10402TIP3    H231150   4.168   1.938   6.545 -0.3833  1.4757  1.7422
10403TIP3   OH231151   3.665   3.070   5.312 -0.1599  0.1294  0.1033
10403TIP3    H131152   3.717   3.025   5.246 -1.0414 -1.5847  0.5517
10403TIP3    H231153   3.606   3.126   5.262  0.9701  0.8374 -0.4599
10404TIP3   OH231154   5.136   2.544   4.679 -0.1235 -0.2759 -0.3884
10404TIP3    H131155   5.186   2.466   4.702 -0.4558 -0.5867 -0.7211
10404TIP3    H231156   5.186   2.584   4.608 -1.4278 -1.7025 -2.1384
10405TIP3   OH231157   4.905   1.098   0.142  0.0619 -0.2172  0.3545
10405TIP3    H131158   4.825   1.144   0.167 -1.1074 -1.1195 -1.5762
10405TIP3    H231159   4.893   1.009   0.175 -0.4056 -0.7409 -1.1451
10406TIP3   OH231160   3.722   1.431   4.864  0.1889  0.3292 -0.4937
10406TIP3    H131161   3.664   1.507   4.853 -0.5363 -0.2058 -0.3779
10406TIP3    H231162   3.735   1.424   4.958 -0.6500 -0.3621 -0.4231
10407TIP3   OH231163   5.745   2.073   4.311 -0.3780  0.1414  0.1081
10407TIP3    H131164   5.780   2.073   4.400 -1.3246  0.6358  0.4882
10407TIP3    H231165   5.750   2.165   4.283 -1.4491  0.2431  0.2109
10408TIP3   OH231166   5.458   3.811   6.532 -0.1870 -0.6958  0.0512
10408TIP3    H131167   5.540   3.859   6.541  0.8362 -2.6760  1.5744
10408TIP3    H231168   5.431   3.827   6.442  1.3849  0.7482 -0.1835
10409TIP3   OH231169   1.628   6.588   0.061 -0.7049  0.1286 -0.3974
10409TIP3    H131170   1.680   6.545   0.129 -3.3777 -0.8012  1.1447
10409TIP3    H231171   1.691   6.638   0.010  1.6657 -0.9058  1.4427
10410TIP3   OH231172   2.351   5.741   0.355 -0.4421  0.3080 -0.0938
10410TIP3    H131173   2.330   5.706   0.442 -0.5100  0.1666 -0.1665
10410TIP3    H231174   2.283   5.705   0.298 -0.4608  0.4889 -0.1857
10411TIP3   OH231175   1.532   0.985   0.583 -0.4033  0.5693  0.5077
10411TIP3    H131176   1.579   0.901   0.584  1.5815  1.6443  0.5333
10411TIP3    H231177   1.521   1.006   0.490 -2.3818 -0.5053  0.4844
10412TIP3   OH231178   5.978   2.407   6.758  0.2165  0.4113 -0.4319
10412TIP3    H131179   5.997   2.426   6.666  0.3078 -1.2725 -0.7811
10412TIP3    H231180   6.055   2.359   6.789 -0.9501 -1.4092 -0.2526
10413TIP3   OH231181   6.408   3.205   6.095 -0.0957 -0.3569 -0.1863
10413TIP3    H131182   6.377   3.295   6.108 -0.5590 -0.7521  1.5968
10413TIP3    H231183   6.363   3.176   6.015 -0.5325  0.7253 -0.3464
10414TIP3   OH231184   6.352   6.961   0.039 -0.3254  0.0572 -0.1623
10414TIP3    H131185   6.291   7.034   0.047 -1.2248 -0.6876 -0.0767
10414TIP3    H231186   6.305   6.886   0.078 -0.3857 -1.0933 -2.3642
10415TIP3   OH231187   5.193   4.750   6.540  0.5647 -0.1159  0.6163
10415TIP3    H131188   5.226   4.686   6.477  0.3420 -0.6065  0.9958
10415TIP3    H231189   5.253   4.744   6.614 -0.4464 -1.1085  1.3685
10416TIP3   OH231190   5.128   2.623   5.046  0.1304  0.1968 -0.5779
10416TIP3    H131191   5.094   2.652   5.131 -0.7768  0.0780 -0.8910
10416TIP3    H231192   5.113   2.697   4.987  0.1941  0.0521 -0.7773
10417TIP3   OH231193   1.993   1.755   4.646 -0.0315  0.0469  0.5113
10417TIP3    H131194   2.066   1.809   4.615 -0.5794  0.0176 -0.8411
10417TIP3    H231195   1.954   1.718   4.567 -1.6209  0.1840  1.2016
10418TIP3   OH231196   6.251   6.242   0.324  0.2190  0.1324  0.2674
10418TIP3    H131197   6.336   6.229   0.284 -0.1614  0.4592 -0.6622
10418TIP3    H231198   6.252   6.186   0.402  1.2951  0.1831  0.2895
10419TIP3   OH231199   7.745   3.553   6.346 -0.2856  0.5420  0.4019
10419TIP3    H131200   7.829   3.564   6.302 -0.6657 -0.0290 -0.4948
10419TIP3    H231201   7.700   3.486   6.294 -0.3333 -0.9111  2.2974
10420TIP3   OH231202   2.895   0.489   0.585  0.7031  0.4081 -0.7909
10420TIP3    H131203   2.975   0.447   0.554 -1.8765 -4.9784 -0.7589
10420TIP3    H231204   2.833   0.481   0.512 -0.9873  0.7376  0.5596
10421TIP3   OH231205   7.676   2.420   6.361 -0.4727  0.1362 -0.1691
10421TIP3    H131206   7.653   2.456   6.447 -0.3203 -0.0220 -0.0632
10421TIP3    H231207   7.770   2.405   6.364 -0.0758  2.2569 -1.1585
10422TIP3   OH231208   5.975   6.178   5.917  0.6048 -0.1650  0.1149
10422TIP3    H131209   6.006   6.098   5.875  0.0689  0.9089 -2.4937
10422TIP3    H231210   5.882   6.183   5.894 -0.1213 -0.3422  2.8481
10423TIP3   OH231211   6.348   2.786   6.411 -0.0147 -0.3470 -0.2034
10423TIP3    H131212   6.278   2.721   6.405 -1.2846  1.0357 -0.7666
10423TIP3    H231213   6.426   2.740   6.379 -1.2591 -1.0889 -2.2967
10424TIP3   OH231214   5.455   5.598   6.848  0.2304 -0.1450 -0.0267
10424TIP3    H131215   5.392   5.632   6.784 -0.6835  1.2037  1.5481
10424TIP3    H231216   5.540   5.616   6.809 -0.3332 -0.8518 -1.6134
10425TIP3   OH231217   6.414   0.753   5.107  0.0612  0.1389  0.3068
10425TIP3    H131218   6.419   0.793   5.194  0.6701  0.0415  0.3158
10425TIP3    H231219   6.505   0.741   5.081 -0.1186  1.3457 -0.8939
10426TIP3   OH231220   2.790   2.272   5.511  0.2310 -0.1556 -0.2151
10426TIP3    H131221   2.831   2.225   5.583 -0.2736  0.2412  0.3348
10426TIP3    H231222   2.860   2.329   5.476  0.2194  0.3410  0.5587
10427TIP3   OH231223   4.714   5.690   5.277  0.4181  0.0469  0.1295
10427TIP3    H131224   4.807   5.712   5.266  0.1045  1.7818  0.7369
10427TIP3    H231225   4.671   5.735   5.204  0.1850 -1.7111 -0.8214
10428TIP3   OH231226   4.583   2.229   6.580 -0.3860  0.0354  0.3436
10428TIP3    H131227   4.573   2.144   6.622  0.0554 -0.4476 -0.5134
10428TIP3    H231228   4.513   2.283   6.617 -2.1423 -1.3892 -0.8661
10429TIP3   OH231229   7.263   6.121   2.320 -0.1508  0.1462 -0.1127
10429TIP3    H131230   7.236   6.118   2.228  0.1007 -0.2346 -0.1736
10429TIP3    H231231   7.334   6.058   2.326 -0.2725  0.0587  0.3818
10430TIP3   OH231232   6.267   4.870   5.997 -0.2032  0.1218  0.1393
10430TIP3    H131233   6.270   4.775   5.996 -1.5253  0.0732  0.2105
10430TIP3    H231234   6.303   4.897   5.912  1.3818 -0.3847  0.6263
10431TIP3   OH231235   3.578   0.803   0.289  0.8848  0.1416 -1.1934
10431TIP3    H131236   3.495   0.818   0.244  0.6958  0.8004 -0.6310
10431TIP3    H231237   3.560   0.729   0.347  1.1662 -0.8033 -2.2679
10432TIP3   OH231238   2.724   3.348   6.150 -0.1750 -0.0961  0.2823
10432TIP3    H131239   2.783   3.370   6.078 -0.2480  0.1205  0.2877
10432TIP3    H231240   2.652   3.299   6.109  0.5551 -1.3201  0.4368
10433TIP3   OH231241   4.578   3.745   4.859  0.2223 -0.0356 -0.2554
10433TIP3    H131242   4.543   3.770   4.945 -1.3591 -0.3628 -0.8003
10433TIP3    H231243   4.517   3.784   4.796  0.7085 -0.8052 -1.2127
10434TIP3   OH231244   4.120   3.070   5.920 -0.6377  0.4066 -0.4935
10434TIP3    H131245   4.163   3.063   5.835 -0.5835  0.2962 -0.4586
10434TIP3    H231246   4.063   2.993   5.924 -1.0738  0.7244 -0.6702
10435TIP3   OH231247   4.104   3.146   6.835  0.7904 -0.3446 -0.3789
10435TIP3    H131248   4.068   3.066   6.873  1.4749 -0.5614 -0.1841
10435TIP3    H231249   4.097   3.132   6.740 -0.0459 -0.1987 -0.3396
10436TIP3   OH231250   6.100   5.986   5.747 -0.1540  0.8511  0.1460
10436TIP3    H131251   6.191   5.998   5.773  0.7247 -3.3572 -0.5278
10436TIP3    H231252   6.098   6.008   5.654  0.2254  0.8603  0.1425
10437TIP3   OH231253   3.297   2.478   6.360 -0.3851 -0.0111 -0.3981
10437TIP3    H131254   3.268   2.404   6.307  1.4416 -1.2138  0.2411
10437TIP3    H231255   3.321   2.439   6.444  0.3529  1.3488  0.0343
10438TIP3   OH231256   6.989   6.862   0.223 -0.2284 -0.0148  0.1314
10438TIP3    H131257   7.073   6.899   0.250 -0.1648  1.7525 -2.2691
10438TIP3    H231258   6.923   6.917   0.265 -0.1622 -0.2069  0.4842
10439TIP3   OH231259   8.160   7.673   1.710 -0.4962 -0.0967 -0.3998
10439TIP3    H131260   8.177   7.757   1.667  0.6219  0.4930  1.1671
10439TIP3    H231261   8.205   7.609   1.655  0.1425  0.5394 -0.6304
10440TIP3   OH231262   6.924   2.759   6.660  0.1400  0.1318  0.4824
10440TIP3    H131263   6.926   2.819   6.585 -2.9568  0.1743  0.3652
10440TIP3    H231264   7.013   2.762   6.695  0.7108  2.8729 -1.0144
10441TIP3   OH231265   5.606   1.805   6.319 -0.8714  0.2008 -0.2691
10441TIP3    H131266   5.591   1.737   6.253  1.7514 -1.2431  0.5399
10441TIP3    H231267   5.545   1.783   6.390 -1.2075 -0.3459 -0.7296
10442TIP3   OH231268   6.325   3.119   5.832 -0.3254  0.7648 -0.3581
10442TIP3    H131269   6.238   3.083   5.848  0.4513 -1.2531 -0.4329
10442TIP3    H231270   6.310   3.199   5.782 -2.1384  0.5526 -0.1649
10443TIP3   OH231271   8.097   6.164   1.689  0.2130  0.2503  0.1638
10443TIP3    H131272   8.119   6.222   1.762  0.1255  0.5905 -0.0807
10443TIP3    H231273   8.002   6.173   1.678  0.3252  0.7500 -0.4561
10444TIP3   OH231274   6.971   5.574   0.980 -0.2637  0.1697  0.0583
10444TIP3    H131275   6.927   5.621   1.050 -0.2184  0.3332 -0.0239
10444TIP3    H231276   6.975   5.483   1.011 -2.4369 -0.2438 -0.7679
10445TIP3   OH231277   3.017   3.034   2.573  0.2606  0.3748  0.0717
10445TIP3    H131278   2.992   2.948   2.608 -0.0369  0.4393  0.0213
10445TIP3    H231279   3.056   3.079   2.648  0.4262  0.1911  0.0962
10446TIP3   OH231280   2.563   1.217   0.896 -0.0196  0.0010 -0.6458
10446TIP3    H131281   2.607   1.291   0.938 -1.0813 -0.0458  0.5645
10446TIP3    H231282   2.559   1.149   0.963 -0.9054 -0.4143 -1.1085
10447TIP3   OH231283   4.401   1.137   6.284 -0.3425 -0.1474 -0.3374
10447TIP3    H131284   4.487   1.131   6.326 -0.5784  1.0594  0.3287
10447TIP3    H231285   4.395   1.058   6.230  0.8133 -0.6780  0.3052
10448TIP3   OH231286   3.324   1.804   6.006 -0.3267 -1.0017  0.0424
10448TIP3    H131287   3.249   1.855   6.037  0.6854 -0.3177  1.4293
10448TIP3    H231288   3.355   1.758   6.084  0.3220 -1.7499 -0.6547
10449TIP3   OH231289   4.588   3.224   6.330  0.0309  0.0132  0.1493
10449TIP3    H131290   4.530   3.149   6.322  1.8335 -1.1403 -2.9176
10449TIP3    H231291   4.541   3.296   6.290  0.7565 -0.9897 -2.6104
10450TIP3   OH231292   4.097   4.144   5.519  0.4588 -0.0740 -0.0753
10450TIP3    H131293   4.167   4.200   5.485  1.0319 -0.5406  0.3344
10450TIP3    H231294   4.142   4.081   5.575  0.0512 -2.1064 -1.9628
10451TIP3   OH231295   3.594   0.696   5.831  0.1173  0.4088 -0.1022
10451TIP3    H131296   3.667   0.646   5.867 -0.6518  0.1694  1.1378
10451TIP3    H231297   3.583   0.661   5.743  0.6502 -0.4654  0.1715
10452TIP3   OH231298   0.448   5.768   0.232  0.2022 -0.0125  0.1999
10452TIP3    H131299   0.452   5.686   0.281 -0.0353  0.6950  1.4391
10452TIP3    H231300   0.448   5.836   0.299  1.1952  1.0341 -0.8409
10453TIP3   OH231301   6.047   3.553   5.576  0.3348 -0.3509  0.2396
10453TIP3    H131302   5.970   3.608   5.567  2.0131  1.7198 -2.1679
10453TIP3    H231303   6.062   3.516   5.489  1.2119 -1.9176  1.0210
10454TIP3   OH231304   5.034   3.877   6.155  0.1978 -0.2917 -0.0170
10454TIP3    H131305   5.027   3.842   6.065 -0.0574 -0.9192  0.2417
10454TIP3    H231306   4.959   3.936   6.163  0.2294 -0.2211 -0.2221
10455TIP3   OH231307   1.649   3.464   5.634  0.2286 -0.7812  0.0230
10455TIP3    H131308   1.610   3.395   5.687  2.4794 -1.0854  1.3825
10455TIP3    H231309   1.633   3.545   5.684  0.5224 -0.7935  0.1435
10456TIP3   OH231310   7.720   4.888   0.607  0.4487 -0.3790 -0.3709
10456TIP3    H131311   7.813   4.867   0.596  0.6376 -0.1450  0.7454
10456TIP3    H231312   7.682   4.811   0.649  0.2571 -0.2485 -0.3007
10457TIP3   OH231313   4.153   2.247   5.406 -0.1270  0.1926  0.0909
10457TIP3    H131314   4.193   2.219   5.488  0.9881  0.8432 -0.2237
10457TIP3    H231315   4.210   2.212   5.338 -1.4085 -0.9179 -0.4407
10458TIP3   OH231316   5.947   3.038   6.764  0.1686  0.2217  0.6577
10458TIP3    H131317   5.901   2.986   6.697 -0.7001 -0.6346  1.9004
10458TIP3    H231318   6.012   3.087   6.714  0.4053 -1.3761 -0.6829
10459TIP3   OH231319   2.825   1.198   1.304 -0.1310 -0.3714  0.6714
10459TIP3    H131320   2.901   1.254   1.320 -0.1739 -0.1745  0.1961
10459TIP3    H231321   2.846   1.151   1.224  0.1373 -1.4499  1.3629
10460TIP3   OH231322   4.684   3.236   5.858 -0.0137  0.3111 -0.3703
10460TIP3    H131323   4.658   3.328   5.848 -1.3175  0.2026  1.7008
10460TIP3    H231324   4.718   3.230   5.948  1.5771 -0.9016 -1.0194
10461TIP3   OH231325   5.093   2.641   6.083 -0.2687 -0.1796 -0.2425
10461TIP3    H131326   5.015   2.604   6.041 -0.8778  0.7224  0.0686
10461TIP3    H231327   5.160   2.642   6.014 -0.5245 -0.9989 -0.4998
10462TIP3   OH231328   6.562   6.884   0.231  0.1390  0.3798  0.0316
10462TIP3    H131329   6.647   6.907   0.267  0.7890  0.2561 -1.3863
10462TIP3    H231330   6.529   6.965   0.192  0.3626  0.0452 -0.8787
10463TIP3   OH231331   3.993   4.476   5.334 -0.4450  0.1043 -0.6811
10463TIP3    H131332   3.898   4.474   5.345 -0.3705 -0.2703 -0.0493
10463TIP3    H231333   4.016   4.569   5.340 -0.4290 -0.0400  2.3835
10464TIP3   OH231334   2.388   0.077   0.908 -0.1397 -1.2798  0.0348
10464TIP3    H131335   2.309   0.027   0.928 -0.9048  0.1087  0.5556
10464TIP3    H231336   2.398   0.068   0.813 -1.6015 -0.5139 -0.2138
10465TIP3   OH231337   6.165   1.203   5.259  0.2876  0.7479  0.5342
10465TIP3    H131338   6.259   1.211   5.245 -0.0535  1.0925 -1.7559
10465TIP3    H231339   6.126   1.247   5.184 -1.6770 -1.0637  0.4471
10466TIP3   OH231340   0.855   7.851   0.043  0.0481 -0.6066 -0.3408
10466TIP3    H131341   0.941   7.812   0.028  0.0899 -0.8115  0.4387
10466TIP3    H231342   0.806   7.831  -0.037  0.8159 -0.2235 -0.9165
10467TIP3   OH231343   4.835   4.615   5.788  0.0473 -0.0259 -0.4414
10467TIP3    H131344   4.870   4.592   5.874  0.3629 -1.0371 -0.8367
10467TIP3    H231345   4.747   4.576   5.787  0.1601 -0.2724 -0.6933
10468TIP3   OH231346   6.349   5.968   6.022 -0.1566  0.3163 -0.2574
10468TIP3    H131347   6.259   5.935   6.030  0.7322 -1.8597  1.2079
10468TIP3    H231348   6.388   5.913   5.954  1.1224 -1.2868  1.6954
10469TIP3   OH231349   5.324   3.867   4.330  0.1083 -0.2083  0.1927
10469TIP3    H131350   5.292   3.849   4.242 -1.2073  0.7908  0.4484
10469TIP3    H231351   5.245   3.866   4.385  0.5363  1.9116  0.8994
10470TIP3   OH231352   5.619   4.256   6.748 -0.4697  0.2152  0.5273
10470TIP3    H131353   5.635   4.350   6.745  2.1062 -0.2247 -0.8104
10470TIP3    H231354   5.569   4.238   6.668  1.4329  0.0615 -0.6546
10471TIP3   OH231355   4.370   0.201   1.238  0.4329 -0.2946  0.0011
10471TIP3    H131356   4.310   0.235   1.304 -0.4420 -0.1825 -0.8417
10471TIP3    H231357   4.392   0.276   1.184  0.3326 -0.5893 -0.4551
10472TIP3   OH231358   5.549   5.336   6.911 -0.0043  0.8209 -0.5916
10472TIP3    H131359   5.522   5.428   6.909  0.3518  0.9323 -0.3050
10472TIP3    H231360   5.586   5.324   6.998  0.4897  0.5610 -0.8335
10473TIP3   OH231361   3.917   1.405   6.887 -0.2640 -0.1697 -0.6214
10473TIP3    H131362   3.978   1.383   6.816  1.2759 -0.5498  0.7839
10473TIP3    H231363   3.960   1.477   6.934 -1.9598  1.0953 -0.9217
10474TIP3   OH231364   0.076   6.127   2.279  0.2720 -0.1536 -0.1911
10474TIP3    H131365   0.085   6.035   2.306  3.5447 -0.5729 -2.3033
10474TIP3    H231366   0.059   6.122   2.185  0.6465  1.3914 -0.3542
10475TIP3   OH231367   5.873   3.754   5.652 -0.1070 -0.5611  0.0869
10475TIP3    H131368   5.874   3.832   5.597 -0.0054 -2.3866 -2.5592
10475TIP3    H231369   5.786   3.754   5.693 -0.3923  0.4986 -0.5287
10476TIP3   OH231370   5.812   3.798   4.647  0.0081  0.2356  0.1407
10476TIP3    H131371   5.742   3.758   4.596 -0.3173  0.6692  0.2425
10476TIP3    H231372   5.775   3.807   4.735  0.4430 -0.1871  0.3735
10477TIP3   OH231373   6.209   3.435   4.300 -0.5522 -0.2469 -0.3113
10477TIP3    H131374   6.161   3.514   4.326 -1.2438 -0.7485 -0.0720
10477TIP3    H231375   6.162   3.402   4.223  1.1068  0.8733 -1.8606
10478TIP3   OH231376   5.046   2.277   3.847 -0.3296  0.3638  0.6151
10478TIP3    H131377   5.093   2.326   3.914 -0.0765  0.4915  0.3442
10478TIP3    H231378   4.965   2.326   3.834 -0.0148  0.7882  0.2461
10479TIP3   OH231379   7.432   7.362   0.845  0.1165  0.7088  0.4262
10479TIP3    H131380   7.503   7.424   0.863  1.0989 -0.2518 -0.0980
10479TIP3    H231381   7.459   7.317   0.766  1.2991 -3.1374  2.9127
10480TIP3   OH231382   3.226   4.192   4.838  0.6317  0.3900 -0.1773
10480TIP3    H131383   3.257   4.197   4.747  0.2634  1.1056 -0.2658
10480TIP3    H231384   3.178   4.274   4.852 -1.3915 -0.7741 -0.1029
10481TIP3   OH231385   6.693   6.291   5.022 -0.6788  0.1872 -0.0088
10481TIP3    H131386   6.770   6.307   4.967 -1.3426  0.6653 -0.8144
10481TIP3    H231387   6.621   6.331   4.973 -1.6288 -1.2865  0.1775
10482TIP3   OH231388   5.366   3.279   4.972 -0.5126  0.1236 -0.2082
10482TIP3    H131389   5.283   3.286   4.925  0.4556 -1.2285 -2.1927
10482TIP3    H231390   5.411   3.361   4.952 -1.8560  1.4288  1.9250
10483TIP3   OH231391   2.885   0.245   0.722 -0.1635  0.4892 -0.3761
10483TIP3    H131392   2.831   0.197   0.659 -1.7032 -0.8679  1.9105
10483TIP3    H231393   2.860   0.337   0.709  0.9127  0.4536 -2.9977
10484TIP3   OH231394   4.957   4.239   6.087  0.2394  0.7981 -0.0638
10484TIP3    H131395   4.890   4.227   6.019 -0.0160 -0.4224  0.3985
10484TIP3    H231396   5.039   4.221   6.042  0.0453 -0.3219  0.0231
10485TIP3   OH231397   1.107   6.312   0.345 -0.0353 -0.2202 -0.0977
10485TIP3    H131398   1.059   6.285   0.267  0.6483  1.2815 -1.0623
10485TIP3    H231399   1.181   6.363   0.312 -0.3101  1.3232  1.5628
10486TIP3   OH231400   6.600   7.776   1.411 -0.3410 -0.3064 -0.0718
10486TIP3    H131401   6.681   7.728   1.434  0.3496 -0.3755 -2.5554
10486TIP3    H231402   6.630   7.864   1.388 -1.2891  0.4531  1.4772
10487TIP3   OH231403   5.351   1.415   5.675 -0.3512  0.2787 -0.0680
10487TIP3    H131404   5.426   1.469   5.648 -1.4911  1.9385  0.0593
10487TIP3    H231405   5.325   1.451   5.760 -2.8399  1.3044 -1.2472
10488TIP3   OH231406   5.446   2.012   5.843  0.0701 -0.2783  0.1510
10488TIP3    H131407   5.494   2.045   5.767  0.0455  2.2441  1.1603
10488TIP3    H231408   5.513   2.000   5.911 -0.2256 -0.1976  0.4628
10489TIP3   OH231409   5.383   4.026   5.880  0.6848  0.0911  0.8107
10489TIP3    H131410   5.386   4.004   5.973  0.1145  0.5891  0.9481
10489TIP3    H231411   5.296   4.063   5.867  0.5049 -0.6404 -0.0727
10490TIP3   OH231412   5.129   3.434   5.943 -0.2450 -0.4400 -0.0086
10490TIP3    H131413   5.190   3.464   6.011 -0.2611 -2.2333  0.8095
10490TIP3    H231414   5.048   3.417   5.990 -0.1887 -1.9203 -0.4362
10491TIP3   OH231415   1.924   3.576   5.793 -0.4049  0.2325  0.3453
10491TIP3    H131416   1.880   3.576   5.878 -0.4435 -1.2835  0.3469
10491TIP3    H231417   1.857   3.546   5.732 -0.1292  0.4763 -0.0779
10492TIP3   OH231418   6.233   1.582   6.289 -0.5380  0.7475  0.3098
10492TIP3    H131419   6.172   1.545   6.352 -0.8968 -0.0522 -0.5030
10492TIP3    H231420   6.246   1.513   6.224  3.4053 -0.1507  1.9426
10493TIP3   OH231421   5.078   2.863   5.768  0.4669  0.1740 -0.4790
10493TIP3    H131422   5.164   2.822   5.776  0.4683 -0.0032 -1.3519
10493TIP3    H231423   5.042   2.829   5.686 -0.6551 -0.1505  0.1317
10494TIP3   OH231424   5.806   5.436   5.301  0.4252  0.9978  0.1117
10494TIP3    H131425   5.878   5.486   5.340  0.8661  0.5597 -0.1368
10494TIP3    H231426   5.746   5.502   5.268  0.0979  1.3880  1.4359
10495TIP3   OH231427   2.241   1.276   3.705 -0.3437 -0.1484 -0.2113
10495TIP3    H131428   2.330   1.250   3.728 -0.2056  1.6934  1.4373
10495TIP3    H231429   2.188   1.198   3.719  0.6446 -0.5993  1.0200
10496TIP3   OH231430   0.096   5.027   0.062 -0.4706 -0.4012  0.3458
10496TIP3    H131431   0.145   5.038  -0.019 -0.2153 -0.2945  0.5158
10496TIP3    H231432   0.120   4.939   0.092 -1.1303 -0.7299 -0.0769
10497TIP3   OH231433   8.298   4.497   0.517 -0.0083  0.5049 -0.2979
10497TIP3    H131434   8.338   4.478   0.602 -0.3672  0.3531 -0.1621
10497TIP3    H231435   8.320   4.422   0.462 -0.6049  0.1431 -0.0482
10498TIP3   OH231436   7.703   5.129   6.623 -0.1017 -0.1953  0.3379
10498TIP3    H131437   7.719   5.036   6.638  0.5995 -0.2706 -0.7916
10498TIP3    H231438   7.759   5.173   6.687  0.3890 -0.5460  0.1573
10499TIP3   OH231439   3.965   2.248   5.738  0.0144  0.6304  0.6202
10499TIP3    H131440   3.996   2.157   5.738  0.8913  0.9175  0.4498
10499TIP3    H231441   3.908   2.255   5.814  0.1126 -0.0095  0.7543
10500TIP3   OH231442   6.170   2.975   5.135  0.0996 -0.2808 -0.3072
10500TIP3    H131443   6.089   2.924   5.131 -0.0584 -0.1875  1.3789
10500TIP3    H231444   6.237   2.916   5.102 -0.6485 -0.3172 -1.8390
10501TIP3   OH231445   7.129   4.163   5.561 -0.1277 -0.0364  0.1562
10501TIP3    H131446   7.175   4.233   5.515  1.6311 -0.0371  1.8426
10501TIP3    H231447   7.044   4.201   5.584 -0.2304  0.6317 -1.2732
10502TIP3   OH231448   2.652   3.595   5.344  0.5403  0.4738 -0.2870
10502TIP3    H131449   2.598   3.674   5.345  1.1163  0.8978 -1.8837
10502TIP3    H231450   2.742   3.627   5.342  0.7993 -0.2246 -0.1481
10503TIP3   OH231451   2.321   2.893   5.354  0.2060 -0.3116  0.0402
10503TIP3    H131452   2.310   2.869   5.262  1.1520 -0.9221  0.0806
10503TIP3    H231453   2.397   2.952   5.355 -1.3724  1.7878  0.1023
10504TIP3   OH231454   3.159   3.327   6.700  0.1174  0.3137  0.6318
10504TIP3    H131455   3.220   3.319   6.627 -1.2409  0.9882 -0.6020
10504TIP3    H231456   3.087   3.379   6.665 -0.1146  1.4711  2.7487
10505TIP3   OH231457   5.853   1.367   6.815  0.3756 -0.5892 -0.4623
10505TIP3    H131458   5.849   1.457   6.782  1.3895 -0.0124  0.9204
10505TIP3    H231459   5.807   1.370   6.899 -0.0244 -1.4769 -0.6424
10506TIP3   OH231460   6.132   7.235   1.369  0.1934  0.1574 -0.7101
10506TIP3    H131461   6.095   7.314   1.407 -1.5711 -0.7786 -0.4221
10506TIP3    H231462   6.212   7.264   1.326  1.2091  1.5783  2.0100
10507TIP3   OH231463   6.382   7.633   0.182  0.5984 -0.2171  0.5294
10507TIP3    H131464   6.295   7.632   0.142  1.1970 -1.5543 -0.7944
10507TIP3    H231465   6.420   7.716   0.156  0.2929 -0.3023 -0.1948
10508TIP3   OH231466   6.099   5.361   5.438 -0.1606  0.0767  0.1687
10508TIP3    H131467   6.104   5.425   5.367 -2.7354  0.1997  0.0404
10508TIP3    H231468   6.132   5.407   5.515 -0.9670  1.2101 -0.1538
10509TIP3   OH231469   4.364   3.355   4.391  0.0455  0.6018  0.4131
10509TIP3    H131470   4.284   3.382   4.346 -0.1780 -0.6267  0.0549
10509TIP3    H231471   4.416   3.435   4.398 -0.6786  1.1531 -0.4539
10510TIP3   OH231472   0.558   5.999   2.138 -0.2781  0.2012 -0.2877
10510TIP3    H131473   0.517   6.006   2.224  1.8244  0.1809  0.7454
10510TIP3    H231474   0.587   5.908   2.133  2.7212  1.0745  0.4723
10511TIP3   OH231475   4.288   4.629   6.448  0.3280  0.3258 -0.1365
10511TIP3    H131476   4.219   4.571   6.479  0.1031  1.0362  0.6983
10511TIP3    H231477   4.339   4.575   6.387 -1.6655  0.1392 -1.6976
10512TIP3   OH231478   6.704   7.461   1.063 -0.4139 -0.0312 -0.7542
10512TIP3    H131479   6.730   7.462   1.155 -1.9989 -1.2959 -0.2840
10512TIP3    H231480   6.781   7.427   1.017  0.0301 -0.3385  0.2055
10513TIP3   OH231481   6.311   5.948   0.227 -0.0435 -1.0189 -0.4745
10513TIP3    H131482   6.391   5.981   0.186 -0.1355  0.7854  0.7107
10513TIP3    H231483   6.327   5.855   0.241  1.0241 -1.1089 -2.1422
10514TIP3   OH231484   4.957   3.671   6.867  0.1225 -0.0433 -0.4415
10514TIP3    H131485   4.960   3.685   6.962 -1.1522 -1.4866 -0.1577
10514TIP3    H231486   5.012   3.740   6.830  1.9591 -0.4667  1.4547
10515TIP3   OH231487   5.418   3.205   5.456 -0.1965  0.0661 -0.0247
10515TIP3    H131488   5.381   3.243   5.535  0.5984 -0.0813  0.4227
10515TIP3    H231489   5.486   3.145   5.488  0.6728  0.6039 -0.8437
10516TIP3   OH231490   7.464   7.949   0.098  0.2871 -0.0884  0.2367
10516TIP3    H131491   7.534   7.959   0.032 -0.1877 -1.1924 -0.4539
10516TIP3    H231492   7.384   7.942   0.046 -0.3823  1.4339  1.0409
10517TIP3   OH231493   4.862   0.879   1.593 -0.1721 -0.3789 -0.4245
10517TIP3    H131494   4.868   0.791   1.628  0.6207  0.9744  3.0685
10517TIP3    H231495   4.777   0.911   1.624  0.4532  0.7715  0.1546
10518TIP3   OH231496   5.202   3.427   4.817 -0.3665  0.1221  0.2575
10518TIP3    H131497   5.209   3.518   4.786  0.6597  1.0649  3.1087
10518TIP3    H231498   5.121   3.425   4.868 -0.5905 -0.6653 -0.1311
10519TIP3   OH231499   5.288   1.034   6.259  0.0687 -0.7752 -0.2493
10519TIP3    H131500   5.335   1.048   6.341 -1.9366 -0.5680  0.8853
10519TIP3    H231501   5.350   1.061   6.191  2.5353 -2.9344  1.0427
10520TIP3   OH231502   3.807   1.921   5.916 -0.2091  0.1282 -0.1421
10520TIP3    H131503   3.851   1.874   5.845  1.0994 -1.9595  1.9819
10520TIP3    H231504   3.715   1.925   5.889 -0.1150 -2.5066 -1.0263
10521TIP3   OH231505   7.983   1.584   5.995 -0.6211 -0.3363  0.5762
10521TIP3    H131506   7.977   1.653   5.929  1.2239  2.3722  3.0949
10521TIP3    H231507   8.031   1.513   5.951  1.6826  1.8946 -0.6351
10522TIP3   OH231508   5.344   2.247   6.599  0.1737 -0.0744 -0.1510
10522TIP3    H131509   5.249   2.251   6.595  0.0731  1.0830  2.4541
10522TIP3    H231510   5.363   2.156   6.621 -0.4257  0.0563  0.9440
10523TIP3   OH231511   5.377   2.634   6.783  0.1243  0.0886 -0.0340
10523TIP3    H131512   5.306   2.571   6.797  0.4770 -0.5849 -1.2580
10523TIP3    H231513   5.407   2.617   6.694  0.0492  2.1687 -0.4703
10524TIP3   OH231514   7.169   2.422   6.043 -0.2541 -0.0216 -0.1422
10524TIP3    H131515   7.187   2.464   5.959 -0.1756  2.0583  0.8862
10524TIP3    H231516   7.249   2.435   6.094 -0.5576 -0.6319  0.4998
10525TIP3   OH231517   5.497   1.206   6.764  0.5239 -0.6652 -0.3790
10525TIP3    H131518   5.568   1.250   6.717  1.9345 -1.6429  0.8036
10525TIP3    H231519   5.517   1.219   6.856 -0.7026 -1.1787 -0.0311
10526TIP3   OH231520   5.420   3.488   6.087 -0.3727  0.2724  0.1304
10526TIP3    H131521   5.391   3.538   6.164  0.0771 -1.9103  1.7749
10526TIP3    H231522   5.515   3.496   6.088 -0.2572 -1.0007  0.7142
10527TIP3   OH231523   2.369   0.396   0.434  0.4371  0.0719 -0.1034
10527TIP3    H131524   2.292   0.378   0.488 -0.7766  0.5385 -1.6341
10527TIP3    H231525   2.366   0.329   0.365  2.0331 -0.5980  0.4743
10528TIP3   OH231526   8.187   6.242   1.025  0.1327  0.1200 -0.6768
10528TIP3    H131527   8.123   6.181   1.060 -0.6583 -0.3997 -3.0001
10528TIP3    H231528   8.182   6.232   0.930  1.0373  2.7174 -1.0478
10529TIP3   OH231529   7.591   1.466   5.809 -0.3952 -0.5767 -0.0636
10529TIP3    H131530   7.586   1.371   5.821 -1.5950 -0.5562 -0.3214
10529TIP3    H231531   7.620   1.499   5.894  0.0456 -1.1794  0.0205
10530TIP3   OH231532   7.087   6.610   0.533 -0.0326 -0.1279 -0.3876
10530TIP3    H131533   7.015   6.601   0.471 -0.3703 -1.0558  0.1176
10530TIP3    H231534   7.100   6.521   0.567 -1.3951  0.7258  2.5545
10531TIP3   OH231535   5.586   3.103   6.684 -0.2649 -0.4907  0.0156
10531TIP3    H131536   5.677   3.074   6.676 -0.3521 -0.6337 -0.5084
10531TIP3    H231537   5.542   3.065   6.608 -0.4226  0.8558 -0.5917
10532TIP3   OH231538   3.385   1.874   0.395  0.7169 -0.4066 -0.6966
10532TIP3    H131539   3.397   1.818   0.472 -0.8754 -1.7671 -1.4232
10532TIP3    H231540   3.425   1.958   0.421  0.5952 -0.9676  1.4543
10533TIP3   OH231541   8.358   6.442   0.379  0.1511 -0.4050  0.2784
10533TIP3    H131542   8.264   6.448   0.362  0.4918  0.1245 -1.6156
10533TIP3    H231543   8.379   6.521   0.429 -0.3848 -0.4349  0.5480
10534TIP3   OH231544   2.927   0.939   6.795 -0.0189 -0.2372  0.0248
10534TIP3    H131545   2.837   0.956   6.770  0.1009 -1.0744 -1.0244
10534TIP3    H231546   2.921   0.884   6.874 -0.4592 -2.2424 -1.3739
10535TIP3   OH231547   0.480   6.932   1.968  0.5930  0.0472 -0.3411
10535TIP3    H131548   0.428   6.931   1.887  0.3772  0.1994 -0.2063
10535TIP3    H231549   0.417   6.911   2.037  0.2640  2.2128  0.0587
10536TIP3   OH231550   5.291   4.540   6.378  0.1525 -0.5635 -0.2008
10536TIP3    H131551   5.312   4.555   6.286  0.6947  2.4838  0.3558
10536TIP3    H231552   5.345   4.465   6.403  1.5832 -0.1205 -1.8410
10537TIP3   OH231553   3.379   3.450   4.831 -0.2070 -0.4535  0.1609
10537TIP3    H131554   3.437   3.492   4.768  0.2393 -2.0954 -0.5701
10537TIP3    H231555   3.434   3.438   4.909  0.0905 -0.8932 -0.1069
10538TIP3   OH231556   3.646   3.300   5.686  0.7286  0.3729 -0.1297
10538TIP3    H131557   3.578   3.259   5.632  1.8619 -0.2443 -1.1195
10538TIP3    H231558   3.714   3.326   5.623  1.6166  0.5647  0.8962
10539TIP3   OH231559   1.038   2.484   6.849 -0.0082  0.0462  0.3779
10539TIP3    H131560   0.993   2.419   6.795 -1.0960  1.5639 -0.5924
10539TIP3    H231561   1.049   2.442   6.934 -0.4078 -1.5069 -0.3298
10540TIP3   OH231562   6.336   5.627   6.384  0.2462  0.4532 -0.2250
10540TIP3    H131563   6.311   5.627   6.292 -1.7794 -2.1562  0.2515
10540TIP3    H231564   6.256   5.652   6.430  0.5606 -0.6610  0.9482
10541TIP3   OH231565   6.310   1.800   6.142 -0.1212 -0.3073 -0.5065
10541TIP3    H131566   6.290   1.729   6.204  0.4259 -0.6851 -0.7645
10541TIP3    H231567   6.403   1.791   6.124 -0.4243 -0.6472 -1.9518
10542TIP3   OH231568   5.649   2.844   6.170  0.2181  0.3930  0.2505
10542TIP3    H131569   5.721   2.902   6.196  1.2881 -0.3570 -0.9875
10542TIP3    H231570   5.659   2.766   6.226  1.0475 -0.1845 -0.6950
10543TIP3   OH231571   6.013   4.092   4.936  0.3710  0.5757 -0.0866
10543TIP3    H131572   6.054   4.030   4.996  0.9102  0.5251 -0.5004
10543TIP3    H231573   6.005   4.043   4.854 -1.9763  0.0528  0.4246
10544TIP3   OH231574   4.319   5.149   6.502 -0.1059  0.5869 -0.1879
10544TIP3    H131575   4.255   5.183   6.564 -0.0032 -1.4395  1.0823
10544TIP3    H231576   4.271   5.084   6.451  0.8371 -0.7210  0.5639
10545TIP3   OH231577   7.033   3.507   6.054  0.5013  0.5162 -0.3022
10545TIP3    H131578   7.128   3.502   6.043  0.5489  0.7469 -0.0344
10545TIP3    H231579   7.022   3.563   6.132  0.1418  0.7106 -0.4931
10546TIP3   OH231580   6.235   2.540   6.412  0.0372 -0.2243 -0.3650
10546TIP3    H131581   6.252   2.517   6.321  1.3756  0.6967 -0.3508
10546TIP3    H231582   6.300   2.491   6.462  0.7493  0.9991 -0.0801
10547TIP3   OH231583   7.055   4.043   4.135 -0.2416  0.2485  0.3348
10547TIP3    H131584   7.082   4.134   4.122  1.1408  0.0476  1.6817
10547TIP3    H231585   7.118   3.992   4.083 -0.1959 -0.0218  0.6553
10548TIP3   OH231586   7.005   6.598   0.168  0.4028  0.1840 -0.4892
10548TIP3    H131587   7.096   6.571   0.168  0.0559 -0.9887 -0.6321
10548TIP3    H231588   7.008   6.693   0.181  1.6649  0.2638 -1.3785
10549TIP3   OH231589   2.757   0.141   0.045  0.0412 -0.1097  0.3107
10549TIP3    H131590   2.743   0.180  -0.041 -2.2604 -1.6621 -0.0656
10549TIP3    H231591   2.770   0.048   0.026 -0.0741 -0.3904  1.6249
10550TIP3   OH231592   6.544   1.193   6.363 -0.3857  0.5483  0.1467
10550TIP3    H131593   6.549   1.102   6.335  2.7813  1.2881 -1.9154
10550TIP3    H231594   6.466   1.227   6.320 -1.6449 -1.1725  1.0068
10551TIP3   OH231595   6.366   1.894   6.468  0.1557 -0.2202 -0.0463
10551TIP3    H131596   6.333   1.956   6.534 -0.8536  0.2470 -0.9688
10551TIP3    H231597   6.289   1.843   6.443  0.7102 -0.9465 -0.2686
10552TIP3   OH231598   8.153   1.896   6.677  0.0395  0.6338 -0.3375
10552TIP3    H131599   8.129   1.825   6.619 -0.4693  0.1395  0.4739
10552TIP3    H231600   8.224   1.942   6.631  0.8153 -0.7800 -0.5702
10553TIP3   OH231601   6.456   0.524   5.944  0.0521  0.1130  0.3451
10553TIP3    H131602   6.430   0.540   6.035 -0.4505 -1.2372  0.4548
10553TIP3    H231603   6.373   0.526   5.895 -0.3017 -3.8090  0.6316
10554TIP3   OH231604   5.165   4.965   5.224 -0.0151 -0.0379  0.2189
10554TIP3    H131605   5.092   5.001   5.275 -0.7015  0.4062 -1.0593
10554TIP3    H231606   5.173   4.875   5.254  0.6379  0.6572  2.2668
10555TIP3   OH231607   4.332   1.866   5.505  0.1596  0.2760 -0.3348
10555TIP3    H131608   4.256   1.818   5.474 -0.2506  0.4690  0.3537
10555TIP3    H231609   4.367   1.811   5.576 -0.7121  1.3204  0.9120
10556TIP3   OH231610   6.647   3.147   5.756  0.4745 -0.0613 -0.4341
10556TIP3    H131611   6.665   3.212   5.824 -1.2904  0.7804 -0.7306
10556TIP3    H231612   6.569   3.101   5.788  1.8530 -2.2194 -0.1035
10557TIP3   OH231613   8.398   7.049   2.596 -0.4167 -0.2760 -0.1563
10557TIP3    H131614   8.420   7.034   2.688 -0.3292  0.5124 -0.0509
10557TIP3    H231615   8.467   7.107   2.563 -0.7647 -0.0953 -0.5740
10558TIP3   OH231616   7.815   2.115   6.192 -0.1087  0.2390 -0.2327
10558TIP3    H131617   7.839   2.134   6.282  0.8220  1.8949 -0.8073
10558TIP3    H231618   7.729   2.075   6.197  0.2995 -0.4408  1.4448
10559TIP3   OH231619   7.824   5.926   0.326 -0.1654  0.3041  0.9001
10559TIP3    H131620   7.868   5.951   0.245  0.0556  1.6117  1.4177
10559TIP3    H231621   7.888   5.873   0.373 -0.1607 -0.1478  0.3949
10560TIP3   OH231622   5.713   7.712   0.805 -0.0721 -0.0489  0.2723
10560TIP3    H131623   5.646   7.720   0.873  2.3766  2.7984  2.4472
10560TIP3    H231624   5.790   7.679   0.850  0.6052 -1.4666 -1.8401
10561TIP3   OH231625   3.541   3.858   6.227 -0.8568 -0.4689 -0.4847
10561TIP3    H131626   3.608   3.921   6.256 -1.1519  0.1432 -1.1066
10561TIP3    H231627   3.591   3.784   6.192 -0.4619  0.8383 -2.8015
10562TIP3   OH231628   5.027   3.556   4.213 -0.4419 -0.0092  0.2910
10562TIP3    H131629   4.989   3.471   4.190  1.2867 -0.8442  0.4401
10562TIP3    H231630   5.081   3.537   4.290 -1.4001  1.5648  1.3650
10563TIP3   OH231631   7.129   3.226   4.821  0.4468  0.7975  0.7202
10563TIP3    H131632   7.065   3.156   4.831 -0.0822  1.1637 -0.0833
10563TIP3    H231633   7.133   3.268   4.907 -0.6976  1.0359  0.6627
10564TIP3   OH231634   3.165   1.983   6.192 -0.0343 -0.3690  0.0863
10564TIP3    H131635   3.074   1.957   6.180  0.1124 -0.7279 -0.2604
10564TIP3    H231636   3.192   1.940   6.273  0.1280 -1.0843 -0.3456
10565TIP3   OH231637   8.394   5.120   6.684  0.2368 -0.1331  0.1391
10565TIP3    H131638   8.381   5.087   6.595 -0.6043  0.0711  0.1799
10565TIP3    H231639   8.331   5.072   6.737 -0.3909  0.9091  0.3457
10566TIP3   OH231640   6.823   6.003   1.104 -0.0774  0.7535  0.9518
10566TIP3    H131641   6.758   6.011   1.034  1.0526 -0.4232 -0.2537
10566TIP3    H231642   6.794   5.929   1.157 -0.9118  1.6203  1.7249
10567TIP3   OH231643   6.179   6.119   0.592 -0.3061 -0.1925 -0.4836
10567TIP3    H131644   6.211   6.092   0.678  0.2550  2.1894  0.0722
10567TIP3    H231645   6.084   6.124   0.602 -0.1679  0.9566  0.2498
10568TIP3   OH231646   6.125   4.047   5.768  0.1431  0.4907  0.4675
10568TIP3    H131647   6.141   4.118   5.707  2.9956 -0.4471  0.0460
10568TIP3    H231648   6.198   4.052   5.830 -0.4418 -1.1076  1.3082
10569TIP3   OH231649   6.260   3.555   6.640  0.0943 -0.1770 -0.1033
10569TIP3    H131650   6.305   3.479   6.602 -0.0371 -0.1594 -0.2997
10569TIP3    H231651   6.170   3.525   6.653 -0.0856  0.1068 -0.6677
10570TIP3   OH231652   5.979   6.590   1.717 -0.0409 -0.0327 -0.4777
10570TIP3    H131653   6.072   6.577   1.696  0.1070 -1.1915  0.8562
10570TIP3    H231654   5.944   6.636   1.641  1.9131  1.5776 -0.4526
10571TIP3   OH231655   5.554   1.593   6.849  0.4058 -0.3306  0.3378
10571TIP3    H131656   5.573   1.667   6.791  0.6626 -1.0219 -0.4815
10571TIP3    H231657   5.468   1.562   6.819  0.4538 -0.5704  0.4535
10572TIP3   OH231658   7.490   2.424   6.667 -0.4114  0.3924 -0.0414
10572TIP3    H131659   7.450   2.391   6.748 -1.1384  0.6867 -0.2779
10572TIP3    H231660   7.506   2.345   6.615  1.1932  0.0828  0.8836
10573TIP3   OH231661   5.547   4.556   4.959 -0.3767  0.4616 -0.3699
10573TIP3    H131662   5.466   4.589   4.998 -0.7084 -0.9863  0.2083
10573TIP3    H231663   5.611   4.625   4.975 -1.1912  1.0826  0.2633
10574TIP3   OH231664   6.091   5.235   6.474 -0.1314 -0.1956  0.2158
10574TIP3    H131665   6.136   5.236   6.389  1.1928 -1.9559  0.8740
10574TIP3    H231666   6.152   5.191   6.533 -0.4330  2.2657  2.4436
10575TIP3   OH231667   7.972   6.419   1.356  0.0679  0.0104  0.4376
10575TIP3    H131668   8.046   6.381   1.402  0.5535 -0.9794 -1.1329
10575TIP3    H231669   7.996   6.511   1.343  1.0025 -0.2992 -0.0292
10576TIP3   OH231670   2.001   6.650   1.705 -0.0348  0.6451 -0.1705
10576TIP3    H131671   1.985   6.691   1.620 -0.3401 -0.3524 -0.6007
10576TIP3    H231672   1.914   6.638   1.742  0.1878  2.7809  1.1111
10577TIP3   OH231673   6.756   7.606   0.662 -0.1598  0.2321  0.7748
10577TIP3    H131674   6.724   7.669   0.726 -1.8200 -0.9257  1.1105
10577TIP3    H231675   6.686   7.541   0.654  1.4695 -1.5341  0.3611
10578TIP3   OH231676   7.297   7.865   0.354 -0.3032  0.5631  0.1310
10578TIP3    H131677   7.229   7.895   0.295 -0.0625  0.0955 -0.3906
10578TIP3    H231678   7.345   7.799   0.304  0.9010  1.3187  0.2730
10579TIP3   OH231679   6.423   3.868   5.487  0.1179  0.0455 -0.1120
10579TIP3    H131680   6.480   3.805   5.443  1.5379 -0.2695  2.1024
10579TIP3    H231681   6.462   3.880   5.574 -3.0164  0.0568  1.3765
10580TIP3   OH231682   3.411   0.557   1.353  0.4151 -0.0892 -0.5369
10580TIP3    H131683   3.407   0.503   1.431  1.0437  1.9273  0.9244
10580TIP3    H231684   3.349   0.516   1.292 -0.9887 -0.9589  1.4419
10581TIP3   OH231685   5.807   4.043   4.451 -0.0481 -0.2167  0.0622
10581TIP3    H131686   5.723   4.064   4.411  0.6016  0.5745 -0.9316
10581TIP3    H231687   5.785   4.002   4.534 -1.4559 -1.8336 -1.0653
10582TIP3   OH231688   3.500   5.611   6.738 -0.3355  0.2649 -0.3837
10582TIP3    H131689   3.493   5.516   6.733  0.4609  0.1912 -0.2309
10582TIP3    H231690   3.491   5.631   6.832 -1.1964  0.4034 -0.4934
10583TIP3   OH231691   4.454   1.092   5.341 -0.3381 -0.1351  0.5182
10583TIP3    H131692   4.506   1.171   5.328 -1.4096  0.2966 -1.4474
10583TIP3    H231693   4.373   1.123   5.381 -0.8242 -0.1903 -0.4023
10584TIP3   OH231694   4.685   0.894   6.123  0.1400 -0.4222 -0.1866
10584TIP3    H131695   4.719   0.959   6.184 -0.3913 -0.7701  0.4830
10584TIP3    H231696   4.701   0.933   6.036 -0.7162  0.8881  0.2168
10585TIP3   OH231697   5.865   2.640   4.383  0.1915  0.0029  0.1605
10585TIP3    H131698   5.819   2.722   4.402  1.6840  1.1424 -0.9725
10585TIP3    H231699   5.868   2.636   4.287  1.4137 -0.6101  0.2096
10586TIP3   OH231700   4.177   2.091   6.446 -0.0416  0.1207 -0.2550
10586TIP3    H131701   4.116   2.063   6.378 -0.1480  1.0689 -0.5561
10586TIP3    H231702   4.132   2.162   6.492  0.8479  0.8879 -0.5362
10587TIP3   OH231703   7.197   4.775   0.638  0.3818  0.1858 -0.5382
10587TIP3    H131704   7.102   4.776   0.652  0.0422  3.1873 -2.4805
10587TIP3    H231705   7.214   4.699   0.583 -1.1344  0.4346 -1.3713
10588TIP3   OH231706   4.700   2.596   6.214  0.1386  0.6892 -0.2060
10588TIP3    H131707   4.638   2.546   6.267  1.8227  1.2669  2.3625
10588TIP3    H231708   4.646   2.661   6.169 -1.3176  0.1447  0.7276
10589TIP3   OH231709   0.199   4.982   0.453 -0.0042 -0.3180  0.0740
10589TIP3    H131710   0.271   4.964   0.393 -0.6265  0.3548 -0.8808
10589TIP3    H231711   0.142   5.042   0.405 -1.2087 -0.8533  0.8174
10590TIP3   OH231712   4.345   4.095   6.450 -0.3141  0.0742 -0.4624
10590TIP3    H131713   4.273   4.090   6.513  0.6937  0.1845  0.7213
10590TIP3    H231714   4.352   4.006   6.415 -0.3350 -0.1970  0.2078
10591TIP3   OH231715   6.287   3.194   4.054  0.5427 -0.1283 -0.2216
10591TIP3    H131716   6.363   3.162   4.005  0.1840 -1.7252  0.2603
10591TIP3    H231717   6.305   3.171   4.145  0.2225  0.9521  0.1239
10592TIP3   OH231718   7.065   5.179   4.802  0.5747  0.6621 -0.2205
10592TIP3    H131719   7.066   5.167   4.707  0.6251  0.1023 -0.1544
10592TIP3    H231720   7.091   5.270   4.815  2.0574  0.3320 -0.6881
10593TIP3   OH231721   7.724   7.029   0.638  0.3076 -0.6320 -0.7227
10593TIP3    H131722   7.685   7.043   0.724 -2.0552  0.5715 -1.9391
10593TIP3    H231723   7.695   6.942   0.612  1.4098 -1.1899 -0.1305
10594TIP3   OH231724  -0.007   1.116   1.628 -0.7206 -0.3243 -0.5122
10594TIP3    H131725   0.071   1.107   1.683 -1.3693 -0.0420  0.4628
10594TIP3    H231726   0.009   1.056   1.555 -0.5523 -1.9301  0.8093
10595TIP3   OH231727   5.191   2.252   1.738 -0.7201  0.0094 -0.6817
10595TIP3    H131728   5.152   2.168   1.762  0.7545 -0.7986 -1.0428
10595TIP3    H231729   5.131   2.288   1.673 -1.4298 -0.7067 -0.4402
10596TIP3   OH231730   2.925   4.835   1.330  0.3749 -0.6252 -0.3821
10596TIP3    H131731   2.880   4.808   1.250 -0.8304  0.3169 -0.0358
10596TIP3    H231732   2.972   4.756   1.358 -1.9739 -2.0047 -0.1487
10597TIP3   OH231733   8.401   7.202   0.323 -0.0011 -0.0513 -0.1127
10597TIP3    H131734   8.406   7.179   0.230  0.5947 -0.8195  0.0991
10597TIP3    H231735   8.493   7.213   0.349 -0.0128 -2.3033  0.9763
10598TIP3   OH231736   0.079   3.872   6.942  0.0889  0.1393  0.0131
10598TIP3    H131737  -0.003   3.852   6.895  0.5463 -1.3316 -0.1809
10598TIP3    H231738   0.148   3.855   6.878  0.4961  3.3657 -0.4905
10599TIP3   OH231739   5.382   3.360   5.727  0.6003  0.8180 -0.3224
10599TIP3    H131740   5.365   3.417   5.802 -0.0287 -0.5477  0.5997
10599TIP3    H231741   5.433   3.288   5.763  2.1625  1.2245 -1.6596
10600TIP3   OH231742   0.499   4.479   6.358 -0.3872 -0.5907 -0.4012
10600TIP3    H131743   0.465   4.515   6.276 -0.5013  0.7991  0.2399
10600TIP3    H231744   0.593   4.469   6.344 -0.5247 -1.0954 -0.9649
10601TIP3   OH231745   5.208   2.576   3.732  0.0235 -0.1604  0.0273
10601TIP3    H131746   5.185   2.567   3.825 -0.4604  0.6992 -0.0025
10601TIP3    H231747   5.303   2.585   3.732  0.0690 -0.6179  0.4024
10602TIP3   OH231748   4.609   5.388   5.862 -0.3805  0.0472 -0.1337
10602TIP3    H131749   4.702   5.407   5.853 -0.3611  0.2378  0.4443
10602TIP3    H231750   4.573   5.402   5.774  0.3957 -1.5057 -0.7170
10603TIP3   OH231751   0.108   4.954   5.676  0.3792 -0.0145 -0.1608
10603TIP3    H131752   0.059   4.928   5.754 -0.6041  0.7921 -0.4925
10603TIP3    H231753   0.168   5.022   5.707  0.0055  0.2880 -0.0886
10604TIP3   OH231754   6.348   4.061   5.933  0.2344  0.0069  0.5989
10604TIP3    H131755   6.423   4.007   5.908 -1.4068 -2.0483 -0.1215
10604TIP3    H231756   6.332   4.037   6.025 -0.6715 -1.0034  0.1945
10605TIP3   OH231757   3.482   0.212   0.563  0.2051 -0.1879  0.3646
10605TIP3    H131758   3.503   0.241   0.652 -1.7546 -0.8499  1.0553
10605TIP3    H231759   3.423   0.280   0.529  1.7993  0.6267 -0.8381
10606TIP3   OH231760   0.480   3.030   5.828 -0.4426  0.3278  0.0807
10606TIP3    H131761   0.397   3.016   5.874  0.6415 -1.2886  1.6317
10606TIP3    H231762   0.502   2.944   5.792  0.0777  0.9705 -1.1612
10607TIP3   OH231763   7.121   3.170   5.806  0.7067 -0.5845 -0.4495
10607TIP3    H131764   7.091   3.122   5.729  0.1633 -2.3560  0.8278
10607TIP3    H231765   7.213   3.145   5.815  0.5729 -0.9642 -0.1084
10608TIP3   OH231766   7.514   2.873   6.115  0.3052 -0.4619 -0.3238
10608TIP3    H131767   7.474   2.956   6.087 -0.7013 -1.3252 -1.4789
10608TIP3    H231768   7.486   2.864   6.206  0.1076  0.2877 -0.3033
10609TIP3   OH231769   0.471   2.566   6.026  0.4688  0.1530 -0.4696
10609TIP3    H131770   0.551   2.588   5.977  0.8419 -0.5412 -0.1860
10609TIP3    H231771   0.456   2.641   6.083  0.1381  0.8947 -1.4989
10610TIP3   OH231772   7.766   4.081   4.892  0.7057 -0.5185 -0.0249
10610TIP3    H131773   7.740   4.054   4.980  1.8779 -0.8510  0.2199
10610TIP3    H231774   7.812   4.163   4.904  0.9535 -0.6128 -0.3180
10611TIP3   OH231775   7.090   2.688   4.669  0.0056  0.2586  0.2782
10611TIP3    H131776   7.167   2.741   4.688  1.3278 -1.6128  0.1689
10611TIP3    H231777   7.067   2.649   4.753  0.7132 -1.2026 -0.1986
10612TIP3   OH231778   4.771   5.437   6.877 -0.9215 -0.3410 -0.0689
10612TIP3    H131779   4.840   5.402   6.821 -0.8724 -1.6613  0.7863
10612TIP3    H231780   4.803   5.425   6.966 -2.0012 -0.4387  0.3224
10613TIP3   OH231781   2.016   6.497   1.066 -0.4452  0.0665  0.1694
10613TIP3    H131782   2.076   6.425   1.083 -1.7075 -0.7292  1.3811
10613TIP3    H231783   1.969   6.509   1.149 -1.3713  1.2053 -0.5090
10614TIP3   OH231784   7.335   1.349   5.921 -0.3634  0.0900  0.0871
10614TIP3    H131785   7.372   1.433   5.949  1.6023 -0.7500  0.0313
10614TIP3    H231786   7.265   1.332   5.984  0.6960  0.6977  1.4454
10615TIP3   OH231787   4.611   1.194   0.181  0.7041  0.0300 -0.3080
10615TIP3    H131788   4.625   1.289   0.180  0.8282  0.0037 -1.5220
10615TIP3    H231789   4.565   1.176   0.100 -3.4956 -0.3669  2.0473
10616TIP3   OH231790   6.029   4.982   6.827  0.2230 -0.0363  0.4447
10616TIP3    H131791   6.090   5.020   6.765  0.0058 -1.2133 -0.5006
10616TIP3    H231792   5.954   4.955   6.774 -1.4587  2.0599  1.6788
10617TIP3   OH231793   7.585   2.569   4.392 -0.1045  0.5675 -0.0276
10617TIP3    H131794   7.678   2.588   4.405  0.2483 -0.6661 -0.6141
10617TIP3    H231795   7.570   2.486   4.438 -0.7101  0.3250 -0.6423
10618TIP3   OH231796   7.532   0.517   4.838 -0.1985  0.1885  0.1753
10618TIP3    H131797   7.437   0.523   4.849 -0.2267 -1.0887  0.6043
10618TIP3    H231798   7.547   0.549   4.748 -0.9979  0.5937  0.1756
10619TIP3   OH231799   5.983   4.653   5.546  0.3506 -0.1372  0.0230
10619TIP3    H131800   6.022   4.738   5.567 -0.2586  0.3074 -0.6286
10619TIP3    H231801   5.903   4.674   5.498 -0.0927 -1.0664  0.3263
10620TIP3   OH231802   5.651   3.011   5.501 -0.3867  0.3250 -0.1301
10620TIP3    H131803   5.637   3.067   5.577 -0.1304 -0.0660  0.2068
10620TIP3    H231804   5.740   2.977   5.513  0.3095  1.5887 -1.4592
10621TIP3   OH231805   7.077   1.092   0.355 -0.4333 -0.0013 -0.0778
10621TIP3    H131806   7.116   1.105   0.269  1.0884 -0.0827  0.5763
10621TIP3    H231807   7.043   1.003   0.353 -0.8972  0.1921 -0.7812
10622TIP3   OH231808   8.225   4.739   6.267  0.4680  0.1336 -0.0191
10622TIP3    H131809   8.188   4.662   6.310  1.9626 -1.0947 -0.9130
10622TIP3    H231810   8.317   4.717   6.251  0.3654  1.1809 -2.3388
10623TIP3   OH231811   7.100   1.951   5.242  0.7338  0.0581  0.1281
10623TIP3    H131812   7.178   2.007   5.232 -0.2649  1.6035  0.8480
10623TIP3    H231813   7.104   1.921   5.333  1.3798 -1.2469 -0.3164
10624TIP3   OH231814   6.770   4.283   6.527  0.2199 -0.2367 -0.0693
10624TIP3    H131815   6.682   4.320   6.525  0.6418  0.7835  0.1105
10624TIP3    H231816   6.786   4.255   6.437 -0.1114 -0.0005 -0.2016
10625TIP3   OH231817   7.768   4.221   6.525  0.6927  0.6535 -0.0991
10625TIP3    H131818   7.858   4.246   6.543  0.5781  2.1556 -1.3958
10625TIP3    H231819   7.717   4.258   6.597  1.3758 -2.4724  2.0510
10626TIP3   OH231820   0.538   5.226   6.332 -0.4475  0.1914  0.1415
10626TIP3    H131821   0.596   5.278   6.277 -1.2294  1.1226  0.1763
10626TIP3    H231822   0.480   5.181   6.271  0.1027 -0.5051  0.1203
10627TIP3   OH231823   8.493   0.714   5.805 -0.1434  0.1848 -0.0862
10627TIP3    H131824   8.440   0.635   5.794  0.7635 -1.0224  3.5357
10627TIP3    H231825   8.558   0.710   5.735 -0.9241 -1.6102 -0.7239
10628TIP3   OH231826   6.332   1.313   3.388  0.3659  0.0151 -0.1418
10628TIP3    H131827   6.252   1.285   3.344  1.3285 -1.4984 -0.9844
10628TIP3    H231828   6.336   1.258   3.467  0.1914  0.6272  0.3008
10629TIP3   OH231829   1.093   6.008   6.120  0.3265  0.2542  0.1462
10629TIP3    H131830   1.120   6.034   6.209 -1.4291 -0.8678  1.0284
10629TIP3    H231831   1.057   6.088   6.082 -0.8091  0.2498  1.1964
10630TIP3   OH231832   5.091   1.341   0.195  0.2012  0.2194 -0.7517
10630TIP3    H131833   5.034   1.264   0.201 -0.7647  1.0628  1.3383
10630TIP3    H231834   5.086   1.382   0.281  0.5628  2.7295 -1.8720
10631TIP3   OH231835   7.953   2.356   4.969  0.3001 -0.3045  0.3653
10631TIP3    H131836   7.939   2.270   5.010 -0.5953 -0.3683 -0.0514
10631TIP3    H231837   7.882   2.363   4.906  0.0064  1.0109  0.8389
10632TIP3   OH231838   6.257   3.793   5.271 -0.2013 -0.7853 -0.2429
10632TIP3    H131839   6.287   3.703   5.283  1.4654 -0.2887 -0.6305
10632TIP3    H231840   6.296   3.841   5.344 -2.6022 -0.6972  1.0447
10633TIP3   OH231841   6.205   2.485   4.704  0.2339  0.5585  0.2211
10633TIP3    H131842   6.184   2.498   4.611 -1.7713 -0.7922  0.4486
10633TIP3    H231843   6.218   2.574   4.737  1.5353  1.0242 -1.4610
10634TIP3   OH231844   8.060   7.034   0.664  0.1686 -0.2232 -0.0643
10634TIP3    H131845   8.067   7.013   0.571 -1.5291  0.9047 -0.4695
10634TIP3    H231846   8.026   7.124   0.666 -1.8432 -0.9831  1.6333
10635TIP3   OH231847   6.711   5.416   6.214  0.8001 -0.2536 -0.5892
10635TIP3    H131848   6.748   5.492   6.258 -0.7866  0.6234 -0.7399
10635TIP3    H231849   6.638   5.390   6.270  0.7981 -1.1332 -0.9972
10636TIP3   OH231850   5.829   3.212   5.120 -0.2055 -0.3851  0.1414
10636TIP3    H131851   5.879   3.293   5.122 -0.7295 -0.0726  1.0411
10636TIP3    H231852   5.894   3.143   5.134  0.5940 -0.3304 -2.8842
10637TIP3   OH231853   4.959   3.653   5.457  0.4561 -0.0097  0.1262
10637TIP3    H131854   5.027   3.690   5.400 -0.9699 -1.6186 -2.7327
10637TIP3    H231855   4.999   3.574   5.493  0.2367 -0.7848 -1.2966
10638TIP3   OH231856   6.892   3.877   5.209 -0.3249  0.8739  0.2130
10638TIP3    H131857   6.823   3.866   5.145  1.0174 -0.7312 -0.9801
10638TIP3    H231858   6.934   3.960   5.186  0.6055 -0.0381 -1.4557
10639TIP3   OH231859   5.637   5.135   4.973  0.0728  0.3995 -0.4444
10639TIP3    H131860   5.621   5.139   5.068  1.1424 -0.6675 -0.2057
10639TIP3    H231861   5.607   5.220   4.940  0.3298  1.0459  0.9427
10640TIP3   OH231862   7.189   0.406   6.647 -0.8231  0.1274 -0.3670
10640TIP3    H131863   7.173   0.492   6.607  1.9113  1.0549  0.4473
10640TIP3    H231864   7.263   0.371   6.598  0.2548 -0.2708  1.5138
10641TIP3   OH231865   4.795   1.377   5.627  0.2526  0.1093 -0.0873
10641TIP3    H131866   4.740   1.378   5.705  1.8000 -0.8336  1.0462
10641TIP3    H231867   4.844   1.295   5.633 -0.0287 -0.2429 -2.3588
10642TIP3   OH231868   7.060   4.723   3.398  0.3574 -0.4457 -0.3197
10642TIP3    H131869   7.055   4.653   3.463  0.0285  0.2126  0.3602
10642TIP3    H231870   7.108   4.794   3.441  0.4224 -0.1256 -0.9016
10643TIP3   OH231871   6.194   2.598   5.424 -0.0226 -0.2915  0.0728
10643TIP3    H131872   6.194   2.512   5.382 -0.6956 -0.8735  1.2336
10643TIP3    H231873   6.143   2.654   5.365  0.1269 -0.7715 -0.5155
10644TIP3   OH231874   3.666   0.043   0.784  0.8780 -0.2686  0.5741
10644TIP3    H131875   3.620   0.023   0.866  0.6642  0.2161  0.5711
10644TIP3    H231876   3.625  -0.015   0.720  2.1517 -1.8334  1.1345
10645TIP3   OH231877   8.094   4.845   6.027  0.8174 -0.0177 -0.6375
10645TIP3    H131878   8.140   4.777   5.978  2.3073  0.2468  0.3696
10645TIP3    H231879   8.103   4.820   6.119  2.4662  2.1635 -0.1657
10646TIP3   OH231880   5.551   4.328   5.129 -0.2237  0.3462  0.2078
10646TIP3    H131881   5.550   4.382   5.049  2.8232  1.5601  0.9254
10646TIP3    H231882   5.642   4.331   5.158 -0.7419 -2.3699  2.2266
10647TIP3   OH231883   6.078   4.538   6.560  0.4703  0.0295 -0.3546
10647TIP3    H131884   6.019   4.603   6.522  0.1918 -0.0504 -0.0642
10647TIP3    H231885   6.157   4.542   6.505  0.0673 -0.1043 -0.9476
10648TIP3   OH231886   5.255   4.189   5.349  0.2408  0.3404 -0.5081
10648TIP3    H131887   5.331   4.246   5.363 -0.7191  1.8069 -1.2262
10648TIP3    H231888   5.232   4.202   5.257  1.4879 -3.0538 -1.3781
10649TIP3   OH231889   7.759   4.032   4.201 -0.2388 -0.3623  0.3846
10649TIP3    H131890   7.838   4.044   4.254  0.6816  2.4131 -1.5268
10649TIP3    H231891   7.692   4.006   4.265  1.1959  1.4200  2.7406
10650TIP3   OH231892   7.794   3.105   5.485  0.0528 -0.4350 -0.8845
10650TIP3    H131893   7.865   3.142   5.433 -0.0882  2.4576  0.8932
10650TIP3    H231894   7.716   3.118   5.432  0.2225  0.4472 -0.9115
10651TIP3   OH231895   6.050   3.595   5.888  0.5838 -0.2309  0.1143
10651TIP3    H131896   5.989   3.546   5.833  0.5403  1.4761 -1.3926
10651TIP3    H231897   6.077   3.669   5.834  0.7347  1.3580  2.3142
10652TIP3   OH231898   5.468   3.535   6.609  0.5835  0.7373  0.1086
10652TIP3    H131899   5.444   3.603   6.547 -0.4380  0.0958 -0.2214
10652TIP3    H231900   5.488   3.582   6.690 -0.1375  1.4295 -0.1074
10653TIP3   OH231901   5.105   3.202   3.777  0.1360  0.3692 -0.0271
10653TIP3    H131902   5.124   3.132   3.839  0.0635  0.3680 -0.0059
10653TIP3    H231903   5.031   3.170   3.726  0.4035  0.2312 -0.3344
10654TIP3   OH231904   6.382   2.303   6.243 -0.1363 -0.5747 -0.3014
10654TIP3    H131905   6.446   2.233   6.252  0.3167 -0.0964  0.2195
10654TIP3    H231906   6.298   2.261   6.262  0.1420 -0.9558  0.0939
10655TIP3   OH231907   3.174   6.516   0.749  0.5543  0.0074  0.0025
10655TIP3    H131908   3.192   6.461   0.824  1.3009  0.1661 -0.0554
10655TIP3    H231909   3.145   6.456   0.680  3.1506 -0.5410 -0.6444
10656TIP3   OH231910   7.334   3.240   2.968  0.1381  0.4122  0.7824
10656TIP3    H131911   7.293   3.163   3.006 -2.8203  2.1546  1.3132
10656TIP3    H231912   7.274   3.267   2.898  2.4503  0.7349 -1.1061
10657TIP3   OH231913   7.716   1.809   5.909  0.1617  0.3925 -0.0662
10657TIP3    H131914   7.634   1.773   5.944  0.2170 -0.3278 -0.6705
10657TIP3    H231915   7.699   1.903   5.901 -1.3184  0.0025 -2.0546
10658TIP3   OH231916   0.097   1.218   6.409 -0.1167 -0.0282  0.6288
10658TIP3    H131917   0.034   1.290   6.401 -0.3162 -0.0311  2.0383
10658TIP3    H231918   0.064   1.150   6.351 -1.0949  0.2052  0.9043
10659TIP3   OH231919   5.389   5.146   6.008 -0.3004 -0.1257  0.0806
10659TIP3    H131920   5.341   5.228   5.996 -0.0650 -0.0368 -0.2641
10659TIP3    H231921   5.401   5.139   6.103  1.3765  1.2421 -0.0012
10660TIP3   OH231922   6.792   4.835   5.194 -0.3519 -0.6340  0.2905
10660TIP3    H131923   6.732   4.820   5.122 -0.5985 -1.7305  0.7165
10660TIP3    H231924   6.740   4.819   5.273  0.4277 -1.4251  0.6650
10661TIP3   OH231925   7.577   4.531   6.056  0.6165  0.4127 -0.3469
10661TIP3    H131926   7.560   4.579   5.975 -2.6632 -0.8838 -0.4779
10661TIP3    H231927   7.499   4.545   6.109  1.2141 -1.6967  1.1458
10662TIP3   OH231928   6.899   2.454   6.480 -0.1386 -0.1608 -0.4133
10662TIP3    H131929   6.911   2.428   6.388  2.0706 -0.4024 -0.0712
10662TIP3    H231930   6.954   2.531   6.491 -1.5186  0.7404  0.3589
10663TIP3   OH231931   5.010   2.849   3.977  0.2199 -0.0644  0.8328
10663TIP3    H131932   5.047   2.833   3.890 -1.6969 -0.6565  0.0987
10663TIP3    H231933   5.055   2.928   4.008 -0.3805  1.2540 -1.4816
10664TIP3   OH231934   0.295   3.618   3.841 -0.1900  0.2812  0.0772
10664TIP3    H131935   0.352   3.580   3.908  1.7806  0.9909 -1.1597
10664TIP3    H231936   0.276   3.545   3.782 -1.3956 -0.1902  1.0289
10665TIP3   OH231937   6.577   4.185   4.772  0.3797  0.0346 -0.4775
10665TIP3    H131938   6.499   4.137   4.745 -0.7684  1.0661  0.9321
10665TIP3    H231939   6.571   4.269   4.726  0.4673  0.2512 -0.0999
10666TIP3   OH231940   2.870   5.471   0.335  0.1918 -0.6052 -0.2620
10666TIP3    H131941   2.873   5.566   0.322  0.5197 -0.6363 -0.4159
10666TIP3    H231942   2.935   5.454   0.402  1.1756 -0.8916 -1.2674
10667TIP3   OH231943   8.112   5.188   6.835 -0.2500  0.3928  0.7593
10667TIP3    H131944   8.165   5.236   6.899 -0.1575  1.4548 -0.0986
10667TIP3    H231945   8.150   5.100   6.834 -0.2640  0.3583  2.1705
10668TIP3   OH231946   7.511   4.546   5.006 -0.2965  0.2068  0.1645
10668TIP3    H131947   7.521   4.502   4.921 -0.4683  0.6057 -0.0624
10668TIP3    H231948   7.597   4.537   5.047 -0.8103 -1.8222  0.8405
10669TIP3   OH231949   5.172   3.708   5.297 -0.4695 -0.3477  0.0029
10669TIP3    H131950   5.218   3.760   5.363 -2.3158 -0.0432  1.0740
10669TIP3    H231951   5.231   3.634   5.280  1.0503  0.7720  0.2837
10670TIP3   OH231952   7.203   2.503   5.779 -0.1514 -0.2444  0.1733
10670TIP3    H131953   7.294   2.495   5.806  0.7008 -1.3964 -2.7612
10670TIP3    H231954   7.187   2.597   5.774  1.1565 -0.0251 -0.0747
10671TIP3   OH231955   7.898   2.642   4.833  0.3453  0.2624 -0.0467
10671TIP3    H131956   7.808   2.622   4.860  0.7516  0.5198  1.5202
10671TIP3    H231957   7.908   2.598   4.749 -1.4983  0.8715 -0.6105
10672TIP3   OH231958   6.903   2.784   5.045  0.5175 -0.2415 -0.9338
10672TIP3    H131959   6.976   2.790   4.983  0.0350  1.5603 -1.3740
10672TIP3    H231960   6.928   2.714   5.105  2.4081  0.0367 -1.3630
10673TIP3   OH231961   0.372   6.113   5.578  0.4733 -0.4318 -0.1916
10673TIP3    H131962   0.283   6.080   5.567  0.2242 -0.0308  0.5451
10673TIP3    H231963   0.360   6.202   5.613  1.1498 -0.0966 -0.8042
10674TIP3   OH231964   8.309   3.821   4.923  0.0683 -0.1751 -0.1256
10674TIP3    H131965   8.367   3.825   4.848 -0.7927  0.6509 -0.7547
10674TIP3    H231966   8.360   3.858   4.995  0.9544 -1.1361 -0.2425
10675TIP3   OH231967   4.389   1.509   5.951 -0.0865 -0.3847  0.7638
10675TIP3    H131968   4.357   1.563   6.024 -0.4478 -1.1413  1.1802
10675TIP3    H231969   4.378   1.419   5.982  1.1697 -0.6859  0.3511
10676TIP3   OH231970   0.113   3.243   5.036  0.5103 -0.0529  0.0512
10676TIP3    H131971   0.142   3.160   4.999  0.5042  0.9374 -2.2155
10676TIP3    H231972   0.081   3.220   5.124 -0.6648 -2.6381 -0.9985
10677TIP3   OH231973   6.527   5.741   5.042  0.0800 -0.8503 -0.8727
10677TIP3    H131974   6.473   5.819   5.035  1.6828  0.3329 -0.3384
10677TIP3    H231975   6.603   5.769   5.094 -0.6404 -3.4395  1.7450
10678TIP3   OH231976   6.465   0.800   0.426  0.1164 -0.6017 -0.2300
10678TIP3    H131977   6.409   0.868   0.463  1.3296 -0.5174  1.5484
10678TIP3    H231978   6.433   0.787   0.337 -2.0597  0.1355  0.4310
10679TIP3   OH231979   8.085   3.609   5.934  0.5063 -0.1077  0.5041
10679TIP3    H131980   8.180   3.606   5.946  0.6676  0.9523 -0.4877
10679TIP3    H231981   8.060   3.697   5.962 -0.2422 -0.4782  1.0473
10680TIP3   OH231982   0.780   4.897   5.341  0.1346 -0.0801 -0.1632
10680TIP3    H131983   0.820   4.843   5.273 -2.1547 -1.3384 -0.5499
10680TIP3    H231984   0.805   4.855   5.423  0.8558  0.0230 -0.3288
10681TIP3   OH231985   6.905   3.168   5.321 -0.3607  0.4868  0.0751
10681TIP3    H131986   6.944   3.254   5.339 -0.0413  0.6621 -1.4231
10681TIP3    H231987   6.817   3.188   5.291 -0.7447  0.2176  1.0146
10682TIP3   OH231988   7.043   3.659   3.681  0.6614 -0.2787  0.3593
10682TIP3    H131989   7.027   3.581   3.628  0.1713  0.1657 -0.1577
10682TIP3    H231990   7.061   3.625   3.769 -0.0130 -0.9554  0.2420
10683TIP3   OH231991   8.461   3.887   6.048 -0.1798  0.3206  0.0917
10683TIP3    H131992   8.554   3.884   6.023 -0.0577 -0.6474  0.6537
10683TIP3    H231993   8.462   3.915   6.140 -0.4026 -0.4060  0.3174
10684TIP3   OH231994   7.735   4.232   6.244  0.4790  0.4943 -0.1826
10684TIP3    H131995   7.736   4.235   6.340  1.3816 -1.7155 -0.0944
10684TIP3    H231996   7.643   4.214   6.222  0.2732  0.9896  0.2606
10685TIP3   OH231997   6.927   2.421   6.210 -0.3715  0.0734  0.9709
10685TIP3    H131998   6.866   2.456   6.145 -0.3345 -2.5182 -0.5213
10685TIP3    H231999   7.014   2.436   6.172 -0.2672  0.0900  1.2155
10686TIP3   OH232000   4.689   1.468   0.170  0.8933  0.1735  0.8369
10686TIP3    H132001   4.606   1.516   0.166  1.0762  0.4350  0.2248
10686TIP3    H232002   4.714   1.473   0.262 -0.5542 -1.2379  1.3429
10687TIP3   OH232003   7.532   4.329   4.825 -0.3230 -0.0100 -0.5357
10687TIP3    H132004   7.502   4.283   4.747  0.3984  0.2323 -0.9590
10687TIP3    H232005   7.510   4.270   4.897  1.9493 -1.7557 -1.1785
10688TIP3   OH232006   4.467   1.596   0.581  0.5310 -0.0746  0.3361
10688TIP3    H132007   4.506   1.508   0.588 -1.4457 -0.9588  0.5838
10688TIP3    H232008   4.482   1.635   0.667 -1.6951 -1.5360  1.4425
10689TIP3   OH232009   6.996   4.658   3.917 -0.8222  0.0630  0.4384
10689TIP3    H132010   6.945   4.696   3.846  0.6037  0.0578 -0.6297
10689TIP3    H232011   6.978   4.564   3.911 -1.2872  0.1451  0.5575
10690TIP3   OH232012   0.779   4.516   6.304  0.4704 -0.1102 -0.7300
10690TIP3    H132013   0.810   4.463   6.231  1.6494 -1.1697  0.5253
10690TIP3    H232014   0.745   4.595   6.263 -0.8991 -1.6227 -2.5907
10691TIP3   OH232015   6.999   3.400   5.390 -0.0610  0.3402 -0.5096
10691TIP3    H132016   7.081   3.449   5.398  0.8453 -1.1788 -0.2922
10691TIP3    H232017   6.934   3.467   5.368  1.0666  1.6947  0.1338
10692TIP3   OH232018   4.271   2.664   5.944 -0.4299  0.5789 -0.8731
10692TIP3    H132019   4.302   2.734   6.000 -0.4145  0.1377 -0.3292
10692TIP3    H232020   4.187   2.638   5.981 -0.9454  1.0388 -1.7083
10693TIP3   OH232021   6.919   4.019   6.294 -0.3182 -0.1539  0.0838
10693TIP3    H132022   6.934   3.979   6.208 -0.3833 -1.0844  0.5001
10693TIP3    H232023   6.919   4.114   6.276 -0.3905 -0.3365 -0.9449
10694TIP3   OH232024   6.744   5.627   4.906 -0.0435  0.0536  0.3559
10694TIP3    H132025   6.816   5.683   4.933  0.3701  0.2990 -1.1970
10694TIP3    H232026   6.665   5.677   4.926  0.3373  1.3873 -1.4125
10695TIP3   OH232027   5.636   2.101   5.670  0.2946 -0.0399  0.4403
10695TIP3    H132028   5.665   2.108   5.579  0.3599 -0.2936  0.4411
10695TIP3    H232029   5.639   2.191   5.703  0.2655  0.0537  0.1908
10696TIP3   OH232030   7.955   3.385   5.715  0.0434  0.7176  0.4387
10696TIP3    H132031   7.952   3.364   5.808 -1.6853  1.3480  0.5410
10696TIP3    H232032   8.046   3.372   5.690  0.4838  0.4016  2.1852
10697TIP3   OH232033   6.568   4.919   3.516  0.1584  0.1866 -0.0001
10697TIP3    H132034   6.568   4.835   3.561 -0.4836  0.2137  0.0550
10697TIP3    H232035   6.507   4.973   3.565  1.4327  1.0726  0.6490
10698TIP3   OH232036   4.979   1.268   0.767 -0.0591  0.1404  0.1661
10698TIP3    H132037   4.931   1.238   0.844 -0.0725  0.7792  0.4081
10698TIP3    H232038   4.975   1.363   0.772 -0.0185  0.1833 -0.6025
10699TIP3   OH232039   4.177   2.710   6.603  0.0394  0.3078 -0.2015
10699TIP3    H132040   4.098   2.764   6.598  0.3926  0.9465  0.9402
10699TIP3    H232041   4.245   2.769   6.635  0.4316 -0.7954  1.0524
10700TIP3   OH232042   0.849   6.769   0.312 -0.4507  0.4137  0.2282
10700TIP3    H132043   0.760   6.792   0.284  0.0632  0.1178 -1.6797
10700TIP3    H232044   0.905   6.832   0.268  0.3740  0.0147  0.6947
10701TIP3   OH232045   2.091   1.097   0.142  0.2818  0.1530  0.2927
10701TIP3    H132046   2.006   1.061   0.115  0.2527  0.1856  0.3391
10701TIP3    H232047   2.144   1.021   0.162  0.8627  0.0782 -1.4978
10702TIP3   OH232048   5.540   5.472   6.164 -0.2920  0.6873 -0.0088
10702TIP3    H132049   5.510   5.555   6.200 -0.8430 -0.0600  1.2851
10702TIP3    H232050   5.586   5.429   6.236 -1.6623 -0.9508 -0.0443
10703TIP3   OH232051   3.563   4.935   5.182  0.4313  0.1285  0.1440
10703TIP3    H132052   3.476   4.956   5.214 -0.0544  1.3331 -1.8747
10703TIP3    H232053   3.562   4.961   5.090  2.7139 -0.4344 -0.0784
10704TIP3   OH232054   7.284   3.704   5.005  0.2070  0.1689 -0.0869
10704TIP3    H132055   7.247   3.786   4.970 -0.3871  0.6786  1.6811
10704TIP3    H232056   7.236   3.690   5.087 -0.9202 -2.8819 -1.2275
10705TIP3   OH232057   0.561   2.313   6.549 -0.1659 -0.5118  0.4308
10705TIP3    H132058   0.514   2.244   6.501 -1.0462 -0.8930  1.8365
10705TIP3    H232059   0.597   2.269   6.626 -0.0220  0.4184  0.9029
10706TIP3   OH232060   6.932   2.763   3.937 -0.1057 -0.4714 -0.1937
10706TIP3    H132061   6.865   2.820   3.901 -0.6931 -1.6141 -0.9262
10706TIP3    H232062   6.891   2.677   3.941  1.7650 -1.4915 -2.0460
10707TIP3   OH232063   5.132   3.455   5.556  0.2456  0.3725 -0.2090
10707TIP3    H132064   5.127   3.393   5.628 -0.1033  0.7193  0.0623
10707TIP3    H232065   5.200   3.517   5.582  0.2731  0.3712 -0.2756
10708TIP3   OH232066   6.084   2.943   5.810  0.3534 -0.1982 -0.0800
10708TIP3    H132067   6.120   2.872   5.758 -0.9880 -0.8618 -0.1328
10708TIP3    H232068   6.057   2.901   5.892 -0.9596  0.1314 -0.3312
10709TIP3   OH232069   7.021   4.720   6.711 -0.3755 -0.4354 -0.5092
10709TIP3    H132070   7.012   4.633   6.672 -0.2890 -0.6809  0.0204
10709TIP3    H232071   7.059   4.704   6.797 -0.2544  0.1377 -0.4563
10710TIP3   OH232072   6.923   2.745   5.460 -0.4679  0.0493  0.5515
10710TIP3    H132073   6.969   2.795   5.393  1.0837 -1.3435  0.5254
10710TIP3    H232074   6.832   2.774   5.454 -0.3991 -0.1648 -2.2911
10711TIP3   OH232075   3.740   3.820   4.119  0.2985 -0.3584  0.4740
10711TIP3    H132076   3.786   3.741   4.092 -0.2312 -0.7157  0.6208
10711TIP3    H232077   3.776   3.841   4.205 -0.3936 -1.0934  0.9404
10712TIP3   OH232078   6.697   1.471   6.732  0.0191  0.3573  0.8188
10712TIP3    H132079   6.720   1.409   6.663  0.5604  0.8779  0.5219
10712TIP3    H232080   6.640   1.535   6.689 -1.2048 -0.3836  1.3228
10713TIP3   OH232081   0.766   2.492   6.037 -0.2486  0.1658  0.2430
10713TIP3    H132082   0.733   2.414   5.993 -2.2342  0.4756  1.1619
10713TIP3    H232083   0.797   2.548   5.966 -0.9903 -0.4554 -0.5735
10714TIP3   OH232084   0.662   3.850   5.920 -0.4026 -0.1920 -0.0881
10714TIP3    H132085   0.683   3.765   5.958 -1.6095  0.1512  1.3968
10714TIP3    H232086   0.690   3.914   5.986  3.0815  0.7650 -2.3310
10715TIP3   OH232087   4.458   2.991   4.531  0.4276 -0.1499 -0.1287
10715TIP3    H132088   4.462   2.967   4.439 -0.7681  0.1160 -0.2530
10715TIP3    H232089   4.398   2.928   4.571 -2.0655  2.0107 -0.3013
10716TIP3   OH232090   5.693   2.770   4.781 -0.0613 -0.6452 -0.0055
10716TIP3    H132091   5.744   2.698   4.745  1.3644  0.2963  0.0611
10716TIP3    H232092   5.639   2.801   4.708  0.0279 -1.1691 -0.2910
10717TIP3   OH232093   0.915   4.002   5.177  0.0100  0.4207  0.6092
10717TIP3    H132094   0.866   4.066   5.124  0.4387 -0.1641 -0.5215
10717TIP3    H232095   0.863   3.922   5.171  0.8386 -0.0704 -0.2095
10718TIP3   OH232096   7.927   0.965   5.983 -0.1068 -0.2646  0.4857
10718TIP3    H132097   7.941   1.026   6.056  0.3856 -0.6612  0.7265
10718TIP3    H232098   8.015   0.949   5.949 -0.2602 -0.6695  0.2813
10719TIP3   OH232099   6.576   5.033   5.505 -0.1671 -0.1131 -0.1339
10719TIP3    H132100   6.491   5.078   5.503 -0.0528  0.0998 -0.2122
10719TIP3    H232101   6.640   5.103   5.493 -0.0330 -0.4201 -1.2944
10720TIP3   OH232102   6.236   4.745   5.268 -0.2922 -0.2197 -0.3154
10720TIP3    H132103   6.273   4.763   5.354 -0.2091 -1.4770 -0.0775
10720TIP3    H232104   6.221   4.831   5.229  1.5272  0.3298  0.1593
10721TIP3   OH232105   0.029   3.982   5.317  0.4760 -0.3939  0.4601
10721TIP3    H132106  -0.041   4.023   5.367  0.1396  1.2481 -1.2854
10721TIP3    H232107   0.101   3.974   5.379 -0.3571  0.4133  1.5468
10722TIP3   OH232108   6.344   4.253   5.225 -0.3404 -0.1007  0.0653
10722TIP3    H132109   6.348   4.302   5.307 -1.1089  1.1058 -0.6023
10722TIP3    H232110   6.403   4.179   5.238 -1.2361 -0.4834  2.0694
10723TIP3   OH232111   5.788   5.612   6.425  0.2349  0.1477  0.2145
10723TIP3    H132112   5.860   5.650   6.374 -1.3170  2.0483 -0.6767
10723TIP3    H232113   5.778   5.523   6.390  1.2130  0.3728 -0.6712
10724TIP3   OH232114   2.223   7.709   1.249 -0.0828 -0.0589  0.1090
10724TIP3    H132115   2.165   7.633   1.243 -2.0708  1.3618  0.9042
10724TIP3    H232116   2.173   7.774   1.298  1.0825  2.2377 -1.6340
10725TIP3   OH232117   6.045   3.356   6.136 -0.1510 -0.1678 -0.9397
10725TIP3    H132118   6.023   3.322   6.049  0.3132  0.0159 -1.1339
10725TIP3    H232119   5.964   3.399   6.166 -0.1402  0.2654 -1.5258
10726TIP3   OH232120   6.801   3.561   5.683  0.3297  0.0070 -0.0368
10726TIP3    H132121   6.839   3.642   5.648  1.1882  0.1425  1.2064
10726TIP3    H232122   6.876   3.510   5.712 -0.3585 -0.2543  1.3029
10727TIP3   OH232123   7.750   3.732   5.284 -0.0802 -0.2376 -0.1874
10727TIP3    H132124   7.814   3.663   5.267  1.1466  0.3848  1.7999
10727TIP3    H232125   7.674   3.687   5.319 -0.1478 -0.8039 -1.0417
10728TIP3   OH232126   0.660   5.531   5.770 -0.5543 -0.2937 -0.0142
10728TIP3    H132127   0.738   5.579   5.798 -0.9640  0.5858 -0.3893
10728TIP3    H232128   0.608   5.522   5.850  0.0248 -1.0761  0.2848
10729TIP3   OH232129   5.870   2.984   6.342 -0.4104  0.6091 -0.0935
10729TIP3    H132130   5.939   3.012   6.402  2.1149 -1.2257 -2.0315
10729TIP3    H232131   5.834   3.065   6.307  1.7968  1.5810 -0.1792
10730TIP3   OH232132   7.355   5.187   6.249  0.6029 -0.1730  0.4553
10730TIP3    H132133   7.262   5.186   6.225  0.9311 -0.0859 -0.8868
10730TIP3    H232134   7.385   5.274   6.224  1.0038 -0.1297  1.0839
10731TIP3   OH232135   5.776   6.640   5.919 -0.3447  0.1692 -0.1375
10731TIP3    H132136   5.790   6.564   5.974 -1.3002 -0.2845 -0.5063
10731TIP3    H232137   5.683   6.636   5.895  0.0173  0.4155 -1.6721
10732TIP3   OH232138   4.002   7.698   4.295  0.0741  0.3957 -0.0224
10732TIP3    H132139   3.913   7.702   4.260 -0.5356  2.3428  1.6344
10732TIP3    H232140   4.046   7.775   4.258  0.0572  1.2788  1.7464
10733TIP3   OH232141   2.272   7.324   0.167 -0.6067  0.5163  0.7315
10733TIP3    H132142   2.202   7.389   0.159 -0.1614  1.1681  1.9940
10733TIP3    H232143   2.331   7.360   0.233  1.0304  0.0628 -0.4459
10734TIP3   OH232144   3.319   0.846   0.111 -0.0499  0.9135  0.1093
10734TIP3    H132145   3.278   0.886   0.035 -1.8914  1.0350  1.1435
10734TIP3    H232146   3.323   0.753   0.089 -0.5537  0.9510 -0.1520
10735TIP3   OH232147   7.852   1.579   5.430  0.2754  0.0468  0.1555
10735TIP3    H132148   7.859   1.649   5.495  0.4559 -1.1544  1.4612
10735TIP3    H232149   7.902   1.611   5.355  2.3464  0.3526  1.6024
10736TIP3   OH232150   7.079   2.758   5.712 -0.3096 -0.4973  0.0284
10736TIP3    H132151   7.079   2.750   5.617  0.8841 -0.8178  0.0459
10736TIP3    H232152   7.014   2.825   5.731  0.9226  1.0475 -1.1460
10737TIP3   OH232153   0.895   5.789   6.868  0.1572  0.3146 -0.5378
10737TIP3    H132154   0.915   5.878   6.899 -0.3098 -0.2669  1.5044
10737TIP3    H232155   0.897   5.796   6.773  0.5015  2.4415 -0.3990
10738TIP3   OH232156   3.911   7.999   0.397  0.3772 -0.1793  0.4425
10738TIP3    H132157   3.998   7.959   0.409  1.0309  1.1303  0.1135
10738TIP3    H232158   3.851   7.925   0.402  1.6279 -1.3356 -0.9481
10739TIP3   OH232159   6.950   3.861   6.769  0.2047 -0.4007  0.6353
10739TIP3    H132160   6.918   3.866   6.680 -1.0076  0.0550  1.0912
10739TIP3    H232161   7.035   3.817   6.762  0.3986  0.1934 -0.7984
10740TIP3   OH232162   7.675   5.039   5.555 -0.6254  0.0349 -0.5159
10740TIP3    H132163   7.713   4.956   5.527 -0.2920  0.2431 -0.6797
10740TIP3    H232164   7.720   5.105   5.502 -1.3260  0.2667 -0.8257
10741TIP3   OH232165   6.559   3.087   5.489  0.1586  0.5118 -0.7003
10741TIP3    H132166   6.519   3.158   5.439 -2.2689 -1.0673 -1.0810
10741TIP3    H232167   6.608   3.131   5.559 -1.1866  2.5718 -1.0095
10742TIP3   OH232168   0.751   6.606   0.537  0.4369  0.1346 -0.2346
10742TIP3    H132169   0.815   6.665   0.497  1.5973  1.0777  2.8511
10742TIP3    H232170   0.803   6.533   0.571 -0.6158 -1.0933 -1.2241
10743TIP3   OH232171   8.039   3.159   5.056 -0.4692  0.2003  0.5453
10743TIP3    H132172   8.102   3.088   5.045 -1.6558 -0.8722  0.5294
10743TIP3    H232173   8.066   3.227   4.994  0.4721 -0.3820  0.3253
10744TIP3   OH232174   4.985   3.080   4.523 -0.0408 -0.2087  0.0555
10744TIP3    H132175   4.905   3.051   4.567  0.1864  0.7804  1.1270
10744TIP3    H232176   5.054   3.070   4.588  0.4938  0.1543 -0.4496
10745TIP3   OH232177   7.938   1.875   5.472  0.5232 -0.6345  0.0424
10745TIP3    H132178   7.977   1.943   5.527  1.6524 -2.2349  1.2699
10745TIP3    H232179   8.013   1.829   5.434 -0.2134 -1.5403 -0.3359
10746TIP3   OH232180   3.625   4.820   0.872  0.5128  0.4719 -0.1138
10746TIP3    H132181   3.547   4.765   0.878 -0.6813  2.2518  1.1029
10746TIP3    H232182   3.606   4.895   0.928  3.7529  0.1856  1.4394
10747TIP3   OH232183   7.424   1.769   6.088  0.4459  0.2341 -0.3623
10747TIP3    H132184   7.370   1.690   6.096 -1.8210  1.5450 -2.0432
10747TIP3    H232185   7.436   1.798   6.179 -1.9849  0.0574  0.0681
10748TIP3   OH232186   6.641   3.536   5.033 -0.3659 -0.0040  0.0305
10748TIP3    H132187   6.627   3.453   4.988 -0.7677 -0.4444  0.9631
10748TIP3    H232188   6.727   3.565   5.002  0.8794 -1.9616  1.5126
10749TIP3   OH232189   5.144   5.241   6.256 -0.8071 -0.8873  0.0293
10749TIP3    H132190   5.157   5.160   6.307  1.1121  0.2689  1.4394
10749TIP3    H232191   5.070   5.284   6.299  0.9448  0.1894  2.0697
10750TIP3   OH232192   6.161   3.808   6.366 -0.1832 -0.1224 -0.3534
10750TIP3    H132193   6.176   3.717   6.338 -0.5496 -0.8507  1.7507
10750TIP3    H232194   6.119   3.800   6.452 -0.3715  2.0473 -0.2231
10751TIP3   OH232195   5.495   5.973   4.719 -0.2548  0.8282  0.0874
10751TIP3    H132196   5.479   6.051   4.772  3.4263  2.4020 -1.0018
10751TIP3    H232197   5.513   5.904   4.783 -3.1204  0.8802  1.0398
10752TIP3   OH232198   8.463   5.258   5.111 -0.7993  0.3768 -0.2824
10752TIP3    H132199   8.375   5.220   5.115 -1.2748  1.4429 -0.4415
10752TIP3    H232200   8.448   5.352   5.109  0.3617  0.5730 -0.0116
10753TIP3   OH232201   8.004   4.375   6.804  0.8991 -0.1875 -0.7812
10753TIP3    H132202   8.081   4.382   6.861  1.5635  0.3236 -1.7170
10753TIP3    H232203   8.022   4.299   6.749  1.0222  0.2782 -1.4000
10754TIP3   OH232204   1.809   6.764   0.466  0.1005  0.3698 -0.0790
10754TIP3    H132205   1.856   6.840   0.432  1.2947  0.3596  1.5145
10754TIP3    H232206   1.761   6.798   0.542  0.3991 -0.3901  0.4582
10755TIP3   OH232207   8.266   5.037   5.864  0.5279  0.3561 -0.5454
10755TIP3    H132208   8.198   4.985   5.821  0.0690  1.2960 -0.9683
10755TIP3    H232209   8.238   5.128   5.853  1.3154  0.6997  0.2003
10756TIP3   OH232210   7.253   4.592   6.342  0.3923  0.5704 -0.0048
10756TIP3    H132211   7.247   4.686   6.321 -1.7781  0.9483  2.0884
10756TIP3    H232212   7.340   4.582   6.381  0.4587  1.8418  0.2116
10757TIP3   OH232213   2.706   0.808   0.175  0.5750  0.1302 -0.7955
10757TIP3    H132214   2.678   0.876   0.236 -0.2802 -0.5579 -0.4112
10757TIP3    H232215   2.632   0.747   0.172  1.9621 -1.6443  0.1281
10758TIP3   OH232216   4.316   1.144   0.360 -0.0480 -0.8297  0.1494
10758TIP3    H132217   4.290   1.204   0.430  0.9601 -0.7905  0.5081
10758TIP3    H232218   4.410   1.159   0.350 -0.3578 -0.0501 -1.9697
10759TIP3   OH232219   7.888   4.305   4.884 -0.5225  0.4726 -0.2707
10759TIP3    H132220   7.982   4.292   4.896 -0.6626 -1.9524 -1.5449
10759TIP3    H232221   7.878   4.400   4.877  1.9074  0.7192 -0.8422
10760TIP3   OH232222   6.188   2.082   3.023 -0.6692 -0.0871  0.2180
10760TIP3    H132223   6.116   2.145   3.033  0.5597  1.4088 -0.1854
10760TIP3    H232224   6.258   2.132   2.981 -0.3185 -2.2377 -1.8467
10761TIP3   OH232225   6.329   3.526   5.294 -0.3431  0.3874 -0.3542
10761TIP3    H132226   6.402   3.473   5.328  0.5795  2.0497  0.3099
10761TIP3    H232227   6.251   3.477   5.319  0.5306 -1.3591 -0.9490
10762TIP3   OH232228   7.149   6.706   0.799 -0.9435 -0.0008  0.3765
10762TIP3    H132229   7.163   6.616   0.829 -0.7997 -0.2258 -0.3590
10762TIP3    H232230   7.103   6.696   0.716  2.8768  0.4605 -1.8948
10763TIP3   OH232231   1.451   5.310   5.882  0.0719 -0.2419 -0.5193
10763TIP3    H132232   1.375   5.257   5.858 -0.4903 -0.4397  1.5768
10763TIP3    H232233   1.457   5.376   5.813  0.9427 -3.1567 -3.3385
10764TIP3   OH232234   6.900   0.323   1.905  0.2375  0.0165 -0.2383
10764TIP3    H132235   6.856   0.283   1.829  0.8149 -0.7251 -0.1816
10764TIP3    H232236   6.981   0.359   1.870  0.9318 -1.1176  0.1976
10765TIP3   OH232237   7.021   3.430   4.500  0.1552 -0.3616 -0.1698
10765TIP3    H132238   6.991   3.344   4.472 -2.3809  0.4709 -0.1397
10765TIP3    H232239   6.957   3.491   4.463  1.2584  1.4202  0.7852
10766TIP3   OH232240   1.061   4.600   4.716  0.4797 -0.1709  0.0138
10766TIP3    H132241   1.108   4.586   4.799 -1.8221 -3.2117  0.8989
10766TIP3    H232242   1.002   4.672   4.734  0.8621 -0.0116  0.6420
10767TIP3   OH232243   7.945   1.692   5.188 -0.3397 -0.1809 -0.2016
10767TIP3    H132244   7.872   1.740   5.148  1.7775  3.2222 -0.2477
10767TIP3    H232245   7.997   1.662   5.113 -0.1090  0.0701 -0.1455
10768TIP3   OH232246   7.544   4.029   5.396 -0.0820  0.2181  0.5207
10768TIP3    H132247   7.491   4.049   5.319 -2.0000  0.9180  1.9972
10768TIP3    H232248   7.594   4.110   5.412 -0.6201  0.5037  0.7605
10769TIP3   OH232249   8.143   1.350   5.932  0.2921  0.4055  0.0617
10769TIP3    H132250   8.159   1.296   5.855 -1.0987 -1.8099  1.2435
10769TIP3    H232251   8.230   1.374   5.963  0.8790  0.5793 -1.6879
10770TIP3   OH232252   5.394   0.030   0.963  0.0587 -0.1549 -0.0496
10770TIP3    H132253   5.381   0.124   0.970  2.1905  0.1399  0.5230
10770TIP3    H232254   5.341  -0.008   1.033 -0.2554  0.6874  0.1663
10771TIP3   OH232255   5.619   2.067   6.063 -0.1530  0.2306 -0.5216
10771TIP3    H132256   5.532   2.073   6.102 -0.8185 -0.1744 -1.8921
10771TIP3    H232257   5.647   2.158   6.055  0.4458  0.2856  1.8181
10772TIP3   OH232258   6.239   0.815   6.269  0.0405 -0.7864  0.2552
10772TIP3    H132259   6.251   0.882   6.337 -0.6404 -0.7991  0.3854
10772TIP3    H232260   6.173   0.756   6.305  0.1722 -1.1737 -0.1356
10773TIP3   OH232261   4.861   4.923   6.091  0.4044 -0.2471  0.1447
10773TIP3    H132262   4.936   4.872   6.122  1.8252  1.9020  0.2777
10773TIP3    H232263   4.785   4.877   6.128  1.7931 -0.8863  2.2968
10774TIP3   OH232264   1.082   2.961   4.957 -0.5779  0.2608 -0.2578
10774TIP3    H132265   1.114   2.879   4.919 -2.3205 -0.5253 -0.0641
10774TIP3    H232266   1.035   3.004   4.885 -1.5129  0.0674  0.2316
10775TIP3   OH232267   8.222   1.285   5.678 -0.4059 -0.2850  0.5849
10775TIP3    H132268   8.311   1.281   5.641  0.5506 -0.5241  2.8409
10775TIP3    H232269   8.180   1.205   5.647  0.5483 -0.7470  0.4645
10776TIP3   OH232270   5.578   1.828   5.485  0.1428 -0.1940  0.1868
10776TIP3    H132271   5.492   1.854   5.451  0.3221  1.3105  0.8630
10776TIP3    H232272   5.615   1.773   5.416  0.1348  2.1235 -1.7367
10777TIP3   OH232273   7.880   5.281   4.558 -0.2391 -0.0769 -0.6612
10777TIP3    H132274   7.796   5.285   4.512 -0.5220  2.2442 -0.0476
10777TIP3    H232275   7.858   5.302   4.649  1.3115  3.3508 -0.9999
10778TIP3   OH232276   5.799   4.483   4.398 -0.3572  0.1568 -0.6990
10778TIP3    H132277   5.788   4.557   4.458  0.0513 -1.7486  1.8017
10778TIP3    H232278   5.711   4.451   4.382 -0.3049 -0.7840  0.8059
10779TIP3   OH232279   4.893   3.390   6.059  0.4214 -0.3198 -0.1762
10779TIP3    H132280   4.833   3.435   5.999  1.2907 -0.9953 -1.5664
10779TIP3    H232281   4.905   3.451   6.131 -1.2915  0.1668 -0.2861
10780TIP3   OH232282   3.039   4.887   4.488  0.3321  0.3641  0.6901
10780TIP3    H132283   3.068   4.831   4.416  1.0544 -0.4777  1.6218
10780TIP3    H232284   3.013   4.968   4.445  0.7780 -0.1083 -0.5222
10781TIP3   OH232285   5.573   2.778   6.872  0.1132  0.3341 -0.1351
10781TIP3    H132286   5.523   2.860   6.873 -0.6946 -0.1400 -0.5858
10781TIP3    H232287   5.524   2.721   6.813  0.2989 -0.7014  0.6785
10782TIP3   OH232288   6.715   3.764   5.374  0.2808  0.6630  0.0595
10782TIP3    H132289   6.784   3.804   5.321  0.4808  1.3064  0.7998
10782TIP3    H232290   6.736   3.788   5.464 -0.1784 -0.2457  0.4182
10783TIP3   OH232291   5.190   7.961   4.879  0.7273  0.0939  0.5686
10783TIP3    H132292   5.184   8.018   4.956  1.1636 -0.1104  0.7588
10783TIP3    H232293   5.165   7.874   4.911  1.1307 -0.0375  0.5371
10784TIP3   OH232294   6.542   5.477   5.681  0.2303  0.3458  0.0537
10784TIP3    H132295   6.625   5.485   5.728  1.0048 -0.8530 -1.0756
10784TIP3    H232296   6.479   5.525   5.734  1.1374 -0.7760  2.1999
10785TIP3   OH232297   6.528   4.031   6.340 -0.5114 -0.7225  0.4353
10785TIP3    H132298   6.555   4.021   6.431  0.4539 -1.6575  0.0452
10785TIP3    H232299   6.556   4.119   6.316  0.8622 -1.1366  0.4919
10786TIP3   OH232300   8.002   4.560   5.730  0.4022  0.2659  0.2994
10786TIP3    H132301   7.973   4.651   5.729  2.8086  1.0663  0.4581
10786TIP3    H232302   8.080   4.559   5.673  0.1974 -1.7594  0.0194
10787TIP3   OH232303   2.922   0.635   0.260  0.3522  0.5218 -0.0450
10787TIP3    H132304   2.859   0.699   0.226 -0.3891  1.3188  2.6483
10787TIP3    H232305   2.876   0.552   0.259 -0.2326  0.8347  0.4850
10788TIP3   OH232306   7.821   6.423   4.807  0.1690  0.0034  0.3086
10788TIP3    H132307   7.862   6.338   4.817 -1.1912 -0.6106  0.7254
10788TIP3    H232308   7.884   6.474   4.755  1.0775 -1.1700  0.2453
10789TIP3   OH232309   5.721   4.506   5.611 -0.3588  0.2477  0.0341
10789TIP3    H132310   5.708   4.568   5.540  0.2929  1.7837  1.2246
10789TIP3    H232311   5.792   4.544   5.664  1.5722 -2.5809 -0.3983
10790TIP3   OH232312   5.623   3.147   5.740  0.4337 -0.1080 -0.1815
10790TIP3    H132313   5.642   3.176   5.830 -0.5455  0.7480 -0.2427
10790TIP3    H232314   5.565   3.071   5.751  1.5173 -0.9373 -0.0669
10791TIP3   OH232315   2.937   0.297   0.169  0.1179  0.6653 -0.2426
10791TIP3    H132316   3.005   0.301   0.101 -1.7377 -0.4005 -2.2119
10791TIP3    H232317   2.882   0.223   0.144 -1.3314  1.0075  1.7787
10792TIP3   OH232318   6.068   2.748   6.732  0.0900  0.2206  0.5538
10792TIP3    H132319   6.019   2.820   6.772 -1.5833 -0.5621 -0.0354
10792TIP3    H232320   6.137   2.727   6.796  0.3998  2.1290  0.8562
10793TIP3   OH232321   1.861   1.145   6.358  0.3467  0.4917  0.1339
10793TIP3    H132322   1.783   1.140   6.414  0.7230 -0.5331  0.5771
10793TIP3    H232323   1.913   1.069   6.383  1.7429  1.4439  0.1987
10794TIP3   OH232324   6.327   4.764   5.532 -0.2775  0.1051  0.3293
10794TIP3    H132325   6.314   4.716   5.615  0.7174 -1.7266 -0.5419
10794TIP3    H232326   6.394   4.829   5.552  1.2043 -1.4555  0.5535
10795TIP3   OH232327   5.973   2.584   6.001  0.1591  0.3694 -0.2677
10795TIP3    H132328   5.964   2.604   6.094 -0.3528 -0.6120 -0.1032
10795TIP3    H232329   5.885   2.599   5.965  0.0301 -0.5546 -0.3420
10796TIP3   OH232330   5.693   3.166   6.271 -0.5661  0.0007 -0.0377
10796TIP3    H132331   5.643   3.100   6.320  3.0513 -1.6746  1.5633
10796TIP3    H232332   5.698   3.241   6.331  0.6875 -0.6564  0.6912
10797TIP3   OH232333   7.361   2.971   5.210 -0.1379  1.0974 -0.4598
10797TIP3    H132334   7.443   2.935   5.245 -0.6316  1.1848  0.8146
10797TIP3    H232335   7.321   2.898   5.163 -0.2915  0.4660  0.6355
10798TIP3   OH232336   7.695   5.336   6.413 -0.0526 -0.1187 -0.0308
10798TIP3    H132337   7.703   5.270   6.482  0.5239 -0.7866 -0.7407
10798TIP3    H232338   7.769   5.319   6.354 -0.3393  0.6724 -0.6251
10799TIP3   OH232339   6.953   2.958   6.044  0.3249  0.1691 -0.1687
10799TIP3    H132340   6.864   2.923   6.041 -0.1360  0.5662  5.1290
10799TIP3    H232341   6.941   3.051   6.060  1.6799  0.2456  0.4293
10800TIP3   OH232342   7.198   4.842   5.209 -0.1181  0.0336 -0.4471
10800TIP3    H132343   7.264   4.844   5.140  0.2196  0.0096 -0.1290
10800TIP3    H232344   7.138   4.772   5.183  0.3936 -0.4427 -0.3685
10801TIP3   OH232345   8.054   0.668   5.804  0.1495 -0.4228  0.6596
10801TIP3    H132346   8.017   0.757   5.798  3.0402  0.8019  0.3020
10801TIP3    H232347   8.102   0.667   5.886 -1.2119 -2.2486  1.4748
10802TIP3   OH232348   7.481   1.855   6.343 -0.0512  0.1317 -0.0330
10802TIP3    H132349   7.427   1.811   6.409 -1.3473  1.6743 -0.0502
10802TIP3    H232350   7.567   1.863   6.384  0.1712 -2.2792  0.0244
10803TIP3   OH232351   8.285   4.111   6.011 -0.0735  0.5977  0.1708
10803TIP3    H132352   8.316   4.149   5.929 -2.6614 -0.8516 -1.5337
10803TIP3    H232353   8.332   4.027   6.017 -0.1484  0.5454  0.0082
10804TIP3   OH232354   7.358   3.838   6.020  0.4270  0.5283 -0.0276
10804TIP3    H132355   7.313   3.864   6.100 -0.6798  0.1948 -0.5299
10804TIP3    H232356   7.442   3.802   6.050 -0.1811 -0.0553  1.0229
10805TIP3   OH232357   6.707   4.107   5.586  0.2005  0.0792 -0.2303
10805TIP3    H132358   6.765   4.033   5.570  0.2469 -0.1372  0.8508
10805TIP3    H232359   6.756   4.183   5.555  1.0740 -0.1063  0.6564
10806TIP3   OH232360   0.080   2.212   5.068 -0.3701 -0.0210  0.5498
10806TIP3    H132361   0.048   2.240   4.982  1.5021  3.1765  0.8334
10806TIP3    H232362   0.001   2.201   5.121 -1.3752  1.0753 -0.6947
10807TIP3   OH232363   7.057   3.691   4.221 -0.1982  0.2435 -0.2295
10807TIP3    H132364   7.089   3.725   4.137 -0.1466  0.0096 -0.3043
10807TIP3    H232365   7.137   3.666   4.268 -0.1762  1.0820  0.1960
10808TIP3   OH232366   7.542   3.559   5.485  0.1938  0.1857  0.3313
10808TIP3    H132367   7.531   3.653   5.501  0.3756  0.0004  1.5727
10808TIP3    H232368   7.625   3.537   5.527 -0.2418 -0.6844  0.7537
10809TIP3   OH232369   2.649   2.341   0.261 -0.0050 -0.2196  0.2676
10809TIP3    H132370   2.724   2.357   0.318 -0.0662 -0.8287  0.5237
10809TIP3    H232371   2.685   2.348   0.172  0.4612 -0.9731  0.3892
10810TIP3   OH232372   7.680   3.249   5.277  0.2811  0.0297 -0.7597
10810TIP3    H132373   7.595   3.248   5.322  1.7451 -1.5545  2.0522
10810TIP3    H232374   7.733   3.309   5.329  1.5836 -0.7453 -1.1976
10811TIP3   OH232375   0.232   3.948   5.995  0.2274 -0.1457  0.7365
10811TIP3    H132376   0.283   4.024   6.021 -0.1488  0.1994  0.4617
10811TIP3    H232377   0.272   3.919   5.913  0.2460 -0.1313  0.7403
10812TIP3   OH232378   0.202   2.283   5.499 -0.1244  0.0395 -0.1344
10812TIP3    H132379   0.220   2.358   5.441  0.9300  1.4935  2.0291
10812TIP3    H232380   0.253   2.212   5.461  1.0472  1.1344 -0.6731
10813TIP3   OH232381   8.328   4.933   4.297 -0.0933  0.0286 -0.0228
10813TIP3    H132382   8.346   5.008   4.354 -0.5193 -0.3010  0.5557
10813TIP3    H232383   8.386   4.864   4.330 -1.2166 -0.5419  0.8086
10814TIP3   OH232384   7.396   7.943   4.679 -0.1806 -0.4801  0.3084
10814TIP3    H132385   7.426   8.001   4.749  0.0768 -0.2805  0.0334
10814TIP3    H232386   7.458   7.871   4.679 -0.1534 -0.4564  0.2535
10815TIP3   OH232387   0.116   2.080   6.270 -0.3804  0.0958  0.1549
10815TIP3    H132388   0.094   2.128   6.190  0.3246 -1.3909 -0.9454
10815TIP3    H232389   0.200   2.117   6.298 -0.1632 -0.0371 -0.3189
10816TIP3   OH232390   8.348   3.540   6.011  0.5715  0.4634 -0.4094
10816TIP3    H132391   8.278   3.488   6.052  1.7446 -0.8002  0.0612
10816TIP3    H232392   8.397   3.576   6.085  1.5877 -0.2879 -0.7089
10817TIP3   OH232393   0.071   1.845   3.204  0.2659  0.3597 -0.0837
10817TIP3    H132394   0.001   1.814   3.146 -0.1009  1.8633 -0.4579
10817TIP3    H232395   0.139   1.779   3.195 -0.4416 -0.2729 -0.9862
10818TIP3   OH232396   1.205   4.419   4.303  1.0940 -0.5886 -0.8853
10818TIP3    H132397   1.146   4.399   4.375 -1.8579 -1.7990 -3.5159
10818TIP3    H232398   1.198   4.514   4.291 -0.1948 -0.6955 -1.0395
10819TIP3   OH232399   7.396   2.650   4.226  0.1588 -1.0020 -0.0946
10819TIP3    H132400   7.468   2.645   4.288 -0.3897  2.1204  0.8437
10819TIP3    H232401   7.338   2.577   4.250  0.5762 -0.5867  2.2409
10820TIP3   OH232402   0.476   3.303   5.795  0.1481  0.4292 -0.1553
10820TIP3    H132403   0.480   3.208   5.786 -2.0704  0.1416  1.4723
10820TIP3    H232404   0.567   3.330   5.807  0.8746 -1.3992 -1.2695
10821TIP3   OH232405   0.181   3.983   4.626  0.1719  1.0434 -0.2526
10821TIP3    H132406   0.134   4.010   4.705 -0.4905 -1.5234  0.2794
10821TIP3    H232407   0.113   3.971   4.561  0.5040  1.1172 -0.6157
10822TIP3   OH232408   7.647   3.905   6.323 -0.3261  0.4963 -0.1074
10822TIP3    H132409   7.589   3.977   6.296  0.5396  1.7098  1.1550
10822TIP3    H232410   7.638   3.839   6.254 -0.8154  1.9946 -1.5103
10823TIP3   OH232411   7.261   4.453   4.600  0.4512  0.5091  0.0962
10823TIP3    H132412   7.274   4.537   4.644  0.3851  0.2625  0.5851
10823TIP3    H232413   7.213   4.475   4.520 -0.0625  0.8737  0.4975
10824TIP3   OH232414   6.967   2.439   3.453  0.5356 -0.5435 -0.0895
10824TIP3    H132415   6.935   2.404   3.536  0.5749 -1.4661 -0.4527
10824TIP3    H232416   7.016   2.517   3.476 -1.6893  0.7187  0.5281
10825TIP3   OH232417   7.601   3.929   3.680  0.5485  0.2251 -0.3305
10825TIP3    H132418   7.553   3.948   3.760  0.8805 -0.5719  0.0633
10825TIP3    H232419   7.626   3.838   3.688  0.5246  0.1179 -1.3815
10826TIP3   OH232420   7.696   4.309   5.114 -0.0698 -0.3190 -0.0485
10826TIP3    H132421   7.748   4.322   5.194  0.5627 -2.2640 -0.1282
10826TIP3    H232422   7.761   4.295   5.045 -0.6580 -0.2769 -0.6154
10827TIP3   OH232423   0.350   4.211   5.997 -0.4440 -0.4327 -0.3553
10827TIP3    H132424   0.386   4.182   5.913  0.3713 -2.4228  0.6503
10827TIP3    H232425   0.327   4.303   5.983  1.6666 -0.1278 -2.1268
10828TIP3   OH232426   7.700   2.943   4.588  0.0129 -0.1019  0.3345
10828TIP3    H132427   7.621   2.890   4.591 -0.1908  0.0652 -1.6364
10828TIP3    H232428   7.686   3.011   4.654 -0.5996 -1.2368  1.4194
10829TIP3   OH232429   2.467   7.524   0.074  0.3052 -0.5941  0.1301
10829TIP3    H132430   2.374   7.532   0.051  1.0321  0.6014 -2.4975
10829TIP3    H232431   2.488   7.432   0.058  0.0288 -0.4651 -0.9648
10830TIP3   OH232432   8.271   4.164   4.393  0.0962 -0.5097  0.1523
10830TIP3    H132433   8.302   4.143   4.481  4.3982  0.6295 -0.9606
10830TIP3    H232434   8.231   4.250   4.402  2.7131  0.7079  0.6290
10831TIP3   OH232435   0.552   5.988   4.537  0.1781  0.0736 -0.0632
10831TIP3    H132436   0.592   5.932   4.603  0.8901  1.5115  0.7473
10831TIP3    H232437   0.467   6.012   4.575  1.0579  1.8106  0.8549
10832TIP3   OH232438   7.124   2.268   4.663  0.1579 -0.7175  0.0825
10832TIP3    H132439   7.213   2.243   4.638  0.6501  1.1219 -0.0179
10832TIP3    H232440   7.093   2.194   4.715  1.3951 -1.7985 -0.6810
10833TIP3   OH232441   7.897   4.295   5.692  0.1965 -0.4635 -0.2451
10833TIP3    H132442   7.950   4.255   5.761 -1.9112 -0.8368  1.1971
10833TIP3    H232443   7.919   4.388   5.695  0.4877 -0.5553  0.5956
10834TIP3   OH232444   0.034   3.568   6.369 -0.8469  0.0391  0.0620
10834TIP3    H132445   0.118   3.612   6.382 -0.8680  0.3472 -0.8398
10834TIP3    H232446   0.050   3.509   6.296 -1.7275  0.9010 -0.8322
10835TIP3   OH232447   6.752   3.932   4.891  0.2713  0.0171  0.1873
10835TIP3    H132448   6.680   3.994   4.875 -0.9876 -0.9420  1.9957
10835TIP3    H232449   6.712   3.862   4.942  2.2540 -1.1054  0.2349
10836TIP3   OH232450   8.165   4.730   4.034  0.6475  0.2164  0.3229
10836TIP3    H132451   8.133   4.815   4.067 -0.8529  0.0801 -0.7275
10836TIP3    H232452   8.088   4.690   3.993  2.7251  1.0355 -4.7181
10837TIP3   OH232453   7.300   3.507   4.805 -0.5517 -0.5380  0.3642
10837TIP3    H132454   7.318   3.549   4.889  1.0083  0.8579 -0.6388
10837TIP3    H232455   7.334   3.418   4.814  1.8258  0.3324  0.4376
10838TIP3   OH232456   6.604   2.457   5.344  0.3382 -0.1672 -0.2189
10838TIP3    H132457   6.552   2.534   5.366  0.3202 -0.2124 -0.0985
10838TIP3    H232458   6.550   2.408   5.282  0.8236  0.4660 -1.1431
10839TIP3   OH232459   1.706   4.649   5.667 -0.0481  0.3408  0.0131
10839TIP3    H132460   1.616   4.663   5.636 -0.5007 -1.6482  0.3302
10839TIP3    H232461   1.721   4.556   5.653  2.5151  0.9456 -1.3779
10840TIP3   OH232462   6.296   3.464   6.011 -0.1677 -0.3612  0.2367
10840TIP3    H132463   6.207   3.497   5.995 -0.5680 -0.8924  1.3106
10840TIP3    H232464   6.342   3.479   5.929 -0.9249  0.9863  0.0337
10841TIP3   OH232465   7.378   2.793   3.342  0.3700 -0.4991 -0.3956
10841TIP3    H132466   7.399   2.776   3.250  0.7751 -0.2644 -0.3497
10841TIP3    H232467   7.447   2.748   3.391 -0.2149 -1.1721 -0.1831
10842TIP3   OH232468   0.192   6.977   0.387 -0.9050  0.4558  0.1624
10842TIP3    H132469   0.147   6.919   0.326 -1.8263 -0.3936  1.6253
10842TIP3    H232470   0.150   6.961   0.472  0.0584  1.9248  0.9494
10843TIP3   OH232471   8.219   3.574   4.754  0.4280 -0.1656  0.4540
10843TIP3    H132472   8.170   3.654   4.739 -2.5637 -1.7299  1.5224
10843TIP3    H232473   8.244   3.579   4.847  0.2927 -0.4428  0.5040
10844TIP3   OH232474   7.841   2.704   4.385  0.3999  0.0254 -0.8812
10844TIP3    H132475   7.843   2.791   4.423  1.8211 -0.5973  0.5459
10844TIP3    H232476   7.919   2.700   4.330  0.2505 -0.2958 -1.0734
10845TIP3   OH232477   7.004   3.422   5.773  0.2656 -0.0573 -0.2417
10845TIP3    H132478   7.048   3.337   5.774 -0.7830 -0.5983  0.6586
10845TIP3    H232479   7.063   3.480   5.822 -0.4011 -0.9862  1.7288
10846TIP3   OH232480   6.514   3.348   5.402 -0.3710 -0.2657 -0.4119
10846TIP3    H132481   6.496   3.375   5.491 -0.2218 -2.2232  0.2475
10846TIP3    H232482   6.593   3.395   5.377  0.2645 -0.6179  0.9301
10847TIP3   OH232483   7.249   1.938   5.728  0.3312  0.3072  0.5681
10847TIP3    H132484   7.232   2.032   5.732  1.0546  0.4481  0.3303
10847TIP3    H232485   7.339   1.931   5.697  1.1429 -0.3964  2.9754
10848TIP3   OH232486   7.994   3.932   5.118 -0.1405 -0.0844 -0.5583
10848TIP3    H132487   7.945   3.870   5.063 -1.2634  2.5225 -2.5883
10848TIP3    H232488   7.926   3.980   5.165  0.6622  0.4424  0.0664
10849TIP3   OH232489   1.151   5.021   6.092 -0.0589  0.0732  0.3067
10849TIP3    H132490   1.179   5.067   6.013 -0.0041  1.2707  0.9949
10849TIP3    H232491   1.132   5.092   6.154 -2.0194 -0.7918  0.7128
10850TIP3   OH232492   7.943   4.637   3.837  0.2052  0.7688  0.1575
10850TIP3    H132493   7.887   4.559   3.835  0.5613  0.5378 -1.1408
10850TIP3    H232494   7.915   4.685   3.915 -0.7864 -0.0946  0.3371
10851TIP3   OH232495   6.560   4.830   5.011  0.1475  0.4608 -0.1928
10851TIP3    H132496   6.501   4.899   5.041  0.8276  1.1376 -0.4053
10851TIP3    H232497   6.502   4.756   4.992 -0.8947  1.8721 -2.6370
10852TIP3   OH232498   1.513   3.006   5.328  0.3319 -0.6182 -0.3028
10852TIP3    H132499   1.555   3.067   5.389  1.1361 -0.1731 -1.2799
10852TIP3    H232500   1.544   2.920   5.356  0.6380 -0.4236 -0.0356
10853TIP3   OH232501   1.471   4.428   4.296  0.1949 -0.2953  0.1013
10853TIP3    H132502   1.376   4.424   4.281  0.3137 -0.0384 -0.7832
10853TIP3    H232503   1.480   4.426   4.391 -0.6522 -1.3109  0.1703
10854TIP3   OH232504   0.221   4.608   5.487 -0.5365 -0.3636 -0.3208
10854TIP3    H132505   0.281   4.677   5.460 -0.4035 -0.4140 -0.1526
10854TIP3    H232506   0.206   4.624   5.580  0.3103 -1.1762 -0.0394
10855TIP3   OH232507   0.888   2.118   5.982  0.3585  0.2462 -0.0440
10855TIP3    H132508   0.966   2.119   5.926  0.3488 -2.4137 -0.1568
10855TIP3    H232509   0.833   2.188   5.947  1.7209  0.7040 -1.3507
10856TIP3   OH232510   6.970   2.811   4.458 -0.1822 -0.6871 -0.0132
10856TIP3    H132511   7.030   2.768   4.398 -0.6601 -1.8034  0.3050
10856TIP3    H232512   7.000   2.785   4.545 -0.3149 -0.1599  0.1956
10857TIP3   OH232513   0.395   4.073   3.148  0.0960  0.0983  0.4597
10857TIP3    H132514   0.381   4.089   3.054  0.3444  0.6005  0.5072
10857TIP3    H232515   0.467   4.010   3.151 -1.2256 -1.4600  0.2564
10858TIP3   OH232516   1.180   3.343   3.875  0.4293  0.0243  0.1842
10858TIP3    H132517   1.221   3.346   3.962  1.4176 -0.3581 -0.2539
10858TIP3    H232518   1.087   3.334   3.893  0.5897  0.3102  1.2115
10859TIP3   OH232519   7.614   3.747   4.959 -0.2953  0.3068  0.1625
10859TIP3    H132520   7.579   3.832   4.932 -1.5661 -0.1961  0.2155
10859TIP3    H232521   7.550   3.713   5.022 -0.6748 -1.4379 -1.1186
10860TIP3   OH232522   0.060   4.351   6.628  0.1615 -0.0768 -0.1874
10860TIP3    H132523   0.060   4.436   6.671  1.9567  0.1451 -0.5694
10860TIP3    H232524   0.144   4.312   6.653 -0.9325 -2.0256  0.5321
10861TIP3   OH232525   1.233   3.197   6.424  0.6492  0.5848 -0.3573
10861TIP3    H132526   1.148   3.154   6.434  0.6293  0.9076  0.9205
10861TIP3    H232527   1.296   3.130   6.449  0.6589  1.0450  0.8459
10862TIP3   OH232528   0.612   3.699   3.272 -0.5142 -0.2569  0.4324
10862TIP3    H132529   0.562   3.702   3.354 -2.4499  1.6326 -0.7593
10862TIP3    H232530   0.701   3.676   3.298 -1.2964 -0.5230  2.9671
10863TIP3   OH232531   6.761   2.366   5.915 -0.1259  0.1091 -0.0872
10863TIP3    H132532   6.826   2.311   5.958 -0.5321 -0.2330  0.0874
10863TIP3    H232533   6.721   2.417   5.986 -1.0343 -0.7024 -0.0149
10864TIP3   OH232534   7.453   3.784   6.798  0.4411  0.4335 -0.8980
10864TIP3    H132535   7.506   3.856   6.762 -0.4060  0.7457 -1.5300
10864TIP3    H232536   7.384   3.771   6.733 -0.1878 -0.0574 -0.1307
10865TIP3   OH232537   8.117   4.362   3.314  0.7337  0.3719 -0.4945
10865TIP3    H132538   8.071   4.438   3.276 -0.9325 -0.5812 -0.4366
10865TIP3    H232539   8.067   4.342   3.393  1.0021 -0.9518 -0.6520
10866TIP3   OH232540   0.911   3.778   5.618  0.4767 -0.5324 -0.1188
10866TIP3    H132541   0.946   3.742   5.537  1.3172  2.0982 -0.9588
10866TIP3    H232542   0.984   3.775   5.680  0.3225 -0.9549  0.0476
10867TIP3   OH232543   0.331   5.157   6.141 -0.0165  1.0364 -0.3211
10867TIP3    H132544   0.271   5.165   6.067  2.0531 -1.6335 -2.3747
10867TIP3    H232545   0.306   5.075   6.183  0.8255  0.9886  0.0970
10868TIP3   OH232546   7.702   4.798   3.562 -0.1381 -0.2843 -0.3108
10868TIP3    H132547   7.721   4.714   3.519  2.1806 -0.0461  0.1568
10868TIP3    H232548   7.785   4.822   3.604 -0.8717  2.0586 -0.1354
10869TIP3   OH232549   7.850   5.042   6.062 -0.1112  0.8020  0.1506
10869TIP3    H132550   7.924   4.981   6.062  0.5615  1.5756  1.6815
10869TIP3    H232551   7.799   5.016   6.139 -1.2539  0.5006 -0.6980
10870TIP3   OH232552   8.128   2.094   5.885 -0.4725 -0.5252 -0.0241
10870TIP3    H132553   8.181   2.014   5.880  1.8866  1.0773 -1.3632
10870TIP3    H232554   8.079   2.096   5.803  0.8029  0.2755 -0.7861
10871TIP3   OH232555   0.135   4.219   4.294  0.0288  0.1651 -0.2101
10871TIP3    H132556   0.144   4.222   4.199  0.3907 -0.2226 -0.1898
10871TIP3    H232557   0.209   4.269   4.327  0.3472 -0.3666 -0.1142
10872TIP3   OH232558   7.955   2.399   6.455 -0.1252 -0.8585  0.0321
10872TIP3    H132559   7.909   2.318   6.476 -0.7176 -1.2722 -2.6615
10872TIP3    H232560   8.043   2.386   6.491 -0.4495 -2.3544  0.3354
10873TIP3   OH232561   8.300   2.597   5.483 -0.3111  0.3947 -0.5160
10873TIP3    H132562   8.326   2.509   5.457 -0.4395 -0.1521  1.1626
10873TIP3    H232563   8.205   2.594   5.487 -0.2549  0.1411  1.0730
10874TIP3   OH232564   7.411   5.089   4.573  0.4840 -0.1540  0.2251
10874TIP3    H132565   7.480   5.108   4.636 -0.6772 -0.9360  1.7550
10874TIP3    H232566   7.375   5.174   4.549  0.4439  0.0901  1.1613
10875TIP3   OH232567   7.453   4.926   6.140 -0.0818 -0.6289 -0.2345
10875TIP3    H132568   7.419   5.002   6.188 -0.7173  1.0240 -3.2203
10875TIP3    H232569   7.539   4.909   6.180 -0.1089  1.3832  0.7233
10876TIP3   OH232570   7.413   6.877   4.178 -0.0281  0.2221 -0.6583
10876TIP3    H132571   7.448   6.802   4.131  0.4068  0.7008 -1.1133
10876TIP3    H232572   7.476   6.948   4.160  0.2579  0.3642  0.7931
10877TIP3   OH232573   6.586   3.700   3.181 -0.0637 -0.0689 -0.1702
10877TIP3    H132574   6.610   3.708   3.089 -1.7212 -0.5736 -0.6611
10877TIP3    H232575   6.613   3.782   3.221 -0.5616  0.6916 -1.3988
10878TIP3   OH232576   4.720   1.534   1.080  0.6947  0.3369 -0.2425
10878TIP3    H132577   4.704   1.464   1.017 -0.8714  1.1569 -0.7983
10878TIP3    H232578   4.644   1.532   1.139  0.2645  1.9650 -0.6887
10879TIP3   OH232579   7.707   1.845   6.482 -0.1739 -0.1645 -0.4380
10879TIP3    H132580   7.773   1.910   6.458 -1.0442  1.4211  1.3120
10879TIP3    H232581   7.708   1.844   6.578 -1.2388 -1.6396 -0.4247
10880TIP3   OH232582   0.886   4.653   6.752  0.1103  0.5846  0.1963
10880TIP3    H132583   0.796   4.623   6.751  0.3693 -0.2028 -0.3460
10880TIP3    H232584   0.932   4.592   6.810  0.3413  0.8052  0.2470
10881TIP3   OH232585   0.166   1.868   5.334  0.3344 -1.4424  0.0852
10881TIP3    H132586   0.255   1.895   5.355 -0.0004 -1.0872  1.0852
10881TIP3    H232587   0.176   1.784   5.291  1.1893 -1.1667 -0.2718
10882TIP3   OH232588   2.073   7.525   1.049  0.7183  0.6690  0.3277
10882TIP3    H132589   2.027   7.501   1.130  1.5999  1.6427  1.1167
10882TIP3    H232590   2.016   7.491   0.980 -0.9509  1.3990  1.3048
10883TIP3   OH232591   6.018   4.561   3.130 -0.2327 -0.1342  0.1167
10883TIP3    H132592   6.112   4.577   3.145 -0.0976 -0.5696 -0.2495
10883TIP3    H232593   5.993   4.499   3.198  0.0879 -1.1401 -0.6675
10884TIP3   OH232594   0.578   3.405   4.844  0.0021  0.4449  0.2327
10884TIP3    H132595   0.488   3.397   4.874  0.6431 -1.3266  1.8148
10884TIP3    H232596   0.575   3.468   4.773 -2.8043 -1.1895 -1.1629
10885TIP3   OH232597   7.567   3.641   4.380 -0.0379 -0.2378 -0.5007
10885TIP3    H132598   7.644   3.619   4.432 -1.2105 -1.6603  0.6949
10885TIP3    H232599   7.509   3.686   4.441 -1.9484 -3.0143 -0.1499
10886TIP3   OH232600   7.667   2.797   3.973  0.4109 -0.0909 -0.6750
10886TIP3    H132601   7.695   2.869   4.030 -0.3662 -2.0107  2.2247
10886TIP3    H232602   7.742   2.783   3.915  2.8603 -0.6081  2.4393
10887TIP3   OH232603   7.353   4.447   5.860 -0.3865 -0.0749 -0.2964
10887TIP3    H132604   7.280   4.462   5.920  0.8829  0.7641  1.0762
10887TIP3    H232605   7.355   4.525   5.804  0.4797  0.6860  0.7716
10888TIP3   OH232606   2.869   5.137   6.286  0.7556  0.0173 -0.2807
10888TIP3    H132607   2.956   5.175   6.299  1.1368 -0.5776 -1.1103
10888TIP3    H232608   2.820   5.163   6.365  1.1702  1.7659 -0.5793
10889TIP3   OH232609   7.724   4.100   5.803 -0.2450  0.1567  0.2571
10889TIP3    H132610   7.632   4.125   5.804 -0.0170  1.0025  0.1110
10889TIP3    H232611   7.766   4.161   5.743  0.9324  1.6039  2.4611
10890TIP3   OH232612   0.346   2.124   4.585  0.0984  0.2080 -0.2360
10890TIP3    H132613   0.370   2.195   4.644 -1.1134 -0.4412  1.0611
10890TIP3    H232614   0.426   2.072   4.577  0.0568 -0.1271  1.4499
10891TIP3   OH232615   0.210   4.723   4.139  0.2071 -0.1408 -0.0866
10891TIP3    H132616   0.207   4.671   4.220 -2.2380 -0.8079 -0.5475
10891TIP3    H232617   0.214   4.657   4.069 -1.7226  0.2779 -0.6254
10892TIP3   OH232618   5.750   5.083   3.883  0.2213 -0.1592 -0.4250
10892TIP3    H132619   5.750   5.078   3.787 -0.6763 -1.4234 -0.3778
10892TIP3    H232620   5.675   5.138   3.905  0.1017 -0.3155 -0.4382
10893TIP3   OH232621   7.435   5.908   3.787  0.3364 -0.0057 -0.0764
10893TIP3    H132622   7.476   5.833   3.745 -0.4077  0.5473 -1.8329
10893TIP3    H232623   7.504   5.975   3.789  0.2575  0.0963 -0.7818
10894TIP3   OH232624   7.168   4.833   6.290 -0.3436 -0.4123  0.2925
10894TIP3    H132625   7.159   4.902   6.357 -1.3680 -0.9623  0.7273
10894TIP3    H232626   7.242   4.862   6.237 -1.3238  1.5307 -0.1020
10895TIP3   OH232627   6.778   4.175   6.009 -0.0274 -0.3761  0.1229
10895TIP3    H132628   6.814   4.202   5.924 -0.1592  0.7079  0.4080
10895TIP3    H232629   6.838   4.107   6.039 -1.3549 -2.5777 -1.9826
10896TIP3   OH232630   8.425   3.706   5.296  0.5025 -0.5467 -0.4147
10896TIP3    H132631   8.451   3.667   5.379 -0.3207 -0.0345  0.0854
10896TIP3    H232632   8.469   3.791   5.295 -0.4744 -0.0285  0.0606
10897TIP3   OH232633   1.259   1.964   5.926 -0.6466 -0.1058  0.2604
10897TIP3    H132634   1.222   1.898   5.868 -0.4711 -0.3298  0.4046
10897TIP3    H232635   1.347   1.932   5.947 -0.8736 -0.2423  0.9996
10898TIP3   OH232636   0.452   2.288   6.121 -0.2743 -0.2446 -0.2228
10898TIP3    H132637   0.477   2.372   6.082  0.2952  0.5571  1.8407
10898TIP3    H232638   0.453   2.227   6.047 -0.2688  1.4584 -1.6726
10899TIP3   OH232639   7.166   2.844   3.766  0.6134 -0.6351 -0.0019
10899TIP3    H132640   7.243   2.808   3.810  0.2083 -0.3807  0.9353
10899TIP3    H232641   7.094   2.826   3.826 -0.3641 -2.4035 -1.6298
10900TIP3   OH232642   1.792   2.926   5.871 -0.1691  0.2820 -0.3018
10900TIP3    H132643   1.709   2.884   5.849  0.5716 -1.3161 -0.1345
10900TIP3    H232644   1.768   3.015   5.898 -1.7528  0.0246 -0.8162
10901TIP3   OH232645   1.162   5.737   6.490 -0.4068  0.4125  0.1371
10901TIP3    H132646   1.161   5.675   6.417 -1.0610 -0.0592  0.5434
10901TIP3    H232647   1.172   5.823   6.449  0.1031  0.0761 -0.4520
10902TIP3   OH232648   7.344   5.899   5.889 -0.0118 -0.3604  0.0267
10902TIP3    H132649   7.437   5.894   5.867  0.0474  0.3294  0.1284
10902TIP3    H232650   7.302   5.930   5.809 -0.3457 -2.0402 -0.4839
10903TIP3   OH232651   1.436   5.638   6.234  0.1349  0.1920 -0.6589
10903TIP3    H132652   1.530   5.624   6.248  0.3148  1.5502 -0.4305
10903TIP3    H232653   1.432   5.722   6.188 -1.0830  1.1987  1.2403
10904TIP3   OH232654   0.286   3.928   6.273  0.0190 -0.9614  0.0283
10904TIP3    H132655   0.380   3.906   6.269  0.1196 -0.8600  1.6507
10904TIP3    H232656   0.253   3.907   6.185  1.4051 -1.7118 -0.3304
10905TIP3   OH232657   0.981   4.322   5.758 -0.5552  0.3974 -0.5045
10905TIP3    H132658   1.063   4.296   5.717 -0.3628  0.6975 -0.3094
10905TIP3    H232659   0.920   4.333   5.685 -1.0910 -2.1825 -0.4845
10906TIP3   OH232660   8.241   5.081   5.226  0.1909 -0.1413 -0.2566
10906TIP3    H132661   8.239   5.070   5.131 -0.9866 -1.0668 -0.1319
10906TIP3    H232662   8.287   5.003   5.258  0.4550  0.0979 -0.0568
10907TIP3   OH232663   8.418   5.968   4.874  0.3030 -0.1607  0.0573
10907TIP3    H132664   8.367   5.953   4.954  1.3970  0.9275  0.9920
10907TIP3    H232665   8.359   5.947   4.803 -1.4109  0.9925  1.1170
10908TIP3   OH232666   6.525   4.308   5.583 -0.1851 -0.2325 -0.7424
10908TIP3    H132667   6.570   4.224   5.585  0.5387  0.1798  0.8009
10908TIP3    H232668   6.590   4.370   5.550  0.5825  0.4301  1.8252
10909TIP3   OH232669   7.574   5.571   5.465 -0.0837  0.2014  0.1693
10909TIP3    H132670   7.593   5.516   5.389 -2.2885 -2.4411  1.4371
10909TIP3    H232671   7.610   5.523   5.540 -1.1645  0.9390  1.1933
10910TIP3   OH232672   6.181   3.552   6.247 -0.0517  0.2874 -0.1964
10910TIP3    H132673   6.271   3.562   6.216 -1.0890  2.3707 -2.7202
10910TIP3    H232674   6.149   3.475   6.200 -0.1666  0.6770 -0.7618
10911TIP3   OH232675   0.490   5.570   5.975 -0.3712 -1.4396 -0.0016
10911TIP3    H132676   0.456   5.647   5.929 -0.5968 -1.2249  0.5125
10911TIP3    H232677   0.440   5.568   6.057 -0.9090 -2.5810 -0.3568
10912TIP3   OH232678   7.482   2.811   3.058  0.2409 -0.3834 -0.5076
10912TIP3    H132679   7.570   2.849   3.060  0.4421 -0.8167 -0.8934
10912TIP3    H232680   7.427   2.880   3.021  0.7206 -0.6750 -1.8169
10913TIP3   OH232681   1.941   4.932   4.375  0.0841  0.5505 -0.3376
10913TIP3    H132682   1.904   5.018   4.395 -0.4965 -0.0046  1.0195
10913TIP3    H232683   1.864   4.876   4.362  0.4410 -0.2242  0.8156
10914TIP3   OH232684   8.426   1.139   3.128  0.0221  0.6522 -0.4535
10914TIP3    H132685   8.389   1.208   3.182  0.8228  0.9266 -0.2536
10914TIP3    H232686   8.352   1.105   3.079 -0.8045  0.0801  1.1560
10915TIP3   OH232687   7.777   5.929   3.607 -0.3814 -0.6498  0.9484
10915TIP3    H132688   7.765   5.908   3.514  2.0538 -1.7129  0.8463
10915TIP3    H232689   7.720   6.004   3.621  0.7516  0.8613 -1.9300
10916TIP3   OH232690   1.658   0.737   6.679 -0.0100 -0.0143  0.0306
10916TIP3    H132691   1.598   0.800   6.639  0.5236 -1.0493 -2.4752
10916TIP3    H232692   1.609   0.655   6.681  0.6431 -0.4096 -0.2328
10917TIP3   OH232693   1.227   3.462   6.267 -0.2949 -0.5849 -0.2589
10917TIP3    H132694   1.209   3.372   6.294  0.1117 -0.8161 -0.7660
10917TIP3    H232695   1.151   3.512   6.299 -0.1482 -0.9747  0.7016
10918TIP3   OH232696   4.792   8.021   0.465 -0.2185 -0.0772  0.4928
10918TIP3    H132697   4.878   8.029   0.507 -0.1508  0.4585  0.2590
10918TIP3    H232698   4.770   7.928   0.473  2.0630 -0.9836 -2.7121
10919TIP3   OH232699   7.378   0.111   0.533 -0.2463  0.0183  0.3247
10919TIP3    H132700   7.396   0.048   0.603 -0.5153 -1.3347 -0.8100
10919TIP3    H232701   7.463   0.127   0.493 -0.2920 -0.1724  0.1516
10920TIP3   OH232702   4.090   2.876   6.893  0.3835  0.3936  0.1996
10920TIP3    H132703   4.120   2.854   6.982  1.3991 -0.9421 -0.4658
10920TIP3    H232704   3.997   2.851   6.893  0.1956  1.0600  1.1020
10921TIP3   OH232705   1.853   6.308   5.987 -0.1945 -0.0455 -0.3196
10921TIP3    H132706   1.758   6.292   5.990 -0.4171  1.2516 -0.1291
10921TIP3    H232707   1.885   6.284   6.074 -0.2094 -1.2919 -0.6507
10922TIP3   OH232708   8.003   4.451   6.432 -0.0918 -0.1852  0.0209
10922TIP3    H132709   7.973   4.520   6.491  0.6473  0.5581 -0.4549
10922TIP3    H232710   7.979   4.370   6.476 -1.4835  0.3678  0.3294
10923TIP3   OH232711   7.907   0.682   0.628  0.4340 -0.3838  0.4243
10923TIP3    H132712   7.890   0.747   0.696  0.8711 -0.1410  0.3049
10923TIP3    H232713   7.830   0.625   0.629 -0.5891  0.9404 -0.3892
10924TIP3   OH232714   3.694   5.014   6.844 -0.0255 -0.5362  0.4281
10924TIP3    H132715   3.683   5.090   6.787 -1.5743  0.0060  1.4162
10924TIP3    H232716   3.705   5.051   6.932  2.7366 -1.3474  0.4797
10925TIP3   OH232717   7.499   0.964   2.680 -0.6298  0.1044  0.0532
10925TIP3    H132718   7.440   1.039   2.686 -1.4536 -0.5009 -0.4304
10925TIP3    H232719   7.443   0.888   2.693 -0.1401 -0.5266 -1.3772
10926TIP3   OH232720   2.216   3.511   4.907 -0.0296 -0.0008  0.2019
10926TIP3    H132721   2.182   3.542   4.990  1.6079  1.2274  0.4219
10926TIP3    H232722   2.167   3.560   4.841  0.7846  1.2201  0.5009
10927TIP3   OH232723   5.179   1.035   1.032  0.7399 -0.0864  0.4902
10927TIP3    H132724   5.239   1.086   1.086  0.1943  0.7112  0.3526
10927TIP3    H232725   5.213   1.045   0.943 -0.4914  1.6670  0.2022
10928TIP3   OH232726   1.224   2.923   5.768  0.3157  0.4465 -0.2809
10928TIP3    H132727   1.273   3.000   5.740 -0.0815  1.4908  1.7884
10928TIP3    H232728   1.191   2.884   5.687  3.6794  0.2812 -1.6354
10929TIP3   OH232729   1.941   5.772   6.402  0.4207 -0.1114 -0.3359
10929TIP3    H132730   2.029   5.746   6.375  0.8629  1.2770 -0.2532
10929TIP3    H232731   1.890   5.774   6.321 -0.1480 -3.1076 -0.1286
10930TIP3   OH232732   7.499   0.030   1.876  0.3863  0.2331  0.8590
10930TIP3    H132733   7.582  -0.017   1.870  0.6087  0.6538  0.6654
10930TIP3    H232734   7.521   0.121   1.856 -0.0873  0.3777  0.9969
10931TIP3   OH232735   4.723   7.112   0.670 -0.5574  0.1743 -0.1289
10931TIP3    H132736   4.733   7.025   0.633 -0.2368  0.7245 -1.3517
10931TIP3    H232737   4.632   7.115   0.701 -0.1617 -1.0743  1.2239
10932TIP3   OH232738   8.005   3.656   6.306  0.2135 -0.0510  0.2214
10932TIP3    H132739   8.093   3.659   6.269  0.2644 -0.8573  0.2666
10932TIP3    H232740   8.000   3.734   6.361  1.1847 -0.4117  0.8389
10933TIP3   OH232741   2.598   3.327   6.780 -0.3994 -0.4912 -0.4854
10933TIP3    H132742   2.576   3.321   6.687 -1.5495  0.3756 -0.2754
10933TIP3    H232743   2.516   3.312   6.826 -0.2785  1.2962  0.3415
10934TIP3   OH232744   7.652   2.900   5.842  0.6367 -0.6816 -0.1187
10934TIP3    H132745   7.739   2.937   5.855  1.5062 -2.5114 -0.6377
10934TIP3    H232746   7.618   2.887   5.931  0.5189  0.8408  0.0747
10935TIP3   OH232747   2.140   5.330   5.921 -0.6098  0.2791  0.0547
10935TIP3    H132748   2.229   5.319   5.887 -0.5633 -0.1674  0.3117
10935TIP3    H232749   2.144   5.410   5.973  0.3790 -1.2091  2.3930
10936TIP3   OH232750   5.799   0.593   0.332 -0.2531  0.1549 -0.3016
10936TIP3    H132751   5.802   0.499   0.317 -0.3221  0.0495  0.3363
10936TIP3    H232752   5.709   0.610   0.362  0.2596  0.1472  1.3202
10937TIP3   OH232753   2.571   7.621   0.496  0.4959 -0.3546 -0.0036
10937TIP3    H132754   2.665   7.636   0.505  0.6426  0.2625 -2.1493
10937TIP3    H232755   2.549   7.660   0.411 -1.5451 -1.2277  0.0987
10938TIP3   OH232756   1.842   4.893   5.952 -0.4317  0.3589  0.0908
10938TIP3    H132757   1.769   4.930   5.901  0.6787  0.6982 -1.2812
10938TIP3    H232758   1.899   4.967   5.969 -0.0622 -0.0365  0.5654
10939TIP3   OH232759   0.487   0.846   0.621  0.3369 -0.1910  0.4167
10939TIP3    H132760   0.471   0.753   0.637  0.0878  0.1478  2.2586
10939TIP3    H232761   0.400   0.885   0.610  0.4399 -0.1697 -0.3491
10940TIP3   OH232762   0.071   4.885   6.496 -0.3758 -0.6124 -0.1871
10940TIP3    H132763   0.131   4.866   6.424  0.1213  1.0510 -0.2333
10940TIP3    H232764   0.026   4.965   6.468 -0.6212 -0.3071  1.0872
10941TIP3   OH232765   8.363   0.115   0.137  0.0253 -0.0221 -0.1597
10941TIP3    H132766   8.348   0.209   0.123  0.2168  0.2483  1.3799
10941TIP3    H232767   8.456   0.108   0.157  0.0229 -0.5466 -0.3190
10942TIP3   OH232768   2.532   4.606   6.657  0.0803 -0.0488 -0.0462
10942TIP3    H132769   2.550   4.515   6.682  1.3368 -0.1443 -1.1828
10942TIP3    H232770   2.456   4.631   6.709 -0.7074 -1.9794 -0.2139
10943TIP3   OH232771   2.301   7.133   0.744 -0.4808 -0.3897  0.4414
10943TIP3    H132772   2.215   7.092   0.752 -1.2927  0.5000 -2.9314
10943TIP3    H232773   2.283   7.223   0.718  1.4628 -0.5656 -1.6550
10944TIP3   OH232774   5.817   7.037   0.138  0.1354 -0.0879  0.0295
10944TIP3    H132775   5.797   6.964   0.080  2.0404 -0.9906  0.4803
10944TIP3    H232776   5.833   7.110   0.078 -0.2551 -0.4141 -0.4800
10945TIP3   OH232777   4.018   7.846   1.163 -0.4120  0.1609 -0.1696
10945TIP3    H132778   4.035   7.874   1.073 -0.2136  1.6334  0.3043
10945TIP3    H232779   3.926   7.821   1.164 -0.0478 -1.2630 -1.1208
10946TIP3   OH232780   8.082   0.519   0.926 -0.6704  0.7870 -0.2064
10946TIP3    H132781   8.093   0.480   0.839  1.5204 -1.3644  0.9437
10946TIP3    H232782   8.137   0.597   0.924  0.9364 -0.3081 -0.1865
10947TIP3   OH232783   3.018   4.264   6.664 -0.0474  0.4797  0.3246
10947TIP3    H132784   3.052   4.246   6.577 -0.2883  1.5519 -0.0059
10947TIP3    H232785   3.063   4.344   6.692 -1.3453  1.2155  0.3934
10948TIP3   OH232786   7.066   0.423   2.909  0.0111 -0.4315  0.6312
10948TIP3    H132787   6.971   0.410   2.915  0.0786 -1.1938  0.0992
10948TIP3    H232788   7.090   0.389   2.823  0.8165 -0.5474  0.8957
10949TIP3   OH232789   6.740   0.070   0.132 -0.6423 -0.0059 -0.0894
10949TIP3    H132790   6.654   0.065   0.091 -1.1844  1.9494  0.7381
10949TIP3    H232791   6.730   0.025   0.215 -0.8578  0.2062 -0.0010
10950TIP3   OH232792   5.161   0.619   1.528 -0.6493  0.3911 -0.4583
10950TIP3    H132793   5.116   0.618   1.443 -0.1079  0.8470 -0.7547
10950TIP3    H232794   5.108   0.678   1.582 -3.0190 -2.6638  0.6606
10951TIP3   OH232795   4.288   8.033   0.131 -0.3699  0.0491 -0.5821
10951TIP3    H132796   4.281   8.047   0.225  1.7222  0.1802 -0.4196
10951TIP3    H232797   4.258   7.943   0.118  0.0945 -0.2354  0.3105
10952TIP3   OH232798   8.062   2.633   1.333  0.0873 -0.7439 -0.3488
10952TIP3    H132799   8.046   2.684   1.412 -0.7118 -1.3261 -0.1390
10952TIP3    H232800   8.047   2.694   1.261  0.3302 -0.3526 -0.0678
10953TIP3   OH232801   6.301   1.716   2.596 -0.3453  0.1532  0.1959
10953TIP3    H132802   6.277   1.805   2.621 -0.8718 -0.5085  2.0643
10953TIP3    H232803   6.243   1.696   2.523  0.7708  1.8596 -1.2139
10954TIP3   OH232804   0.600   0.322   0.466 -0.3973 -0.0683  0.0067
10954TIP3    H132805   0.584   0.238   0.425  0.2401 -0.1402 -0.1044
10954TIP3    H232806   0.690   0.345   0.441 -0.5214  0.5850  0.1318
10955TIP3   OH232807   7.562   0.444   1.017  0.1300 -0.1991  0.2055
10955TIP3    H132808   7.547   0.511   1.083 -1.0030 -1.9765  1.8161
10955TIP3    H232809   7.653   0.457   0.990  0.7229  0.3607  2.3627
10956TIP3   OH232810   0.393   0.970   0.074  0.2315  0.1447 -0.0748
10956TIP3    H132811   0.325   1.034   0.051  1.0567  1.3262  0.6804
10956TIP3    H232812   0.463   0.985   0.010 -0.7410 -1.9776 -1.6832
10957TIP3   OH232813   2.027   4.845   6.590 -0.2838 -0.0010 -0.2484
10957TIP3    H132814   2.109   4.806   6.560 -0.6144 -0.3748 -0.6716
10957TIP3    H232815   1.960   4.810   6.530 -0.9151 -0.5332  0.7624
10958TIP3   OH232816   0.796   3.451   4.461  0.3490 -0.1595  0.4834
10958TIP3    H132817   0.847   3.373   4.482  1.0570  0.1181 -0.1883
10958TIP3    H232818   0.748   3.471   4.542  1.6982 -0.1205  1.2843
10959TIP3   OH232819   1.583   6.351   6.014  0.0266 -0.2645  0.2167
10959TIP3    H132820   1.519   6.423   6.009 -0.0138 -0.2703  0.6598
10959TIP3    H232821   1.618   6.356   6.102 -2.0136 -2.5261  1.2205
10960TIP3   OH232822   0.755   1.116   3.218 -0.0986 -0.5960 -0.0092
10960TIP3    H132823   0.744   1.149   3.307  2.0532  0.5592 -0.1337
10960TIP3    H232824   0.792   1.028   3.229  1.9064  0.2486  0.2580
10961TIP3   OH232825   8.142   1.554   2.444  0.0226  0.2178 -0.0782
10961TIP3    H132826   8.081   1.492   2.405  1.1289 -1.2693  0.4622
10961TIP3    H232827   8.103   1.576   2.529  0.5430 -1.2938  0.5863
10962TIP3   OH232828   8.242   4.961   6.842 -0.6946 -0.0755 -0.0772
10962TIP3    H132829   8.270   4.874   6.812  2.1512  0.4392  0.9415
10962TIP3    H232830   8.244   4.955   6.938 -0.6529  1.0734  0.0012
10963TIP3   OH232831   1.138   5.686   5.684 -0.0580  0.1557 -0.2412
10963TIP3    H132832   1.106   5.646   5.765  1.5392 -0.4935  0.0863
10963TIP3    H232833   1.094   5.639   5.614  1.0623 -1.5574  0.1720
10964TIP3   OH232834   1.640   5.569   5.553 -0.6855 -0.6237 -0.2256
10964TIP3    H132835   1.662   5.629   5.624  0.6253 -1.5208  0.1384
10964TIP3    H232836   1.574   5.510   5.591 -0.4499 -0.7064  0.0608
10965TIP3   OH232837   2.086   0.501   2.009 -0.4136 -0.4004  0.3353
10965TIP3    H132838   2.010   0.458   2.049 -0.2125 -1.6655 -0.6130
10965TIP3    H232839   2.138   0.533   2.083 -2.1604  1.0132  0.9871
10966TIP3   OH232840   7.453   1.688   0.342  0.0250  0.0720 -0.2636
10966TIP3    H132841   7.531   1.669   0.289 -0.0778  0.1231 -0.4328
10966TIP3    H232842   7.429   1.777   0.318 -0.8803 -0.4120 -1.2074
10967TIP3   OH232843   7.092   7.498   1.608 -0.1398 -0.2079 -0.1020
10967TIP3    H132844   7.131   7.582   1.631 -1.5924  0.2666  0.7248
10967TIP3    H232845   7.000   7.518   1.594 -0.5305 -1.6933  0.2825
10968TIP3   OH232846   7.900   0.827   0.074  0.1405 -0.1326 -0.7058
10968TIP3    H132847   7.863   0.817   0.162 -0.8825  0.5593 -1.0510
10968TIP3    H232848   7.824   0.841   0.017  0.9061  1.1031 -1.4562
10969TIP3   OH232849   0.346   5.172   5.158 -0.3514  0.1226  0.2322
10969TIP3    H132850   0.358   5.078   5.143 -0.0598 -0.1686  2.2031
10969TIP3    H232851   0.303   5.203   5.079 -2.5965 -2.1016  0.5249
10970TIP3   OH232852   0.798   4.899   6.492  0.1614 -0.3830  0.0209
10970TIP3    H132853   0.809   4.853   6.575 -0.6497 -0.0886  0.2887
10970TIP3    H232854   0.715   4.866   6.457  0.5827 -0.6316 -0.7508
10971TIP3   OH232855   7.757   3.666   5.892  0.2281 -0.1416 -0.1468
10971TIP3    H132856   7.753   3.663   5.797  0.7810  1.7315 -0.2638
10971TIP3    H232857   7.841   3.708   5.911 -0.2244  0.2051  1.1402
10972TIP3   OH232858   1.593   4.476   6.143  0.2466  0.1674  0.3937
10972TIP3    H132859   1.637   4.507   6.064  2.0811  0.6794  1.5982
10972TIP3    H232860   1.505   4.515   6.137  0.1357 -0.3258 -1.6928
10973TIP3   OH232861   5.186   0.766   1.101 -0.1393  0.2162  0.8985
10973TIP3    H132862   5.174   0.822   1.024 -0.6530 -0.7921  0.2344
10973TIP3    H232863   5.130   0.805   1.168  0.3973  1.1668  0.8043
10974TIP3   OH232864   7.200   0.072   2.364 -0.0577 -0.4216 -0.6476
10974TIP3    H132865   7.174   0.161   2.339  1.2549  0.1707  0.0262
10974TIP3    H232866   7.247   0.084   2.447  0.9033 -1.6553 -1.0083
10975TIP3   OH232867   3.960   1.922   6.840  0.2503  0.2116  0.5352
10975TIP3    H132868   3.966   1.844   6.785  2.5995 -0.1879  1.3251
10975TIP3    H232869   3.957   1.995   6.777  3.0976 -0.2250 -0.1498
10976TIP3   OH232870   6.199   0.085   0.343 -0.4620  0.2760 -0.4979
10976TIP3    H132871   6.205   0.081   0.248 -2.0349 -1.5257 -0.5363
10976TIP3    H232872   6.180  -0.004   0.371  1.4603  0.4809  1.6436
10977TIP3   OH232873   4.210   5.100   6.207  0.1357 -0.4854 -0.1846
10977TIP3    H132874   4.296   5.060   6.195  0.0703 -0.4792 -0.6685
10977TIP3    H232875   4.148   5.038   6.168  0.0376  0.1094 -0.9842
10978TIP3   OH232876   0.999   4.106   5.528 -0.4100 -0.2693 -0.0508
10978TIP3    H132877   1.025   4.029   5.579 -0.7825 -0.3608  0.0031
10978TIP3    H232878   0.928   4.075   5.472 -1.1173  0.2277  0.5636
10979TIP3   OH232879   2.137   3.394   6.795  0.2739 -0.0696 -0.1260
10979TIP3    H132880   2.079   3.463   6.824 -0.2853 -0.3332 -0.6041
10979TIP3    H232881   2.171   3.424   6.711 -0.8092 -0.8490 -0.8524
10980TIP3   OH232882   1.319   0.700   0.065 -0.0377 -0.1253 -0.1706
10980TIP3    H132883   1.271   0.769   0.111 -0.1626 -1.5908  1.9603
10980TIP3    H232884   1.263   0.678  -0.010 -0.8918  0.7945  0.1811
10981TIP3   OH232885   0.684   0.065   0.358 -0.0637  0.1258 -0.0399
10981TIP3    H132886   0.767   0.027   0.389 -0.1619  0.7780  1.0471
10981TIP3    H232887   0.693   0.066   0.262 -0.3246 -3.2044 -0.1577
10982TIP3   OH232888   0.285   3.816   4.961 -0.1234 -0.0506  0.3021
10982TIP3    H132889   0.362   3.846   4.911 -0.1556 -1.3316 -0.5326
10982TIP3    H232890   0.315   3.736   5.004 -1.3031 -1.1418 -0.8764
10983TIP3   OH232891   4.447   4.397   6.334 -0.1385  0.1694 -0.3639
10983TIP3    H132892   4.539   4.397   6.308 -0.5386  1.0629 -1.9003
10983TIP3    H232893   4.426   4.305   6.351  0.6200 -0.2484 -1.5964
10984TIP3   OH232894   6.137   0.986   1.669 -0.2797 -0.6036  0.2453
10984TIP3    H132895   6.134   0.989   1.573 -2.9404 -3.1176  0.1726
10984TIP3    H232896   6.161   0.896   1.689 -0.5308 -0.3034  1.9302
10985TIP3   OH232897   0.605   5.331   4.415  0.0545  0.1164  0.1043
10985TIP3    H132898   0.555   5.407   4.447  0.2688  0.3607 -0.1361
10985TIP3    H232899   0.539   5.273   4.379 -0.0280  0.5964 -0.5320
10986TIP3   OH232900   0.427   1.873   2.662  0.1377 -0.3137  0.3162
10986TIP3    H132901   0.426   1.969   2.663 -0.7010 -0.3134 -0.4809
10986TIP3    H232902   0.341   1.847   2.695  0.1633 -0.7792  0.0311
10987TIP3   OH232903   8.287   0.186   1.086 -0.4033  0.6382  0.1338
10987TIP3    H132904   8.321   0.220   1.003 -0.0124 -1.2440 -0.5084
10987TIP3    H232905   8.348   0.116   1.110 -0.8343  0.7730  1.7341
10988TIP3   OH232906   6.951   0.450   2.138 -0.6000 -0.1976 -0.0280
10988TIP3    H132907   6.929   0.542   2.152 -0.9155 -0.6774  2.8559
10988TIP3    H232908   6.911   0.429   2.054 -1.7752  1.9025 -0.0481
10989TIP3   OH232909   3.037   6.089   6.173  0.2042  0.0198  0.0189
10989TIP3    H132910   3.015   6.114   6.083  1.7628 -0.6669 -0.5555
10989TIP3    H232911   3.108   6.147   6.198  0.1943 -0.2153  0.6009
10990TIP3   OH232912   4.990   7.526   1.182 -0.1282  0.3870 -0.1259
10990TIP3    H132913   5.052   7.565   1.120  0.4592  0.5762  0.5802
10990TIP3    H232914   4.904   7.548   1.147  0.1924  2.3080  0.2439
10991TIP3   OH232915   1.502   4.814   6.718  0.1042  0.0690 -0.0934
10991TIP3    H132916   1.463   4.849   6.798  0.3068 -0.5269  0.2686
10991TIP3    H232917   1.448   4.850   6.648  0.1427  0.8860  0.2855
10992TIP3   OH232918   4.170   7.585   1.597  0.7042  0.4403 -0.5036
10992TIP3    H132919   4.188   7.639   1.521 -1.0213  1.6885 -0.0684
10992TIP3    H232920   4.101   7.632   1.644 -0.9963 -2.2209 -0.2120
10993TIP3   OH232921   2.202   2.662   6.527 -0.3643 -0.0424  0.0857
10993TIP3    H132922   2.260   2.589   6.549  1.5706  1.7813  1.2723
10993TIP3    H232923   2.156   2.682   6.609  0.4153  1.1706  0.2435
10994TIP3   OH232924   6.534   0.076   0.607 -0.1098 -0.0310 -0.5385
10994TIP3    H132925   6.466   0.016   0.575 -0.1904  0.2129 -0.8180
10994TIP3    H232926   6.612   0.052   0.557 -0.0167 -0.2390 -0.2941
10995TIP3   OH232927   8.087   5.807   4.461 -0.7250 -0.3450  0.3099
10995TIP3    H132928   8.014   5.838   4.407 -1.4322  0.4466  1.6945
10995TIP3    H232929   8.160   5.799   4.400 -1.6070  0.1672 -0.8383
10996TIP3   OH232930   5.971   0.091   0.929  0.4402 -0.2794 -0.1460
10996TIP3    H132931   5.908   0.121   0.864 -1.3149 -0.1496  1.5481
10996TIP3    H232932   6.004   0.171   0.970  1.2113 -0.3778 -0.5634
10997TIP3   OH232933   2.522   4.924   6.120  0.0506 -0.3388 -0.0565
10997TIP3    H132934   2.564   4.876   6.191  0.2599 -0.8355 -0.5082
10997TIP3    H232935   2.594   4.965   6.072 -0.0944  0.0540  0.0617
10998TIP3   OH232936   3.491   6.508   1.994 -0.1952  0.2391 -0.3248
10998TIP3    H132937   3.469   6.418   1.969 -1.6346  0.6328 -0.5696
10998TIP3    H232938   3.584   6.506   2.013  0.0308 -1.0417 -1.4935
10999TIP3   OH232939   4.696   1.351   0.866  0.2966 -0.8061 -0.3937
10999TIP3    H132940   4.680   1.383   0.777  1.0232  1.0483  0.1160
10999TIP3    H232941   4.646   1.270   0.872 -1.8573  0.3799 -1.6756
11000TIP3   OH232942   0.654   3.108   4.439  0.1253 -0.2504 -0.2299
11000TIP3    H132943   0.674   3.032   4.385  0.3634 -0.5409  0.2642
11000TIP3    H232944   0.738   3.152   4.452  0.0481 -0.1092 -0.2047
11001TIP3   OH232945   7.694   0.148   1.341 -0.0947  0.2110  0.3735
11001TIP3    H132946   7.707   0.061   1.379  0.6235  1.5844  3.3226
11001TIP3    H232947   7.599   0.153   1.326  0.0566 -1.7850 -1.7151
11002TIP3   OH232948   2.080   5.171   5.354  0.1548  0.1725 -0.3559
11002TIP3    H132949   2.096   5.215   5.271  0.6181 -2.2795 -1.5836
11002TIP3    H232950   2.080   5.078   5.333 -1.6621 -0.4253  2.0448
11003TIP3   OH232951   8.077   1.475   1.310  0.0284 -0.2797  0.7611
11003TIP3    H132952   8.149   1.519   1.355  0.2873  0.6940 -0.5850
11003TIP3    H232953   7.999   1.502   1.359  0.3321  0.5858  0.7800
11004TIP3   OH232954   1.755   4.608   5.976 -1.3244 -0.2336  0.2052
11004TIP3    H132955   1.778   4.679   6.035 -0.2387 -1.4283  1.2495
11004TIP3    H232956   1.776   4.641   5.888  0.4883  0.2093  0.7989
11005TIP3   OH232957   5.126   2.827   3.748  0.0620 -0.0790  0.1473
11005TIP3    H132958   5.211   2.869   3.731 -0.0996  0.4175  0.5693
11005TIP3    H232959   5.132   2.743   3.702  0.9250 -0.2109  0.4851
11006TIP3   OH232960   0.828   5.861   4.136 -0.4458 -0.1528  0.2456
11006TIP3    H132961   0.903   5.920   4.145 -1.2379  1.2164 -1.8523
11006TIP3    H232962   0.843   5.793   4.202  2.8458 -0.1005 -0.3653
11007TIP3   OH232963   5.270   1.606   0.949 -0.0446 -0.2998 -0.5472
11007TIP3    H132964   5.274   1.676   1.013 -0.1920 -0.5509 -0.2630
11007TIP3    H232965   5.277   1.525   1.000 -2.3553 -0.5674 -0.6309
11008TIP3   OH232966   7.788   4.491   6.929  0.3574 -0.0019  0.3851
11008TIP3    H132967   7.800   4.423   6.996  1.3583 -0.7207 -0.5053
11008TIP3    H232968   7.844   4.463   6.857 -1.7077  0.0916 -1.2818
11009TIP3   OH232969   0.333   1.210   1.573 -0.1870 -0.4827  0.4114
11009TIP3    H132970   0.318   1.158   1.652 -0.1101  0.5178  1.0895
11009TIP3    H232971   0.308   1.299   1.597 -0.1146 -0.1539 -0.6761
11010TIP3   OH232972   2.456   4.720   5.250 -1.3049 -0.3950 -0.6858
11010TIP3    H132973   2.441   4.688   5.161  2.1031  0.1301 -1.5348
11010TIP3    H232974   2.475   4.813   5.239 -1.4349 -0.2024  0.6430
11011TIP3   OH232975   7.965   2.290   1.609 -0.4889 -0.6000 -0.8611
11011TIP3    H132976   7.915   2.257   1.535  1.0610 -1.2182 -1.6634
11011TIP3    H232977   7.950   2.227   1.680 -1.3828 -0.4041 -0.8757
11012TIP3   OH232978   2.988   4.082   5.671  0.4472 -0.9314  0.1330
11012TIP3    H132979   2.916   4.024   5.696 -0.8808 -0.8602 -3.3235
11012TIP3    H232980   3.049   4.026   5.624 -0.2851  0.1938 -2.2060
11013TIP3   OH232981   7.983   0.227   0.781 -0.0690  0.2858 -0.5334
11013TIP3    H132982   8.052   0.161   0.780 -0.0137  0.3390 -0.2925
11013TIP3    H232983   8.020   0.301   0.732  0.6805  0.9413  0.9808
11014TIP3   OH232984   0.915   4.920   4.432 -0.0566  0.9108  0.1987
11014TIP3    H132985   0.994   4.869   4.417 -0.1649  1.0645 -0.9459
11014TIP3    H232986   0.858   4.899   4.358 -1.7677 -0.4841  1.8608
11015TIP3   OH232987   8.268   0.869   0.636 -0.6908  0.2923  0.4008
11015TIP3    H132988   8.329   0.809   0.678 -1.3323 -1.0769 -0.6219
11015TIP3    H232989   8.264   0.841   0.545 -1.3204  1.6210 -0.0016
11016TIP3   OH232990   2.491   5.520   5.958 -0.2791  0.2331  0.1125
11016TIP3    H132991   2.580   5.483   5.957 -0.3540  0.0481  0.3896
11016TIP3    H232992   2.438   5.455   5.911 -0.7725 -0.9192  2.1966
11017TIP3   OH232993   7.813   1.022   0.518  0.2056  0.1190  0.3054
11017TIP3    H132994   7.733   1.071   0.498  0.5063 -0.1746 -1.7527
11017TIP3    H232995   7.864   1.081   0.573 -0.5321  1.1363 -0.0684
11018TIP3   OH232996   5.816   0.880   0.359  0.2500 -0.0738 -0.4089
11018TIP3    H132997   5.896   0.830   0.378  1.6673  1.1447 -2.9501
11018TIP3    H232998   5.768   0.825   0.297 -0.4422 -0.3496  0.3568
11019TIP3   OH232999   2.857   5.267   5.170  0.3508 -0.0746  0.2353
11019TIP3    H133000   2.856   5.214   5.249  1.8421  0.6743  0.7745
11019TIP3    H233001   2.844   5.356   5.200  0.0876  0.1212 -0.4470
11020TIP3   OH233002   1.112   6.301   5.191 -0.5646 -0.2585  0.1146
11020TIP3    H133003   1.134   6.336   5.277 -2.4630  1.1209  0.0647
11020TIP3    H233004   1.127   6.373   5.130 -0.2421 -0.9017 -0.5859
11021TIP3   OH233005   2.686   5.601   6.704  0.1669 -0.5273  0.2990
11021TIP3    H133006   2.751   5.565   6.764 -0.9753 -0.9142  1.3326
11021TIP3    H233007   2.733   5.669   6.656  1.5175 -1.2839  0.5159
11022TIP3   OH233008   1.648   5.823   6.448  0.2366  0.1346  0.3120
11022TIP3    H133009   1.743   5.832   6.437  0.1709  0.6985  0.1820
11022TIP3    H233010   1.636   5.735   6.486  0.6527 -0.7851 -1.6430
11023TIP3   OH233011   5.800   0.973   0.666 -0.4145 -0.3239  0.1601
11023TIP3    H133012   5.879   0.997   0.616 -0.1715 -1.1740  0.1164
11023TIP3    H233013   5.767   1.056   0.700  0.9589 -0.0417  0.8491
11024TIP3   OH233014   7.699   4.480   4.625  0.4705  0.4606  0.3692
11024TIP3    H133015   7.648   4.447   4.699  0.3151 -0.5867 -0.1910
11024TIP3    H233016   7.696   4.575   4.634 -3.1135  0.5067 -0.6506
11025TIP3   OH233017   2.059   3.810   5.100 -0.1756 -0.2795  0.3558
11025TIP3    H133018   1.966   3.819   5.121 -0.9083 -0.7776 -2.4550
11025TIP3    H233019   2.084   3.727   5.140 -0.9216 -0.1305  1.1539
11026TIP3   OH233020   2.800   3.220   5.097  0.7303 -0.2376  0.2446
11026TIP3    H133021   2.830   3.251   5.182  1.0388  0.6202 -0.1619
11026TIP3    H233022   2.831   3.287   5.035  0.1790 -0.6508 -0.4908
11027TIP3   OH233023   5.463   0.683   1.135  0.2004 -0.4252  0.1766
11027TIP3    H133024   5.381   0.729   1.117 -0.0194 -0.6992  0.4807
11027TIP3    H233025   5.440   0.617   1.201  0.6513 -0.5420  0.2193
11028TIP3   OH233026   3.973   7.510  -0.008 -0.0381 -0.4136 -0.3800
11028TIP3    H133027   3.928   7.495   0.075  0.7638  0.2715  0.1886
11028TIP3    H233028   4.057   7.464   0.002  0.3637  0.2820 -0.5211
11029TIP3   OH233029   7.570   2.038   1.310  0.3421  0.1574 -0.6252
11029TIP3    H133030   7.515   2.093   1.255 -1.0406 -0.6398 -0.0712
11029TIP3    H233031   7.508   1.988   1.363  1.6058 -0.8168 -0.0415
11030TIP3   OH233032   3.346   7.534   1.332 -0.4990 -0.1552  0.4230
11030TIP3    H133033   3.297   7.598   1.281 -0.1208 -1.2012 -1.2932
11030TIP3    H233034   3.283   7.464   1.350 -0.7390  0.3765  1.7664
11031TIP3   OH233035   5.746   0.654   4.111  0.0078  0.5814 -0.9851
11031TIP3    H133036   5.761   0.716   4.183 -0.1036  1.9304 -2.0910
11031TIP3    H233037   5.829   0.653   4.063 -0.2543  0.5154 -1.4413
11032TIP3   OH233038   7.631   2.700   1.189 -0.3006  0.3076 -0.7489
11032TIP3    H133039   7.712   2.680   1.143 -0.1050 -0.3086 -0.1577
11032TIP3    H233040   7.576   2.744   1.124  0.6560  1.0843 -1.0371
11033TIP3   OH233041   5.956   0.035   1.451  0.6159  0.1644 -0.0441
11033TIP3    H133042   5.951  -0.010   1.536 -0.2950 -1.0255 -0.7138
11033TIP3    H233043   5.865   0.055   1.429  0.8236  0.1896 -0.8918
11034TIP3   OH233044   1.324   5.184   4.498  0.0497 -0.1182  0.4444
11034TIP3    H133045   1.272   5.256   4.462 -0.5050 -0.8434 -0.2412
11034TIP3    H233046   1.406   5.187   4.450  0.6894  1.0847  1.5888
11035TIP3   OH233047   2.630   5.779   5.398 -0.3910 -0.2030 -0.4362
11035TIP3    H133048   2.542   5.796   5.364 -0.4747 -0.1716 -0.2030
11035TIP3    H233049   2.616   5.718   5.471 -0.1355 -0.9178 -0.9831
11036TIP3   OH233050   4.377   7.668   1.240  0.0427 -0.6321  0.0955
11036TIP3    H133051   4.300   7.698   1.289 -0.2417 -1.2091  0.0074
11036TIP3    H233052   4.417   7.601   1.296 -0.7433 -1.8833 -0.7955
11037TIP3   OH233053   1.475   3.787   5.642  0.0068  0.7285  0.7369
11037TIP3    H133054   1.417   3.727   5.689 -1.3440  3.6977  3.0226
11037TIP3    H233055   1.552   3.795   5.700  0.5366  0.5815  0.0563
11038TIP3   OH233056   8.090   0.461   0.670 -0.2494 -0.0795  0.1408
11038TIP3    H133057   8.057   0.536   0.620 -1.4298 -1.0839 -0.6080
11038TIP3    H233058   8.155   0.421   0.611  1.1325  0.9214  0.9459
11039TIP3   OH233059   1.887   5.073   6.216  0.1240 -0.1145  0.2630
11039TIP3    H133060   1.888   5.117   6.131  0.6554  0.4600  0.5683
11039TIP3    H233061   1.938   4.993   6.203  1.1431  0.5209  0.3362
11040TIP3   OH233062   0.920   2.911   5.853 -0.2875 -0.7371 -0.2826
11040TIP3    H133063   1.001   2.955   5.826 -1.1376  0.2654 -1.3008
11040TIP3    H233064   0.855   2.940   5.789 -1.8736 -0.0890  1.5658
11041TIP3   OH233065   0.032   4.494   5.313 -0.4642 -0.1261 -0.2819
11041TIP3    H133066   0.064   4.584   5.314 -1.2823  0.1733 -0.2530
11041TIP3    H233067   0.082   4.449   5.381  0.7448  0.0218 -1.0721
11042TIP3   OH233068   0.354   1.152   0.975  0.5247  0.0699 -0.4145
11042TIP3    H133069   0.368   1.103   0.893 -1.3622 -0.9610 -0.1396
11042TIP3    H233070   0.392   1.238   0.958  1.8744 -0.7605 -1.7028
11043TIP3   OH233071   6.706   1.028   0.257  0.4509 -0.5063  0.1362
11043TIP3    H133072   6.723   1.096   0.192  1.4709 -1.0660 -0.1910
11043TIP3    H233073   6.691   0.949   0.206  0.1033 -0.7015  0.5413
11044TIP3   OH233074   7.700   0.664   1.880 -0.3718  0.4107 -0.0775
11044TIP3    H133075   7.647   0.671   1.800 -0.5662  0.9433  0.0951
11044TIP3    H233076   7.789   0.681   1.851 -0.0941 -1.8808 -0.6163
11045TIP3   OH233077   2.419   4.302   6.436 -0.0092  0.6133  0.4010
11045TIP3    H133078   2.361   4.230   6.463  0.6051  0.3249  0.9719
11045TIP3    H233079   2.494   4.259   6.396  0.4510  0.9292  0.9191
11046TIP3   OH233080   0.442   2.228   1.888 -0.1271 -0.4648  0.1254
11046TIP3    H133081   0.484   2.146   1.861 -1.6912 -1.2204 -0.0849
11046TIP3    H233082   0.468   2.239   1.979  1.2020 -0.4805 -0.2470
11047TIP3   OH233083   5.240   2.103   1.051 -0.2021  0.1134 -0.7270
11047TIP3    H133084   5.298   2.132   0.981  0.4635 -1.1168 -0.7047
11047TIP3    H233085   5.170   2.168   1.053  1.0797  1.5309 -0.8678
11048TIP3   OH233086   7.260   1.037   1.808  0.5056 -0.5087 -0.2217
11048TIP3    H133087   7.337   1.072   1.763 -0.2382  1.0822 -0.2909
11048TIP3    H233088   7.185   1.077   1.762 -0.2872  0.7189  2.0753
11049TIP3   OH233089   4.940   7.714   0.074 -0.1312 -0.2877  0.2306
11049TIP3    H133090   4.998   7.759   0.136 -0.8407 -0.7293  1.2360
11049TIP3    H233091   4.886   7.783   0.037  1.1150  0.1473 -0.8147
11050TIP3   OH233092   4.661   7.501   2.849 -0.2391 -0.7161 -0.1005
11050TIP3    H133093   4.598   7.467   2.912  1.9486 -1.8020  1.5922
11050TIP3    H233094   4.733   7.534   2.903  0.8449  0.0579 -1.9768
11051TIP3   OH233095   7.935   0.748   1.765  0.5049  0.0278 -0.6784
11051TIP3    H133096   7.979   0.795   1.835  1.4325 -2.1791  0.2722
11051TIP3    H233097   8.002   0.690   1.729 -0.2823  0.2598 -2.6237
11052TIP3   OH233098   5.651   0.264   0.554  0.2117 -0.4554  0.7087
11052TIP3    H133099   5.660   0.355   0.581 -0.2388  0.2652 -1.4384
11052TIP3    H233100   5.684   0.262   0.464 -0.1915 -2.3122  0.5759
11053TIP3   OH233101   8.270   0.153   2.531 -0.5493  0.0405  0.0173
11053TIP3    H133102   8.213   0.193   2.596  0.0703 -0.7422  1.0647
11053TIP3    H233103   8.277   0.219   2.462 -1.9048  0.5422  0.3305
11054TIP3   OH233104   0.546   4.637   5.509  0.2779  0.6308 -0.3395
11054TIP3    H133105   0.630   4.604   5.479  0.0039 -2.0486  1.5927
11054TIP3    H233106   0.550   4.629   5.605 -2.2435  0.1973 -0.2272
11055TIP3   OH233107   0.513   1.188   0.414 -0.1465 -0.4713  0.3173
11055TIP3    H133108   0.449   1.126   0.380 -1.1454  0.7582 -0.0912
11055TIP3    H233109   0.467   1.235   0.483 -0.1400  1.3435 -0.8681
11056TIP3   OH233110   7.199   3.311   0.914 -0.0621  0.0143 -0.4492
11056TIP3    H133111   7.112   3.337   0.882 -0.6335  0.9014  1.7307
11056TIP3    H233112   7.257   3.382   0.888 -0.0509 -0.3779 -1.5363
11057TIP3   OH233113   5.595   7.944   4.903 -0.8755 -0.1314 -0.1833
11057TIP3    H133114   5.585   7.888   4.980 -0.3852  3.5204  2.6643
11057TIP3    H233115   5.689   7.947   4.887 -1.1095 -2.6749 -2.4141
11058TIP3   OH233116   1.683   3.533   6.524 -0.4837  0.0163 -0.7040
11058TIP3    H133117   1.616   3.501   6.583 -1.2346  3.0369  0.1452
11058TIP3    H233118   1.749   3.572   6.581  1.2656 -1.4993 -1.6172
11059TIP3   OH233119   6.318   7.184   1.165 -0.4561 -0.1318  0.2848
11059TIP3    H133120   6.360   7.138   1.092 -1.4306  0.2058 -0.4977
11059TIP3    H233121   6.296   7.270   1.129 -0.9834  0.0235  0.9725
11060TIP3   OH233122   7.308   0.262   0.918  0.1059 -0.0931 -0.1414
11060TIP3    H133123   7.396   0.238   0.946  0.8003  0.7037 -1.5868
11060TIP3    H233124   7.270   0.181   0.885 -0.1450 -0.6944  1.5749
11061TIP3   OH233125   1.297   5.969   6.335 -0.3992 -0.2433 -0.1260
11061TIP3    H133126   1.358   6.015   6.393 -1.1089 -1.0535  1.3039
11061TIP3    H233127   1.351   5.903   6.291  0.1628  0.4174 -0.4185
11062TIP3   OH233128   0.122   4.609   6.691 -0.3070  0.0434  0.0792
11062TIP3    H133129   0.203   4.593   6.643  0.6661  2.3498  0.8529
11062TIP3    H233130   0.123   4.703   6.707 -2.9380  0.0197  0.4946
11063TIP3   OH233131   2.517   4.342   6.708 -0.3781  0.0165 -0.2247
11063TIP3    H133132   2.464   4.330   6.628 -0.5088  0.3528 -0.1897
11063TIP3    H233133   2.574   4.265   6.710 -1.6701 -0.9599  0.3534
11064TIP3   OH233134   1.033   3.621   6.416 -0.2351 -0.4660  0.8226
11064TIP3    H133135   1.027   3.598   6.509 -2.9817  0.6698  0.9924
11064TIP3    H233136   1.063   3.712   6.415  1.2968 -0.9628  0.5201
11065TIP3   OH233137   8.135   1.666   2.163  0.2135  0.2353  0.6816
11065TIP3    H133138   8.047   1.632   2.181  0.0499  0.8252  1.0252
11065TIP3    H233139   8.194   1.607   2.210  0.0322 -0.3996  0.1243
11066TIP3   OH233140   4.977   7.190   1.266 -0.0957 -0.2765  0.1082
11066TIP3    H133141   4.923   7.113   1.245  3.0906 -2.5037 -0.1931
11066TIP3    H233142   4.995   7.230   1.182 -0.5307 -0.0515  0.1220
11067TIP3   OH233143   3.093   5.248   6.022 -0.2851 -0.5014  0.2793
11067TIP3    H133144   3.129   5.162   6.042  0.6839 -0.3657 -0.8356
11067TIP3    H233145   3.082   5.248   5.927 -1.2672  0.2255  0.3845
11068TIP3   OH233146   3.775   5.995   6.870 -0.0879 -0.6951  0.3907
11068TIP3    H133147   3.820   6.075   6.842  0.8600 -1.1038  0.7012
11068TIP3    H233148   3.733   6.019   6.953 -2.0029  0.2091 -0.7990
11069TIP3   OH233149   5.948   7.436   0.143  0.3125 -0.8772 -0.0599
11069TIP3    H133150   5.854   7.421   0.135  0.1499  0.7589 -1.4491
11069TIP3    H233151   5.988   7.356   0.108 -0.5448 -1.1746 -0.3790
11070TIP3   OH233152   2.137   4.579   6.069  0.1219  0.1035 -0.5941
11070TIP3    H133153   2.052   4.535   6.074 -0.3363  0.9744 -0.6765
11070TIP3    H233154   2.199   4.514   6.102 -0.4809 -0.7879 -1.2007
11071TIP3   OH233155   7.544   1.046   2.968  0.0392 -0.3618 -0.0893
11071TIP3    H133156   7.568   1.020   2.879 -1.6894 -0.0068 -0.6833
11071TIP3    H233157   7.600   0.993   3.025  0.6258 -1.1345 -1.3759
11072TIP3   OH233158   1.295   3.519   5.668  0.6170  0.4858  0.4497
11072TIP3    H133159   1.273   3.529   5.575  1.2066  0.7512  0.3341
11072TIP3    H233160   1.346   3.438   5.672  0.8883  0.6581  0.4889
11073TIP3   OH233161   5.280   1.344   1.033 -0.1966 -0.1715 -0.3381
11073TIP3    H133162   5.340   1.286   1.080  0.2466  0.7936  0.2923
11073TIP3    H233163   5.250   1.292   0.958 -0.5990 -1.5843  0.7813
11074TIP3   OH233164   6.434   0.703   0.946 -0.8139 -0.4760 -0.0107
11074TIP3    H133165   6.505   0.639   0.940 -2.2756 -2.2865  1.4028
11074TIP3    H233166   6.416   0.729   0.855  1.1561 -0.5001 -0.4322
11075TIP3   OH233167   1.998   3.700   4.797  0.1112  0.3662 -0.5195
11075TIP3    H133168   1.987   3.719   4.703 -0.5196 -0.0762 -0.5391
11075TIP3    H233169   1.908   3.689   4.829  0.3565 -0.0565  0.0144
11076TIP3   OH233170   7.726   3.743   6.829  0.2709  0.1537  0.1307
11076TIP3    H133171   7.735   3.836   6.849  0.0817  0.6030 -1.7685
11076TIP3    H233172   7.633   3.731   6.812  0.3702 -0.2694 -0.1247
11077TIP3   OH233173   6.677   2.019   0.062  0.2700  0.4920  0.1880
11077TIP3    H133174   6.698   2.038   0.153 -1.7386 -0.3928  0.8585
11077TIP3    H233175   6.668   2.105   0.021 -2.4294  1.0009  1.7043
11078TIP3   OH233176   0.814   2.689   0.610 -0.4738 -0.0376  0.1977
11078TIP3    H133177   0.762   2.678   0.530 -2.2342 -2.0136  1.5843
11078TIP3    H233178   0.767   2.640   0.677  2.1438 -0.2476  1.9568
11079TIP3   OH233179   6.247   0.060   2.622  0.3371  0.3481 -0.5544
11079TIP3    H133180   6.296   0.136   2.590 -0.7611  0.9919 -0.7181
11079TIP3    H233181   6.200   0.028   2.545 -1.3481  1.1541  0.1229
11080TIP3   OH233182   2.431   7.128   1.334  0.1348 -0.8127  0.1422
11080TIP3    H133183   2.465   7.082   1.258 -1.3778 -2.7936  0.6187
11080TIP3    H233184   2.337   7.110   1.334 -0.2450  0.9818  1.2484
11081TIP3   OH233185   6.878   1.127   0.772  0.7837  0.1214 -0.4434
11081TIP3    H133186   6.817   1.068   0.727  0.6464  0.7528 -1.0974
11081TIP3    H233187   6.933   1.070   0.825 -0.1738 -0.4872 -0.0934
11082TIP3   OH233188   7.857   3.306   0.932  0.4570 -0.0565  0.3560
11082TIP3    H133189   7.838   3.333   1.022  0.2977 -1.3357  0.7065
11082TIP3    H233190   7.930   3.362   0.905  1.1623 -0.3629  1.6189
11083TIP3   OH233191   1.920   4.773   4.882 -1.0477  0.2273  0.1846
11083TIP3    H133192   1.938   4.756   4.975 -1.2353  2.9056  0.7337
11083TIP3    H233193   1.884   4.861   4.880 -0.9924  0.2239 -2.4607
11084TIP3   OH233194   6.622   1.807   0.649  0.1723  0.5854  0.0150
11084TIP3    H133195   6.690   1.741   0.633 -1.4000 -1.5987  1.9771
11084TIP3    H233196   6.541   1.766   0.616 -0.4001  2.6744 -1.2488
11085TIP3   OH233197   7.042   0.463   0.063  0.7839 -0.3040  0.4522
11085TIP3    H133198   7.002   0.504  -0.014  1.8085 -0.2488 -0.0483
11085TIP3    H233199   6.972   0.409   0.100  0.2516 -0.2334 -0.4423
11086TIP3   OH233200   8.447   4.308   6.247  0.3202 -0.8845  0.8793
11086TIP3    H133201   8.411   4.382   6.296  0.5303 -0.4866  0.4371
11086TIP3    H233202   8.507   4.266   6.309  0.8130 -0.2034  0.8715
11087TIP3   OH233203   6.216   1.228   1.991 -0.9206 -0.1623  0.0345
11087TIP3    H133204   6.128   1.203   1.963 -1.0152 -0.5065  0.6288
11087TIP3    H233205   6.274   1.190   1.926 -1.3093  1.5066 -1.3293
11088TIP3   OH233206   2.005   4.690   6.331  0.8252 -0.0927  0.1282
11088TIP3    H133207   2.043   4.737   6.257  1.2363 -0.7989 -0.1188
11088TIP3    H233208   2.073   4.628   6.357  0.1582 -0.7993  0.2115
11089TIP3   OH233209   1.938   5.618   6.640  0.5919 -0.0530  0.7072
11089TIP3    H133210   1.887   5.667   6.704 -2.2068 -0.3668 -1.2004
11089TIP3    H233211   1.942   5.675   6.563 -0.3199 -1.6567 -0.5556
11090TIP3   OH233212   2.377   3.734   5.411 -0.6639  0.1075 -0.1656
11090TIP3    H133213   2.316   3.797   5.373 -1.2060 -0.2585  0.0873
11090TIP3    H233214   2.326   3.689   5.478 -0.0291 -0.0049  0.2432
11091TIP3   OH233215   7.233   0.132   1.927  0.2416  0.1691  0.4615
11091TIP3    H133216   7.319   0.090   1.922  0.7118  1.2373 -0.6573
11091TIP3    H233217   7.198   0.126   1.838 -0.7385 -0.0241  0.8531
11092TIP3   OH233218   1.035   5.285   6.707 -0.3708 -0.1992  0.1941
11092TIP3    H133219   0.942   5.267   6.691 -1.5347  1.2669  4.6158
11092TIP3    H233220   1.041   5.380   6.712  1.1047 -0.3242  1.2261
11093TIP3   OH233221   8.148   3.686   5.198  0.0749 -0.4189  0.2183
11093TIP3    H133222   8.113   3.766   5.159  0.4081 -0.0419  0.6873
11093TIP3    H233223   8.232   3.713   5.237 -0.3374 -0.7486  1.3497
11094TIP3   OH233224   2.424   5.315   6.231 -0.7638  1.0078 -0.0408
11094TIP3    H133225   2.386   5.247   6.287 -0.3706 -0.5362 -1.6330
11094TIP3    H233226   2.489   5.357   6.287 -0.6805 -0.2392  0.8282
11095TIP3   OH233227   0.169   4.185   6.378  0.8015  0.5314  0.1514
11095TIP3    H133228   0.245   4.133   6.350 -0.8086 -1.6871 -0.2371
11095TIP3    H233229   0.186   4.203   6.471  2.8800  2.0396 -0.4861
11096TIP3   OH233230   4.869   7.391   0.668  0.2267 -0.4714  0.0030
11096TIP3    H133231   4.813   7.320   0.700 -0.4284 -1.0247 -2.2861
11096TIP3    H233232   4.807   7.462   0.648  0.4366 -0.6924 -1.4901
11097TIP3   OH233233   1.501   5.504   0.446  0.7414  0.3457 -0.1770
11097TIP3    H133234   1.426   5.562   0.429  0.0572 -0.0157  1.5295
11097TIP3    H233235   1.554   5.551   0.510  0.2995 -0.7785  1.0461
11098TIP3   OH233236   3.588   7.618   0.733 -0.0031  0.4454 -0.1155
11098TIP3    H133237   3.502   7.639   0.768 -0.2914 -1.5329  0.4067
11098TIP3    H233238   3.649   7.640   0.804 -0.3448 -0.8522  0.6029
11099TIP3   OH233239   1.010   2.780   6.785 -0.5233 -0.3315 -0.1367
11099TIP3    H133240   0.996   2.743   6.698  1.9521 -1.5098 -0.0730
11099TIP3    H233241   1.033   2.705   6.839 -0.7198  0.5867  1.2374
11100TIP3   OH233242   5.682   7.498   2.992 -0.4536  0.1854  0.3442
11100TIP3    H133243   5.712   7.540   2.912 -0.7087  1.1303  0.7373
11100TIP3    H233244   5.744   7.426   3.006 -0.7062 -0.2905 -0.9598
11101TIP3   OH233245   4.038   5.015   6.488  0.0531 -0.7184  0.0630
11101TIP3    H133246   4.039   5.101   6.447  0.4546 -0.7868 -0.0735
11101TIP3    H233247   3.949   5.005   6.522 -0.4832 -0.9415 -1.3803
11102TIP3   OH233248   5.299   4.334   6.604  0.0943  0.1812  0.0728
11102TIP3    H133249   5.242   4.359   6.531  0.6911 -1.2514 -0.9056
11102TIP3    H233250   5.322   4.417   6.645 -1.6050  0.8791 -0.3333
11103TIP3   OH233251   3.524   4.783   6.780 -0.5630  0.4532  0.4420
11103TIP3    H133252   3.591   4.845   6.810  1.0425 -0.6192 -0.8381
11103TIP3    H233253   3.464   4.836   6.728  0.0856  1.1901  0.4304
11104TIP3   OH233254   3.031   6.570   5.986  0.0053 -0.1576  0.3100
11104TIP3    H133255   3.082   6.627   6.044 -0.4488  0.2359  0.3339
11104TIP3    H233256   3.023   6.488   6.034  0.2130 -0.0629  0.5096
11105TIP3   OH233257   5.755   4.678   6.345 -0.2981 -0.6382  0.1868
11105TIP3    H133258   5.679   4.735   6.353  0.4994  0.6050 -0.9557
11105TIP3    H233259   5.818   4.712   6.408 -0.1698 -0.8251  0.1619
11106TIP3   OH233260   1.687   6.041   5.868 -0.2512  0.0056  0.0605
11106TIP3    H133261   1.753   6.077   5.809 -1.1000 -0.4345 -1.1720
11106TIP3    H233262   1.685   5.948   5.847 -0.3886 -0.2011  0.9635
11107TIP3   OH233263   2.249   4.599   5.403  0.5636 -0.3335  0.9871
11107TIP3    H133264   2.300   4.621   5.324  0.6163  0.4936  1.2425
11107TIP3    H233265   2.215   4.683   5.433 -1.1646 -0.8986  0.6901
11108TIP3   OH233266   3.492   5.968   5.084 -0.1885  0.5694 -0.7706
11108TIP3    H133267   3.472   5.877   5.059  1.4288 -0.2873  0.9434
11108TIP3    H233268   3.429   5.988   5.153  1.6799 -0.4917  1.3001
11109TIP3   OH233269   6.050   4.839   4.556 -0.0396 -0.3580  0.0982
11109TIP3    H133270   6.132   4.889   4.559 -2.0001  2.9238  3.6574
11109TIP3    H233271   6.062   4.769   4.621 -0.6483  1.1834  1.9037
11110TIP3   OH233272   0.854   2.777   1.198 -0.0907  0.1372  0.0327
11110TIP3    H133273   0.943   2.786   1.233 -0.5355  0.0553  1.1963
11110TIP3    H233274   0.820   2.698   1.240 -0.8705  0.4228 -0.0587
11111TIP3   OH233275   3.504   1.427   6.490 -0.4565  0.1398 -0.0448
11111TIP3    H133276   3.533   1.351   6.540 -0.1306 -1.4180 -2.5005
11111TIP3    H233277   3.408   1.424   6.494 -0.4248  0.1369  0.6386
11112TIP3   OH233278   6.969   6.364   1.393  0.1266  0.7252 -0.0521
11112TIP3    H133279   7.056   6.341   1.425 -0.5310 -1.2675  0.3794
11112TIP3    H233280   6.984   6.438   1.334  2.2693 -0.3403 -0.9058
11113TIP3   OH233281   5.466   7.071   0.666 -0.5096  0.0501  0.2801
11113TIP3    H133282   5.386   7.117   0.641  0.2353 -0.0458 -2.4391
11113TIP3    H233283   5.525   7.140   0.697 -0.6149  0.4895 -0.4985
11114TIP3   OH233284   3.194   2.720   6.272  1.1036  0.7145  0.0476
11114TIP3    H133285   3.115   2.738   6.323  1.0641 -0.3695  0.3918
11114TIP3    H233286   3.229   2.640   6.311 -0.3880 -1.6989 -3.3151
11115TIP3   OH233287   4.018   5.783   6.076  0.5143  0.0146 -0.3845
11115TIP3    H133288   4.065   5.706   6.108 -1.7063 -1.4649 -0.5911
11115TIP3    H233289   3.937   5.784   6.127  0.6766  2.4357 -0.1345
11116TIP3   OH233290   4.131   4.860   4.852  0.2868 -0.1024 -0.4325
11116TIP3    H133291   4.063   4.792   4.852  3.7279 -3.6792  0.4210
11116TIP3    H233292   4.168   4.857   4.764  1.4068 -0.3374  0.0393
11117TIP3   OH233293   6.023   3.873   6.683 -0.5479 -0.0946  0.4704
11117TIP3    H133294   6.049   3.964   6.692 -2.5625  0.6668 -1.1616
11117TIP3    H233295   6.011   3.843   6.773  2.2498  0.5699  1.1244
11118TIP3   OH233296   3.625   4.088   6.446  0.5371 -0.7412  0.2547
11118TIP3    H133297   3.553   4.146   6.422  0.0091 -1.5166 -0.0609
11118TIP3    H233298   3.627   4.090   6.541 -0.1746 -1.0495  0.2757
11119TIP3   OH233299   1.849   0.892   0.890  0.6626  0.0777 -0.5609
11119TIP3    H133300   1.930   0.919   0.933  1.0081 -1.8394  0.0268
11119TIP3    H233301   1.780   0.940   0.936  1.6242  3.9690 -2.9237
11120TIP3   OH233302   1.903   4.041   6.284 -0.8079 -0.2284  0.0013
11120TIP3    H133303   1.926   3.961   6.237 -1.5401  0.0679 -0.8801
11120TIP3    H233304   1.809   4.034   6.299 -0.6447 -0.1601  1.1452
11121TIP3   OH233305   1.594   4.344   6.762 -0.1966 -0.0936  0.2830
11121TIP3    H133306   1.513   4.352   6.812  0.7776 -0.8583  2.0521
11121TIP3    H233307   1.597   4.422   6.708 -2.0028  0.0484  0.3545
11122TIP3   OH233308   1.587   1.231   1.311  0.4910  0.3452  0.5718
11122TIP3    H133309   1.670   1.250   1.355  0.3359  0.1169  0.9653
11122TIP3    H233310   1.588   1.287   1.233 -0.0809  2.2192  1.8642
11123TIP3   OH233311   7.633   0.530   2.117  0.5789  0.4004  0.4755
11123TIP3    H133312   7.634   0.583   2.037 -1.6529  0.1593  0.2448
11123TIP3    H233313   7.696   0.460   2.100 -0.6175 -0.2469 -1.5329
11124TIP3   OH233314   6.593   7.967   0.410 -0.0330  0.4347 -0.1218
11124TIP3    H133315   6.661   7.911   0.373  1.5187  1.4262  1.1497
11124TIP3    H233316   6.633   8.054   0.413 -1.1091  0.8983  1.3040
11125TIP3   OH233317   2.809   2.761   5.872  0.2539  0.3898 -0.7486
11125TIP3    H133318   2.714   2.751   5.862  0.2298 -1.8142  1.2371
11125TIP3    H233319   2.821   2.852   5.897 -1.3905  0.5633 -0.5462
11126TIP3   OH233320   5.567   3.757   5.191  0.1321  0.4363 -0.3817
11126TIP3    H133321   5.582   3.851   5.201 -0.6933  0.5066  0.2404
11126TIP3    H233322   5.518   3.731   5.269  0.3718 -0.5174 -0.5309
11127TIP3   OH233323   0.587   2.909   6.496  0.0610 -0.0304 -0.2449
11127TIP3    H133324   0.600   2.844   6.427 -1.5409  1.0842 -1.6346
11127TIP3    H233325   0.636   2.986   6.465  0.7740 -0.0978  0.7063
11128TIP3   OH233326   5.092   7.726   0.302  0.1319 -0.1604  0.3456
11128TIP3    H133327   5.138   7.796   0.350  0.6909 -0.4460  0.2225
11128TIP3    H233328   5.039   7.683   0.369 -1.8979  1.7377  0.0457
11129TIP3   OH233329   5.619   6.350   0.587 -0.4353 -0.4600  0.5536
11129TIP3    H133330   5.533   6.324   0.554 -0.4055  0.9189 -0.6693
11129TIP3    H233331   5.634   6.294   0.663 -0.5552 -3.6878 -1.7241
11130TIP3   OH233332   0.946   1.039   1.978 -0.3987  0.3532 -0.4970
11130TIP3    H133333   0.989   1.034   2.063 -1.4800 -0.9332 -0.0271
11130TIP3    H233334   1.012   1.006   1.916 -0.0799  0.0690 -0.0060
11131TIP3   OH233335   3.436   1.933   5.594 -0.0578  0.0740 -0.3984
11131TIP3    H133336   3.432   1.840   5.576 -2.9975 -0.0707  0.7341
11131TIP3    H233337   3.351   1.967   5.566  0.9548  2.4158 -0.7789
11132TIP3   OH233338   2.894   6.031   5.667  0.2752 -0.2592 -0.3817
11132TIP3    H133339   2.927   5.958   5.720 -0.5696 -0.1427  0.3118
11132TIP3    H233340   2.884   5.994   5.579 -1.7587 -1.4703  0.3191
11133TIP3   OH233341   3.988   5.731   4.839  0.0729  0.3612 -0.5980
11133TIP3    H133342   4.004   5.668   4.768  0.2817  0.4619 -0.6377
11133TIP3    H233343   3.979   5.815   4.795 -0.0282  0.3890 -0.5251
11134TIP3   OH233344   4.227   5.908   6.730  0.1598 -0.4206  0.0796
11134TIP3    H133345   4.158   5.855   6.692 -0.5156 -0.6962  1.6283
11134TIP3    H233346   4.294   5.845   6.757  0.1791 -0.3261  0.2575
11135TIP3   OH233347   3.976   6.973   0.478  0.0648 -0.4320  0.5995
11135TIP3    H133348   4.062   7.010   0.459 -0.5760  0.0425 -1.4917
11135TIP3    H233349   3.923   7.048   0.507 -0.1358 -0.4124  0.1816
11136TIP3   OH233350   0.850   0.427   0.378  0.4724 -0.1395  0.2111
11136TIP3    H133351   0.831   0.472   0.460 -1.5653  0.5836 -0.6339
11136TIP3    H233352   0.908   0.488   0.331  0.6304 -0.0007  0.5819
11137TIP3   OH233353   0.213   1.826   0.192 -0.0765  0.2164  0.3103
11137TIP3    H133354   0.298   1.830   0.237 -0.2738 -0.9163  0.8068
11137TIP3    H233355   0.235   1.792   0.105 -0.0553 -0.3876  0.5481
11138TIP3   OH233356   6.192   6.208   1.518 -0.2164 -0.0280  0.1944
11138TIP3    H133357   6.201   6.231   1.426 -2.9466 -1.3322 -0.4609
11138TIP3    H233358   6.244   6.128   1.528 -0.4720 -0.2761 -0.4038
11139TIP3   OH233359   4.218   3.771   6.664 -0.2915  0.0262  0.0773
11139TIP3    H133360   4.195   3.860   6.689 -0.5325  0.5600 -1.9787
11139TIP3    H233361   4.310   3.761   6.691  0.1523  1.3539 -0.9222
11140TIP3   OH233362   4.820   6.910   0.500  0.1364  0.1131  0.4317
11140TIP3    H133363   4.914   6.914   0.481  0.2433 -1.8615  0.4778
11140TIP3    H233364   4.778   6.925   0.415  0.4460  1.9466  0.5696
11141TIP3   OH233365   3.130   3.842   4.782 -0.1322 -0.0123  0.7436
11141TIP3    H133366   3.224   3.861   4.780 -0.4373  1.5612  0.2590
11141TIP3    H233367   3.089   3.921   4.747 -1.5323 -1.4722 -1.0573
11142TIP3   OH233368   3.105   1.237   6.703  0.5011  0.1930 -0.4550
11142TIP3    H133369   3.032   1.299   6.698  2.2905  2.3676 -0.7483
11142TIP3    H233370   3.105   1.206   6.793  1.7526  3.4613  0.7639
11143TIP3   OH233371   7.612   0.947   0.275 -0.0840 -0.3374 -0.0135
11143TIP3    H133372   7.685   0.890   0.299  0.4725  0.0130 -0.8475
11143TIP3    H233373   7.537   0.888   0.268 -0.2126 -0.5058  2.2437
11144TIP3   OH233374   6.527   7.455   0.660  0.3519  0.1209  0.3062
11144TIP3    H133375   6.506   7.468   0.568  0.6313 -2.2738 -0.1198
11144TIP3    H233376   6.449   7.483   0.707  0.1191  1.1152 -0.6493
11145TIP3   OH233377   3.219   2.893   5.596  0.0669 -0.1452  0.7852
11145TIP3    H133378   3.139   2.860   5.637 -1.6913  1.0626 -1.5459
11145TIP3    H233379   3.245   2.823   5.536 -0.0045  0.0353  0.5456
11146TIP3   OH233380   1.831   3.802   6.558 -0.8232 -0.5125  0.0876
11146TIP3    H133381   1.774   3.878   6.575 -0.0248  0.1820 -0.3190
11146TIP3    H233382   1.919   3.838   6.556 -0.4034 -1.5225  0.2578
11147TIP3   OH233383   4.580   3.907   5.360 -0.4417  0.3221  0.1645
11147TIP3    H133384   4.531   3.841   5.311 -0.4232  0.9139 -0.6558
11147TIP3    H233385   4.564   3.988   5.313 -0.6735  0.9557  1.3166
11148TIP3   OH233386   2.403   0.374   1.305 -0.2242 -0.0853  0.3108
11148TIP3    H133387   2.420   0.318   1.380 -1.7758 -0.1276  0.6418
11148TIP3    H233388   2.410   0.315   1.229  0.0459 -0.3147  0.5125
11149TIP3   OH233389   8.233   0.209   1.359 -0.2384  0.4073  0.1734
11149TIP3    H133390   8.139   0.230   1.363  0.0612  1.5619  1.2899
11149TIP3    H233391   8.261   0.244   1.275 -0.7120  0.4729  0.0393
11150TIP3   OH233392   0.446   2.577   1.930 -0.1625 -0.3170 -0.2811
11150TIP3    H133393   0.374   2.596   1.990  0.6808  3.1000 -0.2713
11150TIP3    H233394   0.519   2.551   1.986  0.2237  1.5910  0.1420
11151TIP3   OH233395   2.192   0.496   1.377  0.0379 -0.0468 -0.1487
11151TIP3    H133396   2.190   0.591   1.375  2.7063  0.0109 -1.5844
11151TIP3    H233397   2.285   0.473   1.377 -0.5363 -2.6457 -1.8433
11152TIP3   OH233398   0.530   1.577   0.352  0.2702  0.5268 -0.0707
11152TIP3    H133399   0.507   1.646   0.289 -0.3034  0.9197  0.5583
11152TIP3    H233400   0.452   1.522   0.355 -0.4883  1.6555  1.8086
11153TIP3   OH233401   8.259   2.913   1.455  0.2183 -0.2402  0.1593
11153TIP3    H133402   8.177   2.877   1.490 -1.2701 -1.0525 -3.8557
11153TIP3    H233403   8.237   3.003   1.432  1.5029  0.6410  2.2948
11154TIP3   OH233404   4.395   3.430   6.129  0.7079 -0.5346 -0.5791
11154TIP3    H133405   4.326   3.443   6.195  2.2022  0.1474  0.8882
11154TIP3    H233406   4.429   3.518   6.112 -0.2696 -0.6000 -2.9665
11155TIP3   OH233407   3.948   5.234   6.908  0.3181  0.1806  0.1322
11155TIP3    H133408   3.950   5.327   6.932  0.5558  0.2183 -0.0328
11155TIP3    H233409   3.997   5.229   6.826 -1.8566  0.3101 -1.2254
11156TIP3   OH233410   7.453   6.245   0.697 -0.0643  0.2353  0.3414
11156TIP3    H133411   7.445   6.150   0.700 -0.2655  0.2549  0.4112
11156TIP3    H233412   7.479   6.264   0.606 -1.7228  0.2357 -0.1468
11157TIP3   OH233413   0.218   1.727   1.352  0.6411  0.1372 -0.7348
11157TIP3    H133414   0.245   1.804   1.402 -1.3802 -1.1484  2.5326
11157TIP3    H233415   0.295   1.670   1.351 -0.2029 -1.3520  4.1757
11158TIP3   OH233416   5.586   7.615   0.421 -0.3154 -0.5411  0.2545
11158TIP3    H133417   5.508   7.572   0.387 -0.5569 -1.5030  1.9357
11158TIP3    H233418   5.606   7.568   0.502  1.5359  0.2167  0.2758
11159TIP3   OH233419   6.059   6.499   1.166  0.4713  0.2487 -0.3937
11159TIP3    H133420   6.099   6.450   1.094  0.9314  0.4990 -0.3077
11159TIP3    H233421   5.965   6.493   1.150  0.5118 -0.8821 -0.2472
11160TIP3   OH233422   4.839   3.833   5.074  0.4726 -0.3125  0.0117
11160TIP3    H133423   4.819   3.768   5.142 -0.7659  0.2611  0.1956
11160TIP3    H233424   4.771   3.899   5.083  1.6942  0.9900 -0.2294
11161TIP3   OH233425   8.419   0.395   0.178 -0.3591 -0.4622 -0.2787
11161TIP3    H133426   8.402   0.482   0.141 -0.3442 -1.2475 -2.1888
11161TIP3    H233427   8.510   0.376   0.154 -0.2042 -0.8172  0.5565
11162TIP3   OH233428   2.576   2.441   6.273 -0.6984  0.1018 -0.5882
11162TIP3    H133429   2.534   2.355   6.279  3.0640 -1.9366 -2.0133
11162TIP3    H233430   2.616   2.455   6.359 -2.0999  0.9011 -0.0489
11163TIP3   OH233431   2.508   6.172   6.483 -0.5832  0.4562 -0.1644
11163TIP3    H133432   2.417   6.200   6.482 -0.2877  1.4283 -1.3007
11163TIP3    H233433   2.558   6.252   6.470  0.4264 -0.0856  0.3414
11164TIP3   OH233434   1.411   2.535   0.934 -0.1866  0.0638  0.1560
11164TIP3    H133435   1.422   2.616   0.984  0.5182  0.0799 -0.0316
11164TIP3    H233436   1.425   2.465   0.998 -0.0708  0.0833  0.1508
11165TIP3   OH233437   4.073   2.475   4.985 -0.3298 -0.4191 -0.2879
11165TIP3    H133438   4.108   2.494   4.898 -1.3823 -2.3179 -1.1705
11165TIP3    H233439   3.995   2.530   4.992  1.1532  1.6449  0.5179
11166TIP3   OH233440   0.853   1.395   0.949 -0.4695  0.1027  0.0146
11166TIP3    H133441   0.909   1.327   0.912 -0.5687  0.0133  0.0269
11166TIP3    H233442   0.823   1.359   1.032 -1.3230 -0.2562 -0.4371
11167TIP3   OH233443   4.301   4.358   4.670  0.1756 -0.0305 -0.4377
11167TIP3    H133444   4.261   4.295   4.730  2.6522 -1.5400 -0.3339
11167TIP3    H233445   4.274   4.328   4.583 -0.6259  0.1932 -0.2738
11168TIP3   OH233446   4.734   7.568   1.053 -0.1321 -0.0085  0.1423
11168TIP3    H133447   4.742   7.634   0.984 -0.6606  0.7531  0.8035
11168TIP3    H233448   4.680   7.609   1.120  0.1694 -0.8345  0.9067
11169TIP3   OH233449   3.897   4.752   6.167  0.0022  0.0932  0.1294
11169TIP3    H133450   3.968   4.797   6.214 -0.1905 -0.1377  0.6447
11169TIP3    H233451   3.886   4.670   6.215  0.5011 -0.6034 -0.9403
11170TIP3   OH233452   5.405   7.164   0.407 -0.2318 -0.4362 -0.0232
11170TIP3    H133453   5.376   7.097   0.469  1.8174  1.2055  2.8159
11170TIP3    H233454   5.499   7.148   0.397 -0.3611 -0.0873 -2.0324
11171TIP3   OH233455   0.470   3.983   6.674  0.2806  0.2348 -0.2413
11171TIP3    H133456   0.498   4.055   6.617  0.0756  0.1706 -0.4233
11171TIP3    H233457   0.492   4.012   6.762  3.4633 -0.9328 -0.5650
11172TIP3   OH233458   3.847   6.748   0.375  0.3969 -0.1187 -0.2240
11172TIP3    H133459   3.920   6.698   0.339  0.9649 -0.0405  0.8330
11172TIP3    H233460   3.887   6.825   0.415 -0.2575 -0.0641  0.3381
11173TIP3   OH233461   3.804   5.886   6.425 -0.2585 -0.5046 -0.4700
11173TIP3    H133462   3.764   5.856   6.506 -1.0491  0.6004 -0.4342
11173TIP3    H233463   3.881   5.937   6.452  1.1195 -2.5198 -0.5334
11174TIP3   OH233464   4.951   5.661   0.132 -0.6055  0.3960 -0.0528
11174TIP3    H133465   5.002   5.668   0.213  1.3262  0.7569 -1.2845
11174TIP3    H233466   4.889   5.590   0.149  1.9736 -1.7887  0.5784
11175TIP3   OH233467   7.679   1.738   2.506  0.8584 -0.2577 -0.3149
11175TIP3    H133468   7.613   1.743   2.575  0.2824 -0.6314 -0.8300
11175TIP3    H233469   7.674   1.822   2.462  1.4132  0.0800  0.2725
11176TIP3   OH233470   3.565   3.736   4.996 -0.0817 -0.2933  0.3684
11176TIP3    H133471   3.632   3.795   5.028  1.0673 -2.3836  1.9088
11176TIP3    H233472   3.485   3.763   5.040  0.3954  0.2277  0.9090
11177TIP3   OH233473   3.380   4.950   6.630 -0.4539 -0.0091 -0.4635
11177TIP3    H133474   3.324   5.027   6.644  0.5669  0.8329 -0.8835
11177TIP3    H233475   3.375   4.934   6.536 -3.1027 -2.3847  0.0162
11178TIP3   OH233476   3.768   5.849   5.376 -0.4891 -0.0142 -0.1077
11178TIP3    H133477   3.754   5.942   5.391  1.5151  0.5886 -1.8362
11178TIP3    H233478   3.859   5.834   5.401  0.2830 -0.7650 -3.2250
11179TIP3   OH233479   7.210   0.817   1.344  0.2375  0.0095  0.0503
11179TIP3    H133480   7.283   0.816   1.406 -0.5911  0.5311  1.0574
11179TIP3    H233481   7.132   0.824   1.400 -0.4378  2.0146 -1.1046
11180TIP3   OH233482   6.231   5.580   4.928 -0.1253 -0.5773  0.0956
11180TIP3    H133483   6.252   5.606   4.838  0.6665 -1.8229 -0.0914
11180TIP3    H233484   6.173   5.504   4.918  1.4477 -1.8787  0.6136
11181TIP3   OH233485   2.879   2.485   5.943 -0.7321 -0.2503 -0.1313
11181TIP3    H133486   2.785   2.470   5.951 -0.7930 -0.0338 -0.4259
11181TIP3    H233487   2.887   2.578   5.922 -0.6728 -0.9554 -3.6764
11182TIP3   OH233488   3.519   2.711   4.269 -0.1764 -0.1703  0.6096
11182TIP3    H133489   3.537   2.685   4.359  0.8969  1.2840  0.8363
11182TIP3    H233490   3.441   2.767   4.275  0.4045  0.6354  0.7632
11183TIP3   OH233491   2.841   2.994   6.019 -0.4892  0.0063 -0.2780
11183TIP3    H133492   2.820   3.084   5.995  0.3461  0.2408 -0.1242
11183TIP3    H233493   2.822   2.990   6.113 -0.7141 -0.0378 -0.3241
11184TIP3   OH233494   4.688   4.227   6.750  0.2160  0.2560 -0.1371
11184TIP3    H133495   4.726   4.312   6.730 -2.3542  1.6348  0.6328
11184TIP3    H233496   4.667   4.232   6.843 -1.2129 -0.7194 -0.4014
11185TIP3   OH233497   2.352   3.558   3.684 -0.0025 -0.2740  0.1611
11185TIP3    H133498   2.345   3.537   3.777  3.2850 -1.7694  0.1360
11185TIP3    H233499   2.347   3.653   3.680  1.2033 -0.1271  2.0169
11186TIP3   OH233500   7.679   0.875   2.050 -0.2595 -0.3556  0.3294
11186TIP3    H133501   7.689   0.792   2.003 -0.2686 -0.4942  0.5713
11186TIP3    H233502   7.609   0.859   2.112 -3.3062  1.1634 -2.5436
11187TIP3   OH233503   6.800   7.309   1.473 -0.8011  0.4124  0.1201
11187TIP3    H133504   6.753   7.269   1.400 -1.8842  0.5779  0.7158
11187TIP3    H233505   6.743   7.294   1.549  0.1412  0.5642  0.8616
11188TIP3   OH233506   0.060   0.562   2.352 -0.5181  0.0738 -0.3645
11188TIP3    H133507   0.096   0.532   2.435 -1.7698 -1.7162 -0.4312
11188TIP3    H233508   0.124   0.533   2.286 -0.5540 -0.3920 -0.2000
11189TIP3   OH233509   5.990   7.436   1.838 -1.1374  0.1430  0.2404
11189TIP3    H133510   5.965   7.372   1.905 -0.6179 -1.1305 -0.7713
11189TIP3    H233511   6.085   7.433   1.835 -1.1514  0.2867 -0.4687
11190TIP3   OH233512   4.891   5.849   4.240 -0.0156  0.2943 -0.1011
11190TIP3    H133513   4.891   5.943   4.255 -0.7550  0.4734 -1.2170
11190TIP3    H233514   4.869   5.811   4.326 -0.2372  1.1555  0.2208
11191TIP3   OH233515   1.849   0.099   0.319 -0.3643  0.6398 -0.1672
11191TIP3    H133516   1.860   0.172   0.258 -0.0308  1.9074  1.3646
11191TIP3    H233517   1.818   0.026   0.265 -1.9149  2.2704 -1.5290
11192TIP3   OH233518   1.601   0.972   1.898 -0.1406 -0.7820  0.6940
11192TIP3    H133519   1.638   1.060   1.891 -0.2670 -0.9214 -2.5514
11192TIP3    H233520   1.674   0.917   1.926  1.1659 -0.3814 -1.7858
11193TIP3   OH233521   1.529   0.443   0.626  0.1603  0.5026  0.5473
11193TIP3    H133522   1.502   0.372   0.685  1.0023 -0.5649 -0.3331
11193TIP3    H233523   1.624   0.433   0.620  0.1820  1.1942 -0.2376
11194TIP3   OH233524   0.057   1.732   1.583  0.5215  0.2835  0.4690
11194TIP3    H133525   0.056   1.828   1.578  0.4129  0.2826  0.4800
11194TIP3    H233526   0.103   1.704   1.503 -1.6389  0.2499 -0.8010
11195TIP3   OH233527   2.602   4.287   5.757  0.1513  0.5516  0.2271
11195TIP3    H133528   2.641   4.288   5.670  0.8213  0.3348  0.5207
11195TIP3    H233529   2.508   4.299   5.742  0.1148 -0.7499 -0.6051
11196TIP3   OH233530   4.530   5.030   6.633  0.2134  0.1314 -0.1486
11196TIP3    H133531   4.504   5.027   6.726  1.5676  1.0751  0.2739
11196TIP3    H233532   4.449   5.054   6.587 -0.2606  0.5579  0.8813
11197TIP3   OH233533   7.720   1.824   0.498 -0.5975 -0.3315 -0.1552
11197TIP3    H133534   7.752   1.733   0.493 -0.1740 -0.1861 -0.1673
11197TIP3    H233535   7.800   1.876   0.509 -0.9486 -0.0996  1.5521
11198TIP3   OH233536   1.727   5.105   3.782  0.4677  0.2674  0.2801
11198TIP3    H133537   1.674   5.050   3.724 -0.4338 -0.4029  1.7174
11198TIP3    H233538   1.815   5.068   3.776  1.4454  2.9323 -4.0826
11199TIP3   OH233539   2.619   4.079   3.304 -0.1581  0.5405  0.4300
11199TIP3    H133540   2.631   4.167   3.267  0.0643  0.2623 -0.1720
11199TIP3    H233541   2.601   4.094   3.397  1.5086  1.1391  0.6715
11200TIP3   OH233542   2.985   3.597   5.837  0.2425 -0.1393 -0.7876
11200TIP3    H133543   2.907   3.548   5.812 -0.4595  0.9154 -0.7174
11200TIP3    H233544   3.056   3.534   5.832 -0.3054 -0.6168 -2.8482
11201TIP3   OH233545   8.143   2.175   0.084 -0.1293  0.3222  0.1307
11201TIP3    H133546   8.224   2.225   0.095 -0.4343  1.2317 -1.5465
11201TIP3    H233547   8.101   2.178   0.170 -0.1453  3.0009  0.0868
11202TIP3   OH233548   8.231   2.640   2.604  0.0310  0.2080 -0.1334
11202TIP3    H133549   8.223   2.680   2.691  2.6490  0.2515  0.1406
11202TIP3    H233550   8.202   2.550   2.616 -0.1962  0.3795  0.6521
11203TIP3   OH233551   2.643   5.126   6.458 -0.2518 -0.5036  0.4068
11203TIP3    H133552   2.606   5.209   6.488 -0.8041  0.2778 -2.2798
11203TIP3    H233553   2.573   5.086   6.407  0.6694 -1.7148  0.0780
11204TIP3   OH233554   4.039   6.759   1.645  0.1686  0.1162  0.1175
11204TIP3    H133555   4.014   6.684   1.590  0.4603  0.4660 -0.4952
11204TIP3    H233556   3.956   6.791   1.681  0.0939 -0.8270  0.8090
11205TIP3   OH233557   3.001   5.238   6.805  0.3754 -0.2135  0.2374
11205TIP3    H133558   2.932   5.175   6.826  0.2513  0.0823  0.7165
11205TIP3    H233559   3.021   5.281   6.888 -0.9377  1.7930 -0.4691
11206TIP3   OH233560   5.208   1.803   1.790  0.1365 -0.1851 -0.2107
11206TIP3    H133561   5.252   1.871   1.841 -1.6733  0.8652 -0.0175
11206TIP3    H233562   5.237   1.818   1.700  0.1522  0.5142 -0.0906
11207TIP3   OH233563   1.655   4.104   6.419  0.1167 -0.4101  0.2320
11207TIP3    H133564   1.591   4.174   6.406 -0.5234 -1.2480 -1.2585
11207TIP3    H233565   1.658   4.092   6.514 -0.0285  1.3809  0.4757
11208TIP3   OH233566   6.378   6.489   0.127 -0.4064 -0.1673 -0.3408
11208TIP3    H133567   6.355   6.559   0.189 -0.0101 -1.0592  0.8348
11208TIP3    H233568   6.335   6.514   0.045  0.9146  2.2218 -0.3548
11209TIP3   OH233569   2.655   4.465   5.253  0.6694 -0.1651 -0.3531
11209TIP3    H133570   2.590   4.536   5.247  0.7075  0.1880  2.5878
11209TIP3    H233571   2.622   4.398   5.193 -1.7361  0.5284  0.1072
11210TIP3   OH233572   4.011   3.969   5.793  0.0450  0.2477  0.0453
11210TIP3    H133573   4.055   3.884   5.797 -0.1359  0.1708  0.4925
11210TIP3    H233574   3.968   3.977   5.879 -1.2519  0.0766 -0.5820
11211TIP3   OH233575   3.752   4.638   6.623  0.4050  0.5360  0.6282
11211TIP3    H133576   3.751   4.692   6.544  0.9733  0.4640  0.5674
11211TIP3    H233577   3.669   4.656   6.665 -0.0168  0.3758 -0.1259
11212TIP3   OH233578   6.805   7.829   1.084 -0.3456  0.3026 -0.1836
11212TIP3    H133579   6.735   7.782   1.039  0.4336  0.7138 -1.8870
11212TIP3    H233580   6.881   7.818   1.026  0.4547  1.6328  0.6021
11213TIP3   OH233581   3.492   2.278   6.493  0.5024  0.0388 -0.2283
11213TIP3    H133582   3.523   2.350   6.439  3.1034 -1.2352 -0.5268
11213TIP3    H233583   3.530   2.294   6.579  0.8751 -0.8229 -0.2265
11214TIP3   OH233584   4.219   7.079   0.426 -0.7586  0.0428  0.4025
11214TIP3    H133585   4.304   7.118   0.404 -0.5537 -0.7387 -0.2162
11214TIP3    H233586   4.240   6.991   0.455 -1.0868  0.8093  3.1846
11215TIP3   OH233587   5.668   5.852   0.320 -0.4751 -0.1535  0.1291
11215TIP3    H133588   5.735   5.866   0.387 -1.7540 -3.3903  2.2072
11215TIP3    H233589   5.701   5.779   0.268 -0.9984  0.2376 -0.7642
11216TIP3   OH233590   5.470   7.523   0.157 -0.0297 -0.5559 -0.2502
11216TIP3    H133591   5.548   7.559   0.115  0.0356 -1.0676 -0.5679
11216TIP3    H233592   5.398   7.553   0.102 -0.0649 -0.0224  0.0837
11217TIP3   OH233593   3.191   3.682   5.536  0.6867  0.3452  0.4714
11217TIP3    H133594   3.106   3.668   5.577  0.6053 -0.6453 -0.0175
11217TIP3    H233595   3.226   3.760   5.579  0.4676 -0.4768  2.1795
11218TIP3   OH233596   1.480   2.469   4.809  0.0142  0.8108  0.0303
11218TIP3    H133597   1.399   2.440   4.850  0.3392  0.3664  0.3612
11218TIP3    H233598   1.455   2.491   4.719 -0.5903  1.2652  0.3062
11219TIP3   OH233599   2.959   4.168   5.183  0.2808  0.0298 -0.2640
11219TIP3    H133600   2.939   4.216   5.264  0.8010 -0.3828  0.1157
11219TIP3    H233601   2.884   4.111   5.169  0.2410  0.0164 -0.0029
11220TIP3   OH233602   4.044   3.118   6.541  0.2530 -1.0582 -0.2127
11220TIP3    H133603   4.112   3.170   6.497  1.0399 -0.5556  1.5545
11220TIP3    H233604   3.977   3.183   6.565  1.5988 -0.6902  2.6983
11221TIP3   OH233605   1.555   3.387   4.749 -0.0112  0.1464 -0.0837
11221TIP3    H133606   1.500   3.334   4.691 -0.2358  0.7377 -0.4185
11221TIP3    H233607   1.532   3.477   4.727  0.4411  0.3828  0.4130
11222TIP3   OH233608   0.685   4.765   6.227  0.7177  0.0625  0.1477
11222TIP3    H133609   0.633   4.799   6.300  0.4070  0.7108 -0.3758
11222TIP3    H233610   0.641   4.797   6.149  0.0167 -2.1674 -0.3754
11223TIP3   OH233611   4.935   0.517   0.811 -0.4886 -0.5653  0.2539
11223TIP3    H133612   4.943   0.564   0.728 -0.4498  2.1259  1.7447
11223TIP3    H233613   4.843   0.527   0.835 -0.1537  0.0223  1.3067
11224TIP3   OH233614   3.616   6.590   6.100 -0.1198  0.0720  0.2411
11224TIP3    H133615   3.629   6.522   6.035 -1.6233 -0.3628  0.3978
11224TIP3    H233616   3.698   6.640   6.099  0.9190 -1.6137  0.0033
11225TIP3   OH233617   0.863   1.964   0.872 -0.0586  0.1718 -0.2967
11225TIP3    H133618   0.781   2.001   0.840 -0.1974  0.3582  0.2568
11225TIP3    H233619   0.903   2.036   0.922  0.5679  0.1677 -0.7911
11226TIP3   OH233620   2.235   5.587   6.018  0.1885 -0.2304 -0.6432
11226TIP3    H133621   2.229   5.677   6.051 -0.5369 -0.1499 -0.9873
11226TIP3    H233622   2.329   5.571   6.009  0.3711 -0.0234  0.8332
11227TIP3   OH233623   3.200   6.733   1.317 -0.3463  0.1643  0.1022
11227TIP3    H133624   3.196   6.668   1.387  0.8562  0.4497  0.4524
11227TIP3    H233625   3.112   6.768   1.312 -0.0520  1.4208  2.7141
11228TIP3   OH233626   8.007   0.246   1.639  0.0655  0.6470 -0.7434
11228TIP3    H133627   8.098   0.220   1.646 -0.1689  0.2776  1.4395
11228TIP3    H233628   7.964   0.203   1.713 -2.0243  0.2293 -2.1634
11229TIP3   OH233629   2.677   6.164   4.807 -0.3170  0.2303  0.3002
11229TIP3    H133630   2.692   6.153   4.713 -0.1437 -1.5105  0.5231
11229TIP3    H233631   2.760   6.199   4.841 -0.8024  2.1040 -0.3784
11230TIP3   OH233632   2.779   3.055   6.783 -0.4406  0.1882  0.7423
11230TIP3    H133633   2.762   3.144   6.754 -2.4115  0.2164  1.9002
11230TIP3    H233634   2.705   3.033   6.838  1.1854 -1.3389  2.3938
11231TIP3   OH233635   4.593   5.842   6.892 -0.6034 -0.4802 -0.7513
11231TIP3    H133636   4.544   5.767   6.860 -1.6373 -0.4693  0.7969
11231TIP3    H233637   4.593   5.833   6.987  0.6770  0.6018 -0.6252
11232TIP3   OH233638   7.124   1.446   0.812 -0.0905 -0.3021 -0.0929
11232TIP3    H133639   7.097   1.496   0.735  0.2936 -0.0635 -0.0748
11232TIP3    H233640   7.082   1.490   0.886 -0.3588 -0.4578 -0.1504
11233TIP3   OH233641   2.054   4.234   4.799  0.4342 -0.6645  0.3100
11233TIP3    H133642   1.969   4.246   4.755  0.1086 -1.8672  0.5973
11233TIP3    H233643   2.038   4.257   4.890  0.9122  1.0423 -0.0254
11234TIP3   OH233644   2.363   0.065   0.460 -0.2713  0.0791  0.0644
11234TIP3    H133645   2.353   0.104   0.373 -1.0051 -1.9513 -0.8018
11234TIP3    H233646   2.450   0.025   0.458 -0.5674 -0.5806 -0.0213
11235TIP3   OH233647   2.794   5.223   4.023  0.2774 -0.1768  0.0550
11235TIP3    H133648   2.854   5.236   3.949  1.9777 -2.3456  0.9761
11235TIP3    H233649   2.832   5.275   4.094 -0.1422  0.1741  0.0221
11236TIP3   OH233650   2.786   1.177   1.741  0.1879  0.1946 -0.3666
11236TIP3    H133651   2.858   1.191   1.802  2.5423  2.2392 -3.4185
11236TIP3    H233652   2.826   1.135   1.665 -1.6926  1.8335 -2.3550
11237TIP3   OH233653   5.353   5.859   0.396  0.2902 -0.0536 -0.3563
11237TIP3    H133654   5.315   5.941   0.428 -1.6301 -0.8667 -0.4657
11237TIP3    H233655   5.381   5.879   0.307  0.4530  0.6764 -0.1439
11238TIP3   OH233656   2.942   3.403   5.581 -0.2072 -0.2224  0.4497
11238TIP3    H133657   2.859   3.437   5.615  1.5137  0.8376  3.8713
11238TIP3    H233658   2.990   3.482   5.554  0.6253 -0.6332  0.7321
11239TIP3   OH233659   1.397   3.754   6.464 -0.0966 -0.7736 -0.1689
11239TIP3    H133660   1.427   3.721   6.549  1.4067  0.1571 -0.3251
11239TIP3    H233661   1.375   3.846   6.481  1.1027 -0.3312 -0.9934
11240TIP3   OH233662   3.401   2.711   5.444 -0.6890 -0.8018  0.0162
11240TIP3    H133663   3.481   2.754   5.475 -0.9578 -0.4702  0.2504
11240TIP3    H233664   3.384   2.643   5.510 -0.8892 -0.5326  0.2428
11241TIP3   OH233665   2.310   0.894   1.993 -0.3662 -0.4370 -0.4506
11241TIP3    H133666   2.341   0.912   1.905 -0.1564  0.9729 -0.1039
11241TIP3    H233667   2.216   0.885   1.984 -0.2323 -1.3174 -0.9784
11242TIP3   OH233668   0.250   0.537   0.330  0.0822  0.3436 -0.1026
11242TIP3    H133669   0.186   0.472   0.302 -0.7263  1.1450 -0.1404
11242TIP3    H233670   0.296   0.561   0.249 -1.2536  1.5717 -0.5283
11243TIP3   OH233671   5.885   0.694   0.060  0.7688 -0.2801  0.3711
11243TIP3    H133672   5.905   0.609   0.020  1.3297  0.3413 -0.6989
11243TIP3    H233673   5.829   0.673   0.135 -0.7873 -1.4485 -1.0776
11244TIP3   OH233674   2.153   3.810   6.482 -0.4866 -0.0565  0.4353
11244TIP3    H133675   2.200   3.815   6.565 -2.0718 -1.7123  1.4975
11244TIP3    H233676   2.209   3.757   6.426  0.3596  0.6362  0.6251
11245TIP3   OH233677   7.912   0.563   1.319  0.0020 -0.1465  0.0231
11245TIP3    H133678   7.896   0.469   1.318  0.6581 -0.2496 -1.8803
11245TIP3    H233679   8.007   0.571   1.330 -0.1512  0.3280  1.1431
11246TIP3   OH233680   2.459   1.810   6.746 -0.1383 -0.4299  0.0533
11246TIP3    H133681   2.450   1.793   6.840 -0.4695 -2.3723 -0.3000
11246TIP3    H233682   2.529   1.875   6.740 -1.0749  0.7627  1.7231
11247TIP3   OH233683   0.243   2.587   1.370 -0.4261 -0.2546 -0.2656
11247TIP3    H133684   0.320   2.585   1.315 -0.8604  0.4939 -0.9185
11247TIP3    H233685   0.172   2.553   1.315 -0.5458 -0.9826  0.3417
11248TIP3   OH233686   4.769   7.331   1.388 -0.4760 -0.3573  0.4561
11248TIP3    H133687   4.860   7.307   1.374 -0.2873  0.3393  0.4912
11248TIP3    H233688   4.766   7.367   1.476 -0.9759 -1.2883  0.8344
11249TIP3   OH233689   2.645   3.040   5.559  0.1987  0.0923 -0.1119
11249TIP3    H133690   2.637   3.020   5.466  0.8505  1.4624 -0.4832
11249TIP3    H233691   2.734   3.012   5.582  0.6420  1.2583 -0.3241
11250TIP3   OH233692   2.877   5.025   6.897 -0.0681  0.7549 -0.0250
11250TIP3    H133693   2.834   4.999   6.816  0.2003 -0.2723  0.1590
11250TIP3    H233694   2.916   4.944   6.931 -0.8301  1.0073  1.5294
11251TIP3   OH233695   3.522   1.749   6.724  0.1863  0.5189 -0.6931
11251TIP3    H133696   3.460   1.821   6.733 -0.7962 -0.1221 -2.1312
11251TIP3    H233697   3.551   1.753   6.633  0.3315 -0.7104 -0.7138
11252TIP3   OH233698   3.870   5.564   6.598  0.3597  0.1505  0.3169
11252TIP3    H133699   3.817   5.638   6.627  1.4966  0.6144  1.2562
11252TIP3    H233700   3.807   5.502   6.563 -0.5049  2.0830 -1.6399
11253TIP3   OH233701   3.090   7.691   0.254 -0.5685 -0.5096 -0.3697
11253TIP3    H133702   3.087   7.601   0.287 -1.1650  0.2757  1.7717
11253TIP3    H233703   3.049   7.686   0.168  0.4071 -2.4793 -0.7643
11254TIP3   OH233704   6.279   7.246   0.059  0.0221  0.1829  0.4836
11254TIP3    H133705   6.323   7.305  -0.002 -1.2337  0.6316 -0.0077
11254TIP3    H233706   6.340   7.238   0.133  1.7811 -0.8090 -1.0575
11255TIP3   OH233707   4.229   6.636   1.308  0.1142  0.1504 -0.1224
11255TIP3    H133708   4.314   6.624   1.266  0.2645  0.8610 -0.0246
11255TIP3    H233709   4.239   6.717   1.359 -0.7067  0.3782 -0.3310
11256TIP3   OH233710   4.070   4.418   6.513  0.3187  0.3982 -0.0718
11256TIP3    H133711   3.977   4.401   6.523  0.2133  1.1581  0.2562
11256TIP3    H233712   4.111   4.375   6.589  0.0532  1.5790  0.7545
11257TIP3   OH233713   1.316   4.066   6.265  0.2224 -0.1844 -0.7282
11257TIP3    H133714   1.411   4.067   6.276  0.1176 -1.9201  0.5891
11257TIP3    H233715   1.283   4.110   6.343 -0.0981 -0.9579 -0.4249
11258TIP3   OH233716   3.067   6.725   5.374  0.0320 -0.0750  0.3520
11258TIP3    H133717   3.138   6.789   5.388  1.3662 -1.9293  2.4254
11258TIP3    H233718   3.041   6.738   5.283  2.2237  1.4726 -0.1101
11259TIP3   OH233719   3.725   5.785   6.675  0.8316  0.3944 -0.1076
11259TIP3    H133720   3.639   5.752   6.698  0.9145  0.1759 -0.1108
11259TIP3    H233721   3.750   5.840   6.749  0.4455  0.9229 -0.3632
11260TIP3   OH233722   1.355   1.027   2.295  0.3914 -0.6820 -0.3210
11260TIP3    H133723   1.264   1.007   2.271  0.1450  0.7280 -0.5860
11260TIP3    H233724   1.379   1.100   2.238  1.4845 -0.6243  0.2079
11261TIP3   OH233725   1.411   0.458   0.125 -0.6012  0.1619 -0.9064
11261TIP3    H133726   1.382   0.544   0.094 -0.6412  0.2926 -0.5083
11261TIP3    H233727   1.459   0.476   0.205  0.2496 -0.0989 -1.3585
11262TIP3   OH233728   0.539   1.122   0.760  0.9606  0.3852 -0.1087
11262TIP3    H133729   0.515   1.196   0.705  2.4618  0.3354 -0.8417
11262TIP3    H233730   0.576   1.058   0.700 -0.8388 -1.1999  0.4438
11263TIP3   OH233731   1.374   0.154   0.570  0.0889 -0.6938  0.0498
11263TIP3    H133732   1.468   0.139   0.578 -0.1383 -1.6281  1.2486
11263TIP3    H233733   1.365   0.221   0.502  1.7830  1.4908  1.9010
11264TIP3   OH233734   5.131   6.976   6.609 -0.1836  0.4128 -0.7354
11264TIP3    H133735   5.099   7.022   6.531  1.6168  0.5896 -1.3805
11264TIP3    H233736   5.139   7.043   6.676 -1.0217  0.3875 -0.5999
11265TIP3   OH233737   8.429   2.025   1.920  0.0370 -0.8633  0.6556
11265TIP3    H133738   8.449   2.102   1.866 -1.3338 -1.0858 -0.2044
11265TIP3    H233739   8.348   2.048   1.965  0.1092 -1.4563  1.0864
11266TIP3   OH233740   3.202   6.976   6.744  0.5784 -0.0154 -0.1258
11266TIP3    H133741   3.252   7.057   6.743  1.0332 -0.3003 -0.5466
11266TIP3    H233742   3.259   6.912   6.702  0.8439 -0.9309  1.5878
11267TIP3   OH233743   4.669   5.156   5.596 -0.5436  0.1644 -0.3157
11267TIP3    H133744   4.628   5.240   5.614 -1.5123 -0.1080 -1.1947
11267TIP3    H233745   4.760   5.177   5.574 -0.8130  0.9864 -0.6257
11268TIP3   OH233746   8.392   0.652   0.064 -0.0734 -0.4821  0.1764
11268TIP3    H133747   8.384   0.671  -0.029 -0.6631  1.2056  0.5598
11268TIP3    H233748   8.478   0.685   0.089  0.3472 -1.5096  0.0982
11269TIP3   OH233749   4.739   2.717   4.979  0.7375 -0.3797  0.4709
11269TIP3    H133750   4.766   2.636   4.936  1.2362  0.2408 -0.3973
11269TIP3    H233751   4.820   2.751   5.017  0.6778  0.1403  0.1266
11270TIP3   OH233752   2.521   6.557   6.740 -0.6360 -0.0774 -0.2618
11270TIP3    H133753   2.569   6.625   6.788 -0.8080 -0.1273 -0.0203
11270TIP3    H233754   2.458   6.605   6.687  1.0977  0.1505 -2.2200
11271TIP3   OH233755   1.641   1.077  -0.031 -0.0658 -0.3304 -0.5766
11271TIP3    H133756   1.616   1.008   0.030  1.2122 -1.0482 -0.8523
11271TIP3    H233757   1.681   1.145   0.023 -1.5606  0.3168 -0.2734
11272TIP3   OH233758   1.646   0.163   0.511  0.6522 -0.2967 -0.7691
11272TIP3    H133759   1.680   0.120   0.590  2.6102  0.9193 -0.8985
11272TIP3    H233760   1.708   0.138   0.443 -0.0449  0.0813 -1.5396
11273TIP3   OH233761   3.770   3.648   5.713  0.0710 -0.0128  0.3133
11273TIP3    H133762   3.746   3.675   5.802  1.1975 -1.5082  1.1049
11273TIP3    H233763   3.732   3.560   5.703  0.0961  0.0754 -0.6245
11274TIP3   OH233764   6.842   0.307   0.160  0.3632  0.0474 -0.7819
11274TIP3    H133765   6.856   0.214   0.143 -3.4030 -0.8417  0.5831
11274TIP3    H233766   6.791   0.338   0.085  0.3415  0.6795 -0.5082
11275TIP3   OH233767   5.460   4.678   5.285  0.3126  0.4493 -0.3927
11275TIP3    H133768   5.451   4.711   5.196 -1.7107  1.5127  0.1603
11275TIP3    H233769   5.385   4.716   5.332 -0.7915 -3.0326  0.8377
11276TIP3   OH233770   4.225   3.021   5.659  0.0172  0.1341  0.1489
11276TIP3    H133771   4.172   3.052   5.585  1.6200 -2.4612 -2.1791
11276TIP3    H233772   4.313   3.053   5.641  0.1504  0.7041  1.7275
11277TIP3   OH233773   5.628   7.450   1.042  0.1085 -0.1679 -0.0590
11277TIP3    H133774   5.612   7.508   0.968 -2.8165 -0.9364 -0.1195
11277TIP3    H233775   5.585   7.493   1.116  0.1734 -0.9713  0.4557
11278TIP3   OH233776   6.133   6.280   1.006 -0.0590  0.0542 -0.5752
11278TIP3    H133777   6.049   6.272   0.963 -0.7344 -1.5178  0.9665
11278TIP3    H233778   6.190   6.218   0.961 -0.6234 -1.2143  0.4231
11279TIP3   OH233779   0.183   0.624   1.302  0.5623 -0.0243  0.4916
11279TIP3    H133780   0.161   0.678   1.226 -1.2012  1.6956  2.1560
11279TIP3    H233781   0.101   0.619   1.352  1.4090 -2.0205  1.7353
11280TIP3   OH233782   3.238   3.012   6.743  0.2124 -0.0536 -0.4155
11280TIP3    H133783   3.186   3.063   6.805  1.9379  0.6857  0.4554
11280TIP3    H233784   3.226   2.922   6.772 -0.5034  0.1116 -0.1632
11281TIP3   OH233785   1.716   0.536   1.885 -0.0305 -0.1855  0.3582
11281TIP3    H133786   1.659   0.579   1.820 -0.5437 -0.3761  0.6767
11281TIP3    H233787   1.770   0.607   1.920  0.0654 -0.0350 -0.0860
11282TIP3   OH233788   3.535   2.979   4.520  0.1328 -0.0422  0.1579
11282TIP3    H133789   3.624   2.998   4.489  0.6735  2.1119  2.8434
11282TIP3    H233790   3.547   2.948   4.609 -1.7857 -0.0636  0.4240
11283TIP3   OH233791   3.305   3.955   6.667 -0.0111  0.1642 -0.4132
11283TIP3    H133792   3.245   3.972   6.594 -0.6587 -0.4852 -0.0481
11283TIP3    H233793   3.262   3.885   6.717  0.3395  0.7242  0.6944
11284TIP3   OH233794   1.379   2.951   0.175 -0.2699  0.3560  0.0743
11284TIP3    H133795   1.430   3.028   0.201 -1.7855  1.3382  0.1938
11284TIP3    H233796   1.435   2.905   0.113  1.3802  0.6138  1.3163
11285TIP3   OH233797   6.123   6.989   1.527  0.3706 -0.2776  0.8141
11285TIP3    H133798   6.184   7.041   1.580  1.0296  0.1579 -0.3532
11285TIP3    H233799   6.055   7.051   1.501  0.5113 -0.2823  0.4323
11286TIP3   OH233800   6.562   1.628   3.273  0.1242  0.1656  0.9477
11286TIP3    H133801   6.552   1.719   3.299  0.5891  0.7453 -0.8227
11286TIP3    H233802   6.642   1.627   3.219 -1.2891 -0.7778 -1.2049
11287TIP3   OH233803   5.804   7.714   2.144  0.0549  0.4377 -0.3821
11287TIP3    H133804   5.801   7.720   2.048 -3.9892 -0.0139 -0.3788
11287TIP3    H233805   5.806   7.805   2.173 -0.3227  0.6249 -0.9199
11288TIP3   OH233806   3.437   7.978   6.467 -0.1325  0.4653 -0.2916
11288TIP3    H133807   3.369   7.913   6.451  0.7098 -0.3421 -0.6502
11288TIP3    H233808   3.400   8.035   6.534 -1.7380  0.9153 -1.5307
11289TIP3   OH233809   0.048   1.598   2.002 -0.0292 -0.2651 -0.6653
11289TIP3    H133810   0.008   1.511   2.000  0.6241 -0.5430 -2.3185
11289TIP3    H233811  -0.016   1.655   1.960 -1.2339  0.4245  1.9918
11290TIP3   OH233812   3.671   3.023   6.172 -0.2714  0.4728 -0.1389
11290TIP3    H133813   3.587   3.045   6.210  0.0812  0.2916  0.7680
11290TIP3    H233814   3.690   3.094   6.111 -0.9408  0.6623 -0.1255
11291TIP3   OH233815   5.514   1.909   0.762 -0.1386 -0.0637 -0.7444
11291TIP3    H133816   5.466   1.829   0.779 -1.0920  1.0093  1.9373
11291TIP3    H233817   5.580   1.885   0.697 -1.3274 -2.6420 -1.0348
11292TIP3   OH233818   8.420   1.759   1.812  0.6750 -0.8223  0.1535
11292TIP3    H133819   8.480   1.749   1.738 -0.1913 -0.8166 -0.5553
11292TIP3    H233820   8.428   1.852   1.837  1.1647 -0.8869  0.2430
11293TIP3   OH233821   8.006   1.189   0.684 -0.2092 -0.2746 -0.8272
11293TIP3    H133822   8.095   1.189   0.648 -0.2641  0.8351 -0.9819
11293TIP3    H233823   7.980   1.281   0.684 -0.5285 -0.3310  1.2617
11294TIP3   OH233824   8.262   1.760   1.194 -0.1702  0.1174 -0.2157
11294TIP3    H133825   8.254   1.744   1.288 -1.6910  0.8732 -0.1996
11294TIP3    H233826   8.181   1.724   1.157  0.3127  0.0452 -1.2021
11295TIP3   OH233827   7.911   1.201   1.742  0.2956  0.4952  0.3856
11295TIP3    H133828   7.847   1.200   1.813 -0.1435 -1.7564  0.0037
11295TIP3    H233829   7.861   1.231   1.666  0.0026  0.0232  0.3845
11296TIP3   OH233830   8.317   0.962   2.044 -0.1787  0.0577 -0.0343
11296TIP3    H133831   8.282   1.042   2.005  0.1959  0.8611  1.2676
11296TIP3    H233832   8.270   0.952   2.126  0.7150 -0.3434  0.4379
11297TIP3   OH233833   1.904   1.509   0.917 -0.1826 -0.4060  0.7810
11297TIP3    H133834   1.844   1.509   0.842  1.5573  1.1704 -0.6631
11297TIP3    H233835   1.857   1.558   0.985 -1.0845 -0.3620  0.1421
11298TIP3   OH233836   0.606   1.454   3.023  0.4593 -0.9282  0.4975
11298TIP3    H133837   0.546   1.380   3.032  0.9057 -1.7436 -2.4162
11298TIP3    H233838   0.550   1.528   2.999  0.3710 -1.2262 -0.2528
11299TIP3   OH233839   8.109   0.798   0.915 -0.1957  0.0571  0.2760
11299TIP3    H133840   8.014   0.800   0.921 -0.1095 -0.2878  1.9477
11299TIP3    H233841   8.129   0.846   0.834 -1.8138 -0.5656 -0.5063
11300TIP3   OH233842   4.581   2.771   6.030 -0.2650 -0.3886  0.0575
11300TIP3    H133843   4.493   2.777   5.992  0.3084  0.2263 -1.1801
11300TIP3    H233844   4.637   2.820   5.970  0.9769 -1.0044  0.6959
11301TIP3   OH233845   6.197   7.468   0.446 -0.1120  0.7047 -0.0652
11301TIP3    H133846   6.162   7.557   0.437 -0.9229  0.3874 -0.0565
11301TIP3    H233847   6.292   7.478   0.431 -0.3198  1.4373 -0.9692
11302TIP3   OH233848   7.891   1.225   5.072  0.7889  0.2194 -0.1105
11302TIP3    H133849   7.963   1.210   5.011  1.8584  0.8571  0.9787
11302TIP3    H233850   7.927   1.285   5.138 -1.2317  1.8833 -0.4582
11303TIP3   OH233851   4.554   2.480   5.664 -0.4126 -0.1650  0.1030
11303TIP3    H133852   4.591   2.488   5.576 -0.7786  0.9401  0.0508
11303TIP3    H233853   4.467   2.519   5.658  0.6034  2.4970  1.6147
11304TIP3   OH233854   2.337   2.956   6.742 -0.0559  0.2824 -0.3257
11304TIP3    H133855   2.368   2.993   6.659  0.5824  1.5613  0.4682
11304TIP3    H233856   2.314   3.032   6.795 -2.0510 -0.5718  0.0783
11305TIP3   OH233857   7.888   0.059   0.553 -0.2442 -0.0244 -0.1798
11305TIP3    H133858   7.930   0.143   0.571 -0.6807  0.4201 -1.2097
11305TIP3    H233859   7.932   0.025   0.475 -2.0701  0.6667 -1.5486
11306TIP3   OH233860   2.864   4.704   4.565 -0.1483 -0.4978 -0.3695
11306TIP3    H133861   2.915   4.781   4.540  1.1372 -0.5685  1.9293
11306TIP3    H233862   2.777   4.739   4.586  0.1713  0.2026 -0.2049
11307TIP3   OH233863   2.910   6.166   5.915 -0.7362 -0.0003  0.1381
11307TIP3    H133864   2.816   6.182   5.920 -0.8047  0.0520 -1.1450
11307TIP3    H233865   2.925   6.137   5.825  0.2303 -1.6347  0.7814
11308TIP3   OH233866   1.199   1.071   0.180 -0.1614  0.1717  0.2239
11308TIP3    H133867   1.124   1.011   0.179  0.8857 -1.1643  0.2921
11308TIP3    H233868   1.181   1.133   0.109 -0.5511 -1.1402 -0.8446
11309TIP3   OH233869   6.815   0.714   1.225 -0.0125  0.0085  0.1975
11309TIP3    H133870   6.772   0.651   1.283 -0.4607  0.7882  0.7142
11309TIP3    H233871   6.905   0.681   1.217 -0.3201 -0.8499  0.2372
11310TIP3   OH233872   3.046   3.199   6.277  0.0641  0.3887  0.3298
11310TIP3    H133873   2.969   3.231   6.324  0.6036  1.2601  0.6412
11310TIP3    H233874   3.089   3.140   6.339  2.4361  3.8733  2.1754
11311TIP3   OH233875   6.622   6.233   0.420  0.2648  0.2940  0.1527
11311TIP3    H133876   6.568   6.244   0.499  0.1524 -0.4843  0.1907
11311TIP3    H233877   6.559   6.221   0.349  0.3376  2.2395 -0.2698
11312TIP3   OH233878   0.105   0.898   1.499  0.1768 -0.5011  0.2014
11312TIP3    H133879   0.048   0.822   1.489  1.2595 -1.0715 -1.7227
11312TIP3    H233880   0.194   0.863   1.492  0.7134  0.7799  0.4061
11313TIP3   OH233881   1.153   0.419   2.277  0.5049  0.3916 -0.3386
11313TIP3    H133882   1.186   0.413   2.188 -1.3002 -2.0970 -0.8806
11313TIP3    H233883   1.206   0.357   2.327  0.1979  0.3113 -0.1088
11314TIP3   OH233884   0.586   0.488   0.851  0.1584  0.2191 -0.6224
11314TIP3    H133885   0.595   0.464   0.758 -0.1447 -1.7802 -0.1627
11314TIP3    H233886   0.493   0.477   0.870  0.2072  0.7032 -0.0895
11315TIP3   OH233887   3.439   4.104   6.851  0.2309  0.2106 -0.3565
11315TIP3    H133888   3.376   4.039   6.820 -0.6200  1.2689 -0.9009
11315TIP3    H233889   3.396   4.142   6.929  1.1041 -0.4765  0.4673
11316TIP3   OH233890   6.039   3.914   4.727 -0.0990 -0.1848 -0.6136
11316TIP3    H133891   6.088   3.910   4.645  1.4753  0.4008  0.2836
11316TIP3    H233892   5.952   3.881   4.704  0.0471  0.8027 -2.7158
11317TIP3   OH233893   3.808   5.385   5.123 -0.1495 -0.0278 -0.0720
11317TIP3    H133894   3.753   5.425   5.191 -0.0996  2.5820 -1.5303
11317TIP3    H233895   3.746   5.360   5.054  0.3903  2.5719 -1.5525
11318TIP3   OH233896   4.762   5.065   5.258  0.1375  0.0129 -0.1275
11318TIP3    H133897   4.697   4.995   5.266  0.6970 -0.4165  0.8050
11318TIP3    H233898   4.766   5.104   5.346 -0.2450  1.2846 -0.6611
11319TIP3   OH233899   4.058   2.287   6.702  0.6622 -0.1832  0.1276
11319TIP3    H133900   4.090   2.218   6.761  2.7199  0.2059 -0.5213
11319TIP3    H233901   4.065   2.367   6.754  0.5148 -0.1212  0.0529
11320TIP3   OH233902   3.200   5.345   4.232 -0.1870 -0.1065  0.3533
11320TIP3    H133903   3.174   5.330   4.323  0.6297 -2.5636  0.2150
11320TIP3    H233904   3.118   5.366   4.187 -1.1214 -2.2150  1.0084
11321TIP3   OH233905   7.213   6.280   1.528  0.4858 -0.0477 -0.0664
11321TIP3    H133906   7.229   6.236   1.611  1.0254 -0.1496 -0.2214
11321TIP3    H233907   7.272   6.355   1.529 -0.1062  0.4262  0.0014
11322TIP3   OH233908   2.289   2.720   1.213 -0.2463 -0.0090 -0.8078
11322TIP3    H133909   2.245   2.784   1.157  1.0678  0.7785 -0.9548
11322TIP3    H233910   2.232   2.712   1.289 -2.4711 -1.6925 -2.5816
11323TIP3   OH233911   2.093   0.124   0.094  0.2897  0.4032  0.0112
11323TIP3    H133912   2.044   0.046   0.069 -0.2338  1.2031 -1.5515
11323TIP3    H233913   2.026   0.192   0.103  0.6679  0.5353  1.9736
11324TIP3   OH233914   1.869   1.170   0.828  0.3516 -0.0611 -0.7252
11324TIP3    H133915   1.853   1.142   0.918  1.2371  2.7467  0.3554
11324TIP3    H233916   1.782   1.195   0.795  0.0237 -1.1165 -0.6858
11325TIP3   OH233917   5.654   5.170   5.973 -0.2116 -0.5203  0.0426
11325TIP3    H133918   5.685   5.156   6.062 -0.9216 -0.2186  0.3407
11325TIP3    H233919   5.558   5.164   5.979 -0.1866 -2.4715 -1.0389
11326TIP3   OH233920   4.806   3.882   5.549  0.1434  0.0909 -0.6367
11326TIP3    H133921   4.859   3.809   5.517  0.2452  0.5839 -1.5955
11326TIP3    H233922   4.722   3.873   5.504 -0.6020 -0.6875  0.8821
11327TIP3   OH233923   4.134   4.749   5.601 -0.4305 -0.3261 -0.4527
11327TIP3    H133924   4.134   4.656   5.624 -0.6717 -0.6627 -1.7750
11327TIP3    H233925   4.179   4.792   5.674  1.1117 -1.6800 -0.5748
11328TIP3   OH233926   0.846   1.555   0.327  0.0112  0.1131  0.5571
11328TIP3    H133927   0.763   1.530   0.366 -0.5188  0.7869 -0.1212
11328TIP3    H233928   0.881   1.623   0.385  0.5864 -0.8968  1.4056
11329TIP3   OH233929   8.023   5.808   0.455  0.9853  0.4145  0.0490
11329TIP3    H133930   8.081   5.872   0.497 -0.5177  1.2665  0.8546
11329TIP3    H233931   7.983   5.761   0.528  0.2807  0.1734 -0.4894
11330TIP3   OH233932   5.463   4.538   5.703  0.0161 -0.0194 -0.5832
11330TIP3    H133933   5.547   4.513   5.665  1.2129  1.8342  0.7741
11330TIP3    H233934   5.461   4.633   5.697 -3.0053 -0.1338 -2.6549
11331TIP3   OH233935   5.712   3.890   4.203 -0.8807  0.2046 -0.0893
11331TIP3    H133936   5.798   3.867   4.169 -0.6186  2.0303 -0.6931
11331TIP3    H233937   5.690   3.973   4.161 -2.7140  0.0237  0.4440
11332TIP3   OH233938   5.062   5.781   6.240  0.5606 -0.0499 -0.5065
11332TIP3    H133939   5.068   5.875   6.225 -1.0706  0.3589  1.1614
11332TIP3    H233940   4.968   5.765   6.252  1.0561 -1.3881  1.9805
11333TIP3   OH233941   6.382   3.966   4.785  0.3434  0.0102  0.0759
11333TIP3    H133942   6.370   3.997   4.696 -0.3155  0.5672  0.3533
11333TIP3    H233943   6.296   3.974   4.826  0.8191  0.5436  1.0013
11334TIP3   OH233944   2.815   2.458   6.848  0.2528  0.0422  0.9364
11334TIP3    H133945   2.883   2.429   6.909 -0.7929  1.4333  2.8248
11334TIP3    H233946   2.836   2.551   6.832  0.0854 -0.1144 -0.2717
11335TIP3   OH233947   0.999   1.174   0.845  0.1381  0.3182  0.3781
11335TIP3    H133948   1.068   1.108   0.858  0.1565  0.2017 -0.3011
11335TIP3    H233949   1.006   1.199   0.753  1.2013  2.4954  1.0228
11336TIP3   OH233950   3.756   5.651   5.561  0.0143  0.3004 -0.5304
11336TIP3    H133951   3.783   5.709   5.631 -0.7729  0.5517 -0.4302
11336TIP3    H233952   3.739   5.708   5.486 -1.2353  0.2598 -0.2898
11337TIP3   OH233953   1.051   0.219   0.441 -0.6370  0.5229  0.8042
11337TIP3    H133954   0.976   0.274   0.418 -0.1547  0.9842  0.3097
11337TIP3    H233955   1.072   0.244   0.531 -1.9852 -0.6592  1.4476
11338TIP3   OH233956   6.337   5.639   5.767 -0.0484 -0.1155  0.3396
11338TIP3    H133957   6.336   5.686   5.683  0.7305 -1.8760 -0.6915
11338TIP3    H233958   6.271   5.683   5.820 -0.8356  0.7854 -1.3365
11339TIP3   OH233959   4.962   5.174   5.448  0.4280 -0.1136 -0.7187
11339TIP3    H133960   5.021   5.249   5.439  0.2396  0.6263  3.2227
11339TIP3    H233961   5.006   5.117   5.512 -0.9043 -1.8605 -1.3307
11340TIP3   OH233962   5.271   6.508   6.284  0.3008  0.4785 -0.3402
11340TIP3    H133963   5.243   6.550   6.365 -0.2513 -1.6753  0.6048
11340TIP3    H233964   5.322   6.432   6.311 -1.3562 -1.2766 -1.9501
11341TIP3   OH233965   1.667   1.277   0.164  0.3028  0.3407 -0.1038
11341TIP3    H133966   1.656   1.352   0.222  0.7869  1.2945 -1.2200
11341TIP3    H233967   1.640   1.201   0.216 -1.1624  1.4073  0.6903
11342TIP3   OH233968   5.624   7.937   6.720 -0.4686  0.1215 -0.3190
11342TIP3    H133969   5.548   7.881   6.736 -1.8208  1.3566 -2.2174
11342TIP3    H233970   5.616   8.007   6.786 -0.9239  0.1833 -0.4370
11343TIP3   OH233971   5.761   4.713   6.007 -0.5135 -0.4288  0.2878
11343TIP3    H133972   5.781   4.736   5.916  0.2385  0.7353  0.7276
11343TIP3    H233973   5.672   4.743   6.021 -1.0060 -1.5575 -0.3635
11344TIP3   OH233974   6.655   3.726   5.968 -0.0042 -0.4586 -0.1668
11344TIP3    H133975   6.573   3.678   5.959 -0.5205 -0.1266  2.2836
11344TIP3    H233976   6.650   3.764   6.056  1.0523  2.8536 -1.5005
11345TIP3   OH233977   7.036   6.645   1.254 -0.6670  0.0226 -0.6501
11345TIP3    H133978   7.035   6.649   1.349 -0.0657 -2.1782 -0.5213
11345TIP3    H233979   7.097   6.715   1.228 -1.9551  1.5957  0.4789
11346TIP3   OH233980   6.536   4.693   5.838 -0.4604  0.3308  0.4779
11346TIP3    H133981   6.445   4.671   5.821 -0.3406  0.2617 -0.0649
11346TIP3    H233982   6.583   4.664   5.760  0.1408 -0.3681  1.0885
11347TIP3   OH233983   6.370   3.609   5.020  0.2682  0.1889 -0.4738
11347TIP3    H133984   6.341   3.597   5.110  0.2142 -0.4653 -0.5725
11347TIP3    H233985   6.456   3.565   5.016  1.3900  2.3103 -0.1250
11348TIP3   OH233986   0.213   1.348   0.098 -0.5705 -0.0183 -0.9692
11348TIP3    H133987   0.253   1.391   0.174  1.0817 -1.0489 -1.2367
11348TIP3    H233988   0.143   1.294   0.136 -0.4050  0.2331 -0.2897
11349TIP3   OH233989   3.820   6.065   5.842  0.5244  0.2897  0.4896
11349TIP3    H133990   3.833   6.081   5.936 -2.3725  3.2796  0.4894
11349TIP3    H233991   3.882   6.125   5.800 -0.5092  1.4195  0.5348
11350TIP3   OH233992   4.470   6.052   1.479 -0.2101  0.2417  0.6076
11350TIP3    H133993   4.518   5.976   1.513  0.7439  0.7988  0.5141
11350TIP3    H233994   4.522   6.082   1.405  0.2082  1.9021  1.5635
11351TIP3   OH233995   7.109   1.839   0.062 -0.1824  0.4889  0.0115
11351TIP3    H133996   7.110   1.809  -0.029  3.9572 -0.8864  0.3907
11351TIP3    H233997   7.095   1.934   0.055 -0.3594  0.3434 -2.0474
11352TIP3   OH233998   2.401   2.953   0.603 -0.1337  0.3901 -0.3319
11352TIP3    H133999   2.333   2.956   0.670  0.9222  0.8561  0.7409
11352TIP3    H234000   2.483   2.954   0.652  0.6542 -1.8223 -1.5337
11353TIP3   OH234001   4.433   5.964   6.080 -0.5457 -0.3959 -0.7371
11353TIP3    H134002   4.422   5.903   6.152  0.8715  0.3745  0.1540
11353TIP3    H234003   4.440   5.909   6.002  0.7902 -1.3662  0.0669
11354TIP3   OH234004   5.826   5.556   5.609  0.0620  0.4424  0.3034
11354TIP3    H134005   5.839   5.546   5.703  1.2102 -0.7096  0.0268
11354TIP3    H234006   5.740   5.515   5.593 -0.0394  0.4520  0.8122
11355TIP3   OH234007   3.633   7.512   6.038 -0.6217 -0.5032 -0.4933
11355TIP3    H134008   3.662   7.582   5.980  0.4669  0.5838  1.2999
11355TIP3    H234009   3.690   7.519   6.115 -2.1987 -1.6945  0.8355
11356TIP3   OH234010   5.634   5.318   5.501  0.3893 -0.3709 -0.5528
11356TIP3    H134011   5.548   5.340   5.465 -0.2848 -2.5164 -0.3148
11356TIP3    H234012   5.695   5.337   5.430 -0.5969 -1.5172 -1.7502
11357TIP3   OH234013   2.177   2.906   1.030  0.1786 -0.3975  0.3494
11357TIP3    H134014   2.147   2.963   1.101 -0.5015  2.9725 -2.5024
11357TIP3    H234015   2.097   2.862   0.999  0.3499 -1.2782  1.1447
11358TIP3   OH234016   6.047   6.480   4.736 -0.0811  0.1673  0.2490
11358TIP3    H134017   6.085   6.567   4.729  0.1945  0.1554  1.4523
11358TIP3    H234018   6.018   6.474   4.827  1.8779 -1.8168  0.7782
11359TIP3   OH234019   5.234   5.613   5.591  0.5263  0.0039 -0.2555
11359TIP3    H134020   5.147   5.643   5.565 -1.5129 -2.6288  3.1374
11359TIP3    H234021   5.232   5.518   5.578  2.9716 -0.0999 -0.2121
11360TIP3   OH234022   3.713   3.940   4.847 -0.5766  0.7066  0.0824
11360TIP3    H134023   3.632   3.982   4.876 -2.4269 -2.3098 -0.5827
11360TIP3    H234024   3.752   3.904   4.926 -1.2550 -0.1618  0.0181
11361TIP3   OH234025   0.606   0.046   0.770 -0.4919  0.1877 -0.5567
11361TIP3    H134026   0.671  -0.009   0.727  1.2364  1.0919  0.8483
11361TIP3    H234027   0.548  -0.015   0.815  0.8377 -0.5186  0.2022
11362TIP3   OH234028   4.929   4.642   5.034  0.0026 -0.0047  0.1532
11362TIP3    H134029   4.842   4.640   4.994  0.9191  0.1809 -1.9590
11362TIP3    H234030   4.981   4.583   4.980  1.2007 -0.1035  1.3860
11363TIP3   OH234031   4.646   4.924   6.382  0.4705  0.1190  0.2514
11363TIP3    H134032   4.619   4.964   6.464 -1.4570 -0.8268  0.0958
11363TIP3    H234033   4.726   4.875   6.405  0.4045  0.5248  1.3760
11364TIP3   OH234034   8.257   1.167   0.572 -0.0074  0.4768  0.0430
11364TIP3    H134035   8.237   1.085   0.618 -1.0047  0.6242 -0.1291
11364TIP3    H234036   8.318   1.141   0.503 -0.7445 -0.2078 -0.3545
11365TIP3   OH234037   2.495   5.321   6.584  0.3388 -0.3877 -0.1868
11365TIP3    H134038   2.500   5.339   6.677  0.5988  1.3486 -0.5291
11365TIP3    H234039   2.475   5.405   6.543 -1.8352 -1.4877 -1.5310
11366TIP3   OH234040   4.797   4.290   3.686 -0.6698  0.0749  0.5822
11366TIP3    H134041   4.726   4.347   3.658 -0.5832  0.4784  1.1882
11366TIP3    H234042   4.756   4.230   3.749 -0.4982  0.2338  0.8452
11367TIP3   OH234043   4.210   7.191   3.292 -0.0938  0.0807  0.0182
11367TIP3    H134044   4.160   7.239   3.359 -0.7125 -0.8950  0.2635
11367TIP3    H234045   4.165   7.107   3.284  1.6499 -0.9126  0.4215
11368TIP3   OH234046   1.719   1.515   0.064  0.7631  0.3899 -0.3836
11368TIP3    H134047   1.696   1.425   0.086 -0.5748  0.9680  0.6772
11368TIP3    H234048   1.787   1.507  -0.003 -0.2353 -1.3984 -1.2237
11369TIP3   OH234049   5.476   3.641   5.440  0.7322  0.2038  0.4022
11369TIP3    H134050   5.543   3.641   5.508  1.2370  0.2324 -0.0822
11369TIP3    H234051   5.410   3.702   5.470 -0.1750 -1.5007  1.9486
11370TIP3   OH234052   5.474   4.038   6.133 -0.0420  0.1637  0.4765
11370TIP3    H134053   5.430   3.983   6.198 -0.1360  0.9026  1.0404
11370TIP3    H234054   5.567   4.029   6.154  0.0579 -0.9617 -0.3751
11371TIP3   OH234055   7.735   5.619   6.520  0.5662  0.7188 -0.0950
11371TIP3    H134056   7.759   5.586   6.607  0.6832 -0.3503 -0.5237
11371TIP3    H234057   7.711   5.541   6.471  3.7173  0.9115 -2.0534
11372TIP3   OH234058   5.330   0.402   0.097  0.6477 -0.0510  0.0941
11372TIP3    H134059   5.298   0.469   0.157 -2.1177  0.1740 -1.5412
11372TIP3    H234060   5.330   0.321   0.148 -0.8253  0.2973  0.6667
11373TIP3   OH234061   5.148   5.534   3.304 -0.4787 -0.0023  0.5912
11373TIP3    H134062   5.210   5.464   3.281 -0.1252  0.3456  0.4808
11373TIP3    H234063   5.157   5.543   3.399 -0.3689  0.0388  0.5773
11374TIP3   OH234064   4.029   3.746   3.882  0.0402 -0.2888 -0.1770
11374TIP3    H134065   4.106   3.716   3.835  1.3985 -0.2286  1.9351
11374TIP3    H234066   3.999   3.669   3.930  0.4668  0.3879  1.2006
11375TIP3   OH234067   3.318   3.816   5.084  0.1496 -0.2566 -0.1558
11375TIP3    H134068   3.250   3.884   5.086  1.4673  1.1461 -1.7526
11375TIP3    H234069   3.310   3.772   5.169 -1.6882  0.9423  0.3188
11376TIP3   OH234070   2.423   3.932   6.373 -0.0533 -0.1951  0.2031
11376TIP3    H134071   2.357   3.990   6.410 -1.6962 -0.9336 -1.4777
11376TIP3    H234072   2.435   3.963   6.284  0.3523 -1.3244 -0.1476
11377TIP3   OH234073   3.649   2.632   5.616  0.1959  0.1715  0.4894
11377TIP3    H134074   3.612   2.611   5.702 -1.2407  1.9059  0.3444
11377TIP3    H234075   3.712   2.701   5.634 -1.2186  1.6285  0.0063
11378TIP3   OH234076   5.161   5.027   6.461  0.5190  0.0456 -0.1541
11378TIP3    H134077   5.157   4.931   6.459 -0.0134  0.0345  0.9651
11378TIP3    H234078   5.144   5.049   6.553  1.6231  1.1677 -0.2130
11379TIP3   OH234079   6.559   4.800   5.342 -0.5395  0.6775  0.6052
11379TIP3    H134080   6.482   4.825   5.291 -2.0521  0.9879  2.9678
11379TIP3    H234081   6.577   4.876   5.398  2.5060  1.2644 -1.0620
11380TIP3   OH234082   3.020   5.006   4.823 -0.2300 -0.0514  0.8373
11380TIP3    H134083   3.115   4.991   4.826 -0.3862 -0.7531  3.2357
11380TIP3    H234084   2.997   4.993   4.731  1.9166 -0.4173  0.3168
11381TIP3   OH234085   5.391   4.431   5.346 -0.4849  0.6616  0.5168
11381TIP3    H134086   5.414   4.389   5.263 -1.5712  0.2374  0.4195
11381TIP3    H234087   5.430   4.518   5.340 -0.3490  0.5532 -0.3363
11382TIP3   OH234088   1.149   0.599   0.639  1.0392 -0.1640  0.0292
11382TIP3    H134089   1.201   0.625   0.715  0.4218 -1.0719  0.7788
11382TIP3    H234090   1.094   0.676   0.620  2.3283  0.6363 -0.4993
11383TIP3   OH234091   2.232   4.100   6.209 -0.4475 -0.1951 -0.2238
11383TIP3    H134092   2.217   4.091   6.303 -0.0025 -1.2685 -0.2512
11383TIP3    H234093   2.249   4.193   6.197 -2.9357  0.3905  0.4074
11384TIP3   OH234094   2.267   0.870   0.249 -0.1905 -0.1765 -0.4581
11384TIP3    H134095   2.256   0.796   0.189 -1.2876 -1.1280  0.8828
11384TIP3    H234096   2.362   0.884   0.251 -0.1175 -0.1943 -2.3039
11385TIP3   OH234097   2.160   3.359   0.574 -0.0054 -0.3851  0.2752
11385TIP3    H134098   2.075   3.351   0.617 -0.2784 -3.2926 -0.7029
11385TIP3    H234099   2.222   3.376   0.646 -1.0923 -0.4361  1.2288
11386TIP3   OH234100   6.674   1.966   4.250  0.1997  0.4985  0.6327
11386TIP3    H134101   6.683   1.960   4.155  0.0323  2.0517  0.4939
11386TIP3    H234102   6.741   2.029   4.276 -1.0319  1.5578  1.2995
11387TIP3   OH234103   6.369   4.965   5.764 -0.3772  0.4564  0.0451
11387TIP3    H134104   6.374   5.060   5.770  0.8788  0.6293 -2.9055
11387TIP3    H234105   6.454   4.934   5.796 -0.8284  0.3021  1.1159
11388TIP3   OH234106   1.893   0.564   1.169  0.0462  0.4789 -0.2259
11388TIP3    H134107   1.866   0.655   1.157  3.3052  1.6280  0.7668
11388TIP3    H234108   1.894   0.552   1.264  2.3260  0.3076 -0.2423
11389TIP3   OH234109   1.074   0.845   0.044 -0.0595  0.2916 -0.8653
11389TIP3    H134110   1.035   0.875  -0.038  0.3868  1.6675 -0.5814
11389TIP3    H234111   1.001   0.844   0.106 -0.2437 -0.0344 -1.0834
11390TIP3   OH234112   3.198   6.778   6.133 -0.5192 -0.6995  0.2915
11390TIP3    H134113   3.199   6.874   6.126  0.2835 -0.7402 -0.1891
11390TIP3    H234114   3.234   6.748   6.049  0.5164 -1.3921  0.9773
11391TIP3   OH234115   4.209   3.273   5.186  0.1043 -0.2397  0.1324
11391TIP3    H134116   4.122   3.281   5.225  0.2071  0.0311  0.3079
11391TIP3    H234117   4.192   3.245   5.096 -0.1281 -0.9538  0.3902
11392TIP3   OH234118   5.701   4.515   6.726  0.1242  0.1875 -0.1111
11392TIP3    H134119   5.780   4.549   6.768 -0.2184 -0.8433  1.4012
11392TIP3    H234120   5.632   4.575   6.752  0.4867  1.4601 -1.9564
11393TIP3   OH234121   4.947   5.890   5.814  0.2657  0.1603  0.3736
11393TIP3    H134122   5.040   5.902   5.797  0.5290 -1.0886  0.8441
11393TIP3    H234123   4.918   5.829   5.746  0.0544 -0.3569  0.9199
11394TIP3   OH234124   4.826   5.447   6.098 -0.1733  0.2334 -0.0414
11394TIP3    H134125   4.854   5.356   6.095 -1.1850 -0.0492 -1.1261
11394TIP3    H234126   4.822   5.474   6.006  1.0829  1.6710  0.3001
11395TIP3   OH234127   3.381   4.679   4.955  0.5737 -0.0038  0.0358
11395TIP3    H134128   3.387   4.723   4.870  2.3784  1.3571  0.8401
11395TIP3    H234129   3.288   4.656   4.963  0.2922  0.2595 -2.0811
11396TIP3   OH234130   3.810   7.482   6.643 -0.8837  0.4997 -0.4861
11396TIP3    H134131   3.878   7.454   6.704 -0.1583  1.9890 -0.5779
11396TIP3    H234132   3.728   7.468   6.690 -0.3690  0.9618  0.5723
11397TIP3   OH234133   2.680   2.765   4.446 -0.0130  0.4294 -0.1966
11397TIP3    H134134   2.706   2.688   4.396 -1.0987  0.4578 -0.8151
11397TIP3    H234135   2.700   2.839   4.389  0.3248  0.5579  0.0908
11398TIP3   OH234136   3.435   2.283   1.562  0.2161  0.2775  0.1904
11398TIP3    H134137   3.444   2.279   1.467  0.6421 -0.0258  0.2371
11398TIP3    H234138   3.341   2.277   1.578  0.2095 -0.7213 -0.1752
11399TIP3   OH234139   6.614   5.751   5.919  0.1130 -0.2961  0.3165
11399TIP3    H134140   6.707   5.769   5.934  0.2543  0.8934 -1.8280
11399TIP3    H234141   6.587   5.816   5.854 -1.6174 -2.1981 -0.9270
11400TIP3   OH234142   3.434   3.595   5.699  0.1422  0.4948 -0.2082
11400TIP3    H134143   3.423   3.688   5.677  0.7867  0.1758 -1.8839
11400TIP3    H234144   3.450   3.596   5.794  3.4775  2.3879 -0.6992
11401TIP3   OH234145   3.217   5.809   5.351  0.5143  0.5519 -0.0451
11401TIP3    H134146   3.301   5.847   5.378  0.2714  0.9248  0.1927
11401TIP3    H234147   3.189   5.863   5.277  0.6134  0.2609 -0.2949
11402TIP3   OH234148   3.945   3.559   6.607  0.1269  0.9447  0.1046
11402TIP3    H134149   3.927   3.603   6.689 -0.0126  0.5718  0.2767
11402TIP3    H234150   3.921   3.467   6.623  2.1295  0.4338  0.3213
11403TIP3   OH234151   3.493   6.196   6.324 -0.0799 -0.1897 -0.3555
11403TIP3    H134152   3.504   6.148   6.242 -1.5836 -0.6283 -0.3198
11403TIP3    H234153   3.448   6.277   6.299  0.8204  0.3743 -0.1664
11404TIP3   OH234154   2.250   2.064   1.707 -0.0366 -0.6650 -0.0485
11404TIP3    H134155   2.200   2.146   1.699 -1.4080 -1.4176  0.5131
11404TIP3    H234156   2.332   2.089   1.750  0.3666  0.7091 -1.5977
11405TIP3   OH234157   5.888   5.726   5.098  0.2351  0.3645  0.0220
11405TIP3    H134158   5.850   5.796   5.151 -0.0205 -0.1690  0.5551
11405TIP3    H234159   5.885   5.759   5.009 -0.5198  0.7552  0.1877
11406TIP3   OH234160   4.722   0.529   0.550 -0.5355 -0.0294 -0.0003
11406TIP3    H134161   4.651   0.469   0.528  0.3686 -1.5441  1.1188
11406TIP3    H234162   4.731   0.585   0.474 -1.2945 -1.4389 -1.1471
11407TIP3   OH234163   2.587   0.979   0.330  0.0883 -0.2838 -0.4091
11407TIP3    H134164   2.604   1.073   0.334 -0.8517 -0.1580  0.7162
11407TIP3    H234165   2.545   0.959   0.413 -0.1922 -1.6107 -0.8699
11408TIP3   OH234166   3.663   5.549   6.179 -0.7490 -0.2821 -0.3341
11408TIP3    H134167   3.653   5.601   6.258 -1.7962 -2.5471  1.0570
11408TIP3    H234168   3.630   5.605   6.109  0.1644  1.7298  0.8108
11409TIP3   OH234169   0.509   1.227   2.301  0.2735  0.3028 -0.6745
11409TIP3    H134170   0.460   1.308   2.316 -0.7360  0.0285 -2.3268
11409TIP3    H234171   0.580   1.253   2.242  0.1870  0.0778 -0.8812
11410TIP3   OH234172   4.530   2.505   2.378 -0.4973 -0.2089  0.2777
11410TIP3    H134173   4.475   2.506   2.300 -1.3506  1.0000  0.8804
11410TIP3    H234174   4.619   2.490   2.344 -1.0776 -1.4010 -0.7567
11411TIP3   OH234175   0.326   2.624   0.130  0.7044  0.6653  0.0670
11411TIP3    H134176   0.386   2.653   0.061 -0.4198  0.4043 -1.0356
11411TIP3    H234177   0.271   2.700   0.147  0.7702  0.6267  0.4569
11412TIP3   OH234178   1.903   2.192   1.830  0.2683 -0.0686  0.0231
11412TIP3    H134179   1.809   2.173   1.839 -0.1227  1.2239 -1.0984
11412TIP3    H234180   1.914   2.214   1.738  1.5665  0.3513  0.2705
11413TIP3   OH234181   3.845   6.570   4.198  0.7487 -0.1082  0.2099
11413TIP3    H134182   3.847   6.604   4.109  3.5731 -0.5640  0.0397
11413TIP3    H234183   3.807   6.482   4.190  1.2245 -0.2424 -0.5853
11414TIP3   OH234184   4.098   5.715   6.588 -0.0439 -0.0878  0.0600
11414TIP3    H134185   4.153   5.659   6.532  0.3747 -0.9277  1.2828
11414TIP3    H234186   4.035   5.654   6.627  1.8148 -0.1605  3.1481
11415TIP3   OH234187   4.725   4.899   5.522 -0.2950  0.1334 -0.2578
11415TIP3    H134188   4.703   4.984   5.559 -1.7214 -0.1845 -0.3484
11415TIP3    H234189   4.658   4.840   5.555  0.6259 -0.9403 -0.2796
11416TIP3   OH234190   0.309   3.819   0.210 -0.0590 -0.3640 -0.1166
11416TIP3    H134191   0.224   3.837   0.250 -0.4705 -0.7831 -0.7968
11416TIP3    H234192   0.371   3.821   0.283 -0.4747  1.1386  0.2289
11417TIP3   OH234193   6.457   4.756   4.139  0.3303  0.0440 -0.1121
11417TIP3    H134194   6.498   4.841   4.124 -1.1269  0.7503 -0.2478
11417TIP3    H234195   6.463   4.712   4.054 -0.5548  0.7566 -0.5541
11418TIP3   OH234196   5.249   1.903   6.237  0.0507 -0.3072 -0.2628
11418TIP3    H134197   5.260   1.968   6.168  1.3633 -0.2632 -0.0287
11418TIP3    H234198   5.214   1.826   6.193  0.5417 -0.1597 -0.9162
11419TIP3   OH234199   7.667   1.107   0.059  0.3038  0.5952 -0.3247
11419TIP3    H134200   7.699   1.030   0.012 -0.1620 -0.1713  0.6272
11419TIP3    H234201   7.657   1.079   0.149 -1.6457  1.2525 -0.3135
11420TIP3   OH234202   4.782   4.670   6.532 -0.0075 -0.2938  0.0603
11420TIP3    H134203   4.845   4.640   6.598  0.7040  1.5581  0.2597
11420TIP3    H234204   4.698   4.673   6.578  0.4034  0.5450  0.7602
11421TIP3   OH234205   2.410   2.940   5.665 -0.3254 -0.0437  0.4814
11421TIP3    H134206   2.492   2.971   5.627  0.3813 -0.0252  1.9875
11421TIP3    H234207   2.374   2.881   5.599  2.9490 -3.3240  1.4408
11422TIP3   OH234208   3.935   3.992   6.575  0.3576 -0.0404  0.9970
11422TIP3    H134209   3.937   3.935   6.497  2.2101 -0.7025  1.4996
11422TIP3    H234210   3.843   3.993   6.601 -0.0642 -0.9536 -0.3834
11423TIP3   OH234211   3.479   1.987   6.516 -0.0524 -0.0185  0.1339
11423TIP3    H134212   3.441   2.003   6.603 -1.5347  0.4372 -0.5676
11423TIP3    H234213   3.496   2.075   6.482 -3.0069 -0.0372 -1.5184
11424TIP3   OH234214   4.172   2.312   0.798 -0.3686 -0.3511 -0.0872
11424TIP3    H134215   4.243   2.256   0.828 -0.2194  0.1048  0.4311
11424TIP3    H234216   4.175   2.307   0.703  0.3207 -0.3871 -0.0634
11425TIP3   OH234217   6.325   4.884   6.271  0.0703  0.3877 -0.0162
11425TIP3    H134218   6.287   4.895   6.184  0.1129 -1.6686 -0.3124
11425TIP3    H234219   6.418   4.870   6.255 -0.1340 -1.3475  0.2599
11426TIP3   OH234220   4.589   3.647   6.362 -1.0147  0.4230  0.4122
11426TIP3    H134221   4.550   3.589   6.427  1.4268 -1.7245  0.0560
11426TIP3    H234222   4.674   3.671   6.400 -0.0083 -0.0404 -1.5125
11427TIP3   OH234223   3.881   3.222   6.271 -0.6247  0.0181 -0.6177
11427TIP3    H134224   3.938   3.293   6.243 -0.4540  0.8773  1.8094
11427TIP3    H234225   3.814   3.264   6.325 -0.6283 -1.6039  0.7056
11428TIP3   OH234226   4.204   6.664   5.440 -0.1690 -0.0251 -0.1033
11428TIP3    H134227   4.248   6.661   5.525  0.3759  0.1748 -0.3708
11428TIP3    H234228   4.196   6.573   5.414 -1.8061 -0.1827  0.9003
11429TIP3   OH234229   7.082   4.874   5.935  0.0866  0.8131  0.6431
11429TIP3    H134230   7.116   4.962   5.922 -0.1178  0.7506 -0.3468
11429TIP3    H234231   6.996   4.888   5.976 -1.5203  1.2561 -2.7041
11430TIP3   OH234232   1.451   1.609   0.088 -0.1670 -0.2114 -0.5067
11430TIP3    H134233   1.532   1.558   0.087 -0.4883 -0.7793  1.5459
11430TIP3    H234234   1.478   1.698   0.067  1.1883 -0.1401  1.4459
11431TIP3   OH234235   4.432   3.007   6.359  0.2467 -0.2470 -0.4271
11431TIP3    H134236   4.337   2.997   6.368  0.1736  0.5848 -0.2162
11431TIP3    H234237   4.467   2.919   6.372 -0.4524 -0.4534  0.0849
11432TIP3   OH234238   5.733   2.608   6.628 -0.1318 -0.0808  0.1251
11432TIP3    H134239   5.815   2.560   6.640 -0.1283  0.5990  3.1656
11432TIP3    H234240   5.665   2.544   6.649 -0.2793  0.1013  0.1967
11433TIP3   OH234241   4.459   5.562   5.126 -0.4739 -0.8456 -0.3525
11433TIP3    H134242   4.452   5.500   5.198 -0.6144 -1.5540 -0.9701
11433TIP3    H234243   4.372   5.601   5.119 -0.0272  0.4716  0.9425
11434TIP3   OH234244   3.857   6.144   6.091  0.2538 -0.1866  0.2953
11434TIP3    H134245   3.851   6.238   6.071 -2.0519 -0.4883 -0.6103
11434TIP3    H234246   3.919   6.139   6.163 -0.0793  2.1365  0.7851
11435TIP3   OH234247   2.744   4.134   5.942  0.3093 -0.1335  0.5628
11435TIP3    H134248   2.715   4.189   5.869 -0.5341 -0.1595  0.8829
11435TIP3    H234249   2.840   4.142   5.940  0.1616  2.0695  1.1748
11436TIP3   OH234250   4.249   6.047   6.471 -0.0956  0.2402  0.4441
11436TIP3    H134251   4.343   6.045   6.491 -0.1211 -0.3964  0.5138
11436TIP3    H234252   4.207   6.018   6.551 -0.3858  1.1667  0.6208
11437TIP3   OH234253   6.456   6.454   1.276 -0.1142  0.3000  0.3051
11437TIP3    H134254   6.411   6.538   1.275 -0.2454  0.2329 -0.5852
11437TIP3    H234255   6.510   6.456   1.196 -1.1740 -1.0168 -0.4583
11438TIP3   OH234256   6.962   7.819   0.075 -0.4768 -0.6887  0.1097
11438TIP3    H134257   6.977   7.867  -0.007 -3.2345 -1.4240 -0.8778
11438TIP3    H234258   6.997   7.877   0.143  0.9033  0.4049 -1.4757
11439TIP3   OH234259   0.345   2.440   2.756 -0.0778 -1.0299 -0.3399
11439TIP3    H134260   0.368   2.350   2.734 -0.3941 -2.1004  3.3712
11439TIP3    H234261   0.262   2.456   2.711 -0.6688 -3.0404  0.0261
11440TIP3   OH234262   1.373   2.112   0.784  0.3149  0.2087  0.1417
11440TIP3    H134263   1.423   2.193   0.770  0.7622 -0.2000 -0.6969
11440TIP3    H234264   1.431   2.057   0.837  0.1920  0.2645  0.3340
11441TIP3   OH234265   4.273   4.388   5.463  0.1779 -0.1422 -0.1698
11441TIP3    H134266   4.309   4.437   5.390 -2.9846  1.2411 -0.9169
11441TIP3    H234267   4.183   4.421   5.471 -0.0311 -1.3841  3.3355
11442TIP3   OH234268   1.420   2.672   0.371 -0.1679 -0.4496  0.1271
11442TIP3    H134269   1.445   2.668   0.464 -1.9452 -0.6556  0.6195
11442TIP3    H234270   1.421   2.581   0.342  0.9948 -0.3281 -0.2350
11443TIP3   OH234271   4.772   5.741   6.015  0.8755  0.4803  0.1063
11443TIP3    H134272   4.776   5.802   5.942 -0.1152 -0.9802 -1.1997
11443TIP3    H234273   4.694   5.688   5.999  1.6714 -1.0929  1.2213
11444TIP3   OH234274   6.295   0.573   6.168 -0.7863 -0.1428  0.2646
11444TIP3    H134275   6.310   0.527   6.250  1.0943  2.4057  1.4044
11444TIP3    H234276   6.259   0.658   6.194  0.7635  1.0782 -1.4506
11445TIP3   OH234277   4.688   3.213   3.417  0.3693 -0.4255  0.6163
11445TIP3    H134278   4.749   3.185   3.485 -0.3315  0.6369  1.7072
11445TIP3    H234279   4.631   3.277   3.461 -0.7617 -0.5125 -0.6904
11446TIP3   OH234280   1.510   1.835   1.526  0.5285  0.4003 -0.3578
11446TIP3    H134281   1.591   1.865   1.484  1.1703 -0.3406  0.3330
11446TIP3    H234282   1.450   1.821   1.453  1.3133  0.1072 -0.9610
11447TIP3   OH234283   3.330   3.764   5.956 -0.2939  0.0836  0.6982
11447TIP3    H134284   3.352   3.671   5.960 -0.2935  0.1546  2.6750
11447TIP3    H234285   3.415   3.808   5.947 -0.3458 -0.1193 -1.0455
11448TIP3   OH234286   3.030   3.012   5.423 -0.5950 -0.4582  0.2564
11448TIP3    H134287   2.944   2.970   5.421 -0.1255 -1.4375  0.0616
11448TIP3    H234288   3.088   2.945   5.460  0.0499  0.2493  0.5329
11449TIP3   OH234289   0.755   0.613   0.557  0.3547  0.5918 -0.2056
11449TIP3    H134290   0.676   0.652   0.521 -0.0726  0.9040  1.0393
11449TIP3    H234291   0.781   0.673   0.628  1.1984  0.0256 -0.0307
11450TIP3   OH234292   2.245   0.693   0.046 -0.1581 -0.1589  0.2193
11450TIP3    H134293   2.327   0.693  -0.004 -0.7431  1.1707 -0.7945
11450TIP3    H234294   2.198   0.615   0.016 -0.0188  0.0323 -0.5180
11451TIP3   OH234295   4.233   4.926   5.377  0.2722  0.0845  0.2072
11451TIP3    H134296   4.326   4.924   5.353  0.1661  1.2234 -0.3400
11451TIP3    H234297   4.227   4.872   5.456  1.4488  0.2587  0.4184
11452TIP3   OH234298   2.466   2.907   6.026  0.6548  0.4325 -0.2191
11452TIP3    H134299   2.398   2.946   5.971 -0.5167  0.4956  1.2462
11452TIP3    H234300   2.494   2.829   5.978 -0.7023  0.2112 -0.6668
11453TIP3   OH234301   6.469   3.584   6.293  0.1889 -0.1417  0.2004
11453TIP3    H134302   6.537   3.543   6.239  1.1387  0.9542  0.5265
11453TIP3    H234303   6.438   3.513   6.349  2.4096 -0.2647  1.3584
11454TIP3   OH234304   2.559   0.629   1.438  0.6780 -0.0557  0.0840
11454TIP3    H134305   2.538   0.639   1.345  0.3587  1.2120  0.2804
11454TIP3    H234306   2.474   0.626   1.482  0.8328  0.7279  0.4563
11455TIP3   OH234307   8.173   7.819   0.606 -0.5237  0.0847 -0.1213
11455TIP3    H134308   8.205   7.759   0.674  1.0041 -1.7460 -2.3776
11455TIP3    H234309   8.081   7.795   0.595 -0.5448 -0.2120  0.6809
11456TIP3   OH234310   6.650   6.296   0.830  0.7800 -0.7787  0.3968
11456TIP3    H134311   6.688   6.301   0.742  0.3954 -1.6989  0.1702
11456TIP3    H234312   6.669   6.207   0.860  0.4107 -0.6578  1.0102
11457TIP3   OH234313   4.837   3.702   6.500 -0.0246 -0.1103 -0.0565
11457TIP3    H134314   4.797   3.692   6.586 -1.5833  1.4057 -0.5754
11457TIP3    H234315   4.896   3.777   6.510  0.2119 -0.2802 -0.1684
11458TIP3   OH234316   3.399   1.320   0.941 -0.2924 -0.1621  0.1155
11458TIP3    H134317   3.453   1.351   0.869 -0.8009 -0.2709 -0.3168
11458TIP3    H234318   3.398   1.225   0.932 -1.9276 -0.0690 -0.8868
11459TIP3   OH234319   8.403   7.806   0.258 -0.6711 -0.3411 -0.2276
11459TIP3    H134320   8.413   7.725   0.306 -1.4089  0.1787  0.8070
11459TIP3    H234321   8.493   7.830   0.233 -0.2102 -0.2558  1.4767
11460TIP3   OH234322   5.206   5.821   0.061  0.3268 -0.0838  0.2477
11460TIP3    H134323   5.124   5.772   0.050  1.0413 -1.4097  0.7986
11460TIP3    H234324   5.191   5.875   0.139 -0.2914  0.2412 -0.0890
11461TIP3   OH234325   2.373   0.137   1.173 -0.1681  0.2777  0.4852
11461TIP3    H134326   2.385   0.132   1.078 -1.8243  4.4078 -0.0342
11461TIP3    H234327   2.424   0.063   1.207  1.8648 -0.3079 -3.4868
11462TIP3   OH234328   1.877   0.821   1.222  0.6394 -0.1967  0.0474
11462TIP3    H134329   1.802   0.881   1.219  0.4947 -0.3800 -0.0209
11462TIP3    H234330   1.944   0.864   1.170  0.4341 -0.2288 -0.2455
11463TIP3   OH234331   2.380   1.154   1.488 -0.6486  0.3104 -0.4620
11463TIP3    H134332   2.314   1.220   1.469 -0.3146  1.1718  1.2276
11463TIP3    H234333   2.448   1.202   1.536  0.8026 -0.7340 -1.4344
11464TIP3   OH234334   5.044   4.434   6.422 -0.1328  0.6992  0.2003
11464TIP3    H134335   5.125   4.479   6.398  1.2256 -0.2135  2.8608
11464TIP3    H234336   5.003   4.490   6.488 -0.4073 -0.0444  0.6736
11465TIP3   OH234337   8.303   0.853   1.785 -0.4274 -0.3228 -0.0138
11465TIP3    H134338   8.285   0.928   1.729  1.7167  0.5288  0.3824
11465TIP3    H234339   8.311   0.890   1.873 -0.3888 -1.1585  0.3398
11466TIP3   OH234340   7.802   6.950   2.821 -0.0891 -0.3493  0.7523
11466TIP3    H134341   7.869   6.946   2.889  0.7411  0.9096  0.0240
11466TIP3    H234342   7.798   6.861   2.786  2.6378 -0.0281 -0.5485
11467TIP3   OH234343   3.964   2.982   6.159  0.0279 -0.0761  0.1542
11467TIP3    H134344   3.908   3.040   6.210 -0.2306  0.9950 -1.3084
11467TIP3    H234345   3.906   2.946   6.092  0.4375 -1.1983  0.3966
11468TIP3   OH234346   5.285   6.367   6.774 -0.4252  0.2882 -0.6800
11468TIP3    H134347   5.370   6.403   6.751  0.0983  0.5227  1.4527
11468TIP3    H234348   5.224   6.408   6.713  0.8914  0.6839 -1.7486
11469TIP3   OH234349   3.250   4.502   6.821 -0.1866  0.0652 -0.0372
11469TIP3    H134350   3.321   4.493   6.758 -0.6137  1.1237 -0.6670
11469TIP3    H234351   3.292   4.535   6.900  0.0824  0.2736 -0.2678
11470TIP3   OH234352   4.304   5.390   6.829 -0.3077  0.0533  0.1250
11470TIP3    H134353   4.357   5.315   6.854  2.2036  1.6090 -0.3849
11470TIP3    H234354   4.243   5.356   6.764 -1.0391 -2.1057  1.8759
11471TIP3   OH234355   5.109   3.915   6.805 -0.4411 -0.3258 -0.1389
11471TIP3    H134356   5.188   3.966   6.786 -0.0019  0.0668  2.6566
11471TIP3    H234357   5.100   3.918   6.900 -2.0921 -2.9738 -0.1637
11472TIP3   OH234358   4.376   5.790   5.514 -0.2548 -0.1247 -0.0392
11472TIP3    H134359   4.446   5.725   5.514 -0.2267 -0.1357 -1.7818
11472TIP3    H234360   4.297   5.740   5.533 -0.2353 -0.7062 -1.3813
11473TIP3   OH234361   4.073   5.249   5.077 -0.1587  0.3110  0.4477
11473TIP3    H134362   3.988   5.286   5.101 -2.0068 -2.6676 -1.2599
11473TIP3    H234363   4.080   5.168   5.128  0.6527 -0.6100 -1.0860
11474TIP3   OH234364   7.031   5.147   6.642 -0.3225 -0.6626 -0.3039
11474TIP3    H134365   7.085   5.089   6.589  0.8567 -0.0412  0.2135
11474TIP3    H234366   6.988   5.088   6.705  2.6416 -0.7788  1.7359
11475TIP3   OH234367   1.344   3.270   0.058 -0.4952  0.3021 -0.2287
11475TIP3    H134368   1.405   3.213   0.011  0.0625  2.6842 -2.5137
11475TIP3    H234369   1.399   3.317   0.121 -0.4074  0.6408 -0.5593
11476TIP3   OH234370   0.647   0.553   0.100  0.1291 -0.1186  0.5871
11476TIP3    H134371   0.717   0.596   0.050  0.1188  0.3763  0.9948
11476TIP3    H234372   0.684   0.468   0.124 -0.2571 -0.8126 -1.1867
11477TIP3   OH234373   1.455   0.552   1.029  0.0991  0.3008  0.0515
11477TIP3    H134374   1.517   0.576   1.099  1.0709 -0.1000 -0.6576
11477TIP3    H234375   1.458   0.457   1.026 -1.1037  0.2436  0.4867
11478TIP3   OH234376   4.644   5.655   4.957  0.0313  0.7056  0.0471
11478TIP3    H134377   4.710   5.586   4.946  0.8247  1.2198  1.4373
11478TIP3    H234378   4.578   5.617   5.014  0.1987  0.9003  0.3750
11479TIP3   OH234379   5.310   4.643   4.577  0.1736  0.7620  0.6262
11479TIP3    H134380   5.332   4.602   4.493 -0.3576  0.8061  0.4572
11479TIP3    H234381   5.334   4.579   4.643  0.2232  0.5614  0.4134
11480TIP3   OH234382   1.778   1.299   0.454  0.7149  0.2025 -0.4765
11480TIP3    H134383   1.844   1.323   0.389  0.0974  0.1682 -1.1261
11480TIP3    H234384   1.701   1.351   0.430 -0.5495 -2.1374 -1.7114
11481TIP3   OH234385   5.287   3.912   6.299  0.2477  0.3087 -0.0337
11481TIP3    H134386   5.216   3.906   6.235  0.0951 -1.1274  0.2382
11481TIP3    H234387   5.259   3.979   6.361 -0.6170  0.1553 -0.2539
11482TIP3   OH234388   5.232   4.675   5.864 -0.5407 -1.0170 -0.0669
11482TIP3    H134389   5.217   4.618   5.940  0.8033 -0.6313  0.5001
11482TIP3    H234390   5.284   4.621   5.804 -3.9874 -2.3452 -2.0183
11483TIP3   OH234391   4.885   4.055   4.843 -0.3955 -0.1074  0.5342
11483TIP3    H134392   4.882   4.122   4.775 -1.0824  0.1736  0.8311
11483TIP3    H234393   4.873   3.972   4.797  2.3617 -0.2190 -0.0773
11484TIP3   OH234394   5.651   3.839   4.862 -0.6177 -0.4046  0.1088
11484TIP3    H134395   5.632   3.925   4.899 -0.0958  0.4876 -1.6434
11484TIP3    H234396   5.565   3.801   4.844 -0.8404  0.3067 -0.3544
11485TIP3   OH234397   7.045   6.230   5.188 -0.2296  0.5821 -0.4231
11485TIP3    H134398   7.106   6.303   5.177 -0.5507  0.9716  0.3628
11485TIP3    H234399   6.970   6.268   5.234 -0.0560 -0.4309  0.7075
11486TIP3   OH234400   3.742   5.908   6.164 -0.6782  0.1557  0.3392
11486TIP3    H134401   3.788   5.983   6.128  0.3507 -0.7115 -0.1814
11486TIP3    H234402   3.767   5.907   6.257 -0.3082  0.1865  0.2433
11487TIP3   OH234403   5.961   5.685   6.243  0.1529 -0.8111  0.1475
11487TIP3    H134404   6.053   5.694   6.222 -0.0222 -0.0774 -0.3258
11487TIP3    H234405   5.916   5.692   6.158 -0.2634 -2.4205  0.2064
11488TIP3   OH234406   5.475   6.792   6.714  0.1792 -0.3611 -0.2818
11488TIP3    H134407   5.534   6.844   6.768  0.8237 -0.8004 -0.5489
11488TIP3    H234408   5.390   6.797   6.758  0.7752 -1.0251  0.9794
11489TIP3   OH234409   8.499   7.914   0.861  0.2239  0.1881  0.2177
11489TIP3    H134410   8.419   7.945   0.818 -1.0390  0.2974  2.5786
11489TIP3    H234411   8.570   7.956   0.812 -1.1709  0.7669 -1.3746
11490TIP3   OH234412   2.998   4.601   6.675 -0.0972 -0.0954 -0.1171
11490TIP3    H134413   3.051   4.594   6.753  0.6410  2.1004 -0.3711
11490TIP3    H234414   2.914   4.636   6.706  0.0605  0.4030 -0.2458
11491TIP3   OH234415   5.876   4.997   5.292 -0.8075 -0.6101 -0.7571
11491TIP3    H134416   5.890   5.061   5.222 -2.1206 -1.4010 -1.7707
11491TIP3    H234417   5.885   5.047   5.373 -1.2522  0.7384 -1.5317
11492TIP3   OH234418   5.442   3.985   5.362  0.2911 -0.3012 -0.6997
11492TIP3    H134419   5.380   4.058   5.367  2.0663  1.3741 -2.3522
11492TIP3    H234420   5.472   3.974   5.453  0.4332  1.4567 -0.4988
11493TIP3   OH234421   4.969   3.963   6.567 -0.4275  0.1796  0.0763
11493TIP3    H134422   5.034   3.965   6.637  0.1175 -0.9502 -0.3746
11493TIP3    H234423   4.967   4.052   6.532 -0.0427  0.5233  0.9186
11494TIP3   OH234424   2.997   2.982   0.364  0.7004 -0.1335  0.0050
11494TIP3    H134425   2.920   3.026   0.328  0.3625 -0.0963  0.7630
11494TIP3    H234426   2.968   2.892   0.377  0.5216  0.0760  1.0800
11495TIP3   OH234427   4.613   3.778   5.751 -0.3330 -0.3970 -0.2566
11495TIP3    H134428   4.567   3.823   5.822  0.6522 -3.1966  2.3025
11495TIP3    H234429   4.692   3.830   5.737  0.3227 -0.7153  1.9734
11496TIP3   OH234430   2.353   0.399   0.863  0.7505 -0.3424  0.1040
11496TIP3    H134431   2.320   0.423   0.950  2.0425 -0.7209  0.7111
11496TIP3    H234432   2.376   0.306   0.871  1.0555 -0.3292 -0.5986
11497TIP3   OH234433   3.708   5.725   4.883 -0.4893 -0.1848  0.0889
11497TIP3    H134434   3.686   5.670   4.959 -0.2116 -0.5215 -0.0774
11497TIP3    H234435   3.802   5.740   4.891 -0.1479 -1.6235 -1.1268
11498TIP3   OH234436   1.677   0.389   1.444 -0.3256  0.5606 -0.0665
11498TIP3    H134437   1.759   0.437   1.454 -1.0761  1.5491  1.4158
11498TIP3    H234438   1.650   0.406   1.353  0.4734  1.2368 -0.1783
11499TIP3   OH234439   3.449   2.874   0.955 -0.4841 -0.4606  0.5696
11499TIP3    H134440   3.360   2.865   0.919 -0.9115  1.2736  1.1232
11499TIP3    H234441   3.478   2.961   0.926  1.7444 -1.7200 -1.0802
11500TIP3   OH234442   2.633   1.629   2.258 -0.4032  0.1802  0.0262
11500TIP3    H134443   2.632   1.534   2.251 -0.4068  0.1281  0.7320
11500TIP3    H234444   2.546   1.656   2.228 -0.2707 -0.0147 -0.5237
11501TIP3   OH234445   3.429   4.455   5.723 -0.5149 -0.0586  0.8207
11501TIP3    H134446   3.359   4.440   5.787 -1.5677 -0.5975 -0.4488
11501TIP3    H234447   3.423   4.381   5.663 -0.1293  0.9206 -0.4390
11502TIP3   OH234448   6.904   7.278   0.953 -0.5307 -0.0326 -0.3989
11502TIP3    H134449   6.887   7.210   1.019 -0.1523  1.6885  1.5325
11502TIP3    H234450   6.992   7.259   0.921 -0.6869 -0.8334 -0.3760
11503TIP3   OH234451   1.907   2.543   1.259  0.4057  0.7370  0.4233
11503TIP3    H134452   1.928   2.627   1.302 -1.1346  1.4615 -0.2061
11503TIP3    H234453   1.840   2.504   1.315 -0.1695  0.7588 -0.2449
11504TIP3   OH234454   8.431   1.513   0.027  0.1506  0.3288  0.0670
11504TIP3    H134455   8.435   1.543   0.118 -0.0487 -0.8741  0.4722
11504TIP3    H234456   8.520   1.483   0.008  0.0764  0.1301  0.0232
11505TIP3   OH234457   0.950   0.972   2.464  0.2754 -0.1645  0.2047
11505TIP3    H134458   0.954   1.063   2.495  0.6451 -0.3885  0.8359
11505TIP3    H234459   0.883   0.972   2.396 -0.4831  0.3649  0.9443
11506TIP3   OH234460   4.739   4.192   5.898 -0.5478 -0.5135  0.0313
11506TIP3    H134461   4.670   4.258   5.907  1.2318  1.4656 -0.5976
11506TIP3    H234462   4.739   4.170   5.805  1.1019  1.1175 -0.3828
11507TIP3   OH234463   0.731   1.926   0.393 -0.1581 -0.3457 -0.0578
11507TIP3    H134464   0.778   1.878   0.461  3.5342  2.0075 -0.8041
11507TIP3    H234465   0.700   2.006   0.437  1.4565  0.7543 -0.8865
11508TIP3   OH234466   6.373   5.231   5.745  0.0281  0.1191 -0.2335
11508TIP3    H134467   6.308   5.286   5.702  1.8102  1.3003 -1.4875
11508TIP3    H234468   6.457   5.260   5.709  1.2010 -1.8643  0.8026
11509TIP3   OH234469   3.474   4.014   4.938 -0.0225 -0.0766 -0.1136
11509TIP3    H134470   3.509   4.057   5.016 -0.3976 -0.1244  0.0795
11509TIP3    H234471   3.395   3.970   4.968 -1.4703  1.8410 -0.9996
11510TIP3   OH234472   6.427   5.488   5.096  0.5031 -0.1002 -0.0376
11510TIP3    H134473   6.341   5.501   5.058  1.4456 -1.5467 -2.8516
11510TIP3    H234474   6.472   5.572   5.085 -0.7705  0.9019  2.1750
11511TIP3   OH234475   1.973   2.214   6.181 -0.3748 -0.6070  0.2798
11511TIP3    H134476   2.057   2.233   6.138  0.5709 -0.8747  1.9494
11511TIP3    H234477   1.995   2.151   6.249 -2.2782 -2.1766 -0.5035
11512TIP3   OH234478   5.330   5.425   5.245 -0.3443 -0.1452  0.0725
11512TIP3    H134479   5.393   5.368   5.200 -1.7643 -1.7109  0.0085
11512TIP3    H234480   5.274   5.364   5.293 -1.7996  1.2154  0.1208
11513TIP3   OH234481   2.430   0.976   0.577  0.6296 -0.3842  0.2584
11513TIP3    H134482   2.439   0.882   0.587  0.3570 -0.5657 -1.1263
11513TIP3    H234483   2.414   1.008   0.666 -0.2369 -1.7449  0.6103
11514TIP3   OH234484   6.782   5.684   4.507 -0.2776 -0.2555 -0.3512
11514TIP3    H134485   6.757   5.645   4.423 -1.4347 -0.2155 -0.0390
11514TIP3    H234486   6.805   5.775   4.485  0.8079 -0.6483 -0.8328
11515TIP3   OH234487   2.546   1.918   0.024 -0.0570  0.1117 -0.1245
11515TIP3    H134488   2.512   2.008   0.028  0.0227  0.1263  0.2422
11515TIP3    H234489   2.479   1.870  -0.026 -0.4016  0.2381  0.2120
11516TIP3   OH234490   3.159   4.549   5.378 -0.0734  0.1880 -0.0481
11516TIP3    H134491   3.075   4.541   5.333 -0.1859  0.8437  0.0401
11516TIP3    H234492   3.220   4.497   5.326 -0.3091  0.5593 -0.6902
11517TIP3   OH234493   5.886   2.383   4.489 -0.2850  0.7818  0.1788
11517TIP3    H134494   5.819   2.365   4.555 -2.0716 -0.6057 -1.9292
11517TIP3    H234495   5.879   2.477   4.473 -1.3867  0.7432  0.3776
11518TIP3   OH234496   5.024   6.737   5.559 -0.4144  0.4151  0.2806
11518TIP3    H134497   5.049   6.650   5.526  1.7304  0.9751  0.3751
11518TIP3    H234498   5.002   6.786   5.480  0.3445  0.3872  0.0425
11519TIP3   OH234499   4.993   5.214   5.154 -0.4986  0.4023  0.1433
11519TIP3    H134500   5.031   5.281   5.211 -0.5750  0.9090 -0.4003
11519TIP3    H234501   4.919   5.180   5.204  0.0076  0.1754  0.7502
11520TIP3   OH234502   2.663   6.428   6.484  1.0374  0.4046 -0.1385
11520TIP3    H134503   2.641   6.471   6.567  1.5143  0.7309 -0.1819
11520TIP3    H234504   2.715   6.493   6.437  1.1880  0.0273 -0.4865
11521TIP3   OH234505   3.421   3.050   5.710  0.3262 -0.1445 -0.0045
11521TIP3    H134506   3.496   3.026   5.654  0.5605 -0.1373  0.3027
11521TIP3    H234507   3.345   3.012   5.666  0.6059 -0.8349  0.0980
11522TIP3   OH234508   4.836   2.470   6.532 -0.1878  0.2810 -0.4565
11522TIP3    H134509   4.804   2.541   6.588  0.9950 -0.0738  0.6990
11522TIP3    H234510   4.766   2.404   6.536  0.1360  0.0021  1.1146
11523TIP3   OH234511   0.359   3.527   0.187  0.0749  0.3163  0.1272
11523TIP3    H134512   0.330   3.617   0.200 -0.0962  0.1708  0.7451
11523TIP3    H234513   0.355   3.514   0.092  0.9962  1.2649 -0.0594
11524TIP3   OH234514   0.169   6.823   0.850 -0.1125  0.1686 -1.0837
11524TIP3    H134515   0.142   6.764   0.780 -1.6916  1.2565 -1.4210
11524TIP3    H234516   0.103   6.812   0.918 -0.0412  1.0447 -0.8658
11525TIP3   OH234517   4.939   4.462   6.921  0.0691 -0.2041  0.0937
11525TIP3    H134518   5.002   4.390   6.923  0.3514 -0.0035 -1.0437
11525TIP3    H234519   4.859   4.425   6.958  0.9106 -0.3965  1.7713
11526TIP3   OH234520   4.800   3.977   6.830  0.2299  0.1458 -0.2614
11526TIP3    H134521   4.858   3.937   6.766  0.0659 -0.2614 -0.1575
11526TIP3    H234522   4.750   4.042   6.780  0.5174  0.2420 -0.4228
11527TIP3   OH234523   7.479   5.424   4.777 -0.1309 -0.3081  0.2494
11527TIP3    H134524   7.445   5.374   4.703 -3.5857 -0.3339  1.7242
11527TIP3    H234525   7.520   5.501   4.738 -1.5334 -0.5100 -1.7225
11528TIP3   OH234526   4.910   4.655   6.294 -0.0748  0.0191  0.2934
11528TIP3    H134527   4.979   4.715   6.322 -1.0272  1.1583  0.2792
11528TIP3    H234528   4.850   4.652   6.368 -0.4069 -0.3332  0.0111
11529TIP3   OH234529   2.402   2.571   0.117 -0.3491 -0.3220  0.6850
11529TIP3    H134530   2.479   2.541   0.165 -0.0292 -0.0038  0.3683
11529TIP3    H234531   2.351   2.491   0.102  0.4962 -0.7172 -0.1551
11530TIP3   OH234532   6.650   6.099   5.498  0.2412  0.5188  0.4192
11530TIP3    H134533   6.562   6.135   5.505 -0.0424 -0.3083  1.1905
11530TIP3    H234534   6.665   6.055   5.582  1.2496  0.3606  0.1607
11531TIP3   OH234535   4.312   3.813   6.062 -0.2193  0.0165 -0.1693
11531TIP3    H134536   4.328   3.908   6.065  0.7932 -0.1738  0.9353
11531TIP3    H234537   4.248   3.802   5.992 -2.0264  1.7677  1.1465
11532TIP3   OH234538   6.426   6.251   5.912  0.1660 -0.1652 -0.0395
11532TIP3    H134539   6.462   6.184   5.970  0.1505 -0.3507 -0.2484
11532TIP3    H234540   6.354   6.290   5.962  1.1981  0.7999  0.7348
11533TIP3   OH234541   6.165   7.134   0.645  0.0995  0.4274  0.0595
11533TIP3    H134542   6.121   7.103   0.724 -2.0641  1.9072 -0.4959
11533TIP3    H234543   6.244   7.178   0.677  0.2208 -0.6372  1.2410
11534TIP3   OH234544   1.319   5.635   5.945  0.0039  0.2526 -0.1404
11534TIP3    H134545   1.268   5.697   5.997 -0.4387  2.0425 -2.5908
11534TIP3    H234546   1.337   5.562   6.004 -0.8894  1.9762  2.3206
11535TIP3   OH234547   6.686   4.277   6.262 -0.3784 -0.1723 -1.0828
11535TIP3    H134548   6.607   4.316   6.225 -1.1742 -0.4696  0.2864
11535TIP3    H234549   6.728   4.234   6.187 -0.8384  1.0619 -2.0678
11536TIP3   OH234550   7.393   4.362   5.168 -0.5955  0.3366  0.0867
11536TIP3    H134551   7.398   4.448   5.127 -0.4576 -0.4547 -1.5979
11536TIP3    H234552   7.477   4.320   5.146  0.7710  0.9709  3.6974
11537TIP3   OH234553   6.161   6.058   5.486 -0.2914 -0.1560  0.1475
11537TIP3    H134554   6.209   6.140   5.497 -1.8685  0.6634  1.0853
11537TIP3    H234555   6.130   6.060   5.396  0.4895 -0.1887 -0.1306
11538TIP3   OH234556   7.399   5.717   6.650  0.3542  0.5474  0.2131
11538TIP3    H134557   7.408   5.622   6.656  0.0905  0.5570  0.9220
11538TIP3    H234558   7.466   5.751   6.710  0.4591  0.8049 -0.0526
11539TIP3   OH234559   6.259   5.482   4.377 -0.7504 -0.1899  0.0994
11539TIP3    H134560   6.339   5.464   4.426 -0.6013 -0.3006 -0.1814
11539TIP3    H234561   6.231   5.568   4.408  1.4765  1.5169 -2.4339
11540TIP3   OH234562   8.216   5.633   5.715 -0.2406  0.3745  0.8035
11540TIP3    H134563   8.268   5.596   5.787  0.3624  1.8963  1.1546
11540TIP3    H234564   8.125   5.618   5.741 -0.0134 -0.4415  1.1579
11541TIP3   OH234565   6.037   4.909   5.661  0.1548  0.4008 -0.4577
11541TIP3    H134566   6.121   4.939   5.697  0.6810  1.1445 -2.2198
11541TIP3    H234567   6.012   4.978   5.599 -1.0656 -0.4809 -0.9625
11542TIP3   OH234568   6.800   4.514   6.724 -0.8872  0.1658  0.5542
11542TIP3    H134569   6.767   4.434   6.686  1.5161 -0.9694  0.7395
11542TIP3    H234570   6.781   4.582   6.659 -0.3827 -1.0629 -0.9030
11543TIP3   OH234571   7.247   4.182   5.941 -0.1413  0.3211 -0.1631
11543TIP3    H134572   7.286   4.235   6.011  1.6993 -2.5234  1.0706
11543TIP3    H234573   7.301   4.201   5.864  0.8772 -0.2212  0.4145
11544TIP3   OH234574   6.986   6.207   5.620 -0.2486 -0.0921  0.1278
11544TIP3    H134575   6.973   6.133   5.561  0.2902  1.3882 -1.8851
11544TIP3    H234576   7.080   6.210   5.635 -0.3460 -0.2457  0.7838
11545TIP3   OH234577   7.733   4.819   5.914 -0.2101 -0.0222 -0.0609
11545TIP3    H134578   7.754   4.864   5.996 -0.4784  0.7489 -0.4021
11545TIP3    H234579   7.802   4.847   5.854  0.4655 -1.2595  0.1341
11546TIP3   OH234580   5.509   5.671   5.735  0.3532  0.0939 -0.2695
11546TIP3    H134581   5.551   5.585   5.740  0.4870  0.2427  1.8740
11546TIP3    H234582   5.424   5.654   5.696  0.8687 -0.8243 -1.0031
11547TIP3   OH234583   5.847   6.018   5.526 -0.2122 -0.3515  0.3529
11547TIP3    H134584   5.905   5.943   5.527  0.6101  0.2693  0.0952
11547TIP3    H234585   5.905   6.094   5.531 -1.1333  0.2324  3.6232
11548TIP3   OH234586   5.356   7.890   5.541 -0.5451  0.0907 -0.5939
11548TIP3    H134587   5.413   7.954   5.583 -1.7970  0.9688 -0.2268
11548TIP3    H234588   5.394   7.878   5.454  0.4536  0.3351 -0.1967
11549TIP3   OH234589   1.354   7.840   0.518  0.5656  0.0173  0.2250
11549TIP3    H134590   1.385   7.884   0.439 -0.6110  0.5105  0.0213
11549TIP3    H234591   1.432   7.831   0.573  0.8316  2.5482  0.3576
11550TIP3   OH234592   7.165   4.579   6.063 -0.0969 -0.6956  0.2120
11550TIP3    H134593   7.196   4.577   6.153 -2.0461 -1.1015  0.8948
11550TIP3    H234594   7.169   4.671   6.038 -0.4590 -0.4447  1.0541
11551TIP3   OH234595   5.574   6.701   4.398 -0.1291 -0.0195  0.4393
11551TIP3    H134596   5.484   6.733   4.403 -0.2300 -0.3610  0.7715
11551TIP3    H234597   5.587   6.683   4.304 -0.7487 -0.9404  0.5130
11552TIP3   OH234598   4.653   6.629   2.216 -0.3264  0.0741 -0.1348
11552TIP3    H134599   4.685   6.582   2.293  1.5488 -0.5042 -1.2440
11552TIP3    H234600   4.695   6.715   2.220  0.0090 -0.0618 -0.6577
11553TIP3   OH234601   6.914   3.619   2.530 -0.1517  0.5182  0.1354
11553TIP3    H134602   6.859   3.665   2.466 -1.1189 -0.6900  0.0718
11553TIP3    H234603   6.880   3.529   2.530  1.3721 -0.0729  0.6206
11554TIP3   OH234604   5.223   4.630   4.964 -0.1862  0.4390  0.1228
11554TIP3    H134605   5.208   4.552   4.912  0.4720  0.2187  0.2632
11554TIP3    H234606   5.231   4.701   4.900  0.6702  0.1615 -0.0790
11555TIP3   OH234607   6.460   5.426   4.560  0.3538  0.3716  0.2567
11555TIP3    H134608   6.502   5.497   4.609 -1.9292 -0.2964  3.3820
11555TIP3    H234609   6.504   5.347   4.591  0.6316  0.1222 -0.7451
11556TIP3   OH234610   1.070   5.014   6.622 -0.0822  0.7604  0.1166
11556TIP3    H134611   1.059   5.109   6.629  1.3883  1.0639 -1.2502
11556TIP3    H234612   0.982   4.981   6.605 -0.6831  1.8261  1.0775
11557TIP3   OH234613   5.508   4.075   4.453 -0.0563  0.0564 -0.0185
11557TIP3    H134614   5.462   4.014   4.396 -1.2089 -0.1215  1.0811
11557TIP3    H234615   5.462   4.069   4.537  1.9596 -0.1176  1.0987
11558TIP3   OH234616   3.494   2.133   0.438 -0.0972  0.0737  0.8268
11558TIP3    H134617   3.433   2.204   0.459  0.8346  1.0832  0.1227
11558TIP3    H234618   3.562   2.174   0.385  0.4025 -1.3673  0.3325
11559TIP3   OH234619   1.682   2.289   0.085  0.1399 -0.4758  0.2488
11559TIP3    H134620   1.708   2.238   0.009  0.4540 -0.7441  0.5304
11559TIP3    H234621   1.666   2.377   0.052 -1.1672 -0.9359 -0.3768
11560TIP3   OH234622   7.900   6.479   5.051 -0.2015  1.0236 -0.0637
11560TIP3    H134623   7.987   6.516   5.039  0.2775 -0.1613 -0.3216
11560TIP3    H234624   7.870   6.459   4.963 -0.7435  1.4496  0.0248
11561TIP3   OH234625   6.071   5.965   6.096 -0.9872  0.6297 -0.6460
11561TIP3    H134626   6.093   5.946   6.187  0.6931  0.0950 -1.1493
11561TIP3    H234627   6.025   6.049   6.099 -1.6969  0.1890  0.7799
11562TIP3   OH234628   3.630   0.875   0.566  0.5880 -0.5166  0.5070
11562TIP3    H134629   3.706   0.824   0.536  1.0395 -0.9990  2.4417
11562TIP3    H234630   3.556   0.817   0.553  0.9259 -1.1461  1.4061
11563TIP3   OH234631   1.905   2.385   0.348  0.3497  0.1003  0.1730
11563TIP3    H134632   1.896   2.290   0.343 -0.8956  0.2867 -1.5719
11563TIP3    H234633   1.932   2.402   0.438 -3.1793 -1.6454  1.6891
11564TIP3   OH234634   6.570   6.285   6.488 -0.2722 -0.4277  0.2168
11564TIP3    H134635   6.556   6.272   6.394  0.7244 -1.0912  0.1578
11564TIP3    H234636   6.598   6.199   6.520 -1.9393 -0.5846  1.3777
11565TIP3   OH234637   3.683   1.989   0.816  0.0410 -0.4331 -0.5127
11565TIP3    H134638   3.596   2.027   0.822 -0.4398 -1.5438 -0.3477
11565TIP3    H234639   3.710   1.975   0.906  0.2387 -0.4399 -0.5720
11566TIP3   OH234640   6.312   4.395   6.879 -0.1336 -0.4159 -0.5323
11566TIP3    H134641   6.339   4.304   6.867 -1.1187 -1.0420  1.6890
11566TIP3    H234642   6.380   4.433   6.935 -1.7342 -0.9058  1.8003
11567TIP3   OH234643   2.597   0.564   0.899 -0.2975 -0.1288 -0.2993
11567TIP3    H134644   2.526   0.504   0.875  0.4227 -0.6545 -1.1711
11567TIP3    H234645   2.595   0.632   0.832 -0.4884  0.2910  0.1327
11568TIP3   OH234646   7.350   4.795   5.924 -0.1085 -0.0965 -0.0314
11568TIP3    H134647   7.261   4.828   5.911 -0.6132 -0.8186  1.5252
11568TIP3    H234648   7.385   4.849   5.995  1.2303  1.1816 -1.6390
11569TIP3   OH234649   6.855   6.622   4.172  0.1439  0.2561  0.5372
11569TIP3    H134650   6.914   6.618   4.097 -0.9012  1.2030 -0.3584
11569TIP3    H234651   6.912   6.622   4.248  1.2497  0.0526 -0.2840
11570TIP3   OH234652   6.479   6.450   4.436 -0.1598 -0.5598  0.6624
11570TIP3    H134653   6.410   6.450   4.503  0.3427 -1.8668  1.2020
11570TIP3    H234654   6.558   6.426   4.484  0.7211  1.1460  0.0770
11571TIP3   OH234655   6.623   4.619   5.538 -0.4626  0.2989  0.3018
11571TIP3    H134656   6.686   4.682   5.573 -0.2968  0.1017  0.3534
11571TIP3    H234657   6.567   4.672   5.481 -0.0372  0.4137 -0.0188
11572TIP3   OH234658   4.317   6.235   4.765 -0.0245  0.1866 -0.3998
11572TIP3    H134659   4.274   6.195   4.689 -0.1023 -0.8267  0.1677
11572TIP3    H234660   4.404   6.260   4.734 -0.6951  1.4764 -1.3262
11573TIP3   OH234661   7.841   5.218   6.852 -0.1918 -0.4177 -0.4221
11573TIP3    H134662   7.937   5.220   6.855 -0.1652 -1.1925 -0.6375
11573TIP3    H234663   7.814   5.191   6.939 -0.2755  1.2806  0.0973
11574TIP3   OH234664   2.012   1.341   0.288  0.0176 -0.4747 -0.9608
11574TIP3    H134665   2.030   1.260   0.240 -0.9330 -1.1827 -0.1399
11574TIP3    H234666   2.028   1.319   0.379 -0.0946  0.3066 -0.7514
11575TIP3   OH234667   7.998   6.273   5.377 -0.0828  0.1353 -0.3327
11575TIP3    H134668   8.090   6.275   5.351 -0.2366 -0.7044 -0.9600
11575TIP3    H234669   7.999   6.290   5.472  0.9663 -2.9323  0.2578
11576TIP3   OH234670   3.023   0.304   1.222 -0.6175 -0.3034  0.2663
11576TIP3    H134671   2.974   0.314   1.303 -2.7529  1.1405 -1.1586
11576TIP3    H234672   2.966   0.341   1.154  2.1916  0.9355 -1.5309
11577TIP3   OH234673   5.069   7.275   5.125  0.1027  0.1552 -0.0919
11577TIP3    H134674   5.144   7.226   5.092 -0.1520  1.7646 -3.1998
11577TIP3    H234675   4.992   7.227   5.093 -0.1620  0.8143 -0.4575
11578TIP3   OH234676   2.076   0.771   0.461 -0.1328  0.4184  0.0612
11578TIP3    H134677   2.160   0.806   0.432  0.3012 -0.6934 -0.0614
11578TIP3    H234678   2.060   0.697   0.402 -0.6723 -0.0427  0.7818
11579TIP3   OH234679   5.212   6.042   5.008 -0.0453  0.0581 -0.4553
11579TIP3    H134680   5.236   6.019   5.098 -1.9353 -0.8830 -0.1824
11579TIP3    H234681   5.162   5.967   4.976 -2.8709  2.0608 -0.9055
11580TIP3   OH234682   2.304   1.927   0.958 -0.2121  0.4913  0.1947
11580TIP3    H134683   2.307   2.005   0.901 -0.6128  1.7400  1.8458
11580TIP3    H234684   2.307   1.853   0.897 -0.1278  1.7939 -1.4299
11581TIP3   OH234685   2.176   0.441   1.093  0.3912 -0.2781  0.7737
11581TIP3    H134686   2.177   0.479   1.181 -1.8118  0.4557  0.4847
11581TIP3    H234687   2.107   0.374   1.096 -1.2731  1.3027 -1.0278
11582TIP3   OH234688   7.650   5.125   5.913  0.0595  0.1010 -0.3379
11582TIP3    H134689   7.630   5.040   5.873  0.1941  0.2631 -0.7460
11582TIP3    H234690   7.722   5.107   5.973  0.4494  0.0309 -0.8245
11583TIP3   OH234691   6.527   6.009   6.658  0.3213 -0.3858  0.0309
11583TIP3    H134692   6.461   5.940   6.670  1.6400 -1.2770  2.5037
11583TIP3    H234693   6.504   6.076   6.722  1.1924 -0.1902  0.1351
11584TIP3   OH234694   6.467   5.107   3.122 -0.1240  0.6502  0.3604
11584TIP3    H134695   6.437   5.069   3.040  0.2911 -1.3434  1.1047
11584TIP3    H234696   6.388   5.109   3.177  0.0504  0.0322  0.6303
11585TIP3   OH234697   6.919   5.385   6.709 -0.1265  0.0103 -0.0800
11585TIP3    H134698   6.953   5.450   6.647  1.0050 -0.6674 -0.1923
11585TIP3    H234699   6.979   5.311   6.700 -0.6623 -0.5530  0.9667
11586TIP3   OH234700   6.495   6.008   6.277 -0.3747 -0.5612 -0.5296
11586TIP3    H134701   6.446   5.999   6.196  1.9024  2.5195 -2.3902
11586TIP3    H234702   6.586   6.022   6.248  0.1087  3.1307  2.3731
11587TIP3   OH234703   6.364   5.454   5.484  0.6081 -0.1077 -0.0327
11587TIP3    H134704   6.402   5.508   5.554 -2.4119  0.0247  1.6007
11587TIP3    H234705   6.363   5.511   5.407  1.6231  0.6310  0.4930
11588TIP3   OH234706   5.572   4.023   5.052  0.3515 -0.2165  0.2281
11588TIP3    H134707   5.481   3.993   5.065 -0.3978  1.5801 -0.7662
11588TIP3    H234708   5.577   4.105   5.100  1.7431 -0.7552  1.0310
11589TIP3   OH234709   1.767   1.053   1.550 -0.1928 -0.4756  0.7687
11589TIP3    H134710   1.770   1.137   1.505 -2.1256 -0.7703  0.0493
11589TIP3    H234711   1.857   1.019   1.544  0.1387  0.6203 -0.6948
11590TIP3   OH234712   2.850   2.658   0.996 -0.0398 -0.7805 -0.6990
11590TIP3    H134713   2.826   2.750   0.989  1.6351 -0.2813 -0.1218
11590TIP3    H234714   2.766   2.612   1.002 -0.8866  0.9595  2.0087
11591TIP3   OH234715   5.902   2.899   5.585  0.1041 -0.0332 -0.0357
11591TIP3    H134716   5.928   2.934   5.670 -3.1623  1.3125  0.4746
11591TIP3    H234717   5.933   2.963   5.521 -0.6077  0.7994  0.4431
11592TIP3   OH234718   5.581   4.421   6.290  0.6856 -0.6301 -0.4267
11592TIP3    H134719   5.581   4.387   6.200  0.5867 -1.1131 -0.2471
11592TIP3    H234720   5.654   4.482   6.292  0.0136  0.2133 -1.1488
11593TIP3   OH234721   7.993   3.204   5.329 -0.6825 -0.0558  0.2250
11593TIP3    H134722   7.976   3.213   5.236  2.2360  1.9919 -0.1750
11593TIP3    H234723   8.076   3.158   5.335  1.2110  3.3267  1.6194
11594TIP3   OH234724   5.526   2.588   4.928  0.2041 -0.4873  0.1977
11594TIP3    H134725   5.569   2.657   4.877  0.6872  2.0807  3.8543
11594TIP3    H234726   5.437   2.620   4.942  0.3346 -0.7180  1.6583
11595TIP3   OH234727   0.717   7.290   2.320  0.0117 -0.1798 -0.3781
11595TIP3    H134728   0.792   7.268   2.376 -0.8517 -1.6487  0.2490
11595TIP3    H234729   0.643   7.291   2.380 -1.0305 -2.3653 -1.5794
11596TIP3   OH234730   5.562   2.529   3.968  0.2907 -0.2136 -0.1593
11596TIP3    H134731   5.481   2.534   4.019  0.7557 -1.5171  0.7270
11596TIP3    H234732   5.613   2.605   3.997 -0.1142 -0.0557  0.1460
11597TIP3   OH234733   6.719   5.819   6.627  0.1311 -0.9173 -0.5663
11597TIP3    H134734   6.700   5.767   6.549 -0.7588  1.4424 -1.9943
11597TIP3    H234735   6.656   5.891   6.624 -0.3965 -1.1593  2.7463
11598TIP3   OH234736   6.189   6.629   5.915 -0.2339  0.1550 -0.6939
11598TIP3    H134737   6.159   6.541   5.940 -1.6667  1.2968  1.8264
11598TIP3    H234738   6.272   6.639   5.963  0.9243 -0.4977 -2.4882
11599TIP3   OH234739   5.955   5.545   4.592 -0.4684  0.1103 -0.1253
11599TIP3    H134740   6.044   5.582   4.594 -0.8764  1.0585  0.6653
11599TIP3    H234741   5.967   5.454   4.620  0.2906  0.1699 -0.2351
11600TIP3   OH234742   5.531   5.106   3.640  0.1851 -0.2450 -0.9118
11600TIP3    H134743   5.612   5.075   3.599 -1.0310 -0.3518 -3.2846
11600TIP3    H234744   5.464   5.046   3.608 -0.8848 -0.0466  0.9125
11601TIP3   OH234745   2.978   2.425   0.237  0.3922  0.3598 -0.3815
11601TIP3    H134746   2.989   2.339   0.197  2.0127  0.8211 -0.9772
11601TIP3    H234747   2.933   2.477   0.170 -1.8372 -0.3653  0.4877
11602TIP3   OH234748   3.425   1.349   0.533  0.1060 -0.2609 -0.1583
11602TIP3    H134749   3.483   1.334   0.608  0.6391 -0.3567 -0.5938
11602TIP3    H234750   3.355   1.284   0.544  0.0267 -0.0859  0.4110
11603TIP3   OH234751   4.318   5.611   6.464 -0.0260 -0.3730  0.7100
11603TIP3    H134752   4.344   5.544   6.401  1.4926 -1.5042  2.4934
11603TIP3    H234753   4.373   5.687   6.443 -0.8911 -0.0744 -0.5338
11604TIP3   OH234754   6.625   6.486   5.551  0.0764 -0.2275 -0.0792
11604TIP3    H134755   6.643   6.472   5.458  0.1396  1.4577 -0.3395
11604TIP3    H234756   6.678   6.421   5.597  0.6103 -0.5786 -1.1918
11605TIP3   OH234757   8.386   5.089   6.411  0.1139  0.4781  0.3888
11605TIP3    H134758   8.388   5.049   6.324  1.2822  0.8938  0.2204
11605TIP3    H234759   8.304   5.140   6.412 -1.3862 -1.8450  0.6003
11606TIP3   OH234760   3.883   3.040   0.300 -0.2321  0.0319  0.0223
11606TIP3    H134761   3.801   2.992   0.294 -0.2448  0.1734 -1.0827
11606TIP3    H234762   3.940   3.000   0.234  0.2411  0.6028  0.0722
11607TIP3   OH234763   0.880   5.894   5.538 -0.3176 -0.2133  0.6668
11607TIP3    H134764   0.791   5.875   5.507 -1.0107  2.3869  1.0048
11607TIP3    H234765   0.881   5.864   5.629 -0.7942 -0.3624  0.6220
11608TIP3   OH234766   8.139   5.492   4.420 -0.1235 -0.5977  0.1073
11608TIP3    H134767   8.047   5.517   4.420 -0.4739 -1.8816 -0.1271
11608TIP3    H234768   8.171   5.521   4.334  0.2019  1.6134  0.9323
11609TIP3   OH234769   5.763   4.835   4.026  0.4228  0.0985  0.2240
11609TIP3    H134770   5.692   4.854   4.086  0.1158  0.2678 -0.1880
11609TIP3    H234771   5.781   4.919   3.983  0.9429  0.0828  0.4016
11610TIP3   OH234772   0.955   4.737   4.216  0.2686  0.4307  0.4504
11610TIP3    H134773   0.949   4.810   4.154  0.2210  0.7014  0.7751
11610TIP3    H234774   1.048   4.716   4.218  0.1036 -0.5308 -0.8133
11611TIP3   OH234775   1.208   3.530   1.400  0.2800  0.3506  0.3864
11611TIP3    H134776   1.230   3.555   1.310 -1.3570  0.0945 -0.0900
11611TIP3    H234777   1.161   3.447   1.391 -0.1656  0.4815  1.4714
11612TIP3   OH234778   5.266   4.672   3.726  0.0292 -0.0813 -0.1144
11612TIP3    H134779   5.306   4.728   3.792  0.1582 -2.8884  2.2640
11612TIP3    H234780   5.339   4.629   3.682 -0.1700 -1.0497  0.4869
11613TIP3   OH234781   6.916   4.820   6.171 -0.7741  0.5381  0.0859
11613TIP3    H134782   6.998   4.845   6.214 -1.3337  1.8973  0.4096
11613TIP3    H234783   6.893   4.736   6.209  0.6973 -0.0845 -0.3362
11614TIP3   OH234784   5.346   5.214   6.756  0.2742  0.1426 -0.2901
11614TIP3    H134785   5.418   5.251   6.806  0.0800  0.1542 -0.0197
11614TIP3    H234786   5.269   5.226   6.811  0.0096  0.4259 -0.7153
11615TIP3   OH234787   4.984   5.249   5.809 -0.6009 -0.2424 -0.0069
11615TIP3    H134788   5.004   5.157   5.791  0.0528 -0.2384  0.6527
11615TIP3    H234789   4.950   5.248   5.899 -0.8573  0.1266 -0.1021
11616TIP3   OH234790   7.426   5.604   2.831 -0.1693 -0.4851 -0.0963
11616TIP3    H134791   7.521   5.607   2.821 -0.1851  1.1393  0.0288
11616TIP3    H234792   7.393   5.606   2.741 -0.0956  0.7015 -0.1103
11617TIP3   OH234793   6.665   5.319   5.447  0.3024  0.2406 -0.2611
11617TIP3    H134794   6.655   5.403   5.402 -0.7165 -0.4488 -1.3312
11617TIP3    H234795   6.618   5.330   5.530 -0.4149  0.4979 -0.6985
11618TIP3   OH234796   0.072   5.102   4.692  0.1858 -0.2685 -0.4878
11618TIP3    H134797   0.151   5.061   4.657 -0.1438 -0.6461 -0.7919
11618TIP3    H234798   0.004   5.035   4.683  0.0573 -0.3035  0.7123
11619TIP3   OH234799   6.023   5.762   4.139 -0.1484 -0.0161 -0.6337
11619TIP3    H134800   5.979   5.760   4.224 -1.1049  1.3492 -1.0884
11619TIP3    H234801   6.116   5.764   4.161 -0.3674 -0.1228  0.3667
11620TIP3   OH234802   5.895   5.287   5.941 -0.3516 -0.1432 -0.6661
11620TIP3    H134803   5.961   5.223   5.969 -1.3654 -1.6604 -1.6930
11620TIP3    H234804   5.813   5.239   5.942 -1.0903  1.0795 -1.7090
11621TIP3   OH234805   6.767   5.782   3.544  0.4539  0.2363 -0.5342
11621TIP3    H134806   6.844   5.740   3.507  0.6208  0.4669 -0.4485
11621TIP3    H234807   6.780   5.876   3.529 -0.8984  0.1181 -2.5730
11622TIP3   OH234808   6.243   7.375   5.474  0.2221 -0.2434  0.1744
11622TIP3    H134809   6.165   7.393   5.527  0.8495  0.3330  0.9275
11622TIP3    H234810   6.228   7.288   5.439 -0.6657 -0.2301  0.4905
11623TIP3   OH234811   4.363   7.108   6.544  0.0150  0.0908 -0.2115
11623TIP3    H134812   4.436   7.133   6.487  0.9264  0.8420  1.2483
11623TIP3    H234813   4.336   7.022   6.512  1.4045 -0.1104 -0.9065
11624TIP3   OH234814   7.814   4.929   6.309 -0.6363 -0.0360 -0.2457
11624TIP3    H134815   7.752   4.977   6.364  0.2878  1.2910 -0.3134
11624TIP3    H234816   7.816   4.841   6.346 -2.1685  0.0536  0.0692
11625TIP3   OH234817   6.500   6.956   5.399  0.5190  0.1321  0.9542
11625TIP3    H134818   6.457   7.026   5.448  0.8944  0.4473  0.8367
11625TIP3    H234819   6.576   6.998   5.359 -0.4984  0.1882 -0.9928
11626TIP3   OH234820   6.426   5.698   5.331  0.5086  0.2441 -0.7378
11626TIP3    H134821   6.373   5.744   5.396 -1.0642 -2.8147  0.2608
11626TIP3    H234822   6.405   5.741   5.248 -1.7169  0.6507  0.0048
11627TIP3   OH234823   3.602   3.090   0.017 -0.4065  0.4647 -0.6895
11627TIP3    H134824   3.662   3.159   0.047 -1.7914  1.4573 -0.1328
11627TIP3    H234825   3.532   3.089   0.083 -0.8850 -0.8455 -1.1977
11628TIP3   OH234826   6.243   5.172   2.327 -0.4319 -0.6765 -0.4525
11628TIP3    H134827   6.198   5.239   2.379  1.0397 -0.0551  0.0396
11628TIP3    H234828   6.215   5.089   2.365 -1.5062 -0.3198 -0.4371
11629TIP3   OH234829   5.639   5.925   6.851 -0.4401 -0.5729 -0.1250
11629TIP3    H134830   5.657   5.987   6.922 -0.5548 -0.5805 -0.0901
11629TIP3    H234831   5.554   5.888   6.872 -0.8949  0.1094 -0.7614
11630TIP3   OH234832   7.258   5.417   5.437 -0.0386  0.3894 -0.3355
11630TIP3    H134833   7.257   5.357   5.362  1.0140  1.1544 -0.9672
11630TIP3    H234834   7.296   5.366   5.508 -1.1500 -0.3793 -0.2818
11631TIP3   OH234835   1.247   1.355   0.555  0.4752  0.5914 -0.0595
11631TIP3    H134836   1.257   1.416   0.483  1.3000  1.7375  1.0068
11631TIP3    H234837   1.181   1.395   0.612  1.2709  0.6861  0.8193
11632TIP3   OH234838   6.111   5.774   6.556  0.6935  0.3626  0.3052
11632TIP3    H134839   6.015   5.771   6.549  0.6971  0.7946  0.0918
11632TIP3    H234840   6.129   5.742   6.645  0.2274  2.2752  1.1176
11633TIP3   OH234841   0.374   5.318   5.721 -0.5284  0.8540 -0.2987
11633TIP3    H134842   0.282   5.343   5.715 -1.0374 -0.4483  1.5081
11633TIP3    H234843   0.413   5.387   5.776 -1.0227  0.0035  1.1562
11634TIP3   OH234844   6.391   3.661   4.393  0.3394 -0.5500 -0.0203
11634TIP3    H134845   6.390   3.651   4.488  0.9344 -0.1246  0.0316
11634TIP3    H234846   6.390   3.571   4.360 -0.8737 -0.6870  0.3686
11635TIP3   OH234847   7.788   4.747   6.869  0.2240 -0.1456 -0.2328
11635TIP3    H134848   7.761   4.664   6.907 -1.6515  1.2100  1.4576
11635TIP3    H234849   7.865   4.773   6.919 -0.9414  0.5551  1.2379
11636TIP3   OH234850   7.724   6.118   4.408  0.3595  0.0025 -0.5796
11636TIP3    H134851   7.813   6.121   4.443  0.7841 -0.9999 -1.5555
11636TIP3    H234852   7.696   6.210   4.407  0.5510  0.1138  1.7854
11637TIP3   OH234853   4.731   5.883   5.050 -0.2099 -0.5679 -0.3827
11637TIP3    H134854   4.691   5.814   4.997 -1.9550  0.8539 -0.9681
11637TIP3    H234855   4.691   5.964   5.019  1.0432  0.6186  0.9974
11638TIP3   OH234856   5.931   6.363   5.323 -0.2332 -0.0623 -0.5543
11638TIP3    H134857   5.942   6.340   5.415  0.0804  1.5031 -0.1997
11638TIP3    H234858   5.979   6.445   5.312  1.9917 -1.5656 -2.7244
11639TIP3   OH234859   8.287   4.611   5.656  0.2181 -0.4998 -0.7892
11639TIP3    H134860   8.326   4.523   5.654  1.9530  0.2208  0.0670
11639TIP3    H234861   8.322   4.654   5.579  0.8548  0.0372 -0.2059
11640TIP3   OH234862   6.147   3.791   5.724 -0.4017 -0.6325  0.2604
11640TIP3    H134863   6.140   3.883   5.750 -0.1936 -0.2132 -1.0905
11640TIP3    H234864   6.101   3.787   5.640 -1.6631 -2.0794  0.9915
11641TIP3   OH234865   5.800   7.021   6.474  0.2816  0.0973  0.2510
11641TIP3    H134866   5.814   6.993   6.384  0.3862 -0.1482  0.3450
11641TIP3    H234867   5.710   6.995   6.494  0.1599  0.4120  0.1216
11642TIP3   OH234868   1.142   4.518   4.970  0.0864 -0.0831  0.0659
11642TIP3    H134869   1.234   4.534   4.993 -0.0728  1.0133 -0.0224
11642TIP3    H234870   1.098   4.507   5.054  0.1877  0.0359  0.1350
11643TIP3   OH234871   5.680   5.947   6.203 -0.1254  0.2463 -0.8130
11643TIP3    H134872   5.610   6.008   6.179  0.6473  0.9458 -1.3050
11643TIP3    H234873   5.634   5.869   6.235 -1.0949  1.6159  1.1895
11644TIP3   OH234874   3.372   1.500   0.171 -0.6125 -0.5421  0.5565
11644TIP3    H134875   3.419   1.429   0.127 -0.1643  0.6632 -0.9628
11644TIP3    H234876   3.321   1.457   0.239  1.8813 -2.0193  1.5577
11645TIP3   OH234877   2.837   4.526   4.892  0.1578  0.3351  0.3348
11645TIP3    H134878   2.828   4.620   4.909  1.6518  0.1998  2.0997
11645TIP3    H234879   2.750   4.498   4.863 -0.4988  2.1180  0.5280
11646TIP3   OH234880   5.674   4.950   6.441  0.3878  0.4446  0.4963
11646TIP3    H134881   5.668   4.896   6.519  1.7833 -1.1675 -0.4803
11646TIP3    H234882   5.750   5.006   6.455  0.3394  0.5053  0.5132
11647TIP3   OH234883   6.080   6.677   5.242  0.7197 -0.0074 -0.2217
11647TIP3    H134884   6.109   6.624   5.168  0.0407 -3.9954  2.1972
11647TIP3    H234885   6.158   6.689   5.295  0.4244 -0.5085  0.3342
11648TIP3   OH234886   3.808   3.897   5.107 -0.0596 -0.6244 -0.2997
11648TIP3    H134887   3.877   3.916   5.170 -0.0072  0.8461 -0.7959
11648TIP3    H234888   3.731   3.943   5.139 -0.0916 -0.0436 -1.1909
11649TIP3   OH234889   5.095   5.596   6.024 -0.6150  0.3550  0.1775
11649TIP3    H134890   5.022   5.538   6.004 -1.5258  0.9626  1.6867
11649TIP3    H234891   5.064   5.649   6.098  1.3047  0.7096  0.7431
11650TIP3   OH234892   0.476   7.976   0.129  0.0465  0.5116 -0.9063
11650TIP3    H134893   0.476   8.031   0.050  1.3527 -0.1104 -1.3585
11650TIP3    H234894   0.475   7.887   0.096 -2.2992  0.2404 -0.1693
11651TIP3   OH234895   3.486   2.839   1.655 -0.7600  0.4569  0.0986
11651TIP3    H134896   3.551   2.908   1.667  0.3960 -0.7509  0.9573
11651TIP3    H234897   3.454   2.820   1.744  1.3820 -2.4104  0.3289
11652TIP3   OH234898   6.609   5.151   4.290 -0.1737  0.2993  0.5363
11652TIP3    H134899   6.590   5.106   4.208  1.6688 -0.7297  0.6416
11652TIP3    H234900   6.661   5.227   4.264 -0.0602  0.2744  0.6874
11653TIP3   OH234901   4.276   2.051   0.397  0.0092 -0.9456  0.2628
11653TIP3    H134902   4.339   1.996   0.443 -0.6740 -1.0247  1.1254
11653TIP3    H234903   4.213   1.989   0.359  0.6859 -0.8913 -0.9563
11654TIP3   OH234904   7.311   7.017   3.563 -0.2236  0.2846 -0.0705
11654TIP3    H134905   7.266   6.947   3.609 -0.2617  0.8848  0.8257
11654TIP3    H234906   7.404   6.997   3.572 -0.2664 -0.3683 -0.9843
11655TIP3   OH234907   2.838   0.437   1.061 -0.2194  0.5955 -0.0846
11655TIP3    H134908   2.776   0.371   1.031 -0.2289  0.5790 -0.0277
11655TIP3    H234909   2.810   0.517   1.016  0.1458  0.4328 -0.6080
11656TIP3   OH234910   6.686   6.915   3.889 -0.5079  0.3725  0.1018
11656TIP3    H134911   6.711   6.996   3.934 -0.8081  0.6501 -0.2266
11656TIP3    H234912   6.757   6.899   3.827  0.8233 -1.0186  1.9567
11657TIP3   OH234913   7.902   5.253   6.246 -0.6139  0.1571  0.2501
11657TIP3    H134914   7.920   5.161   6.229  2.3966  0.9407 -1.2636
11657TIP3    H234915   7.976   5.283   6.298 -0.6733  2.0708 -0.7090
11658TIP3   OH234916   6.518   3.114   3.971  0.0700  0.1161  0.5035
11658TIP3    H134917   6.611   3.134   3.985 -0.5216  1.7332  2.4796
11658TIP3    H234918   6.512   3.019   3.981  1.6010 -0.0640 -0.1920
11659TIP3   OH234919   3.143   1.319   0.312  0.3900  0.1619  0.4051
11659TIP3    H134920   3.151   1.297   0.404  1.5605 -0.3627  0.1798
11659TIP3    H234921   3.146   1.235   0.266  1.3170  0.5164 -0.2084
11660TIP3   OH234922   4.122   2.347   1.603  0.1329 -0.6276  0.2945
11660TIP3    H134923   4.032   2.319   1.589  0.3578 -1.2153  0.0190
11660TIP3    H234924   4.114   2.436   1.637 -0.5186 -0.3769 -0.4943
11661TIP3   OH234925   0.732   0.285   0.139  0.1048 -0.3567  0.1407
11661TIP3    H134926   0.801   0.305   0.202 -0.0482 -0.3022  0.2918
11661TIP3    H234927   0.774   0.293   0.053  0.0933  0.4313  0.2045
11662TIP3   OH234928   6.570   6.580   6.499  0.0260  0.5519  0.1709
11662TIP3    H134929   6.560   6.485   6.498  0.9973  0.4487 -0.8192
11662TIP3    H234930   6.511   6.611   6.431 -0.4077  0.6795  0.6002
11663TIP3   OH234931   5.809   4.975   4.609  0.1905 -0.2248  0.2773
11663TIP3    H134932   5.829   4.989   4.701 -0.2042 -0.2113  0.3618
11663TIP3    H234933   5.885   4.927   4.575  1.8304  2.6212 -0.1645
11664TIP3   OH234934   5.532   0.905   0.450  0.1151 -0.1974 -0.4112
11664TIP3    H134935   5.615   0.931   0.409  0.8273 -0.0819  1.0792
11664TIP3    H234936   5.516   0.973   0.515 -1.5855  0.2225 -1.2452
11665TIP3   OH234937   6.009   7.504   6.597  0.0052 -0.1542 -0.2542
11665TIP3    H134938   5.952   7.439   6.558  0.0278 -0.6504  0.5395
11665TIP3    H234939   6.088   7.456   6.621  1.0504  0.6476 -1.9445
11666TIP3   OH234940   7.093   4.864   5.479  0.4993  0.4766  0.4292
11666TIP3    H134941   7.110   4.853   5.385  2.5077  1.7607  0.5896
11666TIP3    H234942   7.070   4.957   5.488  0.0270  0.2907  1.1569
11667TIP3   OH234943   6.521   5.530   6.044  0.0483 -0.3834 -0.7517
11667TIP3    H134944   6.589   5.500   6.105 -1.0013  0.8682  1.0956
11667TIP3    H234945   6.556   5.613   6.010 -0.0759 -0.2788 -0.6236
11668TIP3   OH234946   4.551   5.420   5.596  0.3480  0.0783  0.0889
11668TIP3    H134947   4.484   5.440   5.531  0.1659  0.2636  0.3320
11668TIP3    H234948   4.605   5.499   5.600 -0.3139  0.4943  0.9787
11669TIP3   OH234949   6.147   6.356   6.005  0.1687  0.5963  0.2717
11669TIP3    H134950   6.138   6.376   6.098  0.9240 -0.1880  0.5238
11669TIP3    H234951   6.067   6.308   5.982  1.2977 -1.8695  1.2587
11670TIP3   OH234952   6.304   6.739   5.698  0.3554  0.4030 -0.2219
11670TIP3    H134953   6.268   6.690   5.772  0.2128 -1.5053 -1.5213
11670TIP3    H234954   6.345   6.816   5.738  1.7944 -1.4583  2.0241
11671TIP3   OH234955   6.786   5.722   5.407 -0.5125  0.0604  0.4328
11671TIP3    H134956   6.754   5.648   5.355  1.0435  0.7167 -1.5037
11671TIP3    H234957   6.733   5.796   5.379 -0.2960  0.2265  0.4641
11672TIP3   OH234958   8.458   3.936   4.402 -0.7137 -0.1492 -0.2779
11672TIP3    H134959   8.408   4.010   4.367 -1.1277 -0.7061 -0.8651
11672TIP3    H234960   8.477   3.882   4.326  3.0800  1.3780 -0.5245
11673TIP3   OH234961   4.172   2.366   0.067  0.3034  0.0535 -0.7413
11673TIP3    H134962   4.244   2.314   0.100  0.6653  0.5648 -0.7149
11673TIP3    H234963   4.214   2.434   0.014 -0.1790  0.1356 -1.0229
11674TIP3   OH234964   0.507   4.305   5.553  0.3459 -0.2398 -0.3448
11674TIP3    H134965   0.475   4.272   5.469  0.4260 -2.5274  0.4853
11674TIP3    H234966   0.462   4.389   5.565  0.2859  0.0836 -2.6240
11675TIP3   OH234967   6.071   6.982   5.215  0.1330 -0.4694 -0.0886
11675TIP3    H134968   6.099   6.891   5.226  0.5652 -0.2545  0.5873
11675TIP3    H234969   6.051   6.990   5.122  0.0186 -1.2803 -0.1354
11676TIP3   OH234970   5.915   5.548   5.879  0.3677 -0.0577 -0.1274
11676TIP3    H134971   5.891   5.460   5.911  1.1627 -0.0593  0.4697
11676TIP3    H234972   5.856   5.607   5.926 -1.8732 -0.4528 -2.3551
11677TIP3   OH234973   6.494   3.487   5.658  0.2573 -0.0066  0.1751
11677TIP3    H134974   6.473   3.575   5.691  0.0425 -0.7029  1.9492
11677TIP3    H234975   6.575   3.463   5.703 -0.4052 -1.2465  0.7378
11678TIP3   OH234976   7.244   3.983   6.304  0.2442 -0.2961 -0.2584
11678TIP3    H134977   7.245   3.891   6.329 -0.0551 -0.9599 -2.5997
11678TIP3    H234978   7.153   3.999   6.277  0.8531  0.0534 -2.1156
11679TIP3   OH234979   4.589   5.638   3.395  0.1071 -0.1681  0.1347
11679TIP3    H134980   4.674   5.630   3.437  0.9512 -1.3423 -1.7436
11679TIP3    H234981   4.593   5.721   3.347  1.0497 -1.2728 -1.7615
11680TIP3   OH234982   4.785   5.855   6.379  0.5911 -0.2714 -0.2183
11680TIP3    H134983   4.753   5.945   6.383 -3.3496 -1.5141 -0.9865
11680TIP3    H234984   4.816   5.837   6.468  2.0742  1.9983 -0.2215
11681TIP3   OH234985   7.261   6.868   5.277 -0.1132  0.7367 -0.0815
11681TIP3    H134986   7.317   6.830   5.209 -1.4276  0.2304 -0.9103
11681TIP3    H234987   7.229   6.793   5.327 -2.8087  0.6761 -1.7956
11682TIP3   OH234988   4.217   5.200   5.448 -0.1439 -0.6510  0.3881
11682TIP3    H134989   4.263   5.223   5.368  1.3098  1.2013  1.7053
11682TIP3    H234990   4.257   5.118   5.477  1.3805  0.2088  0.7667
11683TIP3   OH234991   7.155   5.411   5.944 -0.2892 -1.0886  0.4177
11683TIP3    H134992   7.207   5.460   5.880 -0.5132 -0.1814  0.9118
11683TIP3    H234993   7.068   5.406   5.906 -0.2737 -1.0658  0.3794
11684TIP3   OH234994   0.384   4.852   5.441 -0.4099  0.0184  0.1600
11684TIP3    H134995   0.454   4.799   5.478 -0.4671  0.8618  1.5300
11684TIP3    H234996   0.387   4.934   5.491 -1.5774  0.5366 -0.5899
11685TIP3   OH234997   7.921   5.059   4.918  0.3742 -0.2875  0.1869
11685TIP3    H134998   8.009   5.042   4.952  1.2276 -1.0852 -2.3454
11685TIP3    H234999   7.927   5.148   4.883  1.1494 -1.5450 -2.9614
11686TIP3   OH235000   6.368   6.349   3.043 -0.1514 -0.0755 -0.2299
11686TIP3    H135001   6.433   6.291   3.003  1.3603  0.9242  0.7304
11686TIP3    H235002   6.314   6.378   2.969  0.7279 -0.6018 -1.1040
11687TIP3   OH235003   5.931   6.776   6.612  0.0815  0.0565 -0.2213
11687TIP3    H135004   5.921   6.714   6.540 -0.2521 -0.6972  0.4590
11687TIP3    H235005   6.006   6.831   6.587  0.0281 -0.2651 -1.0868
11688TIP3   OH235006   0.808   5.164   6.563  0.2652 -0.3523 -0.3761
11688TIP3    H135007   0.717   5.182   6.583  0.0454  0.1641 -1.7707
11688TIP3    H235008   0.807   5.084   6.511  0.6601 -0.6282  0.0276
11689TIP3   OH235009   6.323   6.213   3.959  0.9484  0.1995 -0.0061
11689TIP3    H135010   6.359   6.241   3.876  1.3786 -0.1774  0.0525
11689TIP3    H235011   6.300   6.294   4.005  2.1084  0.4509  0.1359
11690TIP3   OH235012   6.699   7.047   5.226  0.0117  0.1835  0.1488
11690TIP3    H135013   6.755   7.046   5.149 -0.2019  0.2330 -0.0062
11690TIP3    H235014   6.655   7.131   5.223 -0.4831 -0.0827 -0.0231
11691TIP3   OH235015   6.232   5.582   4.653 -0.1459 -0.0795  0.3146
11691TIP3    H135016   6.312   5.560   4.605 -0.5408 -2.5097  0.6927
11691TIP3    H235017   6.233   5.677   4.658  1.9238  0.0233 -1.0510
11692TIP3   OH235018   6.066   5.878   3.527  0.2985  0.3299  0.1522
11692TIP3    H135019   6.040   5.914   3.442 -1.1944  1.0213  0.8763
11692TIP3    H235020   5.996   5.817   3.549  0.1131  0.9595  1.3676
11693TIP3   OH235021   6.470   6.292   4.212 -0.1443 -0.4601  0.1341
11693TIP3    H135022   6.379   6.299   4.185  0.3002  0.7115 -1.0999
11693TIP3    H235023   6.475   6.345   4.292 -0.6177 -0.7678  0.3654
11694TIP3   OH235024   5.092   0.165   1.271  0.4039  0.4422 -0.0456
11694TIP3    H135025   5.004   0.169   1.309 -0.4840 -0.2298 -1.9915
11694TIP3    H235026   5.149   0.146   1.346 -0.7328  3.6297  1.7115
11695TIP3   OH235027   6.061   5.596   3.190  0.4589 -0.2958 -0.2966
11695TIP3    H135028   6.082   5.503   3.186  2.9903  0.2485 -0.6047
11695TIP3    H235029   6.124   5.633   3.251  1.5685  1.7251 -2.5606
11696TIP3   OH235030   6.408   4.490   5.341 -0.4720 -0.0983 -0.1419
11696TIP3    H135031   6.336   4.538   5.383 -0.0228 -2.3079  3.3693
11696TIP3    H235032   6.487   4.539   5.364 -0.2863 -0.9932  1.2127
11697TIP3   OH235033   6.036   5.720   5.474  0.0533  0.3018 -0.2697
11697TIP3    H135034   5.982   5.658   5.524  0.2057 -0.5551 -1.1565
11697TIP3    H235035   6.034   5.687   5.385  0.9832  1.0088 -0.5575
11698TIP3   OH235036   7.282   4.300   6.298 -1.0584  0.4331 -0.2720
11698TIP3    H135037   7.232   4.260   6.369  0.8762 -0.6840  0.5235
11698TIP3    H235038   7.319   4.380   6.337  0.6117 -0.5628  0.2596
11699TIP3   OH235039   7.258   6.560   3.824  0.0324  0.3513  0.3402
11699TIP3    H135040   7.344   6.584   3.789  0.2400  0.6166  1.0154
11699TIP3    H235041   7.270   6.474   3.863 -0.4803 -0.4488 -1.2435
11700TIP3   OH235042   7.346   7.585   1.060 -0.7085 -0.0397 -0.2890
11700TIP3    H135043   7.361   7.569   0.967 -0.6018 -1.9361  0.0351
11700TIP3    H235044   7.266   7.538   1.080 -0.3827 -0.1671  0.7301
11701TIP3   OH235045   6.003   5.266   4.662  0.0813  0.4827  0.0731
11701TIP3    H135046   6.072   5.270   4.728 -0.1061 -0.2835  0.3160
11701TIP3    H235047   6.039   5.211   4.593 -0.4974 -0.3962  0.4595
11702TIP3   OH235048   6.383   4.244   4.075  0.4346 -0.5035  0.0057
11702TIP3    H135049   6.296   4.208   4.056 -0.2761  1.6933 -1.1356
11702TIP3    H235050   6.380   4.265   4.168 -0.1732 -0.6775  0.0321
11703TIP3   OH235051   4.430   4.527   5.290  0.1888  0.3515 -0.2808
11703TIP3    H135052   4.515   4.545   5.251  0.0008 -2.0710 -1.9777
11703TIP3    H235053   4.375   4.600   5.263  1.6062  1.7415  0.5177
11704TIP3   OH235054   5.273   5.180   5.398 -0.1426 -0.3574  0.3368
11704TIP3    H135055   5.236   5.093   5.381 -0.3763 -0.7546  2.6938
11704TIP3    H235056   5.262   5.192   5.493  1.1920  1.6452  0.2566
11705TIP3   OH235057   6.458   2.827   0.916  0.7201  0.6733  0.1096
11705TIP3    H135058   6.430   2.751   0.966 -1.6231  0.4747 -1.3868
11705TIP3    H235059   6.403   2.898   0.949  1.0698  1.1312 -0.2960
11706TIP3   OH235060   6.747   6.310   5.708 -0.5009  0.3064  0.2867
11706TIP3    H135061   6.835   6.284   5.682 -0.8853  0.1109 -0.8694
11706TIP3    H235062   6.708   6.231   5.744 -0.8248 -0.0987 -0.9247
11707TIP3   OH235063   1.292   1.525   0.826 -0.0380 -0.2768 -0.1725
11707TIP3    H135064   1.243   1.499   0.905  0.7842 -1.2220  0.0368
11707TIP3    H235065   1.331   1.609   0.848 -2.5575  1.1029 -0.7712
11708TIP3   OH235066   8.224   4.783   4.980 -0.1694  0.3383 -0.5268
11708TIP3    H135067   8.284   4.837   5.031 -1.4084  0.7194  0.5591
11708TIP3    H235068   8.239   4.810   4.889  0.9546  0.7688 -0.2221
11709TIP3   OH235069   5.559   4.813   6.829  0.3172 -0.0339  0.1503
11709TIP3    H135070   5.558   4.817   6.925  1.4112  1.0569  0.1317
11709TIP3    H235071   5.481   4.762   6.806  0.4450 -0.9238  1.6442
11710TIP3   OH235072   3.286   2.342   0.493 -0.2110 -0.1587 -0.1189
11710TIP3    H135073   3.308   2.435   0.497 -0.2795 -0.1519  0.0512
11710TIP3    H235074   3.261   2.318   0.582 -1.0614 -0.1293 -0.3450
11711TIP3   OH235075   5.697   5.582   6.678 -0.1033  0.1349  0.8777
11711TIP3    H135076   5.719   5.568   6.586  0.1213 -2.8381  1.3577
11711TIP3    H235077   5.737   5.509   6.725 -2.0119  0.4272  3.0895
11712TIP3   OH235078   7.599   4.857   6.662 -0.5300  0.3866 -0.5458
11712TIP3    H135079   7.513   4.851   6.705 -0.2249 -1.9887 -0.2163
11712TIP3    H235080   7.662   4.842   6.732  0.0640 -0.5207 -1.2644
11713TIP3   OH235081   3.745   2.685   0.422 -0.1054  0.3676 -0.3535
11713TIP3    H135082   3.677   2.623   0.449  1.6077 -1.2369  0.4044
11713TIP3    H235083   3.770   2.657   0.334 -0.3698  0.9224 -0.6104
11714TIP3   OH235084   7.653   5.416   5.719 -0.3496  0.3595 -0.6278
11714TIP3    H135085   7.670   5.416   5.813 -1.3758  0.5558 -0.4324
11714TIP3    H235086   7.720   5.358   5.682 -0.6404 -0.6243  0.3597
11715TIP3   OH235087   2.858   0.819   0.519 -0.6713  0.0203 -0.1866
11715TIP3    H135088   2.841   0.733   0.482 -1.2625 -0.1341  0.4432
11715TIP3    H235089   2.912   0.863   0.453 -1.7662 -0.2285 -1.2674
11716TIP3   OH235090   1.336   7.887   1.414 -0.1580 -0.0797 -0.1136
11716TIP3    H135091   1.262   7.942   1.389 -1.7309 -0.9177  2.5541
11716TIP3    H235092   1.323   7.806   1.366 -0.3448  0.1793 -0.5070
11717TIP3   OH235093   6.369   5.999   4.127 -0.2250  0.4127  0.3554
11717TIP3    H135094   6.463   6.005   4.108 -0.1468 -0.6537  0.3766
11717TIP3    H235095   6.329   6.068   4.073  0.5011  0.4341 -0.1596
11718TIP3   OH235096   7.717   5.357   3.939  0.2955  0.1244 -1.2323
11718TIP3    H135097   7.666   5.434   3.963 -0.5687 -0.5158 -0.9950
11718TIP3    H235098   7.807   5.381   3.960  0.0980  1.2379 -1.5762
11719TIP3   OH235099   7.202   5.221   5.251 -0.5443  0.0745  0.1024
11719TIP3    H135100   7.260   5.234   5.175 -1.7526  0.7588 -0.7193
11719TIP3    H235101   7.121   5.186   5.213 -1.3975  1.0650  0.9928
11720TIP3   OH235102   4.747   7.266   6.453  0.5760 -0.2861  0.3976
11720TIP3    H135103   4.698   7.291   6.531  0.5477  0.3750  0.1719
11720TIP3    H235104   4.680   7.250   6.386  0.5656 -1.4969  0.6813
11721TIP3   OH235105   3.993   7.127   6.858 -0.4700  0.1803  0.3871
11721TIP3    H135106   3.919   7.113   6.916 -0.8196 -0.8202 -0.2833
11721TIP3    H235107   4.054   7.181   6.908 -1.1750  0.1037  1.3274
11722TIP3   OH235108   5.245   5.835   5.981 -0.4708  0.1691 -0.0891
11722TIP3    H135109   5.212   5.805   5.897 -0.2882 -1.8664  0.5383
11722TIP3    H235110   5.219   5.767   6.043 -2.8088  2.7922  1.9944
11723TIP3   OH235111   6.072   4.137   4.451  0.0944 -0.4259  0.6787
11723TIP3    H135112   5.982   4.109   4.465 -0.3959  0.9145  0.3320
11723TIP3    H235113   6.093   4.110   4.362  0.0274 -0.7413  0.7602
11724TIP3   OH235114   7.358   5.696   4.865  0.3468 -0.2176 -0.4659
11724TIP3    H135115   7.310   5.616   4.883 -1.3497  0.6347 -1.0467
11724TIP3    H235116   7.394   5.683   4.777 -0.3168 -0.1703 -0.7499
11725TIP3   OH235117   6.582   6.310   6.212  0.2697 -0.6502  0.1864
11725TIP3    H135118   6.664   6.276   6.247  0.1066  0.7123  2.0237
11725TIP3    H235119   6.599   6.326   6.119  1.8640 -1.0150  0.4105
11726TIP3   OH235120   4.943   6.301   6.377  0.0178 -0.0992  0.2728
11726TIP3    H135121   4.918   6.335   6.291 -0.3262 -0.2458  0.3120
11726TIP3    H235122   4.878   6.338   6.437 -0.1069 -0.4867  0.3773
11727TIP3   OH235123   2.720   3.765   3.342  0.2509  0.3517  0.4707
11727TIP3    H135124   2.684   3.728   3.261 -0.5409 -0.5447  1.2383
11727TIP3    H235125   2.689   3.855   3.342 -0.3171  0.1610  0.1208
11728TIP3   OH235126   6.046   2.772   4.621  0.4588 -0.2998 -0.1616
11728TIP3    H135127   6.142   2.767   4.627  0.4768  0.6551  0.5401
11728TIP3    H235128   6.016   2.752   4.710 -0.0234 -1.0222 -0.4803
11729TIP3   OH235129   4.880   2.389   4.699 -0.1184  0.2715 -0.5020
11729TIP3    H135130   4.945   2.456   4.719  0.2059  0.0555 -0.8200
11729TIP3    H235131   4.816   2.394   4.770 -2.2477  3.6342 -2.5280
11730TIP3   OH235132   7.204   4.069   4.916  0.4935  0.4256  0.3808
11730TIP3    H135133   7.122   4.051   4.961 -0.8369 -0.1288 -2.1911
11730TIP3    H235134   7.190   4.153   4.874  1.1874  0.2491 -0.2035
11731TIP3   OH235135   3.486   7.094   4.972 -0.7910  0.3862 -0.3136
11731TIP3    H135136   3.435   7.145   5.035  0.3488 -0.7643  1.6145
11731TIP3    H235137   3.575   7.096   5.008  0.0128  0.2511 -2.2663
11732TIP3   OH235138   0.165   4.217   5.548 -0.2527 -0.5058  0.0170
11732TIP3    H135139   0.189   4.125   5.536  0.3418 -0.7347  2.6903
11732TIP3    H235140   0.235   4.266   5.506 -0.1318 -1.2586 -0.6724
11733TIP3   OH235141   6.624   5.031   6.007  0.6820 -0.0951 -0.2123
11733TIP3    H135142   6.588   5.065   6.088 -1.4403  1.3393 -1.7079
11733TIP3    H235143   6.662   4.946   6.031 -1.5025 -0.5076  1.9116
11734TIP3   OH235144   7.432   6.664   2.609  0.1647 -0.0094 -0.4047
11734TIP3    H135145   7.341   6.677   2.584 -0.0824  0.1948  0.5838
11734TIP3    H235146   7.481   6.726   2.555 -0.7631  3.4249  2.4834
11735TIP3   OH235147   7.059   7.642   5.293  0.0243 -0.7972 -0.3870
11735TIP3    H135148   7.091   7.715   5.346  1.2591 -1.4837 -0.1749
11735TIP3    H235149   6.964   7.646   5.302  0.1764 -0.4045  1.2286
11736TIP3   OH235150   6.309   5.270   4.168 -0.0267 -0.2355  0.3622
11736TIP3    H135151   6.303   5.262   4.263 -0.8760  0.5588  0.3840
11736TIP3    H235152   6.246   5.339   4.146  2.2366  1.6156 -0.4843
11737TIP3   OH235153   5.216   4.509   5.560 -0.7940  0.5851  0.4092
11737TIP3    H135154   5.273   4.515   5.636 -0.4841 -1.2567  0.3419
11737TIP3    H235155   5.274   4.485   5.488 -1.5705 -0.7516  0.2265
11738TIP3   OH235156   6.349   5.436   2.321  0.0202  0.3443 -0.3387
11738TIP3    H135157   6.311   5.448   2.409  0.3120 -0.6391 -0.0753
11738TIP3    H235158   6.314   5.352   2.291  0.2407  0.4874 -1.0067
11739TIP3   OH235159   7.657   5.839   5.453  0.1688 -0.3865 -0.5659
11739TIP3    H135160   7.700   5.852   5.538 -1.7993 -0.3099  0.4514
11739TIP3    H235161   7.659   5.744   5.439 -0.8639 -0.5539  0.3249
11740TIP3   OH235162   1.296   5.386   6.580  0.0796  0.4496 -0.3094
11740TIP3    H135163   1.283   5.429   6.496 -0.6064 -0.6669 -0.7898
11740TIP3    H235164   1.208   5.359   6.607  0.4687 -0.4948  0.0567
11741TIP3   OH235165   6.907   5.998   5.458  0.1493 -0.3799 -0.0332
11741TIP3    H135166   6.847   6.068   5.484  1.2548  0.6694 -0.2663
11741TIP3    H235167   6.852   5.920   5.452 -1.1142  0.4873  0.1439
11742TIP3   OH235168   7.028   0.636   0.492 -0.0423  0.0534 -0.0800
11742TIP3    H135169   6.950   0.633   0.547  0.2273 -1.1541  0.2382
11742TIP3    H235170   7.035   0.548   0.455  2.0086 -0.2682  1.0405
11743TIP3   OH235171   5.870   6.318   6.377  0.2949 -0.7986  0.4053
11743TIP3    H135172   5.874   6.230   6.415 -1.4878  0.1322  2.8272
11743TIP3    H235173   5.956   6.356   6.396  0.2686 -1.2071  1.3664
11744TIP3   OH235174   6.565   5.518   3.627 -0.2592 -0.3520  0.0053
11744TIP3    H135175   6.583   5.600   3.673 -0.4801 -0.2896 -0.0149
11744TIP3    H235176   6.519   5.546   3.548  0.7521 -0.4021 -0.6072
11745TIP3   OH235177   7.598   6.749   3.125 -0.1908  0.0428 -0.3812
11745TIP3    H135178   7.529   6.815   3.123 -0.1204  0.1089 -0.5640
11745TIP3    H235179   7.592   6.706   3.040 -0.1864 -0.1354 -0.2921
11746TIP3   OH235180   6.321   4.597   6.062 -1.6681  0.0032 -0.1936
11746TIP3    H135181   6.284   4.525   6.113 -0.3877 -0.0585  0.6507
11746TIP3    H235182   6.414   4.576   6.053 -1.3351  1.4090 -0.1875
11747TIP3   OH235183   4.877   6.234   5.198  0.1754  0.5265 -0.0765
11747TIP3    H135184   4.812   6.168   5.220  1.4058 -0.1875  1.4511
11747TIP3    H235185   4.829   6.298   5.145 -0.5607 -2.5945 -3.3473
11748TIP3   OH235186   6.403   7.622   4.886  0.4492 -0.2298 -0.1589
11748TIP3    H135187   6.422   7.714   4.906 -1.1210  0.1980 -0.5641
11748TIP3    H235188   6.479   7.593   4.835 -0.0192  1.5071 -1.9327
11749TIP3   OH235189   1.261   5.317   6.120 -0.2809 -0.4382 -0.3670
11749TIP3    H135190   1.334   5.341   6.063 -0.7294  0.8752 -0.3942
11749TIP3    H235191   1.303   5.280   6.198  0.4376  0.6818 -0.2140
11750TIP3   OH235192   6.033   1.374   0.542 -0.4177  0.6072 -0.2945
11750TIP3    H135193   5.968   1.405   0.605 -1.4839  0.7938 -1.4783
11750TIP3    H235194   6.074   1.299   0.586 -0.5946  1.2133  0.9347
11751TIP3   OH235195   7.179   5.116   5.880  0.3959 -0.0817  0.5565
11751TIP3    H135196   7.188   5.202   5.922 -0.2460  0.5724 -0.6420
11751TIP3    H235197   7.227   5.124   5.797  0.0686 -0.7891  0.2952
11752TIP3   OH235198   1.925   6.398   4.454 -0.2484 -0.4336 -0.0431
11752TIP3    H135199   1.835   6.378   4.480  0.7988 -2.4860  2.2623
11752TIP3    H235200   1.968   6.313   4.447  2.1589  0.5924  1.4818
11753TIP3   OH235201   7.595   5.945   4.592  0.6488  0.1856  0.2926
11753TIP3    H135202   7.666   5.936   4.655  1.2166  0.3845 -0.3205
11753TIP3    H235203   7.630   6.001   4.523  0.0235 -0.0177 -0.1986
11754TIP3   OH235204   7.469   4.496   3.848 -0.0763  0.6119 -0.3285
11754TIP3    H135205   7.552   4.503   3.894 -1.0589 -1.3982  1.8728
11754TIP3    H235206   7.420   4.573   3.874  1.4034  2.3262 -2.4158
11755TIP3   OH235207   6.287   6.384   5.310 -0.4512  0.1075  0.3037
11755TIP3    H135208   6.286   6.436   5.230 -2.0171 -0.1712  0.1223
11755TIP3    H235209   6.314   6.445   5.378  0.5890  0.4251 -0.3915
11756TIP3   OH235210   7.755   5.121   4.093  0.1702  0.2417  0.2830
11756TIP3    H135211   7.816   5.144   4.163 -0.4361  1.3925  0.4499
11756TIP3    H235212   7.760   5.194   4.032 -0.0144 -0.3083 -0.3999
11757TIP3   OH235213   7.412   4.230   4.599  0.6443  0.7535  0.0664
11757TIP3    H135214   7.378   4.319   4.585 -0.1629  0.5386  0.5799
11757TIP3    H235215   7.379   4.180   4.525  0.3823  0.6961  0.2193
11758TIP3   OH235216   5.520   5.172   5.246 -0.2321  0.0048 -0.2246
11758TIP3    H135217   5.455   5.149   5.313  0.5345 -2.6735 -0.3323
11758TIP3    H235218   5.602   5.180   5.293 -0.0149 -0.0442 -0.5939
11759TIP3   OH235219   7.039   5.675   4.307  0.1643 -0.0663  0.0414
11759TIP3    H135220   7.070   5.735   4.375 -1.6859  0.2456  0.6454
11759TIP3    H235221   7.015   5.596   4.355  1.1819 -0.7420 -0.5649
11760TIP3   OH235222   5.133   5.136   3.662  0.1936  0.2734  0.3849
11760TIP3    H135223   5.059   5.191   3.634  0.3822 -0.3620 -1.4575
11760TIP3    H235224   5.092   5.058   3.699 -0.0999 -0.8353 -2.1856
11761TIP3   OH235225   6.441   7.318   5.778  0.1392 -0.0413  0.0295
11761TIP3    H135226   6.427   7.380   5.849 -0.0776 -0.3520  0.2619
11761TIP3    H235227   6.375   7.250   5.793 -1.4145  1.0450 -1.7875
11762TIP3   OH235228   7.034   1.605   0.586 -0.2948  0.2982  0.1130
11762TIP3    H135229   6.939   1.602   0.581 -0.3645  1.5224  0.6459
11762TIP3    H235230   7.061   1.671   0.523  0.3375 -1.2450 -1.2852
11763TIP3   OH235231   7.169   7.756   4.080  0.1851 -0.3748  0.1756
11763TIP3    H135232   7.086   7.796   4.056  0.5022  0.0114 -0.2632
11763TIP3    H235233   7.234   7.796   4.022  0.4462 -1.8040 -0.5484
11764TIP3   OH235234   0.968   5.155   5.308 -0.3654  0.4723 -0.0644
11764TIP3    H135235   0.895   5.093   5.316  1.7011 -2.4750 -2.6974
11764TIP3    H235236   0.953   5.200   5.225  0.0666  0.8337  0.0495
11765TIP3   OH235237   0.376   5.886   5.293 -0.2903 -0.3194 -0.2196
11765TIP3    H135238   0.451   5.919   5.343 -0.2396  0.0614 -0.5416
11765TIP3    H235239   0.383   5.791   5.298 -1.6314 -0.3137  2.5194
11766TIP3   OH235240   6.799   4.586   1.883  0.1524  0.4300  0.4726
11766TIP3    H135241   6.806   4.491   1.886 -0.2318  0.2999 -1.7244
11766TIP3    H235242   6.798   4.607   1.790  1.0137  2.6517  0.9226
11767TIP3   OH235243   6.761   4.879   4.299  0.5379 -0.9605 -0.3351
11767TIP3    H135244   6.844   4.903   4.258 -0.8258 -0.2821 -2.8041
11767TIP3    H235245   6.708   4.959   4.296 -0.4804 -1.5861  0.4971
11768TIP3   OH235246   7.750   5.139   5.153 -0.3197  0.4616 -0.2619
11768TIP3    H135247   7.768   5.102   5.066 -0.3314  1.2899 -0.6140
11768TIP3    H235248   7.658   5.120   5.169 -0.1271 -0.3719 -0.0960
11769TIP3   OH235249   7.080   7.087   5.264 -0.5341  1.0211  0.4175
11769TIP3    H135250   7.154   7.029   5.283 -0.8834  0.2376 -0.5559
11769TIP3    H235251   7.008   7.053   5.317 -0.9497  0.0825 -0.7349
11770TIP3   OH235252   5.579   4.950   3.111  0.5029 -0.1721  1.1886
11770TIP3    H135253   5.645   4.900   3.159 -1.5583 -2.9959  1.2339
11770TIP3    H235254   5.505   4.890   3.103 -1.6758  2.5367  0.2242
11771TIP3   OH235255   7.170   5.149   5.523 -0.2601 -0.1354 -0.0842
11771TIP3    H135256   7.165   5.165   5.429  1.6472  2.4164  0.2047
11771TIP3    H235257   7.261   5.123   5.538  0.4097  2.8837  1.4873
11772TIP3   OH235258   6.128   5.732   5.917 -0.3933 -0.0528  0.4967
11772TIP3    H135259   6.055   5.675   5.890 -0.0424 -0.9386  1.3837
11772TIP3    H235260   6.087   5.817   5.933 -0.9543 -0.0860 -0.6526
11773TIP3   OH235261   7.599   4.535   4.187 -0.4768  0.2167  0.6946
11773TIP3    H135262   7.594   4.439   4.177 -0.9345  0.3997 -1.0062
11773TIP3    H235263   7.661   4.548   4.258 -0.1794 -1.3520  0.7566
11774TIP3   OH235264   0.996   6.125   5.628 -0.2437  0.3466 -0.5014
11774TIP3    H135265   0.958   6.053   5.578  1.5397 -0.6479 -0.4733
11774TIP3    H235266   1.089   6.125   5.604 -0.0031  1.9492  0.3320
11775TIP3   OH235267   8.524   3.490   4.539  0.4860  0.2941  0.4140
11775TIP3    H135268   8.484   3.568   4.577 -1.0243 -0.0737 -0.3949
11775TIP3    H235269   8.466   3.418   4.564  1.1944 -0.3997  0.0862
11776TIP3   OH235270   6.523   6.517   5.828 -0.2343  0.1678 -0.3027
11776TIP3    H135271   6.500   6.424   5.837 -0.8163  0.1688 -1.6115
11776TIP3    H235272   6.590   6.518   5.759 -0.9139  0.8114 -0.9518
11777TIP3   OH235273   6.725   7.400   3.701 -0.1308 -0.2360  0.5667
11777TIP3    H135274   6.656   7.362   3.755  1.7614 -1.3849  2.2623
11777TIP3    H235275   6.738   7.337   3.631 -2.3619  1.0948 -1.0822
11778TIP3   OH235276   5.932   1.902   1.076 -0.2535  0.4098  0.2569
11778TIP3    H135277   5.975   1.930   0.996  0.1676  2.1114  1.0565
11778TIP3    H235278   5.840   1.930   1.066 -0.0125  1.4093  0.7070
11779TIP3   OH235279   0.967   5.468   5.197 -0.1164  0.6941  0.2726
11779TIP3    H135280   0.918   5.445   5.119 -1.1608 -0.3107  1.1965
11779TIP3    H235281   1.044   5.515   5.165 -0.7698  0.7020 -1.3087
11780TIP3   OH235282   8.227   5.622   1.842  0.4732  0.2437 -0.4424
11780TIP3    H135283   8.134   5.635   1.862  0.5968  0.0240  0.2665
11780TIP3    H235284   8.252   5.701   1.794  0.0611  0.5601 -0.1426
11781TIP3   OH235285   1.815   2.468   0.945  0.3110 -0.4020 -0.4791
11781TIP3    H135286   1.844   2.380   0.921 -0.4862 -0.2992 -1.8746
11781TIP3    H235287   1.848   2.481   1.034 -1.3046 -2.9124  0.5584
11782TIP3   OH235288   7.942   7.531   4.368  0.1346 -0.2277 -0.4724
11782TIP3    H135289   7.894   7.609   4.396 -1.5987 -1.6614  0.6636
11782TIP3    H235290   8.034   7.556   4.375 -0.4030  1.8435 -0.5222
11783TIP3   OH235291   5.319   6.981   4.646  0.4569 -0.7115 -0.2218
11783TIP3    H135292   5.261   6.906   4.660 -0.4875  0.3936  2.0586
11783TIP3    H235293   5.356   6.999   4.733  1.6818  0.6564 -1.0014
11784TIP3   OH235294   7.580   6.101   5.094  0.8805  0.6677 -0.5414
11784TIP3    H135295   7.626   6.185   5.096 -0.5959  1.4822  1.3302
11784TIP3    H235296   7.635   6.042   5.146  1.1481  0.9155 -0.5441
11785TIP3   OH235297   6.235   4.220   5.567  0.3181 -0.0406  0.3523
11785TIP3    H135298   6.328   4.226   5.545  0.0442  0.1803 -0.7599
11785TIP3    H235299   6.193   4.187   5.488 -0.4623 -0.8437  1.0746
11786TIP3   OH235300   0.382   6.983   4.298 -0.5873  0.6818 -0.1238
11786TIP3    H135301   0.348   6.966   4.210 -1.1379  1.6760 -0.1150
11786TIP3    H235302   0.381   7.078   4.306  0.6361  0.6544  0.5112
11787TIP3   OH235303   0.256   4.315   4.953 -0.0854  0.1842  0.7111
11787TIP3    H135304   0.248   4.258   4.877  1.2910  0.8848  0.0180
11787TIP3    H235305   0.204   4.272   5.021 -0.9493 -0.6871 -0.4778
11788TIP3   OH235306   8.147   5.292   4.696 -0.3120 -0.2976 -0.1592
11788TIP3    H135307   8.054   5.288   4.718 -0.1150 -2.2901  0.4465
11788TIP3    H235308   8.162   5.383   4.669 -2.4814 -0.0265 -0.5385
11789TIP3   OH235309   1.225   5.265   4.833 -0.1488  0.2380  0.4875
11789TIP3    H135310   1.282   5.295   4.762  1.0127 -0.8046  0.9586
11789TIP3    H235311   1.140   5.251   4.792  1.0664 -2.5100 -1.2128
11790TIP3   OH235312   0.781   4.296   5.539  0.3032  0.2745  0.3268
11790TIP3    H135313   0.685   4.302   5.539  0.3107  0.3965  0.4331
11790TIP3    H235314   0.799   4.202   5.539  0.1865  0.2369  2.1099
11791TIP3   OH235315   0.621   5.147   5.243 -0.7509 -0.0801  0.2076
11791TIP3    H135316   0.528   5.140   5.221 -0.7667 -0.1707  0.3018
11791TIP3    H235317   0.649   5.056   5.257 -0.6291 -0.0587  0.0972
11792TIP3   OH235318   6.864   5.046   3.053 -0.0141 -0.2870 -0.0677
11792TIP3    H135319   6.939   5.098   3.081 -0.5088  0.3137  0.1758
11792TIP3    H235320   6.819   5.024   3.135 -0.4927 -0.0314 -0.2584
11793TIP3   OH235321   7.449   4.831   3.715 -0.4076 -0.2411 -0.0956
11793TIP3    H135322   7.363   4.843   3.676 -0.1361  0.4317 -0.4882
11793TIP3    H235323   7.511   4.854   3.646  0.0782  0.2296  0.4891
11794TIP3   OH235324   7.860   5.210   5.385  0.2625  0.1724 -0.3461
11794TIP3    H135325   7.826   5.149   5.319 -3.0169  1.0841  0.3993
11794TIP3    H235326   7.876   5.291   5.336  1.1851 -0.1768 -0.6449
11795TIP3   OH235327   6.974   6.852   3.790  0.5175 -0.4011  0.1381
11795TIP3    H135328   6.999   6.879   3.878  0.4578 -1.2953  0.4297
11795TIP3    H235329   7.056   6.825   3.749  0.4366 -0.6910  0.1670
11796TIP3   OH235330   6.239   5.329   3.423  0.1926 -0.2007  0.8075
11796TIP3    H135331   6.186   5.393   3.470 -0.4016 -0.7363  0.8653
11796TIP3    H235332   6.246   5.365   3.334 -1.0880 -0.6093  0.5350
11797TIP3   OH235333   2.898   5.739   4.820 -0.1235 -0.0419 -0.2344
11797TIP3    H135334   2.881   5.645   4.825  0.8937 -0.2543 -0.5193
11797TIP3    H235335   2.884   5.761   4.728  2.8301 -0.5920 -0.8784
11798TIP3   OH235336   0.549   5.380   3.999 -0.5561  0.0072  0.3386
11798TIP3    H135337   0.472   5.411   4.047 -2.6013 -0.8282 -2.3560
11798TIP3    H235338   0.554   5.287   4.019 -0.8762 -0.1556 -0.3333
11799TIP3   OH235339   1.652   7.154   5.682 -0.2484 -0.0867  0.0376
11799TIP3    H135340   1.588   7.086   5.660 -0.1181 -0.4733  0.8203
11799TIP3    H235341   1.632   7.176   5.773 -1.2361  1.9672 -0.6442
11800TIP3   OH235342   7.109   4.548   4.380  0.0997  0.7727  0.1164
11800TIP3    H135343   7.040   4.485   4.359  0.1109  0.9790 -0.5375
11800TIP3    H235344   7.134   4.586   4.296  0.2639  1.4778  0.4813
11801TIP3   OH235345   6.267   1.986   2.696 -0.1901  0.0784 -0.1596
11801TIP3    H135346   6.339   2.002   2.758 -0.2057  0.0938 -0.1452
11801TIP3    H235347   6.277   2.054   2.630  0.1249 -0.2406 -0.4431
11802TIP3   OH235348   6.866   5.153   5.565 -0.6276  0.1846  0.0508
11802TIP3    H135349   6.958   5.170   5.583 -0.9188  0.1075  1.7204
11802TIP3    H235350   6.838   5.227   5.510  0.7225 -0.4431 -1.5082
11803TIP3   OH235351   1.315   3.740   5.869 -0.2891  0.5914  0.4247
11803TIP3    H135352   1.287   3.749   5.960 -0.2648 -1.3804  0.6488
11803TIP3    H235353   1.326   3.646   5.856  0.7683  0.9245 -1.3083
11804TIP3   OH235354   8.324   5.041   5.579  0.2125 -0.4005  0.0770
11804TIP3    H135355   8.366   4.970   5.530 -0.2101 -0.3134 -0.4181
11804TIP3    H235356   8.330   5.014   5.670  0.1084 -1.0451 -0.1030
11805TIP3   OH235357   0.259   5.772   5.603  0.1579  0.7600 -0.1385
11805TIP3    H135358   0.164   5.781   5.597  0.1161  0.7700  0.5424
11805TIP3    H235359   0.290   5.786   5.513 -0.6578 -1.4679 -0.7923
11806TIP3   OH235360   6.587   5.401   4.170 -0.0338 -0.2237 -0.8419
11806TIP3    H135361   6.551   5.471   4.115 -0.5853 -0.1456 -0.3920
11806TIP3    H235362   6.518   5.334   4.172 -0.5165  0.3055  0.7392
11807TIP3   OH235363   0.933   5.475   4.677  0.1405  0.3350  0.2691
11807TIP3    H135364   0.929   5.449   4.585  1.0495  0.1640  0.2754
11807TIP3    H235365   0.954   5.394   4.724 -1.0188  0.2800  0.7003
11808TIP3   OH235366   1.051   3.972   4.558  0.2332 -0.7474  0.1704
11808TIP3    H135367   1.010   3.952   4.474 -0.2820 -2.4134  0.7978
11808TIP3    H235368   0.982   4.014   4.609  1.0918  2.0596 -0.8725
11809TIP3   OH235369   7.911   3.829   4.407  0.0731 -0.1274  0.1083
11809TIP3    H135370   7.978   3.846   4.341 -0.5081 -1.2933 -0.7967
11809TIP3    H235371   7.925   3.897   4.473  0.8820  0.8507 -1.0402
11810TIP3   OH235372   0.251   5.411   3.044  0.2231 -0.3849  0.2025
11810TIP3    H135373   0.229   5.472   3.115  0.1164  1.2289 -1.1991
11810TIP3    H235374   0.317   5.353   3.083 -1.2220 -0.7227  2.1960
11811TIP3   OH235375   7.378   3.123   6.046  0.5847  0.1474  0.2067
11811TIP3    H135376   7.297   3.102   6.091  1.1916  0.1563  1.3040
11811TIP3    H235377   7.401   3.210   6.077  1.3452 -0.1102  0.3679
11812TIP3   OH235378   7.386   1.375   0.640  0.3914  0.3799  0.0412
11812TIP3    H135379   7.357   1.377   0.549 -0.0116 -1.3376  0.1035
11812TIP3    H235380   7.453   1.443   0.645  1.6368 -0.6250 -1.9863
11813TIP3   OH235381   8.329   5.795   3.826 -0.1356  0.3120  0.8616
11813TIP3    H135382   8.294   5.740   3.756  1.5302 -0.1604  0.3652
11813TIP3    H235383   8.380   5.863   3.780 -0.6005  1.1327  1.5431
11814TIP3   OH235384   6.752   5.457   4.668 -0.3855  0.4549 -0.5846
11814TIP3    H135385   6.769   5.526   4.604  1.1750  1.4823  0.9020
11814TIP3    H235386   6.733   5.504   4.749  1.2963 -0.8387  0.5940
11815TIP3   OH235387   7.419   3.912   3.891 -0.6705  0.3825 -0.4845
11815TIP3    H135388   7.456   3.883   3.974 -0.1644 -0.0923 -0.8789
11815TIP3    H235389   7.407   4.007   3.901  0.8445  0.5698 -0.4392
11816TIP3   OH235390   1.430   6.306   4.137  0.7234 -0.2196  0.1161
11816TIP3    H135391   1.501   6.244   4.124  0.5440 -0.3501 -0.2341
11816TIP3    H235392   1.366   6.285   4.069 -0.2167 -0.9012  1.1864
11817TIP3   OH235393   0.273   5.828   4.644 -0.5726  0.3361 -0.7406
11817TIP3    H135394   0.266   5.811   4.738 -1.9341 -1.8784 -1.2076
11817TIP3    H235395   0.347   5.774   4.615  1.1502  2.5586 -0.6291
11818TIP3   OH235396   8.098   6.826   3.741 -0.6969 -0.1422 -0.3260
11818TIP3    H135397   8.161   6.815   3.670  1.6416 -0.2033  1.6881
11818TIP3    H235398   8.121   6.758   3.804 -1.6964  0.9248  1.2269
11819TIP3   OH235399   0.338   5.010   3.175 -0.1408  0.3062 -0.0802
11819TIP3    H135400   0.246   5.035   3.172 -0.5105 -0.8340  1.0587
11819TIP3    H235401   0.336   4.917   3.200  1.3505  0.5291  0.9002
11820TIP3   OH235402   0.970   5.136   5.806 -0.4904 -0.6219  0.2942
11820TIP3    H135403   0.913   5.197   5.758 -0.1306 -0.6388 -0.1432
11820TIP3    H235404   0.910   5.091   5.866 -1.0229 -0.9815 -0.4979
11821TIP3   OH235405   0.426   5.077   5.595 -0.2125 -0.4129 -0.6212
11821TIP3    H135406   0.371   5.111   5.525 -1.7366 -0.4043  0.5457
11821TIP3    H235407   0.434   5.149   5.657  1.7104 -0.1901 -1.1006
11822TIP3   OH235408   7.555   7.155   3.673 -0.1420  0.0239 -0.0997
11822TIP3    H135409   7.640   7.131   3.637  0.0197 -1.0848  1.0069
11822TIP3    H235410   7.527   7.079   3.724 -2.8416 -0.5515 -2.2692
11823TIP3   OH235411   6.156   5.279   3.818  0.2967  0.3090  0.0853
11823TIP3    H135412   6.190   5.356   3.774  0.0632 -0.9273 -2.3592
11823TIP3    H235413   6.220   5.259   3.886  0.9055  1.9934  0.0238
11824TIP3   OH235414   5.854   6.639   3.531 -0.0642  0.2532 -0.0710
11824TIP3    H135415   5.844   6.603   3.619 -2.2783  1.9273  0.4076
11824TIP3    H235416   5.842   6.564   3.473 -2.7936 -0.1575  0.9654
11825TIP3   OH235417   6.130   5.297   5.066  1.0706 -0.2277  0.2458
11825TIP3    H135418   6.125   5.383   5.107  2.8155 -0.1100  0.2557
11825TIP3    H235419   6.164   5.314   4.978  3.6980 -1.1034  1.0412
11826TIP3   OH235420   6.268   4.599   4.286 -0.2432 -0.0103 -0.5399
11826TIP3    H135421   6.325   4.660   4.240 -0.9949 -1.6147 -3.8219
11826TIP3    H235422   6.179   4.627   4.263 -0.6346 -0.9768 -0.2382
11827TIP3   OH235423   6.539   5.244   5.129  0.1664 -0.2711 -0.5122
11827TIP3    H135424   6.501   5.327   5.102  1.4436  0.1979 -0.9116
11827TIP3    H235425   6.550   5.252   5.224 -1.6478 -0.8079 -0.2366
11828TIP3   OH235426   6.292   4.997   4.838  0.4798 -0.4013 -0.3697
11828TIP3    H135427   6.372   5.048   4.847  0.2052  0.1124 -0.8173
11828TIP3    H235428   6.322   4.906   4.838  1.0494 -0.2163 -0.3977
11829TIP3   OH235429   7.553   4.994   4.269  0.0291  0.1086 -0.2277
11829TIP3    H135430   7.623   5.052   4.239 -0.2746  0.4241 -0.3222
11829TIP3    H235431   7.478   5.017   4.214 -0.1178 -0.3078 -0.2006
11830TIP3   OH235432   0.982   5.403   4.105 -0.8408  0.2482  0.7420
11830TIP3    H135433   0.964   5.384   4.013 -0.9092  0.1544  0.7746
11830TIP3    H235434   0.895   5.410   4.145 -0.7953 -1.6616  1.2069
11831TIP3   OH235435   7.183   6.422   4.862  0.3678  0.0772 -0.9771
11831TIP3    H135436   7.177   6.475   4.942 -1.4549  0.5136 -1.3822
11831TIP3    H235437   7.232   6.344   4.889 -1.5605 -0.5180  0.9840
11832TIP3   OH235438   0.719   5.865   5.134  0.0369  0.4155  0.1094
11832TIP3    H135439   0.792   5.898   5.186  0.7419 -1.2196  0.1892
11832TIP3    H235440   0.695   5.783   5.177 -0.6256  0.0175 -1.0190
11833TIP3   OH235441   7.548   7.817   3.845 -0.1094 -0.6614  0.3318
11833TIP3    H135442   7.549   7.886   3.913 -0.0604 -0.1184 -0.2154
11833TIP3    H235443   7.570   7.737   3.892 -0.2134 -0.3089  0.9897
11834TIP3   OH235444   7.091   5.474   4.616  0.0748  0.2879  0.0621
11834TIP3    H135445   7.014   5.417   4.618  0.8597 -0.7529  0.8976
11834TIP3    H235446   7.059   5.558   4.650 -0.6419 -0.1926  0.5939
11835TIP3   OH235447   5.304   5.635   4.261 -0.5224 -0.2065 -0.3867
11835TIP3    H135448   5.321   5.705   4.324  0.9629 -1.2327  0.3774
11835TIP3    H235449   5.360   5.562   4.290 -1.7357 -1.5734 -1.3903
11836TIP3   OH235450   7.158   4.656   4.138 -0.5318 -0.6263  0.1426
11836TIP3    H135451   7.244   4.692   4.117 -0.4897  1.5081  3.5513
11836TIP3    H235452   7.104   4.678   4.062  1.2703  0.2538 -0.9351
11837TIP3   OH235453   0.676   3.738   6.476  0.3306 -1.0062 -0.7187
11837TIP3    H135454   0.752   3.682   6.460  1.2742  0.0307  0.0060
11837TIP3    H235455   0.713   3.827   6.480 -1.0562 -0.3969 -1.2717
11838TIP3   OH235456   2.168   5.209   4.026  0.1654 -0.3304 -0.3697
11838TIP3    H135457   2.209   5.285   4.066 -0.5520  0.2287 -0.6926
11838TIP3    H235458   2.165   5.143   4.096 -1.4093  0.7584  0.6218
11839TIP3   OH235459   7.471   7.208   4.407 -1.1399 -0.4076 -0.0672
11839TIP3    H135460   7.497   7.294   4.373 -1.5700 -0.0808  0.4246
11839TIP3    H235461   7.479   7.149   4.332 -2.6746  0.4276 -0.9064
11840TIP3   OH235462   8.524   5.535   5.476  0.4146  0.2004 -0.5226
11840TIP3    H135463   8.472   5.459   5.452 -1.5120  1.8121 -1.5678
11840TIP3    H235464   8.482   5.608   5.432  2.1748  1.9056  0.5386
11841TIP3   OH235465   6.357   1.732   0.550 -0.0979  0.6727 -0.4565
11841TIP3    H135466   6.308   1.728   0.467  1.2048  1.1217 -1.2708
11841TIP3    H235467   6.352   1.644   0.585  0.9821 -0.0393 -2.0115
11842TIP3   OH235468   7.826   5.537   4.290  0.2988  0.4787  0.2499
11842TIP3    H135469   7.843   5.625   4.323 -0.3334 -0.0021  1.9034
11842TIP3    H235470   7.750   5.507   4.340 -1.3339  0.0989 -2.3660
11843TIP3   OH235471   7.368   5.154   2.782  0.4914  0.4449  0.2065
11843TIP3    H135472   7.371   5.060   2.798 -0.1450 -0.0832 -2.5676
11843TIP3    H235473   7.460   5.181   2.781  0.8213 -0.7103 -2.0509
11844TIP3   OH235474   0.145   4.453   6.046 -0.1326 -0.5296 -0.9244
11844TIP3    H135475   0.101   4.386   5.994  0.5749 -1.3757 -0.4359
11844TIP3    H235476   0.101   4.452   6.131 -0.5018  0.0350 -1.1012
11845TIP3   OH235477   6.693   3.373   4.615 -0.4046 -0.2844  0.2719
11845TIP3    H135478   6.598   3.377   4.630 -0.8434  0.4881 -2.4267
11845TIP3    H235479   6.707   3.289   4.572  0.2146 -0.6236  1.1348
11846TIP3   OH235480   6.655   5.984   4.184 -0.0856 -0.2678  0.4618
11846TIP3    H135481   6.648   5.988   4.089 -1.5254 -0.8009  0.5237
11846TIP3    H235482   6.669   5.892   4.204  4.7213  0.3711  0.5604
11847TIP3   OH235483   6.397   5.581   4.069 -0.0527 -0.1276  0.2126
11847TIP3    H135484   6.403   5.677   4.064 -0.0503 -0.2135 -2.0301
11847TIP3    H235485   6.303   5.563   4.059  0.0177 -0.3838  0.0127
11848TIP3   OH235486   8.206   6.398   3.146  0.1769  0.5325 -0.2157
11848TIP3    H135487   8.239   6.309   3.162 -1.4232 -0.0509  0.0015
11848TIP3    H235488   8.144   6.414   3.218 -0.3481  1.3943 -0.8490
11849TIP3   OH235489   5.807   6.055   6.438 -0.7332  0.0179  0.1874
11849TIP3    H135490   5.766   6.024   6.356 -1.6914 -1.3578  1.1572
11849TIP3    H235491   5.744   6.031   6.506  0.3355  0.6071  1.3907
11850TIP3   OH235492   6.150   4.513   2.836 -0.5636 -0.3814 -0.2343
11850TIP3    H135493   6.137   4.570   2.912 -0.3748  0.8742 -1.1254
11850TIP3    H235494   6.072   4.526   2.783 -0.2998 -0.6025 -0.6759
11851TIP3   OH235495   6.648   6.667   3.307 -0.3078 -0.3934  0.2254
11851TIP3    H135496   6.604   6.587   3.277 -0.3742  0.1278 -1.0904
11851TIP3    H235497   6.590   6.703   3.373 -0.3509 -1.3609  0.7212
11852TIP3   OH235498   7.444   6.602   4.690  0.2159  0.0604  0.3671
11852TIP3    H135499   7.359   6.646   4.683 -0.0059 -0.7111 -2.7085
11852TIP3    H235500   7.467   6.608   4.783 -2.1244  2.2650  0.8632
11853TIP3   OH235501   5.601   3.662   2.875 -0.0576  0.0763  0.4983
11853TIP3    H135502   5.562   3.596   2.818 -1.1284  1.3587 -0.2859
11853TIP3    H235503   5.689   3.630   2.892 -0.0954 -0.8700 -0.9810
11854TIP3   OH235504   0.528   7.196   2.905 -0.5218  0.4676 -0.2450
11854TIP3    H135505   0.492   7.134   2.842  0.2103  0.2457 -0.4475
11854TIP3    H235506   0.452   7.225   2.956 -0.9500 -0.1808 -0.5051
11855TIP3   OH235507   1.794   5.248   6.841  0.1496  0.8727  0.1147
11855TIP3    H135508   1.791   5.167   6.892 -1.4043  1.8990  1.7123
11855TIP3    H235509   1.862   5.300   6.884  0.9099  0.5712 -0.7047
11856TIP3   OH235510   6.549   7.119   2.939  0.7946  0.2706  0.1493
11856TIP3    H135511   6.612   7.191   2.932  0.2932  0.5611 -1.4536
11856TIP3    H235512   6.597   7.042   2.910  0.5043  0.4367 -0.7662
11857TIP3   OH235513   4.307   1.450   0.368 -0.2613  0.2343 -0.2681
11857TIP3    H135514   4.366   1.463   0.442 -0.0423 -1.8369 -0.0670
11857TIP3    H235515   4.219   1.462   0.405 -0.0944  0.6597 -0.0063
11858TIP3   OH235516   6.450   6.527   3.547 -0.3885  0.0270 -0.7313
11858TIP3    H135517   6.460   6.621   3.531 -1.7233  0.3295  0.0741
11858TIP3    H235518   6.435   6.490   3.460 -1.2072  0.7576 -0.9150
11859TIP3   OH235519   5.179   0.484   0.319  0.7674  0.1381  0.1605
11859TIP3    H135520   5.154   0.469   0.410  1.5808 -0.7880  0.2415
11859TIP3    H235521   5.106   0.452   0.267  1.2291 -1.3760  0.4291
11860TIP3   OH235522   4.413   1.113   1.906 -0.9897  0.1217 -0.2046
11860TIP3    H135523   4.466   1.154   1.975  1.1260 -2.2176 -0.3991
11860TIP3    H235524   4.402   1.182   1.841  2.6786  0.3931 -0.6132
11861TIP3   OH235525   7.951   5.233   4.294  0.9930  0.2721  0.7727
11861TIP3    H135526   7.956   5.230   4.390  0.2928  0.6629  0.8191
11861TIP3    H235527   7.967   5.324   4.272  1.5326  0.1144  0.4860
11862TIP3   OH235528   8.008   6.101   5.135 -0.5732  0.0080 -0.2560
11862TIP3    H135529   8.015   6.158   5.212 -2.0685  0.7238 -0.6373
11862TIP3    H235530   7.931   6.047   5.153  0.4319 -1.4305 -0.2127
11863TIP3   OH235531   0.242   4.857   3.596  0.5920  0.1815 -0.7271
11863TIP3    H135532   0.308   4.910   3.552  0.5153  0.9230  0.0294
11863TIP3    H235533   0.159   4.890   3.563  0.4641  1.8918  1.1845
11864TIP3   OH235534   8.100   4.770   3.429 -0.4254 -0.1312  0.2859
11864TIP3    H135535   8.131   4.680   3.440 -0.0121  0.0440  0.5550
11864TIP3    H235536   8.073   4.797   3.517 -1.4673 -0.3235  0.0358
11865TIP3   OH235537   1.534   4.611   4.746  0.0262  0.2216  0.0304
11865TIP3    H135538   1.534   4.701   4.714 -2.6235 -0.0408 -0.8559
11865TIP3    H235539   1.480   4.613   4.824 -1.1989 -0.8339 -0.7655
11866TIP3   OH235540   4.226   1.825   1.191 -0.6979 -0.3702  0.6843
11866TIP3    H135541   4.196   1.741   1.158 -0.6813 -0.5056  1.0165
11866TIP3    H235542   4.307   1.842   1.143  0.5300 -1.6332  2.2682
11867TIP3   OH235543   2.259   3.771   4.023 -0.0705 -0.8064  0.4288
11867TIP3    H135544   2.311   3.787   4.101  0.8375 -0.3579 -0.2601
11867TIP3    H235545   2.261   3.676   4.011  0.2783 -0.8209  0.6168
11868TIP3   OH235546   2.977   3.774   6.739 -0.2766  0.3339 -0.2367
11868TIP3    H135547   2.927   3.847   6.776 -0.1010  0.4324 -0.1954
11868TIP3    H235548   2.924   3.697   6.760 -1.3483  0.6122 -1.8129
11869TIP3   OH235549   8.108   5.724   5.223  0.3079 -0.6254  0.8327
11869TIP3    H135550   8.121   5.679   5.306  0.6540 -0.6735  0.7522
11869TIP3    H235551   8.017   5.707   5.200  0.0016  0.0017  1.5730
11870TIP3   OH235552   8.304   6.121   5.314 -0.2026 -0.2109 -0.7760
11870TIP3    H135553   8.294   6.043   5.261 -0.6243  0.2944 -1.4493
11870TIP3    H235554   8.299   6.194   5.252  0.3889  0.3420 -0.1860
11871TIP3   OH235555   5.721   1.168   0.325  0.6128 -0.2016 -0.0640
11871TIP3    H135556   5.710   1.164   0.230  2.8497  1.4982 -0.4346
11871TIP3    H235557   5.773   1.091   0.347 -0.5646 -1.0120 -0.1129
11872TIP3   OH235558   8.488   5.179   6.961 -0.1350  0.3504 -0.3293
11872TIP3    H135559   8.447   5.136   6.885 -0.8600 -0.1365  0.3193
11872TIP3    H235560   8.477   5.272   6.944  0.6903  0.2698 -1.3500
11873TIP3   OH235561   7.570   5.017   6.391  0.1661 -0.3885  0.3991
11873TIP3    H135562   7.572   5.026   6.486 -0.7457 -1.3544  0.5213
11873TIP3    H235563   7.505   5.082   6.362  1.4729  0.9039  0.2890
11874TIP3   OH235564   2.169   4.126   5.088 -0.8285 -0.0723 -0.2765
11874TIP3    H135565   2.214   4.168   5.161 -0.2728 -0.3294 -0.4731
11874TIP3    H235566   2.077   4.123   5.116 -0.9836  1.7606 -0.4898
11875TIP3   OH235567   0.083   6.076   5.555 -0.6481 -0.4535 -0.3872
11875TIP3    H135568   0.041   5.990   5.551 -1.0179 -0.4308  2.0929
11875TIP3    H235569   0.010   6.138   5.552 -0.5767 -0.3211  0.3570
11876TIP3   OH235570   0.664   7.471   4.942  0.2359  0.0376  0.0895
11876TIP3    H135571   0.747   7.437   4.909  2.3941  3.3005  1.8522
11876TIP3    H235572   0.612   7.488   4.864  1.4342 -1.5503 -1.0797
11877TIP3   OH235573   6.493   5.123   6.232  0.0460  0.3392 -0.1789
11877TIP3    H135574   6.499   5.183   6.306 -0.4356 -0.7619  0.7763
11877TIP3    H235575   6.402   5.094   6.232  0.1418  0.0227 -0.9569
11878TIP3   OH235576   7.088   5.086   3.965  0.4661  0.1890 -0.6225
11878TIP3    H135577   7.115   5.171   3.930  3.5796 -0.6414 -0.3475
11878TIP3    H235578   7.064   5.035   3.888 -1.1759  1.1988 -0.8093
11879TIP3   OH235579   6.661   2.245   2.838 -0.3559  0.1932  0.1799
11879TIP3    H135580   6.727   2.228   2.771 -1.4136  0.5088 -0.9771
11879TIP3    H235581   6.637   2.158   2.870 -0.9942 -0.0975 -1.0241
11880TIP3   OH235582   7.365   6.356   4.533  0.5348  0.3543  0.6377
11880TIP3    H135583   7.283   6.404   4.544  0.0933 -0.4049  0.7145
11880TIP3    H235584   7.426   6.398   4.593 -0.0902  0.2635  1.3457
11881TIP3   OH235585   6.851   5.739   5.683  0.0845  0.1949  0.6941
11881TIP3    H135586   6.838   5.707   5.594  0.1626  1.3300  0.2647
11881TIP3    H235587   6.784   5.806   5.694  0.3301  0.3345  1.3475
11882TIP3   OH235588   7.062   7.539   5.050 -0.0205 -0.4967  0.2214
11882TIP3    H135589   7.044   7.579   5.135  1.1772  0.2475  0.1364
11882TIP3    H235590   7.151   7.568   5.028  0.7257 -2.8735 -0.0182
11883TIP3   OH235591   8.437   4.355   5.642 -0.4731 -0.2339 -0.1881
11883TIP3    H135592   8.377   4.282   5.629  1.0681 -1.4287 -0.7235
11883TIP3    H235593   8.523   4.319   5.620  0.2543  1.8526 -0.8039
11884TIP3   OH235594   7.305   3.103   4.620 -0.1534 -0.0346  0.1530
11884TIP3    H135595   7.257   3.146   4.691  0.2481 -0.2432  0.5459
11884TIP3    H235596   7.236   3.076   4.559 -0.3933  1.6293 -0.3605
11885TIP3   OH235597   8.156   4.886   6.502 -0.0958  0.3173  0.3877
11885TIP3    H135598   8.158   4.805   6.554 -0.4114  0.2966  0.3657
11885TIP3    H235599   8.168   4.856   6.411 -3.2875 -0.0001  0.0227
11886TIP3   OH235600   7.959   4.752   5.019 -0.1678 -0.0130 -0.8756
11886TIP3    H135601   7.942   4.845   5.001 -0.8487  0.2500  1.0299
11886TIP3    H235602   8.053   4.743   5.006  0.3877  1.6250  1.6752
11887TIP3   OH235603   1.108   5.401   5.686  0.7399  0.0251  0.4962
11887TIP3    H135604   1.058   5.479   5.711 -0.2443 -0.4423  0.0017
11887TIP3    H235605   1.069   5.330   5.737  0.5598 -0.4393 -0.2958
11888TIP3   OH235606   7.420   4.836   4.685 -0.5444 -0.1239  0.2233
11888TIP3    H135607   7.397   4.922   4.651 -0.6214  0.5852  2.0274
11888TIP3    H235608   7.435   4.782   4.606  0.6267  1.8087 -0.9031
11889TIP3   OH235609   7.612   7.759   4.655 -0.0818 -0.5067 -0.6379
11889TIP3    H135610   7.639   7.717   4.737  3.5551 -0.4551 -1.7558
11889TIP3    H235611   7.607   7.687   4.592  0.5545 -0.0439 -1.2127
11890TIP3   OH235612   6.132   4.387   6.049 -0.0203 -0.5408 -0.0311
11890TIP3    H135613   6.159   4.375   5.958 -0.1304  1.0812 -0.2889
11890TIP3    H235614   6.107   4.299   6.078  0.8374 -1.2244 -1.2910
11891TIP3   OH235615   0.896   4.966   4.044 -0.0294 -0.4455  0.3329
11891TIP3    H135616   0.824   4.986   4.104 -1.0346 -0.6612 -0.7705
11891TIP3    H235617   0.858   4.903   3.983  0.9259 -0.0902 -0.6332
11892TIP3   OH235618   7.304   6.195   5.314 -0.0824 -0.0226  0.5128
11892TIP3    H135619   7.360   6.241   5.252  0.1380 -1.4917 -0.3953
11892TIP3    H235620   7.223   6.178   5.265 -0.0663 -0.8255  0.7564
11893TIP3   OH235621   0.298   6.172   1.852  0.2528 -0.1108  0.1613
11893TIP3    H135622   0.251   6.246   1.815  2.2333  1.2806  0.3570
11893TIP3    H235623   0.313   6.197   1.943  0.1072 -1.1730  0.4826
11894TIP3   OH235624   6.923   6.603   3.295  0.4808 -0.3494 -0.1238
11894TIP3    H135625   6.928   6.623   3.201  1.5399 -1.8967 -0.4030
11894TIP3    H235626   6.832   6.622   3.319 -0.1545 -1.2473 -1.7660
11895TIP3   OH235627   2.841   0.342   5.330  0.2744  0.3116  0.4544
11895TIP3    H135628   2.919   0.319   5.380 -0.4586 -0.4466  1.2627
11895TIP3    H235629   2.811   0.259   5.292 -0.8101  0.3905  1.1164
11896TIP3   OH235630   7.199   5.062   5.003  0.1574 -0.4897  0.5572
11896TIP3    H135631   7.145   5.110   4.941 -0.3207 -1.2209  0.4032
11896TIP3    H235632   7.285   5.059   4.962  0.0906 -0.1175  0.3834
11897TIP3   OH235633   0.438   0.521   5.688 -0.0824 -0.1659  0.0261
11897TIP3    H135634   0.422   0.428   5.669  1.0413 -0.9310  2.5434
11897TIP3    H235635   0.358   0.565   5.661 -0.8032 -1.9390 -0.8180
11898TIP3   OH235636   7.437   2.856   4.580 -0.0581  0.0919  0.2813
11898TIP3    H135637   7.406   2.812   4.659 -0.1728  1.0459  0.7671
11898TIP3    H235638   7.411   2.947   4.591  1.3079  0.5402 -0.1559
11899TIP3   OH235639   5.711   6.021   4.554 -0.2405 -0.0583  0.1800
11899TIP3    H135640   5.640   6.006   4.616  0.3577  2.6588  1.5967
11899TIP3    H235641   5.760   5.938   4.553 -2.4625 -1.3927  0.4175
11900TIP3   OH235642   5.706   5.547   4.098  0.3230 -0.2699  0.9979
11900TIP3    H135643   5.781   5.525   4.154  1.2044  0.3906  0.0926
11900TIP3    H235644   5.677   5.632   4.131  1.0790  0.2990  0.2369
11901TIP3   OH235645   8.060   5.186   2.845  0.8245 -0.6202 -0.9274
11901TIP3    H135646   8.153   5.206   2.847  0.6619  0.0792  1.5052
11901TIP3    H235647   8.050   5.115   2.908 -0.2726 -0.7564 -1.2511
11902TIP3   OH235648   7.884   5.814   5.657  0.0652  0.1853 -0.2725
11902TIP3    H135649   7.869   5.753   5.729  0.2858 -0.3410 -0.6703
11902TIP3    H235650   7.979   5.821   5.651  0.0555 -0.1015 -0.7866
11903TIP3   OH235651   6.931   4.763   4.498 -0.1520  0.1566  0.1280
11903TIP3    H135652   6.877   4.795   4.425  1.6694  1.5096 -0.6708
11903TIP3    H235653   7.009   4.729   4.455 -0.0830 -1.1851  1.3159
11904TIP3   OH235654   1.021   4.799   5.954  0.0016 -0.1249  0.2651
11904TIP3    H135655   1.062   4.792   5.867  1.3326 -0.2615  0.8916
11904TIP3    H235656   1.076   4.861   6.001 -1.3123  0.7319  0.6903
11905TIP3   OH235657   2.131   3.856   3.464 -0.2174  0.5674 -0.0406
11905TIP3    H135658   2.148   3.773   3.419  2.7241  0.6787  0.7700
11905TIP3    H235659   2.072   3.833   3.536 -0.0941 -0.6898 -0.3386
11906TIP3   OH235660   1.287  -0.001   3.661  0.1952 -0.0753  0.5392
11906TIP3    H135661   1.263   0.002   3.753  2.0831 -0.4939  1.0602
11906TIP3    H235662   1.369   0.048   3.655 -0.7027  1.2748 -1.1882
11907TIP3   OH235663   7.350   4.413   2.952  0.0706 -0.2040 -0.6716
11907TIP3    H135664   7.290   4.402   3.026  1.8143 -1.0342  0.6703
11907TIP3    H235665   7.421   4.467   2.988  0.2329  0.6141 -2.1788
11908TIP3   OH235666   6.824   5.446   3.977  0.4964 -0.4754 -0.6420
11908TIP3    H135667   6.839   5.365   4.026 -0.1222 -1.1988 -1.6254
11908TIP3    H235668   6.825   5.419   3.885  0.7991  0.7218 -0.9971
11909TIP3   OH235669   6.541   7.164   4.952  0.5394 -0.0574  0.4367
11909TIP3    H135670   6.629   7.127   4.957 -0.4970 -2.4174  2.3946
11909TIP3    H235671   6.536   7.224   5.026  0.8782  0.9329 -0.3435
11910TIP3   OH235672   7.747   5.670   1.743 -0.3133  0.1594 -0.2204
11910TIP3    H135673   7.792   5.746   1.707 -0.9680  0.4566 -0.4209
11910TIP3    H235674   7.808   5.597   1.730  0.5388  0.7396  0.4623
11911TIP3   OH235675   8.123   5.147   6.512 -0.0326 -0.2177 -0.2770
11911TIP3    H135676   8.132   5.052   6.517  0.8173 -0.1837 -1.0227
11911TIP3    H235677   8.084   5.172   6.596 -1.6799 -1.3797 -0.6646
11912TIP3   OH235678   1.500   4.810   3.382 -0.1764 -0.3298 -0.2106
11912TIP3    H135679   1.491   4.796   3.476 -1.2329  0.2936 -0.2141
11912TIP3    H235680   1.419   4.776   3.344  1.0261 -2.2930 -1.0987
11913TIP3   OH235681   6.024   7.037   4.941  0.4917 -0.1951 -0.5426
11913TIP3    H135682   5.937   7.075   4.941  1.0233  1.0992  0.5519
11913TIP3    H235683   6.071   7.083   4.871  0.8941  0.6145  0.2439
11914TIP3   OH235684   8.438   4.012   6.316 -0.2221  0.3111  0.3853
11914TIP3    H135685   8.409   4.102   6.303  1.3445  0.7616 -0.1316
11914TIP3    H235686   8.522   4.021   6.362 -0.8373 -0.9402  1.8216
11915TIP3   OH235687   0.783   5.466   2.967 -0.1278  0.2124  0.0461
11915TIP3    H135688   0.768   5.400   2.900 -1.0766 -0.6642  1.0951
11915TIP3    H235689   0.700   5.472   3.014  0.4978  0.8450  1.1021
11916TIP3   OH235690   4.878   0.061   5.390 -0.1489 -0.1030  0.3716
11916TIP3    H135691   4.942   0.060   5.319 -0.4027  0.4713  0.1335
11916TIP3    H235692   4.928   0.037   5.468  0.6441  1.6249  0.4187
11917TIP3   OH235693   1.840   7.447   5.844  0.1966 -0.1894  0.3388
11917TIP3    H135694   1.812   7.496   5.766 -0.9474 -1.5935 -0.1496
11917TIP3    H235695   1.787   7.482   5.915 -1.0018 -1.0560 -0.1090
11918TIP3   OH235696   2.611   7.185   6.812  0.0530 -0.5511  0.1822
11918TIP3    H135697   2.678   7.247   6.840 -0.0666 -1.3369  2.2401
11918TIP3    H235698   2.534   7.240   6.796  0.2782 -0.0185  0.8842
11919TIP3   OH235699   2.371   1.242   0.454  0.7575  0.1072 -0.1816
11919TIP3    H135700   2.377   1.150   0.478 -0.4493 -0.0822 -0.5728
11919TIP3    H235701   2.450   1.259   0.404 -0.1957 -1.3733 -2.2492
11920TIP3   OH235702   1.745   5.631   5.828  0.2769 -0.1079  0.4313
11920TIP3    H135703   1.762   5.725   5.817 -0.1724 -0.2553 -1.7165
11920TIP3    H235704   1.823   5.588   5.794 -0.1371 -0.5469  0.0361
11921TIP3   OH235705   1.471   3.664   6.735 -0.4119 -0.0254  0.1094
11921TIP3    H135706   1.451   3.574   6.710  0.5305 -0.6507  1.5401
11921TIP3    H235707   1.485   3.660   6.830  0.1822  1.5213  0.1026
11922TIP3   OH235708   7.448   7.667   2.033 -1.0485 -0.3167 -0.4572
11922TIP3    H135709   7.370   7.718   2.054 -0.1656  1.0249 -0.3590
11922TIP3    H235710   7.519   7.712   2.078 -0.2188 -1.5546 -0.5020
11923TIP3   OH235711   5.283   0.267   1.101 -0.2626  0.2451  0.5306
11923TIP3    H135712   5.234   0.232   1.175 -0.5381  0.2158  0.3362
11923TIP3    H235713   5.217   0.315   1.049 -0.1273  0.0275  0.1557
11924TIP3   OH235714   7.014   1.089   2.038  0.5251 -0.2198 -0.4805
11924TIP3    H135715   6.931   1.068   2.079  1.8595  2.3054  3.8221
11924TIP3    H235716   6.999   1.172   1.993  0.8147  0.5261  0.7737
11925TIP3   OH235717   7.121   1.231   0.613 -0.2238  0.0430 -0.0367
11925TIP3    H135718   7.124   1.173   0.537 -0.7856 -0.5920  0.4208
11925TIP3    H235719   7.034   1.217   0.651 -0.2627  0.9744  0.2485
11926TIP3   OH235720   7.254   2.991   3.030  0.5898  0.1771 -0.5076
11926TIP3    H135721   7.229   2.991   2.938  1.2820 -0.8440 -0.7083
11926TIP3    H235722   7.206   2.917   3.068 -1.4809  1.9693  0.4740
11927TIP3   OH235723   2.613   4.203   5.466  0.5838 -0.1470  0.2303
11927TIP3    H135724   2.615   4.258   5.387 -0.2397 -1.2556 -0.5734
11927TIP3    H235725   2.527   4.161   5.465  1.0936 -1.2473  0.9718
11928TIP3   OH235726   1.584   4.900   5.015  0.1231  0.8612  0.0827
11928TIP3    H135727   1.668   4.938   4.992  0.7602  0.7307  2.0611
11928TIP3    H235728   1.520   4.967   4.991  0.9578  1.7746  0.3758
11929TIP3   OH235729   4.476   2.326   0.956 -0.4245 -0.2148 -0.2300
11929TIP3    H135730   4.471   2.420   0.939 -1.2586 -0.7364 -3.2266
11929TIP3    H235731   4.422   2.312   1.033  0.1442  1.8333  0.5713
11930TIP3   OH235732   1.499   6.185   3.446 -0.0443 -0.3985  0.0372
11930TIP3    H135733   1.424   6.178   3.505  0.3634 -1.4706  0.4374
11930TIP3    H235734   1.461   6.177   3.358 -0.4520 -0.4850  0.2178
11931TIP3   OH235735   7.837   1.837   1.585 -0.1290 -0.5552  0.5604
11931TIP3    H135736   7.823   1.860   1.493  2.3461 -0.2335  0.2238
11931TIP3    H235737   7.756   1.794   1.612 -0.8701 -0.7037 -1.7935
11932TIP3   OH235738   1.678   4.353   5.723 -0.2336 -0.1602  0.0044
11932TIP3    H135739   1.745   4.300   5.679 -0.4537 -0.6235  0.2292
11932TIP3    H235740   1.690   4.333   5.816  1.1337  1.8423  0.2906
11933TIP3   OH235741   8.345   0.791   1.023 -0.3679 -0.0846 -0.1212
11933TIP3    H135742   8.336   0.705   1.065  0.2789 -0.8207 -1.4291
11933TIP3    H235743   8.272   0.794   0.961 -1.3110  0.9894  1.0070
11934TIP3   OH235744   2.106   7.722   6.197  0.8175  0.1698  0.2357
11934TIP3    H135745   2.058   7.805   6.194 -1.1699 -0.8987  1.4496
11934TIP3    H235746   2.111   7.694   6.106  0.4283  1.0299 -0.0586
11935TIP3   OH235747   2.656   7.161   4.553 -0.2231  0.8847 -0.6756
11935TIP3    H135748   2.685   7.071   4.535  0.5106  1.0652 -0.3924
11935TIP3    H235749   2.639   7.198   4.466 -0.1345  0.6035 -0.8158
11936TIP3   OH235750   6.031   7.833   0.249  0.1306  0.2859  0.0036
11936TIP3    H135751   6.086   7.772   0.201 -0.6556  0.9089 -1.7215
11936TIP3    H235752   5.962   7.779   0.287  0.8982 -0.2398  0.6790
11937TIP3   OH235753   1.210   6.467   5.395  0.8132  0.4211 -0.4599
11937TIP3    H135754   1.175   6.528   5.331  2.8852  2.0567 -0.0874
11937TIP3    H235755   1.180   6.501   5.479  0.2992 -0.2244 -0.3786
11938TIP3   OH235756   1.399   5.429   4.692  0.1994 -0.3724  0.1947
11938TIP3    H135757   1.405   5.478   4.610  0.7656 -0.6978  0.0354
11938TIP3    H235758   1.453   5.351   4.677  0.8869 -0.0809  1.1240
11939TIP3   OH235759   3.344   7.670   5.929 -0.3472 -0.3838  0.3026
11939TIP3    H135760   3.259   7.627   5.938 -1.1020  1.2918  1.4534
11939TIP3    H235761   3.360   7.710   6.014  1.7860 -0.9957  0.2104
11940TIP3   OH235762   2.859   5.631   5.675 -0.3091  0.6177 -0.5957
11940TIP3    H135763   2.913   5.654   5.599 -0.9813  3.0882 -0.3656
11940TIP3    H235764   2.918   5.581   5.731  1.0977  1.3578 -1.3761
11941TIP3   OH235765   7.408   0.823   1.932  0.2252 -0.2387  0.7214
11941TIP3    H135766   7.453   0.838   2.014 -0.2418 -0.8590  1.0928
11941TIP3    H235767   7.351   0.899   1.921  1.2120  0.4538  0.3434
11942TIP3   OH235768   0.686   5.968   4.841 -0.2305  0.4285  0.5339
11942TIP3    H135769   0.755   6.026   4.807  0.4715 -0.4198  0.5056
11942TIP3    H235770   0.714   5.948   4.930  0.7615 -1.7610 -0.2301
11943TIP3   OH235771   0.084   2.588   0.648 -0.5548  0.3353 -0.1036
11943TIP3    H135772   0.095   2.510   0.594  2.6459  0.3041  0.4599
11943TIP3    H235773   0.057   2.555   0.734 -0.2642 -0.0806 -0.1726
11944TIP3   OH235774   5.960   1.856   1.373 -0.9619 -0.3479  0.4258
11944TIP3    H135775   5.957   1.850   1.278  3.3891 -0.1403  0.1748
11944TIP3    H235776   5.957   1.950   1.391  3.0302 -0.0936  0.1353
11945TIP3   OH235777   2.073   6.390   5.537 -0.4009 -0.3833 -0.1948
11945TIP3    H135778   2.106   6.477   5.561 -2.4972  0.1804  0.7853
11945TIP3    H235779   2.090   6.383   5.443  1.6351  0.2423  0.0976
11946TIP3   OH235780   6.448   1.515   0.713  0.0893 -0.1183  0.1017
11946TIP3    H135781   6.427   1.447   0.776 -0.2632  1.0252  1.2469
11946TIP3    H235782   6.506   1.473   0.650 -0.5425 -1.6031  0.4980
11947TIP3   OH235783   3.187   4.704   5.905 -0.5965 -0.7139 -0.5127
11947TIP3    H135784   3.103   4.681   5.864 -1.3345 -1.0416  1.1116
11947TIP3    H235785   3.177   4.676   5.996  0.8201  0.4111  0.0093
11948TIP3   OH235786   6.257   0.933   1.397 -0.8051 -0.1263 -0.0661
11948TIP3    H135787   6.202   0.888   1.333 -0.0615 -1.6398  0.3538
11948TIP3    H235788   6.339   0.885   1.396 -0.8061 -0.1946  2.0907
11949TIP3   OH235789   7.003   3.042   1.157 -0.2303  0.2291 -0.4340
11949TIP3    H135790   7.036   3.040   1.067  4.2552  1.7928  1.0265
11949TIP3    H235791   7.003   3.135   1.180 -1.9594 -0.0977  0.9977
11950TIP3   OH235792   0.882   7.674   4.679  0.0555  0.4792  0.2666
11950TIP3    H135793   0.920   7.692   4.593 -0.5114 -0.0998 -0.1059
11950TIP3    H235794   0.788   7.667   4.663  0.0965 -1.1435  0.6759
11951TIP3   OH235795   1.399   5.722   6.706  0.5466 -0.2007  0.2471
11951TIP3    H135796   1.409   5.634   6.741  0.3469  0.4216  1.9461
11951TIP3    H235797   1.317   5.720   6.657  0.1678 -0.7836  0.8976
11952TIP3   OH235798   1.506   5.449   6.766 -0.1981  0.4681 -0.8488
11952TIP3    H135799   1.543   5.520   6.713 -0.3419  2.2659  1.3898
11952TIP3    H235800   1.449   5.401   6.705  0.5358  1.7606 -2.6006
11953TIP3   OH235801   0.037   0.657   0.501 -0.2451 -0.3035 -0.5062
11953TIP3    H135802   0.126   0.620   0.504 -0.2320 -0.4377 -2.2486
11953TIP3    H235803   0.015   0.672   0.593  2.2032  1.2195 -0.1202
11954TIP3   OH235804   0.724   5.302   5.445  0.0212 -0.5596  0.1917
11954TIP3    H135805   0.703   5.392   5.424  2.0511 -0.4480 -1.5296
11954TIP3    H235806   0.696   5.251   5.369  0.9177 -1.0672  0.1812
11955TIP3   OH235807   6.916   1.383   0.313 -0.1228 -0.3918  0.0054
11955TIP3    H135808   6.935   1.291   0.331  2.7000  0.0589 -0.4682
11955TIP3    H235809   7.002   1.423   0.297 -1.4281  2.0180 -1.2750
11956TIP3   OH235810   6.343   1.438   1.342 -0.4806  0.0384 -0.0711
11956TIP3    H135811   6.284   1.511   1.326 -0.0924  0.5462  0.7707
11956TIP3    H235812   6.285   1.365   1.367 -0.7897  0.3932  0.2606
11957TIP3   OH235813   0.817   5.471   6.668  0.2834 -0.8479 -0.1587
11957TIP3    H135814   0.881   5.523   6.715 -0.0578 -0.5567 -0.0160
11957TIP3    H235815   0.854   5.460   6.580  1.7852 -2.9175  0.6766
11958TIP3   OH235816   2.517   4.235   5.146  0.2490  0.6192  0.2623
11958TIP3    H135817   2.480   4.285   5.073  2.0219  0.5111 -0.7503
11958TIP3    H235818   2.449   4.236   5.213 -0.9038  1.8374 -0.8924
11959TIP3   OH235819   0.061   3.150   1.173 -0.2992 -0.4064 -0.0060
11959TIP3    H135820   0.077   3.217   1.107  2.7715  0.1627  1.2403
11959TIP3    H235821   0.003   3.087   1.129 -1.5392  1.9495 -1.8817
11960TIP3   OH235822   1.995   5.983   5.855  0.0178 -0.2378 -0.0026
11960TIP3    H135823   1.982   6.072   5.823  1.2071 -0.5081 -1.3508
11960TIP3    H235824   2.016   5.993   5.948  0.1665  0.8951 -0.1529
11961TIP3   OH235825   6.760   1.159   1.309 -0.5299 -0.1294 -0.4110
11961TIP3    H135826   6.793   1.207   1.233 -0.6820 -1.4145 -1.3025
11961TIP3    H235827   6.668   1.183   1.314 -0.0604  1.5517  0.6138
11962TIP3   OH235828   0.533   4.889   6.403 -0.0914 -0.6436  0.0794
11962TIP3    H135829   0.452   4.896   6.353  1.1125  0.0395 -1.8688
11962TIP3    H235830   0.536   4.969   6.455  0.5367  0.5970 -1.7863
11963TIP3   OH235831   3.200   5.589   4.750 -0.8717 -0.2026 -0.3591
11963TIP3    H135832   3.143   5.512   4.748  0.0926 -0.9352  0.1136
11963TIP3    H235833   3.286   5.555   4.775  0.0204  0.7569 -2.0657
11964TIP3   OH235834   1.451   6.635   6.021 -0.3060  0.4318  0.0497
11964TIP3    H135835   1.533   6.677   5.996 -0.5415  1.2933  0.6678
11964TIP3    H235836   1.456   6.627   6.116 -1.0818  0.8365  0.1341
11965TIP3   OH235837   4.896   0.192   4.253 -0.3662 -0.0304  0.4788
11965TIP3    H135838   4.875   0.249   4.327 -1.0975  2.0659 -1.2701
11965TIP3    H235839   4.818   0.196   4.197  0.9606  0.1046 -1.4100
11966TIP3   OH235840   2.227   6.267   6.463 -0.3229  0.5021  0.3103
11966TIP3    H135841   2.190   6.346   6.503 -1.2693  0.6634 -0.8556
11966TIP3    H235842   2.161   6.200   6.475 -0.2013  0.3008 -0.1294
11967TIP3   OH235843   7.124   1.715   0.328 -0.4127 -0.8473  0.0648
11967TIP3    H135844   7.198   1.731   0.270 -0.3623 -1.1248  0.0480
11967TIP3    H235845   7.051   1.694   0.269 -0.7745  0.4651  0.0406
11968TIP3   OH235846   1.942   5.510   5.626  0.7763  0.1160  0.0265
11968TIP3    H135847   1.863   5.465   5.596  0.3162  0.0894  1.2432
11968TIP3    H235848   2.014   5.462   5.585  0.1887 -0.2596 -0.5800
11969TIP3   OH235849   2.013   5.496   3.767  1.1542 -0.2488 -0.4475
11969TIP3    H135850   1.944   5.440   3.803  0.5172  0.5202 -0.4695
11969TIP3    H235851   2.083   5.435   3.743  0.8214 -0.9491  0.3410
11970TIP3   OH235852   1.741   5.278   5.778  0.1563  0.4721 -0.3910
11970TIP3    H135853   1.785   5.244   5.700  0.7165 -0.9895  0.5392
11970TIP3    H235854   1.670   5.216   5.795 -0.4638  1.2231 -0.2065
11971TIP3   OH235855   5.565   1.137   1.765 -0.0157 -0.3570  0.1111
11971TIP3    H135856   5.534   1.087   1.689  0.9653 -0.4057 -0.2572
11971TIP3    H235857   5.506   1.211   1.770 -0.0403 -0.3089 -0.7525
11972TIP3   OH235858   6.785   1.906   1.081 -0.1831  0.1211 -0.4307
11972TIP3    H135859   6.845   1.954   1.138  2.0964 -1.7230 -1.1405
11972TIP3    H235860   6.713   1.879   1.138  1.5815 -0.8813  1.3995
11973TIP3   OH235861   6.213   2.258   0.707  0.2178  0.0504 -0.4515
11973TIP3    H135862   6.240   2.221   0.791 -1.1258  1.5170  0.6692
11973TIP3    H235863   6.293   2.260   0.655  1.4316  0.6572  1.3772
11974TIP3   OH235864   1.927   7.732   5.386  0.1304 -0.1390 -0.1636
11974TIP3    H135865   2.001   7.793   5.390  0.2829 -0.4270  1.8180
11974TIP3    H235866   1.952   7.659   5.443 -1.0237 -0.9768 -0.6997
11975TIP3   OH235867   1.030   4.223   4.159  0.6433  0.1662  0.0117
11975TIP3    H135868   1.026   4.257   4.070  2.5438 -0.2750 -0.2577
11975TIP3    H235869   1.083   4.286   4.207 -1.3407  1.0198  1.1502
11976TIP3   OH235870   7.150   0.505   0.795 -0.1530  0.0555 -0.6580
11976TIP3    H135871   7.158   0.451   0.716  0.3742 -1.7701  0.5935
11976TIP3    H235872   7.240   0.521   0.823 -0.3254  1.0650 -0.6686
11977TIP3   OH235873   5.682   2.932   1.475  0.5371  0.3089 -0.2045
11977TIP3    H135874   5.613   2.982   1.431  1.6096  0.5315 -1.6447
11977TIP3    H235875   5.715   2.991   1.542 -1.8729 -0.4295  1.7319
11978TIP3   OH235876   2.625   7.039   3.745 -0.1957 -0.1929 -0.3424
11978TIP3    H135877   2.588   6.955   3.720  0.2717 -0.4551 -0.1524
11978TIP3    H235878   2.567   7.072   3.813 -1.0706  0.2006 -1.2579
11979TIP3   OH235879   3.467   3.578   6.705 -0.2441 -0.1842 -0.1208
11979TIP3    H135880   3.505   3.659   6.671  1.0316  0.2666  2.2531
11979TIP3    H235881   3.391   3.606   6.756 -0.1307 -0.5097  0.2320
11980TIP3   OH235882   3.461   5.636   5.549  0.0957  0.6118 -0.0529
11980TIP3    H135883   3.555   5.622   5.537 -0.0143  0.1128 -0.3625
11980TIP3    H235884   3.453   5.729   5.568  0.4692  1.0417 -1.9170
11981TIP3   OH235885   1.923   4.518   6.747 -0.0301  0.1075 -0.1126
11981TIP3    H135886   1.930   4.561   6.662  1.1667  2.1693  0.9675
11981TIP3    H235887   1.863   4.574   6.797  1.3108  0.3971  1.2219
11982TIP3   OH235888   6.454   2.012   0.565  0.0439  0.0827  0.2540
11982TIP3    H135889   6.527   1.953   0.577  0.2275  0.0411 -1.0375
11982TIP3    H235890   6.376   1.956   0.567  0.1686 -0.1063 -0.2109
11983TIP3   OH235891   2.651   5.367   5.402  0.2157  0.5511 -0.1889
11983TIP3    H135892   2.609   5.419   5.471 -1.2703  0.0947 -0.7291
11983TIP3    H235893   2.735   5.410   5.387 -1.5928  3.6504 -1.6374
11984TIP3   OH235894   5.425   1.534   1.277 -0.7726  0.7123  0.0827
11984TIP3    H135895   5.330   1.545   1.275 -0.8393  0.1843 -3.1601
11984TIP3    H235896   5.460   1.623   1.279 -1.3715  1.0532 -2.7362
11985TIP3   OH235897   0.117   0.816   0.299  0.5370  0.0590 -0.1186
11985TIP3    H135898   0.103   0.734   0.345  1.6442 -0.6090 -0.9745
11985TIP3    H235899   0.105   0.794   0.207 -0.3950  1.1201 -0.2610
11986TIP3   OH235900   7.661   1.283   2.580 -0.1678 -0.1916  0.1864
11986TIP3    H135901   7.652   1.313   2.671 -0.5885  0.4636 -0.0728
11986TIP3    H235902   7.744   1.321   2.551 -1.0709  1.3736 -0.3895
11987TIP3   OH235903   6.815   2.181   1.663  0.3568  0.0986 -0.3095
11987TIP3    H135904   6.820   2.242   1.590 -1.6542 -2.8996 -3.0911
11987TIP3    H235905   6.859   2.102   1.632  1.1349 -0.6409  2.4653
11988TIP3   OH235906   1.646   7.397   0.780 -0.4655  0.0390  0.2615
11988TIP3    H135907   1.594   7.463   0.825 -0.8283  0.1868 -0.3592
11988TIP3    H235908   1.609   7.313   0.810 -0.5828  0.1327  0.3781
11989TIP3   OH235909   1.652   5.288   4.648  0.3194 -0.2286  0.2271
11989TIP3    H135910   1.700   5.231   4.588  0.3943 -1.7940  1.7110
11989TIP3    H235911   1.719   5.345   4.686  0.6230 -0.7263  0.4458
11990TIP3   OH235912   7.291   3.579   0.824  0.1403  0.8518  0.1946
11990TIP3    H135913   7.258   3.575   0.734 -1.0662 -3.3260  0.6938
11990TIP3    H235914   7.375   3.533   0.821 -0.3418 -0.1522  1.3205
11991TIP3   OH235915   6.428   1.192   1.774 -0.4466 -0.1488 -0.6360
11991TIP3    H135916   6.433   1.288   1.776  0.5310 -0.1081 -2.8651
11991TIP3    H235917   6.518   1.163   1.788 -0.2331 -0.6238 -2.7833
11992TIP3   OH235918   0.194   0.266   0.381 -0.4418  0.5284  0.1235
11992TIP3    H135919   0.249   0.307   0.448 -1.1185  2.1482 -0.2814
11992TIP3    H235920   0.256   0.221   0.324  0.2893  0.6095  0.8429
11993TIP3   OH235921   1.427   4.663   4.998 -0.6125  0.6750  0.4707
11993TIP3    H135922   1.484   4.739   4.987 -0.4542  0.4381 -0.3893
11993TIP3    H235923   1.407   4.661   5.092  1.8270  0.0366  1.0112
11994TIP3   OH235924   3.201   5.161   6.634  0.1522  0.2667 -0.0879
11994TIP3    H135925   3.157   5.210   6.703  0.6046  1.0994 -0.3832
11994TIP3    H235926   3.142   5.165   6.559 -0.5446 -1.0194  0.3721
11995TIP3   OH235927   8.390   2.889   2.523  0.1351  0.9302  0.0053
11995TIP3    H135928   8.448   2.965   2.530 -1.2192  1.7760  2.6219
11995TIP3    H235929   8.419   2.830   2.592 -0.0949 -0.0704 -0.7414
11996TIP3   OH235930   8.431   5.341   4.685  0.2700  0.6778 -0.1044
11996TIP3    H135931   8.342   5.305   4.695  0.8108 -0.4121  1.0060
11996TIP3    H235932   8.487   5.263   4.683  1.3834  1.4243  1.3401
11997TIP3   OH235933   0.948   5.479   6.438 -0.3778  0.0188 -0.5924
11997TIP3    H135934   0.900   5.428   6.373  0.1683  0.2445 -1.1768
11997TIP3    H235935   1.031   5.500   6.395  0.4293 -0.7491  0.5698
11998TIP3   OH235936   7.950   1.328   0.430  0.1502 -0.1660 -0.2652
11998TIP3    H135937   8.035   1.341   0.388  0.0842 -0.1023 -0.3764
11998TIP3    H235938   7.901   1.272   0.371  0.5554 -1.1986  0.3711
11999TIP3   OH235939   2.075   5.646   4.553 -0.4088 -0.5303 -0.3288
11999TIP3    H135940   2.101   5.702   4.480 -0.1482  0.8362  0.7762
11999TIP3    H235941   1.981   5.661   4.563 -0.4449 -0.7160 -0.4017
12000TIP3   OH235942   2.297   4.570   4.196  0.4522 -0.1349  0.3995
12000TIP3    H135943   2.288   4.495   4.137  0.3812  0.8293 -0.8209
12000TIP3    H235944   2.219   4.623   4.180  0.6691  0.3797  1.0194
12001TIP3   OH235945   7.479   1.313   0.245 -0.0108  0.1955  0.8446
12001TIP3    H135946   7.495   1.248   0.314 -2.6139 -1.0220  0.3698
12001TIP3    H235947   7.410   1.369   0.281  0.6502  1.3257  0.3618
12002TIP3   OH235948   1.779   6.442   6.577  0.1886 -0.2671 -0.2085
12002TIP3    H135949   1.700   6.390   6.586  0.8844 -1.3789 -0.4858
12002TIP3    H235950   1.748   6.533   6.579 -0.7801 -0.6267  2.7520
12003TIP3   OH235951   7.371   1.573   1.580 -0.3939  0.0135 -0.4199
12003TIP3    H135952   7.325   1.578   1.664 -1.4109  1.9254 -1.0737
12003TIP3    H235953   7.306   1.542   1.518  0.8881 -3.3967 -0.1618
12004TIP3   OH235954   2.743   5.066   6.045 -0.6847 -0.1644 -0.1643
12004TIP3    H135955   2.788   5.128   5.987 -0.3066 -0.9426 -0.7236
12004TIP3    H235956   2.779   5.084   6.132 -1.2085  0.9694 -0.1680
12005TIP3   OH235957   0.029   2.390   0.431 -0.8233  0.0192 -0.1922
12005TIP3    H135958   0.023   2.437   0.348  0.4053 -0.0078 -0.3095
12005TIP3    H235959   0.103   2.330   0.420 -0.5560  0.1125  0.9661
12006TIP3   OH235960   1.661   5.124   6.376  0.1078  0.2943  0.2598
12006TIP3    H135961   1.699   5.175   6.448  1.0281  1.6821 -1.1865
12006TIP3    H235962   1.734   5.109   6.316 -0.6890 -0.7084 -0.4742
12007TIP3   OH235963   4.505   0.040   4.517 -0.3048 -0.2322 -0.0096
12007TIP3    H135964   4.494   0.132   4.494  0.3362  0.0883  0.9317
12007TIP3    H235965   4.520  -0.004   4.433 -1.7481  0.3417 -0.5840
12008TIP3   OH235966   6.159   4.589   1.296 -0.0086  0.4780  0.6762
12008TIP3    H135967   6.075   4.551   1.268  0.1980  0.0491  0.6459
12008TIP3    H235968   6.153   4.681   1.269  0.0551  0.1475 -0.5167
12009TIP3   OH235969   2.494   5.456   6.860  0.4379 -0.0003  0.5651
12009TIP3    H135970   2.583   5.493   6.859  0.9851 -1.2747 -0.2633
12009TIP3    H235971   2.444   5.513   6.802  1.1494 -0.2618 -0.3200
12010TIP3   OH235972   1.574   7.704   5.444  0.0938 -0.3103 -0.2826
12010TIP3    H135973   1.496   7.745   5.409 -0.3906 -0.3947  0.6802
12010TIP3    H235974   1.645   7.734   5.387 -0.4402  0.8099 -0.3700
12011TIP3   OH235975   0.544   5.397   6.711  0.2126 -0.1981  0.3027
12011TIP3    H135976   0.531   5.470   6.651 -0.3381 -0.2080  0.4135
12011TIP3    H235977   0.636   5.405   6.738  0.7164 -0.7256 -1.2266
12012TIP3   OH235978   7.650   1.405   0.054 -0.0255 -0.3813  0.3488
12012TIP3    H135979   7.661   1.493   0.090 -1.8847 -0.3306  0.8504
12012TIP3    H235980   7.585   1.364   0.110 -0.1823 -1.6014 -0.7005
12013TIP3   OH235981   6.923   1.987   0.510 -0.1951 -0.2794 -0.0599
12013TIP3    H135982   7.013   1.956   0.513 -0.0684  0.1368  0.6373
12013TIP3    H235983   6.879   1.942   0.582 -0.4834 -0.3090 -0.2539
12014TIP3   OH235984   1.371   5.880   6.112 -0.2500 -0.4956 -1.0145
12014TIP3    H135985   1.436   5.949   6.100 -0.7807  0.5144  1.5839
12014TIP3    H235986   1.290   5.916   6.075 -0.2653 -0.1776 -0.6690
12015TIP3   OH235987   7.506   5.450   6.238  0.2178  0.4431  0.1723
12015TIP3    H135988   7.508   5.539   6.273  2.1669  0.6206 -0.3050
12015TIP3    H235989   7.547   5.396   6.306  0.6747  0.1962 -0.2974
12016TIP3   OH235990   1.611   7.316   5.319  1.1687 -0.0588  0.5517
12016TIP3    H135991   1.565   7.247   5.366 -0.2050  1.6149  1.7175
12016TIP3    H235992   1.604   7.290   5.227 -1.8659 -0.0276  0.7120
12017TIP3   OH235993   8.359   1.895   3.482 -0.1026 -0.0596  0.4297
12017TIP3    H135994   8.406   1.951   3.544 -0.7580  0.1517  0.7387
12017TIP3    H235995   8.353   1.948   3.402  1.3981 -0.6215 -0.0598
12018TIP3   OH235996   1.195   4.728   6.831  0.3106 -0.2646 -0.1481
12018TIP3    H135997   1.275   4.765   6.867  0.0722  0.9930 -0.8814
12018TIP3    H235998   1.199   4.747   6.737 -0.3438 -1.1201 -0.3584
12019TIP3   OH235999   0.198   0.385   0.071 -0.3661  0.1802  0.0653
12019TIP3    H136000   0.253   0.422   0.002 -0.6790 -1.0329 -0.8439
12019TIP3    H236001   0.229   0.296   0.082 -1.3356 -0.1198  0.4217
12020TIP3   OH236002   3.171   4.271   5.442 -0.5899  0.0729  0.0946
12020TIP3    H136003   3.195   4.354   5.483  1.5145 -0.2301 -0.4898
12020TIP3    H236004   3.080   4.283   5.416 -0.8335  1.5800  1.5520
12021TIP3   OH236005   1.382   4.608   6.018 -0.3378  0.0392  0.6405
12021TIP3    H136006   1.292   4.585   6.041  0.0058 -0.1202  1.8594
12021TIP3    H236007   1.403   4.683   6.073 -0.4078  1.3952 -1.1261
12022TIP3   OH236008   0.920   3.889   0.242  0.1888  0.4917 -0.6504
12022TIP3    H136009   0.972   3.843   0.176  0.6432 -1.6008  1.1339
12022TIP3    H236010   0.969   3.971   0.257 -0.4328  1.4588 -3.5633
12023TIP3   OH236011   1.437   5.778   5.485 -0.1272 -0.0139 -0.6335
12023TIP3    H136012   1.477   5.707   5.435 -0.5961 -0.4168 -0.4401
12023TIP3    H236013   1.472   5.768   5.574 -1.1378 -0.7566 -0.3085
12024TIP3   OH236014   8.138   1.460   0.835 -0.0826  0.4323 -0.3347
12024TIP3    H136015   8.113   1.548   0.863 -0.5972  0.0263  0.4798
12024TIP3    H236016   8.143   1.409   0.916  0.3035 -0.2685 -0.7938
12025TIP3   OH236017   7.419   4.813   5.046  0.2585  0.1940  0.6140
12025TIP3    H136018   7.397   4.873   4.975 -0.6947 -0.2315  0.5390
12025TIP3    H236019   7.450   4.734   5.001 -0.0894  0.0212  0.6793
12026TIP3   OH236020   2.560   5.826   4.926  0.6833  0.3075 -0.0306
12026TIP3    H136021   2.623   5.773   4.975  0.7909 -0.0826 -0.5871
12026TIP3    H236022   2.598   5.914   4.925  0.3657  0.4717  1.1439
12027TIP3   OH236023   7.613   2.016   0.972  0.1983 -0.7486 -1.2035
12027TIP3    H136024   7.598   2.046   1.061  1.9656 -2.3456 -0.3308
12027TIP3    H236025   7.529   1.977   0.945 -0.2975 -0.3730 -0.2154
12028TIP3   OH236026   3.401   7.404   5.949 -0.4368  0.9452 -0.4215
12028TIP3    H136027   3.412   7.498   5.939 -2.0314  1.0645 -1.1710
12028TIP3    H236028   3.490   7.369   5.949  0.0896  2.2151 -2.4779
12029TIP3   OH236029   1.363   1.796   0.513  0.2711  0.3974  0.4100
12029TIP3    H136030   1.344   1.830   0.426  1.7571 -1.1926 -0.5747
12029TIP3    H236031   1.455   1.769   0.509  0.0419 -0.7384  2.1131
12030TIP3   OH236032   7.939   2.092   1.793  0.0851  0.0991  0.7693
12030TIP3    H136033   7.864   2.063   1.845 -0.2881 -0.6911 -0.1895
12030TIP3    H236034   8.002   2.125   1.858 -1.0203  0.6226  1.5893
12031TIP3   OH236035   3.444   5.297   6.580  0.2483  0.1588  0.0808
12031TIP3    H136036   3.439   5.313   6.486  1.5956 -2.3298 -0.4523
12031TIP3    H236037   3.365   5.246   6.599 -0.3293  1.1784  0.4060
12032TIP3   OH236038   1.462   1.322   2.919 -0.0401  0.6251  0.2316
12032TIP3    H136039   1.406   1.357   2.849  2.1240  2.4959 -0.6048
12032TIP3    H236040   1.514   1.254   2.877  0.7372  1.2394  0.1986
12033TIP3   OH236041   0.531   3.305   0.934  0.2381  0.0404  0.0678
12033TIP3    H136042   0.502   3.371   0.997 -0.0870  0.9429 -1.0097
12033TIP3    H236043   0.625   3.321   0.926  0.0218  0.9263 -0.8099
12034TIP3   OH236044   1.489   2.651   2.139 -0.3089 -0.4113 -0.8592
12034TIP3    H136045   1.559   2.700   2.097  0.6383 -0.0530  1.0953
12034TIP3    H236046   1.458   2.708   2.209 -2.0124 -0.9038 -1.1757
12035TIP3   OH236047   7.977   3.699   6.679 -0.1445  0.3617  0.3762
12035TIP3    H136048   7.895   3.693   6.729 -0.6321  0.0296 -0.4500
12035TIP3    H236049   7.957   3.761   6.609 -0.6770 -2.0519 -1.6703
12036TIP3   OH236050   2.098   6.973   4.311 -0.2908  0.0828 -0.0851
12036TIP3    H136051   2.135   6.906   4.253  0.6832 -0.4218  1.0900
12036TIP3    H236052   2.019   7.003   4.267 -0.6186 -1.7012 -0.7232
12037TIP3   OH236053   1.519   7.759   6.150 -0.4698 -0.2083 -0.5568
12037TIP3    H136054   1.579   7.799   6.214 -2.4688  0.1948  1.0952
12037TIP3    H236055   1.508   7.826   6.083  2.4307 -1.0030 -1.9155
12038TIP3   OH236056   4.021   3.944   6.223  0.4270 -0.3898 -0.6682
12038TIP3    H136057   4.105   3.933   6.177  1.1563  0.2987  0.4871
12038TIP3    H236058   4.015   3.867   6.280  0.4471 -0.2494 -0.4778
12039TIP3   OH236059   0.279   2.295   0.945 -0.4014  0.4312  0.0076
12039TIP3    H136060   0.286   2.213   0.896 -0.8398  0.2443  0.2531
12039TIP3    H236061   0.187   2.299   0.972 -1.0318  2.3301 -2.2808
12040TIP3   OH236062   2.361   6.337   6.747 -0.3007 -0.5994 -0.2629
12040TIP3    H136063   2.320   6.361   6.664 -0.5269 -0.4741 -0.1156
12040TIP3    H236064   2.442   6.389   6.749 -1.4834  1.2673  0.7101
12041TIP3   OH236065   2.063   5.678   3.110  0.6875  0.7974 -0.0065
12041TIP3    H136066   2.146   5.698   3.067  0.4317  1.7572 -0.0800
12041TIP3    H236067   2.000   5.672   3.038  0.7568 -0.2854  0.0193
12042TIP3   OH236068   1.060   1.547   1.025 -0.6156 -0.4799 -0.3354
12042TIP3    H136069   0.975   1.551   0.981 -0.6859  1.5726 -0.0618
12042TIP3    H236070   1.039   1.525   1.116 -1.0840  2.3353  0.2746
12043TIP3   OH236071   0.851   2.737   1.514 -0.2635 -0.5980  0.2269
12043TIP3    H136072   0.938   2.747   1.477 -1.1231 -0.4858 -1.8283
12043TIP3    H236073   0.866   2.702   1.602  1.8989  0.8750  0.4818
12044TIP3   OH236074   8.162   2.254   1.378 -0.1906  0.8232 -0.3577
12044TIP3    H136075   8.138   2.261   1.471  4.6063 -1.0712  1.2543
12044TIP3    H236076   8.247   2.299   1.372  1.6550 -2.7087 -2.7916
12045TIP3   OH236077   5.654   0.037   5.626  0.8033 -0.1619 -0.1266
12045TIP3    H136078   5.636   0.033   5.532 -0.6110  1.5547  0.0248
12045TIP3    H236079   5.728   0.097   5.634  0.9944 -0.3961 -0.1645
12046TIP3   OH236080   4.394   6.498   6.873  0.2664  0.8523 -0.1513
12046TIP3    H136081   4.360   6.436   6.808  0.5433  0.1256  0.3974
12046TIP3    H236082   4.317   6.537   6.912  0.0825  0.1773  0.1561
12047TIP3   OH236083   8.132   4.410   2.081 -0.4390  0.4646 -0.1423
12047TIP3    H136084   8.092   4.486   2.123 -1.2821  1.4273 -2.6047
12047TIP3    H236085   8.058   4.351   2.064  0.0813 -0.5099  0.8990
12048TIP3   OH236086   2.430   7.826   4.846 -0.2853  0.1082 -0.1132
12048TIP3    H136087   2.435   7.756   4.911 -0.0832  0.4384  0.2331
12048TIP3    H236088   2.363   7.798   4.785 -0.4152 -0.2482  0.1909
12049TIP3   OH236089   2.164   5.359   5.524  0.2245  0.8705 -0.2266
12049TIP3    H136090   2.225   5.393   5.459 -1.5008  2.8185 -0.9012
12049TIP3    H236091   2.134   5.276   5.489  0.9945  0.8551 -0.8471
12050TIP3   OH236092   3.078   5.350   4.760  0.1260  0.2038 -0.2028
12050TIP3    H136093   3.096   5.276   4.818 -0.0135 -0.1168 -0.5663
12050TIP3    H236094   2.989   5.377   4.783  0.6723  1.1539  0.8990
12051TIP3   OH236095   2.513   6.271   6.068  0.2583  0.6665 -0.3012
12051TIP3    H136096   2.482   6.232   5.985 -0.6589 -0.6255  0.6262
12051TIP3    H236097   2.432   6.290   6.116  0.8112 -1.6538  1.6635
12052TIP3   OH236098   4.782   7.893   0.884  0.3002 -0.0270 -1.1005
12052TIP3    H136099   4.742   7.930   0.962  0.7716 -0.2198 -0.7639
12052TIP3    H236100   4.864   7.943   0.873  1.0295 -1.0862 -0.5423
12053TIP3   OH236101   1.652   2.516   0.723 -0.2579 -0.7518  0.1928
12053TIP3    H136102   1.685   2.523   0.813  2.2243 -0.5438 -0.7090
12053TIP3    H236103   1.692   2.589   0.677 -0.9609 -1.2680 -1.2639
12054TIP3   OH236104   2.182   6.628   5.569  0.0765  0.1111  0.5782
12054TIP3    H136105   2.125   6.703   5.554  0.7199  0.6214  0.6728
12054TIP3    H236106   2.255   6.663   5.621  2.1126  0.1723 -2.2097
12055TIP3   OH236107   7.184   3.142   0.489 -0.1164 -0.3093 -0.9110
12055TIP3    H136108   7.136   3.064   0.515  1.1823 -1.2842 -1.3547
12055TIP3    H236109   7.149   3.212   0.544  0.2696 -1.6489  1.0948
12056TIP3   OH236110   2.588   6.771   3.756 -0.0579 -0.1890  0.0190
12056TIP3    H136111   2.517   6.779   3.818  0.1047 -1.1465  0.3491
12056TIP3    H236112   2.654   6.719   3.802  0.5047 -0.0039 -0.5698
12057TIP3   OH236113   1.742   6.678   6.757  0.5025 -0.4065  0.0703
12057TIP3    H136114   1.733   6.772   6.776  0.0195 -0.7639  1.6852
12057TIP3    H236115   1.790   6.644   6.833 -0.4249 -1.6905  0.0790
12058TIP3   OH236116   0.986   5.572   5.934  0.0496 -0.0272  0.0953
12058TIP3    H136117   0.928   5.649   5.931 -1.1221 -0.9156 -0.2853
12058TIP3    H236118   1.053   5.595   5.998  0.5334  1.8966 -1.0421
12059TIP3   OH236119   8.230   1.849   0.581 -0.1380 -0.3575 -0.8951
12059TIP3    H136120   8.148   1.895   0.597  0.2659  0.1684 -0.3353
12059TIP3    H236121   8.209   1.785   0.513 -0.8532  0.2085 -1.2083
12060TIP3   OH236122   2.295   5.809   5.260 -0.0282 -0.1745 -0.1322
12060TIP3    H136123   2.307   5.728   5.210  1.7363 -0.1641  0.2444
12060TIP3    H236124   2.334   5.877   5.205 -0.8205  0.3085 -0.1050
12061TIP3   OH236125   8.256   4.160   0.578 -0.5267  0.3135 -0.4760
12061TIP3    H136126   8.280   4.215   0.504 -0.8380  0.2164 -0.6498
12061TIP3    H236127   8.191   4.211   0.627 -1.2699 -0.1564 -0.9754
12062TIP3   OH236128   4.132   4.236   6.055 -0.4918  0.1244  0.0804
12062TIP3    H136129   4.214   4.188   6.048 -1.3647 -1.3911  0.1022
12062TIP3    H236130   4.121   4.251   6.149 -0.3699  0.1112  0.0973
12063TIP3   OH236131   2.246   5.078   3.725 -0.1028 -0.1924  0.5793
12063TIP3    H136132   2.323   5.129   3.699 -0.0602 -0.8606 -0.6583
12063TIP3    H236133   2.282   5.009   3.781  0.0651  0.1151  0.8518
12064TIP3   OH236134   2.307   7.537   5.502  0.1743  0.6751 -0.1035
12064TIP3    H136135   2.279   7.511   5.414  0.1495  0.0732  0.0845
12064TIP3    H236136   2.334   7.628   5.492 -2.2059  1.4161 -0.2175
12065TIP3   OH236137   8.453   5.832   5.570 -0.0233  0.3483 -0.1971
12065TIP3    H136138   8.415   5.793   5.492  0.2541  1.0324 -0.6771
12065TIP3    H236139   8.417   5.781   5.643 -0.2309 -0.3260 -0.7726
12066TIP3   OH236140   3.779   3.830   6.856 -0.3000 -0.5704 -0.4734
12066TIP3    H136141   3.810   3.741   6.875 -1.1470 -0.6787  0.4634
12066TIP3    H236142   3.700   3.817   6.804  0.7619 -0.3069 -2.2173
12067TIP3   OH236143   1.357   2.665   0.066 -0.0452 -0.0792 -0.0052
12067TIP3    H136144   1.284   2.608   0.090 -3.1985  3.6220 -0.3693
12067TIP3    H236145   1.392   2.696   0.149 -0.9598  0.6205  0.1222
12068TIP3   OH236146   2.307   5.593   6.690  0.2563  0.2493  0.7098
12068TIP3    H136147   2.316   5.585   6.595 -1.5086  0.5634  0.4890
12068TIP3    H236148   2.340   5.681   6.709  0.0611  0.4192  0.2934
12069TIP3   OH236149   3.217   7.830   4.879  0.3532 -0.3071 -0.1411
12069TIP3    H136150   3.175   7.915   4.871 -0.1889 -0.3464  1.9020
12069TIP3    H236151   3.252   7.811   4.792 -0.6426  1.4067 -0.9212
12070TIP3   OH236152   1.560   6.697   4.980 -0.0035  0.0650 -0.9802
12070TIP3    H136153   1.603   6.658   4.904 -1.1390 -1.4171 -0.8926
12070TIP3    H236154   1.631   6.739   5.029  1.0609 -0.8048 -1.7475
12071TIP3   OH236155   0.616   4.762   3.546  0.3055  0.3071  0.2575
12071TIP3    H136156   0.589   4.671   3.530  0.9478  0.4725 -2.0703
12071TIP3    H236157   0.534   4.811   3.549  0.0405  0.0002 -1.1766
12072TIP3   OH236158   2.495   6.817   6.457  0.3318  0.8911 -0.0421
12072TIP3    H136159   2.469   6.888   6.515  0.9576 -0.2369  1.6308
12072TIP3    H236160   2.570   6.776   6.500  0.5976 -0.1753 -1.4703
12073TIP3   OH236161   8.449   2.423   1.312 -0.1347  0.1828 -0.6447
12073TIP3    H136162   8.519   2.358   1.321  0.9819  1.2384 -1.5559
12073TIP3    H236163   8.494   2.502   1.283 -1.6287  1.0743 -0.5610
12074TIP3   OH236164   2.283   6.224   5.592  0.0340  0.0088  0.3600
12074TIP3    H136165   2.338   6.284   5.541  0.4427  1.4066  2.3458
12074TIP3    H236166   2.196   6.263   5.588 -0.4433 -1.1670 -1.1926
12075TIP3   OH236167   7.522   2.139   2.803  0.2056 -0.1905  0.2064
12075TIP3    H136168   7.593   2.178   2.855 -2.0676  2.3537  1.5069
12075TIP3    H236169   7.536   2.171   2.714  0.6616  0.3348  0.4652
12076TIP3   OH236170   2.247   6.359   6.158 -0.1200 -0.3741  0.4070
12076TIP3    H136171   2.244   6.455   6.154  1.1517 -0.4043 -2.4829
12076TIP3    H236172   2.227   6.338   6.249  0.4465  2.6799  1.2801
12077TIP3   OH236173   8.512   2.445   0.872  0.4463  0.3876  0.1659
12077TIP3    H136174   8.425   2.477   0.848  0.0817  0.4062  1.4514
12077TIP3    H236175   8.517   2.357   0.834 -0.9185 -0.4004  1.7233
12078TIP3   OH236176   8.305   1.374   0.218  0.5553 -0.1239  0.4292
12078TIP3    H136177   8.316   1.395   0.125  0.4865  1.9452  0.8850
12078TIP3    H236178   8.307   1.278   0.220 -0.0503 -0.2196 -1.7841
12079TIP3   OH236179   0.861   1.074   0.460 -0.4736  0.3023  0.4712
12079TIP3    H136180   0.870   1.164   0.493  2.9609  0.4189 -0.6090
12079TIP3    H236181   0.848   1.084   0.366  1.3691 -0.3421  0.1298
12080TIP3   OH236182   0.799   5.313   5.712 -0.1216  0.4207  0.0986
12080TIP3    H136183   0.747   5.387   5.743  1.3750  1.7369 -0.5075
12080TIP3    H236184   0.796   5.320   5.617  1.2216  0.5570  0.0587
12081TIP3   OH236185   2.708   2.362   1.466 -0.2204 -0.0833 -0.2745
12081TIP3    H136186   2.706   2.440   1.522  2.9016  0.4222 -0.7534
12081TIP3    H236187   2.619   2.327   1.469 -1.6258  3.3624  0.1675
12082TIP3   OH236188   3.759   7.304   5.775  0.2939 -0.4836  0.8489
12082TIP3    H136189   3.848   7.291   5.805  0.4093  0.7649  1.0887
12082TIP3    H236190   3.757   7.395   5.745 -0.3859 -1.0532 -0.9066
12083TIP3   OH236191   0.298   2.541   0.422 -0.4091 -0.4606  0.2035
12083TIP3    H136192   0.327   2.460   0.380  0.1687  0.3166 -0.9502
12083TIP3    H236193   0.282   2.601   0.349  2.8628  1.6868  1.1678
12084TIP3   OH236194   2.298   2.568   6.902  0.0129 -0.4725 -0.2781
12084TIP3    H136195   2.374   2.515   6.924 -0.0224  0.4104  2.0973
12084TIP3    H236196   2.235   2.506   6.867  1.3295 -1.4145 -1.0215
12085TIP3   OH236197   7.438   3.165   0.412  0.2175  0.2177 -0.6804
12085TIP3    H136198   7.346   3.145   0.430  0.2853 -0.0609 -0.6302
12085TIP3    H236199   7.474   3.082   0.378  0.4485  0.3236 -0.6955
12086TIP3   OH236200   2.022   5.193   6.471 -0.0953 -0.0039 -0.2428
12086TIP3    H136201   2.116   5.183   6.456  0.1990 -0.8168  1.9438
12086TIP3    H236202   1.981   5.146   6.398  1.1760  0.4872 -1.2943
12087TIP3   OH236203   8.225   1.749   0.831  0.0970  0.0430 -0.4804
12087TIP3    H136204   8.224   1.748   0.735  0.7278 -1.0547 -0.4883
12087TIP3    H236205   8.308   1.791   0.853 -0.2635  0.7241 -0.4024
12088TIP3   OH236206   1.444   6.342   5.140 -0.0589 -0.4754  0.0821
12088TIP3    H136207   1.357   6.305   5.129  0.1184 -1.1453  0.8950
12088TIP3    H236208   1.481   6.295   5.214  1.2117 -0.5801 -0.6110
12089TIP3   OH236209   8.381   3.609   1.546  0.4638 -0.0594 -0.0339
12089TIP3    H136210   8.399   3.623   1.453  2.1359 -0.1852  0.2571
12089TIP3    H236211   8.441   3.539   1.572  1.3314  1.2493  1.5792
12090TIP3   OH236212   2.526   5.705   6.207 -0.2408 -0.0391  0.3347
12090TIP3    H136213   2.538   5.796   6.181  0.9728 -0.0653  0.7710
12090TIP3    H236214   2.500   5.660   6.127 -0.8272  0.6883  0.1186
12091TIP3   OH236215   2.224   7.275   6.039  0.0655  0.0929  0.1866
12091TIP3    H136216   2.131   7.295   6.051 -0.0402 -0.8896  1.0856
12091TIP3    H236217   2.226   7.197   5.984  0.4145  1.1322 -1.3007
12092TIP3   OH236218   0.285   1.438   0.375  0.3855  0.0972 -0.1538
12092TIP3    H136219   0.300   1.396   0.460  1.6024 -0.8950 -0.8386
12092TIP3    H236220   0.218   1.504   0.392 -0.1951 -0.8544  1.3431
12093TIP3   OH236221   8.301   3.612   0.958  0.2511  0.3135  0.5291
12093TIP3    H136222   8.295   3.616   1.053  1.2179 -0.2720  0.6153
12093TIP3    H236223   8.390   3.639   0.938 -0.2212  1.2978 -0.2704
12094TIP3   OH236224   1.438   6.002   4.346  0.1634  0.2750  0.2043
12094TIP3    H136225   1.396   5.990   4.260 -0.5567 -0.9896  0.7270
12094TIP3    H236226   1.520   6.048   4.326 -0.4529  0.8497 -1.0618
12095TIP3   OH236227   2.120   5.256   1.763  0.4917  0.2218 -0.0965
12095TIP3    H136228   2.159   5.328   1.714 -0.2136  0.8130  0.1996
12095TIP3    H236229   2.191   5.192   1.773  2.1592  2.4214  2.7644
12096TIP3   OH236230   1.157   5.129   6.923 -0.5862 -0.3602 -0.4465
12096TIP3    H136231   1.237   5.077   6.916 -0.3437  0.0070 -0.4291
12096TIP3    H236232   1.123   5.133   6.833 -1.2923 -1.6127 -0.2495
12097TIP3   OH236233   0.683   2.242   1.073 -0.1305  0.0217  0.2280
12097TIP3    H136234   0.726   2.279   1.150  0.2757 -1.0607  0.5313
12097TIP3    H236235   0.676   2.148   1.092  0.3809 -0.3324 -1.2408
12098TIP3   OH236236   2.602   6.090   6.814  0.5928 -0.2402 -0.7327
12098TIP3    H136237   2.556   6.105   6.897  0.8773 -0.9162 -0.4415
12098TIP3    H236238   2.552   6.139   6.749  0.7964  0.9017 -0.0410
12099TIP3   OH236239   0.642   2.415   1.643 -0.3852 -0.8060  0.2734
12099TIP3    H136240   0.665   2.325   1.664 -0.9026 -0.3358  2.9884
12099TIP3    H236241   0.640   2.460   1.727 -1.0126  1.5468 -0.9483
12100TIP3   OH236242   2.393   5.227   4.598 -0.2919  0.0830  0.4795
12100TIP3    H136243   2.334   5.262   4.531 -1.0224  1.5324  1.8315
12100TIP3    H236244   2.481   5.246   4.565 -0.6441  0.9652  0.0294
12101TIP3   OH236245   2.547   6.107   5.524  0.0012 -0.5841 -0.1680
12101TIP3    H136246   2.465   6.154   5.510 -0.9955 -2.1019  0.3880
12101TIP3    H236247   2.598   6.125   5.445 -0.9760  0.1607 -0.6457
12102TIP3   OH236248   4.119   4.505   5.698 -0.0474  0.4527  0.3841
12102TIP3    H136249   4.025   4.505   5.716 -0.2949 -1.1422 -0.8373
12102TIP3    H236250   4.148   4.416   5.717  1.1901  0.8531  0.4789
12103TIP3   OH236251   1.285   1.331   1.049  0.3084 -0.1024 -0.1846
12103TIP3    H136252   1.212   1.273   1.028 -0.5433  0.8162  0.1928
12103TIP3    H236253   1.363   1.283   1.022 -0.3865 -1.4217  0.1362
12104TIP3   OH236254   4.370   4.529   5.673 -0.2395 -0.3152  0.0086
12104TIP3    H136255   4.351   4.477   5.595  0.5618  0.8887 -1.0130
12104TIP3    H236256   4.283   4.548   5.710 -0.5562 -1.9445  0.1292
12105TIP3   OH236257   0.831   4.064   4.707  0.0165 -0.0259 -0.1777
12105TIP3    H136258   0.817   4.158   4.694  1.9077  0.3881  0.6254
12105TIP3    H236259   0.746   4.032   4.736 -1.0571  1.1559 -1.8515
12106TIP3   OH236260   2.132   0.897   0.726  0.5603  0.4861 -0.6504
12106TIP3    H136261   2.132   0.987   0.759  0.2375 -0.2094  1.3204
12106TIP3    H236262   2.203   0.854   0.774 -1.3954 -1.1450  0.8848
12107TIP3   OH236263   7.641   1.486   1.194 -0.0765  0.1864 -0.0546
12107TIP3    H136264   7.597   1.421   1.140  0.2573  1.1963 -1.5606
12107TIP3    H236265   7.644   1.446   1.281 -4.7180  0.4126  0.3302
12108TIP3   OH236266   5.345   6.010   6.200 -0.2353  0.2896 -0.1131
12108TIP3    H136267   5.320   5.953   6.128  1.7925 -0.0973 -0.5512
12108TIP3    H236268   5.267   6.016   6.255 -1.2307 -0.8813 -1.3828
12109TIP3   OH236269   0.546   4.341  -0.008 -0.3398  0.0301 -0.1059
12109TIP3    H136270   0.475   4.287   0.026 -1.7077  1.2741 -0.9670
12109TIP3    H236271   0.589   4.376   0.071 -0.4748 -0.9639  0.4198
12110TIP3   OH236272   0.949   1.954   1.261 -0.0494  0.0622 -0.1779
12110TIP3    H136273   0.980   1.866   1.243 -0.9767 -0.2694 -0.1484
12110TIP3    H236274   0.857   1.953   1.237 -0.5203  0.5109  1.5263
12111TIP3   OH236275   2.787   7.167   6.590 -0.0250  0.6322 -0.4861
12111TIP3    H136276   2.761   7.165   6.682 -0.2807  2.9310 -0.4875
12111TIP3    H236277   2.868   7.116   6.587  1.9445  3.5246  1.6887
12112TIP3   OH236278   3.188   7.737   5.147  1.1129  0.4145 -0.5550
12112TIP3    H136279   3.179   7.786   5.065  1.7496 -0.0585 -0.9154
12112TIP3    H236280   3.207   7.647   5.119 -0.0984 -0.0495  0.0978
12113TIP3   OH236281   0.685   1.538   0.586  0.4959 -0.4456 -0.2046
12113TIP3    H136282   0.653   1.527   0.676  0.4325 -0.5125 -0.2346
12113TIP3    H236283   0.605   1.541   0.533  0.4846  0.8067 -0.1349
12114TIP3   OH236284   7.477   2.549   1.614 -0.4401  0.0630 -0.2475
12114TIP3    H136285   7.449   2.629   1.570 -0.7176  0.2215  0.2172
12114TIP3    H236286   7.556   2.522   1.567 -1.1492 -0.1777 -1.3225
12115TIP3   OH236287   1.550   4.426   4.560  0.2344 -0.5559 -0.1611
12115TIP3    H136288   1.538   4.504   4.614  1.3528 -0.1945 -0.4150
12115TIP3    H236289   1.533   4.353   4.619  0.9267 -0.1518  0.5536
12116TIP3   OH236290   1.735   5.300   4.212 -0.0188 -0.0104 -0.1926
12116TIP3    H136291   1.798   5.365   4.181  0.0101 -0.0207 -0.1558
12116TIP3    H236292   1.654   5.351   4.227  0.0818  0.0677  0.0987
12117TIP3   OH236293   2.590   6.999   5.986  0.0934  0.1860  0.1355
12117TIP3    H136294   2.574   6.999   6.081 -0.0410 -1.1843  0.1186
12117TIP3    H236295   2.507   6.969   5.948  0.7516 -1.0891 -0.2991
12118TIP3   OH236296   2.592   4.865   5.481 -0.3855 -0.1767  0.1173
12118TIP3    H136297   2.512   4.887   5.434 -0.7545  0.4077  1.0042
12118TIP3    H236298   2.574   4.779   5.519  0.4171 -1.2850 -1.9061
12119TIP3   OH236299   3.674   6.505   5.655  0.4636 -0.1450 -0.1918
12119TIP3    H136300   3.722   6.587   5.651 -1.1011  0.7263 -1.4521
12119TIP3    H236301   3.655   6.492   5.748 -0.1773  1.4508 -0.0915
12120TIP3   OH236302   2.862   5.771   6.581  0.3440  0.4381  0.4853
12120TIP3    H136303   2.958   5.770   6.578  0.3142 -0.3557 -0.4203
12120TIP3    H236304   2.840   5.860   6.610  1.3013  1.2236 -1.1539
12121TIP3   OH236305   2.359   5.334   5.781  0.1878  0.1553  0.0651
12121TIP3    H136306   2.405   5.260   5.820 -0.7506 -0.8704 -0.7257
12121TIP3    H236307   2.349   5.310   5.689 -2.3561  0.0907  0.3004
12122TIP3   OH236308   2.122   6.364   3.166  0.4095 -0.2037 -0.2647
12122TIP3    H136309   2.201   6.396   3.209  0.3238 -1.0334  0.5319
12122TIP3    H236310   2.096   6.286   3.217 -2.6115  1.7511  1.3639
12123TIP3   OH236311   7.374   2.765   0.714 -0.1293 -0.1687 -0.0207
12123TIP3    H136312   7.445   2.744   0.655 -0.7153 -1.0858 -0.4031
12123TIP3    H236313   7.383   2.859   0.730  0.3124 -0.0107 -1.1892
12124TIP3   OH236314   3.373   7.810   6.829  0.5384 -0.2068 -0.0993
12124TIP3    H136315   3.290   7.858   6.833  1.4448  1.6298 -2.3987
12124TIP3    H236316   3.423   7.844   6.902  0.0089  0.0977  0.1286
12125TIP3   OH236317   7.133   2.044   1.283 -0.7563  0.1460  0.2398
12125TIP3    H136318   7.187   2.041   1.363 -1.7438  0.5387  0.9308
12125TIP3    H236319   7.156   1.964   1.236  1.0564  0.7328  0.1172
12126TIP3   OH236320   1.365   6.663   4.498 -0.2633 -0.6290 -0.0529
12126TIP3    H136321   1.323   6.603   4.435 -0.7074 -1.2325  0.8066
12126TIP3    H236322   1.459   6.647   4.487  0.0022  2.8628 -4.1141
12127TIP3   OH236323   1.905   5.995   6.736  0.6593 -0.4388 -0.6491
12127TIP3    H136324   1.828   5.939   6.743  0.6077 -0.1677  1.4696
12127TIP3    H236325   1.943   5.994   6.824  1.8416  1.1594 -1.1127
12128TIP3   OH236326   2.942   5.678   4.310  0.0683 -0.3558  0.4114
12128TIP3    H136327   2.891   5.751   4.276 -0.4783 -0.9275 -0.0100
12128TIP3    H236328   3.033   5.706   4.301  0.0357 -1.0993 -3.1054
12129TIP3   OH236329   5.972   7.692   0.954  0.3944  0.6125 -0.0168
12129TIP3    H136330   6.026   7.619   0.924 -1.5056 -0.6649 -0.4745
12129TIP3    H236331   5.924   7.657   1.029  0.1069  1.6742  0.3098
12130TIP3   OH236332   2.710   6.103   5.288 -0.3318  0.2860  0.3609
12130TIP3    H136333   2.775   6.170   5.265  0.6801 -0.0643  2.1373
12130TIP3    H236334   2.724   6.033   5.223 -0.6994  1.3254 -0.8574
12131TIP3   OH236335   4.888   6.076   6.030 -0.0628 -0.1596 -0.4886
12131TIP3    H136336   4.921   6.003   5.979 -1.9311 -0.9124 -0.6561
12131TIP3    H236337   4.884   6.149   5.968 -2.8220 -1.2013 -1.6177
12132TIP3   OH236338   2.322   4.780   5.956  0.3519  0.3299  0.2914
12132TIP3    H136339   2.366   4.835   6.021 -0.2135 -0.3843  1.2863
12132TIP3    H236340   2.268   4.720   6.007 -1.1382  0.6348 -0.8845
12133TIP3   OH236341   7.572   2.586   0.025  0.5374 -0.1901 -0.3629
12133TIP3    H136342   7.640   2.522   0.049 -0.4403 -1.1815 -0.2225
12133TIP3    H236343   7.508   2.579   0.096 -0.1029  0.1685 -0.9158
12134TIP3   OH236344   4.059   6.747   4.289  0.2955 -0.7072 -0.1483
12134TIP3    H136345   4.111   6.674   4.255 -0.3751 -1.5359  0.5801
12134TIP3    H236346   3.981   6.705   4.327 -0.3251  0.4279 -0.1610
12135TIP3   OH236347   1.825   7.270   2.513  0.0970 -0.3799  0.5482
12135TIP3    H136348   1.843   7.229   2.428  0.0673  2.0889 -0.7069
12135TIP3    H236349   1.730   7.264   2.523  0.1342 -0.9854  0.5960
12136TIP3   OH236350   8.532   1.538   0.448  0.0399 -0.9717 -0.7450
12136TIP3    H136351   8.470   1.480   0.493 -0.3315  0.4849  0.6755
12136TIP3    H236352   8.483   1.574   0.374 -1.0809  0.7294  0.7889
12137TIP3   OH236353   4.396   7.091   5.452 -0.5445 -0.6893  0.3722
12137TIP3    H136354   4.395   7.014   5.395 -0.0073 -0.3666 -0.0818
12137TIP3    H236355   4.448   7.156   5.404  0.8483 -0.7700  1.6977
12138TIP3   OH236356   4.977   4.585   6.670  0.3503 -0.2524  0.0863
12138TIP3    H136357   5.044   4.648   6.695 -0.2116  1.1492 -1.8503
12138TIP3    H236358   4.961   4.534   6.750  2.9266  0.0856  0.8714
12139TIP3   OH236359   3.009   5.563   5.124  0.2231  0.1807 -0.3907
12139TIP3    H136360   3.054   5.503   5.063 -1.1103  0.1866 -1.4015
12139TIP3    H236361   3.045   5.649   5.103  1.5338 -0.1466  0.4903
12140TIP3   OH236362   2.582   4.935   4.216  0.5209 -0.0291  0.0073
12140TIP3    H136363   2.526   4.859   4.232 -0.2103  0.5145  0.0393
12140TIP3    H236364   2.559   4.997   4.286  0.8386  0.3760 -0.2469
12141TIP3   OH236365   3.189   5.782   4.977 -0.3659  0.2079  1.0462
12141TIP3    H136366   3.140   5.730   4.912  0.6214  0.2003  0.2893
12141TIP3    H236367   3.277   5.743   4.977 -0.8268 -0.9277  3.7023
12142TIP3   OH236368   3.963   6.969   0.100 -0.1751  0.6592 -0.0009
12142TIP3    H136369   3.993   6.972   0.009 -0.0256 -0.7266 -0.0112
12142TIP3    H236370   4.004   6.891   0.136  0.9201  1.9850  1.6882
12143TIP3   OH236371   4.399   7.629   5.706 -0.1102  0.3069  0.4333
12143TIP3    H136372   4.444   7.569   5.767  0.3928  1.2772  1.0273
12143TIP3    H236373   4.359   7.695   5.763  0.7499  1.4866 -0.3303
12144TIP3   OH236374   7.475   2.866   1.027 -0.3961  0.2114 -0.1109
12144TIP3    H136375   7.454   2.941   1.083 -0.1420  0.2991 -0.1340
12144TIP3    H236376   7.390   2.829   1.004 -0.4738 -0.8236  1.7167
12145TIP3   OH236377   5.824   0.662   6.792 -0.5176  0.4968 -0.2801
12145TIP3    H136378   5.857   0.746   6.823 -1.2005  0.5572  0.2772
12145TIP3    H236379   5.901   0.605   6.792  0.2078  1.4443 -1.8365
12146TIP3   OH236380   3.894   7.730   3.345  0.0215 -0.3761  0.2604
12146TIP3    H136381   3.828   7.790   3.310  0.8996 -1.3009 -3.1647
12146TIP3    H236382   3.950   7.784   3.400 -1.4383  1.1527  0.2779
12147TIP3   OH236383   7.872   2.476   0.273  0.3971 -0.6495 -0.2467
12147TIP3    H136384   7.846   2.445   0.186  0.9136 -0.2527 -0.5453
12147TIP3    H236385   7.921   2.404   0.311  0.5322 -0.6667 -0.4538
12148TIP3   OH236386   6.327   0.540   5.720  0.6533 -0.3105  1.0654
12148TIP3    H136387   6.323   0.635   5.720  0.5609 -0.3131  1.9764
12148TIP3    H236388   6.302   0.515   5.631 -0.3012  0.4759  1.1096
12149TIP3   OH236389   3.214   7.988   1.815  0.0094 -0.0933 -0.0506
12149TIP3    H136390   3.295   8.038   1.813 -0.7703  1.1632 -2.2618
12149TIP3    H236391   3.241   7.898   1.828  1.5338  0.6729  2.4383
12150TIP3   OH236392   1.108   4.606   5.245 -0.1611 -0.4979 -0.0415
12150TIP3    H136393   1.097   4.586   5.338 -1.3999 -1.3140 -0.3462
12150TIP3    H236394   1.020   4.629   5.214  0.8637  3.5485 -0.1918
12151TIP3   OH236395   7.200   1.583   1.782 -0.2536 -0.4310 -0.2530
12151TIP3    H136396   7.222   1.677   1.781  3.5367 -1.2496 -0.4498
12151TIP3    H236397   7.205   1.559   1.875  1.0923 -0.9226 -0.4467
12152TIP3   OH236398   3.043   7.486   4.407  0.4088  0.1229  0.1699
12152TIP3    H136399   2.949   7.491   4.419  0.2572  0.0497 -1.0141
12152TIP3    H236400   3.061   7.543   4.333  1.4846  1.3728  1.3581
12153TIP3   OH236401   3.048   6.220   5.516 -0.0811 -0.7103  0.1806
12153TIP3    H136402   3.003   6.300   5.490  0.1093 -0.3483  0.9538
12153TIP3    H236403   2.993   6.183   5.585 -0.0950 -1.1695 -0.0787
12154TIP3   OH236404   0.018   2.790   0.405  0.0391 -0.0564 -0.2471
12154TIP3    H136405   0.059   2.846   0.339  0.3151  0.2078  0.1530
12154TIP3    H236406   0.091   2.745   0.448 -0.0333  1.0041  1.0006
12155TIP3   OH236407   1.325   5.542   4.450  0.5549 -0.5398 -0.0338
12155TIP3    H136408   1.261   5.598   4.495  1.4533 -1.2190  2.1537
12155TIP3    H236409   1.272   5.481   4.399 -0.5680 -1.2064  1.8794
12156TIP3   OH236410   1.058   2.709   1.005 -0.5056 -0.1544 -0.2505
12156TIP3    H136411   1.061   2.637   1.068  0.2311  1.3248  1.4343
12156TIP3    H236412   0.974   2.752   1.021  0.6102  1.5169  1.2065
12157TIP3   OH236413   3.349   5.494   5.281  0.2215  0.0025 -0.7247
12157TIP3    H136414   3.358   5.586   5.259  1.6999 -0.2499 -1.2533
12157TIP3    H236415   3.329   5.451   5.198 -1.4138 -0.0509 -0.3239
12158TIP3   OH236416   1.117   1.638   0.466  0.2070 -0.1875  0.6194
12158TIP3    H136417   1.046   1.668   0.522  0.2286 -0.7285  0.9321
12158TIP3    H236418   1.184   1.706   0.475  0.0306 -0.0465  0.8904
12159TIP3   OH236419   3.558   5.053   3.670  0.4262 -0.1377 -0.9012
12159TIP3    H136420   3.596   5.113   3.735  0.7443 -1.6796  0.3483
12159TIP3    H236421   3.523   4.981   3.722 -1.6060 -0.1617 -2.2720
12160TIP3   OH236422   8.276   1.445   0.583  0.0248 -0.1202 -0.1027
12160TIP3    H136423   8.219   1.461   0.659 -1.6154  0.0851 -1.3464
12160TIP3    H236424   8.269   1.351   0.567  1.1260 -0.3291  0.5621
12161TIP3   OH236425   0.631   2.559   0.753  0.5428  0.1237 -0.1005
12161TIP3    H136426   0.547   2.594   0.723  0.9135  1.1845  0.0757
12161TIP3    H236427   0.611   2.515   0.835  0.3490  1.4287  0.5728
12162TIP3   OH236428   2.884   7.384   5.099  0.0096 -0.8029  0.0936
12162TIP3    H136429   2.950   7.349   5.158  0.8803 -0.3991 -0.6241
12162TIP3    H236430   2.883   7.478   5.118 -1.3812 -1.0120  1.0987
12163TIP3   OH236431   0.201   3.008   0.343  0.0865 -0.0010 -0.0805
12163TIP3    H136432   0.266   3.072   0.370  0.4261 -0.3890  0.0360
12163TIP3    H236433   0.240   2.965   0.266  0.5354 -1.1069  0.7481
12164TIP3   OH236434   6.699   0.180   6.841 -0.4746  0.2781 -0.5759
12164TIP3    H136435   6.675   0.242   6.909  0.3029  0.0191 -0.0584
12164TIP3    H236436   6.694   0.230   6.760 -0.9102  0.7229 -0.2750
12165TIP3   OH236437   3.023   5.820   6.305  0.2815 -0.2279  0.2122
12165TIP3    H136438   3.032   5.888   6.238  0.9162 -1.0450 -0.5463
12165TIP3    H236439   3.055   5.861   6.385 -2.8029  1.5764  0.5743
12166TIP3   OH236440   7.934   2.853   2.311  0.0638  0.2020 -0.0956
12166TIP3    H136441   8.027   2.871   2.298 -0.3060  1.5996 -0.8384
12166TIP3    H236442   7.919   2.872   2.404  0.5678 -0.3202  0.1016
12167TIP3   OH236443   1.207   2.369   0.965  0.1170 -0.0575 -0.1084
12167TIP3    H136444   1.255   2.328   1.036  1.5888  0.0076 -1.0339
12167TIP3    H236445   1.270   2.430   0.925 -0.5823 -0.2825 -1.6171
12168TIP3   OH236446   3.742   6.294   6.942 -0.1783 -0.1236  0.8141
12168TIP3    H136447   3.822   6.261   6.901 -0.7034  0.3389 -0.5779
12168TIP3    H236448   3.683   6.312   6.870 -0.6923  1.8326  1.6959
12169TIP3   OH236449   6.498   1.288   2.422 -0.1531 -0.7372  0.4536
12169TIP3    H136450   6.464   1.290   2.512  0.5156  0.1393  0.6989
12169TIP3    H236451   6.447   1.221   2.378 -0.3115 -1.3561  1.5734
12170TIP3   OH236452   7.805   1.635   3.063  0.0201 -0.0994 -0.4791
12170TIP3    H136453   7.830   1.723   3.034  1.6647 -0.0249  1.0425
12170TIP3    H236454   7.855   1.576   3.008  0.4540 -0.0321 -0.1599
12171TIP3   OH236455   7.288   1.141   2.611  0.4826 -0.0072  0.3503
12171TIP3    H136456   7.209   1.104   2.650  0.9260 -2.5617 -1.0663
12171TIP3    H236457   7.293   1.230   2.646 -2.9274  0.1511  0.5550
12172TIP3   OH236458   3.219   3.706   6.751  0.2634 -0.2386 -0.0636
12172TIP3    H136459   3.218   3.686   6.657 -0.6123 -0.4605 -0.0097
12172TIP3    H236460   3.129   3.729   6.772  0.4138 -0.3973  0.7763
12173TIP3   OH236461   1.057   5.093   3.243 -0.2952 -0.7555 -0.2836
12173TIP3    H136462   0.988   5.026   3.243  0.8193 -1.9163  0.6686
12173TIP3    H236463   1.059   5.124   3.333 -0.9959  0.7824 -0.7828
12174TIP3   OH236464   1.385   7.191   5.184  0.1985  0.4136 -0.0858
12174TIP3    H136465   1.367   7.101   5.158 -1.7880  0.9528 -0.6820
12174TIP3    H236466   1.459   7.217   5.130  1.2827 -1.0811  0.6254
12175TIP3   OH236467   2.502   6.534   5.936  0.1770 -0.0081 -0.0140
12175TIP3    H136468   2.450   6.461   5.969  0.7800 -1.8783 -3.1005
12175TIP3    H236469   2.590   6.518   5.969 -0.2789  0.9599  1.7601
12176TIP3   OH236470   1.292   3.727   6.177  1.1282 -0.0962  0.3469
12176TIP3    H136471   1.229   3.656   6.162  3.3857 -1.9003 -1.0033
12176TIP3    H236472   1.322   3.713   6.267 -1.2092  1.4941  1.4230
12177TIP3   OH236473   2.817   6.688   4.373 -0.1605  0.5846 -0.0324
12177TIP3    H136474   2.848   6.602   4.348 -2.0128 -0.3003  0.6448
12177TIP3    H236475   2.894   6.731   4.412  0.6955 -0.8417 -0.1362
12178TIP3   OH236476   4.548   6.784   6.701  0.3356  0.6943 -0.4731
12178TIP3    H136477   4.560   6.805   6.608 -2.7135 -3.0592 -1.8696
12178TIP3    H236478   4.463   6.821   6.723  1.2227  1.8979  0.9512
12179TIP3   OH236479   8.335   3.424   1.290  0.5152  0.7884  0.1047
12179TIP3    H136480   8.430   3.416   1.302  0.4616  0.5517  0.3737
12179TIP3    H236481   8.300   3.427   1.379  0.0856 -1.3241  0.0276
12180TIP3   OH236482   0.866   1.141   0.136 -0.3171 -0.2832  0.1386
12180TIP3    H136483   0.786   1.193   0.141  0.6648  1.4037 -1.1083
12180TIP3    H236484   0.936   1.202   0.161  0.6939 -1.4659  0.2532
12181TIP3   OH236485   6.557   0.421   6.499  0.3373  0.3307  0.0765
12181TIP3    H136486   6.642   0.390   6.469 -0.0466 -0.5739 -0.0864
12181TIP3    H236487   6.566   0.428   6.594  0.3030 -0.6792  0.1592
12182TIP3   OH236488   2.818   6.067   6.635  0.5159  0.3151 -0.0806
12182TIP3    H136489   2.749   6.081   6.700 -0.3272 -1.2928 -0.6028
12182TIP3    H236490   2.773   6.070   6.551  1.0649 -0.8354 -0.4209
12183TIP3   OH236491   1.354   6.774   3.636 -0.0161 -0.2347  0.0464
12183TIP3    H136492   1.361   6.851   3.580  1.1688 -0.0133  0.4771
12183TIP3    H236493   1.295   6.800   3.706 -2.0268 -0.7208 -1.4011
12184TIP3   OH236494   3.013   7.006   6.311  0.9532  0.3452  0.4182
12184TIP3    H136495   2.954   7.074   6.343  1.8257  0.8457  0.9672
12184TIP3    H236496   2.984   6.990   6.221 -3.3293 -3.0663  2.2091
12185TIP3   OH236497   2.308   3.939   5.682  0.2184  0.2555 -0.3194
12185TIP3    H136498   2.303   3.959   5.776 -0.2362  2.5199 -0.8122
12185TIP3    H236499   2.262   3.855   5.674 -0.9771  0.7183  1.2883
12186TIP3   OH236500   0.128   1.861   0.647 -0.7775  0.3143  0.1020
12186TIP3    H136501   0.171   1.776   0.641 -1.8601 -0.2014 -0.5272
12186TIP3    H236502   0.069   1.852   0.722 -1.0090  0.4634 -0.0646
12187TIP3   OH236503   1.294   5.398   5.057 -0.0123  0.5347  0.4654
12187TIP3    H136504   1.233   5.471   5.058  0.7527  1.1894 -0.5114
12187TIP3    H236505   1.263   5.342   4.985 -0.3101  0.1248  0.9018
12188TIP3   OH236506   5.467   7.749   5.088  0.5250  0.0043 -0.0063
12188TIP3    H136507   5.511   7.690   5.027 -1.8346 -0.5191 -1.2778
12188TIP3    H236508   5.418   7.691   5.146  1.3851  0.5777  1.3198
12189TIP3   OH236509   1.801   3.415   1.360  0.1095  0.1040 -0.3699
12189TIP3    H136510   1.762   3.408   1.273  1.1660  0.3576 -0.8740
12189TIP3    H236511   1.759   3.347   1.412  0.7078 -1.1884 -1.5545
12190TIP3   OH236512   5.048   5.444   5.388  0.9340 -0.5593  0.0131
12190TIP3    H136513   5.009   5.512   5.442  1.4314 -0.2617  0.0042
12190TIP3    H236514   5.083   5.491   5.312  0.5677 -0.9246 -0.3840
12191TIP3   OH236515   3.429   5.840   4.305  0.1907  0.3557 -0.2996
12191TIP3    H136516   3.427   5.898   4.381 -1.0259 -0.0411 -0.0137
12191TIP3    H236517   3.519   5.808   4.301  0.3699  0.7249  0.7110
12192TIP3   OH236518   5.547   5.753   6.371  0.1539  0.4120 -0.0358
12192TIP3    H136519   5.563   5.827   6.430  1.1195  0.5004 -0.3992
12192TIP3    H236520   5.625   5.699   6.379  0.5403  0.7114 -1.6513
12193TIP3   OH236521   5.636   7.638   6.436  0.0045  0.2785 -0.2756
12193TIP3    H136522   5.713   7.674   6.480 -1.9714  0.9698  2.7931
12193TIP3    H236523   5.653   7.544   6.432  1.3832  0.5218 -0.4598
12194TIP3   OH236524   1.689   5.778   6.804 -0.3325 -0.5245 -0.2442
12194TIP3    H136525   1.626   5.797   6.872  1.1348 -2.6507  1.7964
12194TIP3    H236526   1.643   5.718   6.745 -1.1274  0.1563 -0.3210
12195TIP3   OH236527   1.445   2.421   0.294  0.2770 -0.4547  0.5633
12195TIP3    H136528   1.385   2.360   0.253 -2.2027  1.6695  0.9233
12195TIP3    H236529   1.474   2.376   0.374 -2.5820 -0.6338  1.5458
12196TIP3   OH236530   1.777   1.497   0.669  0.3923  0.1811  0.6288
12196TIP3    H136531   1.685   1.472   0.666  0.1713  0.9195  1.0418
12196TIP3    H236532   1.822   1.430   0.619 -0.4222  0.0511  0.0640
12197TIP3   OH236533   5.623   0.656   0.915  0.6853 -0.4940  0.2947
12197TIP3    H136534   5.643   0.563   0.906  2.2292 -0.3002  1.3574
12197TIP3    H236535   5.595   0.665   1.006  0.5508  0.0767  0.1958
12198TIP3   OH236536   7.457   3.040   0.701  0.1651  0.1931  0.3437
12198TIP3    H136537   7.409   3.119   0.676  0.8660 -0.0693 -1.9607
12198TIP3    H236538   7.518   3.068   0.769 -0.9812  1.1970  0.9777
12199TIP3   OH236539   0.471   2.382   2.269 -0.4905 -0.6190  0.2822
12199TIP3    H136540   0.393   2.351   2.224  0.3547 -0.4979 -1.3289
12199TIP3    H236541   0.449   2.471   2.297 -1.0120 -0.6762  0.0518
12200TIP3   OH236542   3.872   6.691   6.051 -0.1339  0.2307 -0.1174
12200TIP3    H136543   3.865   6.786   6.061  2.1568  0.3773  0.3102
12200TIP3    H236544   3.940   6.678   5.985 -0.0758 -1.1115  0.1915
12201TIP3   OH236545   4.579   4.443   5.870  0.3703  0.4783 -0.4855
12201TIP3    H136546   4.534   4.486   5.798  0.2452  2.0256  0.4860
12201TIP3    H236547   4.515   4.440   5.941  1.2471  1.1696  0.3547
12202TIP3   OH236548   5.772   0.599   6.485 -0.1293  0.6877  0.2986
12202TIP3    H136549   5.797   0.507   6.483 -3.5534 -0.2890 -0.2424
12202TIP3    H236550   5.716   0.607   6.562 -0.6313  2.1069 -0.1949
12203TIP3   OH236551   0.187   1.820   2.788 -0.9001 -0.5202  0.2707
12203TIP3    H136552   0.159   1.758   2.721 -0.6553 -0.2692 -0.0669
12203TIP3    H236553   0.218   1.766   2.860  0.3587 -0.7928 -0.4589
12204TIP3   OH236554   6.428   1.300   0.880  0.1697  0.2346  0.3672
12204TIP3    H136555   6.352   1.324   0.933 -0.3815 -1.0436  0.1562
12204TIP3    H236556   6.407   1.214   0.845  1.5448  0.0476 -0.0194
12205TIP3   OH236557   7.993   1.750   0.203  0.3519  0.0443 -0.1706
12205TIP3    H136558   8.065   1.754   0.140  0.3597  0.3283 -0.1425
12205TIP3    H236559   8.029   1.699   0.276  1.7997  3.2888  1.5023
12206TIP3   OH236560   7.397   3.823   0.511  0.1224 -0.3339  0.6248
12206TIP3    H136561   7.398   3.808   0.416 -0.0608 -0.5760  0.6612
12206TIP3    H236562   7.394   3.918   0.520  0.6538 -0.2915  0.3912
12207TIP3   OH236563   0.614   1.993   0.746  0.3002  0.1663 -0.1672
12207TIP3    H136564   0.610   2.062   0.679  1.6968  1.4305  1.0097
12207TIP3    H236565   0.559   1.923   0.711  0.1112  1.2419 -2.1291
12208TIP3   OH236566   0.673   1.853   2.043  0.5160  0.0541  0.6601
12208TIP3    H136567   0.683   1.760   2.025  0.3373  0.1526  0.0200
12208TIP3    H236568   0.708   1.865   2.131 -0.6250 -0.8408  1.2571
12209TIP3   OH236569   7.149   3.470   2.085  0.0440  0.2754  0.1879
12209TIP3    H136570   7.212   3.449   2.017  0.5013  1.0677  0.3602
12209TIP3    H236571   7.142   3.390   2.137 -0.9326 -0.6101 -1.2551
12210TIP3   OH236572   0.893   5.260   4.428  0.7766  0.6517 -0.3534
12210TIP3    H136573   0.800   5.268   4.451  0.4188  1.6625 -2.0325
12210TIP3    H236574   0.903   5.168   4.403  0.1561  0.5945 -0.3992
12211TIP3   OH236575   3.928   3.609   6.903  0.3435  0.4112  0.1327
12211TIP3    H136576   3.984   3.663   6.958  0.1911 -0.1779  0.8813
12211TIP3    H236577   3.925   3.524   6.947 -3.3022  1.1822  1.6063
12212TIP3   OH236578   4.155   4.294   6.764  0.5661  0.1128 -0.1734
12212TIP3    H136579   4.240   4.329   6.739  0.6138 -0.6941 -1.1634
12212TIP3    H236580   4.113   4.366   6.811  1.2779  0.9618 -0.8201
12213TIP3   OH236581   4.600   0.479   4.043  0.2409  0.0216 -0.1577
12213TIP3    H136582   4.688   0.447   4.022  0.2036 -0.7481  0.8210
12213TIP3    H236583   4.599   0.569   4.011  1.7441  0.3996  0.8014
12214TIP3   OH236584   4.819   1.332   0.435 -0.0335  0.1663 -0.3629
12214TIP3    H136585   4.891   1.392   0.456  1.4225 -1.1755 -1.3581
12214TIP3    H236586   4.854   1.245   0.455 -1.1805 -0.5511 -1.4328
12215TIP3   OH236587   0.413   5.696   4.035 -0.1058  0.4748  0.1062
12215TIP3    H136588   0.384   5.712   4.124 -0.6428  0.7699 -0.1261
12215TIP3    H236589   0.509   5.704   4.040 -0.0754 -0.2091  0.7969
12216TIP3   OH236590   2.247   7.690   4.144  0.1664  0.6173  0.0369
12216TIP3    H136591   2.341   7.686   4.127 -0.1512 -0.8243 -1.4240
12216TIP3    H236592   2.235   7.773   4.191  2.2265  0.5654  0.6858
12217TIP3   OH236593   1.178   3.810   0.615 -0.1328  0.4008 -0.1116
12217TIP3    H136594   1.140   3.898   0.618 -0.3238  0.3605 -1.3248
12217TIP3    H236595   1.183   3.788   0.522  2.3127  0.1575  0.0584
12218TIP3   OH236596   3.710   5.450   6.883  0.4590  0.5814 -0.5480
12218TIP3    H136597   3.693   5.372   6.829 -0.0111  0.1899  0.1661
12218TIP3    H236598   3.780   5.495   6.836  0.4044 -0.0157 -1.2316
12219TIP3   OH236599   3.384   7.009   4.743  0.4233  0.5190  0.3341
12219TIP3    H136600   3.399   6.915   4.759  2.2389  0.7471  0.0820
12219TIP3    H236601   3.423   7.052   4.819  0.4827  1.1202 -0.0411
12220TIP3   OH236602   2.396   5.622   5.063  0.5902  0.0680 -0.4770
12220TIP3    H136603   2.488   5.648   5.072  1.1999 -1.8321 -0.8709
12220TIP3    H236604   2.377   5.631   4.970  0.6009 -0.2569 -0.5105
12221TIP3   OH236605   7.102   0.368   1.086 -0.1040  0.0063 -0.1101
12221TIP3    H136606   7.188   0.357   1.046  0.2017 -0.3858  0.6439
12221TIP3    H236607   7.043   0.384   1.013  1.2517  4.3196 -0.4366
12222TIP3   OH236608   5.857   1.416   0.314 -0.1340  0.2449 -0.5581
12222TIP3    H136609   5.794   1.345   0.325 -2.4521  2.5238  1.7364
12222TIP3    H236610   5.930   1.394   0.373 -0.3277 -0.7496 -0.6894
12223TIP3   OH236611   0.603   0.904   0.354  0.0076 -0.1064 -0.1511
12223TIP3    H136612   0.565   0.857   0.428  1.0098 -1.2937 -0.3764
12223TIP3    H236613   0.593   0.997   0.377 -1.2179 -0.4288  0.6868
12224TIP3   OH236614   2.443   5.013   5.293  0.3156 -0.6837 -0.7037
12224TIP3    H136615   2.399   4.987   5.212  1.9700 -0.6438 -1.6161
12224TIP3    H236616   2.431   5.108   5.297 -1.0939 -0.8646 -0.0907
12225TIP3   OH236617   2.198   6.081   4.851  0.3882  0.1937  1.0563
12225TIP3    H136618   2.289   6.081   4.882  0.4925 -1.4781  0.7839
12225TIP3    H236619   2.194   6.155   4.791  1.5920  0.2802  1.0599
12226TIP3   OH236620   2.531   4.391   3.801 -0.3322  0.2876 -0.1015
12226TIP3    H136621   2.542   4.344   3.718 -2.3412 -1.0620  0.3754
12226TIP3    H236622   2.585   4.342   3.863 -2.9262 -1.8882  0.5464
12227TIP3   OH236623   3.572   5.664   6.401  0.5644  0.2562 -0.0508
12227TIP3    H136624   3.628   5.741   6.394 -0.4498  0.7628 -3.5811
12227TIP3    H236625   3.488   5.698   6.433  1.0261  0.1022  1.3715
12228TIP3   OH236626   8.447   4.596   2.934 -0.0264 -0.2991 -0.3135
12228TIP3    H136627   8.416   4.589   2.843 -0.0329 -1.7154 -0.2156
12228TIP3    H236628   8.384   4.652   2.977 -0.1967  0.1282 -1.1194
12229TIP3   OH236629   8.384   1.997   0.166 -0.6344 -0.5528 -0.1071
12229TIP3    H136630   8.448   1.977   0.234 -0.2666 -2.1356 -0.9126
12229TIP3    H236631   8.414   2.080   0.128 -0.8344  0.3324  1.6280
12230TIP3   OH236632   6.719   1.600   1.693 -0.1336 -0.4103  0.1503
12230TIP3    H136633   6.677   1.520   1.660 -0.2174  1.1969 -4.0266
12230TIP3    H236634   6.647   1.663   1.698  0.8528  0.9908 -2.3578
12231TIP3   OH236635   6.732   7.263   0.738 -0.3768 -0.1231 -0.6425
12231TIP3    H136636   6.780   7.287   0.817  0.6260  0.0475 -1.2981
12231TIP3    H236637   6.660   7.326   0.734 -0.1919  0.1284 -0.0927
12232TIP3   OH236638   1.610   5.448   6.059  0.4819 -0.1313 -0.2478
12232TIP3    H136639   1.561   5.392   5.999 -0.0166 -0.7052  0.6845
12232TIP3    H236640   1.667   5.499   6.002 -1.4315  0.7946 -1.3809
12233TIP3   OH236641   1.047   0.653   2.163 -0.0778 -0.1758 -0.0488
12233TIP3    H136642   1.083   0.593   2.229 -0.9630 -0.6307  0.0261
12233TIP3    H236643   0.962   0.615   2.140 -0.2189  0.5340 -0.7083
12234TIP3   OH236644   6.246   7.616   5.815  0.2708 -0.4028  0.9429
12234TIP3    H136645   6.320   7.622   5.877 -0.7255  2.6742  1.9550
12234TIP3    H236646   6.170   7.642   5.867 -0.8442  0.6881 -1.1752
12235TIP3   OH236647   4.842   6.891   6.122  0.5743  0.0004 -0.4824
12235TIP3    H136648   4.919   6.939   6.153  0.2269  0.7776 -0.8196
12235TIP3    H236649   4.877   6.831   6.057  1.0202 -0.2484 -0.0193
12236TIP3   OH236650   4.353   4.489   6.793  1.0398  0.5454 -0.3580
12236TIP3    H136651   4.402   4.563   6.756  0.3222  1.0445 -0.3119
12236TIP3    H236652   4.367   4.496   6.887 -2.6952  3.3083  0.0992
12237TIP3   OH236653   2.527   4.013   6.078  0.3036  0.8965 -0.0127
12237TIP3    H136654   2.586   4.066   6.024  0.5712  0.1753 -0.4339
12237TIP3    H236655   2.440   4.042   6.052  0.4711  2.5031  1.1524
12238TIP3   OH236656   7.485   1.295   4.747 -0.2643 -0.3722 -0.5170
12238TIP3    H136657   7.414   1.279   4.810  0.0371  2.3241  0.5975
12238TIP3    H236658   7.564   1.266   4.792 -0.4181 -1.5817 -1.0053
12239TIP3   OH236659   3.100   7.607   4.147 -0.4513  0.5870 -0.2250
12239TIP3    H136660   3.189   7.576   4.131 -0.5815  0.1464 -0.0993
12239TIP3    H236661   3.111   7.700   4.169  0.0953  0.2155  1.0855
12240TIP3   OH236662   0.873   1.685   0.826 -0.0098 -0.1041  0.2860
12240TIP3    H136663   0.851   1.771   0.861  1.9307 -0.0312  1.4613
12240TIP3    H236664   0.795   1.631   0.842 -0.7641  1.1033  0.7119
12241TIP3   OH236665   3.485   4.706   6.129  0.3208 -0.3502 -0.1063
12241TIP3    H136666   3.469   4.743   6.042  2.3561 -1.3491 -0.9207
12241TIP3    H236667   3.579   4.689   6.131  0.1159 -1.3340  1.9104
12242TIP3   OH236668   7.812   0.497   4.309 -0.1714  0.3752 -0.2895
12242TIP3    H136669   7.723   0.511   4.275 -0.5077 -0.2342  0.3204
12242TIP3    H236670   7.810   0.536   4.396 -0.4459 -1.4279  0.5273
12243TIP3   OH236671   6.448   7.006   0.971 -0.3215 -0.2392 -0.2105
12243TIP3    H136672   6.538   7.002   1.003  0.3772  1.6519 -1.8604
12243TIP3    H236673   6.417   6.915   0.974  1.8306 -0.9865 -0.2137
12244TIP3   OH236674   2.337   2.813   2.257  0.0260  0.0734  0.1934
12244TIP3    H136675   2.275   2.768   2.200 -0.3172  0.1329  0.5145
12244TIP3    H236676   2.350   2.753   2.331  2.0285 -0.8963 -0.9180
12245TIP3   OH236677   3.730   5.084   4.703 -0.5785  0.2956 -0.0326
12245TIP3    H136678   3.732   5.006   4.758 -1.3173  1.1906  1.2863
12245TIP3    H236679   3.822   5.102   4.684 -0.4023 -0.9018 -0.3687
12246TIP3   OH236680   1.592   2.285   0.859  0.4310  0.0874  0.1998
12246TIP3    H136681   1.589   2.363   0.804  0.8471  0.2308  0.3808
12246TIP3    H236682   1.585   2.318   0.948 -1.9080 -0.2594  0.1797
12247TIP3   OH236683   2.976   7.366   6.057  0.8303  0.5704 -0.0069
12247TIP3    H136684   2.883   7.384   6.038  0.8576 -0.7539 -1.4967
12247TIP3    H236685   2.996   7.422   6.132 -0.7465  2.0652 -0.6610
12248TIP3   OH236686   1.642   2.687   1.530 -0.1846  0.3136 -0.2276
12248TIP3    H136687   1.695   2.743   1.474 -0.1243  0.5461  0.0596
12248TIP3    H236688   1.670   2.710   1.619 -0.1667 -0.1631 -0.1114
12249TIP3   OH236689   0.703   3.194   0.486  0.5090  0.4694  0.0754
12249TIP3    H136690   0.622   3.190   0.537 -0.3040 -0.1846 -1.2211
12249TIP3    H236691   0.730   3.103   0.476  0.8317  0.6101 -0.3772
12250TIP3   OH236692   0.812   1.568   1.506  0.6209 -0.0553  1.1345
12250TIP3    H136693   0.795   1.663   1.510 -0.4538 -0.2436  1.2346
12250TIP3    H236694   0.749   1.530   1.567  0.6428 -0.8922  0.6444
12251TIP3   OH236695   3.712   6.412   5.930  0.1628  0.2056 -0.0950
12251TIP3    H136696   3.685   6.320   5.926  0.4246 -0.0824  3.2961
12251TIP3    H236697   3.797   6.410   5.975  0.8506  1.9989 -1.2823
12252TIP3   OH236698   3.948   6.423   6.036  0.2198  0.4050 -0.0792
12252TIP3    H136699   4.038   6.425   6.068  0.2167 -0.0654 -0.0422
12252TIP3    H236700   3.916   6.513   6.048  1.3195  1.0706 -1.9174
12253TIP3   OH236701   5.652   6.288   4.495 -0.4261 -0.1089  0.1847
12253TIP3    H136702   5.653   6.194   4.510 -2.2140 -0.2107 -0.2125
12253TIP3    H236703   5.739   6.318   4.522 -0.3945 -1.6282  1.8250
12254TIP3   OH236704   3.271   7.715   5.672  0.6300  0.0981  0.4860
12254TIP3    H136705   3.293   7.627   5.642 -0.5753 -0.0844  0.1163
12254TIP3    H236706   3.295   7.715   5.765  2.0781 -0.1109  0.1335
12255TIP3   OH236707   0.958   2.941   0.500  0.3458  0.4060  0.2550
12255TIP3    H136708   1.042   2.929   0.457  0.7486  0.2758  1.0672
12255TIP3    H236709   0.922   2.853   0.508 -0.8950  0.6584 -2.0983
12256TIP3   OH236710   1.128   2.531   1.248  0.0547 -0.3468 -0.1323
12256TIP3    H136711   1.191   2.463   1.224 -0.1945 -0.5135 -0.3217
12256TIP3    H236712   1.106   2.513   1.339 -1.0551 -1.3529 -0.5897
12257TIP3   OH236713   3.864   0.793   3.463 -0.0707 -0.0882  0.1033
12257TIP3    H136714   3.885   0.706   3.497 -0.3702 -0.0980  0.2643
12257TIP3    H236715   3.854   0.780   3.369  0.0508 -0.1959  0.1052
12258TIP3   OH236716   2.661   2.427   0.892  0.0289  0.4598 -0.1102
12258TIP3    H136717   2.668   2.358   0.958  0.5270 -0.3326 -0.9793
12258TIP3    H236718   2.571   2.459   0.902 -0.2877 -0.4731  0.1502
12259TIP3   OH236719   5.710   6.255   5.232  0.0301  0.0874 -0.7063
12259TIP3    H136720   5.794   6.274   5.275  0.0361 -0.5166 -0.4378
12259TIP3    H236721   5.708   6.314   5.156  1.4045 -0.9620 -1.5940
12260TIP3   OH236722   4.121   7.301   6.358  0.1639 -0.3876 -0.1553
12260TIP3    H136723   4.194   7.358   6.383  0.5342 -0.5629 -0.8379
12260TIP3    H236724   4.144   7.268   6.271  0.3154 -2.1732  0.5402
12261TIP3   OH236725   4.859   6.531   5.283  0.1312 -0.0746 -0.0356
12261TIP3    H136726   4.912   6.482   5.346 -0.7732 -1.6331 -0.4608
12261TIP3    H236727   4.775   6.485   5.281 -0.4446  0.9916 -1.0870
12262TIP3   OH236728   3.966   7.446   6.882  0.2612 -0.1615 -0.1458
12262TIP3    H136729   3.901   7.393   6.928 -1.8514  0.7872 -1.9698
12262TIP3    H236730   4.047   7.395   6.888 -0.6559 -1.4280  2.0416
12263TIP3   OH236731   2.946   7.891   3.882  0.0692 -0.1948 -0.3124
12263TIP3    H136732   2.904   7.826   3.825 -0.1572 -0.2963 -0.0304
12263TIP3    H236733   3.039   7.886   3.859  0.0068 -0.3813 -0.5281
12264TIP3   OH236734   5.051   6.042   6.281 -0.0905  0.7772  0.0189
12264TIP3    H136735   5.038   6.097   6.358 -1.2932  0.4518  0.0690
12264TIP3    H236736   4.987   6.075   6.217 -0.2293 -0.0020 -0.2530
12265TIP3   OH236737   4.561   6.117   5.880 -0.2877  0.0653 -0.1107
12265TIP3    H136738   4.508   6.193   5.854 -0.4663  0.0929  0.3295
12265TIP3    H236739   4.520   6.086   5.961 -0.8668 -1.1548 -0.8591
12266TIP3   OH236740   5.101   7.328   6.601  0.2975  0.2933 -0.7460
12266TIP3    H136741   5.116   7.273   6.525 -0.0970  0.5433 -1.0075
12266TIP3    H236742   5.117   7.417   6.570  1.4346  0.2868 -0.1949
12267TIP3   OH236743   3.362   6.790   6.606  0.1683  0.4080 -0.4185
12267TIP3    H136744   3.437   6.804   6.663  1.1559 -0.0941 -1.5744
12267TIP3    H236745   3.384   6.836   6.525 -0.5915 -0.0882 -0.9124
12268TIP3   OH236746   1.446   7.404   4.539  0.1342 -0.1655 -0.3024
12268TIP3    H136747   1.519   7.465   4.549  1.2303 -1.6668  1.0667
12268TIP3    H236748   1.462   7.361   4.455  0.9018 -0.5895  0.0584
12269TIP3   OH236749   5.739   5.084   6.205  0.6118  0.1792  0.0038
12269TIP3    H136750   5.701   5.049   6.285 -0.5924 -0.6429 -0.9196
12269TIP3    H236751   5.811   5.024   6.183 -1.4043 -1.7499 -1.5417
12270TIP3   OH236752   3.925   4.921   5.467  0.7033 -0.8376  0.1277
12270TIP3    H136753   3.871   4.883   5.398 -3.8750 -2.3849  4.1995
12270TIP3    H236754   3.985   4.851   5.493 -0.6607 -1.8233  0.6833
12271TIP3   OH236755   5.539   7.270   5.827 -0.2173  0.0442 -0.1499
12271TIP3    H136756   5.482   7.301   5.757 -1.6458  0.8820  1.3413
12271TIP3    H236757   5.569   7.184   5.798 -0.4553  0.5540 -1.9511
12272TIP3   OH236758   5.013   7.044   5.411  0.8144  0.0460 -0.0937
12272TIP3    H136759   5.019   7.139   5.398  0.3644 -0.0298 -0.8777
12272TIP3    H236760   4.935   7.018   5.362  0.9736 -0.7396  0.0694
12273TIP3   OH236761   2.708   5.730   5.120  0.5624 -0.4227 -0.2922
12273TIP3    H136762   2.699   5.747   5.214  1.5095  1.7883 -0.5780
12273TIP3    H236763   2.772   5.794   5.090  0.3574 -1.1896 -2.4356
12274TIP3   OH236764   4.631   7.145   6.062 -0.0901 -0.4173  0.2589
12274TIP3    H136765   4.725   7.162   6.061 -0.4921  2.0573 -2.2932
12274TIP3    H236766   4.604   7.164   6.152  1.8679 -1.4741  1.0970
12275TIP3   OH236767   0.120   0.374   3.539  0.1120  0.3643 -0.0574
12275TIP3    H136768   0.045   0.320   3.514  0.4405 -0.4409  0.7034
12275TIP3    H236769   0.096   0.462   3.509 -0.5281 -0.1400 -1.0761
12276TIP3   OH236770   1.275   3.218   0.360  0.7408 -0.3305  0.3405
12276TIP3    H136771   1.364   3.251   0.343  0.8554 -0.9587 -0.2813
12276TIP3    H236772   1.241   3.194   0.274 -0.4914  1.0394  0.4183
12277TIP3   OH236773   4.237   6.411   4.950 -0.5937  0.1241  0.1283
12277TIP3    H136774   4.276   6.488   4.910  2.5907 -0.9002  1.0752
12277TIP3    H236775   4.261   6.339   4.892 -1.9286 -0.4333  0.2418
12278TIP3   OH236776   3.152   5.857   4.330 -0.0503 -0.4031  0.3089
12278TIP3    H136777   3.245   5.836   4.327  0.8044  2.0747  4.7592
12278TIP3    H236778   3.149   5.953   4.320 -2.1554 -0.5100 -0.2783
12279TIP3   OH236779   0.703   3.076   1.686 -0.1395  0.6594 -0.1175
12279TIP3    H136780   0.686   3.078   1.592  0.9768  0.7112 -0.3261
12279TIP3    H236781   0.758   2.999   1.698  0.5467  1.2188  0.3484
12280TIP3   OH236782   2.581   6.429   5.178  0.6032  0.0694  0.4428
12280TIP3    H136783   2.556   6.363   5.113  2.0989  0.6816 -0.7872
12280TIP3    H236784   2.675   6.416   5.191  0.5400  0.7075  1.6353
12281TIP3   OH236785   5.086   6.532   5.901 -0.5908  0.2177 -0.0575
12281TIP3    H136786   5.081   6.489   5.815 -2.8936  0.8656 -0.2757
12281TIP3    H236787   5.027   6.607   5.894  0.0678  0.9316  1.7352
12282TIP3   OH236788   5.420   7.638   6.777 -0.1371 -0.1715  0.0854
12282TIP3    H136789   5.401   7.570   6.711 -0.4429  1.3546 -1.4473
12282TIP3    H236790   5.475   7.594   6.842 -1.3904 -2.2306 -0.2023
12283TIP3   OH236791   1.655   2.526   1.891 -0.4930 -0.3995 -0.3538
12283TIP3    H136792   1.733   2.573   1.863 -0.6733  0.3582  0.3765
12283TIP3    H236793   1.663   2.521   1.986 -0.9454 -1.0123 -0.3430
12284TIP3   OH236794   6.269   1.694   5.135 -0.5776 -0.2104  0.1208
12284TIP3    H136795   6.185   1.719   5.097  0.7630  1.9955 -1.5173
12284TIP3    H236796   6.310   1.777   5.159  1.1110 -1.2600  0.9638
12285TIP3   OH236797   7.302   1.993   6.026  0.0176 -0.1338 -0.2193
12285TIP3    H136798   7.372   1.929   6.018  1.0173  1.0228 -0.9060
12285TIP3    H236799   7.222   1.944   6.005  0.4166 -1.7929  1.9139
12286TIP3   OH236800   6.047   6.036   4.900  0.1402 -0.5029 -0.0302
12286TIP3    H136801   6.089   6.122   4.901 -0.8514  0.0209 -1.3013
12286TIP3    H236802   5.954   6.055   4.913  0.0058 -1.4528  0.4100
12287TIP3   OH236803   6.462   0.183   3.788  0.6152  0.2573 -0.3435
12287TIP3    H136804   6.474   0.174   3.883  2.5866  0.9242 -0.4931
12287TIP3    H236805   6.380   0.231   3.778 -2.2209 -4.0111  0.8688
12288TIP3   OH236806   5.837   7.612   6.789 -0.6046  0.3593 -0.2527
12288TIP3    H136807   5.885   7.610   6.872 -0.5447  0.6746 -0.2795
12288TIP3    H236808   5.897   7.572   6.726 -0.8149 -0.2729 -0.0607
12289TIP3   OH236809   0.356   3.612   2.114 -0.0105  0.0045 -0.3721
12289TIP3    H136810   0.394   3.697   2.139 -1.3071 -0.3454  3.0176
12289TIP3    H236811   0.432   3.553   2.110  0.6064  0.7769 -0.3287
12290TIP3   OH236812   1.333   0.530   0.437  0.0131 -0.3501  0.0358
12290TIP3    H136813   1.399   0.473   0.476 -1.1466 -1.1472  0.8448
12290TIP3    H236814   1.283   0.563   0.511 -1.9389 -1.5556 -0.7199
12291TIP3   OH236815   1.968   2.370   0.634 -0.4080 -0.7330  0.3360
12291TIP3    H136816   2.019   2.439   0.677 -0.3128 -0.8981  0.4885
12291TIP3    H236817   1.887   2.364   0.685 -0.7532 -0.2037 -0.1342
12292TIP3   OH236818   2.256   2.322   0.606  0.0291 -0.1330  0.3908
12292TIP3    H136819   2.336   2.300   0.558  1.2833  1.3075  1.7530
12292TIP3    H236820   2.208   2.379   0.546  1.2891  1.1474  0.5636
12293TIP3   OH236821   7.541   0.480   5.139  0.3554 -0.2485  0.2268
12293TIP3    H136822   7.453   0.445   5.154  0.2643  1.1235  3.1074
12293TIP3    H236823   7.535   0.525   5.054 -1.3587 -1.2370 -0.2008
12294TIP3   OH236824   4.343   7.372   4.481  0.2292  0.3871  0.5303
12294TIP3    H136825   4.311   7.462   4.475  0.2891  0.3673 -0.1287
12294TIP3    H236826   4.372   7.362   4.572 -2.2189  0.2255  1.3372
12295TIP3   OH236827   0.286   3.170   0.922  0.0246 -0.2038  0.2820
12295TIP3    H136828   0.212   3.225   0.947  0.9130  1.6108 -0.9281
12295TIP3    H236829   0.363   3.217   0.955  0.7403 -1.2654  0.1592
12296TIP3   OH236830   1.989   2.374   0.067 -0.0352 -0.0889  0.5404
12296TIP3    H136831   1.939   2.399  -0.010  0.6171 -0.5224 -0.0332
12296TIP3    H236832   1.939   2.409   0.141  0.0957  1.6098 -0.1529
12297TIP3   OH236833   4.274   5.929   5.047 -0.0124 -0.6334  0.2135
12297TIP3    H136834   4.304   6.017   5.066  0.4222 -0.8144  0.3743
12297TIP3    H236835   4.181   5.929   5.070 -0.1385 -0.0703 -0.2938
12298TIP3   OH236836   1.672   1.536   1.674 -0.7489  0.1059  0.3241
12298TIP3    H136837   1.738   1.504   1.735 -0.6254 -0.0375  0.1144
12298TIP3    H236838   1.721   1.555   1.594 -0.7979  0.9173  0.4782
12299TIP3   OH236839   1.395   0.917   1.013  0.0981 -0.5650  0.2746
12299TIP3    H136840   1.307   0.954   1.004  0.2221 -0.1705  0.6668
12299TIP3    H236841   1.405   0.860   0.938 -1.5548 -2.7511  1.6613
12300TIP3   OH236842   4.303   7.128   6.816 -0.3100 -0.2766  0.1127
12300TIP3    H136843   4.287   7.040   6.850  1.5499 -1.2722 -1.4684
12300TIP3    H236844   4.318   7.115   6.722 -0.3542  1.7728 -0.1995
12301TIP3   OH236845   0.472   1.882   0.252  0.1883 -0.3970  0.3234
12301TIP3    H136846   0.567   1.876   0.260  0.2149 -1.5124 -0.6755
12301TIP3    H236847   0.452   1.972   0.276  1.9237  1.0708 -3.3554
12302TIP3   OH236848   4.323   2.604   6.400  0.5552  0.2863 -0.1314
12302TIP3    H136849   4.387   2.670   6.373 -2.2780  2.7262 -1.2800
12302TIP3    H236850   4.281   2.641   6.477  0.8293 -1.4785  0.8828
12303TIP3   OH236851   1.971   6.939   6.167 -1.0255  1.1182  0.2802
12303TIP3    H136852   1.896   6.880   6.183 -0.2297 -0.6881 -2.3969
12303TIP3    H236853   1.933   7.012   6.118 -1.2379  0.7402 -0.1252
12304TIP3   OH236854   3.325   6.873   5.380 -0.0729  0.3785 -0.0769
12304TIP3    H136855   3.297   6.889   5.470  0.4436 -2.0629  0.5456
12304TIP3    H236856   3.409   6.829   5.388  0.1173  0.3859 -1.7703
12305TIP3   OH236857   3.610   7.777   5.854 -0.4584 -0.2796  0.4422
12305TIP3    H136858   3.517   7.757   5.843 -0.5270 -0.9323  2.0534
12305TIP3    H236859   3.613   7.871   5.868 -1.1551 -0.5695  2.8472
12306TIP3   OH236860   8.370   1.116   0.167 -0.0369 -0.0718 -0.1745
12306TIP3    H136861   8.440   1.097   0.104  1.1601 -1.6163  1.5335
12306TIP3    H236862   8.327   1.031   0.181 -2.2413  0.8482 -1.1447
12307TIP3   OH236863   6.316   5.833   5.553  0.4733  0.0519  0.0282
12307TIP3    H136864   6.243   5.890   5.530 -0.0270  0.3118  2.1018
12307TIP3    H236865   6.350   5.869   5.635 -0.5118 -3.1457  1.9625
12308TIP3   OH236866   3.418   2.642   0.214 -0.2011 -0.5630 -0.2780
12308TIP3    H136867   3.404   2.584   0.140  0.1288  0.2769 -1.0011
12308TIP3    H236868   3.467   2.588   0.277 -3.4513 -2.3694  0.8082
12309TIP3   OH236869   4.120   5.861   5.851 -0.4561 -0.2454 -0.6183
12309TIP3    H136870   4.090   5.843   5.940 -0.5662 -2.1488 -1.0033
12309TIP3    H236871   4.211   5.831   5.850 -0.4210 -0.1295 -1.0955
12310TIP3   OH236872   2.252   4.735   0.414  0.1605  0.4931 -0.0740
12310TIP3    H136873   2.337   4.777   0.430 -0.5999  1.4273  1.7084
12310TIP3    H236874   2.253   4.657   0.470 -0.3347  0.7723  0.3328
12311TIP3   OH236875   3.103   7.528   5.872 -0.3613  0.4703  0.1016
12311TIP3    H136876   3.043   7.478   5.927 -0.0235 -0.0971 -0.0351
12311TIP3    H236877   3.052   7.603   5.841  0.0435  1.9359  2.8665
12312TIP3   OH236878   0.086   4.755   0.161 -0.0004 -0.2365 -0.2945
12312TIP3    H136879   0.077   4.668   0.123 -2.1373 -0.2989  0.2986
12312TIP3    H236880   0.095   4.740   0.255  2.1015  0.0833 -0.4151
12313TIP3   OH236881   4.438   4.158   5.765 -0.1923  0.3918  0.1170
12313TIP3    H136882   4.386   4.172   5.686  0.7236  0.2831 -0.5068
12313TIP3    H236883   4.525   4.135   5.733 -0.0939 -0.7287  1.1512
12314TIP3   OH236884   3.577   6.794   6.759 -0.5091 -0.3811 -0.1549
12314TIP3    H136885   3.600   6.728   6.693 -2.4304 -0.3359 -0.9066
12314TIP3    H236886   3.647   6.859   6.753  0.6762 -1.6468 -0.3728
12315TIP3   OH236887   4.506   7.221   6.309  0.4795 -0.9874 -0.1480
12315TIP3    H136888   4.466   7.290   6.362 -0.3231 -0.8940 -0.8609
12315TIP3    H236889   4.435   7.191   6.252  1.1264 -1.6303 -0.6193
12316TIP3   OH236890   3.039   7.945   6.590 -0.1239 -0.0227  0.2480
12316TIP3    H136891   3.068   7.975   6.503 -0.8161 -0.1794 -0.0421
12316TIP3    H236892   3.046   7.849   6.586 -1.6273 -0.1271 -0.1759
12317TIP3   OH236893   4.101   5.289   6.647 -0.1764  0.2385  0.2170
12317TIP3    H136894   4.105   5.290   6.551  0.3275  2.6837  0.2528
12317TIP3    H236895   4.041   5.360   6.669  1.7098  1.3782  1.7950
12318TIP3   OH236896   4.273   6.429   6.375 -0.2716  0.4140  0.2213
12318TIP3    H136897   4.223   6.418   6.294  2.2304  0.1037 -1.3522
12318TIP3    H236898   4.304   6.519   6.372  0.3625  0.2057  0.5293
12319TIP3   OH236899   2.380   1.965   0.252 -0.0099  0.3049  0.3408
12319TIP3    H136900   2.404   2.027   0.184  1.6434 -0.2195  0.4227
12319TIP3    H236901   2.409   1.880   0.219 -2.0395 -0.4174  0.3238
12320TIP3   OH236902   1.660   6.486   3.757  0.3240 -0.0159  0.5445
12320TIP3    H136903   1.746   6.507   3.723  1.3786 -1.6874  2.0588
12320TIP3    H236904   1.620   6.429   3.691 -0.3900  2.2098 -1.0088
12321TIP3   OH236905   4.662   6.089   5.257 -0.5047 -0.2485 -0.2710
12321TIP3    H136906   4.605   6.012   5.256 -0.5152 -0.2329 -0.9788
12321TIP3    H236907   4.655   6.126   5.169 -0.0855  0.2597 -0.0972
12322TIP3   OH236908   5.884   6.909   6.235 -0.4692 -0.0425 -0.0059
12322TIP3    H136909   5.896   6.872   6.148 -1.3027  1.1512 -0.6301
12322TIP3    H236910   5.868   6.832   6.291  2.9272 -1.0841 -0.3516
12323TIP3   OH236911   3.273   1.586   0.535 -0.1599 -0.4294 -0.0324
12323TIP3    H136912   3.318   1.503   0.520  0.4148  0.0432 -1.0451
12323TIP3    H236913   3.338   1.641   0.579  0.1521  0.1263 -1.1481
12324TIP3   OH236914   0.957   2.192   1.000 -0.0243 -0.5430 -0.0749
12324TIP3    H136915   1.009   2.271   1.014  1.0359 -1.1304 -0.6157
12324TIP3    H236916   0.898   2.189   1.076  0.2148  0.5361  0.1621
12325TIP3   OH236917   5.342   6.793   4.246 -0.3667 -0.4477  0.0316
12325TIP3    H136918   5.287   6.730   4.292  2.7606 -3.3075  0.0512
12325TIP3    H236919   5.330   6.773   4.154 -0.8061  0.2467 -0.0715
12326TIP3   OH236920   2.587   2.566   0.468 -0.0660 -0.4056 -0.4943
12326TIP3    H136921   2.523   2.508   0.428  0.3439 -1.1397 -0.0877
12326TIP3    H236922   2.659   2.509   0.494  0.1543  0.2167  0.2886
12327TIP3   OH236923   2.265   3.404   0.847  0.0466 -0.2034  0.1861
12327TIP3    H136924   2.195   3.390   0.911 -2.1448  2.1632 -1.5909
12327TIP3    H236925   2.330   3.337   0.868 -2.3562 -1.9518  2.4399
12328TIP3   OH236926   1.700   3.660   1.293 -0.3189 -0.0088 -0.2032
12328TIP3    H136927   1.778   3.692   1.247  0.2392  0.5272  1.0694
12328TIP3    H236928   1.723   3.571   1.320 -0.1053  0.1793  0.2456
12329TIP3   OH236929   8.020   0.696   5.197  0.3725  0.3362  0.5157
12329TIP3    H136930   8.059   0.723   5.280 -0.2991  1.0159  0.6150
12329TIP3    H236931   7.958   0.766   5.175  0.6392  0.2257 -0.6229
12330TIP3   OH236932   3.056   5.288   5.724 -0.1292 -0.4428 -0.8045
12330TIP3    H136933   3.120   5.280   5.653  0.1957  0.5457 -0.6381
12330TIP3    H236934   2.971   5.281   5.680  0.0346  1.7051 -1.5393
12331TIP3   OH236935   3.830   6.677   4.841  0.4295 -0.1592 -0.4603
12331TIP3    H136936   3.879   6.624   4.778  1.4525  0.7586 -0.4444
12331TIP3    H236937   3.856   6.642   4.927  1.7360  0.8940 -0.4163
12332TIP3   OH236938   4.945   6.772   5.183 -0.4957 -0.4010 -0.2116
12332TIP3    H136939   4.937   6.771   5.088 -0.6978 -0.0580 -0.1993
12332TIP3    H236940   4.903   6.691   5.211  0.2113 -0.8563 -0.4593
12333TIP3   OH236941   2.876   6.976   5.010 -0.1301  0.3730  0.3150
12333TIP3    H136942   2.816   6.966   5.084  1.4029 -1.3076  1.3848
12333TIP3    H236943   2.824   7.020   4.942 -2.2133 -0.0467  1.5889
12334TIP3   OH236944   4.458   6.373   5.847 -0.4459  0.0818  0.4865
12334TIP3    H136945   4.364   6.365   5.832 -0.4086 -1.8594  1.1939
12334TIP3    H236946   4.466   6.450   5.904 -1.4035  1.4991 -1.2501
12335TIP3   OH236947   5.436   6.678   3.368  0.2648 -0.5111  0.5259
12335TIP3    H136948   5.450   6.772   3.374  0.0231 -0.3635 -0.9493
12335TIP3    H236949   5.364   6.669   3.305 -1.2601 -1.5722  2.3677
12336TIP3   OH236950   3.580   7.394   6.783 -0.1868 -0.3610  0.4347
12336TIP3    H136951   3.615   7.315   6.823 -0.1745 -0.3490  0.4478
12336TIP3    H236952   3.494   7.369   6.750 -0.1915 -0.3741  0.4579
12337TIP3   OH236953   5.099   5.450   6.496 -0.0444  0.1230 -0.0464
12337TIP3    H136954   5.019   5.481   6.455  0.5063 -0.8339 -1.8916
12337TIP3    H236955   5.165   5.515   6.472 -0.2068  0.7803  1.2632
12338TIP3   OH236956   4.962   6.807   5.818  0.6227  0.0758 -0.1577
12338TIP3    H136957   5.011   6.779   5.740 -0.4386  0.4797 -0.9869
12338TIP3    H236958   4.940   6.899   5.800 -0.5828 -0.1523  0.1211
12339TIP3   OH236959   4.013   7.954   5.974 -0.0516  0.1666  0.1772
12339TIP3    H136960   4.089   7.898   5.982 -0.8164 -0.9123  0.0110
12339TIP3    H236961   3.940   7.901   6.006 -1.1062  0.3309 -1.8542
12340TIP3   OH236962   4.323   7.134   6.139 -0.2095 -0.2429 -0.5955
12340TIP3    H136963   4.269   7.180   6.075  0.3741 -0.8304 -1.5196
12340TIP3    H236964   4.280   7.048   6.149 -0.5256 -0.0111  0.1082
12341TIP3   OH236965   3.933   4.691   4.752 -0.2644 -0.9357 -0.3852
12341TIP3    H136966   3.949   4.603   4.786  0.9056 -1.0407 -1.1826
12341TIP3    H236967   3.936   4.681   4.657  1.6988  0.2727 -0.4858
12342TIP3   OH236968   5.891   0.620   4.859 -0.8730 -0.0306 -0.5344
12342TIP3    H136969   5.963   0.647   4.802  1.0471 -0.6826  1.4765
12342TIP3    H236970   5.814   0.619   4.803  0.5589  1.3997 -2.5832
12343TIP3   OH236971   0.329   3.437   0.749 -0.5175  0.7546  0.7114
12343TIP3    H136972   0.400   3.418   0.810 -1.4626  0.6591  1.8072
12343TIP3    H236973   0.253   3.390   0.786 -1.4247  1.8013  0.1957
12344TIP3   OH236974   5.661   5.096   6.851 -0.5590  0.3378 -0.5514
12344TIP3    H136975   5.604   5.019   6.853 -1.5243  1.0545  1.3493
12344TIP3    H236976   5.606   5.167   6.886  1.6818  0.8916  2.0425
12345TIP3   OH236977   7.057   0.160   6.664  0.3792  0.8249 -0.1232
12345TIP3    H136978   7.126   0.113   6.617  1.1403  1.1548  0.6315
12345TIP3    H236979   7.083   0.252   6.659 -1.2430  1.2120 -1.8272
12346TIP3   OH236980   4.872   6.140   6.867  0.3623  0.6588  0.7547
12346TIP3    H136981   4.879   6.222   6.917  1.1194  0.1950  1.4137
12346TIP3    H236982   4.895   6.072   6.930 -0.2250 -0.0615  0.1875
12347TIP3   OH236983   4.385   4.476   6.083  0.4653 -0.4773 -0.0899
12347TIP3    H136984   4.307   4.439   6.043 -0.1105  1.2539 -0.6218
12347TIP3    H236985   4.398   4.425   6.163 -1.2735 -0.7286  0.0488
12348TIP3   OH236986   3.870   4.286   5.558 -0.0617  0.1149 -0.0099
12348TIP3    H136987   3.961   4.264   5.542  0.0527 -0.0430  0.8409
12348TIP3    H236988   3.872   4.352   5.627 -0.5030  1.4624 -1.2750
12349TIP3   OH236989   4.997   6.316   5.437  0.5364 -0.4135  0.1170
12349TIP3    H136990   4.980   6.277   5.351  0.6685  0.0038 -0.1005
12349TIP3    H236991   4.947   6.262   5.498 -0.7124  0.1496 -0.3912
12350TIP3   OH236992   4.632   5.664   5.546  0.2585 -0.1920  0.5979
12350TIP3    H136993   4.724   5.651   5.570  0.8764 -0.8369 -1.9465
12350TIP3    H236994   4.633   5.676   5.451 -2.3126 -0.4398  0.4853
12351TIP3   OH236995   1.305   3.350   2.142 -0.0384  0.2224 -0.2207
12351TIP3    H136996   1.290   3.425   2.200 -3.0756  0.4634 -1.2004
12351TIP3    H236997   1.348   3.387   2.065  0.6352  0.5339  0.3000
12352TIP3   OH236998   1.540   2.402   1.139  0.5177 -0.4051 -0.4282
12352TIP3    H136999   1.539   2.443   1.225  2.8808 -0.8412 -0.1503
12352TIP3    H237000   1.609   2.336   1.144  0.7469 -0.3962 -2.6713
12353TIP3   OH237001   1.428   6.979   6.189 -0.4397 -0.5189 -0.2883
12353TIP3    H137002   1.342   6.942   6.174 -2.1138  3.0919 -0.1730
12353TIP3    H237003   1.458   7.006   6.102  0.9288 -2.4221 -0.4336
12354TIP3   OH237004   2.269   5.075   6.098 -0.7881 -0.8049  0.6426
12354TIP3    H137005   2.356   5.036   6.089 -0.5792 -1.0512  3.5244
12354TIP3    H237006   2.284   5.163   6.130 -1.5672 -0.3500 -0.1989
12355TIP3   OH237007   2.820   4.203  -0.030  0.0665  0.6866 -0.0499
12355TIP3    H137008   2.811   4.279   0.028 -0.6361  0.8700 -0.3888
12355TIP3    H237009   2.861   4.135   0.024 -0.9632  0.7207  0.7778
12356TIP3   OH237010   3.809   4.628   5.026 -0.2248 -0.4479  0.5748
12356TIP3    H137011   3.766   4.573   5.091  0.5497 -0.0241  1.4457
12356TIP3    H237012   3.901   4.600   5.027 -0.7382 -2.4163 -2.3614
12357TIP3   OH237013   4.614   7.468   5.145 -0.0192 -0.0101 -0.0946
12357TIP3    H137014   4.709   7.468   5.145 -0.0023 -0.9911 -0.5604
12357TIP3    H237015   4.590   7.545   5.093  0.5527 -0.6695 -1.3763
12358TIP3   OH237016   2.007   7.516   5.583 -0.1861 -0.1012  0.1689
12358TIP3    H137017   1.929   7.472   5.549  0.5534  0.0066 -1.7054
12358TIP3    H237018   2.059   7.447   5.623 -0.1651 -0.5465 -0.6230
12359TIP3   OH237019   4.741   7.792   5.981  0.1765 -0.3821  0.4807
12359TIP3    H137020   4.683   7.834   5.917  1.5016 -0.6708 -0.9354
12359TIP3    H237021   4.730   7.843   6.061 -2.5913 -0.8808  0.4571
12360TIP3   OH237022   3.304   7.157   6.484 -0.1436 -0.0352  0.4793
12360TIP3    H137023   3.300   7.202   6.568  1.1533  1.0185 -0.0104
12360TIP3    H237024   3.245   7.207   6.428 -0.8179 -0.5916  0.6854
12361TIP3   OH237025   3.828   6.736   5.586  0.2876  0.3082 -0.7253
12361TIP3    H137026   3.877   6.806   5.628  1.3019 -1.1606  0.6236
12361TIP3    H237027   3.882   6.708   5.512  0.6078 -0.0538 -0.3573
12362TIP3   OH237028   5.587   0.083   3.889  0.1819  0.0301  0.9602
12362TIP3    H137029   5.665   0.038   3.922  0.9421  1.0703  0.6472
12362TIP3    H237030   5.530   0.093   3.965  1.2195  0.9969  1.6252
12363TIP3   OH237031   0.758   1.834   1.519  0.0498  0.5424 -0.2132
12363TIP3    H137032   0.692   1.799   1.578 -0.6270  0.9491 -0.7322
12363TIP3    H237033   0.710   1.892   1.460  0.5235 -0.7946 -1.9465
12364TIP3   OH237034   5.404   6.436   5.563 -0.1048 -0.1468  0.1971
12364TIP3    H137035   5.471   6.370   5.580  1.3323  0.9069 -1.2158
12364TIP3    H237036   5.438   6.487   5.490 -1.0077  2.3951  1.4595
12365TIP3   OH237037   3.070   8.006   5.391 -0.7462 -0.6513  0.0255
12365TIP3    H137038   3.060   7.945   5.465  0.1449 -1.4202 -0.4831
12365TIP3    H237039   3.023   7.964   5.319  0.0575 -0.8402 -0.3886
12366TIP3   OH237040   3.684   6.116   5.339 -0.4731 -0.2850  0.1907
12366TIP3    H137041   3.623   6.125   5.266  0.6324  0.7723 -0.6234
12366TIP3    H237042   3.657   6.182   5.402  0.3410  0.7869 -0.5566
12367TIP3   OH237043   4.352   7.226   4.775 -0.2763 -0.2195 -0.2303
12367TIP3    H137044   4.390   7.158   4.719 -0.1314  0.0054 -0.4056
12367TIP3    H237045   4.259   7.224   4.755 -0.3479 -0.7258  0.1508
12368TIP3   OH237046   2.778   6.661   6.388  0.5377 -0.1984 -0.0881
12368TIP3    H137047   2.868   6.628   6.381  0.1863 -1.1225 -0.2202
12368TIP3    H237048   2.761   6.703   6.304  0.6743 -0.4582 -0.2462
12369TIP3   OH237049   1.778   5.286   6.578 -0.6062  0.8093  0.1642
12369TIP3    H137050   1.765   5.276   6.672 -1.1645 -2.3319 -0.1941
12369TIP3    H237051   1.865   5.249   6.562 -2.1417 -2.4407 -1.0657
12370TIP3   OH237052   1.641   1.825   1.766  0.3535  0.9414  0.3871
12370TIP3    H137053   1.607   1.781   1.688  1.1673  0.0598  0.5146
12370TIP3    H237054   1.570   1.881   1.796 -0.5717 -0.0201 -0.0030
12371TIP3   OH237055   3.791   5.107   6.351 -0.5277 -0.1638  0.2675
12371TIP3    H137056   3.810   5.174   6.417  0.5994 -1.6218  1.4630
12371TIP3    H237057   3.805   5.152   6.267  2.2651  0.5700  1.0571
12372TIP3   OH237058   1.761   1.617   1.437  0.1210  0.1787 -0.2331
12372TIP3    H137059   1.807   1.674   1.375 -0.3039  1.2515  0.4403
12372TIP3    H237060   1.670   1.618   1.408  0.1897 -0.5290 -0.4924
12373TIP3   OH237061   2.640   2.058   0.849 -0.2086 -0.2282 -0.0698
12373TIP3    H137062   2.631   1.963   0.841  1.2415 -0.3908  0.1033
12373TIP3    H237063   2.679   2.085   0.766  0.8490  0.0054  0.4934
12374TIP3   OH237064   4.084   7.216   6.022 -0.1249  0.1251 -0.0114
12374TIP3    H137065   4.084   7.241   5.930  0.7576  1.0724  0.2317
12374TIP3    H237066   4.020   7.274   6.063 -1.1664 -0.8842 -0.1584
12375TIP3   OH237067   0.650   1.509   2.203  0.6540 -0.1371  0.9932
12375TIP3    H137068   0.601   1.588   2.225  0.9094  0.1604  0.4962
12375TIP3    H237069   0.698   1.531   2.123 -0.9015 -1.4753 -0.3502
12376TIP3   OH237070   2.089   3.147   3.139 -0.4325 -0.0160 -0.1988
12376TIP3    H137071   2.163   3.100   3.176  0.5889  1.1711 -0.6980
12376TIP3    H237072   2.045   3.186   3.215  0.3022  0.4702 -0.0097
12377TIP3   OH237073   3.919   6.195   6.721  0.0447  0.1929  0.3136
12377TIP3    H137074   3.917   6.158   6.634 -1.0658 -0.3903  0.5750
12377TIP3    H237075   3.945   6.286   6.708  2.6344 -0.6210 -0.3362
12378TIP3   OH237076   4.913   7.236   6.074  0.0013 -0.0745  0.2092
12378TIP3    H137077   4.897   7.296   6.002 -0.7063 -0.4225  0.0673
12378TIP3    H237078   4.993   7.190   6.051 -0.0256  0.0764 -0.1766
12379TIP3   OH237079   1.061   1.495   0.702 -0.0438  0.3461  0.6167
12379TIP3    H137080   1.145   1.503   0.747 -0.0745 -0.7468  0.8811
12379TIP3    H237081   1.001   1.551   0.751  0.6769  1.6592  0.0338
12380TIP3   OH237082   6.243   0.396   6.499  0.3594 -0.3225  0.0299
12380TIP3    H137083   6.274   0.363   6.415 -1.2758 -1.3313 -0.1944
12380TIP3    H237084   6.264   0.327   6.561 -0.2515 -0.4569  0.0944
12381TIP3   OH237085   0.168   1.954   1.125  0.1707  0.1121  0.0681
12381TIP3    H137086   0.155   1.892   1.197  0.5638 -2.7567 -2.2607
12381TIP3    H237087   0.080   1.976   1.096  0.0027  1.4302  1.4972
12382TIP3   OH237088   3.345   6.378   4.899 -0.6606 -0.4838 -0.6199
12382TIP3    H137089   3.324   6.470   4.885 -0.5888 -0.4707 -0.6391
12382TIP3    H237090   3.429   6.378   4.944 -0.0529 -0.5687 -1.7274
12383TIP3   OH237091   0.064   1.123   0.846 -0.3292  0.3186  0.4581
12383TIP3    H137092   0.109   1.138   0.929  1.3430  1.4553 -0.6354
12383TIP3    H237093  -0.007   1.187   0.845 -1.6540 -1.0756  1.9119
12384TIP3   OH237094   2.593   7.440   6.529 -0.0736  0.6160  0.0841
12384TIP3    H137095   2.518   7.450   6.588 -1.5882  0.4548 -1.7540
12384TIP3    H237096   2.606   7.345   6.524 -1.9536  0.4322 -2.2206
12385TIP3   OH237097   0.067   3.642   0.915  0.3500 -0.1463 -0.3929
12385TIP3    H137098   0.095   3.667   1.003 -1.4453  0.8529 -0.0961
12385TIP3    H237099   0.107   3.708   0.858 -1.4238  1.3314  0.0382
12386TIP3   OH237100   2.144   2.681   0.143 -0.3194  0.0518  0.3561
12386TIP3    H137101   2.222   2.656   0.093 -0.0192 -0.1968  0.9492
12386TIP3    H237102   2.073   2.678   0.079  0.3262  1.2931 -0.4345
12387TIP3   OH237103   4.469   7.716   3.818  0.2429 -0.3151  0.2399
12387TIP3    H137104   4.512   7.655   3.758 -0.8545 -1.2152  0.3580
12387TIP3    H237105   4.456   7.665   3.898 -1.8921 -0.3584 -0.1119
12388TIP3   OH237106   3.963   6.709   6.439 -0.1857 -0.6806 -0.2307
12388TIP3    H137107   4.030   6.685   6.375  0.2966 -1.3645  0.5170
12388TIP3    H237108   3.907   6.771   6.393  1.2131  0.2518 -0.7177
12389TIP3   OH237109   4.401   6.716   3.594  0.3230 -0.3181 -0.2959
12389TIP3    H137110   4.361   6.676   3.517  0.3903 -1.8767  0.4631
12389TIP3    H237111   4.493   6.728   3.569  0.5850 -1.8329 -0.0644
12390TIP3   OH237112   3.450   6.672   6.317  0.0552  0.7596 -0.0910
12390TIP3    H137113   3.483   6.657   6.228 -1.8391  2.5077 -1.1515
12390TIP3    H237114   3.445   6.768   6.325  0.4548  0.6261  1.9981
12391TIP3   OH237115   3.152   6.401   5.191  0.4430  0.0228 -0.0927
12391TIP3    H137116   3.247   6.409   5.199  0.5701  0.5352 -1.8892
12391TIP3    H237117   3.138   6.316   5.150 -0.0303 -1.1559  2.3824
12392TIP3   OH237118   1.422   3.635   0.480 -0.0018  0.6705  0.2112
12392TIP3    H137119   1.369   3.607   0.555  0.1973  0.9409  0.4540
12392TIP3    H237120   1.370   3.610   0.403 -0.4546  0.8762  0.4460
12393TIP3   OH237121   2.488   2.461   1.160  0.1024  0.1069  0.0516
12393TIP3    H137122   2.446   2.539   1.197 -0.1826 -0.5856  1.1953
12393TIP3    H237123   2.447   2.451   1.074 -1.3779  0.0246  0.7437
12394TIP3   OH237124   5.583   7.580   4.856 -0.8068  0.4349  0.2897
12394TIP3    H137125   5.676   7.595   4.870 -1.3008  0.4947  4.0585
12394TIP3    H237126   5.577   7.486   4.836 -0.0904  0.0074  1.9822
12395TIP3   OH237127   2.252   1.825   1.590  0.1301  0.2198 -0.9462
12395TIP3    H137128   2.337   1.866   1.607 -0.3774  1.0703 -0.4183
12395TIP3    H237129   2.189   1.883   1.632 -0.6629 -0.7606 -0.7737
12396TIP3   OH237130   5.769   7.678   5.943 -0.4274  0.3982 -0.1774
12396TIP3    H137131   5.726   7.593   5.955  1.2885 -0.7562 -1.8696
12396TIP3    H237132   5.736   7.711   5.860 -1.4587  1.6438  0.7091
12397TIP3   OH237133   3.803   7.768   6.522 -0.4033  0.1077  0.0178
12397TIP3    H137134   3.728   7.719   6.555 -0.1308 -1.3617 -1.5003
12397TIP3    H237135   3.879   7.713   6.545 -0.0904 -0.1479 -1.5942
12398TIP3   OH237136   5.075   7.135   6.394 -0.0550  0.6343  0.0806
12398TIP3    H137137   4.985   7.162   6.412  0.3988  0.9832  1.8851
12398TIP3    H237138   5.077   7.118   6.300 -1.1897  3.7085 -0.5455
12399TIP3   OH237139   2.942   3.365   3.897 -0.0292 -0.0951 -0.4746
12399TIP3    H137140   2.858   3.409   3.911 -0.4724 -1.0243 -0.1972
12399TIP3    H237141   2.923   3.298   3.832  0.7716  0.4790 -1.3124
12400TIP3   OH237142   1.748   3.364   0.418  0.0587 -0.7668  0.0248
12400TIP3    H137143   1.671   3.345   0.472 -2.0761  0.6519 -2.4171
12400TIP3    H237144   1.803   3.285   0.426 -1.0737 -1.3294  2.7035
12401TIP3   OH237145   2.701   4.475   4.491  0.1334 -0.3462  0.0205
12401TIP3    H137146   2.678   4.473   4.584 -2.2746  2.1959 -0.4761
12401TIP3    H237147   2.772   4.539   4.486  1.7595 -2.0665  0.3594
12402TIP3   OH237148   4.986   6.504   4.294  0.0819  0.3331  0.5468
12402TIP3    H137149   4.931   6.535   4.366 -0.7119  0.0742  0.0614
12402TIP3    H237150   4.971   6.568   4.224 -1.8279 -1.2905 -0.5794
12403TIP3   OH237151   3.123   7.974   6.333 -0.1851  0.6121 -0.4646
12403TIP3    H137152   3.117   8.059   6.291 -0.4613  1.5806  1.4767
12403TIP3    H237153   3.105   7.911   6.263 -0.1277  2.1450 -1.8783
12404TIP3   OH237154   3.583   5.751   4.540 -0.0048 -0.0013 -0.3007
12404TIP3    H137155   3.630   5.689   4.484  0.4030 -1.7181  1.8977
12404TIP3    H237156   3.641   5.827   4.544  0.3544 -0.1991 -1.5008
12405TIP3   OH237157   2.464   1.681   0.417 -0.0599 -0.3189 -1.2985
12405TIP3    H137158   2.436   1.598   0.455 -0.3797 -0.0490 -0.9444
12405TIP3    H237159   2.441   1.674   0.324 -0.7204 -0.3476 -1.1307
12406TIP3   OH237160   4.092   6.913   6.594  0.4128 -0.0610  0.7465
12406TIP3    H137161   4.062   6.991   6.548  1.0336  0.1391  0.6771
12406TIP3    H237162   4.061   6.840   6.540  0.2562  0.1479  0.5508
12407TIP3   OH237163   2.534   0.865   0.985  0.3695 -0.5656  0.8806
12407TIP3    H137164   2.586   0.835   0.911 -1.4271 -0.9034 -0.2932
12407TIP3    H237165   2.445   0.872   0.950 -0.0837  1.6157  2.3692
12408TIP3   OH237166   1.888   6.184   6.225  0.2315 -0.2099  0.2594
12408TIP3    H137167   1.838   6.107   6.197 -0.3417  0.0725  0.4931
12408TIP3    H237168   1.925   6.159   6.310  0.3329 -0.3519  0.1738
12409TIP3   OH237169   1.261   1.045   0.584 -0.4557 -0.1071  0.1745
12409TIP3    H137170   1.251   1.140   0.575 -0.9602 -0.1897 -0.2164
12409TIP3    H237171   1.354   1.031   0.598 -0.4725  0.4981  0.8995
12410TIP3   OH237172   6.865   2.397   6.965 -0.2224  0.3473  0.6267
12410TIP3    H137173   6.911   2.328   6.916 -0.3947 -0.5598  1.7298
12410TIP3    H237174   6.821   2.449   6.898  0.9656  0.1714 -0.3190
12411TIP3   OH237175   8.408   1.708   0.249  0.1795 -0.0839 -0.4022
12411TIP3    H137176   8.363   1.791   0.266  0.6309  0.3699 -1.3885
12411TIP3    H237177   8.499   1.733   0.233  0.0588 -0.6264 -2.0566
12412TIP3   OH237178   4.970   5.597   4.725  0.0582  0.0893 -0.1987
12412TIP3    H137179   5.037   5.531   4.704  1.2086  0.3301  2.5383
12412TIP3    H237180   4.894   5.545   4.752  0.8932 -0.1522  1.7506
12413TIP3   OH237181   3.908   5.380   4.580  0.4609 -0.2195 -0.9039
12413TIP3    H137182   3.973   5.450   4.583 -0.0897  0.3485 -1.9068
12413TIP3    H237183   3.830   5.417   4.621  0.1310 -0.1917 -1.5397
12414TIP3   OH237184   4.690   4.424   6.203  0.7646  0.3010 -0.0163
12414TIP3    H137185   4.697   4.493   6.137 -1.4173  0.7846  0.2361
12414TIP3    H237186   4.766   4.436   6.259  0.6926  2.1366 -0.3042
12415TIP3   OH237187   3.724   4.460   4.801  0.3097 -0.1234 -0.1841
12415TIP3    H137188   3.630   4.452   4.783  0.1517  1.1120  0.0260
12415TIP3    H237189   3.729   4.504   4.885  1.0534  2.4874 -1.5285
12416TIP3   OH237190   0.057   2.208   6.042 -0.3584 -0.4439  0.5778
12416TIP3    H137191   0.101   2.190   5.959  2.0459  0.8857  1.5160
12416TIP3    H237192  -0.014   2.268   6.019  0.3830  0.0354 -0.5251
12417TIP3   OH237193   3.659   6.172   6.532 -0.3517  0.2738  0.8016
12417TIP3    H137194   3.578   6.172   6.482  0.5199 -0.0595 -0.6248
12417TIP3    H237195   3.727   6.149   6.469  0.9413  1.1523  1.8445
12418TIP3   OH237196   5.018   7.737   5.257 -0.2137 -0.2253  0.1533
12418TIP3    H137197   5.035   7.822   5.300  1.1506  0.9810 -2.6539
12418TIP3    H237198   4.947   7.755   5.196 -0.3732 -1.2830  0.0197
12419TIP3   OH237199   3.005   5.853   5.861 -0.1840 -0.3054 -0.5821
12419TIP3    H137200   3.038   5.774   5.817  1.5674 -0.3603  0.7846
12419TIP3    H237201   2.930   5.822   5.912 -0.0607 -0.9032 -0.7619
12420TIP3   OH237202   4.858   7.445   6.268 -0.2222  0.4855  0.4262
12420TIP3    H137203   4.870   7.398   6.351  2.2911  1.3737  0.5945
12420TIP3    H237204   4.889   7.385   6.201 -3.6817 -0.8407 -0.0855
12421TIP3   OH237205   4.562   7.753   5.036  0.7648  0.1293  0.2342
12421TIP3    H137206   4.486   7.747   5.094  1.1447  0.7254  0.8046
12421TIP3    H237207   4.525   7.773   4.950  0.2991  0.8660  0.5955
12422TIP3   OH237208   5.090   5.545   6.931  0.1336  0.0455  0.7341
12422TIP3    H137209   5.122   5.584   6.849 -1.0739 -0.1042  0.1857
12422TIP3    H237210   5.115   5.453   6.924 -0.5406 -0.1053  0.2326
12423TIP3   OH237211   2.790   3.537   0.029 -0.0039  0.5258 -0.2814
12423TIP3    H137212   2.806   3.443   0.037  1.0885  0.4910 -2.3307
12423TIP3    H237213   2.860   3.567  -0.029 -1.2160  2.3394 -0.8269
12424TIP3   OH237214   4.726   7.534   5.520 -0.0243  0.1166  0.1530
12424TIP3    H137215   4.722   7.456   5.575  2.1694  0.4941  0.8908
12424TIP3    H237216   4.765   7.504   5.438 -2.5734 -0.2847 -0.9654
12425TIP3   OH237217   5.067   1.076   6.687 -0.2518  0.4540  0.2956
12425TIP3    H137218   4.986   1.037   6.654  2.3310 -2.6030 -2.8025
12425TIP3    H237219   5.094   1.018   6.758  0.2249  0.3516  0.0327
12426TIP3   OH237220   5.943   7.075   5.874 -0.1483 -0.3717  0.2554
12426TIP3    H137221   5.853   7.067   5.841  0.8276  0.6584 -2.8102
12426TIP3    H237222   5.964   6.988   5.907 -1.9699 -0.8339  0.2685
12427TIP3   OH237223   4.036   5.046   1.373  0.5710 -0.0875  0.1641
12427TIP3    H137224   4.027   5.100   1.451 -0.5403  2.4336 -1.6128
12427TIP3    H237225   3.966   4.981   1.380 -0.8559  1.4235  0.3061
12428TIP3   OH237226   0.960   3.293   0.127 -0.1339 -0.3588  0.2346
12428TIP3    H137227   0.879   3.286   0.178  0.7373 -0.3248  1.6681
12428TIP3    H237228   1.011   3.216   0.153  0.5851 -0.0123 -0.1215
12429TIP3   OH237229   2.914   5.880   5.443 -0.1695 -0.0165 -0.9381
12429TIP3    H137230   2.967   5.802   5.461 -0.2558  0.4134  1.3097
12429TIP3    H237231   2.826   5.846   5.429 -0.0115 -0.3969 -1.0371
12430TIP3   OH237232   4.658   6.986   3.868  0.2844  0.3515  0.6936
12430TIP3    H137233   4.716   7.034   3.809  1.9720 -0.9822  1.2568
12430TIP3    H237234   4.671   7.028   3.953  3.9913 -2.8992  1.8378
12431TIP3   OH237235   8.071   4.333   0.769 -0.2958  1.0157  0.6412
12431TIP3    H137236   8.001   4.297   0.824  1.3039 -1.0173  1.3855
12431TIP3    H237237   8.128   4.379   0.831  1.1181 -0.6627  0.6120
12432TIP3   OH237238   6.350   5.840   6.759  0.1412  0.2088  0.4922
12432TIP3    H137239   6.267   5.808   6.796 -0.1966  0.3100 -0.1682
12432TIP3    H237240   6.413   5.771   6.778 -0.6976 -1.1029 -1.3974
12433TIP3   OH237241   4.198   7.037   3.927 -0.3472 -0.2310  0.1854
12433TIP3    H137242   4.172   7.124   3.899  0.6303  0.4421  1.3086
12433TIP3    H237243   4.219   6.990   3.846 -0.3049  0.7692 -0.3831
12434TIP3   OH237244   4.699   4.628   3.946 -0.4074  0.7747 -0.2182
12434TIP3    H137245   4.746   4.679   4.012 -0.2899  0.5058 -0.0937
12434TIP3    H237246   4.617   4.675   3.933 -0.9257  0.2178  0.9565
12435TIP3   OH237247   2.216   5.157   4.802  0.1290  0.1008  0.2658
12435TIP3    H137248   2.282   5.188   4.740 -1.3677  0.3775 -1.2373
12435TIP3    H237249   2.200   5.066   4.776  0.2937 -0.1242  0.9572
12436TIP3   OH237250   2.630   0.968   1.268  0.0966  0.2073  0.0528
12436TIP3    H137251   2.604   0.995   1.180  0.2245 -0.0771 -0.0704
12436TIP3    H237252   2.660   1.049   1.310  1.1463  0.1265 -0.5540
12437TIP3   OH237253   4.538   7.414   6.600  0.4023 -0.4432 -0.4256
12437TIP3    H137254   4.487   7.405   6.681 -1.9845  0.2745 -1.7765
12437TIP3    H237255   4.560   7.507   6.596  0.1471 -0.3949 -0.7820
12438TIP3   OH237256   2.741   6.459   6.040 -0.1772  0.2715  0.6135
12438TIP3    H137257   2.827   6.437   6.075  0.2675  1.9102  0.5959
12438TIP3    H237258   2.687   6.382   6.059  1.5666 -1.2589 -0.4224
12439TIP3   OH237259   1.859   7.333   4.831  0.2761 -0.6611 -0.2670
12439TIP3    H137260   1.807   7.260   4.798 -1.5332  0.4163  0.1463
12439TIP3    H237261   1.880   7.385   4.753 -1.2720  0.1549 -0.1549
12440TIP3   OH237262   3.956   4.125   6.914 -0.2665 -0.1021 -0.5411
12440TIP3    H137263   4.046   4.124   6.883  0.1094 -2.8001  0.4998
12440TIP3    H237264   3.914   4.051   6.870 -1.1942 -0.6050  1.1136
12441TIP3   OH237265   3.918   6.170   5.134  0.0200 -0.5145 -0.4052
12441TIP3    H137266   3.937   6.077   5.143  0.7281 -0.2283  1.4417
12441TIP3    H237267   3.826   6.174   5.109 -0.5868 -1.6776  1.5182
12442TIP3   OH237268   4.186   6.360   5.827 -0.6210 -0.2094  0.0916
12442TIP3    H137269   4.094   6.364   5.803 -0.7284  2.0882  0.7434
12442TIP3    H237270   4.187   6.366   5.922  0.2588  1.8147 -0.0149
12443TIP3   OH237271   0.037   3.069   0.553  0.1968  0.5025  0.5207
12443TIP3    H137272   0.054   2.997   0.614  1.7441 -0.1474 -0.6335
12443TIP3    H237273   0.091   3.048   0.476 -1.4752  1.4564 -0.9462
12444TIP3   OH237274   4.324   6.187   6.215 -0.8268  0.4177  0.2059
12444TIP3    H137275   4.317   6.146   6.301 -2.6067  0.1192 -0.0814
12444TIP3    H237276   4.316   6.115   6.153 -0.1258  0.7082 -0.2338
12445TIP3   OH237277   3.441   7.045   5.920  0.0099  0.0280  0.6150
12445TIP3    H137278   3.473   7.084   6.001 -1.1935  2.3119  0.0381
12445TIP3    H237279   3.352   7.079   5.911 -0.3712 -1.3116 -0.9529
12446TIP3   OH237280   2.087   1.472   0.705 -0.0136  0.5007  0.6149
12446TIP3    H137281   2.002   1.480   0.748 -0.4263  1.4482 -0.3561
12446TIP3    H237282   2.149   1.459   0.777 -0.8907  0.4853  1.3778
12447TIP3   OH237283   0.019   0.172   6.188  0.0278 -0.5847 -0.2715
12447TIP3    H137284   0.009   0.138   6.276  1.6025  0.8721  0.5046
12447TIP3    H237285   0.019   0.095   6.132  1.8536 -1.7414  1.2699
12448TIP3   OH237286   1.477   3.719   0.112  0.3745 -0.0769  0.1370
12448TIP3    H137287   1.445   3.728   0.022 -0.8801  0.1134  0.5807
12448TIP3    H237288   1.532   3.796   0.126  0.7235 -0.2039 -0.5224
12449TIP3   OH237289   4.277   4.690   5.096 -0.4134  0.0649  0.5188
12449TIP3    H137290   4.212   4.619   5.101 -0.9368  0.5838  1.2311
12449TIP3    H237291   4.240   4.750   5.032  0.6257 -0.8984 -0.9935
12450TIP3   OH237292   3.674   7.144   6.489 -1.0373 -0.1701  0.1061
12450TIP3    H137293   3.769   7.148   6.475 -1.2989  1.8501 -1.3621
12450TIP3    H237294   3.662   7.077   6.557  1.7700  2.2928  3.2071
12451TIP3   OH237295   1.344   0.724   0.816 -0.3338  0.5437 -0.0343
12451TIP3    H137296   1.398   0.662   0.864 -2.2165 -2.0084 -1.1239
12451TIP3    H237297   1.387   0.732   0.730  1.0744  2.4223  0.8048
12452TIP3   OH237298   5.236   7.055   5.812 -0.6818 -0.5116  0.6954
12452TIP3    H137299   5.250   6.972   5.857 -1.4618 -0.0548  1.7846
12452TIP3    H237300   5.244   7.032   5.719  2.5434 -1.1577  1.0458
12453TIP3   OH237301   4.204   7.177   4.345  0.1573 -0.5734 -0.1785
12453TIP3    H137302   4.265   7.141   4.281 -1.1924 -0.3407 -1.6193
12453TIP3    H237303   4.257   7.240   4.395  2.3209 -3.8322  1.8500
12454TIP3   OH237304   5.134   7.284   5.915 -0.2881 -0.7166 -0.5243
12454TIP3    H137305   5.171   7.355   5.862 -3.8953  0.9353 -0.9579
12454TIP3    H237306   5.160   7.204   5.870  3.5535  0.2637 -0.2236
12455TIP3   OH237307   1.078   0.798   4.916  0.0472  0.4443  0.2667
12455TIP3    H137308   1.119   0.742   4.851 -0.5395  0.5205 -0.1654
12455TIP3    H237309   1.004   0.748   4.949  0.1141  0.5616  0.6012
12456TIP3   OH237310   6.248   5.045   3.987 -0.1448  0.5100 -0.2680
12456TIP3    H137311   6.266   5.108   4.056  0.6065  0.6698 -0.6111
12456TIP3    H237312   6.254   4.960   4.031 -0.2669  0.6348 -0.0069
12457TIP3   OH237313   4.998   6.316   3.641  0.5307 -0.4800  0.1404
12457TIP3    H137314   5.007   6.407   3.672 -0.0105 -0.7660  1.1731
12457TIP3    H237315   5.054   6.312   3.563  1.0310  0.5790  0.4233
12458TIP3   OH237316   1.114   1.982   0.675 -0.6217 -0.2644 -0.6075
12458TIP3    H137317   1.201   2.011   0.702 -0.8620 -0.7484  0.6872
12458TIP3    H237318   1.056   2.006   0.748 -1.5045 -0.3670 -1.2577
12459TIP3   OH237319   2.129   1.589   0.234 -0.1567  0.3031 -0.0140
12459TIP3    H137320   2.166   1.571   0.147 -1.6752  1.9375 -1.0384
12459TIP3    H237321   2.076   1.512   0.253 -0.8707  0.5073 -1.1398
12460TIP3   OH237322   3.791   0.647   4.732 -0.0180 -0.0647 -0.3880
12460TIP3    H137323   3.877   0.660   4.691  0.8689 -1.1007  1.1383
12460TIP3    H237324   3.736   0.716   4.693  1.6309  0.9440 -0.9704
12461TIP3   OH237325   3.076   6.621   6.313  0.2163  0.6762 -0.0242
12461TIP3    H137326   3.133   6.586   6.383 -0.5388 -0.0735  0.2240
12461TIP3    H237327   3.136   6.669   6.256  1.0579  0.1606  0.4057
12462TIP3   OH237328   4.595   7.510   4.631 -0.0761  0.1252  0.1185
12462TIP3    H137329   4.517   7.566   4.634 -0.0136  0.1642  2.1417
12462TIP3    H237330   4.667   7.572   4.619 -0.1934  0.2705  0.1554
12463TIP3   OH237331   0.993   4.071   1.110 -0.3512 -0.6235 -0.1999
12463TIP3    H137332   1.034   4.048   1.193 -2.6983 -1.0351  0.8744
12463TIP3    H237333   0.996   3.990   1.059 -0.1354 -0.7405 -0.0022
12464TIP3   OH237334   6.519   4.396   3.491  0.1996  0.4485 -0.6995
12464TIP3    H137335   6.467   4.431   3.563  1.0570 -0.8994  0.6228
12464TIP3    H237336   6.606   4.384   3.528 -0.2393 -3.8127 -0.7658
12465TIP3   OH237337   4.034   3.623   1.813  0.1798 -0.5797  0.4359
12465TIP3    H137338   4.002   3.535   1.832  1.8610 -1.5187 -0.9907
12465TIP3    H237339   3.998   3.643   1.727 -0.5592  0.3223  0.9430
12466TIP3   OH237340   2.822   4.737   1.079  0.4573  0.0825  0.0968
12466TIP3    H137341   2.870   4.655   1.082  0.1634 -0.1241 -0.9257
12466TIP3    H237342   2.878   4.797   1.031  0.6142  0.4527  0.7274
12467TIP3   OH237343   1.139   1.062   1.057  0.0447  0.3658  0.2989
12467TIP3    H137344   1.144   1.077   1.152  1.8744  0.9696  0.1217
12467TIP3    H237345   1.045   1.061   1.038 -0.3170  1.6022  1.9002
12468TIP3   OH237346   5.959   7.339   5.930 -0.0551 -0.0624  0.1100
12468TIP3    H137347   5.950   7.244   5.918 -0.7874  0.0892 -0.5976
12468TIP3    H237348   5.914   7.377   5.854  0.1434  0.8543  0.4456
12469TIP3   OH237349   7.009   6.813   5.127  0.2814 -0.5488  0.3719
12469TIP3    H137350   7.084   6.853   5.170  0.4577  0.8674 -1.1810
12469TIP3    H237351   6.939   6.814   5.193  0.7134  1.0109  0.8249
12470TIP3   OH237352   6.909   6.666   4.933  0.5531  0.1891  0.2065
12470TIP3    H137353   6.952   6.705   5.009  1.2442  0.5450 -0.3497
12470TIP3    H237354   6.917   6.733   4.865  0.7959 -0.5011 -0.4497
12471TIP3   OH237355   6.221   7.401   3.998 -0.1010  0.2211  0.5378
12471TIP3    H137356   6.225   7.306   4.012  3.1680 -0.0847 -1.8134
12471TIP3    H237357   6.199   7.437   4.084  3.4865 -2.4500  2.7369
12472TIP3   OH237358   1.899   0.274   4.971  0.3615  0.2447  0.1685
12472TIP3    H137359   1.926   0.263   5.062 -1.3106 -0.5416  0.5930
12472TIP3    H237360   1.833   0.206   4.956 -1.3087  1.9965 -0.8167
12473TIP3   OH237361   8.011   7.110   4.678 -0.1611  0.3839 -0.3085
12473TIP3    H137362   7.974   7.164   4.749 -0.9022  0.3940 -0.6925
12473TIP3    H237363   8.043   7.032   4.722 -1.7807 -0.1914 -0.0964
12474TIP3   OH237364   8.292   0.088   4.498  0.2642  0.1324  0.0626
12474TIP3    H137365   8.378   0.054   4.472  0.7326  1.4253 -0.1123
12474TIP3    H237366   8.296   0.091   4.594 -0.3559 -1.7752  0.1603
12475TIP3   OH237367   0.664   6.307   2.901 -0.1002 -0.4610 -0.6396
12475TIP3    H137368   0.756   6.330   2.895 -0.1599 -0.2678 -0.8195
12475TIP3    H237369   0.617   6.386   2.872 -0.3739  0.1693  1.4088
12476TIP3   OH237370   5.167   5.442   4.576  0.2220  0.7100  0.8086
12476TIP3    H137371   5.210   5.357   4.574 -0.6650  0.2661  0.4446
12476TIP3    H237372   5.238   5.504   4.590  0.8800 -0.0825  1.0417
12477TIP3   OH237373   5.976   6.102   4.594 -0.0154  0.1946 -0.4046
12477TIP3    H137374   5.885   6.108   4.626  0.5342  0.0414  1.2243
12477TIP3    H237375   5.991   6.186   4.551 -0.9853  0.1583 -0.8341
12478TIP3   OH237376   4.879   7.157   2.618 -0.7811  0.0235  0.0484
12478TIP3    H137377   4.859   7.175   2.710  1.5688  1.4153  0.3177
12478TIP3    H237378   4.957   7.102   2.621  0.0239  1.0678 -1.1263
12479TIP3   OH237379   5.685   6.662   4.135  0.4672  0.2120 -0.2820
12479TIP3    H137380   5.671   6.668   4.041 -0.8349 -0.1368 -0.1199
12479TIP3    H237381   5.700   6.570   4.152  1.8463  0.4292 -0.2936
12480TIP3   OH237382   4.787   6.986   6.505  0.3705 -0.2342 -0.2511
12480TIP3    H137383   4.861   6.970   6.564 -0.4487 -2.3403  0.2378
12480TIP3    H237384   4.781   7.081   6.500  1.8230 -0.0311  1.3216
12481TIP3   OH237385   6.060   7.859   4.216 -0.1749  0.0444  0.0676
12481TIP3    H137386   6.128   7.875   4.282  0.5542  1.2677 -0.9746
12481TIP3    H237387   6.031   7.946   4.190 -1.3829 -0.4625 -0.2960
12482TIP3   OH237388   2.198   2.552   0.401  0.2174 -0.1051 -0.4225
12482TIP3    H137389   2.264   2.618   0.422 -0.1078  0.3640 -0.8669
12482TIP3    H237390   2.139   2.596   0.340  0.5253 -1.0921 -1.4473
12483TIP3   OH237391   6.649   5.927   5.243  0.3906  0.2053 -0.1300
12483TIP3    H137392   6.579   5.992   5.249  0.6702  0.3529  2.2586
12483TIP3    H237393   6.723   5.974   5.206  0.3979  1.1183  1.0057
12484TIP3   OH237394   3.996   4.990   6.016 -0.3094  0.1730 -0.0978
12484TIP3    H137395   3.946   5.051   5.962 -1.6858 -1.1194 -0.3132
12484TIP3    H237396   3.936   4.917   6.033  0.7937 -0.4220  1.4293
12485TIP3   OH237397   5.915   7.695   3.989 -0.1438 -0.3583 -0.2489
12485TIP3    H137398   5.903   7.612   3.944 -1.7026  0.2051 -0.9072
12485TIP3    H237399   5.934   7.758   3.919  2.0593 -0.3336  0.3331
12486TIP3   OH237400   7.015   7.979   4.293  0.0605 -0.1142 -0.3300
12486TIP3    H137401   6.976   7.894   4.316 -0.1263  0.3733  1.2587
12486TIP3    H237402   7.089   7.988   4.353  0.0469  0.8685 -0.4524
12487TIP3   OH237403   7.471   6.396   5.130 -0.3800 -0.4546 -0.3641
12487TIP3    H137404   7.547   6.351   5.166  0.6000  0.1395 -1.6438
12487TIP3    H237405   7.507   6.475   5.089 -1.7137 -0.0202 -0.7359
12488TIP3   OH237406   7.437   0.569   6.476 -0.2968 -0.8866  0.7188
12488TIP3    H137407   7.417   0.622   6.399 -0.9898  0.4035  1.7680
12488TIP3    H237408   7.397   0.484   6.457 -0.8045 -0.4620 -0.1698
12489TIP3   OH237409   6.927   7.404   4.206  0.7439  0.3473 -0.8731
12489TIP3    H137410   7.018   7.396   4.178  0.2623  0.6808 -2.6191
12489TIP3    H237411   6.886   7.456   4.136 -1.1616 -1.2232 -0.9412
12490TIP3   OH237412   4.614   6.094   6.840  0.1062  0.1307  0.2685
12490TIP3    H137413   4.602   6.000   6.841  2.0262 -0.2403 -3.7436
12490TIP3    H237414   4.704   6.107   6.871 -0.0266  0.6492  0.4587
12491TIP3   OH237415   8.347   0.482   6.484  0.4390  0.0615  0.3571
12491TIP3    H137416   8.436   0.482   6.446  0.6050  0.0312  0.7427
12491TIP3    H237417   8.361   0.496   6.578  0.0698 -0.4688  0.4948
12492TIP3   OH237418   4.467   7.970   6.793 -0.6931 -0.0332 -0.6509
12492TIP3    H137419   4.509   7.991   6.709 -1.6543  1.4949 -0.7825
12492TIP3    H237420   4.520   7.900   6.830  0.7797  0.4870 -1.7323
12493TIP3   OH237421   0.253   1.496   4.314 -0.4639  0.1820  0.0037
12493TIP3    H137422   0.222   1.449   4.236 -1.8892  0.0715  0.6179
12493TIP3    H237423   0.179   1.552   4.339 -0.5646 -0.8959  2.1592
12494TIP3   OH237424   1.045   3.207   0.923 -0.1302 -0.5529  0.4802
12494TIP3    H137425   0.988   3.218   0.847  0.7195 -0.2549 -0.1357
12494TIP3    H237426   1.003   3.139   0.975  0.3143 -2.2440 -1.2985
12495TIP3   OH237427   8.186   1.791   1.914 -0.0426 -0.1240 -0.4499
12495TIP3    H137428   8.270   1.750   1.892 -1.9103 -2.8461 -2.8891
12495TIP3    H237429   8.152   1.739   1.987 -0.5273 -0.2936 -0.7936
12496TIP3   OH237430   0.791   0.012   4.565  0.1688  0.0531  0.4841
12496TIP3    H137431   0.835   0.094   4.545  0.9813 -0.4161  0.3395
12496TIP3    H237432   0.847  -0.056   4.528 -2.0138 -0.4201 -2.0951
12497TIP3   OH237433   5.069   4.487   0.256 -0.1045  0.3391  0.2714
12497TIP3    H137434   5.040   4.407   0.212  1.3967 -0.4861  0.7521
12497TIP3    H237435   5.012   4.556   0.221 -1.6174 -0.9907  0.0914
12498TIP3   OH237436   3.622   2.942   0.395 -0.5294 -0.3441  0.1683
12498TIP3    H137437   3.680   2.869   0.419  1.2715  0.9978 -0.0100
12498TIP3    H237438   3.626   3.001   0.470 -1.6952 -0.2380  0.1558
12499TIP3   OH237439   6.506   5.259   4.785  0.2004  0.4495 -0.1616
12499TIP3    H137440   6.559   5.181   4.767 -0.6167  0.2650 -1.7747
12499TIP3    H237441   6.570   5.325   4.812  0.7769 -1.1486  2.6657
12500TIP3   OH237442   2.010   1.197   1.711  0.2847 -0.0098 -0.0970
12500TIP3    H137443   1.986   1.252   1.637 -1.5814 -0.4077  0.2030
12500TIP3    H237444   2.104   1.213   1.723  0.3889  0.8132 -1.8967
12501TIP3   OH237445   5.023   6.763   6.743 -0.1317 -0.2564 -0.3117
12501TIP3    H137446   5.018   6.838   6.684  1.0296 -0.2763 -0.4505
12501TIP3    H237447   5.101   6.780   6.796 -0.0532 -1.2052 -0.1254
12502TIP3   OH237448   5.789   5.953   3.418  0.1236  0.3194  0.8100
12502TIP3    H137449   5.812   5.915   3.333  1.3634  1.1225  0.7627
12502TIP3    H237450   5.800   5.881   3.480 -1.4850 -0.4624  0.2067
12503TIP3   OH237451   5.527   6.103   3.851 -0.2062 -0.1671  0.1112
12503TIP3    H137452   5.547   6.089   3.758  0.9718 -1.2964  0.5262
12503TIP3    H237453   5.490   6.192   3.854 -1.2281 -0.5181 -1.5751
12504TIP3   OH237454   6.325   6.307   4.706  0.3294  0.5349  0.1474
12504TIP3    H137455   6.295   6.391   4.670  0.1975 -0.1586 -1.3627
12504TIP3    H237456   6.244   6.259   4.723  0.3699  0.9802  1.7313
12505TIP3   OH237457   2.736   2.187   0.569 -0.2718 -0.2099 -0.0742
12505TIP3    H137458   2.744   2.277   0.537 -0.0907 -0.8284 -1.8237
12505TIP3    H237459   2.816   2.144   0.540 -0.6594 -1.1087  0.1727
12506TIP3   OH237460   6.613   6.714   4.412  0.0601 -0.3416  0.3508
12506TIP3    H137461   6.549   6.779   4.384 -0.2698 -0.2022  1.3979
12506TIP3    H237462   6.568   6.630   4.401 -0.4271 -0.2225  1.4000
12507TIP3   OH237463   3.786   2.171   0.259 -0.7043  0.0048 -0.0073
12507TIP3    H137464   3.797   2.103   0.325 -1.4254 -2.6563 -2.5228
12507TIP3    H237465   3.859   2.231   0.273 -0.2101 -1.1328  2.4268
12508TIP3   OH237466   7.841   7.540   4.699 -0.0099 -0.0757  0.2667
12508TIP3    H137467   7.778   7.580   4.758 -1.0923 -0.7832 -0.3914
12508TIP3    H237468   7.809   7.450   4.686  0.3298 -0.0058 -1.1860
12509TIP3   OH237469   3.272   4.014   0.187 -0.1525 -0.2395 -0.0327
12509TIP3    H137470   3.276   3.966   0.105 -0.0543  0.7876 -0.6410
12509TIP3    H237471   3.302   3.951   0.253  1.1004 -0.6597 -0.9655
12510TIP3   OH237472   0.642   0.741   3.323  0.2238 -0.0979  0.6371
12510TIP3    H137473   0.644   0.698   3.409  0.3212 -1.5470 -0.0752
12510TIP3    H237474   0.641   0.669   3.260 -1.8910  0.9318 -0.5539
12511TIP3   OH237475   4.237   6.423   6.104 -0.0837 -0.2273  0.1105
12511TIP3    H137476   4.297   6.353   6.131 -0.1310  0.2974  1.5882
12511TIP3    H237477   4.295   6.494   6.075 -0.0370 -1.1605 -2.2206
12512TIP3   OH237478   5.666   3.876   6.869  0.2928  0.1133  0.4482
12512TIP3    H137479   5.666   3.862   6.774 -0.4216  2.8601  0.0016
12512TIP3    H237480   5.748   3.838   6.899  0.0443 -1.7067 -1.1274
12513TIP3   OH237481   5.822   6.512   6.745 -0.3866 -0.3302 -0.4195
12513TIP3    H137482   5.726   6.506   6.743 -0.4528  0.3539  0.4503
12513TIP3    H237483   5.839   6.604   6.765  0.4610 -0.3844 -0.8754
12514TIP3   OH237484   5.959   6.675   2.879 -0.0418 -0.1226 -0.1780
12514TIP3    H137485   6.000   6.646   2.961 -0.3238 -3.0938 -1.0243
12514TIP3    H237486   5.892   6.609   2.862 -0.5907  0.9599 -2.3371
12515TIP3   OH237487   6.211   6.265   4.985  0.2257 -0.9140  0.4330
12515TIP3    H137488   6.134   6.319   4.997 -1.5710 -2.9983 -1.3272
12515TIP3    H237489   6.230   6.231   5.073 -0.5281  0.0012  0.9552
12516TIP3   OH237490   5.643   6.724   4.705 -0.0376  0.2857 -0.1314
12516TIP3    H137491   5.610   6.690   4.622  1.1156  1.8092 -1.2362
12516TIP3    H237492   5.574   6.702   4.769 -2.9679  2.8654 -2.2592
12517TIP3   OH237493   6.855   7.601   5.556  0.1245 -0.2074  0.0775
12517TIP3    H137494   6.882   7.693   5.552  1.7242 -0.6512  0.4490
12517TIP3    H237495   6.889   7.570   5.640 -0.4765 -1.1332 -0.0148
12518TIP3   OH237496   5.181   7.020   5.123 -0.1642  0.1514  0.0658
12518TIP3    H137497   5.153   6.938   5.163  0.0969  0.5521  1.0667
12518TIP3    H237498   5.247   7.055   5.182  0.5377  0.5361 -0.9248
12519TIP3   OH237499   4.874   5.575   6.340  0.2680 -0.0236  0.4525
12519TIP3    H137500   4.859   5.570   6.245  2.8354 -0.8013  0.0378
12519TIP3    H237501   4.830   5.655   6.367 -2.5966 -1.0250 -0.9457
12520TIP3   OH237502   2.774   3.272   1.188  0.3241 -0.5044 -0.3310
12520TIP3    H137503   2.700   3.220   1.157 -0.3881 -0.0106  0.5042
12520TIP3    H237504   2.812   3.220   1.259  0.8105 -0.7827 -0.7970
12521TIP3   OH237505   4.489   2.708   0.779  0.3307 -0.5480  0.0302
12521TIP3    H137506   4.444   2.634   0.819 -0.6651  0.4935  0.8740
12521TIP3    H237507   4.552   2.737   0.845  0.7917 -0.6958 -0.3369
12522TIP3   OH237508   6.281   6.759   5.420  0.1491 -0.4850  0.1482
12522TIP3    H137509   6.353   6.821   5.410 -0.1615 -0.3641 -1.4806
12522TIP3    H237510   6.292   6.724   5.509  0.6147  1.5286  0.9332
12523TIP3   OH237511   6.354   6.511   5.558  0.3323  0.6346 -0.0892
12523TIP3    H137512   6.342   6.581   5.622  0.6400 -2.0560  3.0238
12523TIP3    H237513   6.447   6.516   5.534  0.4936  0.9084  0.5849
12524TIP3   OH237514   3.744   4.221   1.016 -0.3405  0.0175 -0.1070
12524TIP3    H137515   3.840   4.215   1.024 -0.5157 -2.3969  0.6632
12524TIP3    H237516   3.730   4.244   0.924  0.9806 -1.1228 -0.6294
12525TIP3   OH237517   8.498   0.601   4.077 -0.7456  0.2426  0.1588
12525TIP3    H137518   8.546   0.678   4.047 -1.9363  0.5239 -1.0870
12525TIP3    H237519   8.427   0.590   4.013  0.2447 -2.7396 -0.5098
12526TIP3   OH237520   2.373   2.777   0.409 -0.3139  0.0255 -0.3723
12526TIP3    H137521   2.464   2.758   0.431 -0.4739  0.8587  1.1290
12526TIP3    H237522   2.348   2.847   0.470 -1.9791 -0.2559 -0.7057
12527TIP3   OH237523   0.541   0.866   5.841  0.4201 -0.5004  0.6059
12527TIP3    H137524   0.500   0.847   5.926  0.5957 -0.4666  0.7006
12527TIP3    H237525   0.607   0.797   5.831  0.1576 -0.7085  0.3322
12528TIP3   OH237526   2.751   5.873   4.642  0.5152  0.6329  0.1246
12528TIP3    H137527   2.763   5.952   4.589 -0.0040 -0.2324 -1.2799
12528TIP3    H237528   2.663   5.842   4.619  1.5107 -1.4985 -0.8234
12529TIP3   OH237529   8.441   1.547   5.168 -0.5055 -0.3411  0.1312
12529TIP3    H137530   8.493   1.486   5.221  0.4062  0.6743  0.4104
12529TIP3    H237531   8.499   1.622   5.155 -0.9852 -0.2812 -1.7080
12530TIP3   OH237532   5.255   6.833   5.971  0.1201  0.1021  0.1632
12530TIP3    H137533   5.306   6.758   5.942  0.2713  0.6264 -0.9274
12530TIP3    H237534   5.188   6.796   6.029  3.7749 -0.2532  4.4095
12531TIP3   OH237535   0.644   0.439   5.186 -0.4491  0.7351 -0.9386
12531TIP3    H137536   0.558   0.400   5.171 -1.2763  2.0086  0.3195
12531TIP3    H237537   0.628   0.507   5.251  1.5326  0.9548 -0.6539
12532TIP3   OH237538   3.492   7.291   6.319  0.0041  0.0978 -0.2986
12532TIP3    H137539   3.529   7.234   6.387  2.8948  0.5749 -1.3975
12532TIP3    H237540   3.568   7.336   6.282 -1.8358  1.8958 -1.9896
12533TIP3   OH237541   1.507   0.575   5.827  0.2128  0.0021 -0.1626
12533TIP3    H137542   1.534   0.566   5.735  0.2103  0.5309 -0.2174
12533TIP3    H237543   1.418   0.540   5.830 -0.4974  1.6978 -0.7514
12534TIP3   OH237544   6.410   6.501   3.262  0.4598 -0.0741 -0.0218
12534TIP3    H137545   6.323   6.539   3.250  0.4040 -0.0850  0.3310
12534TIP3    H237546   6.410   6.424   3.205  0.7788  0.7685 -1.1578
12535TIP3   OH237547   3.334   5.035   0.424 -0.2003  0.0769  0.4193
12535TIP3    H137548   3.276   4.959   0.428 -0.4813  0.2824  0.2147
12535TIP3    H237549   3.297   5.097   0.486 -0.3321  0.3017  0.1137
12536TIP3   OH237550   1.525   1.695   5.314  0.2382  0.0667  0.1938
12536TIP3    H137551   1.479   1.619   5.351 -0.4777  1.3352  2.0239
12536TIP3    H237552   1.505   1.692   5.221 -0.4516 -1.5369  0.3683
12537TIP3   OH237553   4.711   7.798   3.977  0.3677  0.4206  0.0571
12537TIP3    H137554   4.700   7.706   3.954  1.3071  0.5065 -0.7402
12537TIP3    H237555   4.735   7.797   4.070 -1.0957 -0.0490  0.4412
12538TIP3   OH237556   1.698   2.543   0.247 -0.2233 -0.4662  0.0806
12538TIP3    H137557   1.767   2.484   0.279  1.2225  1.4272  0.4964
12538TIP3    H237558   1.617   2.491   0.256  0.7072 -1.5983  2.5501
12539TIP3   OH237559   2.764   2.876   0.002 -0.0483  0.3944  0.4286
12539TIP3    H137560   2.717   2.800   0.037 -1.5953  0.5196 -1.2901
12539TIP3    H237561   2.714   2.952   0.032  1.7354  0.8031  2.5031
12540TIP3   OH237562   5.731   7.383   6.405  0.1559 -0.4285 -0.1714
12540TIP3    H137563   5.730   7.288   6.416 -0.3475 -0.4759 -0.6286
12540TIP3    H237564   5.781   7.398   6.325 -1.1636 -0.4018 -1.0025
12541TIP3   OH237565   6.657   6.834   4.699  0.1213 -0.3870 -0.1615
12541TIP3    H137566   6.637   6.771   4.629  2.4139  0.6183 -1.8092
12541TIP3    H237567   6.753   6.831   4.706 -0.1281 -1.2782  3.7491
12542TIP3   OH237568   7.766   0.259   6.405 -0.3527 -0.7683 -0.0291
12542TIP3    H137569   7.792   0.344   6.369 -1.8029  0.1820  1.1392
12542TIP3    H237570   7.846   0.206   6.400  0.2412  0.2517 -1.9243
12543TIP3   OH237571   6.517   4.432   6.595  0.1737 -0.5100  0.3890
12543TIP3    H137572   6.455   4.365   6.623 -0.9209  0.7302  0.9777
12543TIP3    H237573   6.481   4.465   6.513  2.3692 -2.7988 -1.5586
12544TIP3   OH237574   5.778   6.371   3.689  0.3022  0.3455 -0.0166
12544TIP3    H137575   5.800   6.297   3.632 -2.6893 -0.2806 -0.4432
12544TIP3    H237576   5.794   6.339   3.777  3.4619  0.7994 -0.3510
12545TIP3   OH237577   5.735   7.229   5.456 -0.1241  0.3860 -0.2673
12545TIP3    H137578   5.813   7.264   5.499 -0.3842 -0.3157  0.8069
12545TIP3    H237579   5.765   7.206   5.368  0.7374  0.6708 -0.0587
12546TIP3   OH237580   1.707   0.600   0.130  0.4146  0.0884  0.1912
12546TIP3    H137581   1.788   0.559   0.099  0.3176  1.5272 -2.0311
12546TIP3    H237582   1.677   0.542   0.201  2.4951 -1.3517 -0.0578
12547TIP3   OH237583   6.456   7.473   6.371  0.5105 -0.5664  0.5543
12547TIP3    H137584   6.399   7.532   6.420  0.3914  0.2215 -0.4904
12547TIP3    H237585   6.409   7.390   6.367 -0.3425 -0.0712  0.1424
12548TIP3   OH237586   0.550   0.022   6.043 -0.0897  0.7549  0.2305
12548TIP3    H137587   0.466   0.002   6.085 -0.2639  2.4195  0.7217
12548TIP3    H237588   0.530   0.094   5.983  0.6710  0.0849 -0.8446
12549TIP3   OH237589   3.797   2.858   0.733 -0.1926 -0.0359 -0.1776
12549TIP3    H137590   3.867   2.898   0.786 -1.6220  0.7777  1.1515
12549TIP3    H237591   3.813   2.889   0.644  1.2025  0.0396  0.0838
12550TIP3   OH237592   4.186   7.623   3.985  0.1228  0.6391  0.6623
12550TIP3    H137593   4.167   7.704   3.940 -0.9880  0.1507  0.2436
12550TIP3    H237594   4.102   7.577   3.990  1.0859 -1.4067 -0.9525
12551TIP3   OH237595   5.418   6.261   6.341  0.6993  0.0479 -0.2944
12551TIP3    H137596   5.410   6.173   6.305 -1.0336  0.5038 -1.0982
12551TIP3    H237597   5.423   6.248   6.435  1.3787 -0.9493 -0.4567
12552TIP3   OH237598   4.006   2.331   1.007 -0.0915 -0.3564 -0.4124
12552TIP3    H137599   3.921   2.317   0.965 -0.0042  1.5558 -1.2492
12552TIP3    H237600   4.070   2.322   0.937  0.4250 -1.8242  0.2192
12553TIP3   OH237601   5.035   7.925   6.379  0.4298 -0.0318  0.1846
12553TIP3    H137602   5.019   7.836   6.348 -0.0958  0.6335 -1.4938
12553TIP3    H237603   5.032   7.979   6.300  0.1342  1.5600  1.2588
12554TIP3   OH237604   7.792   0.257   4.535 -0.8247  0.1034  0.2711
12554TIP3    H137605   7.718   0.252   4.595 -0.9273  0.8364  0.2073
12554TIP3    H237606   7.762   0.216   4.454 -0.5892 -1.1648  0.8099
12555TIP3   OH237607   4.550   4.757   5.690 -0.4341  0.1187 -0.4361
12555TIP3    H137608   4.496   4.684   5.659 -0.3485  0.1792 -0.7294
12555TIP3    H237609   4.540   4.755   5.785  1.2238 -1.5473 -0.2763
12556TIP3   OH237610   6.161   6.982   5.561 -0.2331 -0.5405 -0.0949
12556TIP3    H137611   6.185   7.021   5.477  0.7305  1.0506  0.8943
12556TIP3    H237612   6.195   6.892   5.557  1.4361  0.0986 -0.7073
12557TIP3   OH237613   6.259   6.195   6.414 -0.7022  0.4932 -0.4627
12557TIP3    H137614   6.198   6.126   6.388  0.2865 -1.3068  1.7623
12557TIP3    H237615   6.344   6.164   6.383 -0.5573  1.7876 -1.3743
12558TIP3   OH237616   3.431   7.866   4.011  0.0640  0.1659 -0.4890
12558TIP3    H137617   3.455   7.946   4.057  0.2726 -0.2551  0.1482
12558TIP3    H237618   3.472   7.874   3.924 -0.1535  0.8678 -0.5221
12559TIP3   OH237619   3.968   6.100   6.419 -0.2059  0.5190 -0.2938
12559TIP3    H137620   3.953   6.191   6.391  0.5131  0.6760 -0.1803
12559TIP3    H237621   4.063   6.093   6.428 -0.1569 -0.6268 -1.5608
12560TIP3   OH237622   7.838   6.467   4.407  0.4060  0.1798 -0.5622
12560TIP3    H137623   7.766   6.426   4.455  0.4081  0.2703 -0.4830
12560TIP3    H237624   7.904   6.486   4.473  0.8764 -0.7227 -0.7740
12561TIP3   OH237625   5.704   7.213   2.659  0.1222 -0.3791 -0.0810
12561TIP3    H137626   5.706   7.130   2.611  0.6693 -0.5879  0.2907
12561TIP3    H237627   5.662   7.191   2.743 -2.1507  0.2967 -1.0260
12562TIP3   OH237628   3.770   7.193   4.861  0.4099  0.6222 -0.0143
12562TIP3    H137629   3.756   7.224   4.950 -1.5723 -0.6234  0.1413
12562TIP3    H237630   3.719   7.252   4.806 -0.1042  0.0925 -0.1084
12563TIP3   OH237631   3.969   6.246   5.684  0.1372 -0.0623  0.2513
12563TIP3    H137632   3.941   6.266   5.595 -0.9417  1.5304  0.9224
12563TIP3    H237633   4.024   6.168   5.676 -1.6347 -1.1492 -1.5416
12564TIP3   OH237634   5.598   6.707   3.885  0.6089 -0.0436 -0.2479
12564TIP3    H137635   5.508   6.721   3.855  0.0438  0.0954  1.4433
12564TIP3    H237636   5.652   6.718   3.806 -0.8337  0.0434 -1.2427
12565TIP3   OH237637   5.914   6.083   6.755  0.9228  0.2175  0.3393
12565TIP3    H137638   5.891   6.013   6.694  1.2470 -0.1501  0.6296
12565TIP3    H237639   5.860   6.066   6.832  0.7587  0.4826  0.2827
12566TIP3   OH237640   6.611   7.305   5.173 -0.4430 -0.0097 -0.0474
12566TIP3    H137641   6.567   7.376   5.219 -1.1453 -0.1694 -0.4619
12566TIP3    H237642   6.700   7.337   5.159 -0.5598  0.5098  0.3695
12567TIP3   OH237643   3.167   6.320   5.794 -0.2222  0.0098 -0.0803
12567TIP3    H137644   3.128   6.382   5.856  1.5550  1.3240 -0.2292
12567TIP3    H237645   3.152   6.360   5.708 -0.2656 -0.4530 -0.2871
12568TIP3   OH237646   1.898   4.707   3.497 -0.0700 -0.0390 -0.0648
12568TIP3    H137647   1.983   4.666   3.513 -0.1157  0.2909  1.0102
12568TIP3    H237648   1.838   4.661   3.555 -0.6481 -0.3018 -0.8584
12569TIP3   OH237649   1.627   0.442   2.424 -0.5095 -0.1121 -0.2428
12569TIP3    H137650   1.694   0.503   2.395 -0.9232  0.3307 -0.2768
12569TIP3    H237651   1.546   0.475   2.385 -0.7801 -0.5297 -0.0433
12570TIP3   OH237652   3.103   3.403   1.223 -0.1998 -0.3296  0.0280
12570TIP3    H137653   3.170   3.346   1.259  1.4454  1.2604 -0.4677
12570TIP3    H237654   3.107   3.389   1.128  1.2639  1.6763 -0.2466
12571TIP3   OH237655   1.120   7.454   4.868 -0.4557 -0.4619 -1.0731
12571TIP3    H137656   1.149   7.366   4.891 -0.2134 -0.1212 -0.0602
12571TIP3    H237657   1.076   7.444   4.783 -0.6838 -1.6020 -0.8206
12572TIP3   OH237658   5.595   6.018   6.584  0.1673 -0.1750  0.4792
12572TIP3    H137659   5.619   5.991   6.672 -0.0981 -0.2342  0.5356
12572TIP3    H237660   5.521   6.077   6.596 -0.8169 -1.3253  0.2235
12573TIP3   OH237661   7.190   5.512   4.997  0.0163 -0.1985  0.4381
12573TIP3    H137662   7.114   5.475   4.952 -0.4408  0.4492  0.6734
12573TIP3    H237663   7.160   5.597   5.030  0.6850 -0.1724  0.9904
12574TIP3   OH237664   4.917   6.969   4.524  0.2305 -0.0360 -0.3993
12574TIP3    H137665   4.981   7.030   4.488  0.9803 -2.0317 -2.5644
12574TIP3    H237666   4.834   6.994   4.484  0.3873  0.0744 -0.6555
12575TIP3   OH237667   5.131   6.456   6.555 -0.3840  0.9088  0.0836
12575TIP3    H137668   5.078   6.532   6.534  1.2522  2.0173 -0.0774
12575TIP3    H237669   5.082   6.382   6.518 -1.7304  1.9114 -0.1895
12576TIP3   OH237670   1.567   0.481   5.541  0.1354  0.3032 -0.1980
12576TIP3    H137671   1.636   0.488   5.475 -0.3412  0.5829 -0.6725
12576TIP3    H237672   1.498   0.539   5.509 -0.5397 -0.3839 -0.0055
12577TIP3   OH237673   2.414   2.241   0.398  0.1864 -0.6110 -0.0448
12577TIP3    H137674   2.497   2.260   0.353 -1.3342  2.6411 -1.6566
12577TIP3    H237675   2.358   2.205   0.329 -0.8800  0.6103  0.1780
12578TIP3   OH237676   6.570   5.761   6.399 -0.1282 -0.4918  0.5044
12578TIP3    H137677   6.489   5.711   6.410 -0.0289 -0.5728  0.8604
12578TIP3    H237678   6.543   5.839   6.350 -0.0048 -1.6114 -1.3543
12579TIP3   OH237679   0.675   0.786   6.483 -0.2354  0.3427 -0.0575
12579TIP3    H137680   0.678   0.733   6.404 -0.4878 -0.2969  0.3631
12579TIP3    H237681   0.640   0.871   6.453  1.5060  0.7584 -0.9726
12580TIP3   OH237682   2.030   2.084   0.645  0.0871 -0.3035  0.9930
12580TIP3    H137683   2.099   2.062   0.582 -0.2712 -1.2128  0.9106
12580TIP3    H237684   2.025   2.179   0.644  1.4315 -0.2254  1.0874
12581TIP3   OH237685   6.247   7.300   3.323 -0.7214  0.1350  0.1495
12581TIP3    H137686   6.340   7.319   3.337 -0.3410 -0.5588 -1.3133
12581TIP3    H237687   6.243   7.262   3.235 -2.5936  1.5727 -0.4286
12582TIP3   OH237688   6.281   7.152   5.315  0.1746  0.7590  0.2544
12582TIP3    H137689   6.209   7.100   5.278  0.7568 -1.0835  1.6407
12582TIP3    H237690   6.328   7.184   5.238 -0.4659 -0.4004 -0.6571
12583TIP3   OH237691   6.519   7.663   6.031  0.1935 -0.0397  0.3074
12583TIP3    H137692   6.587   7.596   6.032  0.9482  0.7228  0.3693
12583TIP3    H237693   6.448   7.625   6.082  1.1392 -0.2495  1.4783
12584TIP3   OH237694   6.383   7.723   4.589 -0.3476  0.2983 -0.2783
12584TIP3    H137695   6.445   7.779   4.635 -0.9092  0.0723  0.7704
12584TIP3    H237696   6.410   7.634   4.610  0.3728  0.1619 -1.7159
12585TIP3   OH237697   3.583   2.513   0.560 -0.6883  0.4481  0.0483
12585TIP3    H137698   3.595   2.558   0.643 -0.2151 -0.2095  0.3407
12585TIP3    H237699   3.527   2.438   0.581  2.7039 -2.0381  0.5933
12586TIP3   OH237700   1.706   0.729   5.117  0.1566  0.0430 -0.1338
12586TIP3    H137701   1.670   0.676   5.188  0.1454 -0.6782 -0.6805
12586TIP3    H237702   1.737   0.666   5.052 -0.2357  0.7078 -0.9791
12587TIP3   OH237703   2.956   2.720   2.449 -0.3225 -0.4867  0.4075
12587TIP3    H137704   2.932   2.628   2.438 -0.4819 -0.5332  1.1187
12587TIP3    H237705   2.890   2.755   2.508 -1.1978  0.4943 -1.1139
12588TIP3   OH237706   3.139   2.730   0.020  0.0952  0.3409 -0.1565
12588TIP3    H137707   3.056   2.762  -0.013 -0.5353  0.3097  1.3406
12588TIP3    H237708   3.198   2.805   0.013  0.1544  0.1553 -1.8891
12589TIP3   OH237709   2.294   3.223   1.286 -0.4921 -0.2811  0.2347
12589TIP3    H137710   2.234   3.149   1.290 -0.1822 -0.5043  0.8100
12589TIP3    H237711   2.273   3.276   1.363 -0.9961  0.4559 -0.3993
12590TIP3   OH237712   4.103   1.288   0.940 -0.0012  0.3817  0.3441
12590TIP3    H137713   4.196   1.299   0.921  0.5015 -0.5368  2.1702
12590TIP3    H237714   4.088   1.340   1.019 -0.5103 -1.3979  1.4250
12591TIP3   OH237715   7.989   4.893   4.657  0.4680  0.3446  0.0162
12591TIP3    H137716   8.078   4.906   4.688  0.5385 -0.5012  0.1763
12591TIP3    H237717   7.934   4.943   4.717  0.8820  1.3474 -0.4337
12592TIP3   OH237718   5.080   5.884   6.878  0.0517  0.2262  0.4654
12592TIP3    H137719   5.001   5.830   6.875 -0.0947  0.4564  0.2004
12592TIP3    H237720   5.052   5.966   6.917  0.6745 -0.5671  2.6745
12593TIP3   OH237721   3.386   2.624   1.302  0.4131 -0.6620  0.1626
12593TIP3    H137722   3.412   2.542   1.260 -0.5663 -1.2700  0.7322
12593TIP3    H237723   3.396   2.608   1.396  0.7298  0.0469  0.2536
12594TIP3   OH237724   3.196   1.937   0.223 -0.4247 -0.4483  0.1092
12594TIP3    H137725   3.252   1.905   0.294  0.1123 -2.0169 -0.9994
12594TIP3    H237726   3.136   1.865   0.205  0.2825 -0.5591 -1.8941
12595TIP3   OH237727   5.888   6.248   4.198  0.0275  0.3776  0.5639
12595TIP3    H137728   5.892   6.239   4.293 -1.7604 -0.0483  0.6218
12595TIP3    H237729   5.832   6.324   4.183 -0.1953  0.0789 -0.1490
12596TIP3   OH237730   4.367   7.170   3.613 -0.0994 -0.0233 -0.4065
12596TIP3    H137731   4.288   7.217   3.586 -0.2972 -0.4478 -0.5804
12596TIP3    H237732   4.406   7.226   3.680  0.7681  1.4090 -2.0584
12597TIP3   OH237733   6.565   7.667   2.510  1.0976 -0.1232  0.2091
12597TIP3    H137734   6.557   7.759   2.532  0.2518  0.2594 -1.6486
12597TIP3    H237735   6.496   7.624   2.561 -0.5805  0.6904 -1.3599
12598TIP3   OH237736   0.589   3.147   0.039  0.3412  0.1884 -0.3743
12598TIP3    H137737   0.628   3.201   0.107 -1.3793 -0.8368  1.4728
12598TIP3    H237738   0.603   3.057   0.068  0.1592 -0.2852 -1.7072
12599TIP3   OH237739   4.856   7.787   6.824 -0.0893  0.3792  0.0900
12599TIP3    H137740   4.928   7.728   6.844 -0.0338  0.6464  0.6801
12599TIP3    H237741   4.888   7.841   6.752  0.1958  0.3050  0.1605
12600TIP3   OH237742   5.233   7.352   4.843  0.0086 -0.0337 -0.2296
12600TIP3    H137743   5.316   7.398   4.855 -0.3479  0.8234 -0.9776
12600TIP3    H237744   5.255   7.259   4.851  0.7551  0.2475  1.2373
12601TIP3   OH237745   5.804   5.665   1.277  0.3682  0.0429 -0.0572
12601TIP3    H137746   5.873   5.723   1.311  1.0523 -0.6956 -0.1581
12601TIP3    H237747   5.730   5.679   1.335  0.6559  0.7388  0.1499
12602TIP3   OH237748   2.639   0.098   3.568 -0.6325  0.4035 -0.2364
12602TIP3    H137749   2.627   0.003   3.581 -1.2123  0.6809  1.4477
12602TIP3    H237750   2.554   0.129   3.538 -0.7761  0.5470  0.3009
12603TIP3   OH237751   0.539   0.085   2.951 -0.0978  0.3330  0.0445
12603TIP3    H137752   0.476   0.131   3.007  0.9599 -0.0666  1.5658
12603TIP3    H237753   0.580   0.021   3.008  1.3601  0.2581 -1.0692
12604TIP3   OH237754   5.503   7.516   3.892  0.3578  0.3807  0.3047
12604TIP3    H137755   5.567   7.554   3.831  1.9105 -0.5419  1.3197
12604TIP3    H237756   5.526   7.423   3.896  0.6492  0.5371  2.7416
12605TIP3   OH237757   8.444   0.510   3.819 -0.1666  0.1462 -0.1677
12605TIP3    H137758   8.540   0.501   3.822 -0.3737 -2.4095 -0.0330
12605TIP3    H237759   8.429   0.579   3.755  1.8229  2.1582  1.4403
12606TIP3   OH237760   1.377   0.578   4.182 -0.0500 -0.1812 -0.3637
12606TIP3    H137761   1.429   0.657   4.168  0.4612 -0.3198  0.7017
12606TIP3    H237762   1.288   0.603   4.158  0.3221  0.3599 -1.1899
12607TIP3   OH237763   0.848   0.011   3.924  0.2062  0.1396 -0.0810
12607TIP3    H137764   0.871  -0.062   3.982  1.9454  0.3043 -0.5591
12607TIP3    H237765   0.891   0.087   3.963  0.0916  0.5353 -0.7181
12608TIP3   OH237766   7.229   0.154   5.392  0.0125  0.0053 -0.5275
12608TIP3    H137767   7.276   0.077   5.426  0.2105  0.0381 -0.7292
12608TIP3    H237768   7.143   0.150   5.435 -0.3716 -0.9287 -1.3797
12609TIP3   OH237769   2.231   2.351   0.180 -0.2771 -0.0196 -0.0600
12609TIP3    H137770   2.229   2.400   0.262 -0.3719 -0.4108  0.1758
12609TIP3    H237771   2.152   2.379   0.134  1.4125  2.6290 -1.4711
12610TIP3   OH237772   6.658   7.699   3.634  0.0454 -0.2330 -0.0705
12610TIP3    H137773   6.599   7.633   3.670  0.5330 -1.0839 -0.8078
12610TIP3    H237774   6.733   7.698   3.693  0.3989 -0.9063 -0.5233
12611TIP3   OH237775   7.888   0.550   2.764 -0.2242 -0.1348  0.2356
12611TIP3    H137776   7.816   0.550   2.701 -0.5575 -1.8739  0.5729
12611TIP3    H237777   7.967   0.542   2.710 -0.3828  0.3165 -0.0638
12612TIP3   OH237778   1.946   0.471   3.686 -0.0549 -0.1613  0.4715
12612TIP3    H137779   1.933   0.497   3.595 -3.7357  1.4389  1.3428
12612TIP3    H237780   1.979   0.382   3.681  0.5360  0.1756 -2.4328
12613TIP3   OH237781   7.507   5.671   4.630  0.2027 -0.2419  0.1919
12613TIP3    H137782   7.515   5.625   4.547  1.7406  0.8253 -0.2776
12613TIP3    H237783   7.539   5.760   4.612 -2.1741  0.8767  1.2055
12614TIP3   OH237784   5.697   6.445   5.044  0.5814  0.0829  0.1283
12614TIP3    H137785   5.652   6.464   4.961 -3.4278 -2.0806  1.6545
12614TIP3    H237786   5.676   6.519   5.101 -1.0738 -0.8938  0.8187
12615TIP3   OH237787   1.325   1.203   1.492 -0.4383 -0.3924  0.0722
12615TIP3    H137788   1.412   1.177   1.462 -0.6203 -2.5415  1.3003
12615TIP3    H237789   1.300   1.274   1.433  1.2913 -1.1159 -1.6142
12616TIP3   OH237790   0.920   0.257   4.241  0.2129  0.8830  0.2483
12616TIP3    H137791   0.824   0.264   4.240  0.2127  1.0201 -2.3519
12616TIP3    H237792   0.949   0.327   4.182  1.8981  0.6244  0.7677
12617TIP3   OH237793   5.888   7.192   5.246 -0.3615  0.4971 -0.3867
12617TIP3    H137794   5.918   7.107   5.275 -0.9344  0.4399  0.0518
12617TIP3    H237795   5.873   7.182   5.152 -0.5041  0.0947 -0.3190
12618TIP3   OH237796   1.866   0.326   1.000  0.2265  0.3531 -0.7894
12618TIP3    H137797   1.846   0.405   1.051  1.7273 -0.1465  0.6206
12618TIP3    H237798   1.781   0.282   0.989 -0.3467  1.2702 -0.0855
12619TIP3   OH237799   0.475   0.229   6.595 -0.3144  0.8799 -0.2836
12619TIP3    H137800   0.522   0.312   6.587  1.8292 -0.3409 -0.7920
12619TIP3    H237801   0.539   0.163   6.567 -2.3317 -0.8443 -0.9516
12620TIP3   OH237802   6.351   5.952   3.564  0.2300  0.3033 -0.3537
12620TIP3    H137803   6.258   5.930   3.557  0.3264 -0.0353 -0.5777
12620TIP3    H237804   6.395   5.884   3.513  0.6625 -0.0375  0.4701
12621TIP3   OH237805   6.049   5.094   3.664  0.6272  0.3447 -0.5240
12621TIP3    H137806   6.100   5.014   3.678 -0.5546 -0.3373 -0.0581
12621TIP3    H237807   6.091   5.159   3.720 -0.1936 -0.7303  1.4200
12622TIP3   OH237808   4.232   6.682   2.667  0.8090 -0.0309  0.5218
12622TIP3    H137809   4.144   6.677   2.629  0.7243  2.2029  0.3420
12622TIP3    H237810   4.276   6.748   2.614  1.8961  0.4226  1.9779
12623TIP3   OH237811   5.957   7.405   5.452 -0.0720 -0.0122 -0.1470
12623TIP3    H137812   5.919   7.349   5.385  1.0986  0.6833 -1.4502
12623TIP3    H237813   6.029   7.450   5.406  0.2387  1.0738  1.3717
12624TIP3   OH237814   5.863   5.269   6.776  0.5637  0.3905  1.0473
12624TIP3    H137815   5.789   5.215   6.805  0.4231  0.4894  0.8751
12624TIP3    H237816   5.895   5.311   6.856  0.3142  0.4933  1.0944
12625TIP3   OH237817   1.240   0.436   6.812 -0.3484  0.1487  0.1145
12625TIP3    H137818   1.178   0.492   6.764  0.0751  0.0817 -0.5130
12625TIP3    H237819   1.203   0.430   6.900  0.2975  2.5219  0.5955
12626TIP3   OH237820   5.477   6.856   5.601 -0.3331  0.0154  0.2930
12626TIP3    H137821   5.475   6.768   5.638 -0.4380  0.1742  0.6658
12626TIP3    H237822   5.389   6.891   5.618 -0.7147 -0.2951 -1.0183
12627TIP3   OH237823   1.850   0.277   2.670 -0.1137 -0.4300  0.3494
12627TIP3    H137824   1.934   0.294   2.713 -0.4439  1.6045  0.2425
12627TIP3    H237825   1.787   0.273   2.742 -0.3746  1.0808  0.2212
12628TIP3   OH237826   0.870   0.376   5.562 -0.7983 -0.1076  0.5579
12628TIP3    H137827   0.840   0.361   5.652 -0.5222  0.1419  0.6938
12628TIP3    H237828   0.847   0.296   5.515  0.5144 -0.9071  1.2333
12629TIP3   OH237829   5.593   5.916   5.836 -0.6361 -0.9010 -1.1114
12629TIP3    H137830   5.526   5.850   5.852 -0.7728 -0.7603 -1.1006
12629TIP3    H237831   5.662   5.870   5.788 -0.7278 -1.0526 -1.0970
12630TIP3   OH237832   4.714   7.963   6.974  0.3811 -0.3227 -0.2618
12630TIP3    H137833   4.720   8.036   6.912 -0.5047  0.0346  0.0571
12630TIP3    H237834   4.710   7.885   6.920 -2.3495  0.1088 -0.7549
12631TIP3   OH237835   7.154   0.154   4.494 -0.6500  0.1902  0.0072
12631TIP3    H137836   7.120   0.170   4.582  0.4756 -1.0495  0.6924
12631TIP3    H237837   7.131   0.063   4.476  1.8533 -0.5566  0.3266
12632TIP3   OH237838   7.256   0.805   6.903 -0.1023 -0.5842  0.2997
12632TIP3    H137839   7.332   0.817   6.959  0.3441 -2.2279  0.0646
12632TIP3    H237840   7.248   0.888   6.855  0.1730  0.4170  1.9559
12633TIP3   OH237841   5.923   6.369   4.518 -0.3859 -0.1449  0.6966
12633TIP3    H137842   5.977   6.380   4.596  4.6569  0.7117 -2.7005
12633TIP3    H237843   5.886   6.456   4.502 -0.2053  0.0305  1.2314
12634TIP3   OH237844   8.379   0.168   3.535  0.7280  0.2042 -0.6463
12634TIP3    H137845   8.307   0.186   3.475  0.3898  0.5697 -0.1401
12634TIP3    H237846   8.344   0.193   3.621  0.5837 -1.9716 -0.0485
12635TIP3   OH237847   5.374   7.745   4.754  0.4352 -0.8554  0.2311
12635TIP3    H137848   5.356   7.797   4.832  0.8735 -1.3013  0.6349
12635TIP3    H237849   5.455   7.697   4.775  1.0071 -0.3719 -0.7910
12636TIP3   OH237850   5.228   7.025   4.367 -0.7591 -0.3761 -0.0342
12636TIP3    H137851   5.284   7.025   4.444 -0.0605  1.2904 -0.4998
12636TIP3    H237852   5.245   6.942   4.323  0.1226 -0.5778  0.7003
12637TIP3   OH237853   5.871   5.483   3.778 -0.4779 -0.6913  0.1291
12637TIP3    H137854   5.807   5.463   3.846 -2.4626  1.0942 -1.1734
12637TIP3    H237855   5.913   5.564   3.807 -2.9957  1.4132 -1.8253
12638TIP3   OH237856   4.855   7.141   5.005 -0.1709  0.3791 -0.2573
12638TIP3    H137857   4.831   7.092   5.084  1.6294 -1.1602 -0.6391
12638TIP3    H237858   4.864   7.074   4.937 -0.3538  1.5509 -1.4524
12639TIP3   OH237859   1.094   0.037   4.169 -0.7726  0.1420  0.0529
12639TIP3    H137860   1.056   0.122   4.193 -1.5694 -0.2249  0.1222
12639TIP3    H237861   1.171   0.029   4.225 -0.3855  1.0553 -0.3327
12640TIP3   OH237862   0.164   5.513   5.718  0.5919  0.3716 -0.4943
12640TIP3    H137863   0.106   5.530   5.644  0.0121 -1.0009 -0.3846
12640TIP3    H237864   0.221   5.589   5.722 -0.8934  1.5416 -0.9104
12641TIP3   OH237865   5.290   6.611   4.439 -0.4743 -0.4798 -0.4507
12641TIP3    H137866   5.362   6.562   4.479 -0.7023 -0.5264 -0.0926
12641TIP3    H237867   5.212   6.583   4.488 -0.7563 -0.5320 -0.9217
12642TIP3   OH237868   4.513   4.681   6.617  0.4081 -0.5179 -0.5479
12642TIP3    H137869   4.511   4.776   6.625  1.3503 -0.5599  0.2694
12642TIP3    H237870   4.428   4.658   6.579  0.2680  0.6624 -0.9716
12643TIP3   OH237871   2.325   2.977   0.168  0.0676  0.4272  0.8745
12643TIP3    H137872   2.300   2.912   0.234  0.7110  0.7051  1.3992
12643TIP3    H237873   2.243   3.020   0.145  0.2595  2.6222  3.9838
12644TIP3   OH237874   1.680   0.094   4.913 -0.4929  0.6784 -0.2187
12644TIP3    H137875   1.628   0.140   4.847 -0.4811 -0.1552 -0.8069
12644TIP3    H237876   1.616   0.065   4.978 -0.7158 -0.0460 -0.7646
12645TIP3   OH237877   4.515   5.591   6.032 -0.3850 -0.6466 -0.1113
12645TIP3    H137878   4.552   5.578   6.119 -0.1028  0.0271 -0.1234
12645TIP3    H237879   4.546   5.516   5.981  0.3563 -0.4788  0.0835
12646TIP3   OH237880   3.251   4.994   5.610 -0.1924 -0.1522 -0.2321
12646TIP3    H137881   3.291   5.000   5.697  1.6980  1.3750 -1.1489
12646TIP3    H237882   3.271   4.905   5.580  1.0419  0.0175  0.0439
12647TIP3   OH237883   5.950   7.652   2.862 -0.0817  0.2419 -0.6277
12647TIP3    H137884   5.968   7.740   2.829  2.9728 -0.4109 -0.8184
12647TIP3    H237885   5.869   7.627   2.818  1.3393  1.2457 -4.0056
12648TIP3   OH237886   1.662   0.440   5.210 -0.3399  0.7101  0.5293
12648TIP3    H137887   1.741   0.467   5.256 -0.2189  2.1627 -0.4903
12648TIP3    H237888   1.638   0.356   5.250  1.7882  0.1738  0.7285
12649TIP3   OH237889   5.158   7.375   3.282 -0.0784  0.0724 -0.1655
12649TIP3    H137890   5.160   7.281   3.264 -0.3080 -0.6849  3.4050
12649TIP3    H237891   5.250   7.401   3.282 -0.0234 -0.0719 -1.3646
12650TIP3   OH237892   8.037   0.217   6.648 -0.0294 -0.2836  0.1571
12650TIP3    H137893   8.009   0.156   6.716  2.7759  0.4467  2.0223
12650TIP3    H237894   8.131   0.228   6.663  0.5753  0.2298 -3.5890
12651TIP3   OH237895   7.718   1.203   4.854  0.5553  0.0556  0.1836
12651TIP3    H137896   7.785   1.168   4.796  1.4472  1.1616  0.5477
12651TIP3    H237897   7.766   1.252   4.921 -0.6698  2.2782 -0.5125
12652TIP3   OH237898   6.846   6.863   5.352  0.4862 -0.0502  0.2868
12652TIP3    H137899   6.804   6.826   5.429  0.5931  0.2727  0.5014
12652TIP3    H237900   6.775   6.905   5.304  0.3492 -0.6038 -0.0047
12653TIP3   OH237901   6.493   7.883   4.821 -0.0662 -0.4869 -0.0361
12653TIP3    H137902   6.527   7.956   4.873  3.2590 -0.4743 -2.0717
12653TIP3    H237903   6.456   7.924   4.743  0.7934 -0.8508 -0.6534
12654TIP3   OH237904   6.937   6.038   3.874  0.1642  0.3512 -0.3628
12654TIP3    H137905   6.962   6.111   3.929 -0.5325  0.1178  0.2710
12654TIP3    H237906   7.020   6.005   3.839  0.6599  0.2184  0.8995
12655TIP3   OH237907   7.163   7.281   3.098  0.4348  0.1781 -0.1393
12655TIP3    H137908   7.239   7.331   3.127  1.2388  0.2485 -2.2673
12655TIP3    H237909   7.177   7.194   3.136  0.5581  0.7168  1.0896
12656TIP3   OH237910   7.208   7.700   3.482 -0.2648  0.2558  0.2678
12656TIP3    H137911   7.123   7.721   3.444 -0.3575  1.7949  1.2840
12656TIP3    H237912   7.246   7.785   3.504  1.2375 -0.4549  0.4672
12657TIP3   OH237913   6.620   7.191   4.652  0.5665 -0.4686  0.2437
12657TIP3    H137914   6.589   7.177   4.741 -0.6047  0.7004  0.0271
12657TIP3    H237915   6.605   7.284   4.635  1.3096 -0.5519 -0.9698
12658TIP3   OH237916   8.133   6.889   4.815  0.0308 -0.0427 -0.2611
12658TIP3    H137917   8.114   6.905   4.907  2.0001  1.4480 -0.0971
12658TIP3    H237918   8.212   6.834   4.816  0.7708  0.9952 -1.0803
12659TIP3   OH237919   7.657   5.449   3.129 -0.2401  0.0487 -0.2683
12659TIP3    H137920   7.612   5.509   3.189  0.8441  1.5556 -0.9192
12659TIP3    H237921   7.719   5.505   3.082  1.1377 -1.6990 -0.5503
12660TIP3   OH237922   1.788   0.147   4.244 -0.1770  0.6457  0.2261
12660TIP3    H137923   1.712   0.103   4.283 -0.3471  2.1005  1.5691
12660TIP3    H237924   1.816   0.210   4.310  2.6533 -0.3405  0.0211
12661TIP3   OH237925   0.200   1.846   4.017 -0.3642 -0.2946 -0.9147
12661TIP3    H137926   0.137   1.840   3.945 -1.2113  0.1376 -0.2170
12661TIP3    H237927   0.262   1.913   3.988 -1.1166  0.3977 -0.9381
12662TIP3   OH237928   5.433   7.253   6.360  0.0645 -0.2788 -0.0292
12662TIP3    H137929   5.382   7.182   6.321 -3.2804  1.1700  1.4822
12662TIP3    H237930   5.428   7.324   6.297  0.1413 -0.1099  0.1532
12663TIP3   OH237931   6.573   7.969   3.626  0.1693  0.9572 -0.2406
12663TIP3    H137932   6.557   7.970   3.720  3.3211  1.9291  0.3392
12663TIP3    H237933   6.583   7.876   3.604 -2.3414  0.6071  0.0333
12664TIP3   OH237934   0.144   6.206   5.185  0.0646 -0.4633  0.4441
12664TIP3    H137935   0.196   6.128   5.166  0.1008 -0.4554  0.5129
12664TIP3    H237936   0.070   6.173   5.237  0.0816 -0.4506  0.4755
12665TIP3   OH237937   2.017   3.352   6.316  0.4634  0.4259 -0.0332
12665TIP3    H137938   2.112   3.364   6.326  0.6309 -1.3994  0.8816
12665TIP3    H237939   1.979   3.423   6.368  1.3193  1.2252 -0.4705
12666TIP3   OH237940   7.615   5.393   6.863 -0.0232 -0.4112  0.0674
12666TIP3    H137941   7.698   5.344   6.864  0.4929  0.3577 -2.1999
12666TIP3    H237942   7.612   5.437   6.948  2.8978  1.1726 -0.5746
12667TIP3   OH237943   5.173   5.446   2.310 -0.0980 -0.3928 -0.2928
12667TIP3    H137944   5.130   5.404   2.385 -3.1740  0.0549 -1.7231
12667TIP3    H237945   5.164   5.382   2.239  1.3875 -0.1514 -0.7164
12668TIP3   OH237946   0.397   0.801   6.082  0.3697 -0.0634  0.4437
12668TIP3    H137947   0.364   0.890   6.067  0.7031 -0.2628 -1.6492
12668TIP3    H237948   0.320   0.752   6.109  0.3512  1.0384  2.5298
12669TIP3   OH237949   1.642   0.157   3.116  0.0380 -0.3856 -0.0296
12669TIP3    H137950   1.611   0.067   3.124  2.1436 -1.0152  1.5145
12669TIP3    H237951   1.590   0.206   3.179 -1.8411 -0.2681 -1.5984
12670TIP3   OH237952   7.994   6.147   4.447  1.0721  0.4257  0.0521
12670TIP3    H137953   8.083   6.131   4.480  0.8192  2.2203  1.7372
12670TIP3    H237954   8.008   6.184   4.359  2.0665  1.7390  0.7351
12671TIP3   OH237955   2.437   0.167   3.370  0.1156 -0.4804  0.1852
12671TIP3    H137956   2.373   0.128   3.311  0.8174 -2.1924  0.5527
12671TIP3    H237957   2.468   0.245   3.323 -1.4666 -0.2162 -0.4351
12672TIP3   OH237958   7.686   5.009   3.380  0.0614 -0.2394  0.4023
12672TIP3    H137959   7.668   5.076   3.446  0.1319 -0.4028  0.5882
12672TIP3    H237960   7.683   4.926   3.428 -0.2459 -0.3871  0.1302
12673TIP3   OH237961   7.942   4.814   5.698 -0.3550  0.0068 -0.1000
12673TIP3    H137962   7.984   4.900   5.690  0.4600 -0.4363 -0.6727
12673TIP3    H237963   7.904   4.799   5.611  1.7998 -1.3742 -0.8557
12674TIP3   OH237964   0.268   5.462   3.879 -0.0767  0.4217 -0.6209
12674TIP3    H137965   0.320   5.539   3.903 -1.9639  0.9904  1.8344
12674TIP3    H237966   0.182   5.497   3.858 -0.8572 -0.9615  0.1682
12675TIP3   OH237967   6.825   7.964   4.733 -0.4064 -0.1378  0.2909
12675TIP3    H137968   6.890   7.895   4.717  1.1156  1.6972 -1.6492
12675TIP3    H237969   6.806   7.958   4.827  1.0887 -1.9792  0.5053
12676TIP3   OH237970   5.265   7.447   5.733  0.0161  0.3758 -0.1182
12676TIP3    H137971   5.221   7.523   5.695  0.0087 -0.5925 -2.1257
12676TIP3    H237972   5.358   7.462   5.716  0.1212  0.5627  0.6373
12677TIP3   OH237973   8.401   7.959   4.641 -0.1795 -0.9595  0.4604
12677TIP3    H137974   8.341   8.012   4.588  1.0888 -0.1871 -0.2184
12677TIP3    H237975   8.468   8.021   4.670  0.6266 -1.9411  0.7243
12678TIP3   OH237976   1.098   5.695   4.543  0.8191 -0.1940  0.9436
12678TIP3    H137977   1.033   5.657   4.484 -0.6939  1.4540  1.4972
12678TIP3    H237978   1.110   5.784   4.511  0.8160  0.3593  2.4451
12679TIP3   OH237979   5.903   6.651   6.324  0.0310 -0.2668  0.1349
12679TIP3    H137980   5.996   6.644   6.343 -0.0776 -1.5724  0.2439
12679TIP3    H237981   5.888   6.590   6.252 -0.6896  0.1518 -0.0773
12680TIP3   OH237982   2.093   0.543   4.033  0.4861  0.1204  0.0225
12680TIP3    H137983   2.021   0.480   4.025  0.4097  0.0516  1.1202
12680TIP3    H237984   2.126   0.553   3.944  0.5611 -1.5483 -0.1562
12681TIP3   OH237985   6.475   5.156   1.417  0.1336  0.0996 -0.1562
12681TIP3    H137986   6.503   5.247   1.429  0.7070 -0.0221 -0.5741
12681TIP3    H237987   6.462   5.123   1.506  2.6267 -0.2627  0.0943
12682TIP3   OH237988   6.351   6.560   5.120 -0.4479 -0.2753  0.7973
12682TIP3    H137989   6.376   6.651   5.102 -0.0914 -0.6396 -0.5688
12682TIP3    H237990   6.375   6.512   5.041 -2.4378 -1.2206  0.7359
12683TIP3   OH237991   0.282   1.907   5.860  0.1960 -0.0114  0.4716
12683TIP3    H137992   0.341   1.832   5.855 -0.5829 -0.6767  1.1855
12683TIP3    H237993   0.226   1.898   5.783  0.4350  0.1374  0.2757
12684TIP3   OH237994   5.453   7.924   5.997 -0.1458 -0.0596  0.5018
12684TIP3    H137995   5.414   8.007   6.025  2.3368  0.6909  1.8906
12684TIP3    H237996   5.505   7.896   6.072 -0.5761 -2.6330 -0.1439
12685TIP3   OH237997   1.327   0.517   5.178  0.1473 -0.0491 -0.2668
12685TIP3    H137998   1.418   0.514   5.208  0.0685 -1.3567 -0.1095
12685TIP3    H237999   1.332   0.539   5.085  0.6504 -0.5612 -0.3595
12686TIP3   OH238000   7.768   5.890   3.334 -0.0234 -0.1664 -0.0198
12686TIP3    H138001   7.794   5.949   3.264  1.4480 -0.7682  0.0018
12686TIP3    H238002   7.744   5.808   3.290  1.6531 -0.8011  0.2168
12687TIP3   OH238003   7.247   8.000   2.793  0.1519  0.1237  0.0142
12687TIP3    H138004   7.321   7.942   2.811  1.1123  1.1413 -0.5706
12687TIP3    H238005   7.192   7.993   2.871 -0.7755 -3.0642 -0.8292
12688TIP3   OH238006   7.912   7.263   4.868  0.3063  0.0226 -0.5166
12688TIP3    H138007   7.970   7.338   4.873  0.1469  0.2077 -1.3277
12688TIP3    H238008   7.875   7.255   4.956  2.2745 -0.6836  0.2813
12689TIP3   OH238009   0.838   1.274   4.772 -0.4093 -0.2889 -0.0002
12689TIP3    H138010   0.829   1.295   4.679 -0.5522  0.9305  0.2846
12689TIP3    H238011   0.844   1.178   4.774  0.9061 -0.2636 -1.3696
12690TIP3   OH238012   0.379   7.268   4.271 -0.6313  0.6492  0.5313
12690TIP3    H138013   0.295   7.314   4.272  0.4303  2.6868 -0.5360
12690TIP3    H238014   0.432   7.314   4.336  0.9511  1.9546 -1.6268
12691TIP3   OH238015   0.788   6.441   5.056 -0.0129 -0.0081 -0.2080
12691TIP3    H138016   0.700   6.429   5.020  0.8659  0.0702 -2.5061
12691TIP3    H238017   0.823   6.516   5.008  1.3555 -0.1359  0.5701
12692TIP3   OH238018   7.135   6.873   4.069 -0.1205  0.3282  0.4690
12692TIP3    H138019   7.224   6.888   4.102 -0.5907  1.3305  1.3158
12692TIP3    H238020   7.090   6.956   4.084 -1.7754 -0.8231  1.9580
12693TIP3   OH238021   7.146   5.786   2.797 -0.2841 -0.0101  0.8007
12693TIP3    H138022   7.117   5.855   2.737  0.8840 -0.5722 -0.4286
12693TIP3    H238023   7.205   5.732   2.745 -0.4832 -1.4319  2.0077
12694TIP3   OH238024   8.113   5.067   3.074  0.9954 -0.1170 -0.7073
12694TIP3    H138025   8.197   5.027   3.097  0.7753  1.4314  3.2644
12694TIP3    H238026   8.051   5.029   3.137 -0.2802  2.2995 -0.4494
12695TIP3   OH238027   2.627   0.432   4.987  0.3120 -0.1246 -0.0156
12695TIP3    H138028   2.578   0.432   4.905  1.4124 -0.2326 -0.6778
12695TIP3    H238029   2.674   0.348   4.988  0.4693 -0.0346  0.6183
12696TIP3   OH238030   6.011   7.212   4.327  0.2175 -0.7571  0.2483
12696TIP3    H138031   5.917   7.207   4.344  0.0378 -0.8506 -0.7062
12696TIP3    H238032   6.029   7.306   4.322  0.0657 -0.7458 -0.1099
12697TIP3   OH238033   0.179   6.840   3.370 -0.3192  0.3220  0.1461
12697TIP3    H138034   0.274   6.836   3.381 -0.4718  1.2290  2.0157
12697TIP3    H238035   0.145   6.771   3.427 -0.8265  0.4062 -0.0452
12698TIP3   OH238036   0.395   0.258   5.619  0.1870  0.4297  0.1916
12698TIP3    H138037   0.300   0.270   5.615  0.0960  0.1159  1.3431
12698TIP3    H238038   0.408   0.165   5.598  0.3174  0.7078 -0.9750
12699TIP3   OH238039   0.778   0.076   5.252 -0.2881  0.0693  0.2377
12699TIP3    H138040   0.869   0.106   5.246 -0.3923  0.2262 -0.6374
12699TIP3    H238041   0.739   0.130   5.321 -0.3189  1.5539 -0.9121
12700TIP3   OH238042   7.373   6.696   5.063 -0.5464  0.3415  0.4683
12700TIP3    H138043   7.362   6.727   4.973  0.2264  0.7875  0.5199
12700TIP3    H238044   7.468   6.690   5.074 -0.5995  1.3444  1.5944
12701TIP3   OH238045   7.029   7.095   3.544 -0.0508  0.3443 -0.4612
12701TIP3    H138046   6.950   7.041   3.542  0.2661 -0.2445  1.4459
12701TIP3    H238047   7.100   7.036   3.519  0.3207 -0.2202  1.7979
12702TIP3   OH238048   2.861   0.858   4.302  0.0279  0.1706  0.1392
12702TIP3    H138049   2.852   0.805   4.381  0.1155  1.2881  0.9039
12702TIP3    H238050   2.781   0.910   4.298 -0.1769 -0.1994 -0.7505
12703TIP3   OH238051   6.014   7.619   4.625  0.5831  0.2086  0.2633
12703TIP3    H138052   6.062   7.668   4.692 -0.5989  0.1748  1.1430
12703TIP3    H238053   6.081   7.564   4.584  1.0634 -1.0281  2.5496
12704TIP3   OH238054   8.182   7.493   2.187  0.2424  0.1161  0.0896
12704TIP3    H138055   8.172   7.548   2.109 -1.0367 -0.7955 -0.4103
12704TIP3    H238056   8.246   7.539   2.241  1.7560  0.3314 -1.8698
12705TIP3   OH238057   2.673   0.192   1.516 -0.5281 -0.3867 -0.3236
12705TIP3    H138058   2.652   0.143   1.437 -2.3868 -0.4508  0.1619
12705TIP3    H238059   2.636   0.278   1.501 -1.8452 -0.7182  0.8741
12706TIP3   OH238060   8.104   7.622   4.643  0.0884 -0.4281 -0.1326
12706TIP3    H138061   8.025   7.574   4.666  0.0163 -0.1621  0.1659
12706TIP3    H238062   8.074   7.712   4.627  0.5476  0.0214  1.4310
12707TIP3   OH238063   0.710   6.922   1.803  0.5953 -0.0301  0.1363
12707TIP3    H138064   0.651   6.959   1.869  0.6514  1.2933 -0.5487
12707TIP3    H238065   0.661   6.850   1.764  0.1666 -0.1540  0.8907
12708TIP3   OH238066   7.992   6.732   3.497  0.1654  0.1864 -0.5166
12708TIP3    H138067   8.009   6.804   3.557 -0.7404 -0.0382  0.0228
12708TIP3    H238068   8.068   6.674   3.506 -0.1669 -0.0660  0.7421
12709TIP3   OH238069   1.805   0.837   3.948 -0.3501  0.0863 -0.1606
12709TIP3    H138070   1.848   0.764   3.903  0.0774  0.4567 -0.3566
12709TIP3    H238071   1.772   0.892   3.878 -1.6017 -0.4558 -0.0099
12710TIP3   OH238072   5.692   4.878   2.312  0.3401 -0.2334 -0.3893
12710TIP3    H138073   5.750   4.953   2.326 -0.4922  0.1811  0.9973
12710TIP3    H238074   5.751   4.805   2.292  1.4428 -0.0328  1.9167
12711TIP3   OH238075   7.984   7.079   4.353 -0.4843  0.1491  0.2594
12711TIP3    H138076   7.901   7.032   4.343 -0.4415  0.0932  0.1602
12711TIP3    H238077   7.976   7.125   4.436 -0.1323 -0.8322  0.8434
12712TIP3   OH238078   1.700   1.345   4.235 -0.3320  0.6797 -0.2311
12712TIP3    H138079   1.738   1.404   4.171  0.3527  1.5016  0.9194
12712TIP3    H238080   1.631   1.299   4.187 -0.3389  1.8273 -1.3477
12713TIP3   OH238081   7.310   5.354   4.539 -0.2909 -0.3450 -0.3325
12713TIP3    H138082   7.323   5.380   4.448  1.8528  1.9241  0.5510
12713TIP3    H238083   7.242   5.413   4.571  1.3968  1.2913  0.4187
12714TIP3   OH238084   8.366   7.708   2.925 -0.0562  0.7667  0.1954
12714TIP3    H138085   8.294   7.768   2.905  0.6847  1.0236 -1.8952
12714TIP3    H238086   8.354   7.635   2.865  0.6318  0.1483  0.7936
12715TIP3   OH238087   5.491   6.985   3.274  0.0374  0.1194  0.2773
12715TIP3    H138088   5.488   7.017   3.364  0.2234  1.3145 -0.1272
12715TIP3    H238089   5.582   7.000   3.247 -0.3879  1.1802 -0.5983
12716TIP3   OH238090   6.089   6.869   2.732  0.2217 -0.2275 -0.4278
12716TIP3    H138091   6.109   6.809   2.660 -0.2353 -1.6016  0.5549
12716TIP3    H238092   6.035   6.817   2.792 -1.5215  1.6725 -0.3078
12717TIP3   OH238093   0.721   6.913   2.660  0.2416  0.0396 -0.1246
12717TIP3    H138094   0.704   6.879   2.748  0.5489  2.3082  0.8518
12717TIP3    H238095   0.662   6.864   2.603 -1.7054  0.2018  1.6935
12718TIP3   OH238096   0.488   6.527   4.947  0.3537 -0.2631  0.0987
12718TIP3    H138097   0.468   6.438   4.976  0.6636  0.0497  1.2801
12718TIP3    H238098   0.402   6.567   4.932  0.2057 -0.5664  0.1220
12719TIP3   OH238099   2.374   1.417   4.164 -0.4070  0.6687 -0.4636
12719TIP3    H138100   2.292   1.404   4.211 -0.9788 -1.6517 -2.0554
12719TIP3    H238101   2.433   1.455   4.230 -1.4547 -1.6367  1.9029
12720TIP3   OH238102   7.649   7.227   3.943 -0.0081  0.4242 -0.2391
12720TIP3    H138103   7.584   7.285   3.905  0.9684  1.5377 -0.2594
12720TIP3    H238104   7.688   7.182   3.868 -0.4278  0.0977 -0.2637
12721TIP3   OH238105   1.900   0.273   4.697 -0.3813  0.0432  0.7842
12721TIP3    H138106   1.877   0.276   4.790 -0.1065 -1.2818  0.9045
12721TIP3    H238107   1.993   0.297   4.694 -0.8828  2.0226  0.6431
12722TIP3   OH238108   7.081   5.784   4.048  0.3670 -0.2334  0.7049
12722TIP3    H138109   6.995   5.795   4.009  0.8596 -2.7061 -1.2430
12722TIP3    H238110   7.063   5.759   4.139 -0.9324  0.2236  0.5773
12723TIP3   OH238111   1.417   0.603   4.905 -0.2531 -0.1935 -0.7984
12723TIP3    H138112   1.510   0.619   4.887  0.1388 -1.6324 -0.1492
12723TIP3    H238113   1.385   0.557   4.827 -0.5314  0.7117 -1.2161
12724TIP3   OH238114   5.556   6.327   6.031 -0.3588  0.1940 -0.3232
12724TIP3    H138115   5.518   6.320   6.119  0.0623 -0.0675 -0.1613
12724TIP3    H238116   5.483   6.355   5.976 -0.7550 -0.1556  0.0154
12725TIP3   OH238117   6.117   6.242   3.736  0.0963  0.1128 -0.0091
12725TIP3    H138118   6.040   6.279   3.778  0.3949 -0.6277  1.2146
12725TIP3    H238119   6.134   6.161   3.784  1.4685  0.1180 -0.4632
12726TIP3   OH238120   0.957   0.638   5.453 -0.0067 -0.1355 -0.2730
12726TIP3    H138121   0.900   0.570   5.489 -0.2727  0.3752  0.2801
12726TIP3    H238122   1.010   0.667   5.527 -1.5197  1.8885  0.0826
12727TIP3   OH238123   4.060   6.405   3.193 -0.7618 -0.2011  0.5717
12727TIP3    H138124   4.131   6.387   3.254 -0.5113 -0.8014  0.1170
12727TIP3    H238125   4.096   6.381   3.107 -0.9477  1.0623  0.1332
12728TIP3   OH238126   8.192   6.317   4.733  0.7100  0.3201 -0.8558
12728TIP3    H138127   8.137   6.239   4.724  0.9484  0.2492 -1.6572
12728TIP3    H238128   8.272   6.297   4.685  1.0647  0.7887 -0.4713
12729TIP3   OH238129   7.039   6.618   3.979  0.3836 -0.5506 -0.2499
12729TIP3    H138130   7.109   6.601   3.915  0.1871 -1.5398 -0.2080
12729TIP3    H238131   7.052   6.709   4.005  2.0504 -0.9247  0.2435
12730TIP3   OH238132   3.101   1.361   4.149  0.5006  0.0537 -0.1347
12730TIP3    H138133   3.178   1.341   4.096  0.8906  1.5126 -0.1301
12730TIP3    H238134   3.040   1.404   4.089  0.1570 -0.0444  0.1398
12731TIP3   OH238135   5.419   0.756   4.636  0.3611 -0.9733 -0.1739
12731TIP3    H138136   5.382   0.804   4.710  2.2424  1.4306 -0.7241
12731TIP3    H238137   5.362   0.680   4.626 -1.0023 -0.3750  2.5658
12732TIP3   OH238138   8.209   0.296   4.990 -0.2174  0.3859  0.2870
12732TIP3    H138139   8.237   0.304   4.899 -1.4707  1.8376  0.0229
12732TIP3    H238140   8.284   0.256   5.035  0.6986  0.4166 -1.2125
12733TIP3   OH238141   6.421   7.523   3.340  0.5172  0.0284  0.2001
12733TIP3    H138142   6.470   7.447   3.310  0.2630 -0.3336  0.6878
12733TIP3    H238143   6.451   7.595   3.285  2.2696  0.0054  1.0709
12734TIP3   OH238144   7.269   7.681   4.706 -0.1410  0.1240 -0.0621
12734TIP3    H138145   7.292   7.774   4.709  2.8128 -0.5362 -0.4779
12734TIP3    H238146   7.268   7.653   4.798  1.4877  0.0490 -0.0387
12735TIP3   OH238147   7.747   6.301   3.014  0.3766  0.3052  0.1225
12735TIP3    H138148   7.763   6.394   3.029 -0.4509  0.6969 -1.3133
12735TIP3    H238149   7.823   6.257   3.051  1.0058  1.5966  0.3798
12736TIP3   OH238150   8.294   5.331   0.264 -0.2932 -0.1172 -0.4768
12736TIP3    H138151   8.282   5.423   0.288  0.1665 -0.1627 -0.0637
12736TIP3    H238152   8.219   5.286   0.303  0.2312 -0.1289  0.5416
12737TIP3   OH238153   2.521   5.839   3.646  0.2984  0.1891  0.2377
12737TIP3    H138154   2.560   5.915   3.689  0.0524  0.0437  0.7156
12737TIP3    H238155   2.520   5.863   3.553  1.5534  0.1824  0.2155
12738TIP3   OH238156   7.536   5.371   3.452 -0.3543  0.0842  0.0586
12738TIP3    H138157   7.587   5.412   3.382 -2.0662 -0.7270 -1.7127
12738TIP3    H238158   7.500   5.445   3.501  0.9383  0.6575  0.1608
12739TIP3   OH238159   7.633   5.250   4.446 -0.1522 -0.1224  0.0375
12739TIP3    H138160   7.571   5.287   4.383 -0.4668 -0.6371  0.0392
12739TIP3    H238161   7.599   5.162   4.465  0.0425 -0.0491  0.7723
12740TIP3   OH238162   2.058   0.308   5.491 -0.1968  0.1290  0.2560
12740TIP3    H138163   2.133   0.334   5.545  0.3075  1.1291 -0.9066
12740TIP3    H238164   2.017   0.390   5.465  0.0047 -0.3065 -1.4797
12741TIP3   OH238165   6.378   6.316   3.692 -0.2077 -0.0531 -0.7075
12741TIP3    H138166   6.412   6.385   3.634 -1.5815  2.2977  1.1713
12741TIP3    H238167   6.285   6.312   3.672 -0.1220 -1.5168 -0.8849
12742TIP3   OH238168   0.579   1.707   5.546  0.1446  0.2224  0.4009
12742TIP3    H138169   0.601   1.793   5.581  0.9434 -0.4301  1.5627
12742TIP3    H238170   0.554   1.723   5.455  1.7603  1.4913  0.1585
12743TIP3   OH238171   8.354   7.296   2.369 -0.1840  0.6841 -0.1932
12743TIP3    H138172   8.320   7.226   2.314 -0.6812  1.4500 -0.8653
12743TIP3    H238173   8.332   7.377   2.322  0.1836  1.3005  0.6827
12744TIP3   OH238174   7.111   6.497   4.607  0.2156  0.0866  0.0985
12744TIP3    H138175   7.128   6.487   4.700 -2.8024  0.8096  0.7713
12744TIP3    H238176   7.041   6.434   4.588  1.3373 -0.6406 -1.8752
12745TIP3   OH238177   7.034   5.641   5.327 -0.0146  0.2088  0.2231
12745TIP3    H138178   7.077   5.708   5.274  0.4284  0.9275  1.4765
12745TIP3    H238179   6.947   5.678   5.345 -0.9701 -0.9838 -1.8115
12746TIP3   OH238180   0.253   5.190   3.552 -0.1586 -0.7368 -0.4144
12746TIP3    H138181   0.178   5.196   3.494 -1.9409 -0.0527  1.8976
12746TIP3    H238182   0.299   5.274   3.542 -0.4738 -0.6153 -0.8152
12747TIP3   OH238183   0.673   1.442   3.595 -0.2764 -0.6016  0.0993
12747TIP3    H138184   0.697   1.501   3.667 -0.0118  0.7547 -1.0915
12747TIP3    H238185   0.578   1.436   3.600 -0.4310  1.0192 -0.6038
12748TIP3   OH238186   0.800   0.561   2.099 -0.6443  0.1794 -0.4047
12748TIP3    H138187   0.780   0.586   2.008  0.9257  2.4881 -0.1719
12748TIP3    H238188   0.764   0.473   2.108 -2.3128  0.5551 -2.7582
12749TIP3   OH238189   0.409   0.192   2.226 -0.1715  0.0005 -0.0275
12749TIP3    H138190   0.394   0.149   2.141 -0.8286 -0.2885  0.2371
12749TIP3    H238191   0.468   0.132   2.272  0.2393  0.1886 -0.3001
12750TIP3   OH238192   1.773   1.362   4.490 -0.4613 -0.2020  0.0079
12750TIP3    H138193   1.770   1.366   4.394 -0.2018  0.9950  0.0364
12750TIP3    H238194   1.825   1.439   4.515  1.2177 -1.6366  1.0224
12751TIP3   OH238195   1.034   5.845   5.873 -0.3737  0.2369  0.0303
12751TIP3    H138196   1.100   5.850   5.803 -1.1123 -0.7863 -0.7542
12751TIP3    H238197   1.064   5.908   5.939  0.5059  0.9730 -1.0575
12752TIP3   OH238198   7.649   5.207   2.758 -0.3222 -0.6008  0.3083
12752TIP3    H138199   7.733   5.229   2.716 -0.6384  1.4548  0.7325
12752TIP3    H238200   7.674   5.176   2.845 -0.0831  1.4521  0.9852
12753TIP3   OH238201   8.171   7.421   4.130  0.1594 -0.0575  0.7984
12753TIP3    H138202   8.188   7.489   4.196 -0.1803  1.4767 -0.6374
12753TIP3    H238203   8.215   7.454   4.051  0.2955 -1.7070  0.1786
12754TIP3   OH238204   7.211   5.754   5.162 -0.6273 -0.1645  0.4532
12754TIP3    H138205   7.189   5.830   5.108 -0.3223 -0.1276  0.3791
12754TIP3    H238206   7.305   5.764   5.180 -0.0632 -1.7198 -1.4611
12755TIP3   OH238207   0.037   5.917   1.518  0.3286 -0.3017 -0.1036
12755TIP3    H138208   0.091   5.848   1.479 -0.1817  0.1943 -1.7333
12755TIP3    H238209  -0.049   5.876   1.530  0.6655 -0.6531  1.1237
12756TIP3   OH238210   2.921   0.871   4.727  0.5159 -0.1782 -0.5379
12756TIP3    H138211   2.967   0.939   4.677  1.7822  0.2267  1.1297
12756TIP3    H238212   2.868   0.825   4.662  0.4954  1.6915 -1.8871
12757TIP3   OH238213   7.769   5.945   5.234  0.7289 -0.0846  0.3476
12757TIP3    H138214   7.742   5.918   5.322  1.4705 -1.3402  0.2012
12757TIP3    H238215   7.800   5.865   5.193  0.2469  0.4682 -1.1245
12758TIP3   OH238216   1.881   1.307   5.765  0.9065  0.2051 -0.0645
12758TIP3    H138217   1.934   1.327   5.843  3.5694 -3.3652 -0.8371
12758TIP3    H238218   1.920   1.360   5.696  0.4285  1.1371  0.3672
12759TIP3   OH238219   0.664   0.370   3.701 -0.2884  0.3451 -0.0181
12759TIP3    H138220   0.653   0.286   3.658 -0.4846  0.4578 -0.1908
12759TIP3    H238221   0.587   0.379   3.757 -0.5237  0.6338 -0.3814
12760TIP3   OH238222   6.400   6.562   6.279 -0.0655  0.2611  0.1919
12760TIP3    H138223   6.385   6.610   6.198 -1.9797  0.5533  0.6951
12760TIP3    H238224   6.468   6.498   6.257  0.0090  0.8733 -1.4163
12761TIP3   OH238225   7.370   7.410   3.195 -0.9804 -0.0281  0.4954
12761TIP3    H138226   7.345   7.365   3.276 -2.4883 -0.9678 -0.4715
12761TIP3    H238227   7.350   7.502   3.212 -0.6352 -0.1186  1.4347
12762TIP3   OH238228   1.161   0.527   5.783  0.2707  0.8831 -0.1671
12762TIP3    H138229   1.081   0.577   5.797 -1.6258 -1.6513 -1.4319
12762TIP3    H238230   1.171   0.475   5.862 -1.8381 -2.0186 -1.7161
12763TIP3   OH238231   1.825   1.571   4.076  0.9615 -0.1685 -0.0148
12763TIP3    H138232   1.876   1.597   4.153 -0.6015 -1.4813  1.5265
12763TIP3    H238233   1.830   1.646   4.017  0.6833  1.5945  2.1501
12764TIP3   OH238234   8.506   7.635   4.768  0.0840 -0.4521  0.9977
12764TIP3    H138235   8.435   7.572   4.761  0.2878 -0.5278 -0.6713
12764TIP3    H238236   8.480   7.707   4.710  0.2819  0.5876  2.1618
12765TIP3   OH238237   6.121   5.429   4.083  0.0303  0.0617 -0.0963
12765TIP3    H138238   6.038   5.400   4.045 -0.3125  1.0460 -0.1255
12765TIP3    H238239   6.101   5.514   4.122  1.0805  0.4120 -0.3001
12766TIP3   OH238240   7.764   6.300   5.211  0.3408 -0.2178 -0.3333
12766TIP3    H138241   7.820   6.281   5.286  1.0004 -1.0262 -1.0270
12766TIP3    H238242   7.814   6.363   5.159  0.1179 -0.0810 -0.3845
12767TIP3   OH238243   7.018   5.726   4.699  0.6331 -0.4667  0.7183
12767TIP3    H138244   7.029   5.807   4.647 -0.8403 -0.3489  0.5807
12767TIP3    H238245   6.990   5.756   4.785 -1.9844 -0.9233  0.0537
12768TIP3   OH238246   8.398   5.320   3.224  0.5399 -0.1367 -0.6910
12768TIP3    H138247   8.345   5.399   3.210 -0.9966 -0.9406  0.4798
12768TIP3    H238248   8.353   5.273   3.293  2.0285 -1.5506 -0.6602
12769TIP3   OH238249   6.306   6.610   4.637 -0.2539  0.4520 -0.7329
12769TIP3    H138250   6.276   6.668   4.567 -0.4551  1.7327  0.4064
12769TIP3    H238251   6.287   6.658   4.717  2.1597 -0.0033  0.1283
12770TIP3   OH238252   5.644   6.667   5.186 -0.1781  0.5703 -0.1519
12770TIP3    H138253   5.701   6.723   5.240 -1.6196  1.1478  0.7884
12770TIP3    H238254   5.627   6.720   5.108 -0.5958  0.9783  0.2147
12771TIP3   OH238255   1.189   1.082   4.770  0.3226 -0.6258  0.4671
12771TIP3    H138256   1.135   1.004   4.785 -0.3731 -0.0692  0.9160
12771TIP3    H238257   1.206   1.117   4.857 -0.8999  0.7390  0.1736
12772TIP3   OH238258   0.084   4.228   5.168  0.8316  0.3709  0.2305
12772TIP3    H138259   0.027   4.301   5.194 -1.3732 -0.3902 -2.1476
12772TIP3    H238260   0.035   4.150   5.193  0.7632 -0.3067 -1.9548
12773TIP3   OH238261   1.920   5.187   5.979 -0.3794  0.0651 -0.7754
12773TIP3    H138262   1.843   5.211   5.927 -0.8775  1.5254  0.5938
12773TIP3    H238263   1.985   5.254   5.958  0.2191 -0.6691 -1.2710
12774TIP3   OH238264   0.483   7.890   3.303 -0.3830  0.5046 -0.3792
12774TIP3    H138265   0.468   7.938   3.222 -0.3247 -0.8668 -1.2214
12774TIP3    H238266   0.400   7.896   3.350 -0.3261  1.5536 -0.4025
12775TIP3   OH238267   7.002   6.598   5.402 -0.1655  0.4571  0.1767
12775TIP3    H138268   6.939   6.659   5.365 -0.4863 -0.3768 -0.6790
12775TIP3    H238269   6.955   6.554   5.472 -0.0732  0.8602  0.4962
12776TIP3   OH238270   0.177   5.736   4.896  0.1253  0.2700  0.0784
12776TIP3    H138271   0.085   5.727   4.920 -0.5316  1.8667 -1.6774
12776TIP3    H238272   0.208   5.812   4.946  0.2778  0.1825  0.1170
12777TIP3   OH238273   7.493   5.353   1.540 -1.1691  0.0429 -0.4971
12777TIP3    H138274   7.488   5.447   1.557  1.5952  0.2041 -0.2804
12777TIP3    H238275   7.565   5.322   1.596 -2.1205 -2.2199 -0.4704
12778TIP3   OH238276   8.286   2.563   0.752 -0.1644 -0.0644  0.1774
12778TIP3    H138277   8.210   2.610   0.788  1.3385  1.7272  1.0882
12778TIP3    H238278   8.281   2.579   0.658 -0.9708 -0.0517  0.2129
12779TIP3   OH238279   1.660   6.654   5.390  0.5316  0.0882 -0.3424
12779TIP3    H138280   1.587   6.628   5.334  0.8599 -0.0548 -0.7120
12779TIP3    H238281   1.648   6.748   5.403  1.0951  0.3576 -1.6300
12780TIP3   OH238282   7.011   2.256   0.535  0.2388  0.3320 -0.2557
12780TIP3    H138283   6.971   2.169   0.535 -1.0777  0.9006  1.0672
12780TIP3    H238284   7.032   2.273   0.444  0.1279 -1.2083 -0.5813
12781TIP3   OH238285   1.510   6.295   6.537 -0.0562 -0.0330 -0.0509
12781TIP3    H138286   1.418   6.304   6.561  0.6480 -1.6275  3.6261
12781TIP3    H238287   1.519   6.202   6.514  0.0341  0.7613 -3.4097
12782TIP3   OH238288   1.215   4.388   3.118  0.8675  0.2745 -0.3706
12782TIP3    H138289   1.224   4.385   3.023  2.8096  1.9156 -0.2972
12782TIP3    H238290   1.287   4.445   3.147 -0.3137  0.6568  1.9871
12783TIP3   OH238291   1.106   5.719   6.139 -0.2259  0.4980 -0.2441
12783TIP3    H138292   1.036   5.688   6.196  0.5695 -0.1161  0.4189
12783TIP3    H238293   1.102   5.814   6.144  0.1809  0.4406  1.2618
12784TIP3   OH238294   1.883   7.086   5.103  0.3533 -0.4871 -0.3994
12784TIP3    H138295   1.948   7.041   5.048  0.6340 -1.3939  0.6461
12784TIP3    H238296   1.931   7.159   5.142  0.3286 -0.2355 -0.8347
12785TIP3   OH238297   6.589   1.090   6.631 -0.0287 -0.1351  0.4410
12785TIP3    H138298   6.601   1.100   6.536  1.0231  0.1396  0.5915
12785TIP3    H238299   6.525   1.156   6.654 -1.4113 -1.1910 -0.3132
12786TIP3   OH238300   8.250   7.180   4.552  0.0796 -0.0901  0.3533
12786TIP3    H138301   8.256   7.267   4.513  0.1485 -0.4146 -0.3761
12786TIP3    H238302   8.157   7.171   4.574  0.1069  0.2433  0.6227
12787TIP3   OH238303   6.139   1.174   5.538  0.3065 -0.2130 -0.2955
12787TIP3    H138304   6.082   1.098   5.552 -3.3614  2.4178 -0.2326
12787TIP3    H238305   6.174   1.162   5.449 -0.5337 -1.7370 -0.4401
12788TIP3   OH238306   2.433   7.935   6.606  0.0098  0.5591  0.2791
12788TIP3    H138307   2.517   7.899   6.578 -1.5106 -1.3992 -1.8929
12788TIP3    H238308   2.441   8.029   6.589  1.5402  0.2969 -0.5236
12789TIP3   OH238309   2.309   5.866   6.065  0.0326  0.2449  0.0280
12789TIP3    H138310   2.252   5.938   6.092  0.7171  0.5252  0.7174
12789TIP3    H238311   2.398   5.900   6.074  0.3867 -0.8456  0.8327
12790TIP3   OH238312   2.261   7.150   4.388 -0.5184  0.3411  0.0627
12790TIP3    H138313   2.283   7.133   4.479  0.7480 -1.5201 -0.5558
12790TIP3    H238314   2.202   7.079   4.363  1.9730 -1.3004 -1.5328
12791TIP3   OH238315   4.836   0.030   0.209 -0.1754  0.3304 -0.0538
12791TIP3    H138316   4.758   0.039   0.265 -0.3857  0.6365 -0.3930
12791TIP3    H238317   4.909   0.058   0.264 -0.2360 -0.4840  0.4463
12792TIP3   OH238318   0.933   6.430   4.082 -0.6772  0.0827 -0.0349
12792TIP3    H138319   1.026   6.453   4.075 -0.2801 -1.3855  0.2734
12792TIP3    H238320   0.929   6.363   4.150 -1.6299 -1.5972 -1.6929
12793TIP3   OH238321   2.970   7.698   4.710 -0.0293  0.1906 -0.1296
12793TIP3    H138322   2.879   7.725   4.699 -0.8001 -2.2473  0.1452
12793TIP3    H238323   2.997   7.740   4.792 -1.1968  0.1520  0.2908
12794TIP3   OH238324   8.088   2.862   0.652 -0.5931  0.3009  0.4253
12794TIP3    H138325   8.008   2.847   0.601  0.1251  1.0141 -0.9319
12794TIP3    H238326   8.155   2.812   0.606  0.1039  1.1167  0.5402
12795TIP3   OH238327   1.377   6.033   5.712  0.2762  0.3579  0.3267
12795TIP3    H138328   1.355   6.009   5.622  1.2793  1.9734 -0.3671
12795TIP3    H238329   1.448   5.974   5.737  0.0677 -0.0172  0.0401
12796TIP3   OH238330   1.649   5.568   6.574 -0.3219  0.4638  0.1702
12796TIP3    H138331   1.625   5.531   6.489 -2.6730 -0.7322  1.3024
12796TIP3    H238332   1.737   5.535   6.590 -0.8692 -1.4578 -0.6264
12797TIP3   OH238333   1.487   6.417   5.458 -1.1486 -0.0067 -0.1363
12797TIP3    H138334   1.394   6.436   5.447 -1.9329 -3.0587  0.8706
12797TIP3    H238335   1.499   6.331   5.418  0.9492 -0.2757  0.9993
12798TIP3   OH238336   6.500   1.830   0.263 -0.0545  0.3721 -0.0260
12798TIP3    H138337   6.523   1.836   0.170  0.5446  0.9137  0.1497
12798TIP3    H238338   6.565   1.886   0.307  0.7888 -1.2721  0.8917
12799TIP3   OH238339   4.513   0.500   4.704  0.0908  0.3821  0.3152
12799TIP3    H138340   4.425   0.535   4.717 -0.0842  0.2401 -0.4663
12799TIP3    H238341   4.556   0.563   4.647  0.4804  0.4259  0.6577
12800TIP3   OH238342   1.059   6.201   5.897  0.5186 -0.0966  0.0414
12800TIP3    H138343   1.053   6.188   5.803  0.4714 -0.0148  0.0332
12800TIP3    H238344   1.153   6.192   5.917  0.5826  0.3006 -0.0739
12801TIP3   OH238345   7.348   5.710   5.431 -0.2193  0.3142 -0.2175
12801TIP3    H138346   7.388   5.796   5.428 -1.4633  1.0072  2.3483
12801TIP3    H238347   7.422   5.649   5.431  0.6887  1.3961 -0.8121
12802TIP3   OH238348   2.129   7.097   6.866 -0.3118 -0.2523  0.1003
12802TIP3    H138349   2.142   7.030   6.799 -0.5475  0.3189 -0.5124
12802TIP3    H238350   2.060   7.060   6.923  0.3942 -1.0499  0.4483
12803TIP3   OH238351   3.705   7.493   6.384  0.2226 -0.4784  0.0023
12803TIP3    H138352   3.759   7.561   6.345 -2.2246  1.7224  0.2852
12803TIP3    H238353   3.740   7.481   6.472  1.7046 -0.8200 -0.6221
12804TIP3   OH238354   7.630   2.901   0.033  0.4197  0.4400 -0.1034
12804TIP3    H138355   7.646   2.808   0.045 -1.0794  0.0868 -0.8175
12804TIP3    H238356   7.577   2.907  -0.046 -0.6061  1.7999  0.6650
12805TIP3   OH238357   5.171   1.684   6.632  0.1735  0.2091  0.1688
12805TIP3    H138358   5.162   1.762   6.687 -2.1046 -0.2692  0.5219
12805TIP3    H238359   5.239   1.632   6.675  0.1622  1.0008  1.1592
12806TIP3   OH238360   5.309   0.563   3.877  0.1608  0.0499  0.2553
12806TIP3    H138361   5.374   0.584   3.811 -0.7036 -0.6614 -0.8392
12806TIP3    H238362   5.272   0.648   3.903 -0.0394  0.2659 -0.7374
12807TIP3   OH238363   3.369   7.627   4.119  0.6076  0.8563  0.2753
12807TIP3    H138364   3.452   7.601   4.077  0.6913  0.6525  0.5697
12807TIP3    H238365   3.359   7.719   4.095 -1.0445 -0.0868 -3.0704
12808TIP3   OH238366   2.415   6.546   4.655 -0.0027 -0.2402 -0.3241
12808TIP3    H138367   2.503   6.510   4.643 -0.5826 -1.5413 -0.8560
12808TIP3    H238368   2.423   6.638   4.633  1.1499 -0.4337 -0.7413
12809TIP3   OH238369   7.639   2.058   0.700  0.0363 -0.1474 -0.7709
12809TIP3    H138370   7.645   2.032   0.792  0.4163  0.9949 -0.4581
12809TIP3    H238371   7.667   2.150   0.699 -0.2582 -0.0553 -1.9831
12810TIP3   OH238372   3.042   6.862   4.132  0.1038  0.4889  0.0152
12810TIP3    H138373   2.987   6.794   4.094  0.3758  1.1193 -1.5913
12810TIP3    H238374   2.998   6.944   4.110  1.6486  1.0015 -1.3071
12811TIP3   OH238375   8.071   4.818   1.019  0.1729  0.8712 -0.0284
12811TIP3    H138376   8.041   4.871   0.945 -0.4922  0.6680  0.0913
12811TIP3    H238377   8.036   4.862   1.096  0.5458  0.8686  0.1428
12812TIP3   OH238378   7.904   3.879   0.158  0.1679  0.3801 -0.5372
12812TIP3    H138379   7.916   3.821   0.233  0.6549 -1.0502 -1.7178
12812TIP3    H238380   7.819   3.922   0.174  0.7865  0.9284  1.3780
12813TIP3   OH238381   6.862   1.031   6.642 -0.2113 -0.6233  0.3250
12813TIP3    H138382   6.924   0.989   6.702  0.0176 -0.7239  0.0200
12813TIP3    H238383   6.776   1.012   6.680 -0.0404 -0.0763  1.0079
12814TIP3   OH238384   8.246   3.148   0.510 -0.2493  0.0329 -0.4622
12814TIP3    H138385   8.180   3.100   0.561 -1.5921  0.9792 -1.2563
12814TIP3    H238386   8.329   3.123   0.549 -1.0868 -1.0860  0.6711
12815TIP3   OH238387   4.108   0.091   5.945  0.2536  0.3740 -0.3133
12815TIP3    H138388   4.033   0.046   5.907 -0.3435  1.5622 -0.5629
12815TIP3    H238389   4.150   0.134   5.871 -0.7556  2.4733  0.2945
12816TIP3   OH238390   6.343   1.239   6.704  0.5622 -0.0723 -0.2077
12816TIP3    H138391   6.259   1.235   6.659  0.7094  2.1976 -0.7437
12816TIP3    H238392   6.327   1.197   6.789 -1.5037  1.5820  0.2706
12817TIP3   OH238393   1.416   5.215   6.341 -0.5044 -0.2910 -0.1711
12817TIP3    H138394   1.375   5.189   6.423 -1.2082 -1.2668 -0.8218
12817TIP3    H238395   1.495   5.162   6.335 -1.2328 -1.3141 -0.8407
12818TIP3   OH238396   3.071   5.654   5.513 -0.5033 -0.3654  0.6925
12818TIP3    H138397   3.131   5.721   5.482 -1.1006 -0.1686 -0.0407
12818TIP3    H238398   3.128   5.585   5.548  0.1671 -0.6762 -0.9990
12819TIP3   OH238399   2.632   6.866   4.489 -0.3721 -0.3119 -0.1377
12819TIP3    H138400   2.669   6.803   4.427  0.2212 -1.0199  0.9192
12819TIP3    H238401   2.670   6.842   4.574 -2.5194 -0.4629  0.8168
12820TIP3   OH238402   1.095   6.338   4.797 -0.1820  0.6468  0.0932
12820TIP3    H138403   1.123   6.308   4.710  0.7383  0.2128  0.5394
12820TIP3    H238404   1.033   6.271   4.826 -0.1119  0.5334 -0.0150
12821TIP3   OH238405   7.139   3.358   1.815  0.0154  0.3013  0.8415
12821TIP3    H138406   7.073   3.409   1.769 -0.9642 -1.6016  0.1174
12821TIP3    H238407   7.180   3.304   1.748  2.0999  1.1885  1.3404
12822TIP3   OH238408   3.925   6.438   3.885  0.4751  0.4122  0.7111
12822TIP3    H138409   3.879   6.516   3.854  1.2232 -0.2746 -2.2708
12822TIP3    H238410   3.861   6.391   3.937 -1.7342  0.2724 -2.0340
12823TIP3   OH238411   2.727   7.435   6.885 -0.2026  0.7083  0.0073
12823TIP3    H138412   2.662   7.494   6.921 -0.5998  0.3444 -0.1102
12823TIP3    H238413   2.806   7.488   6.875 -0.5738  1.2280 -0.1531
12824TIP3   OH238414   6.568   1.789   6.067 -0.6605 -0.3940 -0.1402
12824TIP3    H138415   6.635   1.722   6.083 -0.8493 -0.4734  0.3035
12824TIP3    H238416   6.547   1.779   5.974  0.9851  0.5707 -0.6406
12825TIP3   OH238417   2.429   6.811   5.220  0.8900 -0.1980  0.2523
12825TIP3    H138418   2.418   6.762   5.138  4.0177 -0.0570 -0.3078
12825TIP3    H238419   2.348   6.860   5.229  0.2567 -0.6557 -2.4843
12826TIP3   OH238420   6.740   1.814   5.273  0.0584 -0.6542  0.1338
12826TIP3    H138421   6.828   1.834   5.243 -0.2519 -0.9480 -1.0359
12826TIP3    H238422   6.744   1.722   5.299  0.0942 -0.6761  0.0521
12827TIP3   OH238423   6.805   0.304   6.019 -0.1591 -0.5874 -0.6996
12827TIP3    H138424   6.866   0.336   5.952 -0.7205  1.9944 -0.0315
12827TIP3    H238425   6.733   0.266   5.969  1.8556 -3.5704 -1.5026
12828TIP3   OH238426   3.396   7.744   5.381 -0.1674  0.5638 -0.1372
12828TIP3    H138427   3.337   7.758   5.307  0.5289 -1.1226 -1.0355
12828TIP3    H238428   3.358   7.669   5.427  0.5376  0.3190  0.0425
12829TIP3   OH238429   2.749   4.707   6.734 -0.0636  0.2203 -0.1017
12829TIP3    H138430   2.751   4.794   6.693  0.5021  0.1876 -0.1508
12829TIP3    H238431   2.675   4.663   6.693  1.2113 -0.2364 -1.9660
12830TIP3   OH238432   5.892   0.212   6.721  1.0828  0.4372 -0.0053
12830TIP3    H138433   5.801   0.199   6.694 -0.0832  1.0142  3.3785
12830TIP3    H238434   5.931   0.125   6.719  0.5001  0.2132 -1.6278
12831TIP3   OH238435   5.692   0.608   5.496  0.3342 -0.3341 -0.2937
12831TIP3    H138436   5.618   0.602   5.436  0.1221 -0.1226 -0.0571
12831TIP3    H238437   5.660   0.567   5.577  0.2472  0.3426  0.0218
12832TIP3   OH238438   1.588   6.536   4.198  0.1170  0.3277  0.1847
12832TIP3    H138439   1.544   6.613   4.163 -0.1048  1.4504  2.8243
12832TIP3    H238440   1.546   6.462   4.153  0.2107  1.7197 -2.2157
12833TIP3   OH238441   6.581   0.361   5.400  0.4361 -0.3053  0.2163
12833TIP3    H138442   6.547   0.273   5.379  1.0795 -0.5762  0.3041
12833TIP3    H238443   6.645   0.346   5.469  2.1681 -0.0287 -1.2724
12834TIP3   OH238444   0.152   4.279   0.369 -0.6202 -0.5070  0.4983
12834TIP3    H138445   0.163   4.188   0.398  0.3728 -0.2536  0.9211
12834TIP3    H238446   0.227   4.295   0.311 -2.3171 -0.8620 -1.8807
12835TIP3   OH238447   1.743   7.250   6.849 -0.5940  0.4001  0.4831
12835TIP3    H138448   1.647   7.250   6.851 -0.6004  0.0114  0.1923
12835TIP3    H238449   1.768   7.281   6.936 -0.9837  0.4126  0.5936
12836TIP3   OH238450   3.315   7.077   6.171 -0.3915  0.4165 -0.4112
12836TIP3    H138451   3.227   7.114   6.175 -0.1607  0.7786  1.7867
12836TIP3    H238452   3.371   7.144   6.211  1.0013  0.4593 -2.3303
12837TIP3   OH238453   7.086   7.199   4.013 -0.3908  0.1721  0.2125
12837TIP3    H138454   7.169   7.157   3.987  0.0903  0.7055  0.8631
12837TIP3    H238455   7.081   7.277   3.959 -1.1094 -0.5298 -0.7409
12838TIP3   OH238456   4.866   5.482   5.828  0.1583 -0.0603  0.1124
12838TIP3    H138457   4.872   5.558   5.770 -1.9806 -0.9112 -1.2379
12838TIP3    H238458   4.922   5.416   5.788 -0.9473 -0.4847 -0.7472
12839TIP3   OH238459   0.098   5.113   3.242 -0.4022 -0.3744 -0.2878
12839TIP3    H138460   0.051   5.058   3.305 -1.0471  1.4594  0.8745
12839TIP3    H238461   0.040   5.188   3.229  0.5283  0.1046 -1.7381
12840TIP3   OH238462   0.768   2.953   0.230  0.1776 -0.7771 -0.0094
12840TIP3    H138463   0.803   2.867   0.208 -1.4196 -2.0333  2.0662
12840TIP3    H238464   0.835   2.993   0.285  1.1618 -0.4576 -1.4289
12841TIP3   OH238465   1.743   7.552   6.424  0.1655 -0.2978 -0.0455
12841TIP3    H138466   1.793   7.615   6.371  0.9215 -0.6207  0.2722
12841TIP3    H238467   1.772   7.568   6.514  0.2658 -1.0014  0.0536
12842TIP3   OH238468   2.477   6.275   4.964  0.1769 -0.2081 -0.3856
12842TIP3    H138469   2.430   6.305   4.886  0.5073  1.4310  0.0180
12842TIP3    H238470   2.551   6.225   4.929  0.4356  0.6747 -1.1464
12843TIP3   OH238471   6.111   0.951   6.542 -0.3384 -0.0022 -0.0496
12843TIP3    H138472   6.121   1.046   6.539 -0.1701 -0.0171  0.0580
12843TIP3    H238473   6.199   0.918   6.561 -0.2393 -0.2153 -0.8664
12844TIP3   OH238474   1.045   4.870   1.330 -0.3872 -0.2752  0.0855
12844TIP3    H138475   1.078   4.919   1.405  0.2983  2.0156 -1.6506
12844TIP3    H238476   1.121   4.822   1.298 -0.2801  0.0117 -0.0951
12845TIP3   OH238477   5.446   0.730   5.035  0.0883 -0.3545 -0.0825
12845TIP3    H138478   5.359   0.690   5.038  0.2609 -0.6897  0.7556
12845TIP3    H238479   5.454   0.764   4.946 -0.4027 -1.4199 -0.5423
12846TIP3   OH238480   2.867   6.345   5.147  0.3475 -0.1010 -0.0277
12846TIP3    H138481   2.895   6.388   5.228 -2.1451  1.6393 -0.0379
12846TIP3    H238482   2.943   6.353   5.088  1.3341  0.7188  1.3282
12847TIP3   OH238483   5.807   1.844   5.666  0.1617 -0.0079 -0.3092
12847TIP3    H138484   5.751   1.853   5.589  1.2391  0.3351 -1.0820
12847TIP3    H238485   5.749   1.816   5.736 -1.0967  1.0571 -0.9134
12848TIP3   OH238486   1.490   6.786   4.180 -0.1000 -0.0251 -0.1373
12848TIP3    H138487   1.518   6.865   4.226 -1.6870  0.7604 -0.4912
12848TIP3    H238488   1.527   6.795   4.092  0.0961  0.1047 -0.0409
12849TIP3   OH238489   7.991   3.754   0.410  0.2310  0.3748 -0.1875
12849TIP3    H138490   8.084   3.774   0.420  0.0871  1.7339 -1.3788
12849TIP3    H238491   7.973   3.690   0.479  1.9628  0.3524  0.2774
12850TIP3   OH238492   1.939   6.227   5.733  0.3752  0.3857  0.1442
12850TIP3    H138493   1.901   6.269   5.811  1.4307  0.5383  0.5802
12850TIP3    H238494   1.973   6.300   5.681  0.1491  0.2407 -0.2112
12851TIP3   OH238495   0.987   6.527   5.597  0.4939 -0.1187 -0.0293
12851TIP3    H138496   0.932   6.582   5.540 -0.9615  0.2284  1.6777
12851TIP3    H238497   0.928   6.460   5.629  1.3236 -0.3440  1.0463
12852TIP3   OH238498   6.253   2.733   1.097  0.3524  0.7379  0.5224
12852TIP3    H138499   6.315   2.672   1.138  0.1305  0.6762  0.7714
12852TIP3    H238500   6.205   2.679   1.034 -0.2081  0.5293  1.1205
12853TIP3   OH238501   7.008   0.875   6.045  0.0888 -0.0094  0.0619
12853TIP3    H138502   7.066   0.929   5.992  1.9833 -2.3064 -0.3009
12853TIP3    H238503   7.059   0.855   6.124 -1.7316  1.2449  1.5940
12854TIP3   OH238504   2.883   7.258   4.700 -0.1447  0.4238 -0.4926
12854TIP3    H138505   2.947   7.239   4.631  0.0934 -1.4808  0.2094
12854TIP3    H238506   2.800   7.227   4.663 -0.2561  0.7339 -0.4962
12855TIP3   OH238507   1.238   6.655   5.662  0.1581 -0.3557  0.8406
12855TIP3    H138508   1.151   6.614   5.657  0.9049 -1.8486 -0.4613
12855TIP3    H238509   1.223   6.746   5.638 -0.7294 -1.1374 -1.8464
12856TIP3   OH238510   2.829   5.959   5.034  0.2478  0.9642 -0.1535
12856TIP3    H138511   2.828   5.909   4.952  1.0639  0.9263 -0.1491
12856TIP3    H238512   2.883   6.036   5.014 -0.0815  1.2774  0.1628
12857TIP3   OH238513   0.974   2.164   1.463 -0.0863 -0.0201  0.1978
12857TIP3    H138514   1.042   2.173   1.530  0.4353 -0.3717 -0.2864
12857TIP3    H238515   0.975   2.071   1.440 -0.7962 -0.0475  0.2495
12858TIP3   OH238516   2.431   2.154   4.465 -0.0470  0.1430 -0.5736
12858TIP3    H138517   2.504   2.120   4.518  0.6056 -0.3885 -1.7998
12858TIP3    H238518   2.471   2.222   4.410 -0.3049 -0.6668 -1.7888
12859TIP3   OH238519   5.849   6.981   6.817  0.2498 -0.1239 -0.0984
12859TIP3    H138520   5.845   6.944   6.729  0.5150  0.7256 -0.4783
12859TIP3    H238521   5.763   6.964   6.855  0.0517 -0.2616 -0.6155
12860TIP3   OH238522   3.056   6.789   4.396  0.1770  1.0200  1.0538
12860TIP3    H138523   3.041   6.824   4.308 -0.4009  0.0712  0.7681
12860TIP3    H238524   3.138   6.741   4.390  0.4565  1.4773  1.1925
12861TIP3   OH238525   1.454   7.347   6.851  0.8296  0.5723 -0.3815
12861TIP3    H138526   1.383   7.389   6.899  0.1954 -0.9180  0.0229
12861TIP3    H238527   1.431   7.360   6.759 -0.8231 -1.2403 -0.2625
12862TIP3   OH238528   2.808   7.021   5.801  0.2454  0.3209  0.2111
12862TIP3    H138529   2.782   7.041   5.711  1.1427 -1.3938 -0.4679
12862TIP3    H238530   2.726   7.022   5.851 -0.6807 -1.5237 -1.1983
12863TIP3   OH238531   3.065   0.239   5.491  0.1273 -0.4819 -0.4499
12863TIP3    H138532   3.158   0.259   5.505 -0.2520  0.4338  0.7929
12863TIP3    H238533   3.034   0.208   5.576 -1.0343  0.5433 -0.4871
12864TIP3   OH238534   8.060   6.141   3.820  0.3477 -0.1173 -0.4535
12864TIP3    H138535   8.098   6.227   3.835  0.7266 -0.5291  1.0501
12864TIP3    H238536   8.061   6.130   3.725  2.5839  0.5005 -0.5273
12865TIP3   OH238537   2.166   5.611   4.294  0.4232 -0.0198 -0.3850
12865TIP3    H138538   2.125   5.534   4.255 -1.0986  0.7155 -0.2676
12865TIP3    H238539   2.222   5.577   4.363 -2.2364 -0.8880  1.4318
12866TIP3   OH238540   5.468   0.171   5.786 -0.1511  0.2223  0.3062
12866TIP3    H138541   5.515   0.115   5.724 -2.2746  0.1434 -1.3093
12866TIP3    H238542   5.419   0.110   5.841  0.0721  0.3822  0.6871
12867TIP3   OH238543   7.461   2.221   1.150 -0.0605 -0.5158 -0.2037
12867TIP3    H138544   7.415   2.301   1.127  0.3250 -0.4042 -0.5863
12867TIP3    H238545   7.408   2.151   1.111  0.7210 -0.3129 -1.6423
12868TIP3   OH238546   6.808   0.257   5.513 -0.3847  0.2749  0.1464
12868TIP3    H138547   6.849   0.239   5.598 -0.5768  2.5602  0.7587
12868TIP3    H238548   6.851   0.196   5.453 -0.7040 -1.8494  1.9636
12869TIP3   OH238549   4.546   6.901   6.343 -0.2213  0.0667 -0.0004
12869TIP3    H138550   4.635   6.883   6.374 -0.3709  0.5677  0.7411
12869TIP3    H238551   4.558   6.952   6.263  0.1716 -1.0741 -0.6809
12870TIP3   OH238552   2.368   6.837   5.943  0.7174 -0.4750  0.0170
12870TIP3    H138553   2.389   6.791   6.024  1.4509 -0.3091 -0.0822
12870TIP3    H238554   2.382   6.772   5.874 -1.4295 -1.1134  0.1288
12871TIP3   OH238555   3.809   7.105   3.620 -0.2307  0.0529 -0.3362
12871TIP3    H138556   3.809   7.015   3.588 -2.2572 -0.5273  1.1716
12871TIP3    H238557   3.750   7.104   3.696  0.2147  2.5096  0.1063
12872TIP3   OH238558   7.077   0.994   6.825 -0.4891 -0.5003 -0.2862
12872TIP3    H138559   7.044   0.927   6.885  0.5451 -0.1719  0.6645
12872TIP3    H238560   7.069   1.076   6.874 -0.0717 -0.1662 -0.7718
12873TIP3   OH238561   4.678   0.943   4.757  0.1950 -0.2707 -0.1245
12873TIP3    H138562   4.685   1.037   4.746 -0.3639 -0.0400  1.4144
12873TIP3    H238563   4.584   0.925   4.756  0.3123 -0.9063 -1.0883
12874TIP3   OH238564   4.675   6.790   5.821 -0.2284 -0.3523  0.4778
12874TIP3    H138565   4.683   6.694   5.822  0.1274 -0.3391 -0.5174
12874TIP3    H238566   4.760   6.821   5.789 -1.0102  0.1982 -1.1354
12875TIP3   OH238567   1.975   6.076   6.491 -0.0675 -0.2139 -0.0492
12875TIP3    H138568   1.985   5.986   6.461 -0.4748 -0.1965 -0.2435
12875TIP3    H238569   1.959   6.069   6.585  0.7269 -0.2980  0.0849
12876TIP3   OH238570   3.071   7.253   5.298 -0.5503 -0.0603  0.2039
12876TIP3    H138571   3.155   7.207   5.305 -0.4711 -0.0908 -0.8671
12876TIP3    H238572   3.005   7.185   5.303 -0.4666 -0.1787 -0.3087
12877TIP3   OH238573   4.647   0.436   6.825  0.3723 -0.4041 -0.2149
12877TIP3    H138574   4.721   0.450   6.766 -0.0729  0.8924 -0.4739
12877TIP3    H238575   4.657   0.502   6.894 -0.3248 -0.4772 -0.0316
12878TIP3   OH238576   3.394   6.688   4.643  0.0101  0.1323  0.0174
12878TIP3    H138577   3.307   6.692   4.682  0.0798  1.7973  0.0015
12878TIP3    H238578   3.453   6.680   4.719  0.0610  2.2275  0.2296
12879TIP3   OH238579   3.965   0.007   4.611 -0.2475 -0.3231 -0.1850
12879TIP3    H138580   3.931   0.096   4.621  0.0459 -0.2564  0.2313
12879TIP3    H238581   4.044   0.016   4.558  0.7096 -0.1288  1.2514
12880TIP3   OH238582   1.659   7.821   6.717 -0.7463  0.6092 -0.2778
12880TIP3    H138583   1.629   7.857   6.801 -0.4776  0.6744 -0.2081
12880TIP3    H238584   1.583   7.776   6.682 -1.0419  1.1253 -0.2933
12881TIP3   OH238585   0.877   1.310   0.593  0.4962 -0.0321 -0.3717
12881TIP3    H138586   0.801   1.368   0.594 -0.1155 -0.8350  0.0558
12881TIP3    H238587   0.952   1.369   0.583 -0.1569  0.7846 -0.5094
12882TIP3   OH238588   3.528   0.533   6.245  0.4802 -0.4096  0.2700
12882TIP3    H138589   3.622   0.552   6.236  0.4380 -0.0948  0.4861
12882TIP3    H238590   3.507   0.560   6.334  0.0533  0.0668  0.0217
12883TIP3   OH238591   8.334   6.701   4.848 -0.3014  0.3250  0.3916
12883TIP3    H138592   8.417   6.703   4.895  0.0672 -1.4705 -0.1611
12883TIP3    H238593   8.358   6.700   4.756 -0.9484  0.2334  0.2213
12884TIP3   OH238594   4.975   1.774   4.749  0.0387  0.2343 -0.0681
12884TIP3    H138595   5.004   1.864   4.760  2.3753 -0.3736 -0.9515
12884TIP3    H238596   5.048   1.721   4.781 -1.2159 -1.3387  0.2319
12885TIP3   OH238597   8.496   1.848   0.885 -0.1401  0.0384  0.4297
12885TIP3    H138598   8.525   1.800   0.962  0.2930  0.2952  0.4215
12885TIP3    H238599   8.423   1.902   0.916 -0.0417  0.0539  0.6319
12886TIP3   OH238600   2.049   7.654   5.948  0.7460  0.1038  0.4249
12886TIP3    H138601   2.000   7.577   5.919 -0.0610  0.0539  1.8788
12886TIP3    H238602   2.062   7.705   5.868  1.0801 -1.4164 -0.5160
12887TIP3   OH238603   5.189   0.769   4.281  0.0025 -0.7659  0.1712
12887TIP3    H138604   5.151   0.746   4.196 -1.2463  0.4652  0.3783
12887TIP3    H238605   5.114   0.768   4.342  0.2807  1.6804  0.5974
12888TIP3   OH238606   2.509   7.280   6.066  0.4660 -0.3001  0.1431
12888TIP3    H138607   2.415   7.264   6.059  0.6145 -0.5410 -1.3862
12888TIP3    H238608   2.545   7.200   6.103  0.0458 -0.1320  0.9212
12889TIP3   OH238609   4.039   0.960   3.611  0.2218  0.1726 -0.2166
12889TIP3    H138610   4.075   0.910   3.683  0.2412 -0.5023 -0.6857
12889TIP3    H238611   4.004   0.894   3.551 -3.3956  0.8407  1.0483
12890TIP3   OH238612   0.603   6.492   3.785 -0.2709 -0.0875 -0.2494
12890TIP3    H138613   0.565   6.572   3.821 -0.0447 -0.0949  0.0067
12890TIP3    H238614   0.695   6.513   3.773 -0.9664  1.0859 -4.0974
12891TIP3   OH238615   0.898   4.183   6.640 -0.0535  0.5042  0.1628
12891TIP3    H138616   0.877   4.134   6.720 -0.1719 -1.1458 -0.8644
12891TIP3    H238617   0.847   4.264   6.648 -0.1008  0.3413  1.7304
12892TIP3   OH238618   7.295   2.851   0.167 -0.3801  0.3641  0.2260
12892TIP3    H138619   7.279   2.925   0.108  1.4200  0.9764  0.4496
12892TIP3    H238620   7.210   2.808   0.176 -0.8898  0.8257 -2.0377
12893TIP3   OH238621   3.835   1.202   3.892  0.3654 -0.7264 -0.3244
12893TIP3    H138622   3.763   1.144   3.916 -1.5299  1.1739 -1.3196
12893TIP3    H238623   3.861   1.173   3.804 -0.2143 -0.4375 -0.5944
12894TIP3   OH238624   5.241   2.906   6.692 -0.2124  0.1912 -0.1560
12894TIP3    H138625   5.225   2.836   6.628  0.0153  0.7178 -0.7984
12894TIP3    H238626   5.185   2.884   6.766 -1.2710  0.1401 -0.9541
12895TIP3   OH238627   3.866   1.196   2.890  0.6228  0.9964 -0.3055
12895TIP3    H138628   3.946   1.192   2.943 -0.1146  1.2239  0.8230
12895TIP3    H238629   3.833   1.284   2.902 -0.6825  0.4048  0.5417
12896TIP3   OH238630   3.672   1.198   5.412 -0.2303 -0.4262  0.3559
12896TIP3    H138631   3.638   1.152   5.488  2.2455 -1.0790  1.1254
12896TIP3    H238632   3.603   1.260   5.388 -1.8361 -1.5649  1.9283
12897TIP3   OH238633   5.300   1.549   6.147 -0.7116  0.4675  0.1181
12897TIP3    H138634   5.228   1.609   6.126 -1.2856 -0.0760  0.5213
12897TIP3    H238635   5.265   1.493   6.217  0.2148  0.4147  0.5482
12898TIP3   OH238636   6.209   0.021   5.630  0.3324 -0.0827 -0.1543
12898TIP3    H138637   6.177   0.064   5.551 -2.7433  0.8109  1.4902
12898TIP3    H238638   6.193  -0.072   5.615 -1.5426  0.2075 -0.0670
12899TIP3   OH238639   0.449   6.665   3.932  0.0023 -0.4581  0.3853
12899TIP3    H138640   0.367   6.645   3.978 -0.4256  0.3050 -0.0249
12899TIP3    H238641   0.518   6.641   3.994 -0.5200 -1.4727  0.5869
12900TIP3   OH238642   1.278   6.691   6.270 -0.5979 -0.0498  0.1710
12900TIP3    H138643   1.246   6.644   6.193 -1.4059 -0.6394  0.8526
12900TIP3    H238644   1.208   6.752   6.291  0.4829  1.5270 -0.7552
12901TIP3   OH238645   6.803   3.121   1.773  0.2336  0.0806 -0.2777
12901TIP3    H138646   6.872   3.056   1.784 -0.6204 -1.1746 -2.1747
12901TIP3    H238647   6.813   3.152   1.683 -2.2541 -0.7887 -0.8909
12902TIP3   OH238648   0.884   5.667   0.035  0.4003  0.2532  0.0757
12902TIP3    H138649   0.932   5.711   0.106  1.5776  0.2797 -0.7289
12902TIP3    H238650   0.806   5.721   0.022  0.1414  0.2176  1.3911
12903TIP3   OH238651   4.541   0.052   6.578  0.0476  0.6466  0.0372
12903TIP3    H138652   4.533   0.023   6.487 -0.0475  0.6059  0.0588
12903TIP3    H238653   4.567  -0.027   6.626  1.9413  1.0547 -0.2533
12904TIP3   OH238654   6.956   2.021   4.305  0.2457 -0.1658 -0.0709
12904TIP3    H138655   7.021   1.975   4.359  2.3061  1.2671 -1.2380
12904TIP3    H238656   7.005   2.048   4.227 -1.4564  2.0171 -0.4364
12905TIP3   OH238657   2.443   6.138   5.833  0.1008  0.5315 -0.1800
12905TIP3    H138658   2.451   6.043   5.829 -1.9324  0.3261  0.1893
12905TIP3    H238659   2.375   6.159   5.769 -0.9429  1.5153  1.2125
12906TIP3   OH238660   3.938   7.390   5.363 -0.8203 -0.0954 -0.5629
12906TIP3    H138661   3.969   7.478   5.342 -0.4222 -0.1253 -0.1073
12906TIP3    H238662   3.844   7.402   5.381 -0.6063  0.3691  0.2682
12907TIP3   OH238663   7.177   3.315   0.251  0.1677 -0.1311  0.6534
12907TIP3    H138664   7.271   3.319   0.233  0.5043  0.7105  2.5175
12907TIP3    H238665   7.170   3.265   0.332 -1.0560 -0.8864  0.0967
12908TIP3   OH238666   8.223   5.936   5.110  0.4692 -0.0532  0.1880
12908TIP3    H138667   8.160   6.003   5.083  1.0257  0.0314 -0.8897
12908TIP3    H238668   8.169   5.861   5.135 -0.2322  1.1795  2.5631
12909TIP3   OH238669   6.745   4.658   0.285 -0.4602  0.0858 -0.3191
12909TIP3    H138670   6.753   4.606   0.205  0.4179  0.1888 -0.3000
12909TIP3    H238671   6.812   4.726   0.277 -1.1652  0.8194 -0.0449
12910TIP3   OH238672   3.339   6.335   6.684  0.2369  0.6723  0.1993
12910TIP3    H138673   3.433   6.328   6.701  0.5840  1.9717 -1.1019
12910TIP3    H238674   3.298   6.295   6.761  1.8526 -0.7462  0.3444
12911TIP3   OH238675   1.936   7.268   6.017  0.3945  1.0226 -0.1561
12911TIP3    H138676   1.912   7.343   5.962 -2.7243  0.9102  0.9566
12911TIP3    H238677   1.920   7.298   6.106  0.2868 -0.5964  0.3849
12912TIP3   OH238678   7.338   5.601   1.893  0.2078  0.1129  0.1768
12912TIP3    H138679   7.344   5.641   1.806  1.3336 -0.2780  0.0676
12912TIP3    H238680   7.273   5.532   1.883  0.8770 -0.4202 -0.5552
12913TIP3   OH238681   2.403   7.113   3.882 -0.3620  0.1110 -0.5135
12913TIP3    H138682   2.339   7.107   3.811 -1.4452 -0.2904  0.4815
12913TIP3    H238683   2.418   7.023   3.909  0.8739  0.1771 -0.9429
12914TIP3   OH238684   6.853   1.618   4.033 -0.5687  0.5676 -0.2459
12914TIP3    H138685   6.895   1.562   3.969 -0.0365  1.6136 -0.8196
12914TIP3    H238686   6.785   1.563   4.073 -0.8171 -0.1163 -1.6085
12915TIP3   OH238687   4.721   0.853   4.481 -0.3450  0.0334  0.3961
12915TIP3    H138688   4.701   0.849   4.574  0.7315 -1.0936  0.5850
12915TIP3    H238689   4.652   0.907   4.444 -1.0196  0.1285  1.7799
12916TIP3   OH238690   8.055   3.188   0.060 -0.0611  0.2013 -0.6052
12916TIP3    H138691   8.141   3.148   0.067  0.6719  2.0755  1.8426
12916TIP3    H238692   7.995   3.115   0.046  1.4929 -1.5007  1.3508
12917TIP3   OH238693   4.985   0.760   4.480  0.6825  0.2459 -0.2135
12917TIP3    H138694   4.991   0.836   4.538  0.4961 -0.9589  1.4213
12917TIP3    H238695   4.891   0.750   4.465  0.7511  0.7466 -0.9894
12918TIP3   OH238696   3.106   7.883   4.184 -0.0105  0.0017 -0.2667
12918TIP3    H138697   3.101   7.956   4.123  2.0933  0.2164 -0.2323
12918TIP3    H238698   3.108   7.924   4.270  2.6270  0.0379 -0.2952
12919TIP3   OH238699   6.004   1.176   6.350 -0.6183  0.1022 -0.4193
12919TIP3    H138700   5.963   1.095   6.318  0.0383 -0.8175  0.9791
12919TIP3    H238701   5.978   1.243   6.287 -0.9774 -1.2485 -1.7360
12920TIP3   OH238702   1.195   7.205   5.454  0.1069  0.0803  0.0514
12920TIP3    H138703   1.217   7.286   5.500 -0.8409  0.5933 -0.3719
12920TIP3    H238704   1.122   7.230   5.398  0.4329 -0.8411 -0.7915
12921TIP3   OH238705   0.001   2.803   0.075 -0.3362  0.4717 -0.6226
12921TIP3    H138706  -0.014   2.746  -0.000 -2.0970  0.6782 -0.4612
12921TIP3    H238707   0.091   2.834   0.065  0.3139 -1.5380 -1.2415
12922TIP3   OH238708   4.546   7.313   5.852 -0.5387  0.2250  0.0300
12922TIP3    H138709   4.581   7.255   5.920 -0.9896 -0.0202  0.0575
12922TIP3    H238710   4.454   7.323   5.875 -0.2405  1.7706  0.5914
12923TIP3   OH238711   6.374   0.374   4.210  0.5100  0.2313 -0.2537
12923TIP3    H138712   6.286   0.399   4.183  0.6117  0.3316 -0.5054
12923TIP3    H238713   6.362   0.322   4.289  0.2904  1.0783  0.2752
12924TIP3   OH238714   6.717   3.399   1.073  0.1959 -0.3472  0.2022
12924TIP3    H138715   6.728   3.415   0.980 -0.0276  1.3142  0.4597
12924TIP3    H238716   6.663   3.320   1.078  0.8376 -0.8660 -1.0625
12925TIP3   OH238717   0.126   3.984   1.048 -0.1449  0.0834  0.7305
12925TIP3    H138718   0.194   4.006   1.111  0.7859 -0.4221 -0.0652
12925TIP3    H238719   0.169   3.994   0.963 -0.5207 -1.9975  0.2748
12926TIP3   OH238720   0.516   2.888   0.151 -0.2123 -0.4415  0.7506
12926TIP3    H138721   0.527   2.801   0.111 -1.0578 -1.1868  2.0872
12926TIP3    H238722   0.603   2.910   0.185 -0.4165 -1.6566  2.1232
12927TIP3   OH238723   4.761   6.748   6.867 -0.4783  1.0665 -0.3897
12927TIP3    H138724   4.846   6.742   6.822  0.1124  0.2965  0.7966
12927TIP3    H238725   4.697   6.751   6.796  0.4962  0.8571 -1.3008
12928TIP3   OH238726   3.677   6.437   6.322 -0.6083 -0.0905  0.2641
12928TIP3    H138727   3.649   6.491   6.249 -1.6758 -1.1967 -0.1522
12928TIP3    H238728   3.597   6.396   6.355  0.1901 -1.5047  0.4977
12929TIP3   OH238729   1.472   6.020   6.554  0.1603 -0.8643 -0.1820
12929TIP3    H138730   1.529   5.965   6.500 -1.2596 -1.0658 -1.5125
12929TIP3    H238731   1.459   5.969   6.634  0.2584 -1.7044 -0.6900
12930TIP3   OH238732   2.352   7.182   5.727 -0.2785 -0.5561 -0.2272
12930TIP3    H138733   2.366   7.271   5.761  0.0341 -0.8903  0.5409
12930TIP3    H238734   2.273   7.152   5.771  0.1976 -1.0388  0.3097
12931TIP3   OH238735   4.285   7.160   5.104  0.2007 -0.2182  0.3861
12931TIP3    H138736   4.332   7.187   5.183 -1.8963  0.8555  1.2825
12931TIP3    H238737   4.299   7.231   5.042 -0.2357  0.0889  0.6422
12932TIP3   OH238738   4.921   1.217   4.414  0.5994  0.2259 -0.1477
12932TIP3    H138739   4.999   1.215   4.469  1.7307  0.8146 -1.6917
12932TIP3    H238740   4.913   1.309   4.387  0.2339 -0.1074 -1.2040
12933TIP3   OH238741   2.524   6.662   1.319 -0.9653  0.1452 -0.4932
12933TIP3    H138742   2.558   6.727   1.258  0.4657 -1.3461 -1.3109
12933TIP3    H238743   2.569   6.580   1.296 -2.0989 -0.9592  1.0570
12934TIP3   OH238744   3.657   7.701   0.034 -0.4869 -0.1434  0.2676
12934TIP3    H138745   3.678   7.725  -0.056 -2.0386  1.0809  0.2134
12934TIP3    H238746   3.561   7.703   0.038 -0.3972  3.6410  2.9387
12935TIP3   OH238747   1.490   5.767   5.770  0.3435  0.0441 -0.1986
12935TIP3    H138748   1.420   5.743   5.830 -0.4270 -0.8514 -1.4282
12935TIP3    H238749   1.562   5.707   5.790  0.8855  1.1441  1.2482
12936TIP3   OH238750   2.117   7.359   6.794 -0.0788  0.7067  0.9524
12936TIP3    H138751   2.112   7.268   6.823  0.0418  0.7996  1.2678
12936TIP3    H238752   2.067   7.361   6.712  0.9129  0.1110  0.3289
12937TIP3   OH238753   4.379   7.021   4.151  0.1716  0.1887 -0.2251
12937TIP3    H138754   4.468   7.048   4.127  0.9595 -2.0491 -0.0248
12937TIP3    H238755   4.337   6.998   4.068  1.8129 -4.4154  0.0458
12938TIP3   OH238756   2.965   6.390   6.202  0.1438  0.0159  0.1053
12938TIP3    H138757   2.933   6.312   6.246 -2.3604  0.6875 -0.4569
12938TIP3    H238758   3.029   6.428   6.263  0.2202 -1.6080  1.0478
12939TIP3   OH238759   2.198   7.714   5.230 -0.0894 -0.7122 -0.3923
12939TIP3    H138760   2.221   7.625   5.257 -1.0030 -0.2861  1.8964
12939TIP3    H238761   2.155   7.703   5.145 -0.4615 -2.5020  0.0047
12940TIP3   OH238762   1.543   7.072   5.941  0.0044  0.4598  0.4968
12940TIP3    H138763   1.517   7.032   5.857 -0.0461  0.6000  0.4463
12940TIP3    H238764   1.635   7.048   5.951  0.8075  2.7534 -0.9469
12941TIP3   OH238765   7.037   2.265   1.127 -0.1283  0.7275 -0.5782
12941TIP3    H138766   7.027   2.331   1.196  1.1479  1.1290 -0.7496
12941TIP3    H238767   7.063   2.186   1.174  1.1862  1.1188 -0.6183
12942TIP3   OH238768   1.554   7.095   6.699 -0.4620  0.3205 -0.0028
12942TIP3    H138769   1.538   7.189   6.692  1.1429  0.5986 -0.0891
12942TIP3    H238770   1.557   7.064   6.608  1.7656  0.6820 -0.0724
12943TIP3   OH238771   1.761   6.837   5.106 -0.1376 -0.2245  0.3131
12943TIP3    H138772   1.836   6.791   5.144 -0.0778  1.4295  2.2668
12943TIP3    H238773   1.795   6.922   5.079 -0.7896 -0.3753 -1.0283
12944TIP3   OH238774   7.794   1.812   1.005 -0.0546  0.1359 -0.0542
12944TIP3    H138775   7.749   1.894   0.983 -0.3529 -0.3077 -1.0952
12944TIP3    H238776   7.735   1.769   1.067 -0.9987 -0.3581 -1.2724
12945TIP3   OH238777   1.923   7.904   4.632 -0.0668 -0.8213  0.1572
12945TIP3    H138778   1.981   7.897   4.557  1.6590 -0.3670  1.4137
12945TIP3    H238779   1.862   7.974   4.609  0.7256 -0.3842 -0.6232
12946TIP3   OH238780   7.837   2.779   0.622  0.0665 -0.1498 -0.0568
12946TIP3    H138781   7.796   2.833   0.555 -1.6675 -1.2991  0.0567
12946TIP3    H238782   7.793   2.803   0.704  1.7105  0.7610  0.6024
12947TIP3   OH238783   7.403   3.901   2.797  0.5329 -0.1800  0.2405
12947TIP3    H138784   7.411   3.806   2.790 -0.2442 -0.2897  0.7273
12947TIP3    H238785   7.476   3.935   2.745  1.0126 -1.0421  0.3255
12948TIP3   OH238786   3.587   5.891   5.902 -1.0304  0.0758 -0.2236
12948TIP3    H138787   3.683   5.898   5.899 -0.9929  1.1890  2.0323
12948TIP3    H238788   3.571   5.799   5.924 -0.4478 -0.0475 -0.2971
12949TIP3   OH238789   6.308   1.593   5.605 -0.4714  0.0795 -0.2490
12949TIP3    H138790   6.280   1.545   5.527  0.4126  1.3291 -1.3542
12949TIP3    H238791   6.228   1.632   5.640 -0.4571  2.0877 -2.3255
12950TIP3   OH238792   7.630   0.950   6.477 -0.2788  0.6176  0.7718
12950TIP3    H138793   7.700   1.000   6.433  0.1111 -0.3817  0.2262
12950TIP3    H238794   7.673   0.912   6.553 -0.1554 -0.2248  0.2836
12951TIP3   OH238795   7.242   1.284   5.557 -0.2734 -0.0938 -0.5216
12951TIP3    H138796   7.256   1.249   5.469 -1.8574  0.9773 -1.2055
12951TIP3    H238797   7.193   1.215   5.602  1.4621 -1.1003 -0.1185
12952TIP3   OH238798   7.082   0.070   6.933 -0.5370 -0.3263  0.0189
12952TIP3    H138799   7.173   0.040   6.926 -0.4657  0.0802 -0.9075
12952TIP3    H238800   7.068   0.123   6.854 -1.3851  0.1338  0.4730
12953TIP3   OH238801   7.209   2.791   5.053  0.1314 -0.8017  0.4987
12953TIP3    H138802   7.170   2.705   5.069  1.6309 -1.3605  1.1841
12953TIP3    H238803   7.262   2.779   4.974 -0.3095 -0.2904  0.1223
12954TIP3   OH238804   3.121   6.524   5.580  0.3300 -0.1766  0.2210
12954TIP3    H138805   3.102   6.611   5.544  0.0318 -0.4609 -0.3328
12954TIP3    H238806   3.216   6.515   5.573  0.4899  0.5508  1.3364
12955TIP3   OH238807   6.141   1.416   5.021  0.2198 -0.3394 -0.2331
12955TIP3    H138808   6.158   1.509   5.031 -2.7750  0.0512  1.8598
12955TIP3    H238809   6.192   1.390   4.944  1.9660  2.7474 -0.1783
12956TIP3   OH238810   7.306   0.421   5.538 -0.1141  0.5128  0.0593
12956TIP3    H138811   7.283   0.349   5.479  0.2832  0.2533  0.2181
12956TIP3    H238812   7.336   0.378   5.618 -0.2878  0.8611  0.3124
12957TIP3   OH238813   7.079   0.034   2.940 -0.0703 -0.4629 -0.0206
12957TIP3    H138814   7.014  -0.001   2.879 -1.4974  0.0715  1.1859
12957TIP3    H238815   7.163   0.010   2.901 -0.9532  0.3459 -2.4803
12958TIP3   OH238816   3.375   4.902   0.133  0.1366 -0.3478 -0.1248
12958TIP3    H138817   3.336   4.989   0.121  0.6728 -0.4008 -2.5237
12958TIP3    H238818   3.329   4.866   0.209 -1.2674  1.3782 -0.1108
12959TIP3   OH238819   3.049   6.340   6.520 -0.4473 -0.0545 -0.3084
12959TIP3    H138820   3.116   6.408   6.524 -0.8484  0.2896  0.5037
12959TIP3    H238821   3.096   6.263   6.487  0.0808  0.5120 -0.9026
12960TIP3   OH238822   7.018   1.077   5.676 -0.0599  0.5688 -0.1079
12960TIP3    H138823   6.946   1.031   5.720  1.3794 -1.2282  0.4368
12960TIP3    H238824   7.028   1.032   5.592  0.9251  0.2902  0.1486
12961TIP3   OH238825   1.250   4.182   0.399  0.5713 -0.0654 -0.1880
12961TIP3    H138826   1.249   4.242   0.474  0.8714 -1.8962  1.3126
12961TIP3    H238827   1.296   4.231   0.331  1.7787  1.0346  1.3594
12962TIP3   OH238828   6.711   0.716   4.852 -0.5077 -0.5940 -0.0665
12962TIP3    H138829   6.792   0.668   4.834  0.1583  0.5136 -0.0951
12962TIP3    H238830   6.710   0.786   4.787 -0.4072  0.6831  1.2719
12963TIP3   OH238831   1.581   4.438   0.248  0.1942  0.8824 -0.7128
12963TIP3    H138832   1.639   4.513   0.236  1.4401  0.1582  0.5683
12963TIP3    H238833   1.636   4.362   0.229 -1.1196  0.2905 -2.2248
12964TIP3   OH238834   4.178   5.256   4.804  0.2022  0.2977  0.0499
12964TIP3    H138835   4.136   5.263   4.889 -0.0805 -0.0222 -0.0630
12964TIP3    H238836   4.137   5.180   4.763  1.4710 -0.5236  0.2682
12965TIP3   OH238837   1.878   1.090   4.488 -0.3441  0.0105 -0.5658
12965TIP3    H138838   1.795   1.056   4.521 -0.1375  0.0429 -0.0174
12965TIP3    H238839   1.856   1.174   4.449 -0.3347  0.6580  0.8130
12966TIP3   OH238840   5.240   1.315   3.218  0.1741 -0.2523  0.4582
12966TIP3    H138841   5.207   1.332   3.307 -0.4851 -1.8417  0.5351
12966TIP3    H238842   5.288   1.395   3.195  1.1252 -0.1509  2.6070
12967TIP3   OH238843   6.941   1.875   5.021  0.0979 -0.4040 -0.1674
12967TIP3    H138844   7.017   1.856   5.076  1.5777 -0.0196 -2.0144
12967TIP3    H238845   6.910   1.789   4.992 -0.0521 -0.5495  0.4147
12968TIP3   OH238846   3.683   7.451   4.451 -0.4563  0.7963 -0.7098
12968TIP3    H138847   3.599   7.427   4.413  0.0937 -1.3991 -0.6531
12968TIP3    H238848   3.684   7.406   4.536  0.9456  0.4209 -0.9121
12969TIP3   OH238849   5.289   7.930   4.373  0.0400 -0.0429  0.5097
12969TIP3    H138850   5.322   7.927   4.284 -2.1038  1.1039 -0.3576
12969TIP3    H238851   5.325   8.010   4.410 -0.2397  0.2361  0.1809
12970TIP3   OH238852   5.214   1.487   5.890  0.0957 -0.2759 -0.4694
12970TIP3    H138853   5.144   1.550   5.877  0.2362 -0.0524 -0.1309
12970TIP3    H238854   5.240   1.497   5.981 -0.1550 -1.1109 -0.3049
12971TIP3   OH238855   4.883   7.490   5.206  0.4465 -0.2551  0.7340
12971TIP3    H138856   4.935   7.412   5.184 -0.3107 -1.3684  2.8072
12971TIP3    H238857   4.948   7.555   5.235  0.8299 -1.1440  1.9087
12972TIP3   OH238858   2.737   7.749   6.269 -0.3387  0.3506 -0.3834
12972TIP3    H138859   2.755   7.656   6.257 -0.9389  0.3257 -1.1314
12972TIP3    H238860   2.647   7.760   6.237  0.5896  1.6394 -2.5817
12973TIP3   OH238861   4.060   7.950   5.160  0.6366  0.2151  0.4412
12973TIP3    H138862   3.989   8.010   5.139  1.6582  1.5653  0.7573
12973TIP3    H238863   4.017   7.873   5.196 -0.6727  0.9507  0.4676
12974TIP3   OH238864   0.685   1.862   3.350 -0.0632  0.3004 -0.1289
12974TIP3    H138865   0.723   1.950   3.349  1.2143 -0.2198  1.1887
12974TIP3    H238866   0.733   1.816   3.419 -0.3084 -1.6086 -1.2054
12975TIP3   OH238867   6.821   1.589   5.047 -0.0106 -0.2157 -0.0441
12975TIP3    H138868   6.824   1.576   5.142 -2.0695  1.3805  0.2624
12975TIP3    H238869   6.865   1.512   5.011  0.8544 -0.7978  2.2040
12976TIP3   OH238870   6.897   2.282   4.371  0.3627 -0.1546  0.1608
12976TIP3    H138871   6.954   2.342   4.419  1.3081 -0.5421 -0.4622
12976TIP3    H238872   6.940   2.197   4.378 -0.3152 -0.5162 -0.0301
12977TIP3   OH238873   7.854   7.915   3.535 -0.3312  0.2423 -0.0658
12977TIP3    H138874   7.812   7.840   3.576  1.4056 -0.0883  1.2249
12977TIP3    H238875   7.841   7.904   3.441 -4.2635  0.9011  0.3249
12978TIP3   OH238876   8.171   0.528   3.965 -0.5004  0.1112  0.4923
12978TIP3    H138877   8.152   0.481   3.884  0.9267  0.4143 -0.0424
12978TIP3    H238878   8.145   0.618   3.948 -0.6447  0.0810  0.5494
12979TIP3   OH238879   7.715   0.703   5.272 -0.1001  0.4100  0.4468
12979TIP3    H138880   7.804   0.731   5.251  0.0590 -0.0905  0.4507
12979TIP3    H238881   7.659   0.768   5.229  0.1912 -1.1920 -2.5302
12980TIP3   OH238882   7.054   0.810   4.875 -0.2523 -0.0523  0.0963
12980TIP3    H138883   7.047   0.814   4.779  1.0505 -1.6937 -0.0908
12980TIP3    H238884   7.133   0.859   4.896 -1.0787  1.1545  0.4324
12981TIP3   OH238885   5.061   6.264   4.998 -0.0834 -0.0099  0.1178
12981TIP3    H138886   5.130   6.197   4.999 -0.8493 -0.7883  1.2012
12981TIP3    H238887   5.004   6.242   5.071 -0.0426  2.1757  0.8596
12982TIP3   OH238888   2.851   7.501   6.593 -0.1548  0.4424 -0.1822
12982TIP3    H138889   2.756   7.494   6.586 -0.0565 -0.1386 -0.9352
12982TIP3    H238890   2.883   7.484   6.505  0.6416  0.7966  0.0373
12983TIP3   OH238891   3.028   6.806   5.800  0.6403  0.1930 -0.2548
12983TIP3    H138892   2.964   6.871   5.829 -0.8748 -1.3069 -0.1151
12983TIP3    H238893   3.000   6.725   5.842  0.9800 -1.1111 -2.4609
12984TIP3   OH238894   4.571   7.961   5.523 -0.2646 -0.2279 -0.0075
12984TIP3    H138895   4.527   7.972   5.607  1.5105 -1.4000  1.1110
12984TIP3    H238896   4.540   7.877   5.490 -3.2397  1.5565 -1.9933
12985TIP3   OH238897   6.460   0.901   4.789 -0.1019  0.3466 -0.4046
12985TIP3    H138898   6.510   0.974   4.826  0.9517 -0.2690 -0.5833
12985TIP3    H238899   6.486   0.826   4.842  1.5834 -0.5920 -2.5061
12986TIP3   OH238900   6.490   0.614   5.459 -0.4114  0.4018  0.4676
12986TIP3    H138901   6.552   0.546   5.434 -0.5661  0.3790  0.1431
12986TIP3    H238902   6.404   0.571   5.453 -0.5834  0.9047 -0.6780
12987TIP3   OH238903   6.112   0.944   4.134  0.2314  0.6168 -0.4760
12987TIP3    H138904   6.194   0.900   4.113 -1.4733 -1.8502 -2.1583
12987TIP3    H238905   6.094   0.919   4.225  0.2244 -0.6499 -0.8187
12988TIP3   OH238906   7.602   0.070   6.308  0.1735 -0.0836  0.7524
12988TIP3    H138907   7.678   0.119   6.339  1.8264 -1.8894 -0.3603
12988TIP3    H238908   7.558   0.131   6.249  1.7337  0.3805  0.0394
12989TIP3   OH238909   6.472   1.919   4.793  0.0713  0.7007  0.0137
12989TIP3    H138910   6.513   1.851   4.846 -0.9788 -0.8818 -1.1515
12989TIP3    H238911   6.499   2.001   4.833 -0.5488 -0.4529  2.8764
12990TIP3   OH238912   2.815   6.460   5.637  0.1315  0.3300 -0.2351
12990TIP3    H138913   2.757   6.388   5.661  1.1923 -0.2696  0.5386
12990TIP3    H238914   2.869   6.475   5.715  1.1760  0.7315 -1.0193
12991TIP3   OH238915   4.665   6.630   5.530 -0.6651 -0.6564 -0.0674
12991TIP3    H138916   4.659   6.617   5.625  0.0824 -1.5021 -0.1218
12991TIP3    H238917   4.637   6.546   5.493  0.1109 -0.7018 -0.5635
12992TIP3   OH238918   7.125   0.516   4.738 -0.5259 -0.0309  0.0723
12992TIP3    H138919   7.041   0.561   4.739 -0.0960  0.7677  0.5515
12992TIP3    H238920   7.161   0.530   4.825  1.7484  2.7725 -1.2278
12993TIP3   OH238921   7.855   1.463   3.332 -0.2441  0.3161 -0.0637
12993TIP3    H138922   7.858   1.436   3.240  0.2815  0.3988 -0.0732
12993TIP3    H238923   7.787   1.408   3.371 -1.0187  0.8159 -0.6756
12994TIP3   OH238924   6.597   7.277   4.239 -0.3685  0.5467 -0.4726
12994TIP3    H138925   6.646   7.355   4.264  1.0882 -0.5341  0.1062
12994TIP3    H238926   6.507   7.308   4.229  0.1887  2.3012 -0.2962
12995TIP3   OH238927   0.600   4.389   0.276 -0.7395 -0.0229 -0.0004
12995TIP3    H138928   0.665   4.454   0.300 -0.6393 -0.1113 -0.0283
12995TIP3    H238929   0.616   4.316   0.336 -1.5015  0.3743  0.6949
12996TIP3   OH238930   5.259   1.840   5.171 -0.5112 -0.4439 -0.5452
12996TIP3    H138931   5.343   1.802   5.146 -0.1127  0.0702  0.0053
12996TIP3    H238932   5.278   1.933   5.184 -0.9724 -0.4865  0.4505
12997TIP3   OH238933   7.824   0.589   4.839 -0.0049 -0.1451 -0.5760
12997TIP3    H138934   7.740   0.591   4.884  0.5532  1.0700  0.4576
12997TIP3    H238935   7.842   0.681   4.818  0.6674 -0.4904 -1.5335
12998TIP3   OH238936   0.719   4.939   0.963 -0.0027  0.2668 -0.4729
12998TIP3    H138937   0.647   4.911   0.907 -0.9742  0.8133  0.4753
12998TIP3    H238938   0.744   4.860   1.011 -1.1260  0.4698  0.4511
12999TIP3   OH238939   5.750   7.519   4.573  0.9798 -0.1641  0.0682
12999TIP3    H138940   5.708   7.595   4.612  0.4783 -1.2021  1.5743
12999TIP3    H238941   5.842   7.529   4.594  1.3277  1.3962 -2.0475
13000TIP3   OH238942   2.206   3.879   1.291 -0.1919 -0.1818 -0.2920
13000TIP3    H138943   2.296   3.855   1.316 -0.3930 -1.5280 -0.8344
13000TIP3    H238944   2.168   3.798   1.259 -1.2388  0.6523 -1.1871
13001TIP3   OH238945   4.079   7.491   5.007 -0.1884 -0.0986 -0.7959
13001TIP3    H138946   4.073   7.488   4.911  2.0992  1.4048 -1.0160
13001TIP3    H238947   4.168   7.520   5.025 -0.9131  0.6885  1.8008
13002TIP3   OH238948   1.048   3.693   0.063  0.4278  0.4979 -0.0003
13002TIP3    H138949   1.090   3.616   0.025  0.1963  0.9771 -1.2744
13002TIP3    H238950   1.071   3.764   0.003  1.0796  1.5224  1.4454
13003TIP3   OH238951   3.643   7.216   5.994  0.5324  0.1507 -0.6671
13003TIP3    H138952   3.680   7.226   5.906  0.3306  2.7213 -0.4914
13003TIP3    H238953   3.686   7.284   6.046 -1.4148  0.5057  0.5287
13004TIP3   OH238954   6.028   0.878   6.806  0.1632  0.1222 -0.1270
13004TIP3    H138955   6.036   0.842   6.718 -1.3405 -0.9040  0.1335
13004TIP3    H238956   5.998   0.968   6.793  2.2583  0.7384 -0.7315
13005TIP3   OH238957   0.798   3.659   0.354  0.4885 -0.4603 -0.1812
13005TIP3    H138958   0.838   3.745   0.350  0.0729 -0.1393  1.8685
13005TIP3    H238959   0.749   3.651   0.273  1.1020  0.9426 -0.6990
13006TIP3   OH238960   3.567   5.077   6.209 -0.4706  0.0951 -0.0924
13006TIP3    H138961   3.609   5.043   6.130 -0.0608  0.5139 -0.0601
13006TIP3    H238962   3.639   5.100   6.267 -0.7508  0.4833  0.1090
13007TIP3   OH238963   5.085   1.709   6.133 -0.2705 -0.6550 -0.0696
13007TIP3    H138964   5.035   1.733   6.211 -1.0883 -0.5613 -0.6258
13007TIP3    H238965   5.050   1.765   6.064 -0.1550 -1.3720 -0.7117
13008TIP3   OH238966   6.758   0.136   6.239  0.1987 -0.2426 -0.1238
13008TIP3    H138967   6.666   0.160   6.235  0.2289 -0.1331 -0.1632
13008TIP3    H238968   6.801   0.193   6.175  0.3176 -0.1780  0.0119
13009TIP3   OH238969   2.264   7.419   4.325 -0.5886  0.3052 -0.1204
13009TIP3    H138970   2.326   7.416   4.252 -0.3567  0.9265  0.0491
13009TIP3    H238971   2.246   7.327   4.344 -1.5715  0.1458 -1.7427
13010TIP3   OH238972   5.351   0.029   5.483  0.0522  0.1612  0.0818
13010TIP3    H138973   5.313   0.117   5.486 -2.3997 -0.9041  2.0781
13010TIP3    H238974   5.443   0.043   5.461 -0.3364  3.2134  0.2101
13011TIP3   OH238975   6.683   0.410   5.141  0.0535  0.3067 -0.1155
13011TIP3    H138976   6.723   0.497   5.144 -1.4427  1.1212 -2.3144
13011TIP3    H238977   6.654   0.393   5.230  0.4302  2.0463  0.3510
13012TIP3   OH238978   2.780   7.459   6.317 -0.2366 -0.1598 -0.0746
13012TIP3    H138979   2.711   7.463   6.383  1.4451 -1.2279  1.8151
13012TIP3    H238980   2.791   7.366   6.300  0.3766  0.0394 -0.7704
13013TIP3   OH238981   1.893   3.533   0.560  0.0829  0.1216  0.5126
13013TIP3    H138982   1.890   3.491   0.646  1.1148 -1.9098 -0.4285
13013TIP3    H238983   1.857   3.468   0.500 -0.8396  1.6055 -0.5844
13014TIP3   OH238984   2.617   7.526   5.212  0.4227 -0.3873  0.3058
13014TIP3    H138985   2.682   7.569   5.268 -1.9187  1.3853  1.7278
13014TIP3    H238986   2.656   7.440   5.193  2.9891  0.4651  1.4555
13015TIP3   OH238987   0.222   0.509   6.860  0.5006 -0.3043 -0.0963
13015TIP3    H138988   0.257   0.527   6.947 -1.5244  1.2097  0.4296
13015TIP3    H238989   0.252   0.582   6.806  0.5865 -0.5190 -0.3393
13016TIP3   OH238990   6.940   0.143   5.760  0.4305 -0.0881 -0.5438
13016TIP3    H138991   6.987   0.206   5.815  1.2125  0.1048 -1.4313
13016TIP3    H238992   6.886   0.094   5.822  1.1188  0.2919  0.3744
13017TIP3   OH238993   0.760   3.617   0.059 -0.0172 -0.6523 -0.6532
13017TIP3    H138994   0.847   3.639   0.090  0.5378 -0.8834 -1.9889
13017TIP3    H238995   0.770   3.532   0.015 -0.3942  0.4350 -2.9234
13018TIP3   OH238996   2.403   6.039   5.157 -0.2553  0.3876 -0.0563
13018TIP3    H138997   2.336   6.100   5.188  0.2497  1.3313 -0.8221
13018TIP3    H238998   2.476   6.094   5.130  0.7166 -0.6199  0.4611
13019TIP3   OH238999   5.827   0.746   4.534  0.3316 -0.3317  0.8529
13019TIP3    H139000   5.884   0.735   4.458  1.0687  1.0242  1.1932
13019TIP3    H239001   5.887   0.765   4.606 -0.5100  0.6350  1.3120
13020TIP3   OH239002   6.380   1.106   3.885 -0.2687  0.2509 -0.0529
13020TIP3    H139003   6.301   1.144   3.924  0.5452  2.8671 -0.8364
13020TIP3    H239004   6.417   1.051   3.955 -2.2540 -0.2645  0.6315
13021TIP3   OH239005   2.673   6.247   5.755 -0.2495 -0.8108  0.1960
13021TIP3    H139006   2.589   6.222   5.793 -0.6936 -0.1059 -0.3095
13021TIP3    H239007   2.697   6.173   5.699 -2.6118  0.6757 -3.0012
13022TIP3   OH239008   7.656   0.253   4.840 -0.2132  0.3798 -0.0781
13022TIP3    H139009   7.575   0.202   4.837  0.1009 -0.1943  0.8378
13022TIP3    H239010   7.628   0.344   4.835 -0.7593  0.1117 -2.2004
13023TIP3   OH239011   7.583   0.171   5.523  0.1652 -0.2189  0.1822
13023TIP3    H139012   7.629   0.102   5.570 -1.4743  0.7035  3.2948
13023TIP3    H239013   7.510   0.127   5.480 -1.5171 -0.3262  3.0571
13024TIP3   OH239014   5.521   7.607   5.389 -0.2021 -0.0393 -0.4449
13024TIP3    H139015   5.523   7.520   5.427 -0.1134 -0.7611 -2.0450
13024TIP3    H239016   5.430   7.620   5.361 -0.8171  1.4216  2.0398
13025TIP3   OH239017   4.440   7.313   5.284  0.4149  0.0031  0.7005
13025TIP3    H139018   4.493   7.375   5.234 -2.0873  1.1313 -0.6243
13025TIP3    H239019   4.383   7.368   5.337 -0.0290 -1.1815  1.4640
13026TIP3   OH239020   2.363   6.854   2.148  0.0229 -0.3503  0.6356
13026TIP3    H139021   2.440   6.801   2.126 -0.2996  0.1533 -1.9595
13026TIP3    H239022   2.290   6.791   2.150 -0.0498 -0.3123 -0.4993
13027TIP3   OH239023   7.145   0.308   3.384  0.7267 -0.5643 -0.1851
13027TIP3    H139024   7.199   0.332   3.309 -0.5896 -0.9004 -1.2574
13027TIP3    H239025   7.073   0.257   3.347  0.4268 -1.3298  1.3860
13028TIP3   OH239026   6.148   7.152   4.090 -0.4745  0.2083 -0.6299
13028TIP3    H139027   6.222   7.098   4.118 -0.5330 -0.6361 -2.0614
13028TIP3    H239028   6.097   7.165   4.170  1.5728  1.4064  0.5408
13029TIP3   OH239029   3.223   6.033   5.897 -0.1817 -0.5750 -0.1171
13029TIP3    H139030   3.198   6.117   5.858  0.6572 -0.6002 -0.7112
13029TIP3    H239031   3.157   5.971   5.865 -0.7856 -0.1548  0.3001
13030TIP3   OH239032   2.396   1.114   3.463 -0.8475 -0.2819 -0.6656
13030TIP3    H139033   2.364   1.202   3.441 -1.1290 -0.1216  0.3417
13030TIP3    H239034   2.479   1.130   3.508 -1.1966 -0.4951  0.0571
13031TIP3   OH239035   5.426   6.491   2.399 -0.2075  0.4072  0.5308
13031TIP3    H139036   5.434   6.577   2.358  0.8743 -0.0927 -0.3312
13031TIP3    H239037   5.457   6.505   2.489 -0.5700  1.0403  0.5585
13032TIP3   OH239038   3.563   6.592   4.850  0.2404  0.2628  0.4873
13032TIP3    H139039   3.648   6.626   4.822  0.0946  1.4964  1.4652
13032TIP3    H239040   3.584   6.537   4.926  0.2274  0.1323  0.3952
13033TIP3   OH239041   4.906   7.044   5.691 -0.3710  0.8799 -0.3922
13033TIP3    H139042   4.911   7.002   5.605 -2.3258  0.4820 -0.3418
13033TIP3    H239043   4.873   7.132   5.672  0.9852  1.4262 -0.2252
13034TIP3   OH239044   6.072   6.598   3.115  0.1474  0.3133  0.3545
13034TIP3    H139045   6.132   6.636   3.179 -0.2155  0.9499  0.3285
13034TIP3    H239046   6.028   6.528   3.161  0.4973  0.2168  0.5462
13035TIP3   OH239047   4.447   6.578   6.041 -0.1429 -0.6839 -0.8147
13035TIP3    H139048   4.533   6.553   6.075 -0.7659 -0.1503  1.2545
13035TIP3    H239049   4.439   6.671   6.064 -1.7925 -1.0507  0.2349
13036TIP3   OH239050   4.826   7.480   3.055  0.6863  0.2937 -0.0636
13036TIP3    H139051   4.791   7.402   3.098  0.2454 -0.0725 -1.0794
13036TIP3    H239052   4.898   7.508   3.112 -0.2283  0.1332  1.2033
13037TIP3   OH239053   3.149   7.184   5.947 -0.2097  0.2524  0.0562
13037TIP3    H139054   3.151   7.201   5.853 -0.3217 -2.5631 -0.4986
13037TIP3    H239055   3.089   7.250   5.982  0.2090  1.6298 -1.7603
13038TIP3   OH239056   6.463   3.350   3.712  0.4362  0.6519 -0.2170
13038TIP3    H139057   6.406   3.352   3.634 -2.0915 -0.6813  1.5297
13038TIP3    H239058   6.466   3.441   3.741  1.3711  1.1546 -1.8309
13039TIP3   OH239059   2.095   5.274   0.441 -0.2406  0.3319 -0.2101
13039TIP3    H139060   2.096   5.179   0.428 -0.2010  0.0435  1.8017
13039TIP3    H239061   2.187   5.299   0.440 -0.2836  0.4709 -1.4999
13040TIP3   OH239062   7.552   0.586   4.558  0.2594  0.2748 -0.7784
13040TIP3    H139063   7.502   0.591   4.476  0.9971 -0.3146 -1.2675
13040TIP3    H239064   7.639   0.619   4.535  1.5841 -3.3061 -1.1570
13041TIP3   OH239065   6.936   0.791   4.119 -0.8926 -0.0361  0.4713
13041TIP3    H139066   6.963   0.732   4.048 -2.6045  0.3752 -0.5413
13041TIP3    H239067   6.847   0.762   4.141 -0.5882  0.2166  2.0626
13042TIP3   OH239068   5.861   1.073   4.578 -0.1561 -0.0759 -0.1897
13042TIP3    H139069   5.889   1.049   4.667  0.0134  1.1921  0.1180
13042TIP3    H239070   5.771   1.040   4.571  0.2207 -1.1616  0.0485
13043TIP3   OH239071   2.904   6.700   3.588 -0.2242 -0.2033  0.2357
13043TIP3    H139072   2.837   6.640   3.556 -0.0049 -0.6314  0.5748
13043TIP3    H239073   2.930   6.665   3.673  0.7178 -0.2749 -0.0686
13044TIP3   OH239074   2.334   7.203   5.206 -0.1593  0.1510  0.1846
13044TIP3    H139075   2.401   7.207   5.273 -1.1950 -0.4362  1.2763
13044TIP3    H239076   2.272   7.137   5.237 -0.0144 -1.0444 -1.9378
13045TIP3   OH239077   4.976   6.523   2.340 -0.4674  0.0129 -0.1076
13045TIP3    H139078   5.030   6.452   2.377 -2.2390 -1.3831 -0.1059
13045TIP3    H239079   4.897   6.523   2.394  0.4538  3.5812  1.3673
13046TIP3   OH239080   5.135   2.688   6.527 -0.0671 -0.2063 -0.8694
13046TIP3    H139081   5.190   2.610   6.528  0.2446  0.0136  0.6780
13046TIP3    H239082   5.064   2.666   6.467  1.0264 -0.9594 -1.9207
13047TIP3   OH239083   7.560   0.958   4.931  0.1789 -0.5325  0.0034
13047TIP3    H139084   7.606   1.042   4.933  0.2011 -0.5502  0.2664
13047TIP3    H239085   7.570   0.928   4.840  3.0877 -1.8433  0.6851
13048TIP3   OH239086   3.438   7.601   6.415 -0.4723  0.0357 -0.2235
13048TIP3    H139087   3.517   7.552   6.392 -1.0533 -0.8450 -0.3636
13048TIP3    H239088   3.460   7.644   6.497 -0.0432 -0.6906  0.0471
13049TIP3   OH239089   0.859   1.982   6.214 -0.6586  0.0193  0.1301
13049TIP3    H139090   0.840   2.046   6.146 -0.1574  1.0064  0.8946
13049TIP3    H239091   0.954   1.982   6.221 -0.7104  0.0107  0.9001
13050TIP3   OH239092   0.254   0.651   5.263 -0.1226 -0.0757  0.0438
13050TIP3    H139093   0.243   0.687   5.350  0.3303  1.3754 -0.4875
13050TIP3    H239094   0.296   0.566   5.277  1.8084  1.0145  1.1234
13051TIP3   OH239095   4.449   4.064   4.874  0.0469  0.1057  0.0285
13051TIP3    H139096   4.424   4.017   4.795  1.4048  0.5644 -0.6865
13051TIP3    H239097   4.376   4.124   4.890  0.7448  1.6023 -2.1697
13052TIP3   OH239098   5.263   7.340   5.365 -0.1572  0.2974 -0.0079
13052TIP3    H139099   5.202   7.310   5.433 -0.0727 -2.5996 -1.1291
13052TIP3    H239100   5.214   7.329   5.283  1.7604 -1.8350 -0.9031
13053TIP3   OH239101   5.281   7.397   6.925  0.2754 -0.0840 -0.0148
13053TIP3    H139102   5.354   7.424   6.980  0.9369 -0.1983 -0.8281
13053TIP3    H239103   5.321   7.350   6.853 -0.1705  3.5411 -2.7949
13054TIP3   OH239104   8.155   1.009   5.104 -0.0972 -0.2353  0.1520
13054TIP3    H139105   8.209   1.068   5.157 -1.2059  0.5892  0.3713
13054TIP3    H239106   8.173   0.922   5.141  0.6663  0.0948  0.5749
13055TIP3   OH239107   0.141   4.765   1.975  0.2787 -0.0483  0.2505
13055TIP3    H139108   0.123   4.672   1.967 -0.0638 -0.2591  2.8109
13055TIP3    H239109   0.225   4.769   2.020  0.0629  0.8515  0.5849
13056TIP3   OH239110   4.110   6.790   4.697  0.0402 -0.0491  0.2743
13056TIP3    H139111   4.019   6.820   4.707 -0.1527 -0.8278  0.9499
13056TIP3    H239112   4.157   6.866   4.662 -1.0626  0.0613 -1.0069
13057TIP3   OH239113   6.772   1.635   3.086 -0.0447 -0.1462 -0.2180
13057TIP3    H139114   6.719   1.642   3.007 -2.7213 -0.9562  1.4443
13057TIP3    H239115   6.860   1.613   3.055 -0.9625 -0.0614 -2.9567
13058TIP3   OH239116   1.854   5.774   0.513 -0.2017  0.1664  0.1668
13058TIP3    H139117   1.898   5.695   0.544  0.0481 -0.3570 -1.4796
13058TIP3    H239118   1.862   5.771   0.418  0.1815  2.3857  0.0861
13059TIP3   OH239119   0.960   0.617   3.560  0.1481  0.3957 -0.2591
13059TIP3    H139120   0.940   0.622   3.467 -1.1234  0.1008 -0.0195
13059TIP3    H239121   0.876   0.631   3.603  0.7734  0.7947  0.8488
13060TIP3   OH239122   6.173   2.107   6.338 -0.1932  0.3441  0.1082
13060TIP3    H139123   6.155   2.013   6.332  0.7645  0.1149  0.7209
13060TIP3    H239124   6.197   2.121   6.430  1.9213  0.7755 -0.4799
13061TIP3   OH239125   3.165   7.520   6.468 -0.1932 -0.1581  0.3262
13061TIP3    H139126   3.120   7.501   6.386  0.3336 -0.4515  0.0988
13061TIP3    H239127   3.257   7.533   6.442  0.0152 -0.4793  0.8969
13062TIP3   OH239128   5.195   1.675   4.916  0.1862  0.0254  0.1762
13062TIP3    H139129   5.261   1.609   4.936  0.1088  0.1306  0.8187
13062TIP3    H239130   5.206   1.741   4.986 -1.5714 -0.6923  1.1604
13063TIP3   OH239131   1.494   0.572   6.436 -0.0028 -0.5155 -0.5736
13063TIP3    H139132   1.471   0.558   6.528 -1.9237 -0.1232 -0.9750
13063TIP3    H239133   1.574   0.521   6.423 -0.1788 -1.2440  1.1035
13064TIP3   OH239134   6.988   2.196   5.972  0.2214 -0.0215 -0.0262
13064TIP3    H139135   7.035   2.117   5.997 -0.5210 -0.7817 -0.9759
13064TIP3    H239136   7.047   2.268   5.994  0.3367 -0.7544  2.1347
13065TIP3   OH239137   0.760   3.961   0.011 -0.2646  0.5519  0.4933
13065TIP3    H139138   0.800   3.977   0.096  0.7855  0.4469  0.0309
13065TIP3    H239139   0.830   3.922  -0.042 -0.0914  3.0609 -1.2255
13066TIP3   OH239140   6.020   0.278   6.257  0.2707 -0.8081  0.0962
13066TIP3    H139141   6.083   0.314   6.194  1.6510 -0.0374  1.8652
13066TIP3    H239142   5.952   0.238   6.203  2.3766 -1.8455 -1.8989
13067TIP3   OH239143   3.823   6.552   5.084  0.1486 -0.6443  0.3277
13067TIP3    H139144   3.755   6.546   5.152 -0.6854  0.5705 -0.3599
13067TIP3    H239145   3.903   6.572   5.132 -0.3145 -0.4187  1.0249
13068TIP3   OH239146   5.577   0.218   4.571 -0.1435 -0.3558 -0.2587
13068TIP3    H139147   5.567   0.263   4.655 -0.9479 -0.3224 -0.3630
13068TIP3    H239148   5.494   0.235   4.525  0.7195  0.5362 -1.4939
13069TIP3   OH239149   7.595   0.860   5.594  0.2079 -0.2099  0.3184
13069TIP3    H139150   7.653   0.929   5.562 -2.0659  1.7697  0.2606
13069TIP3    H239151   7.627   0.840   5.682  2.5650 -1.0715 -0.7027
13070TIP3   OH239152   0.283   0.300   6.109 -0.0072  0.6265  0.3895
13070TIP3    H139153   0.234   0.225   6.144 -2.3467  1.0372 -1.8733
13070TIP3    H239154   0.344   0.262   6.046  1.2338  0.3329  1.7185
13071TIP3   OH239155   3.239   7.083   4.294 -0.3672  0.2265  0.0453
13071TIP3    H139156   3.168   7.134   4.333 -0.2062  0.3063  0.2387
13071TIP3    H239157   3.267   7.024   4.364 -0.0083  0.4409  0.0812
13072TIP3   OH239158   6.133   7.969   6.613  0.2431 -0.3018 -0.0661
13072TIP3    H139159   6.056   7.983   6.557 -0.3777  0.4512  0.9749
13072TIP3    H239160   6.156   7.877   6.598 -0.0017 -0.1554 -1.4475
13073TIP3   OH239161   0.769   0.712   4.752  0.1395  0.2558  0.2394
13073TIP3    H139162   0.679   0.683   4.742  0.5250 -1.2472  0.8986
13073TIP3    H239163   0.791   0.690   4.843  1.6201 -0.7598 -0.3325
13074TIP3   OH239164   3.248   7.265   2.915  0.1062 -0.0561 -0.0991
13074TIP3    H139165   3.262   7.177   2.950  3.7659  0.4850 -0.0573
13074TIP3    H239166   3.216   7.315   2.990  0.1792 -0.8291  0.4552
13075TIP3   OH239167   5.867   0.125   6.064  0.4453 -0.2032 -0.4028
13075TIP3    H139168   5.773   0.119   6.042  0.6272 -1.1399 -0.9569
13075TIP3    H239169   5.911   0.087   5.988  1.2322 -0.7908  0.3492
13076TIP3   OH239170   6.451   0.873   5.370 -0.1160 -0.0193 -0.4583
13076TIP3    H139171   6.515   0.937   5.401  0.3894 -0.1746 -1.1579
13076TIP3    H239172   6.482   0.789   5.403 -1.1600  0.1748  1.0488
13077TIP3   OH239173   4.424   7.519   4.023  0.2466 -0.2067  0.0503
13077TIP3    H139174   4.337   7.558   4.026  0.3351 -0.0367  0.4154
13077TIP3    H239175   4.432   7.471   4.105  0.7245  0.2724  0.2881
13078TIP3   OH239176   8.459   0.082   6.459  0.6019 -0.3216 -0.7974
13078TIP3    H139177   8.437   0.151   6.522  3.1818 -0.5535  0.3976
13078TIP3    H239178   8.461   0.002   6.511  0.3312 -0.9003 -1.6655
13079TIP3   OH239179   7.129   1.460   5.776 -0.3140  0.1380 -0.3669
13079TIP3    H139180   7.138   1.394   5.706  0.4135 -0.5212  0.3327
13079TIP3    H239181   7.209   1.451   5.827 -0.7751  0.7155  0.4682
13080TIP3   OH239182   4.639   6.381   5.361 -0.1582  0.3299  0.5327
13080TIP3    H139183   4.549   6.366   5.391  0.2085 -0.2284  1.3758
13080TIP3    H239184   4.676   6.293   5.351  0.1034  0.5435 -0.4243
13081TIP3   OH239185   4.353   3.802   6.413 -0.1108 -0.1101  0.3224
13081TIP3    H139186   4.417   3.739   6.381 -1.0596 -1.3630  0.8465
13081TIP3    H239187   4.332   3.772   6.502  1.3414  2.4165  1.5881
13082TIP3   OH239188   7.569   0.244   6.901  0.2455 -0.0607  0.6313
13082TIP3    H139189   7.592   0.219   6.812 -4.5670 -0.5116 -0.6424
13082TIP3    H239190   7.578   0.339   6.903  0.0681 -0.0204 -0.4214
13083TIP3   OH239191   7.985   0.476   6.468  0.3430 -0.0103  0.4923
13083TIP3    H139192   8.002   0.408   6.533  1.3526 -0.5563 -0.3278
13083TIP3    H239193   8.043   0.454   6.395 -0.1217  1.1112 -0.2211
13084TIP3   OH239194   1.656   3.448  -0.026  0.5002 -0.2777 -0.1697
13084TIP3    H139195   1.638   3.454   0.068  2.0493 -1.0596  0.1969
13084TIP3    H239196   1.733   3.392  -0.032  1.0528  0.6313 -1.8600
13085TIP3   OH239197   4.755   6.150   4.721 -0.0012 -0.2485 -0.2195
13085TIP3    H139198   4.701   6.118   4.794  1.1714  0.1507  0.8457
13085TIP3    H239199   4.769   6.074   4.666  0.0388 -0.8245  0.5725
13086TIP3   OH239200   6.313   0.375   4.813 -0.6769 -0.0724  0.6948
13086TIP3    H139201   6.319   0.282   4.834  0.0460 -0.1494  0.1743
13086TIP3    H239202   6.402   0.399   4.786 -0.6419  0.9844  1.7086
13087TIP3   OH239203   1.470   1.021   0.308  0.4609  0.0588 -0.1567
13087TIP3    H139204   1.473   0.955   0.240  1.6473 -0.8830  0.7958
13087TIP3    H239205   1.383   1.061   0.299 -0.2429 -1.5745 -0.7774
13088TIP3   OH239206   3.710   5.022   0.533 -0.6412 -0.2350  0.1910
13088TIP3    H139207   3.633   5.073   0.560 -0.0421 -0.1404  1.7391
13088TIP3    H239208   3.748   5.074   0.462 -0.8852  0.7380  0.7571
13089TIP3   OH239209   4.104   7.877   3.875  0.0976  0.8984 -0.1710
13089TIP3    H139210   4.013   7.884   3.845 -0.0877  0.3851  0.2511
13089TIP3    H239211   4.155   7.926   3.810 -0.2637 -0.4657 -1.5207
13090TIP3   OH239212   5.062   6.068   2.777  0.1438 -0.5191 -0.0182
13090TIP3    H139213   5.054   5.982   2.818 -2.2259 -0.1448  0.3955
13090TIP3    H239214   5.012   6.126   2.835  2.4930  1.3447  0.2408
13091TIP3   OH239215   2.687   8.017   6.225  0.2314 -0.3743 -0.4099
13091TIP3    H139216   2.738   7.951   6.273  2.0829  1.9622  0.9075
13091TIP3    H239217   2.728   8.019   6.138 -0.7318 -1.9119 -0.9322
13092TIP3   OH239218   1.092   5.177   0.849 -0.2980 -0.0564 -0.4757
13092TIP3    H139219   1.009   5.173   0.801 -0.8357 -0.0499  0.4552
13092TIP3    H239220   1.071   5.146   0.937  0.3724  1.3190  0.1833
13093TIP3   OH239221   1.709   4.071   0.637 -0.1084  0.0021  0.2215
13093TIP3    H139222   1.696   4.008   0.567 -1.1962  0.0342  0.3796
13093TIP3    H239223   1.647   4.141   0.618  1.1554  1.0774 -0.0044
13094TIP3   OH239224   8.194   0.031   4.131 -0.7431 -0.4711  0.2014
13094TIP3    H139225   8.186   0.015   4.037  2.1193 -0.1038 -0.1607
13094TIP3    H239226   8.198   0.126   4.139 -0.0169 -0.5337  0.5923
13095TIP3   OH239227   6.691   6.389   3.423  0.0102  0.2299 -0.0412
13095TIP3    H139228   6.767   6.368   3.477 -0.3658 -0.6031  0.1806
13095TIP3    H239229   6.639   6.450   3.476  0.1407  0.1907  0.1310
13096TIP3   OH239230   5.854   0.866   5.231  0.8659  0.2515 -0.1155
13096TIP3    H139231   5.937   0.858   5.182  0.2988 -1.4059 -0.8526
13096TIP3    H239232   5.796   0.803   5.189 -0.3211  0.3518  1.3451
13097TIP3   OH239233   6.265   0.746   4.347  0.0013 -0.5753 -0.2437
13097TIP3    H139234   6.332   0.701   4.296  1.0673 -1.5582  1.9730
13097TIP3    H239235   6.312   0.813   4.395 -1.0062  0.3747 -0.5544
13098TIP3   OH239236   5.850   7.426   3.438  0.4409 -0.4977  0.3693
13098TIP3    H139237   5.919   7.473   3.391 -0.5601  1.9963  1.2545
13098TIP3    H239238   5.879   7.428   3.530 -0.7227  0.5202  0.7379
13099TIP3   OH239239   5.410   0.719   5.617  0.1418 -0.3257 -0.1271
13099TIP3    H139240   5.445   0.696   5.704 -1.9807  0.4912  0.9803
13099TIP3    H239241   5.323   0.679   5.615 -0.5630  1.2152 -1.1446
13100TIP3   OH239242   4.921   7.371   4.834 -0.0965 -0.1316  0.7280
13100TIP3    H139243   5.015   7.356   4.840  0.0678  1.4649  2.6273
13100TIP3    H239244   4.882   7.301   4.888  0.0638 -0.1001  0.8860
13101TIP3   OH239245   5.535   7.158   4.571 -0.4016  0.8914  0.4516
13101TIP3    H139246   5.474   7.109   4.626  0.9263 -0.2436  0.9233
13101TIP3    H239247   5.479   7.222   4.526 -2.0770 -0.6342  0.2820
13102TIP3   OH239248   0.021   0.238   4.902 -0.0710  0.2166  0.4806
13102TIP3    H139249   0.061   0.151   4.897 -1.6741 -0.5419  0.4302
13102TIP3    H239250   0.022   0.270   4.812 -0.3953 -0.1826  0.3322
13103TIP3   OH239251   4.831   6.197   5.801  0.3674 -0.1394  0.5228
13103TIP3    H139252   4.740   6.172   5.819 -0.2529  1.6927  0.0773
13103TIP3    H239253   4.839   6.189   5.706 -0.0693  1.9492  0.2766
13104TIP3   OH239254   0.659   3.921   0.266 -0.4826  0.3849 -0.0007
13104TIP3    H139255   0.673   3.925   0.171  0.5157 -0.6567  0.0847
13104TIP3    H239256   0.747   3.930   0.303 -0.7755 -0.0061  0.7982
13105TIP3   OH239257   6.170   6.919   6.558 -0.6683  0.3261 -0.1598
13105TIP3    H139258   6.149   6.981   6.488  0.3261  0.5887 -0.2418
13105TIP3    H239259   6.240   6.961   6.607 -0.0087 -0.6969 -0.1930
13106TIP3   OH239260   7.072   8.026   1.923  0.6697 -0.0184 -0.2571
13106TIP3    H139261   7.013   7.950   1.927  2.1473 -1.2044 -0.6251
13106TIP3    H239262   7.099   8.041   2.013  0.0116  0.3854 -0.1188
13107TIP3   OH239263   1.294   1.530   2.363 -0.0053  0.1263  0.5209
13107TIP3    H139264   1.301   1.623   2.342 -1.1675  0.4895  1.6604
13107TIP3    H239265   1.220   1.499   2.310 -0.8629  0.3148  1.5741
13108TIP3   OH239266   3.383   5.744   1.212  0.3905  0.0898 -0.0911
13108TIP3    H139267   3.413   5.820   1.260 -0.7434 -0.7860  2.0957
13108TIP3    H239268   3.409   5.669   1.267 -1.0320 -0.9223 -0.7655
13109TIP3   OH239269   1.311   0.113   5.540  0.5724  0.2090  0.2902
13109TIP3    H139270   1.328   0.197   5.581 -0.5324 -0.2622  1.7642
13109TIP3    H239271   1.216   0.101   5.548  0.7634 -1.3517  0.4793
13110TIP3   OH239272   8.134   1.567   5.704  0.0408 -0.4963  0.3708
13110TIP3    H139273   8.116   1.492   5.761  1.4761 -0.5458  0.8004
13110TIP3    H239274   8.054   1.579   5.653 -0.6078 -1.6050  1.1045
13111TIP3   OH239275   6.910   1.041   4.019  0.1987 -0.3444 -0.1688
13111TIP3    H139276   6.924   0.948   4.039  0.5405 -0.5871 -1.4954
13111TIP3    H239277   6.990   1.068   3.975  0.9319  1.1150  1.9993
13112TIP3   OH239278   2.070   0.248   3.498  0.6260  0.4346 -0.2251
13112TIP3    H139279   2.080   0.279   3.408  0.4112 -2.4445 -1.2945
13112TIP3    H239280   2.157   0.215   3.522  0.5162  0.5569  0.3609
13113TIP3   OH239281   8.096   4.545   5.981  0.4698 -0.1272  0.0475
13113TIP3    H139282   8.011   4.514   6.013  0.4100  1.0739  1.1074
13113TIP3    H239283   8.087   4.547   5.886 -1.3927  1.9075  0.2241
13114TIP3   OH239284   0.041   6.688   2.618  0.2609  0.4033 -0.0740
13114TIP3    H139285  -0.008   6.622   2.667 -0.7541  0.0569 -1.5356
13114TIP3    H239286   0.054   6.760   2.681 -0.0917 -0.4614  1.0086
13115TIP3   OH239287   5.436   6.469   4.625 -0.1077  0.0369 -0.2610
13115TIP3    H139288   5.508   6.439   4.569 -0.0331 -0.8599  0.3018
13115TIP3    H239289   5.384   6.390   4.642 -0.1918  0.3091  0.8287
13116TIP3   OH239290   5.237   7.109   3.229  0.1911  0.2318 -0.1805
13116TIP3    H139291   5.331   7.089   3.221  0.4369  1.3591 -0.1048
13116TIP3    H239292   5.198   7.066   3.152  0.6251 -1.0855  0.3172
13117TIP3   OH239293   0.235   0.127   5.240  0.2534  0.2621  0.6694
13117TIP3    H139294   0.215   0.049   5.189  0.0260  0.9265 -0.2686
13117TIP3    H239295   0.278   0.094   5.319 -1.6309 -0.9474  1.2171
13118TIP3   OH239296   2.184   3.596   0.198 -0.1522 -0.0553  0.3611
13118TIP3    H139297   2.104   3.643   0.222  1.1164  1.5968  1.4493
13118TIP3    H239298   2.204   3.627   0.109  0.1333  0.7288  0.6931
13119TIP3   OH239299   7.118   1.587   5.293 -0.3695  0.2480  0.6993
13119TIP3    H139300   7.161   1.630   5.219 -4.0145  0.6626 -1.3001
13119TIP3    H239301   7.109   1.655   5.359 -0.5996  0.9069 -0.0129
13120TIP3   OH239302   0.624   0.277   5.418 -0.3430  0.0844  0.0440
13120TIP3    H139303   0.630   0.366   5.384  0.0982  2.1210  5.1046
13120TIP3    H239304   0.539   0.272   5.462  0.7538 -1.0764  2.1255
13121TIP3   OH239305   8.260   0.748   5.330 -0.4809  0.2913  0.2175
13121TIP3    H139306   8.323   0.810   5.366  0.9130  0.3697 -2.2393
13121TIP3    H239307   8.313   0.672   5.306 -1.4289  0.0606 -1.1776
13122TIP3   OH239308   7.599   7.979   4.080 -0.6655  0.3053  0.3173
13122TIP3    H139309   7.694   7.989   4.089 -0.6310  0.3568 -0.1241
13122TIP3    H239310   7.563   8.056   4.125 -0.5971 -1.5064  3.6071
13123TIP3   OH239311   5.442   6.637   5.382 -0.2168 -0.3567 -0.3104
13123TIP3    H139312   5.433   6.725   5.420 -0.1039 -1.4191  2.3127
13123TIP3    H239313   5.499   6.649   5.306  1.6506  1.5157  1.3146
13124TIP3   OH239314   0.835   1.290   6.024 -0.0594 -0.4225 -0.3635
13124TIP3    H139315   0.761   1.320   5.971  0.1785  1.4520  0.3060
13124TIP3    H239316   0.910   1.337   5.989  0.6922 -1.7419 -0.5406
13125TIP3   OH239317   7.539   1.094   3.695  0.3297 -0.6642  0.4206
13125TIP3    H139318   7.570   1.145   3.620 -1.2776  0.7019  0.6715
13125TIP3    H239319   7.496   1.018   3.656 -0.0735 -0.2048 -0.0295
13126TIP3   OH239320   8.363   0.998   3.938 -0.0812 -0.1668 -0.1631
13126TIP3    H139321   8.457   0.986   3.928  0.1825  0.9579  0.8472
13126TIP3    H239322   8.350   1.092   3.938 -1.3719 -0.3276 -1.6251
13127TIP3   OH239323   5.915   4.887   6.184 -0.0117 -0.3254 -0.0916
13127TIP3    H139324   5.970   4.851   6.254  0.2157 -1.4185 -0.8198
13127TIP3    H239325   5.866   4.811   6.151 -0.1357  0.1906 -1.0923
13128TIP3   OH239326   0.922   1.794   3.501 -0.2265 -0.6106  0.5063
13128TIP3    H139327   1.002   1.817   3.453 -0.1623 -0.3252  0.7514
13128TIP3    H239328   0.900   1.706   3.469  0.1963 -0.6986  0.4466
13129TIP3   OH239329   5.412   7.475   3.324 -0.0561  0.1065  0.2794
13129TIP3    H139330   5.441   7.451   3.412  1.5683  0.5869 -0.1045
13129TIP3    H239331   5.422   7.570   3.320  1.9930 -0.1433 -1.1422
13130TIP3   OH239332   7.737   7.016   4.679  1.2738 -0.2829  0.0365
13130TIP3    H139333   7.785   6.933   4.677  0.3565 -0.8267  0.2733
13130TIP3    H239334   7.803   7.082   4.699  1.9339 -1.0195  0.3013
13131TIP3   OH239335   8.210   7.913   1.591 -0.3605 -0.2054  0.3365
13131TIP3    H139336   8.271   7.934   1.520 -0.5782 -0.6861  0.0022
13131TIP3    H239337   8.176   7.998   1.620 -1.0799 -0.0830 -0.8552
13132TIP3   OH239338   8.419   0.562   4.364 -0.1371  0.5889  0.5897
13132TIP3    H139339   8.489   0.502   4.389 -1.9448 -1.3122  1.2276
13132TIP3    H239340   8.416   0.558   4.269  0.1588  0.1595  0.5990
13133TIP3   OH239341   8.180   2.996   5.512 -0.3028  0.3570  0.2589
13133TIP3    H139342   8.107   3.000   5.573 -2.0484  0.2857 -1.7831
13133TIP3    H239343   8.155   2.928   5.449  0.4839  1.8749 -1.7559
13134TIP3   OH239344   2.711   1.196   4.690  0.4713 -0.0102  0.5887
13134TIP3    H139345   2.790   1.181   4.743  0.0840 -0.9845  0.9022
13134TIP3    H239346   2.672   1.276   4.726  1.4643  0.6382  0.2490
13135TIP3   OH239347   6.242   7.599   6.133 -0.0941 -0.1035  0.1313
13135TIP3    H139348   6.162   7.647   6.113  0.3618  0.1377 -1.1418
13135TIP3    H239349   6.220   7.547   6.211 -0.8267  1.5540  1.0385
13136TIP3   OH239350   1.279   0.510   2.916 -0.4387  0.0774 -0.0965
13136TIP3    H139351   1.220   0.488   2.844  2.6195 -1.6416 -2.2008
13136TIP3    H239352   1.287   0.429   2.966  0.4129  0.1814 -0.0570
13137TIP3   OH239353   0.767   1.512   5.603 -0.5905 -0.6250 -0.5354
13137TIP3    H139354   0.823   1.581   5.640 -0.9952 -0.2325 -0.6384
13137TIP3    H239355   0.680   1.552   5.601 -0.5627 -0.6036 -1.9897
13138TIP3   OH239356   5.447   7.401   6.626 -0.0747 -0.3891 -0.2779
13138TIP3    H139357   5.542   7.416   6.630 -0.0999 -0.3976  0.5572
13138TIP3    H239358   5.433   7.357   6.542  0.4753  0.9084 -1.0653
13139TIP3   OH239359   7.727   2.607   5.204 -0.0030  0.2058 -0.4119
13139TIP3    H139360   7.729   2.541   5.273 -1.3031 -0.7623 -1.2775
13139TIP3    H239361   7.710   2.558   5.124 -0.4975  1.5342 -1.1388
13140TIP3   OH239362   0.893   1.947   4.084 -0.2136  0.2175  0.1658
13140TIP3    H139363   0.889   2.041   4.096  1.0068  0.3834 -0.5994
13140TIP3    H239364   0.928   1.935   3.995 -1.1281 -0.9468 -0.0554
13141TIP3   OH239365   1.416   1.095   6.290  0.1463  0.1203  0.6628
13141TIP3    H139366   1.453   1.032   6.228 -1.8659 -0.3525 -0.0838
13141TIP3    H239367   1.341   1.050   6.328  0.6484  0.8660  2.5534
13142TIP3   OH239368   8.461   0.535   5.314  0.1468  0.2783  0.0412
13142TIP3    H139369   8.484   0.454   5.359 -0.8150 -1.3915 -2.3513
13142TIP3    H239370   8.532   0.595   5.336  0.9323 -1.2316  1.7888
13143TIP3   OH239371   8.317   6.785   4.153 -0.0186  0.2981  0.2229
13143TIP3    H139372   8.283   6.859   4.204 -2.3188  0.0651 -0.8974
13143TIP3    H239373   8.350   6.825   4.073  0.9351  0.3391  0.6221
13144TIP3   OH239374   7.369   0.480   1.318  0.0026  0.6064  0.1097
13144TIP3    H139375   7.322   0.532   1.383  0.4138  0.1494  0.7666
13144TIP3    H239376   7.436   0.539   1.284 -0.1115  0.7931  0.2044
13145TIP3   OH239377   1.641   0.348   6.334 -0.2607  0.1552  0.1838
13145TIP3    H139378   1.695   0.343   6.255  1.2117 -3.7908  1.3408
13145TIP3    H239379   1.704   0.352   6.406 -1.5848  0.7627  1.3374
13146TIP3   OH239380   8.099   0.274   4.427  0.0377  0.1543  0.2054
13146TIP3    H139381   8.171   0.213   4.414  0.4435  0.5238  0.7057
13146TIP3    H239382   8.079   0.307   4.339 -0.9073 -1.4938 -0.2345
13147TIP3   OH239383   1.035   0.477   4.392 -0.6250  0.2477 -0.1482
13147TIP3    H139384   1.111   0.418   4.395 -1.7707 -1.1806  1.6870
13147TIP3    H239385   0.961   0.420   4.376 -1.6025  1.3616  0.3498
13148TIP3   OH239386   1.802   1.902   6.122 -0.6891  0.1114  0.3414
13148TIP3    H139387   1.892   1.871   6.129 -0.3343  0.7846 -1.0110
13148TIP3    H239388   1.788   1.956   6.199  0.9231  2.1140 -0.7334
13149TIP3   OH239389   3.554   7.704   6.659 -0.1400 -0.7734 -0.0186
13149TIP3    H139390   3.553   7.637   6.727 -0.5647 -0.5860  0.1597
13149TIP3    H239391   3.524   7.784   6.703 -0.1563 -0.5905 -0.3570
13150TIP3   OH239392   7.256   0.495   3.922  0.1274  0.4654  0.4055
13150TIP3    H139393   7.256   0.409   3.880 -0.4685 -0.1036  1.5518
13150TIP3    H239394   7.290   0.478   4.011 -1.7159  1.1010  1.2441
13151TIP3   OH239395   3.251   6.972   5.622  0.3421  0.4273  0.0999
13151TIP3    H139396   3.335   6.999   5.660  1.3097  0.1067 -1.7747
13151TIP3    H239397   3.186   7.000   5.686  1.7777  1.8243  0.9799
13152TIP3   OH239398   1.777   1.864   5.011  0.1939  0.2521  0.0063
13152TIP3    H139399   1.852   1.909   5.049 -0.6976 -0.4451  2.6972
13152TIP3    H239400   1.779   1.777   5.051 -1.2610 -0.2338 -0.9414
13153TIP3   OH239401   6.806   7.993   3.429  0.6907 -0.0520  0.3732
13153TIP3    H139402   6.867   7.987   3.502  2.0005  2.6287 -0.4247
13153TIP3    H239403   6.724   8.022   3.468  0.5500 -1.4159  1.1324
13154TIP3   OH239404   5.638   7.299   3.330 -0.1392  0.5733 -0.1061
13154TIP3    H139405   5.707   7.359   3.355 -0.1076  0.5582 -0.1556
13154TIP3    H239406   5.571   7.309   3.398 -0.3111  0.9584 -0.3291
13155TIP3   OH239407   0.645   1.447   4.908 -0.1115  0.1012 -0.1658
13155TIP3    H139408   0.715   1.396   4.866  0.0644  0.8655 -0.7899
13155TIP3    H239409   0.568   1.431   4.854  0.0177  0.7568 -0.5363
13156TIP3   OH239410   6.349   7.611   5.548  0.7894  0.9823 -0.4239
13156TIP3    H139411   6.316   7.530   5.509 -0.1053  0.8640  0.5537
13156TIP3    H239412   6.305   7.616   5.634  0.1375  2.9380 -0.8375
13157TIP3   OH239413   1.646   1.144   5.715  0.3229 -0.4940  0.9856
13157TIP3    H139414   1.591   1.152   5.793  1.5752  0.6144  1.7698
13157TIP3    H239415   1.730   1.182   5.740  0.3369  1.1501 -1.3438
13158TIP3   OH239416   3.349   3.800   0.392 -0.3242 -0.4761 -0.2134
13158TIP3    H139417   3.408   3.735   0.353 -1.3574 -1.3004 -0.4337
13158TIP3    H239418   3.390   3.823   0.475  0.0206 -1.4735 -0.0953
13159TIP3   OH239419   7.297   7.932   3.907 -0.6666  0.9575 -0.1784
13159TIP3    H139420   7.339   8.018   3.910 -0.9896  1.1484 -0.8597
13159TIP3    H239421   7.356   7.879   3.853  0.3162  0.2971  1.5061
13160TIP3   OH239422   0.261   2.528   3.971 -0.2381 -0.5869 -0.3708
13160TIP3    H139423   0.177   2.531   3.924  0.9507 -2.0967 -2.6483
13160TIP3    H239424   0.278   2.435   3.984  2.0905 -0.4228 -1.8697
13161TIP3   OH239425   5.451   6.917   1.417  0.0011  0.1784  0.3942
13161TIP3    H139426   5.376   6.960   1.377  1.1801  0.6510 -1.3603
13161TIP3    H239427   5.509   6.989   1.442  1.0540 -0.2799 -0.6887
13162TIP3   OH239428   0.252   2.085   4.330 -0.6417  0.4934 -0.0825
13162TIP3    H139429   0.255   1.995   4.295 -2.5644  0.2379  0.3675
13162TIP3    H239430   0.278   2.076   4.421 -1.4674  0.2714  0.1426
13163TIP3   OH239431   5.489   7.620   4.399 -0.0653  0.0818 -0.0708
13163TIP3    H139432   5.468   7.702   4.355 -1.0707 -1.1267 -1.8681
13163TIP3    H239433   5.535   7.647   4.479 -0.2425  2.3737 -0.7208
13164TIP3   OH239434   0.587   1.116   4.593 -0.2057  0.1775  0.2001
13164TIP3    H139435   0.583   1.194   4.649  0.4566  0.4085 -0.0741
13164TIP3    H239436   0.672   1.121   4.551 -0.6418 -0.0821 -0.7173
13165TIP3   OH239437   8.241   0.634   5.015 -0.5783  0.0618  0.0935
13165TIP3    H139438   8.245   0.551   5.062 -1.0101 -0.4173 -0.7043
13165TIP3    H239439   8.157   0.672   5.040  1.1107  1.8966  3.1631
13166TIP3   OH239440   5.545   6.308   3.005  0.5647 -0.0186 -0.2595
13166TIP3    H139441   5.587   6.243   3.062  0.2699 -0.1694 -0.2116
13166TIP3    H239442   5.460   6.323   3.046  0.7407  0.6119 -0.1106
13167TIP3   OH239443   1.581   2.773   3.350  0.3509 -0.6727  0.0678
13167TIP3    H139444   1.548   2.832   3.282 -0.4744 -0.7179  0.4246
13167TIP3    H239445   1.505   2.755   3.405  1.3582  0.7094  1.9957
13168TIP3   OH239446   0.868   1.093   5.226 -0.1733 -0.1164 -0.0620
13168TIP3    H139447   0.925   1.019   5.203 -1.2744 -1.5995  1.8183
13168TIP3    H239448   0.896   1.116   5.315 -2.3499 -0.7286  0.7975
13169TIP3   OH239449   7.931   1.806   3.816 -0.7565 -0.2264 -0.9499
13169TIP3    H139450   7.870   1.823   3.745 -1.4978 -1.2631 -0.5681
13169TIP3    H239451   8.017   1.830   3.780 -1.3730  1.1886 -1.4927
13170TIP3   OH239452   0.298   0.648   3.311  0.3540  0.4161  0.3436
13170TIP3    H139453   0.244   0.605   3.245  0.1015  0.9385  0.2052
13170TIP3    H239454   0.335   0.724   3.266  0.9596  0.2289  0.5262
13171TIP3   OH239455   1.751   0.731   2.992  0.3773 -0.5788 -0.2018
13171TIP3    H139456   1.717   0.777   3.069  0.2592 -0.2602 -0.4424
13171TIP3    H239457   1.837   0.769   2.977 -0.7028  1.2856 -1.8449
13172TIP3   OH239458   5.144   7.676   4.950 -0.6003 -0.4515 -0.1399
13172TIP3    H139459   5.151   7.583   4.927 -0.1584 -0.9890  2.0457
13172TIP3    H239460   5.121   7.675   5.043 -0.0213  1.6388  0.0319
13173TIP3   OH239461   0.358   1.212   5.182  0.1532  0.0233  0.3835
13173TIP3    H139462   0.357   1.299   5.143 -0.5825 -0.1283  0.0519
13173TIP3    H239463   0.442   1.175   5.155  0.5384  0.6848  0.6572
13174TIP3   OH239464   1.080   2.200   5.780 -0.3018 -0.0262  0.1322
13174TIP3    H139465   1.157   2.216   5.834  0.0981  1.1127 -0.7511
13174TIP3    H239466   1.113   2.148   5.707 -0.4700  0.0409  0.0071
13175TIP3   OH239467   7.627   0.428   5.430 -0.0874 -0.6531 -0.0758
13175TIP3    H139468   7.635   0.339   5.464  1.6594 -0.7789 -0.7673
13175TIP3    H239469   7.581   0.476   5.498  1.2337 -1.4764  1.4257
13176TIP3   OH239470   4.591   7.966   6.561 -0.0304 -0.2407 -0.0664
13176TIP3    H139471   4.498   7.952   6.542  0.3352  0.3555 -2.3519
13176TIP3    H239472   4.632   7.882   6.539  0.2722  0.1708 -1.0670
13177TIP3   OH239473   6.069   5.985   6.384  0.6640  0.0621 -0.4145
13177TIP3    H139474   6.095   5.929   6.457  0.8048  0.4410 -0.1680
13177TIP3    H239475   5.980   6.013   6.405  1.7033  2.4540  1.0555
13178TIP3   OH239476   2.704   0.063   5.630 -0.1097 -0.0170 -0.6097
13178TIP3    H139477   2.653   0.001   5.682 -0.3956  0.3603 -0.4405
13178TIP3    H239478   2.794   0.030   5.635 -0.4128 -1.0113 -1.3733
13179TIP3   OH239479   0.407   0.875   5.200 -0.1988  0.1986 -0.1724
13179TIP3    H139480   0.494   0.859   5.237  1.2936 -0.5105 -3.8312
13179TIP3    H239481   0.356   0.797   5.221  0.5884 -0.1550  0.4123
13180TIP3   OH239482   6.420   7.475   2.953 -0.3640  0.2305 -0.4119
13180TIP3    H139483   6.386   7.414   3.018 -0.9035 -0.1082 -1.0030
13180TIP3    H239484   6.509   7.493   2.982 -0.4840 -0.1771  0.2343
13181TIP3   OH239485   7.529   1.962   4.365  0.1593  0.5552  0.0365
13181TIP3    H139486   7.496   1.880   4.401  1.2834  0.6179  1.2629
13181TIP3    H239487   7.551   1.942   4.274 -0.6285 -0.1925  0.0067
13182TIP3   OH239488   0.689   0.781   2.625 -0.2501 -0.1093  0.1591
13182TIP3    H139489   0.713   0.733   2.546  0.8597 -2.0403  1.6387
13182TIP3    H239490   0.681   0.872   2.596 -1.3191 -0.9836 -2.4712
13183TIP3   OH239491   2.137   7.208   4.858 -0.1708 -0.0724  0.3928
13183TIP3    H139492   2.076   7.282   4.856 -0.5137 -0.3685 -0.3839
13183TIP3    H239493   2.218   7.245   4.891 -0.0084  0.9177 -1.0536
13184TIP3   OH239494   2.333   4.946   0.770 -0.2723  0.0786 -0.5055
13184TIP3    H139495   2.238   4.942   0.759 -0.2625 -0.2625 -0.4930
13184TIP3    H239496   2.364   4.997   0.696 -0.5800  1.2413  0.1559
13185TIP3   OH239497   0.890   0.201   3.466  0.2866  0.0340  0.4750
13185TIP3    H139498   0.906   0.120   3.513 -0.1817 -0.4584 -0.2032
13185TIP3    H239499   0.873   0.266   3.535  1.4613 -0.2507  1.0429
13186TIP3   OH239500   8.285   2.541   2.287 -0.2353  0.1566 -0.4186
13186TIP3    H139501   8.259   2.586   2.367 -0.4112 -0.3014 -0.2154
13186TIP3    H239502   8.230   2.579   2.219  0.5937  1.2333 -0.4982
13187TIP3   OH239503   7.612   0.679   6.656  0.1173  0.7431 -0.2180
13187TIP3    H139504   7.584   0.765   6.686 -0.4329 -0.2255  2.1598
13187TIP3    H239505   7.545   0.652   6.592 -0.9178  1.1407  0.6863
13188TIP3   OH239506   0.646   0.616   3.569 -0.1410  0.0982  0.4852
13188TIP3    H139507   0.603   0.664   3.640  1.2248  0.3323  1.1525
13188TIP3    H239508   0.646   0.525   3.597  0.6794  0.2323  0.9382
13189TIP3   OH239509   8.149   0.820   3.903 -0.4927  0.3834  0.5795
13189TIP3    H139510   8.232   0.864   3.920 -0.8455  0.4606  2.2399
13189TIP3    H239511   8.082   0.882   3.933 -1.0546 -0.5901  1.3763
13190TIP3   OH239512   0.837   0.942   3.642  0.3955  0.2249 -0.4024
13190TIP3    H139513   0.930   0.955   3.623  0.9423  1.0858  2.4854
13190TIP3    H239514   0.836   0.879   3.715 -1.1899  1.2655  0.5253
13191TIP3   OH239515   3.840   3.291   6.652 -0.2462 -0.1640  0.9374
13191TIP3    H139516   3.780   3.267   6.582  0.5848 -1.7235  0.7304
13191TIP3    H239517   3.821   3.229   6.722  1.0373 -0.6109  0.9104
13192TIP3   OH239518   1.150   0.182   6.144  0.0789  0.0271  0.5970
13192TIP3    H139519   1.145   0.255   6.082  1.2485  0.0718  0.5337
13192TIP3    H239520   1.120   0.106   6.095  0.9101  0.0783 -0.0008
13193TIP3   OH239521   2.159   1.861   5.973  0.0010  0.0192  0.0153
13193TIP3    H139522   2.143   1.950   5.944  0.8144  0.2248  0.1894
13193TIP3    H239523   2.091   1.809   5.931 -0.7408  0.7875  0.2776
13194TIP3   OH239524   6.790   7.119   4.020 -0.6291  0.1926  0.3388
13194TIP3    H139525   6.736   7.165   4.084 -1.4668  2.0571 -1.6268
13194TIP3    H239526   6.879   7.149   4.038 -0.7684  0.1533  1.0923
13195TIP3   OH239527   2.874   0.671   4.504 -0.0233 -0.3040 -0.4144
13195TIP3    H139528   2.791   0.633   4.477 -0.6054  2.4047 -2.5981
13195TIP3    H239529   2.907   0.611   4.572 -2.0389 -3.2821 -1.9816
13196TIP3   OH239530   7.326   0.451   5.873  0.1883  0.0456 -0.3567
13196TIP3    H139531   7.385   0.387   5.833  2.0228  0.9930  0.7548
13196TIP3    H239532   7.325   0.524   5.811  1.4887  0.6951  0.3520
13197TIP3   OH239533   3.152   6.053   0.869 -0.4603 -0.4357 -0.2608
13197TIP3    H139534   3.062   6.038   0.898 -0.4474 -3.3495 -1.5182
13197TIP3    H239535   3.197   6.088   0.946 -2.8304  1.8978  0.1330
13198TIP3   OH239536   1.488   1.170   5.933 -0.3898  0.4050  0.2500
13198TIP3    H139537   1.503   1.097   5.993  0.4725  0.4647  0.1088
13198TIP3    H239538   1.393   1.169   5.918 -0.1139 -2.1433 -1.6355
13199TIP3   OH239539   1.508   1.638   4.785 -0.7174 -0.0751 -0.1288
13199TIP3    H139540   1.471   1.612   4.700 -0.9543 -1.4597  0.3928
13199TIP3    H239541   1.508   1.558   4.837  1.8547  0.1767  0.3198
13200TIP3   OH239542   4.659   3.866   1.094 -0.3198  0.3413  0.3384
13200TIP3    H139543   4.687   3.866   1.186 -1.1815  1.4511  0.6174
13200TIP3    H239544   4.695   3.947   1.058 -0.3995  0.1511 -0.1817
13201TIP3   OH239545   0.223   0.436   4.893 -0.3025 -0.4092 -0.2781
13201TIP3    H139546   0.237   0.411   4.801 -0.5222 -2.2124  0.1596
13201TIP3    H239547   0.145   0.386   4.919 -0.1606 -0.0060  0.9346
13202TIP3   OH239548   0.937   2.626   3.225  0.2876 -0.0842 -0.3126
13202TIP3    H139549   0.847   2.600   3.241  0.7566 -2.9043 -1.8749
13202TIP3    H239550   0.983   2.606   3.307 -0.8275  3.3862  1.2625
13203TIP3   OH239551   2.212   2.427   3.680  0.0719 -0.3893 -0.1474
13203TIP3    H139552   2.288   2.448   3.734  0.0226 -0.4571 -0.0525
13203TIP3    H239553   2.248   2.383   3.603  0.1429 -0.2841 -0.1755
13204TIP3   OH239554   2.225   1.494   5.093  0.3174  0.0394 -0.5871
13204TIP3    H139555   2.176   1.544   5.027  0.3300  2.6289  1.2730
13204TIP3    H239556   2.159   1.468   5.157  0.6177 -0.7499 -0.5945
13205TIP3   OH239557   5.673   7.901   2.463 -0.2179  0.0401  0.5092
13205TIP3    H139558   5.663   7.962   2.537  2.6462  0.0021  0.9765
13205TIP3    H239559   5.605   7.835   2.478 -0.3475  0.5846  2.5728
13206TIP3   OH239560   7.889   2.089   5.036 -0.4487 -0.0530 -0.2292
13206TIP3    H139561   7.965   2.031   5.033 -1.0463 -0.9076  0.8618
13206TIP3    H239562   7.815   2.030   5.054 -1.2640  0.8562 -0.6080
13207TIP3   OH239563   6.298   7.426   4.708  0.1273  0.4999 -0.1355
13207TIP3    H139564   6.282   7.489   4.778  0.4929  0.2102  0.2136
13207TIP3    H239565   6.212   7.391   4.687 -0.1148  1.2984 -0.5115
13208TIP3   OH239566   7.683   7.561   3.936 -0.1213  0.9065 -0.3190
13208TIP3    H139567   7.633   7.482   3.916 -0.8399  1.4886 -0.8937
13208TIP3    H239568   7.773   7.540   3.911 -0.0133 -0.2378  0.9492
13209TIP3   OH239569   0.658   0.847   5.344 -0.3240  0.0437  0.2157
13209TIP3    H139570   0.617   0.895   5.416  0.2101 -0.2051  0.6951
13209TIP3    H239571   0.752   0.858   5.359 -0.2107 -0.2273 -0.2973
13210TIP3   OH239572   8.430   0.822   4.377 -0.4206 -0.3473  0.0891
13210TIP3    H139573   8.452   0.730   4.365  2.0201  0.1386  0.6392
13210TIP3    H239574   8.395   0.826   4.465 -1.2445 -0.8674 -0.2075
13211TIP3   OH239575   1.232   0.952   5.728  0.0710  0.8167 -0.1460
13211TIP3    H139576   1.138   0.951   5.709  0.0498  2.3366 -0.1186
13211TIP3    H239577   1.269   1.014   5.665  1.3133 -0.9847 -1.2704
13212TIP3   OH239578   7.541   7.882   3.159 -0.2859  0.3593  0.5485
13212TIP3    H139579   7.633   7.860   3.177 -0.8069 -1.8861  0.6112
13212TIP3    H239580   7.533   7.973   3.187  1.4186 -0.0281  2.4701
13213TIP3   OH239581   7.353   0.760   5.509  0.0386 -0.0457 -0.0328
13213TIP3    H139582   7.437   0.803   5.519 -1.3941  2.5895  1.1983
13213TIP3    H239583   7.337   0.716   5.593 -0.0755 -0.0220 -0.0405
13214TIP3   OH239584   3.961   6.846   3.617  0.1419  0.0364  0.0879
13214TIP3    H139585   3.927   6.757   3.627  0.2825  0.1688  1.7684
13214TIP3    H239586   4.049   6.842   3.653 -0.1812  1.0787  0.9980
13215TIP3   OH239587   6.015   6.732   4.254 -0.3981  0.4112 -0.2575
13215TIP3    H139588   6.041   6.795   4.187  1.3351  0.7005  0.6638
13215TIP3    H239589   6.075   6.747   4.327 -2.0716 -0.0883  1.2712
13216TIP3   OH239590   6.842   0.233   4.809 -0.2906  0.3921  0.8252
13216TIP3    H139591   6.779   0.303   4.827 -1.2073  0.3831 -2.0734
13216TIP3    H239592   6.787   0.156   4.795  0.3680  0.3170 -1.4670
13217TIP3   OH239593   1.882   4.554   1.162  0.2163 -0.0606  0.1260
13217TIP3    H139594   1.845   4.479   1.210  0.0097 -0.2436 -0.3133
13217TIP3    H239595   1.966   4.570   1.204 -1.0972  1.4799  2.3146
13218TIP3   OH239596   0.126   1.028   6.204 -0.4711 -0.0922  0.8139
13218TIP3    H139597   0.088   0.949   6.166 -0.5659 -0.0488  0.8166
13218TIP3    H239598   0.189   1.059   6.139 -1.6298  0.7519  0.0765
13219TIP3   OH239599   5.202   6.751   6.461  0.5537  0.4400  0.3222
13219TIP3    H139600   5.190   6.814   6.532  0.8249  0.4589  0.3505
13219TIP3    H239601   5.296   6.747   6.448  0.4942  0.5609 -0.1508
13220TIP3   OH239602   2.814   1.788   5.729 -0.2253  0.0839 -0.1351
13220TIP3    H139603   2.815   1.738   5.811 -1.8830  0.4448  0.1252
13220TIP3    H239604   2.721   1.798   5.709  0.0147  4.1310  0.4629
13221TIP3   OH239605   7.385   2.567   3.697  0.9273 -0.0620 -0.5008
13221TIP3    H139606   7.293   2.541   3.693  1.0675 -0.5840 -0.3317
13221TIP3    H239607   7.389   2.628   3.770  0.6824  0.0944 -0.6171
13222TIP3   OH239608   5.175   7.736   4.533  0.1434  0.3767  0.1628
13222TIP3    H139609   5.226   7.724   4.613  1.0981  0.7536 -0.3779
13222TIP3    H239610   5.231   7.791   4.477 -0.7909  0.6645 -0.4998
13223TIP3   OH239611   0.673   0.166   6.230  0.3100 -0.3105 -0.4358
13223TIP3    H139612   0.719   0.119   6.300  0.4030  0.3509 -0.0507
13223TIP3    H239613   0.665   0.102   6.159 -1.2511 -1.5263  0.7863
13224TIP3   OH239614   8.143   1.155   4.386 -0.2161 -0.2202 -0.0838
13224TIP3    H139615   8.090   1.089   4.429  1.3747 -0.1314  2.0744
13224TIP3    H239616   8.228   1.113   4.373  0.2630  0.8110 -0.3431
13225TIP3   OH239617   0.916   1.746   4.489  0.5361  0.3268 -0.7447
13225TIP3    H139618   0.948   1.697   4.413  2.2074  0.6552 -0.2731
13225TIP3    H239619   0.909   1.836   4.457 -0.1024  0.2221 -0.9000
13226TIP3   OH239620   4.923   7.237   4.123  0.2116 -0.0379  0.0461
13226TIP3    H139621   4.954   7.312   4.071 -1.6798  1.0744  0.4758
13226TIP3    H239622   4.966   7.248   4.208  2.2908 -1.1398 -0.8180
13227TIP3   OH239623   7.844   1.490   4.381 -0.0409  0.6309  0.4722
13227TIP3    H139624   7.929   1.454   4.408  0.2615 -0.2130 -1.5680
13227TIP3    H239625   7.781   1.450   4.441  0.8053  0.0024  0.9546
13228TIP3   OH239626   6.371   7.605   4.315 -0.0189  0.4804 -0.1355
13228TIP3    H139627   6.290   7.601   4.263 -0.5678 -0.0175  0.7421
13228TIP3    H239628   6.348   7.661   4.390  0.8448  1.4109 -0.5559
13229TIP3   OH239629   4.988   7.702   6.246  0.0362 -0.0327 -0.0783
13229TIP3    H139630   5.022   7.722   6.159 -0.7152  1.5448 -0.0191
13229TIP3    H239631   4.931   7.626   6.233 -2.4011  1.9769 -1.4863
13230TIP3   OH239632   8.183   7.919   2.936  0.7161 -0.5333 -0.1219
13230TIP3    H139633   8.148   7.909   3.024  0.7919  0.3032  0.0143
13230TIP3    H239634   8.108   7.949   2.884  1.0253  0.4901  0.0013
13231TIP3   OH239635   0.958   2.548   5.016 -0.2572  0.0396 -0.0748
13231TIP3    H139636   0.930   2.626   4.968  1.3381  0.9656  0.4446
13231TIP3    H239637   1.043   2.573   5.053 -0.7337 -1.2105  1.9107
13232TIP3   OH239638   8.201   0.688   6.032 -0.3499 -0.0962 -0.2307
13232TIP3    H139639   8.194   0.695   6.128 -1.2243 -0.0844 -0.2987
13232TIP3    H239640   8.209   0.779   6.002  4.9913 -0.2330  0.2016
13233TIP3   OH239641   6.815   7.777   5.250  0.0679  0.3789 -0.0147
13233TIP3    H139642   6.787   7.860   5.211  0.7141  0.5254 -0.1792
13233TIP3    H239643   6.783   7.710   5.190  0.6499  0.5797 -0.5560
13234TIP3   OH239644   7.732   7.690   3.630 -0.1447  0.1631  0.3675
13234TIP3    H139645   7.746   7.598   3.652  0.1839 -0.3245 -1.7581
13234TIP3    H239646   7.668   7.688   3.559  0.3636  1.5273 -0.1360
13235TIP3   OH239647   0.576   2.314   2.543 -0.2014  0.0778 -0.0172
13235TIP3    H139648   0.532   2.299   2.460 -0.7850 -0.9247  0.4723
13235TIP3    H239649   0.656   2.261   2.538  1.0257  1.9767 -0.9476
13236TIP3   OH239650   5.646   7.892   3.979 -0.3706  0.3193 -0.2695
13236TIP3    H139651   5.663   7.871   3.887 -0.3782 -1.5055  0.1429
13236TIP3    H239652   5.717   7.951   4.003 -1.2554  2.1292 -1.8849
13237TIP3   OH239653   0.918   7.697   4.034  0.3580  0.3649  0.3980
13237TIP3    H139654   0.898   7.656   3.950 -0.9721  0.5848  0.5976
13237TIP3    H239655   0.965   7.629   4.083  1.4909  0.3702 -0.6537
13238TIP3   OH239656   7.134   7.657   4.344  0.1379  0.2529 -0.1956
13238TIP3    H139657   7.159   7.691   4.258 -0.1182  2.2237  0.4724
13238TIP3    H239658   7.198   7.589   4.362  1.8268  1.6233 -0.8158
13239TIP3   OH239659   1.047   0.479   5.244 -0.0672  0.2432  0.0925
13239TIP3    H139660   1.133   0.509   5.214 -0.9430  1.6623 -1.0292
13239TIP3    H239661   1.022   0.540   5.312 -1.0644  1.0487 -0.9691
13240TIP3   OH239662   1.925   0.414   2.192  0.5786  0.3840 -0.4579
13240TIP3    H139663   1.975   0.490   2.222  0.0899  0.0217  1.3414
13240TIP3    H239664   1.967   0.339   2.235 -2.2766  0.1902  2.2113
13241TIP3   OH239665   3.765   0.394   2.159  0.1677 -0.5958  0.1926
13241TIP3    H139666   3.821   0.369   2.232  1.0524  0.4715 -0.1207
13241TIP3    H239667   3.706   0.461   2.196  1.0104  0.3819 -0.2141
13242TIP3   OH239668   0.871   1.629   4.989 -0.7109  0.6654  0.0339
13242TIP3    H139669   0.796   1.596   5.039 -1.7972  1.2793 -1.1490
13242TIP3    H239670   0.841   1.627   4.898  0.7688  0.8063 -0.4614
13243TIP3   OH239671   7.318   7.895   1.059 -0.0892  0.7386 -0.0036
13243TIP3    H139672   7.317   7.935   0.972  0.1508 -0.3327 -0.5112
13243TIP3    H239673   7.314   7.801   1.042  0.8135  0.4829  1.1255
13244TIP3   OH239674   0.318   6.063   4.103 -0.0893 -0.1916 -0.0250
13244TIP3    H139675   0.398   6.020   4.133  0.2503  0.3057 -0.2232
13244TIP3    H239676   0.288   6.010   4.030  1.0476  0.6559 -1.1209
13245TIP3   OH239677   7.534   7.305   2.936 -0.5035  0.0404  0.4628
13245TIP3    H139678   7.577   7.224   2.963 -0.5056 -0.2498 -0.4023
13245TIP3    H239679   7.446   7.279   2.911 -0.0354  0.0711 -1.2602
13246TIP3   OH239680   5.993   7.804   3.728  0.3424  0.3003  0.2985
13246TIP3    H139681   5.964   7.813   3.638 -0.9244 -0.0049  0.6584
13246TIP3    H239682   6.046   7.724   3.728 -0.7328 -0.4399  0.0635
13247TIP3   OH239683   1.624   1.402   1.090  0.4045  0.6508  0.1272
13247TIP3    H139684   1.629   1.497   1.082 -0.8873  0.7599  0.4177
13247TIP3    H239685   1.576   1.373   1.012 -0.2733  0.3642  0.6432
13248TIP3   OH239686   1.936   2.246   2.712  0.2788  0.5556  0.4162
13248TIP3    H139687   2.025   2.213   2.720 -0.3504 -1.0489  1.1996
13248TIP3    H239688   1.943   2.324   2.657  1.8088 -1.0275 -1.6850
13249TIP3   OH239689   0.313   1.352   6.339  0.3667  0.5770  0.7652
13249TIP3    H139690   0.369   1.291   6.292  1.3902  1.6163  0.5935
13249TIP3    H239691   0.258   1.297   6.394  0.1260 -0.5810 -0.6081
13250TIP3   OH239692   7.501   0.873   5.175 -0.4812 -0.6193  0.4331
13250TIP3    H139693   7.537   0.935   5.239 -1.6709 -0.2493  0.7683
13250TIP3    H239694   7.536   0.902   5.091  2.1592 -1.8915  1.0388
13251TIP3   OH239695   5.762   7.901   6.139  0.3998  0.3148 -0.2120
13251TIP3    H139696   5.740   7.826   6.195 -1.3777  2.1721  1.6144
13251TIP3    H239697   5.765   7.863   6.051 -0.8801 -1.8395  0.6129
13252TIP3   OH239698   1.680   1.197   2.745 -0.8133  0.1955  0.4808
13252TIP3    H139699   1.619   1.155   2.684 -0.6960 -0.3447  0.7280
13252TIP3    H239700   1.728   1.123   2.785 -0.9157  0.5468  1.2545
13253TIP3   OH239701   6.849   6.850   4.404  0.0841  0.3260  0.1870
13253TIP3    H139702   6.769   6.798   4.396  0.8890 -1.0404  0.7239
13253TIP3    H239703   6.822   6.930   4.448 -1.2567  0.5340 -0.9776
13254TIP3   OH239704   8.240   7.982   4.896  0.0203 -0.4020 -0.3328
13254TIP3    H139705   8.261   8.070   4.926 -1.8631  0.2784 -0.9637
13254TIP3    H239706   8.305   7.963   4.829  0.5037  0.4476 -0.1073
13255TIP3   OH239707   2.190   0.566   3.518  0.2718  0.1394 -0.0688
13255TIP3    H139708   2.120   0.507   3.490  0.2145  0.6619 -1.0685
13255TIP3    H239709   2.176   0.645   3.466 -0.5052  1.5868  2.2735
13256TIP3   OH239710   0.275   7.439   0.995 -0.6336 -0.0454 -0.7259
13256TIP3    H139711   0.290   7.534   0.993  1.0410 -0.3007 -0.6639
13256TIP3    H239712   0.180   7.430   0.984 -0.5902  1.5642 -2.6154
13257TIP3   OH239713   7.185   4.596   1.505  0.2754 -0.1898  0.1366
13257TIP3    H139714   7.272   4.589   1.465 -0.2476 -1.6776 -0.7888
13257TIP3    H239715   7.170   4.510   1.545 -0.9692 -0.0883 -0.0994
13258TIP3   OH239716   7.006   5.226   2.140  0.5819  0.0712  0.2335
13258TIP3    H139717   7.035   5.258   2.226 -0.7624  0.4608  0.5468
13258TIP3    H239718   6.989   5.133   2.154  1.0314 -0.0194  0.2071
13259TIP3   OH239719   2.326   7.793   6.834  0.2326  0.1170  0.4626
13259TIP3    H139720   2.352   7.864   6.775  0.8683 -0.4800  0.0010
13259TIP3    H239721   2.302   7.836   6.915  2.2545  0.7539  0.7564
13260TIP3   OH239722   7.279   6.919   0.229  0.2467 -0.2231  0.8390
13260TIP3    H139723   7.298   6.940   0.321 -1.1430 -0.0784  1.0990
13260TIP3    H239724   7.262   6.825   0.229 -1.1519  0.0223  0.9765
13261TIP3   OH239725   5.657   0.637   5.808  0.3298  1.0896 -0.3238
13261TIP3    H139726   5.687   0.596   5.889 -0.5334  2.3136  0.6224
13261TIP3    H239727   5.613   0.566   5.760 -0.5404  0.7236  0.9933
13262TIP3   OH239728   6.429   6.256   0.669  0.3252 -0.4949  0.0028
13262TIP3    H139729   6.493   6.280   0.736 -0.7487  1.4721  0.3478
13262TIP3    H239730   6.382   6.182   0.707  0.8006 -0.4216  0.7510
13263TIP3   OH239731   1.868   7.620   6.702 -0.7426 -0.0964  0.1361
13263TIP3    H139732   1.806   7.674   6.751  0.9293 -0.3643  2.6324
13263TIP3    H239733   1.934   7.683   6.670  0.8715 -0.5194  2.5234
13264TIP3   OH239734   7.211   4.452   1.853  0.2386  0.2649  0.2496
13264TIP3    H139735   7.158   4.402   1.791  0.8643 -0.8929  0.6075
13264TIP3    H239736   7.196   4.543   1.831 -0.0391 -0.1183 -1.1977
13265TIP3   OH239737   8.253   6.427   1.250  0.1180 -0.2628 -0.1878
13265TIP3    H139738   8.231   6.392   1.336 -1.6763  0.3807 -0.3650
13265TIP3    H239739   8.195   6.382   1.189 -0.8746  1.5740 -0.6484
13266TIP3   OH239740   6.711   6.181   1.300  0.0208 -0.5360 -0.5933
13266TIP3    H139741   6.757   6.130   1.234 -1.2614 -2.3199 -0.1188
13266TIP3    H239742   6.777   6.244   1.331  1.5800 -1.7878 -1.2700
13267TIP3   OH239743   5.055   0.857   5.789 -0.4069 -0.4117 -0.2794
13267TIP3    H139744   5.005   0.933   5.758 -1.3477 -1.1905 -0.7084
13267TIP3    H239745   5.097   0.887   5.869 -1.5544  0.2851  0.0751
13268TIP3   OH239746   2.983   5.359   1.859  0.2978  0.2654 -0.0407
13268TIP3    H139747   2.907   5.342   1.914 -1.9066  0.2702 -2.9522
13268TIP3    H239748   3.000   5.453   1.870 -0.9674  0.5388 -0.4001
13269TIP3   OH239749   8.189   6.618   0.135  0.0793 -0.0971  0.9936
13269TIP3    H139750   8.206   6.652   0.048  2.0358  0.5768  1.6266
13269TIP3    H239751   8.187   6.523   0.124  1.1167 -0.0489  0.3546
13270TIP3   OH239752   7.613   4.659   0.047  0.1424  0.3988 -0.1654
13270TIP3    H139753   7.662   4.730   0.087  0.5139  0.3833 -0.5859
13270TIP3    H239754   7.670   4.583   0.053 -0.0371  0.2592 -0.1978
13271TIP3   OH239755   7.615   6.307   3.458 -0.1596  0.4616  0.1412
13271TIP3    H139756   7.526   6.341   3.457  0.2644  1.5933  0.4405
13271TIP3    H239757   7.604   6.212   3.469 -1.2827  0.7397  1.4957
13272TIP3   OH239758   0.516   7.986   0.453  0.1216  0.2449 -0.1657
13272TIP3    H139759   0.553   7.914   0.401  0.2260 -0.3667  0.7322
13272TIP3    H239760   0.589   8.047   0.465  0.1780  0.2387 -0.4826
13273TIP3   OH239761   0.187   6.228   0.617 -0.0990 -0.1265 -0.2233
13273TIP3    H139762   0.109   6.206   0.667  0.4495 -0.7127  0.3703
13273TIP3    H239763   0.155   6.286   0.547 -1.2323 -1.2687 -0.6657
13274TIP3   OH239764   5.773   4.862   5.783  0.1128 -0.1516 -0.1281
13274TIP3    H139765   5.861   4.872   5.746  0.1364  1.7516  0.3477
13274TIP3    H239766   5.741   4.952   5.792 -2.2809 -0.8436 -1.2086
13275TIP3   OH239767   1.130   5.077   0.282 -0.2592  0.3017 -0.1158
13275TIP3    H139768   1.117   5.127   0.202  2.5450 -0.3508 -1.0378
13275TIP3    H239769   1.125   5.141   0.352 -0.4424  1.2528 -0.9917
13276TIP3   OH239770   6.967   2.181   6.572  0.3818  0.3261  0.0089
13276TIP3    H139771   6.954   2.270   6.541 -0.4748 -0.1580 -1.0386
13276TIP3    H239772   7.001   2.133   6.496 -0.4651 -0.5530  0.1769
13277TIP3   OH239773   8.006   5.728   2.143 -0.0218  0.6437  0.0265
13277TIP3    H139774   7.989   5.694   2.056 -0.5123  0.2484  0.2758
13277TIP3    H239775   7.956   5.671   2.202  0.8571  0.4740  0.6243
13278TIP3   OH239776   8.020   7.557   1.011  0.0420 -0.2927 -0.0029
13278TIP3    H139777   7.980   7.546   0.925  0.5573 -0.2285 -0.2545
13278TIP3    H239778   7.947   7.572   1.070 -0.3203 -0.4192 -0.4192
13279TIP3   OH239779   1.574   5.899   0.260 -0.7209  0.3929 -0.4347
13279TIP3    H139780   1.619   5.983   0.257 -0.2486  0.1311 -0.6778
13279TIP3    H239781   1.616   5.847   0.192  0.1104 -0.6056  0.8380
13280TIP3   OH239782   1.393   5.124   1.033 -0.5168 -0.5367  0.1572
13280TIP3    H139783   1.315   5.174   1.012 -0.6453 -0.5794  0.5414
13280TIP3    H239784   1.441   5.178   1.096  0.3420  0.0265 -0.9567
13281TIP3   OH239785   7.293   5.026   1.068  0.6431  0.3389 -0.2972
13281TIP3    H139786   7.216   5.022   1.011  0.1760 -0.4618  0.3761
13281TIP3    H239787   7.295   5.117   1.099 -0.2776  0.2620  0.0050
13282TIP3   OH239788   8.104   2.986   6.603 -0.0986 -0.5803  0.4741
13282TIP3    H139789   8.169   3.040   6.557  0.4921 -0.6699  1.1906
13282TIP3    H239790   8.149   2.903   6.619 -1.0754 -1.3642 -0.8057
13283TIP3   OH239791   8.452   5.364   0.032 -0.0212  1.2219 -0.0201
13283TIP3    H139792   8.395   5.374   0.108  2.3629  0.8008  1.8768
13283TIP3    H239793   8.446   5.448  -0.013 -1.4245  1.4927  0.6339
13284TIP3   OH239794   5.670   6.944   1.694 -0.3160 -0.3129  0.0803
13284TIP3    H139795   5.625   7.002   1.756  0.3856 -1.4868  1.7410
13284TIP3    H239796   5.707   7.002   1.628 -1.5419  0.9287  0.4772
13285TIP3   OH239797   4.823   3.261   4.395 -0.2430  0.3917  0.4029
13285TIP3    H139798   4.896   3.212   4.434  0.5751  1.6135  0.4618
13285TIP3    H239799   4.795   3.320   4.465 -0.7058  0.5459  0.0840
13286TIP3   OH239800   7.773   7.063   0.358 -1.2660 -0.2394 -0.6263
13286TIP3    H139801   7.728   7.085   0.440 -1.1881 -1.0192 -0.3649
13286TIP3    H239802   7.776   7.145   0.309  1.3608  1.0176  1.4408
13287TIP3   OH239803   0.819   4.573   5.456 -0.1862 -0.3742 -0.8080
13287TIP3    H139804   0.832   4.618   5.540 -1.7047  0.8771 -1.2073
13287TIP3    H239805   0.814   4.480   5.478 -1.9498  0.0569  0.6713
13288TIP3   OH239806   5.514   0.940   6.626 -0.3859 -0.4672 -0.2319
13288TIP3    H139807   5.605   0.923   6.602 -0.7321  0.1264 -2.0480
13288TIP3    H239808   5.517   1.022   6.676  0.0915 -0.5977 -0.0429
13289TIP3   OH239809   8.205   5.908   1.727  1.0369  0.4131 -0.1616
13289TIP3    H139810   8.170   5.858   1.653  0.3466 -0.1733  0.5440
13289TIP3    H239811   8.156   5.990   1.727 -1.5731 -1.0741  1.8097
13290TIP3   OH239812   1.724   4.845   2.167  0.4008 -0.2553  0.1436
13290TIP3    H139813   1.794   4.841   2.102  0.8658 -0.9560  0.6803
13290TIP3    H239814   1.651   4.887   2.121  1.0259  0.0930 -0.5465
13291TIP3   OH239815   2.432   5.518   0.773  0.0304 -0.2304 -0.3820
13291TIP3    H139816   2.419   5.423   0.776  2.0817 -0.6706 -3.3058
13291TIP3    H239817   2.518   5.532   0.813  0.0516  0.3270 -0.6270
13292TIP3   OH239818   8.172   5.112   1.318 -0.0274  0.2790  0.5874
13292TIP3    H139819   8.226   5.117   1.397  0.8325 -0.0403  0.0200
13292TIP3    H239820   8.232   5.082   1.249 -0.8630  0.1739 -0.1019
13293TIP3   OH239821   2.420   4.836   2.383 -0.2090 -0.3485  0.1854
13293TIP3    H139822   2.374   4.850   2.301  0.5333  0.2089 -0.1389
13293TIP3    H239823   2.380   4.757   2.420 -0.1401 -0.9539 -1.0051
13294TIP3   OH239824   0.342   5.650   0.768  0.5038  0.4241 -0.2241
13294TIP3    H139825   0.359   5.619   0.857  0.5315  1.2291  0.0520
13294TIP3    H239826   0.307   5.573   0.723  0.0973  0.1142  0.5924
13295TIP3   OH239827   8.471   6.137   0.813  0.0149 -0.0347 -0.4555
13295TIP3    H139828   8.380   6.155   0.838  0.6324  0.8791  1.2278
13295TIP3    H239829   8.522   6.161   0.891  1.5958 -1.6107 -0.9860
13296TIP3   OH239830   5.554   5.265   1.734  0.1396 -0.9250  0.4982
13296TIP3    H139831   5.621   5.329   1.757  0.3466 -0.3140 -1.6952
13296TIP3    H239832   5.557   5.260   1.639 -4.0192  0.3215  0.1883
13297TIP3   OH239833   4.684   1.962   6.478  0.0040 -0.1592 -0.3751
13297TIP3    H139834   4.591   1.960   6.456 -0.4658 -0.4223  1.6010
13297TIP3    H239835   4.692   1.905   6.554  1.9430 -0.8605 -1.0875
13298TIP3   OH239836   6.276   6.046   4.531 -0.2002 -0.6098 -0.0879
13298TIP3    H139837   6.362   6.071   4.497  1.3849 -0.2986  3.8364
13298TIP3    H239838   6.222   6.124   4.519  0.9242  0.2084  0.0353
13299TIP3   OH239839   4.706   1.682   5.724  0.3105  0.2687 -0.5151
13299TIP3    H139840   4.705   1.601   5.774  0.1552  1.2607  1.1452
13299TIP3    H239841   4.795   1.689   5.692  0.1454 -0.8962 -1.2448
13300TIP3   OH239842   7.195   5.890   0.490 -0.2414  0.3488 -0.1326
13300TIP3    H139843   7.190   5.856   0.400 -0.7236 -0.9422  0.3695
13300TIP3    H239844   7.195   5.812   0.545 -0.0683  1.1382  1.0040
13301TIP3   OH239845   1.990   7.480   1.717 -0.0388 -0.2870  0.4040
13301TIP3    H139846   1.962   7.560   1.672  2.0882  0.1650 -0.1834
13301TIP3    H239847   2.071   7.505   1.761 -0.1026 -1.7535  1.3815
13302TIP3   OH239848   7.415   2.248   6.300 -0.3597 -0.0109  0.0522
13302TIP3    H139849   7.346   2.300   6.342 -0.7123  1.0657 -1.8384
13302TIP3    H239850   7.487   2.309   6.290  0.0862 -0.5477 -0.0075
13303TIP3   OH239851   7.296   6.652   0.175  0.1958  0.0947  0.2148
13303TIP3    H139852   7.336   6.719   0.119  1.3183 -1.3525 -0.7277
13303TIP3    H239853   7.364   6.586   0.187 -0.5822 -0.4323  1.9445
13304TIP3   OH239854   7.248   3.329   6.745  0.3555 -0.5683  0.3758
13304TIP3    H139855   7.286   3.250   6.707 -1.1285 -0.2166 -1.9587
13304TIP3    H239856   7.319   3.393   6.746  1.0683 -1.3605  0.5531
13305TIP3   OH239857   8.471   4.694   1.328  0.0845 -0.0733  0.0020
13305TIP3    H139858   8.456   4.614   1.380  0.1617  0.7738  1.3462
13305TIP3    H239859   8.417   4.760   1.370 -0.7229  0.3697 -1.6985
13306TIP3   OH239860   2.383   5.959   1.097 -0.0091 -0.5994 -0.1459
13306TIP3    H139861   2.478   5.961   1.107 -0.1080 -0.6863  0.8278
13306TIP3    H239862   2.349   5.982   1.183 -0.8793 -1.4780 -0.2514
13307TIP3   OH239863   5.851   0.356   6.468 -0.0066  0.3949  0.7991
13307TIP3    H139864   5.820   0.285   6.525 -0.4580 -0.0549  0.0153
13307TIP3    H239865   5.932   0.322   6.429 -0.7363 -0.0873 -0.3199
13308TIP3   OH239866   1.237   6.758   0.281  0.2446 -0.2534  0.0834
13308TIP3    H139867   1.175   6.818   0.241  0.2610 -0.9685 -1.0272
13308TIP3    H239868   1.319   6.773   0.234 -0.4709 -3.1837 -2.2319
13309TIP3   OH239869   7.672   6.748   0.583 -0.4632 -0.0031  0.1931
13309TIP3    H139870   7.691   6.714   0.496 -0.0674  0.4469  0.1050
13309TIP3    H239871   7.582   6.721   0.600 -0.6269  0.1264 -0.4586
13310TIP3   OH239872   7.774   5.142   0.754  0.2557  0.3218 -0.1521
13310TIP3    H139873   7.695   5.130   0.805  1.0904  0.9765  1.3088
13310TIP3    H239874   7.762   5.087   0.677 -1.2665 -0.1916  0.4544
13311TIP3   OH239875   2.778   0.418   0.357 -0.2100  0.1876  0.2324
13311TIP3    H139876   2.698   0.373   0.383 -1.1434  0.2307 -2.4134
13311TIP3    H239877   2.811   0.368   0.282  1.0377  1.4309 -0.0780
13312TIP3   OH239878   8.064   6.423   0.429 -0.4617  0.0875  0.0899
13312TIP3    H139879   8.041   6.372   0.507 -0.5622  1.3145  0.8765
13312TIP3    H239880   8.060   6.514   0.458  0.5541  0.5146 -1.0768
13313TIP3   OH239881   6.624   2.167   6.562  0.8279  0.2440 -0.3622
13313TIP3    H139882   6.594   2.118   6.486  1.5931 -0.1676 -0.3962
13313TIP3    H239883   6.719   2.167   6.556  0.8903  0.3944  0.4764
13314TIP3   OH239884   7.184   0.536   6.890  0.1917 -0.2233 -0.5108
13314TIP3    H139885   7.198   0.497   6.804 -1.0767 -0.3547 -0.6725
13314TIP3    H239886   7.198   0.629   6.877 -0.1266 -0.2262 -0.8954
13315TIP3   OH239887   5.373   2.549   6.492  0.0556  0.3707  0.1143
13315TIP3    H139888   5.425   2.609   6.438 -1.3747 -0.1221 -1.8593
13315TIP3    H239889   5.372   2.467   6.442 -2.3351  0.2818  0.2866
13316TIP3   OH239890   5.977   2.048   6.764  0.2943  0.2085  0.2269
13316TIP3    H139891   5.967   2.005   6.849 -0.7196  0.7896  0.4209
13316TIP3    H239892   5.931   1.990   6.703 -0.6944  0.7806  0.4155
13317TIP3   OH239893   6.582   1.687   6.528 -0.2190 -0.2411  0.1044
13317TIP3    H139894   6.511   1.715   6.470  0.0857 -0.9069 -0.6009
13317TIP3    H239895   6.585   1.754   6.596  0.4051  1.3616 -1.4773
13318TIP3   OH239896   0.815   5.012   2.262  1.0193 -0.0878 -0.1407
13318TIP3    H139897   0.872   4.991   2.188  1.3465  0.8129 -0.1537
13318TIP3    H239898   0.840   5.101   2.287 -0.7160  0.5245 -0.4805
13319TIP3   OH239899   7.553   3.195   1.426 -0.5525 -0.1854 -0.3487
13319TIP3    H139900   7.608   3.255   1.477 -0.4469  0.3176 -1.0449
13319TIP3    H239901   7.485   3.167   1.487 -0.4508  0.4373  0.0577
13320TIP3   OH239902   0.779   7.218   0.917  0.3621 -0.3912 -0.2804
13320TIP3    H139903   0.701   7.196   0.967  0.7363  1.1969  1.0159
13320TIP3    H239904   0.832   7.138   0.919  0.3084 -0.3979  1.7344
13321TIP3   OH239905   0.209   7.100   3.114  1.4369 -0.5113 -0.2837
13321TIP3    H139906   0.234   7.010   3.096  1.2024 -1.3200  3.0293
13321TIP3    H239907   0.139   7.093   3.180 -1.5142  1.9683 -2.9429
13322TIP3   OH239908   4.189   1.605   6.785 -0.2854 -0.2707 -0.1572
13322TIP3    H139909   4.098   1.636   6.784 -0.3727 -0.5449 -0.9049
13322TIP3    H239910   4.189   1.530   6.726  0.5271 -0.0071 -0.4921
13323TIP3   OH239911   3.400   6.942   2.157 -0.0252  0.1316  0.2176
13323TIP3    H139912   3.320   6.984   2.189 -0.3986 -0.2854 -0.1590
13323TIP3    H239913   3.372   6.854   2.132 -0.1297  0.9884 -2.8588
13324TIP3   OH239914   2.315   4.826   1.612 -0.1189 -0.3733  0.4488
13324TIP3    H139915   2.397   4.780   1.627 -0.1978 -0.5068  0.4696
13324TIP3    H239916   2.331   4.915   1.645 -0.0730 -0.4754  0.7044
13325TIP3   OH239917   6.770   2.481   5.670  0.1364 -0.4239  0.0629
13325TIP3    H139918   6.787   2.421   5.743  1.2147  1.2991  1.2684
13325TIP3    H239919   6.847   2.474   5.614  1.4235  1.6873  1.5266
13326TIP3   OH239920   7.468   6.496   0.307 -0.0854 -0.1203  0.1830
13326TIP3    H139921   7.464   6.403   0.330  0.8988  0.1820  1.6661
13326TIP3    H239922   7.453   6.542   0.390  0.2452  1.0470 -0.3901
13327TIP3   OH239923   1.934   6.075   1.154 -0.0160 -0.0715 -0.0011
13327TIP3    H139924   1.897   6.055   1.067 -0.9502  1.2787  0.0749
13327TIP3    H239925   1.859   6.107   1.205  0.0960 -2.6905  1.9399
13328TIP3   OH239926   7.893   6.758   0.992  0.2242 -0.5227 -0.0904
13328TIP3    H139927   7.896   6.777   0.899  0.6017  0.6258  0.1444
13328TIP3    H239928   7.908   6.664   0.998  0.9034 -0.4852 -1.1453
13329TIP3   OH239929   7.378   6.626   1.279 -0.0212 -0.1694 -0.4411
13329TIP3    H139930   7.325   6.562   1.231  0.3922 -1.3604  0.6549
13329TIP3    H239931   7.321   6.701   1.291 -0.8669 -0.7415 -0.8494
13330TIP3   OH239932   7.237   1.902   6.505 -0.1822  0.3685 -0.1593
13330TIP3    H139933   7.184   1.833   6.545 -0.0650  0.9440  0.9937
13330TIP3    H239934   7.195   1.917   6.420 -0.5346 -0.7315 -0.1939
13331TIP3   OH239935   7.548   4.950   1.017 -0.4946  0.0561  0.3224
13331TIP3    H139936   7.474   4.995   1.058  0.5676  0.8228  1.4206
13331TIP3    H239937   7.509   4.900   0.945 -1.8404  1.9753 -0.3301
13332TIP3   OH239938   7.405   0.129   4.790 -0.1863 -0.0292  0.6218
13332TIP3    H139939   7.387   0.035   4.786 -0.7383  0.0391  1.4206
13332TIP3    H239940   7.389   0.153   4.881  0.8092  0.6751  0.6164
13333TIP3   OH239941   0.079   6.845   0.173  0.0343  0.0715 -0.0341
13333TIP3    H139942  -0.003   6.880   0.137 -0.0158 -1.4586 -1.4210
13333TIP3    H239943   0.094   6.764   0.125  1.1129 -0.8954  1.8909
13334TIP3   OH239944   6.866   6.324   0.626 -0.5319 -0.6266 -0.1515
13334TIP3    H139945   6.930   6.260   0.596  1.0737  0.4819  0.8396
13334TIP3    H239946   6.819   6.350   0.547 -0.2608 -1.9742 -0.7757
13335TIP3   OH239947   8.047   1.126   6.179  0.1143 -0.1703  0.1933
13335TIP3    H139948   8.010   1.214   6.191 -0.7203 -0.7815  2.4237
13335TIP3    H239949   8.141   1.140   6.171  0.0949  0.8364  1.6424
13336TIP3   OH239950   3.129   4.597   3.075  0.1149 -0.1626  0.7169
13336TIP3    H139951   3.171   4.512   3.063  0.2940  0.0442 -0.1709
13336TIP3    H239952   3.038   4.584   3.050  0.6424  0.4375 -1.6855
13337TIP3   OH239953   7.729   1.602   6.325 -0.3042 -0.2714  0.0236
13337TIP3    H139954   7.710   1.531   6.386  1.3688  0.0423  0.9261
13337TIP3    H239955   7.707   1.682   6.375  0.0641 -0.0551 -0.1642
13338TIP3   OH239956   2.150   6.833   1.923 -0.6931  0.0359 -0.1570
13338TIP3    H139957   2.226   6.823   1.866  0.5792 -1.4697  1.7307
13338TIP3    H239958   2.094   6.759   1.900 -0.0761 -0.7006  0.6568
13339TIP3   OH239959   7.857   2.658   6.475  0.1464 -0.2331  0.2107
13339TIP3    H139960   7.885   2.695   6.391  0.3314  0.8493  0.7326
13339TIP3    H239961   7.896   2.571   6.477 -0.3876 -0.5121 -1.0987
13340TIP3   OH239962   6.970   3.229   6.040  0.0047  0.1779  0.3550
13340TIP3    H139963   6.988   3.320   6.065  2.3625 -0.4869  1.2599
13340TIP3    H239964   7.007   3.221   5.952 -0.7667  0.2719  0.0257
13341TIP3   OH239965   1.615   7.727   0.083  0.1474 -0.1067  0.0847
13341TIP3    H139966   1.650   7.755   0.168 -0.7103  0.3872  0.2787
13341TIP3    H239967   1.680   7.757   0.020  0.2222  0.5540  0.4698
13342TIP3   OH239968   2.075   5.832   0.684  0.2123  0.0982 -0.3223
13342TIP3    H139969   2.083   5.909   0.740  1.3176 -0.4138  0.2646
13342TIP3    H239970   1.991   5.842   0.640 -0.6162  0.5890  1.3302
13343TIP3   OH239971   2.977   6.342   1.069 -0.0907 -0.1223  0.4841
13343TIP3    H139972   2.900   6.398   1.060  0.7459  1.3372  2.1747
13343TIP3    H239973   3.000   6.347   1.162  1.3880 -1.4289  0.2146
13344TIP3   OH239974   1.815   5.112   1.178  0.3613 -0.1742  0.0361
13344TIP3    H139975   1.867   5.160   1.113 -0.1344 -1.3048 -1.2014
13344TIP3    H239976   1.880   5.061   1.227  0.4538 -1.3243 -1.2866
13345TIP3   OH239977   5.836   1.066   1.266 -0.0582  0.0498  0.1504
13345TIP3    H139978   5.912   1.065   1.208  0.6455 -1.0248  1.0724
13345TIP3    H239979   5.800   0.978   1.260  0.1174 -0.1231  1.4450
13346TIP3   OH239980   6.990   2.272   5.387  0.2036  0.1860  0.2453
13346TIP3    H139981   7.060   2.207   5.392 -0.5742 -0.5728  1.9596
13346TIP3    H239982   7.018   2.342   5.445 -0.1825  0.1217  0.5191
13347TIP3   OH239983   7.294   1.238   6.655 -0.4995 -0.0547 -0.3544
13347TIP3    H139984   7.387   1.216   6.652 -0.4104  0.1835  0.4091
13347TIP3    H239985   7.291   1.321   6.703 -1.1077 -0.0949 -0.3141
13348TIP3   OH239986   7.971   3.048   5.723 -0.2251 -0.0984  0.2253
13348TIP3    H139987   7.914   3.031   5.798  1.6417  0.4559  1.8061
13348TIP3    H239988   7.915   3.092   5.660 -1.8237 -0.5563  1.2957
13349TIP3   OH239989   6.875   6.051   0.120 -0.1997  0.1191  0.4447
13349TIP3    H139990   6.865   6.003   0.038 -0.6121  0.6426  0.1862
13349TIP3    H239991   6.920   6.132   0.095 -0.7073  0.4732  0.6685
13350TIP3   OH239992   7.603   3.221   5.769 -0.0596 -0.1804  0.1476
13350TIP3    H139993   7.587   3.264   5.685  2.1182  0.4297  0.0053
13350TIP3    H239994   7.548   3.142   5.767 -0.2421 -0.0286 -1.7184
13351TIP3   OH239995   3.096   5.793   1.119  0.9095  0.1267 -0.0382
13351TIP3    H139996   3.173   5.736   1.126  2.6121  1.9380 -2.8021
13351TIP3    H239997   3.120   5.871   1.170  0.3372  0.1157  0.2440
13352TIP3   OH239998   4.653   7.590   0.624  0.6901  0.1170  0.4850
13352TIP3    H139999   4.611   7.526   0.567 -0.2375  2.6318 -1.7985
13352TIP3    H240000   4.595   7.597   0.700 -0.0654 -0.5207 -0.0312
13353TIP3   OH240001   5.683   1.207   0.744 -0.2146  0.4980  0.4076
13353TIP3    H140002   5.741   1.243   0.810  1.0228 -0.8344  0.0767
13353TIP3    H240003   5.672   1.277   0.680  2.6940  0.1152 -0.5767
13354TIP3   OH240004   1.303   6.485   0.264 -0.7962  0.0401  0.6033
13354TIP3    H140005   1.270   6.518   0.180 -0.3848 -0.8772  0.0763
13354TIP3    H240006   1.292   6.559   0.324 -1.2789  0.6432 -0.2055
13355TIP3   OH240007   6.420   1.795   5.805 -0.2310 -0.0864  0.1461
13355TIP3    H140008   6.429   1.718   5.749 -0.0919 -1.2204  1.6991
13355TIP3    H240009   6.332   1.788   5.841  0.6049 -0.7863  2.1066
13356TIP3   OH240010   8.340   2.000   6.517  0.0002  0.2522  0.6122
13356TIP3    H140011   8.429   1.965   6.523 -0.0272  0.2471  1.0048
13356TIP3    H240012   8.340   2.054   6.438 -0.8032 -3.0718 -1.7483
13357TIP3   OH240013   0.305   2.863   6.551 -0.0225 -0.3711 -0.3168
13357TIP3    H140014   0.291   2.774   6.582 -0.3420 -0.4837 -0.7745
13357TIP3    H240015   0.368   2.853   6.479  1.1490 -0.0558  0.6339
13358TIP3   OH240016   3.488   7.784   1.520 -0.2865  0.1724  0.1301
13358TIP3    H140017   3.471   7.692   1.501 -1.5106  0.4645 -0.2373
13358TIP3    H240018   3.431   7.832   1.460  0.9816  1.1900 -0.2775
13359TIP3   OH240019   0.786   3.342   6.688  0.1817 -0.1541 -0.0042
13359TIP3    H140020   0.741   3.349   6.772 -1.8407  1.2837 -1.1603
13359TIP3    H240021   0.774   3.250   6.663  1.6411 -0.8419  1.6900
13360TIP3   OH240022   7.501   1.260   2.160  0.2472  0.2099  0.0409
13360TIP3    H140023   7.406   1.252   2.170  0.0052  1.0751 -1.3949
13360TIP3    H240024   7.537   1.199   2.224 -1.2498  0.9186  1.5999
13361TIP3   OH240025   5.262   7.406   1.025 -0.2569 -0.0699 -0.2156
13361TIP3    H140026   5.243   7.313   1.013 -0.5508 -0.2796  1.6630
13361TIP3    H240027   5.299   7.434   0.941  0.8525 -2.1261 -0.4467
13362TIP3   OH240028   7.775   6.645   1.543  0.5072  0.1956  0.4274
13362TIP3    H140029   7.736   6.707   1.606 -0.6477 -0.5904  0.5041
13362TIP3    H240030   7.710   6.638   1.473  0.2362 -1.5708  0.8321
13363TIP3   OH240031   3.093   0.004   1.211 -0.0491 -0.0594  0.0016
13363TIP3    H140032   3.023   0.069   1.220 -1.3330 -1.4702  0.3229
13363TIP3    H240033   3.107  -0.028   1.301  1.1513  0.3625 -0.0297
13364TIP3   OH240034   6.091   7.917   0.915  0.3089 -0.7740  0.3413
13364TIP3    H140035   6.023   7.851   0.928  0.2665 -0.6244  0.8698
13364TIP3    H240036   6.070   7.986   0.978  0.3332 -0.2393 -0.2394
13365TIP3   OH240037   6.184   5.611   1.813  0.0110 -0.5787  0.0655
13365TIP3    H140038   6.098   5.651   1.799  0.2898 -0.5963 -1.8867
13365TIP3    H240039   6.221   5.603   1.725  2.0182 -0.5674  0.8810
13366TIP3   OH240040   2.684   0.525   3.552  0.5233  0.2832 -0.4199
13366TIP3    H140041   2.658   0.440   3.518  0.8732 -0.6550  1.5859
13366TIP3    H240042   2.779   0.520   3.561  0.8553  1.8274 -2.7382
13367TIP3   OH240043   8.126   7.807   0.190  0.2034 -0.0810  0.0177
13367TIP3    H140044   8.214   7.845   0.187  0.8238 -1.4928 -0.1956
13367TIP3    H240045   8.130   7.744   0.261 -0.1144 -1.3879 -1.0979
13368TIP3   OH240046   6.352   6.588   2.285  0.5212  0.1423  0.6837
13368TIP3    H140047   6.342   6.550   2.198 -0.3699  0.8955  0.4579
13368TIP3    H240048   6.447   6.593   2.298  0.6587  0.0673 -0.2507
13369TIP3   OH240049   7.003   6.199   1.039  0.2471  0.2160 -0.4042
13369TIP3    H140050   6.961   6.119   1.070 -0.0208 -0.0413 -1.3939
13369TIP3    H240051   7.096   6.178   1.037  0.0323 -0.7089 -2.3918
13370TIP3   OH240052   5.316   7.674   3.056  0.8747  0.4726  0.3547
13370TIP3    H140053   5.394   7.705   3.010  1.6251  1.3283  2.1093
13370TIP3    H240054   5.330   7.580   3.067  0.8806  0.3362 -0.7596
13371TIP3   OH240055   7.684   4.965   2.503  0.1449 -0.2935  0.2291
13371TIP3    H140056   7.638   5.048   2.491  2.5416  0.9878 -0.4096
13371TIP3    H240057   7.721   4.946   2.417  1.4153 -0.9084  0.9023
13372TIP3   OH240058   0.406   0.079   0.354  0.0562  0.1866  0.0448
13372TIP3    H140059   0.496   0.055   0.375  1.0388  1.8272 -2.0766
13372TIP3    H240060   0.364  -0.004   0.330  1.5702 -0.3546 -0.8540
13373TIP3   OH240061   7.047   6.894   1.999 -0.2803 -0.2159  0.1360
13373TIP3    H140062   7.033   6.803   2.024  0.0301  0.5627  3.3205
13373TIP3    H240063   7.141   6.901   1.985 -0.0447 -0.0046  1.6849
13374TIP3   OH240064   3.762   3.049   6.836  0.3914 -0.0891  0.4168
13374TIP3    H140065   3.774   2.955   6.854 -0.1545 -0.0692  0.9056
13374TIP3    H240066   3.667   3.060   6.830  0.5283  0.0737 -1.6298
13375TIP3   OH240067   5.436   7.411   3.053  0.6164 -0.3284 -1.0110
13375TIP3    H140068   5.519   7.436   3.013  0.5099  0.4742 -0.7384
13375TIP3    H240069   5.454   7.409   3.147  0.8192 -2.0378 -1.0619
13376TIP3   OH240070   7.125   6.923   1.012  0.2947  0.4684 -0.3537
13376TIP3    H140071   7.151   6.841   0.968  0.9451  0.0566  0.7795
13376TIP3    H240072   7.181   6.990   0.972  1.3376 -0.0092  0.2896
13377TIP3   OH240073   7.965   1.101   1.143  0.9553 -0.5147 -0.3136
13377TIP3    H140074   7.890   1.041   1.145  2.7928 -2.8643  3.3162
13377TIP3    H240075   7.954   1.156   1.221  0.3669  2.6331 -2.5277
13378TIP3   OH240076   4.181   4.878   5.836 -0.4288 -0.0659  0.3495
13378TIP3    H140077   4.117   4.927   5.887 -1.8073 -0.4616 -0.9649
13378TIP3    H240078   4.258   4.874   5.893 -1.2838  1.0917  1.6409
13379TIP3   OH240079   7.205   6.887   1.267  0.3793 -0.1034  0.2006
13379TIP3    H140080   7.152   6.931   1.333  3.0154  1.8806  1.0402
13379TIP3    H240081   7.169   6.917   1.184 -0.6750  0.1653  0.7400
13380TIP3   OH240082   7.330   6.030   0.814 -0.8050 -0.2827  0.1674
13380TIP3    H140083   7.288   5.981   0.744  2.3362 -1.8666 -0.7360
13380TIP3    H240084   7.288   5.999   0.894 -0.5292 -2.7731 -0.5979
13381TIP3   OH240085   5.930   5.239   0.511 -0.1329 -0.3946  0.3987
13381TIP3    H140086   5.876   5.315   0.535  3.0073  1.8748  0.4896
13381TIP3    H240087   5.964   5.207   0.594  1.0788  0.0389  0.0688
13382TIP3   OH240088   6.623   5.049   2.630  0.1503  0.6474 -0.1033
13382TIP3    H140089   6.591   5.139   2.636 -1.5161  0.1247 -0.9364
13382TIP3    H240090   6.618   5.028   2.537  0.6219 -0.2643  0.0784
13383TIP3   OH240091   5.933   7.175   1.192  0.2661  0.1335  0.1423
13383TIP3    H140092   5.881   7.098   1.217  0.0495  0.4961  0.8143
13383TIP3    H240093   6.002   7.179   1.258 -0.4819  1.2654  0.8686
13384TIP3   OH240094   7.162   0.405   1.870  0.5240  0.3570  0.7609
13384TIP3    H140095   7.238   0.460   1.851  0.7321  0.0101  0.5889
13384TIP3    H240096   7.197   0.332   1.920 -0.1019  1.5814  3.0729
13385TIP3   OH240097   0.726   1.008   2.235  0.4554 -0.0683 -0.1327
13385TIP3    H140098   0.772   0.938   2.189 -0.7494 -0.2893 -1.0376
13385TIP3    H240099   0.744   1.086   2.182 -0.6242 -0.2527 -0.7861
13386TIP3   OH240100   4.436   7.673   0.773  0.1832 -0.2037  0.0409
13386TIP3    H140101   4.387   7.603   0.730  0.3330 -0.9170  1.0137
13386TIP3    H240102   4.376   7.709   0.838  0.4553 -0.1109  0.2422
13387TIP3   OH240103   7.952   5.550   1.913  0.0657 -0.3329  0.2525
13387TIP3    H140104   7.975   5.458   1.900  0.4554 -0.1142 -0.6488
13387TIP3    H240105   7.856   5.551   1.913 -0.0029 -1.2171  3.8321
13388TIP3   OH240106   4.137   4.245   5.776 -0.2383 -0.3062 -0.0679
13388TIP3    H140107   4.113   4.153   5.769  2.4963 -1.0783  0.2833
13388TIP3    H240108   4.131   4.264   5.869  0.0454 -0.3584 -0.0402
13389TIP3   OH240109   5.515   6.668   0.247  0.1566 -0.2625 -0.5241
13389TIP3    H140110   5.579   6.620   0.299  0.3039 -0.6290 -1.0426
13389TIP3    H240111   5.448   6.694   0.310  1.3691  1.1005  0.2210
13390TIP3   OH240112   2.555   2.866   6.902  0.0629 -0.4901  0.4962
13390TIP3    H140113   2.479   2.877   6.844 -0.0752 -0.8845  0.5961
13390TIP3    H240114   2.519   2.821   6.979  0.2401  0.0754  0.9063
13391TIP3   OH240115   0.179   0.023   0.143  0.0925  0.2230 -0.0530
13391TIP3    H140116   0.200  -0.069   0.132  0.7324  0.4063 -0.3352
13391TIP3    H240117   0.257   0.062   0.183 -0.4113  0.5179  0.6773
13392TIP3   OH240118   2.553   0.141   2.372  0.3069 -0.2018 -0.2117
13392TIP3    H140119   2.509   0.076   2.427 -1.4124  1.1500  0.0829
13392TIP3    H240120   2.518   0.126   2.284 -0.6587  0.7622 -0.0099
13393TIP3   OH240121   5.500   7.982   2.885  0.2146  0.2641  0.1138
13393TIP3    H140122   5.535   8.057   2.837  0.5315 -0.7461 -1.2832
13393TIP3    H240123   5.555   7.975   2.963  0.1720  1.4819  0.2542
13394TIP3   OH240124   8.278   2.032   2.599 -0.2533  0.5214 -0.1909
13394TIP3    H140125   8.312   1.971   2.534 -0.1446  0.8352 -0.4301
13394TIP3    H240126   8.281   2.118   2.555  0.7998  0.8968  0.5775
13395TIP3   OH240127   4.880   0.531   5.992  0.4286  0.1372 -0.3485
13395TIP3    H140128   4.881   0.590   6.067 -0.8985 -0.7087  0.3422
13395TIP3    H240129   4.865   0.589   5.917 -0.4587  0.7258  0.2719
13396TIP3   OH240130   5.832   6.129   2.040  0.0201  0.5112 -0.4973
13396TIP3    H140131   5.739   6.124   2.016  0.1556 -0.1711 -0.9038
13396TIP3    H240132   5.872   6.177   1.968 -0.3755  2.8279  0.7689
13397TIP3   OH240133   0.304   1.381   1.195 -0.0071 -0.5637 -0.1376
13397TIP3    H140134   0.217   1.421   1.207  0.0855 -0.6737  0.9557
13397TIP3    H240135   0.311   1.318   1.267  1.0313 -0.4633 -0.1461
13398TIP3   OH240136   5.656   5.792   1.468  0.2349  0.5352  0.0806
13398TIP3    H140137   5.656   5.788   1.564  0.1303  0.2183  0.0687
13398TIP3    H240138   5.650   5.885   1.448 -3.2346  0.4155  0.3797
13399TIP3   OH240139   2.121   2.741   2.144  0.1365  0.2237  0.6173
13399TIP3    H140140   2.062   2.815   2.129  0.0441  0.5913  2.6421
13399TIP3    H240141   2.075   2.687   2.208  0.8982 -0.7952  0.3172
13400TIP3   OH240142   3.412   2.550   6.111  0.0700 -0.1831  0.2188
13400TIP3    H140143   3.327   2.577   6.075  0.1551 -0.9799 -0.6177
13400TIP3    H240144   3.396   2.537   6.204 -0.5587  0.3480  0.1894
13401TIP3   OH240145   1.219   1.042   1.685 -0.1809 -0.1526  0.2129
13401TIP3    H140146   1.259   1.091   1.614 -1.4273  1.2733  0.4712
13401TIP3    H240147   1.281   1.048   1.757 -0.8278  2.0216  0.6071
13402TIP3   OH240148   1.704   3.083   6.208 -0.2059 -0.5099  0.3843
13402TIP3    H140149   1.690   3.163   6.259  0.9960 -1.2788  1.9638
13402TIP3    H240150   1.796   3.086   6.182 -0.3323 -1.0429 -0.1377
13403TIP3   OH240151   0.109   7.080   1.723 -0.0120 -0.8009  0.7392
13403TIP3    H140152   0.105   7.111   1.633  0.7244 -0.5419  0.7881
13403TIP3    H240153   0.019   7.056   1.745 -0.6769  1.5672  0.7861
13404TIP3   OH240154   3.479   2.996   6.584 -0.0849 -0.0217  0.1054
13404TIP3    H140155   3.449   2.911   6.551 -2.5259  0.0837  1.9074
13404TIP3    H240156   3.429   3.010   6.664  2.6415  1.6543  1.6041
13405TIP3   OH240157   5.718   6.703   1.544 -0.5105  0.1547  0.1345
13405TIP3    H140158   5.645   6.649   1.575 -0.0671  0.4790  1.7729
13405TIP3    H240159   5.704   6.789   1.584 -0.3584  0.8228 -1.2112
13406TIP3   OH240160   1.737   5.963   0.680 -0.0295  0.0993 -0.3510
13406TIP3    H140161   1.650   5.997   0.659 -0.5049 -0.7104  0.2824
13406TIP3    H240162   1.758   5.905   0.607  0.3630  0.9712 -0.9434
13407TIP3   OH240163   5.364   6.814   0.721  0.4664  0.2832 -0.0300
13407TIP3    H140164   5.419   6.889   0.745  0.0977  0.4119  0.4326
13407TIP3    H240165   5.398   6.741   0.772 -0.5505  0.6405  1.2127
13408TIP3   OH240166   7.974   0.816   2.023  0.0135  0.1624  0.0561
13408TIP3    H140167   7.919   0.894   2.013  2.6953  1.9860 -1.1141
13408TIP3    H240168   8.025   0.833   2.102  1.1257 -0.0418 -0.6046
13409TIP3   OH240169   7.380   7.130   1.203  0.4907 -0.2452 -0.1431
13409TIP3    H140170   7.421   7.205   1.245 -0.0976 -0.6044  1.0912
13409TIP3    H240171   7.372   7.065   1.272 -0.7214 -0.7595 -0.7481
13410TIP3   OH240172   7.910   7.722   2.067 -0.1515  0.2410  0.5014
13410TIP3    H140173   7.842   7.702   2.002  1.3048 -1.5250 -0.5509
13410TIP3    H240174   7.992   7.706   2.021  1.0062  2.0875  1.8282
13411TIP3   OH240175   3.268   0.311   1.305  0.1900  0.2898 -0.6313
13411TIP3    H140176   3.231   0.394   1.333  0.7211  0.8609 -1.6064
13411TIP3    H240177   3.197   0.267   1.259 -0.1025  0.1787 -0.0805
13412TIP3   OH240178   2.388   1.603   1.444  0.0231 -0.7396 -0.3584
13412TIP3    H140179   2.402   1.610   1.538 -0.3078  0.1038 -0.3740
13412TIP3    H240180   2.345   1.685   1.419  0.7947 -0.6336 -1.3694
13413TIP3   OH240181   0.642   6.638   0.947  0.2427  0.4017  0.3300
13413TIP3    H140182   0.656   6.732   0.961  0.7342  0.4327 -0.3497
13413TIP3    H240183   0.715   6.611   0.892 -0.4992 -0.1556 -0.3829
13414TIP3   OH240184   6.847   6.740   1.683  0.2518  0.2749  0.5420
13414TIP3    H140185   6.778   6.705   1.626  0.7653  2.6692 -1.6119
13414TIP3    H240186   6.799   6.791   1.749 -0.1633  0.1823  0.3143
13415TIP3   OH240187   0.095   5.289   0.889  0.4269 -0.0367 -0.1024
13415TIP3    H140188   0.129   5.257   0.972  1.0640  1.3288  0.1736
13415TIP3    H240189   0.078   5.382   0.904 -0.8986 -0.1106 -1.0435
13416TIP3   OH240190   5.184   5.975   0.850  0.3027 -0.0685 -0.4069
13416TIP3    H140191   5.103   5.929   0.872 -0.2486  1.5781  1.1225
13416TIP3    H240192   5.249   5.941   0.912  0.2336  0.1979 -0.1865
13417TIP3   OH240193   7.226   6.334   0.491  0.0040 -0.2703 -0.0675
13417TIP3    H140194   7.300   6.294   0.445  0.2552  0.0218  0.0778
13417TIP3    H240195   7.159   6.265   0.493  0.6216 -0.8576  0.6371
13418TIP3   OH240196   4.964   2.055   6.658  0.0593  0.2371  0.1362
13418TIP3    H140197   4.889   1.999   6.637  0.1554  0.6026 -1.2579
13418TIP3    H240198   4.934   2.109   6.730 -0.2659 -1.1361  1.0544
13419TIP3   OH240199   5.508   3.025   6.426 -0.5807 -0.1815 -0.1320
13419TIP3    H140200   5.435   3.086   6.425  0.4636  1.0954 -2.6973
13419TIP3    H240201   5.474   2.945   6.385 -0.5575  0.4073 -1.3106
13420TIP3   OH240202   3.348   6.664   1.075  0.5222  0.2328  0.0362
13420TIP3    H140203   3.327   6.688   1.165  1.6476  2.6305 -0.3059
13420TIP3    H240204   3.441   6.638   1.078  0.8415  1.2570 -0.5758
13421TIP3   OH240205   4.258   0.362   6.364 -1.1625  0.4007  0.0077
13421TIP3    H140206   4.181   0.323   6.322 -1.4395 -0.5969  1.4232
13421TIP3    H240207   4.279   0.303   6.436 -0.2669  1.7167  0.8532
13422TIP3   OH240208   0.127   0.101   2.933 -0.1632  0.3115  0.2408
13422TIP3    H140209   0.209   0.134   2.970  0.0862  0.8485 -0.7391
13422TIP3    H240210   0.110   0.019   2.978  0.1350  0.9392  1.5027
13423TIP3   OH240211   6.914   5.187   1.078  0.5401 -0.1621 -0.7261
13423TIP3    H140212   6.990   5.204   1.022  0.5197 -0.9906 -1.0148
13423TIP3    H240213   6.914   5.259   1.141  1.6943 -0.2700 -0.5903
13424TIP3   OH240214   7.907   6.787   0.714  0.1816  0.2789  0.2689
13424TIP3    H140215   7.816   6.785   0.685 -0.1049  0.9966  1.0822
13424TIP3    H240216   7.937   6.876   0.694  1.0145 -0.2482 -0.8896
13425TIP3   OH240217   1.050   0.576   6.216  0.5080  0.2664  0.4578
13425TIP3    H140218   1.003   0.501   6.253  0.8475  0.2089  0.7820
13425TIP3    H240219   0.985   0.646   6.212  0.0968 -0.1594 -0.2004
13426TIP3   OH240220   3.956   0.115   0.361  0.4116 -0.5156 -0.5037
13426TIP3    H140221   3.985   0.078   0.277 -1.7351 -0.0702 -1.4844
13426TIP3    H240222   4.009   0.194   0.371  1.3970 -1.1045 -0.9347
13427TIP3   OH240223   5.552   7.785   1.865  0.0146  1.1972  0.7458
13427TIP3    H140224   5.561   7.876   1.893 -1.1760  0.6247  3.1426
13427TIP3    H240225   5.635   7.744   1.890 -0.5383  0.9908  2.2626
13428TIP3   OH240226   6.300   7.221   2.506 -0.2436  0.1297  0.0567
13428TIP3    H140227   6.268   7.210   2.416 -1.0552  1.6745  0.1335
13428TIP3    H240228   6.395   7.228   2.497 -0.2680 -0.3206 -0.6113
13429TIP3   OH240229   3.171  -0.000   2.229  0.1731  0.0799  0.4946
13429TIP3    H140230   3.237   0.030   2.291  0.1645  0.3690  0.3640
13429TIP3    H240231   3.220  -0.026   2.151  0.1342  0.2887  0.3996
13430TIP3   OH240232   2.789   0.962   2.281  0.4980 -0.3687  0.1651
13430TIP3    H140233   2.750   0.927   2.362 -0.9624 -0.5920 -0.6181
13430TIP3    H240234   2.714   0.981   2.225  1.4912  0.1576 -1.0012
13431TIP3   OH240235   3.923   5.358   1.453 -0.6834 -0.3612  0.0192
13431TIP3    H140236   3.831   5.384   1.447 -0.6824 -0.2722  0.4294
13431TIP3    H240237   3.923   5.275   1.500 -0.6206 -0.7642 -0.6719
13432TIP3   OH240238   7.586   4.667   0.758 -0.0336  0.3329  0.0440
13432TIP3    H140239   7.593   4.578   0.792  0.8311  0.7082  0.8741
13432TIP3    H240240   7.500   4.698   0.788 -0.5388 -0.3781 -0.6505
13433TIP3   OH240241   4.818   5.110   6.537 -0.2504  0.0860  0.1374
13433TIP3    H140242   4.803   5.087   6.445  0.8090 -0.0082 -0.0189
13433TIP3    H240243   4.734   5.094   6.580 -0.0418 -2.3845 -0.3107
13434TIP3   OH240244   1.486   0.141   1.703  0.8456  0.2262 -0.3232
13434TIP3    H140245   1.579   0.120   1.692  1.6368  1.1761  3.7130
13434TIP3    H240246   1.452   0.071   1.758 -1.2642 -0.8829 -2.9075
13435TIP3   OH240247   0.757   5.951   0.468  0.2740  0.1439  0.7419
13435TIP3    H140248   0.851   5.937   0.477  0.1352  0.1656  2.3758
13435TIP3    H240249   0.718   5.866   0.487  0.0592 -0.5535 -2.5356
13436TIP3   OH240250   5.917   2.829   5.189 -0.0853  0.8603 -0.0550
13436TIP3    H140251   5.851   2.827   5.120  0.7484 -0.3136 -0.8456
13436TIP3    H240252   5.875   2.788   5.265 -0.1698 -0.1831 -0.6534
13437TIP3   OH240253   1.671   0.309   2.895 -0.0154 -0.3217  0.7815
13437TIP3    H140254   1.633   0.390   2.926 -0.7865 -0.3437 -0.0643
13437TIP3    H240255   1.647   0.243   2.961  0.0195 -0.0019  1.1111
13438TIP3   OH240256   7.805   2.526   6.825  0.5676 -0.1051 -0.1001
13438TIP3    H140257   7.825   2.618   6.811  4.0590 -1.1067 -2.3330
13438TIP3    H240258   7.730   2.509   6.767  1.6239  0.7194 -1.7332
13439TIP3   OH240259   7.505   6.642   2.210  0.5318 -0.2809 -0.4280
13439TIP3    H140260   7.552   6.700   2.270 -0.3595  1.2902 -1.2081
13439TIP3    H240261   7.574   6.599   2.160  1.1972  1.3028 -0.9204
13440TIP3   OH240262   1.285   7.364   1.535  0.6211  0.5680 -0.7140
13440TIP3    H140263   1.365   7.389   1.582  1.9212 -1.0542 -1.9960
13440TIP3    H240264   1.262   7.278   1.571  0.2879  0.3701 -1.3907
13441TIP3   OH240265   0.691   7.138   2.043  0.0106  0.7215  0.0501
13441TIP3    H140266   0.602   7.106   2.029  0.0693  0.9588 -0.8983
13441TIP3    H240267   0.686   7.188   2.125 -0.1098 -1.5528  1.4659
13442TIP3   OH240268   8.506   7.380   1.016 -0.3992 -0.0913 -0.2531
13442TIP3    H140269   8.471   7.290   1.012  1.1998 -0.6970 -0.8732
13442TIP3    H240270   8.442   7.433   0.968 -0.3262 -1.2203 -1.6113
13443TIP3   OH240271   4.118   2.548   6.830  0.0992  0.0593 -0.1202
13443TIP3    H140272   4.161   2.601   6.763  2.1188 -1.8980 -0.4168
13443TIP3    H240273   4.127   2.599   6.911 -1.1318  1.7936 -1.0436
13444TIP3   OH240274   3.897   1.423   4.642 -0.0460  0.0283 -0.7014
13444TIP3    H140275   3.858   1.428   4.729 -1.7441 -0.6214 -1.4100
13444TIP3    H240276   3.961   1.494   4.640 -0.3658  0.3697  0.8949
13445TIP3   OH240277   0.048   5.664   3.960 -0.1897 -0.4994  0.1959
13445TIP3    H140278  -0.031   5.687   3.911  1.0927  0.9015 -1.2736
13445TIP3    H240279   0.110   5.733   3.939  1.8230 -2.1877  0.3922
13446TIP3   OH240280   0.246   6.560   0.452 -0.4712  0.2991  0.4336
13446TIP3    H140281   0.245   6.513   0.369  1.9665 -0.6869  0.9372
13446TIP3    H240282   0.338   6.580   0.468 -0.9695  0.9687  2.6419
13447TIP3   OH240283   5.491   4.818   5.758  0.1715 -0.1754 -0.2340
13447TIP3    H140284   5.586   4.827   5.754  0.0062  1.2000 -1.2713
13447TIP3    H240285   5.457   4.902   5.728 -1.3779 -0.5170  0.5001
13448TIP3   OH240286   5.189   0.034   2.041 -0.1338 -0.3341  0.4615
13448TIP3    H140287   5.099   0.059   2.061 -0.5015 -0.2454 -1.2778
13448TIP3    H240288   5.184  -0.057   2.012  0.2848 -0.1968 -0.0524
13449TIP3   OH240289   4.920   2.236   6.854  0.5952 -0.0355 -0.2937
13449TIP3    H140290   4.841   2.246   6.908  1.1410  0.9674  0.3316
13449TIP3    H240291   4.967   2.319   6.865  2.2227 -0.9891  0.1194
13450TIP3   OH240292   0.713   6.637   3.187 -0.3219 -0.7004 -0.1421
13450TIP3    H140293   0.677   6.722   3.165 -2.5033 -1.0502  1.8251
13450TIP3    H240294   0.696   6.582   3.111  0.0761  0.3246 -0.9724
13451TIP3   OH240295   3.498   1.679   1.848 -0.4524  0.5718  0.4516
13451TIP3    H140296   3.417   1.646   1.807 -0.1999  0.4515  0.0479
13451TIP3    H240297   3.512   1.622   1.924  0.0013 -0.2794 -0.2573
13452TIP3   OH240298   7.022   7.559   0.761 -0.5283 -0.0612  0.0066
13452TIP3    H140299   6.935   7.528   0.736  0.3545 -1.4526 -1.4863
13452TIP3    H240300   7.008   7.648   0.791 -2.9156 -1.2500  2.6930
13453TIP3   OH240301   8.299   7.989   1.995  0.4680 -0.2346  0.0319
13453TIP3    H140302   8.235   8.038   2.046 -0.3311 -0.0595 -1.1200
13453TIP3    H240303   8.262   7.987   1.906  0.7692 -2.4259 -0.0560
13454TIP3   OH240304   3.777   1.208   6.738 -0.0259  0.2075  0.1523
13454TIP3    H140305   3.810   1.196   6.649 -0.1635 -1.4739  0.3115
13454TIP3    H240306   3.819   1.289   6.768  1.8702 -0.4514 -0.6143
13455TIP3   OH240307   3.174   0.254   0.961 -0.0542  0.5025 -0.8624
13455TIP3    H140308   3.199   0.169   0.998  1.3227  0.9415 -0.7554
13455TIP3    H240309   3.127   0.298   1.031 -1.2637 -0.3714 -1.0961
13456TIP3   OH240310   3.499   0.174   1.208  0.2518 -0.3621  0.0989
13456TIP3    H140311   3.554   0.162   1.285 -0.6770  0.2472  0.8751
13456TIP3    H240312   3.428   0.231   1.238 -2.0543 -2.9685 -0.2728
13457TIP3   OH240313   1.661   7.029   2.997 -0.5534  0.7193 -0.0098
13457TIP3    H140314   1.581   7.082   2.989  1.3314  4.0642  1.8881
13457TIP3    H240315   1.715   7.056   2.922 -0.4759 -0.1704 -0.2737
13458TIP3   OH240316   3.210   0.664   0.312  0.5866  0.7261  0.2044
13458TIP3    H140317   3.131   0.716   0.299 -0.3559 -0.0337  2.5718
13458TIP3    H240318   3.189   0.578   0.276 -0.4401 -0.0875  2.6871
13459TIP3   OH240319   8.133   6.958   2.526 -0.0918  0.4189  0.4567
13459TIP3    H140320   8.221   6.954   2.565  0.0539 -2.5579 -0.0750
13459TIP3    H240321   8.149   6.982   2.435 -0.0099  1.8251  0.8255
13460TIP3   OH240322   7.885   6.586   0.111  0.0382  0.0954 -0.0710
13460TIP3    H140323   7.972   6.625   0.122 -0.5953  1.0747  1.7487
13460TIP3    H240324   7.879   6.567   0.017  1.8120  0.9565 -0.3849
13461TIP3   OH240325   1.839   7.764   4.145  0.1259  0.5818  0.4157
13461TIP3    H140326   1.915   7.815   4.118  0.1732  1.1196  1.5339
13461TIP3    H240327   1.848   7.681   4.098  0.6295  1.1865 -0.5719
13462TIP3   OH240328   2.406   0.883   1.407  0.1970 -0.3718 -0.0971
13462TIP3    H140329   2.388   0.975   1.426 -1.8323 -0.7144 -0.2575
13462TIP3    H240330   2.495   0.883   1.371  0.9423  1.2817  1.6604
13463TIP3   OH240331   7.286   6.444   1.101  0.0615 -0.0481  0.0061
13463TIP3    H140332   7.370   6.402   1.089 -0.5129 -1.0742 -0.4662
13463TIP3    H240333   7.245   6.442   1.014 -0.9659 -0.6952  0.4921
13464TIP3   OH240334   0.217   5.828   3.098  0.4926  0.0157 -0.0849
13464TIP3    H140335   0.271   5.866   3.168  1.5081 -2.0566  0.2917
13464TIP3    H240336   0.170   5.756   3.139 -1.1346  0.5984 -0.8777
13465TIP3   OH240337   0.215   1.088   1.782 -0.6121 -0.3494  0.4139
13465TIP3    H140338   0.182   1.131   1.861  0.3985 -0.8894  1.1500
13465TIP3    H240339   0.260   1.010   1.814  1.7306  0.5719 -0.4885
13466TIP3   OH240340   0.980   7.700   0.340 -0.1313 -0.4172  0.1507
13466TIP3    H140341   0.976   7.693   0.435  1.6673  0.3275  0.3026
13466TIP3    H240342   0.961   7.612   0.309  2.5484 -1.4559  1.3245
13467TIP3   OH240343   0.185   7.055   0.984 -0.1609  0.3143 -0.0925
13467TIP3    H140344   0.199   6.987   0.919  0.0746  1.0700 -0.8482
13467TIP3    H240345   0.102   7.096   0.958 -1.6282 -1.3273  1.8416
13468TIP3   OH240346   7.496   1.344   5.557 -0.1313 -0.2308  0.6129
13468TIP3    H140347   7.402   1.330   5.569 -0.1701  0.6742  1.4099
13468TIP3    H240348   7.522   1.399   5.631  0.9928 -0.3251  0.3001
13469TIP3   OH240349   0.318   0.402   1.842  0.1758 -0.1455  0.4573
13469TIP3    H140350   0.224   0.405   1.858  0.4101 -1.2299  2.1029
13469TIP3    H240351   0.327   0.421   1.748 -1.7566 -1.4163 -0.0092
13470TIP3   OH240352   8.082   2.792   6.382  0.0076  0.4061 -0.1732
13470TIP3    H140353   8.150   2.725   6.382  1.9100  2.2586 -1.4247
13470TIP3    H240354   8.079   2.825   6.472  2.0445  1.5366 -0.5032
13471TIP3   OH240355   4.131   4.010   6.749  0.3772  0.1669 -0.1349
13471TIP3    H140356   4.150   4.104   6.753 -0.8001  0.4725 -1.3093
13471TIP3    H240357   4.063   4.002   6.682  1.0816 -1.6322 -0.6703
13472TIP3   OH240358   0.169   7.259   2.891 -0.5566  0.4550  0.0570
13472TIP3    H140359   0.152   7.353   2.904 -1.1155  0.4409 -0.5206
13472TIP3    H240360   0.179   7.224   2.979 -2.7268  0.6200  0.4044
13473TIP3   OH240361   5.428   2.707   6.073 -0.4488  0.5414  0.0130
13473TIP3    H140362   5.447   2.645   6.143 -1.1898 -0.0988 -0.3423
13473TIP3    H240363   5.487   2.781   6.089 -0.0678  0.0583  0.8528
13474TIP3   OH240364   6.500   7.513   1.740 -0.2115  0.1995  0.3048
13474TIP3    H140365   6.480   7.582   1.804 -0.4897  2.6745 -2.3608
13474TIP3    H240366   6.588   7.535   1.708  0.7762 -2.2001  1.3032
13475TIP3   OH240367   6.204   5.217   6.204  0.2187 -0.4878 -0.4752
13475TIP3    H140368   6.236   5.280   6.140 -0.2821  1.0256  0.7003
13475TIP3    H240369   6.146   5.159   6.155 -0.2063  0.6875 -1.3842
13476TIP3   OH240370   0.773   5.931   1.611  0.0918  0.3480 -0.0404
13476TIP3    H140371   0.688   5.893   1.633  0.2769  1.0588  2.0201
13476TIP3    H240372   0.759   6.026   1.615  1.1482  0.4710  1.0454
13477TIP3   OH240373   0.892   7.490   1.000 -0.1154 -0.0958  0.0925
13477TIP3    H140374   0.853   7.407   0.974 -2.4047  1.0091 -0.0935
13477TIP3    H240375   0.829   7.557   0.973  0.7083  1.5663  2.0992
13478TIP3   OH240376   6.842   1.388   6.942 -0.0585 -0.3510 -0.3064
13478TIP3    H140377   6.765   1.374   6.998 -0.4155 -0.4043 -0.8050
13478TIP3    H240378   6.805   1.420   6.859  0.5517  0.8837 -0.1096
13479TIP3   OH240379   7.414   6.476   1.561 -0.4681  0.1037 -0.5319
13479TIP3    H140380   7.383   6.552   1.609 -0.7951  0.1716 -0.8456
13479TIP3    H240381   7.421   6.506   1.470 -1.3621 -0.4636 -0.7884
13480TIP3   OH240382   6.733   7.340   2.888  0.1671 -0.2129 -0.2204
13480TIP3    H140383   6.723   7.433   2.868 -1.5319 -0.7078 -1.7416
13480TIP3    H240384   6.742   7.297   2.803 -1.5399 -1.7126  0.3103
13481TIP3   OH240385   1.202   7.325   2.388 -0.1741  0.3342 -0.5105
13481TIP3    H140386   1.284   7.277   2.397 -1.5082 -2.2361 -1.5424
13481TIP3    H240387   1.186   7.328   2.294 -0.8737  1.5424 -0.3691
13482TIP3   OH240388   8.261   5.762   0.140  0.5251  0.0240  0.0329
13482TIP3    H140389   8.309   5.705   0.079  1.8010 -1.2974  2.2193
13482TIP3    H240390   8.329   5.799   0.196 -0.6749  0.9597  0.8782
13483TIP3   OH240391   0.291   6.863   2.223 -0.4468  0.2370 -0.1472
13483TIP3    H140392   0.320   6.775   2.199  0.9597  0.1620  1.7324
13483TIP3    H240393   0.206   6.848   2.265 -0.6268 -0.1151 -0.6179
13484TIP3   OH240394   8.221   7.030   1.164 -0.0617  0.3149  0.2380
13484TIP3    H140395   8.181   6.955   1.119  0.3701 -0.4705  1.1639
13484TIP3    H240396   8.247   6.996   1.249  0.1654  1.5175  0.6504
13485TIP3   OH240397   1.521   0.140   2.165  0.3048  0.0140  0.5157
13485TIP3    H140398   1.553   0.226   2.137  0.9783 -0.9079 -1.6490
13485TIP3    H240399   1.594   0.081   2.147 -0.2862 -1.0698  1.6419
13486TIP3   OH240400   5.981   3.184   5.934  0.0316 -0.5001 -0.0847
13486TIP3    H140401   5.964   3.205   5.842  1.1179  0.0213 -0.1814
13486TIP3    H240402   6.042   3.110   5.930 -0.1460 -0.6591  0.2099
13487TIP3   OH240403   7.718   6.287   2.352 -0.0140  0.1880  0.2113
13487TIP3    H140404   7.688   6.215   2.297  1.2021 -0.6897  0.6746
13487TIP3    H240405   7.802   6.258   2.387 -0.6747  0.7701  2.4028
13488TIP3   OH240406   3.271   2.333   5.913  0.3347 -0.5263 -0.2167
13488TIP3    H140407   3.206   2.290   5.858  0.6771  0.2515 -1.2402
13488TIP3    H240408   3.242   2.424   5.918  0.2629 -0.6095  0.9618
13489TIP3   OH240409   3.976   1.473   5.770 -0.3062 -0.2681  0.5112
13489TIP3    H140410   3.919   1.534   5.818  0.6987 -0.6845  2.2951
13489TIP3    H240411   3.916   1.424   5.714 -1.3557  1.1231  0.3803
13490TIP3   OH240412   7.610   3.438   3.812  0.1986  0.1368  0.0802
13490TIP3    H140413   7.572   3.491   3.742  1.3748 -0.9862 -1.4372
13490TIP3    H240414   7.650   3.502   3.871  0.1553  1.0436 -0.8518
13491TIP3   OH240415   1.688   6.549   0.359 -0.2802 -0.5391  0.1558
13491TIP3    H140416   1.626   6.529   0.429  1.1212  0.6071  1.7726
13491TIP3    H240417   1.721   6.637   0.380  1.1589 -0.7204 -1.1958
13492TIP3   OH240418   6.858   4.590   2.319 -0.0492 -0.6101  0.0018
13492TIP3    H140419   6.909   4.595   2.238 -0.4376  0.0243 -0.2091
13492TIP3    H240420   6.843   4.496   2.332  0.9136 -0.7759 -0.0960
13493TIP3   OH240421   2.077   1.591   2.461  0.6379 -0.5379 -0.0732
13493TIP3    H140422   2.024   1.544   2.525 -0.1735 -0.5056 -0.7124
13493TIP3    H240423   2.029   1.672   2.444  2.4388  0.9352  1.6341
13494TIP3   OH240424   7.351   7.106   0.424 -0.6657  1.1744  0.0555
13494TIP3    H140425   7.263   7.133   0.451 -0.5900  0.9598  0.5155
13494TIP3    H240426   7.405   7.120   0.501 -0.6653 -0.5106  0.3721
13495TIP3   OH240427   8.076  -0.009   1.094 -0.6080 -0.2804 -0.4213
13495TIP3    H140428   8.114   0.079   1.090 -0.6553 -0.3270 -2.5404
13495TIP3    H240429   8.126  -0.054   1.162  2.0387  0.1786 -1.9859
13496TIP3   OH240430   8.152   6.870   0.958  0.4125  0.2833 -0.2418
13496TIP3    H140431   8.059   6.849   0.968  0.6121 -0.0310  1.0707
13496TIP3    H240432   8.157   6.921   0.877 -1.0577  1.2818  0.2873
13497TIP3   OH240433   4.190   1.142   4.141  0.4370 -0.3403 -0.4569
13497TIP3    H140434   4.145   1.192   4.209 -1.6053 -0.6176 -1.5472
13497TIP3    H240435   4.283   1.160   4.155 -0.1726  2.8648 -0.1398
13498TIP3   OH240436   3.922   0.663   0.845  0.1213 -1.0655 -0.1126
13498TIP3    H140437   3.882   0.587   0.803  0.7780 -0.7349 -1.3926
13498TIP3    H240438   3.914   0.647   0.939  0.2531 -2.7128 -0.3777
13499TIP3   OH240439   1.270   6.092   0.426 -0.0175 -0.1144 -0.2536
13499TIP3    H140440   1.335   6.113   0.359 -1.1361 -0.9799 -1.6422
13499TIP3    H240441   1.208   6.166   0.424 -1.4264 -1.3063 -1.9444
13500TIP3   OH240442   8.178   6.813   1.749 -0.1660  0.4862  0.1857
13500TIP3    H140443   8.194   6.743   1.813 -0.8037  0.6556  0.5301
13500TIP3    H240444   8.141   6.767   1.673 -0.6006  0.4556  0.4183
13501TIP3   OH240445   4.989   3.387   6.648 -0.6604 -0.0689  0.5951
13501TIP3    H140446   4.942   3.470   6.661  0.2267  0.2940  1.4863
13501TIP3    H240447   4.920   3.323   6.632 -1.3809  0.7421  0.4201
13502TIP3   OH240448   7.753   7.352   0.447 -0.0491  0.2683 -0.4276
13502TIP3    H140449   7.754   7.354   0.351 -1.9118  0.3806 -0.4649
13502TIP3    H240450   7.687   7.417   0.471 -0.2222 -0.4004  0.9078
13503TIP3   OH240451   5.889   1.890   6.566  0.6601 -0.3811 -0.0533
13503TIP3    H140452   5.959   1.875   6.502 -0.7936 -1.6603 -1.3964
13503TIP3    H240453   5.853   1.803   6.583 -0.6488  0.2671  0.5437
13504TIP3   OH240454   0.815   7.489   2.160  0.0322  0.9244  0.0584
13504TIP3    H140455   0.849   7.435   2.089 -1.1138  0.2907 -0.0232
13504TIP3    H240456   0.769   7.428   2.217 -1.2082  1.7952  0.0162
13505TIP3   OH240457   0.391   6.551   0.777  0.6361  0.1824 -0.5986
13505TIP3    H140458   0.318   6.611   0.788 -0.2639 -1.2438  1.5245
13505TIP3    H240459   0.458   6.583   0.838  0.4022 -0.5645  0.0633
13506TIP3   OH240460   0.792   7.664   1.810 -0.1257 -0.0558  0.1029
13506TIP3    H140461   0.848   7.692   1.882 -0.0733 -1.3572  0.5855
13506TIP3    H240462   0.750   7.584   1.842 -0.2603 -0.5316 -1.2233
13507TIP3   OH240463   7.391   6.620   0.558 -0.1826  0.5090 -1.0914
13507TIP3    H140464   7.320   6.569   0.595  1.4573  1.0778  3.0794
13507TIP3    H240465   7.360   6.711   0.561  0.0016  0.5709 -1.0136
13508TIP3   OH240466   1.431   5.318   2.534  0.0753 -0.2567 -0.5014
13508TIP3    H140467   1.482   5.273   2.466 -0.8984 -1.6819 -0.3073
13508TIP3    H240468   1.491   5.383   2.570  0.5222  0.7445 -2.9298
13509TIP3   OH240469   5.356   7.891   2.418 -0.5389 -0.2755 -0.1294
13509TIP3    H140470   5.394   7.977   2.439 -0.8327 -0.1759 -0.0068
13509TIP3    H240471   5.387   7.873   2.329 -0.1382 -0.2307 -0.0018
13510TIP3   OH240472   5.112   1.963   5.658  1.1354 -0.4478 -0.0420
13510TIP3    H140473   5.105   2.053   5.628  0.7764  0.0278  1.4130
13510TIP3    H240474   5.183   1.925   5.606  1.4251  0.7278 -0.5114
13511TIP3   OH240475   3.271   6.945   1.477 -0.4272 -0.1931 -0.3480
13511TIP3    H140476   3.269   6.868   1.421 -0.0093 -0.6109  0.2027
13511TIP3    H240477   3.338   7.002   1.438  2.2286 -1.8897  1.5041
13512TIP3   OH240478   8.429   7.022   2.924 -0.2192 -0.0445 -0.1612
13512TIP3    H140479   8.402   7.112   2.940 -0.1499 -0.4121  2.2744
13512TIP3    H240480   8.525   7.026   2.920  0.0843 -0.5213  4.1069
13513TIP3   OH240481   5.751   7.133   1.507 -0.3776 -0.3947 -0.3354
13513TIP3    H140482   5.710   7.126   1.421 -0.4195  2.4717 -0.5886
13513TIP3    H240483   5.800   7.215   1.504 -0.2031 -0.3510  2.3096
13514TIP3   OH240484   7.980   6.084   0.121  0.2576  0.3480 -0.0317
13514TIP3    H140485   7.954   6.155   0.181 -1.8137 -0.2599 -0.1984
13514TIP3    H240486   7.952   6.114   0.035  0.0697 -0.3582 -0.2107
13515TIP3   OH240487   3.974   2.837   5.915  0.0213 -0.0418 -0.3135
13515TIP3    H140488   4.036   2.778   5.958 -0.2067 -0.3904 -0.4485
13515TIP3    H240489   3.903   2.779   5.887  1.0134 -0.1285 -2.7984
13516TIP3   OH240490   1.928   0.512   1.453 -0.6090 -0.3344  0.1557
13516TIP3    H140491   2.012   0.472   1.430  0.1892  1.7881 -0.7155
13516TIP3    H240492   1.944   0.556   1.536 -1.1114 -0.6672  0.4321
13517TIP3   OH240493   6.908   3.703   6.221 -0.1199  0.2057  0.1835
13517TIP3    H140494   6.898   3.674   6.312 -2.1591  0.1036 -0.0514
13517TIP3    H240495   6.821   3.733   6.196  0.6788  1.2707 -1.3975
13518TIP3   OH240496   0.525   7.028   1.420  0.0532  0.6944  0.2393
13518TIP3    H140497   0.530   7.083   1.498  0.9863  1.9376 -0.6754
13518TIP3    H240498   0.450   7.062   1.372 -1.7117 -1.3075  1.4864
13519TIP3   OH240499   4.191   0.276   1.470 -0.0716 -0.2884  0.1279
13519TIP3    H140500   4.123   0.343   1.478  0.1086  0.0550 -1.0687
13519TIP3    H240501   4.150   0.196   1.504 -0.9842 -0.0229 -0.3152
13520TIP3   OH240502   7.845   7.925   0.936  0.1140  0.1483  0.1944
13520TIP3    H140503   7.789   7.974   0.997  0.6951 -1.5318  2.1024
13520TIP3    H240504   7.838   7.834   0.964 -0.4043 -0.8134 -2.9080
13521TIP3   OH240505   1.593   0.601   1.243 -0.4916 -1.1379 -0.2028
13521TIP3    H140506   1.538   0.604   1.321 -1.0117 -1.2368 -0.5637
13521TIP3    H240507   1.635   0.687   1.239 -0.6734 -1.0396  0.0296
13522TIP3   OH240508   6.841   7.583   1.523 -0.1061  0.1442  0.5853
13522TIP3    H140509   6.895   7.614   1.451 -0.7936  0.7194  0.3093
13522TIP3    H240510   6.818   7.493   1.500  2.5371 -0.8818  1.7565
13523TIP3   OH240511   0.969   7.502   1.265 -0.5766  0.1880  0.2048
13523TIP3    H140512   0.966   7.524   1.171 -1.5411  1.3503  0.4957
13523TIP3    H240513   0.959   7.586   1.309 -1.0814 -0.4786  1.3689
13524TIP3   OH240514   7.529   7.245   0.608  0.4727  0.6088 -0.4722
13524TIP3    H140515   7.607   7.197   0.638  0.4003  1.7628  1.7136
13524TIP3    H240516   7.562   7.304   0.540  1.0881 -0.4571 -1.1252
13525TIP3   OH240517   5.411   3.003   6.882 -0.5660  0.0210 -0.0464
13525TIP3    H140518   5.492   3.024   6.836 -0.0511  1.2831  1.3936
13525TIP3    H240519   5.345   2.997   6.813  1.0672 -2.9175 -1.4706
13526TIP3   OH240520   7.480   4.560   0.349  0.3073  0.1293  0.1578
13526TIP3    H140521   7.537   4.492   0.313  2.1170  1.4302  0.4807
13526TIP3    H240522   7.532   4.601   0.417 -1.4941  0.5689  1.3099
13527TIP3   OH240523   0.620   7.374   1.272 -0.2055 -0.4150 -0.0032
13527TIP3    H140524   0.639   7.281   1.259  2.0645  0.1110 -0.6414
13527TIP3    H240525   0.691   7.420   1.228 -3.2611  1.7192 -2.9929
13528TIP3   OH240526   7.732   5.030   1.823  0.4590 -0.3715  0.9471
13528TIP3    H140527   7.717   5.078   1.904  0.0268  1.6072 -0.2687
13528TIP3    H240528   7.760   5.097   1.760  0.7407 -1.8504 -0.5439
13529TIP3   OH240529   6.222   4.228   6.470 -0.0500 -0.8037  0.1347
13529TIP3    H140530   6.139   4.243   6.515 -0.0060  1.0664 -0.3823
13529TIP3    H240531   6.204   4.252   6.379  0.7986 -1.3490 -0.1842
13530TIP3   OH240532   0.877   6.637   0.816  0.4573 -0.5595  0.1302
13530TIP3    H140533   0.929   6.571   0.770  2.4927  1.4131 -0.4701
13530TIP3    H240534   0.922   6.650   0.899  1.7946  2.1497 -0.9535
13531TIP3   OH240535   2.686   7.824   0.837 -0.1833 -0.0910 -0.3366
13531TIP3    H140536   2.752   7.856   0.776 -0.9207 -0.1450 -1.1820
13531TIP3    H240537   2.637   7.902   0.862 -0.2800 -0.1630 -0.3005
13532TIP3   OH240538   6.035   2.752   6.312  0.5670  0.2632 -0.4588
13532TIP3    H140539   5.975   2.826   6.317 -0.0212 -0.2079 -0.5256
13532TIP3    H240540   6.033   2.713   6.400  1.8191  1.0551 -0.0597
13533TIP3   OH240541   2.478   1.194   1.153 -0.2433 -0.0887  0.0984
13533TIP3    H140542   2.388   1.165   1.167 -0.3767 -0.0938 -0.6956
13533TIP3    H240543   2.499   1.246   1.230 -1.1038  0.3177  0.0687
13534TIP3   OH240544   7.440   7.105   2.430 -0.5222  0.3570  0.5103
13534TIP3    H140545   7.530   7.106   2.397 -1.4313 -1.7367 -2.3001
13534TIP3    H240546   7.444   7.058   2.513  1.1800  1.6201  1.1560
13535TIP3   OH240547   2.527   1.235   1.918  0.0253 -0.0927 -0.1921
13535TIP3    H140548   2.592   1.297   1.887 -0.2028 -0.0651 -0.6151
13535TIP3    H240549   2.573   1.182   1.984  0.7092 -0.6072 -1.0759
13536TIP3   OH240550   0.634   6.718   2.490 -0.7343 -0.4174  0.1322
13536TIP3    H140551   0.633   6.623   2.474  0.5381 -0.4902  0.4313
13536TIP3    H240552   0.628   6.757   2.403  1.1718 -0.7932 -0.1990
13537TIP3   OH240553   4.714   2.323   6.054  0.7553 -0.1189 -0.4728
13537TIP3    H140554   4.734   2.368   6.136 -0.8910 -0.8548  0.3419
13537TIP3    H240555   4.628   2.356   6.028  1.5227  0.5804 -2.2511
13538TIP3   OH240556   1.439   0.587   2.293 -0.5148  0.2161 -0.4913
13538TIP3    H140557   1.408   0.657   2.350 -1.6304 -2.1013  1.8520
13538TIP3    H240558   1.368   0.523   2.294  0.8657 -1.3572 -1.8404
13539TIP3   OH240559   2.961   1.070   1.031 -0.5687 -0.2414 -0.1271
13539TIP3    H140560   3.023   1.019   1.083  1.9868  2.8759  0.1077
13539TIP3    H240561   2.970   1.035   0.942  0.7210 -0.6291  0.1375
13540TIP3   OH240562   5.296   4.209   6.322  0.3017 -0.1822 -0.1137
13540TIP3    H140563   5.335   4.212   6.235  0.3275  1.2400 -0.0755
13540TIP3    H240564   5.206   4.178   6.307  0.6956 -1.1431 -0.4902
13541TIP3   OH240565   1.422   0.028   0.237  0.0419  0.2392  0.0832
13541TIP3    H140566   1.386   0.078   0.310 -0.7439 -1.4850  0.9167
13541TIP3    H240567   1.490   0.084   0.200  0.2509  1.2549  1.9674
13542TIP3   OH240568   0.285   7.751   2.361  0.1059  0.1445  0.2020
13542TIP3    H140569   0.301   7.842   2.336 -0.6724  0.4488  0.7637
13542TIP3    H240570   0.226   7.717   2.294  1.5306 -0.3888 -0.7994
13543TIP3   OH240571   7.783   5.524   0.924 -0.3351 -0.0797  0.3611
13543TIP3    H140572   7.802   5.597   0.984  0.1806 -0.0132  0.1147
13543TIP3    H240573   7.712   5.557   0.869  1.7174  1.2504 -1.5531
13544TIP3   OH240574   3.531   2.103   6.872 -0.7001  0.1085 -0.4160
13544TIP3    H140575   3.563   2.051   6.945 -0.1213  0.0963 -0.6771
13544TIP3    H240576   3.448   2.061   6.847 -1.4177  0.7289  0.8837
13545TIP3   OH240577   6.375   3.777   6.758 -0.0773  0.1109 -0.9661
13545TIP3    H140578   6.327   3.695   6.740 -0.7189  0.0761  0.7271
13545TIP3    H240579   6.341   3.839   6.694 -0.7806 -0.5274 -1.2252
13546TIP3   OH240580   7.381   7.187   1.511  0.2070  0.2034 -0.5412
13546TIP3    H140581   7.426   7.102   1.519  0.5961  0.3525 -1.0802
13546TIP3    H240582   7.322   7.190   1.586  0.0213 -0.6481 -0.6410
13547TIP3   OH240583   1.675   7.743   1.978 -0.5182  0.6938 -0.4899
13547TIP3    H140584   1.631   7.829   1.979 -0.6285  0.6321 -0.0387
13547TIP3    H240585   1.606   7.681   2.002 -0.5353  0.4285 -1.1928
13548TIP3   OH240586   6.294   6.451   0.519  0.4842  0.7315 -0.2055
13548TIP3    H140587   6.263   6.399   0.445 -1.6115  0.9626  0.4691
13548TIP3    H240588   6.324   6.387   0.583  0.9298  0.4762 -0.6680
13549TIP3   OH240589   1.624   1.144   2.417 -0.0397 -0.4675  0.4315
13549TIP3    H140590   1.563   1.070   2.416 -0.0798 -0.4341  0.0300
13549TIP3    H240591   1.598   1.196   2.340 -1.1841  0.9063  1.7027
13550TIP3   OH240592   5.651   7.732   1.101  0.1556 -0.0636 -0.0965
13550TIP3    H140593   5.587   7.756   1.168  0.1902  1.6458 -0.6533
13550TIP3    H240594   5.724   7.693   1.150 -0.8362 -1.0503  0.6258
13551TIP3   OH240595   1.616   0.375   2.075  0.6574  0.2166 -0.4952
13551TIP3    H140596   1.665   0.430   2.014  0.6060  2.2727  1.2317
13551TIP3    H240597   1.677   0.359   2.147  0.3201 -1.1188 -0.4960
13552TIP3   OH240598   6.329   4.597   6.439  0.1109  0.1217  0.7191
13552TIP3    H140599   6.387   4.667   6.467 -0.1586  0.2417  0.9742
13552TIP3    H240600   6.270   4.638   6.375 -1.2371  0.5688  2.2229
13553TIP3   OH240601   0.237   6.283   0.941  0.0607  0.1123 -0.2829
13553TIP3    H140602   0.321   6.312   0.977  0.0708  0.4256 -0.5597
13553TIP3    H240603   0.198   6.362   0.904  0.6094 -0.4352 -2.0907
13554TIP3   OH240604   1.332   6.904   2.878  0.1602 -0.2648 -0.6235
13554TIP3    H140605   1.325   6.811   2.903  1.4444 -0.3844 -0.6666
13554TIP3    H240606   1.412   6.908   2.825  0.6015  1.0203  0.1288
13555TIP3   OH240607   2.793   2.392   0.032  0.1600  0.4088  0.2829
13555TIP3    H140608   2.789   2.421  -0.059  0.9576  0.6507  0.3229
13555TIP3    H240609   2.814   2.299   0.027 -2.8367 -0.3175  0.1407
13556TIP3   OH240610   4.769   0.111   2.155  0.3800 -0.1062  0.2929
13556TIP3    H140611   4.683   0.148   2.133 -0.3597 -0.1293  2.9788
13556TIP3    H240612   4.756   0.016   2.152  0.5530 -0.1175 -0.1586
13557TIP3   OH240613   0.487   7.469   2.324  0.1880  0.2290  0.5972
13557TIP3    H140614   0.435   7.548   2.309 -0.2278  0.3324  2.5033
13557TIP3    H240615   0.570   7.500   2.360 -0.1608 -0.2188  1.8054
13558TIP3   OH240616   0.787   5.636   1.537 -0.1627  0.3152 -0.2518
13558TIP3    H140617   0.737   5.694   1.595  1.4217 -0.1407  1.6258
13558TIP3    H240618   0.878   5.665   1.548  0.6314 -2.3126  0.5068
13559TIP3   OH240619   1.258   5.600   0.297  0.1563  0.4955  0.2537
13559TIP3    H140620   1.302   5.536   0.242  0.7735 -0.7901  2.1763
13559TIP3    H240621   1.181   5.626   0.247  0.4067 -1.0391 -0.9722
13560TIP3   OH240622   7.371   1.019   5.681  0.5599 -0.6352  0.1167
13560TIP3    H140623   7.325   1.017   5.597  0.7156 -1.0925  0.0385
13560TIP3    H240624   7.439   0.953   5.672  0.8321 -0.4015  0.4610
13561TIP3   OH240625   5.519   7.172   1.023  0.5917 -0.5797  0.2408
13561TIP3    H140626   5.554   7.260   1.034  0.1348 -0.3951  0.2404
13561TIP3    H240627   5.435   7.185   0.978  1.2838 -1.1475 -1.2451
13562TIP3   OH240628   8.164   7.695   1.972  0.4215 -0.0563 -0.0360
13562TIP3    H140629   8.214   7.776   1.973 -0.0801  0.2695 -0.6523
13562TIP3    H240630   8.158   7.672   1.879 -1.0177  0.2113 -0.0285
13563TIP3   OH240631   8.377   4.953   2.625  0.0559 -0.0861  0.3860
13563TIP3    H140632   8.392   4.950   2.720 -0.3834  2.1390  0.5566
13563TIP3    H240633   8.458   4.920   2.587  0.4788 -0.4004  1.5227
13564TIP3   OH240634   8.447   1.321   6.888  0.0213 -0.0537 -0.2630
13564TIP3    H140635   8.449   1.307   6.983 -3.2387 -0.4472 -0.1904
13564TIP3    H240636   8.450   1.233   6.851  0.8649  0.0823 -0.5309
13565TIP3   OH240637   7.510   7.852   1.250  0.5056 -0.1383 -0.0889
13565TIP3    H140638   7.442   7.891   1.195 -1.2557 -0.5287  1.7500
13565TIP3    H240639   7.487   7.760   1.255  1.1326 -0.2628  0.6140
13566TIP3   OH240640   7.986   5.875   3.106  0.0819  0.1865  0.2697
13566TIP3    H140641   7.967   5.895   3.015 -0.8031  0.0123  0.4154
13566TIP3    H240642   8.075   5.840   3.104  0.1565  0.4006 -0.4906
13567TIP3   OH240643   8.304   4.221   6.636 -0.1683  0.3624 -0.4654
13567TIP3    H140644   8.312   4.217   6.731 -0.4983 -2.2525 -0.5189
13567TIP3    H240645   8.377   4.277   6.609  0.1829  0.7950  1.2926
13568TIP3   OH240646   3.547   2.222   5.874 -0.1368 -0.1390  0.1220
13568TIP3    H140647   3.540   2.127   5.869  0.9390 -0.2176 -0.0819
13568TIP3    H240648   3.457   2.254   5.872 -0.4525 -1.1019 -1.0613
13569TIP3   OH240649   1.624   6.271   0.019 -0.2767  0.0479 -0.7098
13569TIP3    H140650   1.590   6.266   0.109 -0.3336  1.2385 -0.6562
13569TIP3    H240651   1.706   6.319   0.028  1.3160 -2.5241 -0.8870
13570TIP3   OH240652   6.811   6.031   0.382 -0.7654  0.3364 -0.1320
13570TIP3    H140653   6.842   6.044   0.292 -3.0008 -0.8119 -1.1020
13570TIP3    H240654   6.752   6.104   0.398 -0.2905  0.5943  0.4479
13571TIP3   OH240655   2.612   1.147   3.098 -0.0506  0.2303  0.3171
13571TIP3    H140656   2.630   1.089   3.024 -3.0379  1.0675 -1.1114
13571TIP3    H240657   2.586   1.087   3.169 -0.0456 -0.3777 -0.1885
13572TIP3   OH240658   8.234   6.516   2.904  0.7937 -0.1474 -0.1808
13572TIP3    H140659   8.229   6.495   2.997  0.0897  1.0778  0.0632
13572TIP3    H240660   8.249   6.432   2.861 -2.4550 -1.2365  0.7193
13573TIP3   OH240661   7.980   6.870   0.330 -0.0013 -0.0838 -0.0492
13573TIP3    H140662   7.903   6.925   0.343  1.0159  0.8321  2.2334
13573TIP3    H240663   8.054   6.930   0.333  1.0430 -1.4129  1.3454
13574TIP3   OH240664   7.864   6.702   2.744  0.2097 -0.2847 -0.2061
13574TIP3    H140665   7.800   6.632   2.731 -0.8354  0.1097  2.4966
13574TIP3    H240666   7.948   6.661   2.722 -0.4749 -2.1630  0.5336
13575TIP3   OH240667   0.496   0.125   2.660 -0.5123  0.0892 -0.2040
13575TIP3    H140668   0.518   0.093   2.747 -0.0017  1.5567  0.2067
13575TIP3    H240669   0.580   0.143   2.619 -0.7187 -1.2521 -1.2682
13576TIP3   OH240670   0.400   7.810   0.830  0.3900 -0.3850  0.2899
13576TIP3    H140671   0.401   7.801   0.925 -1.3120  0.7381  0.4272
13576TIP3    H240672   0.371   7.899   0.814 -1.0242 -1.0909 -1.2937
13577TIP3   OH240673   1.342   0.289   0.929 -0.0334 -0.1757  0.9745
13577TIP3    H140674   1.331   0.277   1.023  0.0989 -1.9377  0.7721
13577TIP3    H240675   1.253   0.295   0.895 -0.0981 -0.5572  1.0798
13578TIP3   OH240676   3.482  -0.003   0.994 -0.0074 -0.6248 -0.0928
13578TIP3    H140677   3.442  -0.068   1.052  1.5122  0.1651  1.9230
13578TIP3    H240678   3.468   0.080   1.039  0.5102  0.1035 -1.2710
13579TIP3   OH240679   2.404   0.410   2.103 -0.3268  0.1780  0.6671
13579TIP3    H140680   2.417   0.492   2.056  0.7530 -0.5813 -0.3879
13579TIP3    H240681   2.458   0.418   2.181 -0.2137  0.4696  0.5585
13580TIP3   OH240682   1.285   2.318   2.735  0.3446  0.0303 -0.4385
13580TIP3    H140683   1.228   2.275   2.799 -0.4460  1.2464 -0.3050
13580TIP3    H240684   1.371   2.320   2.777 -0.1506  0.7427  0.5809
13581TIP3   OH240685   7.121   6.073   2.956  0.2157 -0.6292  0.6163
13581TIP3    H140686   7.180   6.069   2.881  0.2654  1.3222  0.5325
13581TIP3    H240687   7.151   6.003   3.014  0.6259 -1.6872 -0.8356
13582TIP3   OH240688   3.799   4.374   6.556 -0.3693 -0.0148 -0.2390
13582TIP3    H140689   3.754   4.306   6.605  0.1549  0.8427  1.4635
13582TIP3    H240690   3.772   4.456   6.596  0.4489  0.6833 -1.0640
13583TIP3   OH240691   1.780   6.063   0.923 -0.9125  0.1852 -0.1788
13583TIP3    H140692   1.801   6.055   0.830 -1.6411  2.8646 -0.6142
13583TIP3    H240693   1.748   5.976   0.947  1.0101 -1.0767 -1.9576
13584TIP3   OH240694   6.585   4.737   6.807  0.2070 -0.2725 -0.4077
13584TIP3    H140695   6.579   4.739   6.903 -0.2402 -1.0467 -0.4153
13584TIP3    H240696   6.552   4.650   6.783  0.8986 -0.3066 -1.2255
13585TIP3   OH240697   4.727   2.653   6.692 -0.1929  0.2921 -0.3362
13585TIP3    H140698   4.753   2.745   6.690 -0.5266  0.4613  2.0181
13585TIP3    H240699   4.686   2.641   6.778 -1.9703 -1.5626 -1.3894
13586TIP3   OH240700   7.833   0.456   0.950  0.2060  0.1628  0.4930
13586TIP3    H140701   7.866   0.383   0.898 -0.2377  1.2301 -1.3471
13586TIP3    H240702   7.908   0.488   0.999  1.1660  0.5632 -1.2229
13587TIP3   OH240703   7.898   4.740   0.334 -0.0973  0.2750  0.1312
13587TIP3    H140704   7.986   4.777   0.338  0.3801 -0.7739 -0.3724
13587TIP3    H240705   7.855   4.788   0.263 -0.3800  1.6842  1.2210
13588TIP3   OH240706   3.399   3.363   6.529  0.3055 -0.2226  0.3169
13588TIP3    H140707   3.437   3.422   6.594  1.1150  0.7630 -1.0243
13588TIP3    H240708   3.336   3.418   6.482  1.1806 -0.3601 -1.0462
13589TIP3   OH240709   0.563   6.970   2.297  0.2396 -0.4566 -0.1247
13589TIP3    H140710   0.551   7.064   2.283  2.2513 -0.2536 -0.6624
13589TIP3    H240711   0.475   6.933   2.291 -0.5882  1.4021  0.1888
13590TIP3   OH240712   5.117   0.819   6.824 -0.6789  0.0064  0.0182
13590TIP3    H140713   5.152   0.735   6.854  0.0637  0.0271 -0.7633
13590TIP3    H240714   5.136   0.821   6.730 -2.5903  0.1345 -0.3857
13591TIP3   OH240715   0.883   7.303   1.698 -0.5554  0.0292 -0.3511
13591TIP3    H140716   0.891   7.318   1.604  3.0138 -0.4698 -0.1637
13591TIP3    H240717   0.900   7.210   1.710  1.6150  0.5733  1.0359
13592TIP3   OH240718   7.876   7.132   2.138 -0.5409 -0.4650  0.2031
13592TIP3    H140719   7.924   7.088   2.068  1.6141  0.8697  0.7947
13592TIP3    H240720   7.855   7.219   2.103 -1.0149 -0.4226  0.5775
13593TIP3   OH240721   8.182   6.239   1.433  0.4585  0.1900  0.3363
13593TIP3    H140722   8.173   6.190   1.515  0.6527  1.0716  0.8917
13593TIP3    H240723   8.248   6.191   1.384  0.0467 -0.5773  0.5172
13594TIP3   OH240724   2.453   0.313   1.790 -0.0271 -0.1305  0.1590
13594TIP3    H140725   2.427   0.404   1.779  0.0893 -0.0748  0.3388
13594TIP3    H240726   2.405   0.284   1.867  0.3863 -0.0473  0.4511
13595TIP3   OH240727   4.851   2.071   6.033  0.2371 -0.1158 -0.1682
13595TIP3    H140728   4.785   2.002   6.033 -1.1258  1.1395  1.8127
13595TIP3    H240729   4.807   2.147   6.070  1.9544  1.6114 -1.5196
13596TIP3   OH240730   7.635   7.540   0.793 -0.0454  0.9480 -0.1189
13596TIP3    H140731   7.629   7.626   0.834 -1.2008  1.3164 -1.0239
13596TIP3    H240732   7.576   7.545   0.718  1.1728 -0.0726 -1.1803
13597TIP3   OH240733   8.266   6.946   1.442  0.7288  0.8917  0.4265
13597TIP3    H140734   8.198   6.904   1.495  0.8464  0.7085  0.4368
13597TIP3    H240735   8.284   7.029   1.486 -0.4757  1.5793 -0.3603
13598TIP3   OH240736   4.089   6.854   2.185 -0.3564 -0.0294  0.0247
13598TIP3    H140737   4.025   6.828   2.251  0.2728 -0.4208  0.4956
13598TIP3    H240738   4.166   6.881   2.237 -0.4581  1.2957 -0.4937
13599TIP3   OH240739   0.614   4.380   5.869  0.3245 -0.6288  0.1319
13599TIP3    H140740   0.693   4.382   5.815  0.7809 -2.0613  0.7295
13599TIP3    H240741   0.569   4.462   5.848  1.4061 -0.3159 -1.0468
13600TIP3   OH240742   3.390   1.209   0.183 -0.3481  0.3637 -0.9620
13600TIP3    H140743   3.380   1.133   0.239 -1.5281  2.2400  1.4668
13600TIP3    H240744   3.395   1.173   0.094 -1.6614 -2.4716  0.0461
13601TIP3   OH240745   8.217   3.556   6.692  0.4223 -0.1292 -0.0349
13601TIP3    H140746   8.171   3.488   6.741  0.6761 -1.1411 -1.1685
13601TIP3    H240747   8.151   3.624   6.677 -0.5898 -1.3418 -1.2297
13602TIP3   OH240748   2.161   7.033   0.287 -0.1041 -0.6498 -0.1336
13602TIP3    H140749   2.201   7.109   0.246  1.0752 -0.8419  0.6158
13602TIP3    H240750   2.229   6.965   0.283 -0.8802 -1.4424 -0.1544
13603TIP3   OH240751   4.954   0.039   0.850  0.2740  0.3283  0.0841
13603TIP3    H140752   4.953  -0.053   0.877  0.8381  0.1957 -0.3382
13603TIP3    H240753   4.909   0.085   0.921 -1.1485 -0.4307 -0.2987
13604TIP3   OH240754   6.660   2.882   6.844 -0.8508 -0.0391  0.8412
13604TIP3    H140755   6.726   2.828   6.801 -1.4940  1.1712 -1.7424
13604TIP3    H240756   6.608   2.820   6.896  1.8178 -1.1042  2.3466
13605TIP3   OH240757   6.245   3.446   6.919  0.0159 -0.2513  0.2619
13605TIP3    H140758   6.315   3.413   6.975  0.8483 -0.6532 -1.0121
13605TIP3    H240759   6.287   3.467   6.836 -0.8091  2.4196  0.4696
13606TIP3   OH240760   7.183   3.618   5.491 -0.5498  0.0736  0.2074
13606TIP3    H140761   7.267   3.592   5.529 -0.5633  0.8432  0.7984
13606TIP3    H240762   7.174   3.710   5.517 -2.5052 -0.5617  1.8831
13607TIP3   OH240763   2.624   7.833   1.503  0.2129  0.8496 -0.2762
13607TIP3    H140764   2.638   7.836   1.408 -1.5162 -0.5267 -0.6079
13607TIP3    H240765   2.529   7.825   1.512  0.4699 -0.2789  1.5425
13608TIP3   OH240766   3.031   6.574   0.267  0.1772 -0.2056  0.1661
13608TIP3    H140767   2.968   6.504   0.287 -1.0536  0.7902 -0.1425
13608TIP3    H240768   3.116   6.535   0.284 -0.4428 -2.1206 -0.9454
13609TIP3   OH240769   3.901   1.243   0.217  0.2518  0.3102  0.1078
13609TIP3    H140770   3.859   1.201   0.292  0.6236 -1.8550 -0.8383
13609TIP3    H240771   3.863   1.331   0.214 -1.5601 -0.3978  1.3962
13610TIP3   OH240772   1.026   5.433   1.079  0.3205 -0.3953 -0.3769
13610TIP3    H140773   0.951   5.436   1.139  0.9037  1.3063  0.2799
13610TIP3    H240774   0.986   5.426   0.992 -0.6339  0.9599 -0.0617
13611TIP3   OH240775   3.299   6.079   4.167 -0.2810 -0.5500  0.7467
13611TIP3    H140776   3.278   6.070   4.074 -0.5398 -1.4291  0.8893
13611TIP3    H240777   3.215   6.096   4.209  0.0260  1.2840  0.6468
13612TIP3   OH240778   7.405   2.661   6.716 -0.2217  0.5318 -0.7016
13612TIP3    H140779   7.426   2.572   6.689  0.2569  0.0826  1.0887
13612TIP3    H240780   7.487   2.709   6.710 -0.2348  0.5675 -0.6166
13613TIP3   OH240781   1.429   7.521   0.028 -0.7815 -0.0690 -0.3125
13613TIP3    H140782   1.464   7.599   0.071 -0.6363 -1.0219  1.3361
13613TIP3    H240783   1.506   7.471   0.002 -0.8273  1.3124 -3.2835
13614TIP3   OH240784   7.893   2.562   5.998 -0.4176 -0.4466 -0.6379
13614TIP3    H140785   7.809   2.545   6.040  0.0310  0.3425  0.6133
13614TIP3    H240786   7.889   2.655   5.974  0.6216 -0.0447  0.6821
13615TIP3   OH240787   4.722   1.817   0.630  0.1226 -0.0332 -0.2757
13615TIP3    H140788   4.815   1.839   0.635  0.3132 -1.0630  0.9531
13615TIP3    H240789   4.694   1.809   0.721 -1.3229  0.8551 -0.6189
13616TIP3   OH240790   5.959   3.656   6.510 -0.7750 -0.4516  0.1489
13616TIP3    H140791   5.922   3.713   6.443 -3.0803 -0.9722  0.9255
13616TIP3    H240792   5.970   3.714   6.586 -1.0961 -0.5511  0.2732
13617TIP3   OH240793   2.785   7.574   1.197 -0.0026  0.1455 -0.1912
13617TIP3    H140794   2.697   7.537   1.209 -0.6958  1.9041  0.3139
13617TIP3    H240795   2.796   7.633   1.271  1.7868 -0.3565 -0.0436
13618TIP3   OH240796   4.087   1.133   1.241  0.2101  0.1523  0.3727
13618TIP3    H140797   4.034   1.213   1.243  1.1501  0.8458 -1.3504
13618TIP3    H240798   4.049   1.077   1.308 -2.1440  0.9941 -0.2358
13619TIP3   OH240799   2.410   7.923   0.441 -0.3742 -0.3984  0.1985
13619TIP3    H140800   2.428   7.838   0.401 -0.9675 -0.4391  0.0162
13619TIP3    H240801   2.415   7.907   0.536 -0.2901 -0.5901  0.1611
13620TIP3   OH240802   6.442   0.029   2.051 -0.1540 -0.5255 -0.1015
13620TIP3    H140803   6.444  -0.009   2.139 -0.9942 -0.9388 -0.2572
13620TIP3    H240804   6.511   0.095   2.052 -1.1888  0.5807  1.3791
13621TIP3   OH240805   7.697   3.349   6.814  0.6316 -0.1244 -0.8204
13621TIP3    H140806   7.766   3.392   6.763  1.2095  1.0229  0.8709
13621TIP3    H240807   7.734   3.264   6.838  2.1429  1.0862  1.3910
13622TIP3   OH240808   3.581   0.132   0.106 -0.3042  0.3776  0.2328
13622TIP3    H140809   3.601   0.038   0.106 -0.5237  0.3296  0.6786
13622TIP3    H240810   3.600   0.160   0.195 -0.4491  0.7145  0.1575
13623TIP3   OH240811   6.297   3.972   6.197  0.2533  0.7966 -0.0568
13623TIP3    H140812   6.254   3.904   6.250  0.0501  1.6824  0.9399
13623TIP3    H240813   6.371   4.001   6.251 -0.3676  2.1993  0.0651
13624TIP3   OH240814   6.537   3.138   4.702 -0.0796 -0.3325 -0.0461
13624TIP3    H140815   6.520   3.048   4.730  0.9075 -0.0071  1.6819
13624TIP3    H240816   6.573   3.129   4.614  0.2823 -1.6420  0.2204
13625TIP3   OH240817   7.004   4.675   5.100 -0.0692  0.1646  0.2576
13625TIP3    H140818   6.936   4.726   5.143 -0.9979 -1.3991  0.6961
13625TIP3    H240819   6.957   4.601   5.060  1.1594 -0.0373 -0.8404
13626TIP3   OH240820   4.330   0.094   0.516  0.0864  1.1404  0.2332
13626TIP3    H140821   4.266   0.162   0.496  2.0599  2.5425 -1.5502
13626TIP3    H240822   4.324   0.033   0.442 -0.5794  0.1995  1.0536
13627TIP3   OH240823   0.036   5.938   0.622  0.3312 -0.3248  0.2756
13627TIP3    H140824   0.030   6.012   0.682  1.3002 -0.4638  0.5559
13627TIP3    H240825   0.053   5.863   0.679  1.3303 -0.4491 -0.1701
13628TIP3   OH240826   5.242   3.084   6.464  0.6060 -0.1870 -0.2636
13628TIP3    H140827   5.268   3.010   6.520  1.9212  0.4896  0.0305
13628TIP3    H240828   5.169   3.125   6.511  1.0507 -0.2188  0.4623
13629TIP3   OH240829   0.443   7.263   0.160 -0.2653 -0.6639 -0.4052
13629TIP3    H140830   0.494   7.282   0.081  3.2079  1.0859  2.1260
13629TIP3    H240831   0.483   7.184   0.196 -0.7248 -0.4781  0.5292
13630TIP3   OH240832   7.164   3.888   5.583 -0.1810 -0.3248  0.5676
13630TIP3    H140833   7.150   3.978   5.552  0.8530 -0.6548 -0.9304
13630TIP3    H240834   7.227   3.897   5.655  3.6605 -0.1948 -2.6169
13631TIP3   OH240835   1.062   7.915   1.758 -0.0816  0.8445 -0.1119
13631TIP3    H140836   1.066   7.834   1.809  1.9379  2.1741  1.9619
13631TIP3    H240837   1.060   7.886   1.667 -1.0407 -1.5558  0.6396
13632TIP3   OH240838   0.719   2.412   6.353 -0.4772  0.5266  0.1951
13632TIP3    H140839   0.752   2.348   6.290 -0.0692  1.8754 -0.9885
13632TIP3    H240840   0.665   2.360   6.413 -0.6917 -0.8272 -1.1171
13633TIP3   OH240841   0.113   3.371   6.183  0.0102  0.1316 -0.3183
13633TIP3    H140842   0.103   3.276   6.193 -3.1807  0.1615 -2.4654
13633TIP3    H240843   0.123   3.384   6.089  0.2839  1.9277 -0.0480
13634TIP3   OH240844   6.356   3.154   4.330 -0.4168  0.2179  0.5241
13634TIP3    H140845   6.298   3.089   4.371  0.9011 -0.3148  1.5785
13634TIP3    H240846   6.307   3.237   4.337 -0.3841  0.0664  2.8538
13635TIP3   OH240847   5.292   3.623   6.295 -0.1799  0.1229 -0.2868
13635TIP3    H140848   5.264   3.565   6.366  1.8701 -0.8451 -0.2256
13635TIP3    H240849   5.285   3.711   6.332 -0.6898 -0.2679  0.5681
13636TIP3   OH240850   2.754   1.695   1.946  0.1642 -0.1414 -0.1309
13636TIP3    H140851   2.666   1.732   1.936 -0.6930 -2.3797 -1.1382
13636TIP3    H240852   2.784   1.728   2.030 -2.2578 -0.5553  0.9497
13637TIP3   OH240853   3.708   0.241   0.370 -0.2299 -0.2822  0.1523
13637TIP3    H140854   3.774   0.171   0.375 -0.1160 -0.1937 -0.1005
13637TIP3    H240855   3.656   0.230   0.450  0.2906 -0.1501  0.5137
13638TIP3   OH240856   4.462   0.052   1.775  0.3618 -0.2614 -0.3576
13638TIP3    H140857   4.417   0.001   1.708 -0.0376  1.4238 -1.4085
13638TIP3    H240858   4.398   0.057   1.847  0.3795 -1.1696 -0.2740
13639TIP3   OH240859   3.875   0.077   1.064  0.6615  0.2425 -0.1388
13639TIP3    H140860   3.873   0.026   1.145  0.1027  0.2951 -0.1124
13639TIP3    H240861   3.936   0.030   1.007  0.5926 -0.1371  0.0957
13640TIP3   OH240862   3.571   0.428   0.219 -0.0695 -0.1069  0.8594
13640TIP3    H140863   3.484   0.434   0.258 -0.9300  1.5758 -1.1328
13640TIP3    H240864   3.618   0.365   0.272 -2.0594  0.0168  2.8407
13641TIP3   OH240865   2.429   2.240   2.148 -0.3223 -0.3074  0.5569
13641TIP3    H140866   2.448   2.150   2.175 -0.8619 -0.4666  0.4137
13641TIP3    H240867   2.421   2.288   2.231 -0.1482 -0.4160  0.6364
13642TIP3   OH240868   3.108   2.662   0.319  0.3689 -0.7150 -0.0983
13642TIP3    H140869   3.157   2.664   0.237  1.0203  0.2279  0.2971
13642TIP3    H240870   3.081   2.571   0.329 -0.1049 -0.7509 -1.5853
13643TIP3   OH240871   2.806   5.697   1.959  0.7207 -0.4079  0.2637
13643TIP3    H140872   2.774   5.687   1.870 -0.8706 -0.2486  0.8095
13643TIP3    H240873   2.786   5.788   1.982  2.4704 -0.0030  0.2708
13644TIP3   OH240874   0.355   6.910   0.053 -0.5208 -0.3877  0.2991
13644TIP3    H140875   0.270   6.884   0.088 -0.8654  2.5101  1.7268
13644TIP3    H240876   0.336   6.980  -0.009  0.9297  1.4704  1.8952
13645TIP3   OH240877   2.349   5.419   0.461 -0.5897 -0.0638  0.2906
13645TIP3    H140878   2.440   5.429   0.486 -0.3237 -1.8632  0.1126
13645TIP3    H240879   2.304   5.493   0.502  1.3225  2.2435 -1.6814
13646TIP3   OH240880   1.185   7.852   0.204 -0.4341  0.3911 -0.4771
13646TIP3    H140881   1.171   7.834   0.111  2.2374 -0.8366 -0.6732
13646TIP3    H240882   1.114   7.804   0.248  0.0247 -1.4873 -1.7083
13647TIP3   OH240883   0.831   2.968   6.659  0.0845  0.0656 -0.7225
13647TIP3    H140884   0.818   2.878   6.629  1.3145 -0.4121  0.1745
13647TIP3    H240885   0.836   2.961   6.754 -2.1948  1.3871 -0.4650
13648TIP3   OH240886   7.552   3.477   5.914 -0.2367  0.3641  0.0514
13648TIP3    H140887   7.569   3.399   5.862 -1.0731  0.1386  0.1162
13648TIP3    H240888   7.634   3.527   5.910 -0.0942  0.0520 -0.9693
13649TIP3   OH240889   5.373   0.686   1.769 -0.5212  0.0582  0.1353
13649TIP3    H140890   5.312   0.743   1.722  0.5853  1.8268  0.7720
13649TIP3    H240891   5.407   0.741   1.840 -1.7409 -2.3920  2.7034
13650TIP3   OH240892   7.001   1.495   6.046 -0.4966 -0.1635 -0.4106
13650TIP3    H140893   7.095   1.496   6.063 -0.6976 -1.4053  0.8391
13650TIP3    H240894   6.993   1.523   5.955  1.0160  0.8226 -0.2552
13651TIP3   OH240895   6.937   3.019   6.511 -0.3065 -0.1554 -0.2633
13651TIP3    H140896   6.891   3.052   6.588  0.7777 -0.2646  0.4411
13651TIP3    H240897   6.898   3.067   6.437  0.3184  1.7178  0.6048
13652TIP3   OH240898   1.464   5.478   0.838  0.1822  0.5867 -0.0164
13652TIP3    H140899   1.395   5.429   0.794 -0.0513  0.1303  0.8377
13652TIP3    H240900   1.420   5.522   0.911  0.8052  0.1464  0.6430
13653TIP3   OH240901   7.072   3.685   5.254  0.0059  0.0296  0.8961
13653TIP3    H140902   7.009   3.756   5.254  0.3272  0.3731 -1.8485
13653TIP3    H240903   7.111   3.687   5.341 -2.5208  0.9046  2.0308
13654TIP3   OH240904   3.780   5.922   0.419  0.4075 -0.1027 -0.2533
13654TIP3    H140905   3.799   5.977   0.344 -1.3719 -0.6376 -1.1234
13654TIP3    H240906   3.849   5.943   0.482  0.1831  2.5757 -0.8319
13655TIP3   OH240907   5.847   3.324   5.714  0.1456 -0.5738 -0.5140
13655TIP3    H140908   5.755   3.298   5.712 -0.1501  0.4311 -0.2779
13655TIP3    H240909   5.857   3.380   5.638  0.8756 -1.6666 -1.2380
13656TIP3   OH240910   2.863   7.460   1.633  0.0739 -0.6277 -0.0186
13656TIP3    H140911   2.829   7.492   1.716 -0.4119 -1.7237  0.2185
13656TIP3    H240912   2.814   7.509   1.567 -0.9775 -1.1813  0.3373
13657TIP3   OH240913   2.980   6.142   0.150  0.0316  0.9047  0.6507
13657TIP3    H140914   2.898   6.161   0.104  0.5068 -0.1709 -0.6828
13657TIP3    H240915   2.964   6.058   0.192  0.2549  0.9647  0.8520
13658TIP3   OH240916   4.917   1.058   1.343  0.2098 -0.6739 -0.0983
13658TIP3    H140917   4.935   0.996   1.413  0.4331 -0.7922 -0.2605
13658TIP3    H240918   4.822   1.069   1.345  0.2420 -0.4795  0.3897
13659TIP3   OH240919   2.571   7.215   0.245  0.2013  0.0406  0.4516
13659TIP3    H140920   2.625   7.162   0.304 -0.1149 -1.6767 -0.8010
13659TIP3    H240921   2.562   7.163   0.166 -3.5830  0.1551  0.7321
13660TIP3   OH240922   5.252   2.363   6.289  0.0086 -0.4028 -0.4881
13660TIP3    H140923   5.246   2.270   6.308 -1.1770 -0.1597  0.3741
13660TIP3    H240924   5.166   2.386   6.253  0.2232  0.3895 -0.5162
13661TIP3   OH240925   7.491   2.463   5.787 -0.7527 -0.0620  0.3373
13661TIP3    H140926   7.521   2.478   5.876  0.0315 -1.7629  0.3680
13661TIP3    H240927   7.492   2.368   5.776  0.3683  0.1782 -1.8996
13662TIP3   OH240928   6.597   1.554   4.431 -0.3839 -0.3410 -0.6370
13662TIP3    H140929   6.512   1.516   4.410 -1.3667  1.7621 -0.6667
13662TIP3    H240930   6.575   1.633   4.480  1.5629  0.1886 -0.6077
13663TIP3   OH240931   3.593   0.578   2.290 -0.6833 -0.1567  0.0103
13663TIP3    H140932   3.603   0.666   2.254 -2.0617 -0.1392 -0.3526
13663TIP3    H240933   3.588   0.591   2.384  1.4422 -0.0633  0.1187
13664TIP3   OH240934   7.492   1.967   6.842 -0.0506  0.0462  0.3093
13664TIP3    H140935   7.447   2.025   6.780 -1.1576 -1.2685 -0.1587
13664TIP3    H240936   7.461   1.879   6.818  0.2486 -0.5597  2.1139
13665TIP3   OH240937   1.732   5.401   0.279 -0.5615 -0.2476 -0.1616
13665TIP3    H140938   1.694   5.449   0.353  1.5612  0.4577  0.4936
13665TIP3    H240939   1.695   5.313   0.287 -0.5683 -0.1010  1.5801
13666TIP3   OH240940   5.938   2.520   3.503 -0.3051  0.7497  0.5697
13666TIP3    H140941   5.914   2.569   3.425  0.0804  0.5377  0.3191
13666TIP3    H240942   5.874   2.449   3.509 -0.1999  0.6346  0.3219
13667TIP3   OH240943   0.535   6.156   1.594 -0.7212  0.3144  0.2660
13667TIP3    H140944   0.527   6.203   1.677  0.1137  0.6435  0.1593
13667TIP3    H240945   0.445   6.145   1.564 -0.9641  1.0953  0.7108
13668TIP3   OH240946   8.460   4.662   6.171 -0.0303 -0.3086  0.7401
13668TIP3    H140947   8.472   4.654   6.076 -0.4961 -1.5218  0.7802
13668TIP3    H240948   8.536   4.713   6.200 -0.7922  1.5890 -0.5029
13669TIP3   OH240949   7.091   4.291   4.742 -0.0461  0.4870 -0.5416
13669TIP3    H140950   7.025   4.281   4.674 -0.0588 -1.0852 -0.3211
13669TIP3    H240951   7.162   4.340   4.701  0.1025 -0.7633 -1.7880
13670TIP3   OH240952   4.710   0.599   1.060  0.5749 -0.6586  0.1166
13670TIP3    H140953   4.639   0.663   1.054  2.4899  1.6510  1.1913
13670TIP3    H240954   4.696   0.554   1.143 -0.2150 -0.9590 -0.1750
13671TIP3   OH240955   5.567   1.483   0.203  0.3788  0.3473 -0.1186
13671TIP3    H140956   5.659   1.502   0.189  0.6354 -2.2830 -2.3174
13671TIP3    H240957   5.524   1.504   0.120 -0.3328 -2.1984 -0.4417
13672TIP3   OH240958   7.505   5.911   0.506 -0.1506 -0.7653 -0.3799
13672TIP3    H140959   7.561   5.834   0.499 -1.1012 -1.5458  0.3593
13672TIP3    H240960   7.416   5.875   0.509 -0.6391  0.4075 -0.7769
13673TIP3   OH240961   6.697   2.845   6.078  0.6288  0.1476  0.4326
13673TIP3    H140962   6.641   2.868   6.003  0.0952 -0.9818  0.4730
13673TIP3    H240963   6.667   2.903   6.149 -0.0936 -0.0461  0.2888
13674TIP3   OH240964   1.188   7.150   0.042 -0.1283 -0.0614  0.3375
13674TIP3    H140965   1.215   7.199  -0.036 -0.4649  0.8181  0.7701
13674TIP3    H240966   1.236   7.067   0.036  1.1374  0.6710  0.0480
13675TIP3   OH240967   5.837   0.292   1.199 -0.2066  0.7383  0.7069
13675TIP3    H140968   5.755   0.277   1.153  1.1044 -3.3688 -0.5078
13675TIP3    H240969   5.819   0.270   1.290 -0.8139  1.3392  0.7350
13676TIP3   OH240970   6.939   3.733   5.918 -0.2434 -0.0670 -0.1177
13676TIP3    H140971   6.976   3.652   5.953 -0.0275 -0.0843 -0.3878
13676TIP3    H240972   6.845   3.727   5.939 -0.3662 -0.7650 -0.8656
13677TIP3   OH240973   7.814   2.924   3.518  0.3146  0.1571 -0.0946
13677TIP3    H140974   7.876   2.991   3.548 -0.0319 -0.5881  2.4859
13677TIP3    H240975   7.737   2.972   3.491 -0.2987  0.8352  2.6515
13678TIP3   OH240976   4.366   1.156   0.890  0.5147 -0.5434  0.5907
13678TIP3    H140977   4.347   1.161   0.796 -1.0230  0.7024  0.9439
13678TIP3    H240978   4.342   1.066   0.914  0.9895 -0.8887 -0.2176
13679TIP3   OH240979   3.522   1.389   1.937  0.3520  0.5942 -0.1715
13679TIP3    H140980   3.509   1.323   1.869  1.7310  2.1114 -1.9330
13679TIP3    H240981   3.617   1.399   1.943  0.1503  2.6545 -0.1593
13680TIP3   OH240982   6.726   1.360   0.098 -0.3547  0.2567  0.5596
13680TIP3    H140983   6.760   1.283   0.053 -0.5663  0.4561  0.0561
13680TIP3    H240984   6.786   1.374   0.171  1.3125  1.2856 -0.9821
13681TIP3   OH240985   5.972   3.448   6.846 -0.3577 -0.2884  0.1969
13681TIP3    H140986   5.920   3.416   6.920  0.3591  0.6090  1.1075
13681TIP3    H240987   6.062   3.449   6.879 -0.0326  0.1052 -0.6889
13682TIP3   OH240988   6.285   3.965   6.568 -0.1442 -0.2660  0.5884
13682TIP3    H140989   6.256   4.054   6.549 -1.3864 -0.7158  0.3550
13682TIP3    H240990   6.272   3.917   6.486 -0.0861 -0.8186  0.8957
13683TIP3   OH240991   5.206   3.454   6.495 -0.5404 -0.4000 -0.2565
13683TIP3    H140992   5.127   3.424   6.540 -2.0171  1.9102 -1.1921
13683TIP3    H240993   5.272   3.460   6.564 -1.8811  0.0252  1.0043
13684TIP3   OH240994   7.333   7.484   0.105  0.0841 -0.0342  0.8324
13684TIP3    H140995   7.307   7.408   0.157  0.0601 -0.4116  0.2789
13684TIP3    H240996   7.251   7.531   0.089 -0.4686 -1.8404 -1.8862
13685TIP3   OH240997   8.278   4.463   6.393 -0.5665 -0.1562  0.3460
13685TIP3    H140998   8.275   4.545   6.442 -0.2100  0.4599 -0.6531
13685TIP3    H240999   8.192   4.424   6.406 -0.9256  0.6367  0.3864
13686TIP3   OH241000   6.696   6.750   5.529  0.0038 -0.1174  0.1075
13686TIP3    H141001   6.682   6.660   5.558 -1.7384 -0.1006 -0.6125
13686TIP3    H241002   6.615   6.774   5.485  0.6482  1.6338 -0.1789
13687TIP3   OH241003   7.387   2.651   6.036 -0.0049  0.4685  0.3124
13687TIP3    H141004   7.452   2.717   6.058  1.5717 -0.7157 -0.6145
13687TIP3    H241005   7.309   2.700   6.011  1.0235  1.9559 -0.0083
13688TIP3   OH241006   1.973   6.863   0.157 -0.0914  0.1529  0.5890
13688TIP3    H141007   2.051   6.917   0.147 -0.9201  0.8125 -2.5735
13688TIP3    H241008   2.007   6.776   0.178  1.5272  0.3286 -1.1895
13689TIP3   OH241009   5.728   3.852   6.586 -0.0684  0.6725 -0.1027
13689TIP3    H141010   5.761   3.798   6.514  0.9770 -1.5467  1.9905
13689TIP3    H241011   5.801   3.910   6.607 -0.2861  1.1495 -0.6390
13690TIP3   OH241012   6.630   3.019   6.293 -0.5078 -0.4374 -0.1954
13690TIP3    H141013   6.611   3.003   6.385 -0.3914  0.0696 -0.0822
13690TIP3    H241014   6.695   3.090   6.293 -0.7021 -0.2507 -0.6733
13691TIP3   OH241015   6.387   0.719   0.673  0.3957 -0.1918  0.7266
13691TIP3    H141016   6.331   0.641   0.680  1.5463 -0.9414  1.8118
13691TIP3    H241017   6.422   0.714   0.584 -0.6881 -0.1118  0.2894
13692TIP3   OH241018   4.107   4.236   0.430 -0.6324 -0.1762 -0.1064
13692TIP3    H141019   4.160   4.256   0.507 -2.3352 -1.4462  1.4404
13692TIP3    H241020   4.165   4.253   0.356  1.0861  0.9374  1.4444
13693TIP3   OH241021   6.519   4.062   5.260 -0.0799 -0.2722  0.3369
13693TIP3    H141022   6.541   3.997   5.194 -0.9796 -0.4588  0.2094
13693TIP3    H241023   6.500   4.011   5.339 -0.4284 -0.1500  0.3350
13694TIP3   OH241024   7.598   5.734   5.789  0.3051  0.2041 -0.3074
13694TIP3    H141025   7.668   5.713   5.726  0.1382 -2.2671  0.2558
13694TIP3    H241026   7.629   5.698   5.872 -1.2918 -0.2497  0.1091
13695TIP3   OH241027   8.007   2.905   4.778 -0.4534  0.1101  0.3646
13695TIP3    H141028   7.994   2.813   4.801  2.0999 -0.8226 -1.6671
13695TIP3    H241029   7.927   2.929   4.731 -0.6686 -1.4043 -0.0862
13696TIP3   OH241030   7.936   7.514   1.631  0.2650  0.1962  0.0718
13696TIP3    H141031   8.004   7.576   1.657  0.0187  0.9793 -1.0908
13696TIP3    H241032   7.978   7.429   1.634  1.1940  0.6386 -0.3023
13697TIP3   OH241033   0.718   5.249   2.792 -0.2908  0.1043  0.0484
13697TIP3    H141034   0.654   5.277   2.727  0.5807  1.4401 -0.2544
13697TIP3    H241035   0.746   5.163   2.762 -0.1955  0.5343 -1.1279
13698TIP3   OH241036   1.634   7.681   1.468 -0.7478 -0.3980 -0.1278
13698TIP3    H141037   1.553   7.645   1.504 -0.9814  0.3692  0.1116
13698TIP3    H241038   1.703   7.642   1.522 -1.0437  0.0789  0.5931
13699TIP3   OH241039   5.466   1.051   0.674 -0.0492 -0.1473 -0.4992
13699TIP3    H141040   5.401   1.064   0.743  0.1647 -2.1672  0.0917
13699TIP3    H241041   5.550   1.072   0.716  0.0679 -1.2538 -0.1796
13700TIP3   OH241042   7.514   4.727   5.325  0.5363 -0.5060 -0.0191
13700TIP3    H141043   7.438   4.705   5.272 -0.3202 -1.8517  1.7474
13700TIP3    H241044   7.589   4.707   5.268 -0.3766 -1.2968 -0.9603
13701TIP3   OH241045   5.691   3.174   5.998  0.1164  0.0484  0.0827
13701TIP3    H141046   5.786   3.175   5.999  0.1513  0.9888 -1.8326
13701TIP3    H241047   5.665   3.184   6.090  1.8457  0.1667  0.5643
13702TIP3   OH241048   6.052   2.211   4.740  0.4342  0.2879 -0.2007
13702TIP3    H141049   6.074   2.303   4.756  1.0226  0.1883 -0.4414
13702TIP3    H241050   6.113   2.183   4.672  0.7199 -0.4891  0.3679
13703TIP3   OH241051   7.439   3.278   4.886 -0.3000  0.1009 -0.4221
13703TIP3    H141052   7.466   3.198   4.840 -0.3477 -0.8166  1.1191
13703TIP3    H241053   7.363   3.251   4.937  0.0918  0.9654  0.6317
13704TIP3   OH241054   3.804   7.154   0.581  0.4170 -0.2037  0.3700
13704TIP3    H141055   3.767   7.241   0.599 -1.6740 -0.9832  0.0151
13704TIP3    H241056   3.781   7.102   0.657 -2.1056 -1.5607 -1.2474
13705TIP3   OH241057   3.005   7.821   1.591 -0.5311  0.1840  0.4503
13705TIP3    H141058   3.042   7.803   1.677 -2.1272 -2.0089  0.7307
13705TIP3    H241059   2.924   7.869   1.610 -0.3754  0.5721  0.1254
13706TIP3   OH241060   1.905   7.823   1.783 -0.4842 -0.0150  0.5398
13706TIP3    H141061   1.812   7.834   1.804 -0.4619 -1.6307  1.5526
13706TIP3    H241062   1.950   7.841   1.866 -0.0248 -1.0766  0.5211
13707TIP3   OH241063   5.107   5.245   6.892  0.2094  0.0333 -0.5310
13707TIP3    H141064   5.061   5.196   6.960  0.5380  0.3290 -0.0886
13707TIP3    H241065   5.040   5.263   6.826 -0.2796  0.3312  0.0377
13708TIP3   OH241066   7.150   3.528   6.554 -0.2476 -0.0452  0.0215
13708TIP3    H141067   7.158   3.494   6.465 -1.2364  0.4705 -0.2695
13708TIP3    H241068   7.179   3.456   6.610 -3.0937 -1.6938 -0.5343
13709TIP3   OH241069   0.635   6.802   0.699  0.0747 -0.2138  0.9647
13709TIP3    H141070   0.566   6.814   0.634  3.2101  0.5873 -2.4228
13709TIP3    H241071   0.660   6.710   0.692  1.1989  0.1353  0.1195
13710TIP3   OH241072   3.156   1.009   2.037  0.3744 -0.3790 -0.1855
13710TIP3    H141073   3.200   1.087   2.005  0.8121 -0.3843  0.3991
13710TIP3    H241074   3.093   1.041   2.102 -0.1441 -0.4186 -0.6619
13711TIP3   OH241075   1.945   7.639   0.483  0.0459  0.4941  0.1228
13711TIP3    H141076   1.859   7.674   0.461  0.1616  1.5709  1.3406
13711TIP3    H241077   1.970   7.587   0.406 -1.6870  0.1455 -0.2311
13712TIP3   OH241078   3.750   5.220   0.353  0.6503  0.6696 -0.5358
13712TIP3    H141079   3.662   5.224   0.314  1.1293  0.7695 -1.6279
13712TIP3    H241080   3.764   5.307   0.390  0.1137  0.5141  0.0482
13713TIP3   OH241081   4.357   2.254   0.247 -0.2014  0.4518  0.4108
13713TIP3    H141082   4.314   2.190   0.304 -0.3991 -0.0268 -0.2564
13713TIP3    H241083   4.445   2.219   0.234 -0.1176  0.6211  0.5210
13714TIP3   OH241084   2.350   7.954   1.148  0.4664 -0.3493 -0.4217
13714TIP3    H141085   2.303   7.880   1.188  0.4205 -0.1738 -0.1476
13714TIP3    H241086   2.326   8.029   1.202 -1.0831  0.2556 -1.9339
13715TIP3   OH241087   8.456   4.366   4.863  0.8838  1.0097  0.6419
13715TIP3    H141088   8.526   4.423   4.833  0.1707  1.5168 -0.0980
13715TIP3    H241089   8.410   4.417   4.929  1.3341  0.5956  1.2826
13716TIP3   OH241090   7.922   3.520   5.297  0.4568 -0.4137  0.6251
13716TIP3    H141091   7.994   3.581   5.285  1.9037 -2.4339 -1.2059
13716TIP3    H241092   7.963   3.434   5.307 -1.6662 -1.6930 -1.0568
13717TIP3   OH241093   2.775   5.091   0.494  0.1373 -0.2442 -0.0015
13717TIP3    H141094   2.693   5.042   0.482  0.0066 -0.4154  1.5160
13717TIP3    H241095   2.749   5.169   0.542  0.5617  0.6669 -1.2405
13718TIP3   OH241096   6.965   4.235   5.808 -0.3222 -0.0623  0.0919
13718TIP3    H141097   6.962   4.330   5.819 -2.1985 -0.1296  0.2690
13718TIP3    H241098   7.050   4.210   5.842  0.2705  1.5746 -0.1135
13719TIP3   OH241099   1.977   6.230   0.282  0.2284 -0.5352  1.2177
13719TIP3    H141100   2.064   6.244   0.245  0.2523 -2.0371  0.6510
13719TIP3    H241101   1.979   6.272   0.368  0.9781  0.8497  0.5311
13720TIP3   OH241102   4.069   7.326   0.436  0.0104  0.1884  0.0483
13720TIP3    H141103   4.043   7.301   0.348 -2.4626 -1.3958  1.1958
13720TIP3    H241104   4.109   7.247   0.472  0.7566  0.7498  0.4615
13721TIP3   OH241105   2.756   6.846   0.646 -0.0114  0.4523 -0.1111
13721TIP3    H141106   2.754   6.798   0.729 -0.5881  0.6771  0.0059
13721TIP3    H241107   2.673   6.823   0.604  1.1798 -1.3696 -1.5888
13722TIP3   OH241108   1.120   7.138   1.231  0.2813 -0.2188 -0.3463
13722TIP3    H141109   1.074   7.149   1.315  3.4694 -2.2605  1.8034
13722TIP3    H241110   1.168   7.220   1.220 -1.8449  0.9328 -1.3476
13723TIP3   OH241111   2.757   6.985   1.490 -0.2727  0.9860 -0.4432
13723TIP3    H141112   2.739   7.078   1.497 -1.3446  0.9239 -2.0733
13723TIP3    H241113   2.671   6.944   1.482  0.1657 -0.1875  0.6466
13724TIP3   OH241114   3.634   1.775   6.457 -0.1039 -0.2420 -0.2589
13724TIP3    H141115   3.590   1.858   6.439  1.2939  0.6513  0.3740
13724TIP3    H241116   3.674   1.750   6.374 -1.2123 -0.7200 -0.6635
13725TIP3   OH241117   7.536   4.528   5.518 -0.3761  0.5381  0.3297
13725TIP3    H141118   7.509   4.605   5.469 -0.2201  0.4410  0.0891
13725TIP3    H241119   7.557   4.560   5.605 -0.6526  0.7118  0.3320
13726TIP3   OH241120   5.825   2.633   6.941  0.1898  0.5352 -0.5616
13726TIP3    H141121   5.738   2.649   6.906 -0.3036 -2.5302 -0.9168
13726TIP3    H241122   5.867   2.576   6.877  2.4438  1.9163 -0.3649
13727TIP3   OH241123   1.242   7.403   1.265  0.0588  0.2199 -0.0074
13727TIP3    H141124   1.161   7.454   1.258  0.4223  1.0472  1.5912
13727TIP3    H241125   1.253   7.389   1.359  1.1607 -0.8916 -0.3004
13728TIP3   OH241126   6.845   3.205   6.298 -0.2789  0.2892  0.4806
13728TIP3    H141127   6.871   3.217   6.207  1.4327  0.4437  0.9609
13728TIP3    H241128   6.812   3.291   6.325 -0.7660  0.2492  0.0187
13729TIP3   OH241129   0.398   7.888   1.846  0.4527  0.2130 -0.3128
13729TIP3    H141130   0.437   7.923   1.926 -0.5664 -1.5758  0.9852
13729TIP3    H241131   0.318   7.940   1.833 -0.3116 -0.6794  0.8158
13730TIP3   OH241132   7.921   5.321   5.752 -0.3899  0.5514  0.7591
13730TIP3    H141133   7.992   5.298   5.812  0.0309  1.4129  0.6015
13730TIP3    H241134   7.929   5.258   5.681 -0.7615 -0.3470  1.5016
13731TIP3   OH241135   3.221   6.974   0.344  0.0513  0.0149  0.0113
13731TIP3    H141136   3.313   6.946   0.345  0.0539 -0.0583  2.7889
13731TIP3    H241137   3.173   6.899   0.381 -0.8959  0.7263  0.2409
13732TIP3   OH241138   1.845   4.272   6.681  0.3768  0.1056 -0.8214
13732TIP3    H141139   1.883   4.350   6.723  0.5779 -0.6578  0.4161
13732TIP3    H241140   1.751   4.284   6.689  0.3944  0.4393 -1.0542
13733TIP3   OH241141   7.206   0.549   1.535  0.5606  0.3323 -0.2073
13733TIP3    H141142   7.117   0.570   1.564  0.1513 -2.1791  0.4809
13733TIP3    H241143   7.260   0.562   1.613  0.4478 -0.2131 -0.0337
13734TIP3   OH241144   0.298   7.415   2.049  0.0168 -0.0710  0.0135
13734TIP3    H141145   0.368   7.478   2.030  0.1383 -0.2799 -0.2286
13734TIP3    H241146   0.240   7.461   2.110 -0.2595  0.5227 -0.6964
13735TIP3   OH241147   3.386   0.437   0.447 -0.0030  0.2245 -0.1164
13735TIP3    H141148   3.377   0.515   0.503  2.4866  1.0321 -0.7790
13735TIP3    H241149   3.297   0.419   0.417 -0.6213  2.8281  0.0475
13736TIP3   OH241150   3.631   7.549   1.287 -0.5381 -0.7518  0.0605
13736TIP3    H141151   3.539   7.525   1.301 -1.4213  2.0128 -0.7541
13736TIP3    H241152   3.656   7.501   1.209 -1.6108 -0.7476 -0.3024
13737TIP3   OH241153   6.090   3.381   6.483 -0.3769 -0.0661  0.2207
13737TIP3    H141154   6.147   3.371   6.407  0.9586 -0.0806  1.1953
13737TIP3    H241155   6.048   3.466   6.472  1.5796  0.9744  0.6176
13738TIP3   OH241156   1.744   7.013   0.186 -0.4010  0.3477 -0.2000
13738TIP3    H141157   1.742   7.060   0.102 -2.1737 -0.9256 -0.8947
13738TIP3    H241158   1.828   6.967   0.185 -0.4324  0.2982 -1.3159
13739TIP3   OH241159   7.543   5.677   0.963  0.3845  0.5592 -0.2810
13739TIP3    H141160   7.517   5.767   0.981  0.4943  0.5229  0.0697
13739TIP3    H241161   7.512   5.627   1.039  1.2515  0.4747  0.0131
13740TIP3   OH241162   5.962   1.795   6.925 -0.4581  0.0912  0.0992
13740TIP3    H141163   6.032   1.774   6.986 -1.0177 -3.4511 -0.3414
13740TIP3    H241164   5.992   1.759   6.841 -2.2742 -0.4663 -0.3420
13741TIP3   OH241165   0.558   6.623  -0.003  0.0231  0.3031 -0.4077
13741TIP3    H141166   0.470   6.618   0.032  0.8116  2.1652  2.0249
13741TIP3    H241167   0.593   6.534   0.004 -1.5479 -0.3847 -1.1687
13742TIP3   OH241168   8.241   6.306  -0.002  0.2512  0.3141  0.2666
13742TIP3    H141169   8.317   6.293   0.055 -1.4641  1.0220  2.8182
13742TIP3    H241170   8.223   6.220  -0.038  1.8436  0.0016  0.1861
13743TIP3   OH241171   1.424   6.707   0.642 -0.1459  0.5628  0.0056
13743TIP3    H141172   1.338   6.728   0.605 -0.7230  0.0248  0.9981
13743TIP3    H241173   1.448   6.625   0.600 -1.3634 -0.6949  1.6681
13744TIP3   OH241174   7.322   5.865   6.160 -0.0458  0.0577 -0.7206
13744TIP3    H141175   7.409   5.844   6.193 -0.7244  0.1109  1.1213
13744TIP3    H241176   7.338   5.897   6.071  2.0253  1.8873  0.2472
13745TIP3   OH241177   7.460   3.376   6.169 -0.2808  0.7953 -0.7091
13745TIP3    H141178   7.553   3.363   6.184 -0.5852 -1.0244 -0.3523
13745TIP3    H241179   7.456   3.446   6.103  1.4196 -1.4476 -3.2594
13746TIP3   OH241180   4.558   1.684   0.858  0.1121  0.2026  0.0929
13746TIP3    H141181   4.521   1.758   0.905  1.0526  1.4372 -1.0668
13746TIP3    H241182   4.608   1.637   0.925  0.3097  1.1633  0.6372
13747TIP3   OH241183   7.835   1.064   6.347  0.1035 -0.2922  0.1465
13747TIP3    H141184   7.816   0.992   6.287 -0.2410  1.0500 -1.3661
13747TIP3    H241185   7.927   1.085   6.330 -0.0328  0.1794 -0.0066
13748TIP3   OH241186   3.194   6.560   3.546  0.1127 -0.6614 -0.3106
13748TIP3    H141187   3.129   6.591   3.484 -0.0365 -1.6415 -0.6409
13748TIP3    H241188   3.276   6.602   3.518  0.0033 -0.9306 -1.0335
13749TIP3   OH241189   0.087   5.171   6.027 -0.3798  0.3845  0.9164
13749TIP3    H141190  -0.001   5.205   6.044 -0.5352  1.4377 -1.8434
13749TIP3    H241191   0.074   5.096   5.969  0.7176  2.7354 -2.5159
13750TIP3   OH241192   4.279   1.298   0.642  0.3197 -0.1895 -1.0996
13750TIP3    H141193   4.365   1.332   0.666 -0.4072  1.5796 -0.9102
13750TIP3    H241194   4.219   1.370   0.661 -1.0300 -0.9213 -2.4977
13751TIP3   OH241195   6.659   0.813   0.090 -0.2162  0.0906 -0.1596
13751TIP3    H141196   6.696   0.802   0.002  0.7947 -1.7432  0.4795
13751TIP3    H241197   6.615   0.730   0.108  0.7231 -0.0331  1.6121
13752TIP3   OH241198   8.170   0.192   0.503  0.0128  0.1588  1.0936
13752TIP3    H141199   8.258   0.205   0.537  0.8014  1.3011 -1.2525
13752TIP3    H241200   8.159   0.097   0.499  1.5070  0.0019  0.5462
13753TIP3   OH241201   4.205   6.352   1.297 -0.1468 -0.7037  0.5780
13753TIP3    H141202   4.216   6.447   1.306 -0.2249 -0.5006 -1.3001
13753TIP3    H241203   4.174   6.324   1.383 -0.5474  1.0295  1.0279
13754TIP3   OH241204   7.171   2.496   3.248  0.2840  0.0353 -0.1013
13754TIP3    H141205   7.181   2.589   3.271  1.7324 -0.1036 -0.1520
13754TIP3    H241206   7.099   2.466   3.304  0.3584  0.9804  0.5211
13755TIP3   OH241207   8.411   3.320   5.248 -0.1048  0.2693  0.4970
13755TIP3    H141208   8.319   3.337   5.225  0.5477  1.7583 -1.0813
13755TIP3    H241209   8.409   3.305   5.342 -2.2252 -1.4701  0.2272
13756TIP3   OH241210   0.624   3.324   6.353 -0.4298  0.3830 -0.2311
13756TIP3    H141211   0.540   3.339   6.308  0.2073  1.2451 -1.1500
13756TIP3    H241212   0.631   3.395   6.416 -0.5990  0.0527  0.1609
13757TIP3   OH241213   0.933   4.369   6.043  0.1363  0.5972 -0.0436
13757TIP3    H141214   0.914   4.283   6.081 -0.0324  0.2679 -0.8511
13757TIP3    H241215   0.935   4.353   5.948  2.4402  1.0017 -0.1077
13758TIP3   OH241216   2.705   4.153   6.639  0.0126 -0.5440 -0.1315
13758TIP3    H141217   2.717   4.109   6.554 -1.2776  0.1364 -0.6845
13758TIP3    H241218   2.784   4.206   6.650 -0.6903  0.9172 -1.8755
13759TIP3   OH241219   3.125   6.059   0.582  0.1739  0.6032  0.1430
13759TIP3    H141220   3.144   6.038   0.673  0.9598 -1.6551 -0.4934
13759TIP3    H241221   3.091   5.977   0.545  1.2666  1.0475 -1.9424
13760TIP3   OH241222   0.257   3.822   6.732 -0.0480 -0.1280 -0.2756
13760TIP3    H141223   0.294   3.747   6.779 -1.4726 -1.0056 -0.5114
13760TIP3    H241224   0.333   3.877   6.711  1.0043 -1.4133  0.0551
13761TIP3   OH241225   4.050   1.740   1.695  0.1881  0.0511  0.2537
13761TIP3    H141226   4.057   1.766   1.787  1.8960 -1.3297  0.5402
13761TIP3    H241227   3.979   1.794   1.660  1.3787  2.6277  1.6695
13762TIP3   OH241228   6.258   1.258   0.391  0.0334  0.2991 -0.1439
13762TIP3    H141229   6.206   1.337   0.406  1.6211  0.9255  2.2604
13762TIP3    H241230   6.338   1.289   0.348  0.8060  0.0672  1.1056
13763TIP3   OH241231   6.151   0.560   0.747  0.4154  0.4334 -0.4073
13763TIP3    H141232   6.114   0.551   0.660  0.0516 -0.4159 -0.1652
13763TIP3    H241233   6.076   0.560   0.806  0.6602  0.9607 -0.0861
13764TIP3   OH241234   1.411   6.198   0.201 -0.4202 -0.0973  0.1868
13764TIP3    H141235   1.401   6.292   0.220  0.4743  0.3640 -1.4760
13764TIP3    H241236   1.378   6.189   0.112  2.1282 -0.8206 -0.7250
13765TIP3   OH241237   7.551   0.580   1.601 -0.2794 -0.2970  0.3536
13765TIP3    H141238   7.594   0.636   1.536  1.2315  0.0255  1.5970
13765TIP3    H241239   7.606   0.502   1.605 -0.5181 -0.4326  1.0413
13766TIP3   OH241240   0.445   4.585   5.788  0.1370 -0.2587 -0.0847
13766TIP3    H141241   0.457   4.675   5.819 -0.2799  0.4180 -1.8538
13766TIP3    H241242   0.350   4.572   5.792  0.3729 -1.5062  2.5358
13767TIP3   OH241243   0.318   3.070   5.281 -1.2404 -0.7560 -0.2724
13767TIP3    H141244   0.337   3.084   5.189  0.6126 -1.9045 -0.0875
13767TIP3    H241245   0.384   3.122   5.328 -3.0538  0.9752  0.4243
13768TIP3   OH241246   8.096   2.105   6.160  0.1648 -0.1200  0.0317
13768TIP3    H141247   8.001   2.108   6.174  0.0768  1.6115 -0.7672
13768TIP3    H241248   8.105   2.088   6.066  0.6052  1.1918 -0.1810
13769TIP3   OH241249   0.925   5.240   4.785  0.5355 -0.4471  0.5852
13769TIP3    H141250   0.880   5.237   4.869 -0.7102  1.3192  0.0140
13769TIP3    H241251   0.891   5.164   4.737 -0.3871 -0.2354  0.8871
13770TIP3   OH241252   2.843   5.254   3.113  0.2744  0.0020  0.2104
13770TIP3    H141253   2.750   5.268   3.128  0.5221 -0.4429  2.4135
13770TIP3    H241254   2.878   5.342   3.095 -0.2500  0.4436  1.3118
13771TIP3   OH241255   2.367   6.121   1.577 -0.4613  0.0175  0.4251
13771TIP3    H141256   2.309   6.156   1.644 -0.0632 -0.2888  0.9289
13771TIP3    H241257   2.417   6.197   1.547 -2.1711  0.5928 -1.0973
13772TIP3   OH241258   1.170   5.636   5.125 -0.2694 -0.5979 -0.4058
13772TIP3    H141259   1.132   5.684   5.199 -0.1168 -1.3168  0.1436
13772TIP3    H241260   1.189   5.704   5.060 -0.2654  0.0576  0.2702
13773TIP3   OH241261   0.856   6.308   5.289 -0.1130 -0.1899 -0.5895
13773TIP3    H141262   0.943   6.279   5.262  0.6005  2.3459 -1.0647
13773TIP3    H241263   0.829   6.371   5.222 -2.5672 -1.3192 -0.7425
13774TIP3   OH241264   0.311   3.682   6.155  0.0013  0.3664 -0.0579
13774TIP3    H141265   0.305   3.716   6.066  2.2316 -1.2854 -0.8993
13774TIP3    H241266   0.382   3.732   6.196  1.1397 -1.0350 -0.2735
13775TIP3   OH241267   0.505   5.412   5.133  0.7105 -0.1921  0.0185
13775TIP3    H141268   0.443   5.459   5.078 -0.1468  0.6490  1.6520
13775TIP3    H241269   0.463   5.328   5.150  1.0296 -0.4964 -0.7221
13776TIP3   OH241270   6.565   3.924   5.768 -0.0363 -0.6529 -0.3061
13776TIP3    H141271   6.617   3.992   5.724 -1.1250  2.1372  2.5105
13776TIP3    H241272   6.630   3.863   5.802  1.1959  0.6650 -0.2175
13777TIP3   OH241273   6.725   4.210   6.774  0.1858 -0.5146  0.3779
13777TIP3    H141274   6.766   4.218   6.688  0.3047 -1.7715  0.3067
13777TIP3    H241275   6.631   4.218   6.757  0.3568  1.9275  0.4855
13778TIP3   OH241276   7.463   4.198   5.750 -0.4329  0.7398 -0.2086
13778TIP3    H141277   7.475   4.279   5.799 -1.0687  0.9064 -0.3226
13778TIP3    H241278   7.475   4.223   5.658  0.8607  0.4078 -0.1331
13779TIP3   OH241279   8.346   4.705   5.908  0.2691 -0.3598 -0.0700
13779TIP3    H141280   8.307   4.630   5.954  0.9257 -1.1673 -0.8224
13779TIP3    H241281   8.332   4.686   5.815 -0.5211  0.9807 -0.2485
13780TIP3   OH241282   7.632   3.939   6.635  0.4171  0.2986  0.5686
13780TIP3    H141283   7.609   3.982   6.553 -1.2590  0.7403  1.2649
13780TIP3    H241284   7.641   4.011   6.698  1.2227 -0.0783  0.8904
13781TIP3   OH241285   6.718   0.485   1.674 -0.1857 -0.1917  0.1922
13781TIP3    H141286   6.732   0.580   1.683 -0.7930 -0.2425  1.9603
13781TIP3    H241287   6.657   0.464   1.745  1.6074 -2.2528  1.1748
13782TIP3   OH241288   2.258   4.713   6.554  0.1524  0.0080  0.1858
13782TIP3    H141289   2.286   4.696   6.644 -0.0253 -0.5630  0.1341
13782TIP3    H241290   2.246   4.627   6.516 -1.5274  0.2322  0.1589
13783TIP3   OH241291   4.501   7.315   3.033  0.5078  0.3081 -0.5673
13783TIP3    H141292   4.423   7.359   3.068 -0.7320 -2.1861 -0.1369
13783TIP3    H241293   4.556   7.297   3.109  0.2583 -0.3644 -0.5461
13784TIP3   OH241294   2.837   4.804   6.064 -0.0946  0.0808  0.1536
13784TIP3    H141295   2.795   4.890   6.067  0.2216  0.2131  1.1249
13784TIP3    H241296   2.864   4.793   5.973  0.8297  1.4898  0.2318
13785TIP3   OH241297   0.677   2.608   2.612 -0.0662  0.1408  0.3180
13785TIP3    H141298   0.640   2.525   2.584  1.1765  0.1591 -1.5128
13785TIP3    H241299   0.724   2.640   2.535 -0.5980  2.5864  0.9440
13786TIP3   OH241300   0.220   2.756   2.651  0.2800  0.0161 -0.2352
13786TIP3    H141301   0.182   2.790   2.732  0.7546 -0.5748  0.2378
13786TIP3    H241302   0.149   2.706   2.610  0.1474  0.0331 -0.0259
13787TIP3   OH241303   6.204   0.725   1.800 -0.1545 -0.2146 -0.1815
13787TIP3    H141304   6.192   0.783   1.876  1.0461  0.1349 -0.2531
13787TIP3    H241305   6.212   0.638   1.837 -1.6429 -0.3134 -0.0499
13788TIP3   OH241306   8.290   0.892   2.597 -0.2555 -0.2490  0.1473
13788TIP3    H141307   8.316   0.863   2.685 -1.1170  0.7307  0.7374
13788TIP3    H241308   8.294   0.813   2.543  1.9229 -0.5317  0.6755
13789TIP3   OH241309   3.270   7.631   2.980 -0.8338 -0.3318  0.2631
13789TIP3    H141310   3.196   7.626   3.042 -2.0319 -1.4055 -1.2188
13789TIP3    H241311   3.280   7.542   2.948  0.1649  0.1054 -0.6543
13790TIP3   OH241312   5.887   8.010   3.868 -0.0747 -0.6276  0.0642
13790TIP3    H141313   5.833   8.074   3.821 -0.7400 -1.7107 -0.6554
13790TIP3    H241314   5.904   7.941   3.804 -0.2881 -1.7187  1.1657
13791TIP3   OH241315   3.142   7.660   1.174  0.2052  0.4723 -0.2336
13791TIP3    H141316   3.194   7.733   1.142 -0.4138  1.0169 -0.0005
13791TIP3    H241317   3.078   7.699   1.234 -0.3249 -0.2138 -0.3336
13792TIP3   OH241318   7.200   1.701   2.242 -0.4554  0.2170  0.2079
13792TIP3    H141319   7.175   1.783   2.198 -1.5332  0.4179  1.1619
13792TIP3    H241320   7.240   1.648   2.173 -1.0508  0.9805 -0.7389
13793TIP3   OH241321   4.259   7.390   3.115 -0.4896  0.2722 -0.2185
13793TIP3    H141322   4.203   7.463   3.140  0.7459  1.0463  0.3617
13793TIP3    H241323   4.229   7.316   3.168  0.7322  1.3567  2.0610
13794TIP3   OH241324   0.434   0.469   2.918  0.2736  0.3148  0.1959
13794TIP3    H141325   0.392   0.524   2.851  0.7425  0.0065 -0.3524
13794TIP3    H241326   0.527   0.473   2.897  0.8317  3.0737  2.9328
13795TIP3   OH241327   6.377   1.036   2.364 -0.0365  0.6201 -0.3014
13795TIP3    H141328   6.312   0.990   2.311 -0.0131 -0.8396  0.9029
13795TIP3    H241329   6.376   0.991   2.448  0.4089  2.4662  0.7305
13796TIP3   OH241330   0.384   0.620   2.695  0.1267 -0.0840  0.8948
13796TIP3    H141331   0.428   0.625   2.610 -0.9697 -0.2872  0.3100
13796TIP3    H241332   0.359   0.710   2.714 -0.3558 -0.1551  0.6093
13797TIP3   OH241333   5.623   2.629   1.026 -0.5340 -0.3888 -0.2357
13797TIP3    H141334   5.643   2.671   0.942 -1.2921  0.0375 -0.2026
13797TIP3    H241335   5.605   2.702   1.086  0.1631 -0.6828  0.3400
13798TIP3   OH241336   6.299   1.820   2.952  0.2080  0.3110 -0.3654
13798TIP3    H141337   6.326   1.762   2.881  0.1142 -2.2786  1.6513
13798TIP3    H241338   6.325   1.908   2.922  4.3857 -1.2188 -1.6384
13799TIP3   OH241339   6.783   0.532   0.981 -0.1382  0.3408 -0.2736
13799TIP3    H141340   6.794   0.585   1.060  1.6651  0.9590 -0.8997
13799TIP3    H241341   6.691   0.506   0.982 -0.4039  1.2488  1.4524
13800TIP3   OH241342   6.035   1.032   0.539  0.0063 -0.0686  0.0423
13800TIP3    H141343   6.107   0.970   0.525 -0.5086 -0.8691  0.8901
13800TIP3    H241344   6.031   1.082   0.457  0.3979 -1.1888 -0.6797
13801TIP3   OH241345   7.304   1.825   2.511  0.0125 -0.1665 -0.0792
13801TIP3    H141346   7.229   1.884   2.519 -0.4591 -0.7579 -0.0865
13801TIP3    H241347   7.284   1.771   2.435  2.9102  3.1891 -3.4146
13802TIP3   OH241348   5.963   2.090   0.675 -0.0319  0.5964 -0.3591
13802TIP3    H141349   6.033   2.148   0.644 -0.1080  0.8773 -0.0041
13802TIP3    H241350   6.008   2.026   0.731  0.2339 -0.4265 -1.7159
13803TIP3   OH241351   7.819   1.762   1.911 -0.2294 -0.1345  0.1408
13803TIP3    H141352   7.732   1.759   1.873 -0.7281  0.9503  1.1507
13803TIP3    H241353   7.844   1.855   1.907  1.0982 -0.5180 -0.6304
13804TIP3   OH241354   6.069   7.027   0.245 -0.1938  0.2903  0.3980
13804TIP3    H141355   5.989   7.014   0.194 -0.4052  1.0745  0.5320
13804TIP3    H241356   6.059   7.113   0.285 -0.7904 -0.9777  3.1226
13805TIP3   OH241357   8.186   1.403   2.981  0.0916 -0.0868  0.2247
13805TIP3    H141358   8.207   1.311   2.960 -0.4574 -0.2333  0.2996
13805TIP3    H241359   8.257   1.453   2.942 -0.3998 -0.4320 -1.1757
13806TIP3   OH241360   7.764   1.119   1.377 -0.0298  0.3232 -0.2578
13806TIP3    H141361   7.792   1.194   1.431 -0.3146 -0.4367  0.9675
13806TIP3    H241362   7.760   1.046   1.439 -2.0259 -0.1980 -0.9690
13807TIP3   OH241363   5.196   7.938   2.915  0.2247  0.2445  0.5480
13807TIP3    H141364   5.290   7.917   2.917  0.1064 -0.4111 -0.2106
13807TIP3    H241365   5.153   7.857   2.942 -0.1227  0.5962  1.0521
13808TIP3   OH241366   0.947   1.272   2.513 -0.0028 -0.4598  0.0107
13808TIP3    H141367   0.963   1.296   2.604 -0.0219 -0.9904  0.1591
13808TIP3    H241368   0.874   1.328   2.486 -0.7478 -1.0898  0.6761
13809TIP3   OH241369   8.386   1.334   0.899  0.0337  0.3218  0.0105
13809TIP3    H141370   8.356   1.300   0.984  1.0619 -3.0113 -0.8762
13809TIP3    H241371   8.306   1.365   0.856 -0.7477  0.4373  1.5120
13810TIP3   OH241372   3.860   7.216   2.476 -0.0879 -0.3310  0.4366
13810TIP3    H141373   3.905   7.300   2.472 -0.4210 -0.1555  0.3309
13810TIP3    H241374   3.828   7.202   2.387 -0.6347 -0.2323  0.6140
13811TIP3   OH241375   7.849   1.982   0.270  0.2935  0.4587 -0.0625
13811TIP3    H141376   7.885   2.001   0.357  0.7772  0.4229 -0.2523
13811TIP3    H241377   7.888   1.898   0.246 -1.1742 -0.3636  0.4006
13812TIP3   OH241378   1.253   4.026   6.876  0.2176 -0.3105  0.1584
13812TIP3    H141379   1.316   4.049   6.944 -0.4344 -1.0475  1.0199
13812TIP3    H241380   1.168   4.034   6.920 -0.2573  0.0940 -0.8275
13813TIP3   OH241381   7.176   1.121   3.948  0.0406 -0.0534 -0.2896
13813TIP3    H141382   7.268   1.126   3.972 -0.1184  1.5378  0.0826
13813TIP3    H241383   7.173   1.061   3.873  1.4111  0.1505 -0.5131
13814TIP3   OH241384   0.593   1.694   1.151  0.5748  0.6167  0.2361
13814TIP3    H141385   0.575   1.645   1.071  1.4440  1.0416 -0.2296
13814TIP3    H241386   0.539   1.652   1.218 -0.5887  0.6184 -0.6966
13815TIP3   OH241387   1.429   3.011   0.507 -0.3836 -0.0957  0.2966
13815TIP3    H141388   1.405   3.043   0.420 -1.4821 -3.1778 -0.6157
13815TIP3    H241389   1.345   3.000   0.552  0.1461  0.9215  1.5405
13816TIP3   OH241390   8.319   7.459   1.230  0.2533  0.3776 -0.1313
13816TIP3    H141391   8.309   7.482   1.138 -0.1675  1.3808  0.1588
13816TIP3    H241392   8.413   7.449   1.243  0.2906 -0.0412 -0.7338
13817TIP3   OH241393   8.263   2.400   1.901  0.0050  0.1904  0.1323
13817TIP3    H141394   8.214   2.329   1.944  0.5983 -0.5976 -0.4753
13817TIP3    H241395   8.241   2.391   1.808  0.4479  0.5113 -0.0010
13818TIP3   OH241396   2.511   0.914   4.433 -0.5672  0.6280  0.7725
13818TIP3    H141397   2.505   0.893   4.340 -0.8758 -5.1153  1.9356
13818TIP3    H241398   2.427   0.956   4.453 -0.9955  0.8085 -1.2580
13819TIP3   OH241399   7.565   0.654   1.223 -0.0939 -0.4172 -0.2389
13819TIP3    H141400   7.636   0.669   1.285 -0.9759 -1.7902  1.1423
13819TIP3    H241401   7.550   0.739   1.182  1.8046  0.0512  0.0295
13820TIP3   OH241402   4.486   8.008   4.361 -0.1490 -0.0768  0.1307
13820TIP3    H141403   4.490   8.061   4.441 -1.1732  0.5606 -0.2243
13820TIP3    H241404   4.428   7.935   4.384 -4.9792  2.9257 -1.5385
13821TIP3   OH241405   0.477   1.696   3.301  0.6268 -0.1004  0.0324
13821TIP3    H141406   0.483   1.624   3.364  0.8258  0.6628  0.8995
13821TIP3    H241407   0.553   1.750   3.319 -0.0317  0.8365  0.0228
13822TIP3   OH241408   0.446   1.809   2.274 -0.2225  0.6657 -0.4132
13822TIP3    H141409   0.369   1.851   2.313 -2.0018 -1.5853 -1.3821
13822TIP3    H241410   0.439   1.827   2.180  1.2665  1.7139 -0.3379
13823TIP3   OH241411   8.404   1.129   2.628 -0.8303  0.1589 -0.1556
13823TIP3    H141412   8.383   1.036   2.637 -0.0119  0.0227  0.3931
13823TIP3    H241413   8.493   1.130   2.591  0.1129  0.7075  2.0641
13824TIP3   OH241414   7.963   7.499   3.965  0.1152 -0.0784  0.7630
13824TIP3    H141415   8.016   7.443   4.022  0.6101 -0.3353  0.0569
13824TIP3    H241416   7.991   7.476   3.876  0.0611  1.0216  0.4515
13825TIP3   OH241417   6.737   0.731   0.420 -0.3197 -0.2815  0.1065
13825TIP3    H141418   6.745   0.645   0.379  0.5417 -1.2211  2.1778
13825TIP3    H241419   6.645   0.754   0.411 -1.0639 -2.4865  1.5439
13826TIP3   OH241420   2.619   1.450   3.299  0.1652 -0.0797  0.1446
13826TIP3    H141421   2.663   1.428   3.217  1.9653  1.2547  0.6990
13826TIP3    H241422   2.637   1.375   3.357 -0.3918 -0.6451 -0.4147
13827TIP3   OH241423   4.152   7.039   1.179 -0.0824  0.1422  0.3775
13827TIP3    H141424   4.140   7.012   1.270  0.6805  1.0413  0.7554
13827TIP3    H241425   4.127   7.131   1.178  2.4798  0.8606  0.2536
13828TIP3   OH241426   1.114   0.079   2.353 -0.4470  0.0646  0.2352
13828TIP3    H141427   1.137   0.101   2.263 -0.7560 -2.1815 -0.4180
13828TIP3    H241428   1.172   0.133   2.406  2.0881 -1.0273 -1.3342
13829TIP3   OH241429   0.363   0.806   1.421  0.1331  0.1936  0.0019
13829TIP3    H141430   0.306   0.745   1.372 -0.8880  0.8975  0.3097
13829TIP3    H241431   0.449   0.796   1.379 -0.0344 -1.4036 -0.0090
13830TIP3   OH241432   1.017   1.320   0.293 -0.3179 -0.2819  0.1568
13830TIP3    H141433   1.106   1.334   0.324 -0.1638  0.6844 -0.7185
13830TIP3    H241434   0.975   1.406   0.301 -1.1633 -0.7298  0.5524
13831TIP3   OH241435   1.629   3.717   2.584  0.5187 -0.4445 -0.2428
13831TIP3    H141436   1.661   3.802   2.555 -0.2586 -0.9736 -2.7608
13831TIP3    H241437   1.692   3.688   2.650  0.4369  2.3540  1.1064
13832TIP3   OH241438   4.233   3.512   6.627 -1.0172  0.1597  0.0782
13832TIP3    H141439   4.214   3.605   6.611  1.9522  1.0806  1.5133
13832TIP3    H241440   4.216   3.499   6.720 -0.1798 -0.4248  0.1507
13833TIP3   OH241441   0.205   2.326   1.737  0.5003  0.5425  0.4366
13833TIP3    H141442   0.285   2.292   1.776  0.9171  0.1855 -0.7181
13833TIP3    H241443   0.214   2.421   1.744  0.3887  0.4738  1.5658
13834TIP3   OH241444   3.211   0.709   1.611  0.4200  0.2413  0.3113
13834TIP3    H141445   3.280   0.643   1.612 -0.0525 -0.2530  0.5020
13834TIP3    H241446   3.166   0.699   1.695 -0.3292  0.0859 -0.1016
13835TIP3   OH241447   0.956   1.360   3.757 -0.6402 -0.4481  0.2753
13835TIP3    H141448   0.867   1.372   3.788 -0.9410 -0.3603 -0.5990
13835TIP3    H241449   0.946   1.312   3.675  0.1084 -0.3455  0.1210
13836TIP3   OH241450   8.132   1.062   1.638 -0.8900  0.6728 -0.0899
13836TIP3    H141451   8.183   1.106   1.570  0.9427 -0.5503  0.4654
13836TIP3    H241452   8.060   1.123   1.656 -0.8065  1.4912 -2.3516
13837TIP3   OH241453   1.151   3.926   2.424 -0.2071 -0.2184  0.0348
13837TIP3    H141454   1.065   3.885   2.431  0.0364 -0.8191 -0.5054
13837TIP3    H241455   1.212   3.861   2.459  0.0081  0.2967  0.6432
13838TIP3   OH241456   3.332   6.085   5.262  0.1990 -0.2111  0.3152
13838TIP3    H141457   3.237   6.080   5.277  0.5523 -2.1541  2.1070
13838TIP3    H241458   3.356   6.173   5.291 -1.0479  0.2710 -0.0894
13839TIP3   OH241459   3.666   4.129   6.719 -0.0979 -0.1236  0.3781
13839TIP3    H141460   3.581   4.110   6.759  0.8325  0.0138  2.5298
13839TIP3    H241461   3.712   4.181   6.785  1.1637  0.9577 -1.3132
13840TIP3   OH241462   8.383   3.307   3.190 -0.2065  0.5472  0.5159
13840TIP3    H141463   8.443   3.342   3.125 -0.3465  0.8351  0.5393
13840TIP3    H241464   8.299   3.300   3.144 -0.0268 -0.3808  0.3223
13841TIP3   OH241465   5.913   6.188   0.615  0.4856 -0.0839 -0.3539
13841TIP3    H141466   5.910   6.259   0.679  0.3417  0.7718 -1.2827
13841TIP3    H241467   5.876   6.113   0.660  0.7988  0.3960  0.7069
13842TIP3   OH241468   0.189   1.143   2.139  0.0794  0.2722 -0.2853
13842TIP3    H141469   0.147   1.063   2.107  0.2404 -0.4098  1.1475
13842TIP3    H241470   0.248   1.113   2.208 -0.2120  1.6644  0.5975
13843TIP3   OH241471   7.541   1.184   0.997 -0.1174 -0.1005 -0.0527
13843TIP3    H141472   7.626   1.197   0.953 -0.3669 -0.2126 -0.5720
13843TIP3    H241473   7.478   1.178   0.925 -0.4038 -1.2391  0.2857
13844TIP3   OH241474   6.999   3.864   3.203 -0.3316 -0.0067 -0.4027
13844TIP3    H141475   6.947   3.793   3.242  0.0678  0.4193  0.9231
13844TIP3    H241476   7.026   3.917   3.277 -0.8378  1.6955 -1.4273
13845TIP3   OH241477   1.955   3.124   1.511  0.9563 -0.0923 -0.0640
13845TIP3    H141478   2.034   3.176   1.496  0.6521  0.4746  0.2988
13845TIP3    H241479   1.988   3.036   1.530  1.5151  0.2341  0.4937
13846TIP3   OH241480   7.177   3.563   3.885  0.1012 -0.1723  0.7608
13846TIP3    H141481   7.183   3.500   3.814 -1.1045 -0.7792  1.1783
13846TIP3    H241482   7.255   3.547   3.938 -0.3995 -1.6013  1.0905
13847TIP3   OH241483   4.407   5.779   5.844  0.3589 -0.4851 -0.1761
13847TIP3    H141484   4.442   5.750   5.759  0.2337 -0.2941 -0.2932
13847TIP3    H241485   4.427   5.706   5.903  0.1937 -0.7429 -0.4314
13848TIP3   OH241486   0.710   0.585   2.820  0.6175  0.6671 -0.2852
13848TIP3    H141487   0.765   0.634   2.882  0.0306  1.5001 -0.4154
13848TIP3    H241488   0.690   0.648   2.751  1.3710 -0.2899 -1.3974
13849TIP3   OH241489   0.368   0.315   0.917 -0.3016 -0.0018  0.6641
13849TIP3    H141490   0.361   0.249   0.987  1.8033  0.6971  1.5594
13849TIP3    H241491   0.309   0.282   0.849 -0.4973 -2.0046  1.7333
13850TIP3   OH241492   6.450   7.735   1.952  0.1767  0.0218  0.1443
13850TIP3    H141493   6.406   7.704   2.032 -0.0966 -1.0915 -0.4332
13850TIP3    H241494   6.515   7.797   1.984 -0.6294  0.3740  1.1573
13851TIP3   OH241495   6.471   5.348   6.409  0.1271 -0.0916 -0.6091
13851TIP3    H141496   6.522   5.374   6.486  0.4758 -0.0497 -0.8520
13851TIP3    H241497   6.410   5.420   6.394  0.1391 -0.0466 -0.4421
13852TIP3   OH241498   8.443   3.715   3.775 -0.1667  0.4657 -0.0141
13852TIP3    H141499   8.453   3.776   3.702 -0.1726  0.9553  0.3824
13852TIP3    H241500   8.386   3.762   3.837 -2.5032 -1.0656 -0.9333
13853TIP3   OH241501   7.720   7.113   2.374  0.3218 -0.7403 -0.0785
13853TIP3    H141502   7.780   7.126   2.300 -0.3023 -3.6061 -1.1394
13853TIP3    H241503   7.778   7.095   2.448  0.9418  1.9462  0.1570
13854TIP3   OH241504   6.868   7.049   2.298  0.3151 -0.2130 -0.1216
13854TIP3    H141505   6.802   6.979   2.293  0.2561 -0.2818  1.3755
13854TIP3    H241506   6.821   7.128   2.272 -0.9985  0.1290  3.0967
13855TIP3   OH241507   0.959   2.369   1.690 -0.4536  0.2752  0.3564
13855TIP3    H141508   0.880   2.362   1.743 -1.9223  0.1405 -1.7551
13855TIP3    H241509   0.927   2.369   1.600  1.9360  0.6665 -0.5385
13856TIP3   OH241510   2.108   2.797   0.618 -0.9238 -0.0608 -0.3408
13856TIP3    H141511   2.109   2.789   0.522  0.5528  1.5844 -0.4813
13856TIP3    H241512   2.075   2.885   0.634 -1.0807 -0.3033  0.6794
13857TIP3   OH241513   8.163   1.160   1.931 -0.3832 -0.5024 -1.0091
13857TIP3    H141514   8.109   1.154   1.852  0.7454 -0.7115 -1.7656
13857TIP3    H241515   8.131   1.240   1.975 -1.4075 -0.7019 -1.3612
13858TIP3   OH241516   1.971   3.992   6.716  0.6765 -0.4394 -0.3843
13858TIP3    H141517   2.046   4.006   6.773 -1.1170  0.0084  1.9297
13858TIP3    H241518   1.933   4.079   6.703 -1.0482 -1.0001  0.7454
13859TIP3   OH241519   2.174   0.593   2.270  0.0589  0.3363 -0.0175
13859TIP3    H141520   2.266   0.615   2.252  0.0644  1.0579  0.8992
13859TIP3    H241521   2.131   0.677   2.285 -0.3439 -0.1138  1.4351
13860TIP3   OH241522   8.447   2.740   2.779  0.3240 -0.9240  0.1228
13860TIP3    H141523   8.430   2.659   2.826  0.7537 -0.6386  0.7814
13860TIP3    H241524   8.427   2.809   2.842  3.4692 -0.5672  0.8184
13861TIP3   OH241525   0.091   0.812   1.109 -0.4091  0.3893  0.3696
13861TIP3    H141526   0.001   0.804   1.077  0.0353  2.2231 -1.4534
13861TIP3    H241527   0.108   0.907   1.107  1.6452  0.0419  0.4562
13862TIP3   OH241528   5.061   6.624   1.615 -0.0110 -0.3295 -0.0385
13862TIP3    H141529   5.131   6.604   1.553  1.4713  1.4262  1.0039
13862TIP3    H241530   5.101   6.611   1.701 -0.2104  2.8777  0.6166
13863TIP3   OH241531   2.505   1.182   4.085 -0.9014 -0.3740  1.0055
13863TIP3    H141532   2.439   1.112   4.089 -0.9372 -0.2948  1.7431
13863TIP3    H241533   2.455   1.263   4.096 -1.1424 -0.0714 -1.8812
13864TIP3   OH241534   2.766   4.965   6.634  0.2218  0.0923 -0.0421
13864TIP3    H141535   2.687   5.018   6.646  1.3042  1.4961  1.1166
13864TIP3    H241536   2.783   4.968   6.540 -1.2389 -0.4313 -0.3347
13865TIP3   OH241537   1.244   0.065   3.161  0.1953 -0.0604  0.5312
13865TIP3    H141538   1.311   0.128   3.189  0.4017 -0.4701  0.9756
13865TIP3    H241539   1.169   0.084   3.217 -0.5188  1.2657 -0.8619
13866TIP3   OH241540   6.990   0.722   3.349  0.2056  0.3961 -0.5249
13866TIP3    H141541   6.933   0.664   3.400  1.5038  0.5100  1.0789
13866TIP3    H241542   6.957   0.810   3.367  1.8610  0.5959  1.7075
13867TIP3   OH241543   0.827   1.924   3.033 -0.3166 -0.2982  0.0042
13867TIP3    H141544   0.744   1.970   3.048 -0.3399  0.2840 -1.7767
13867TIP3    H241545   0.808   1.832   3.054 -1.0175  0.0544  0.9501
13868TIP3   OH241546   8.060   0.933   4.625 -0.6207  0.4475 -0.0541
13868TIP3    H141547   8.034   0.905   4.537 -0.9559  0.3053  0.0898
13868TIP3    H241548   8.153   0.910   4.630 -1.0098 -1.1061  0.2432
13869TIP3   OH241549   7.659   1.432   0.704 -0.0720 -0.1165  0.3479
13869TIP3    H141550   7.695   1.395   0.784  1.9697 -1.0343 -0.9673
13869TIP3    H241551   7.631   1.356   0.653 -1.7120  0.4794  0.3212
13870TIP3   OH241552   3.799   6.578   6.893 -0.1388 -0.2009  0.4825
13870TIP3    H141553   3.844   6.526   6.960  0.8998  1.5591  1.1682
13870TIP3    H241554   3.711   6.540   6.889 -0.4070 -0.0029  3.2690
13871TIP3   OH241555   0.378   0.248   0.645  0.4998 -0.1303 -0.2552
13871TIP3    H141556   0.413   0.160   0.659 -0.5748 -0.4908  0.2718
13871TIP3    H241557   0.453   0.300   0.616  1.5990 -0.7009  1.5406
13872TIP3   OH241558   8.203   0.823   1.436 -0.1205  0.2351  0.0456
13872TIP3    H141559   8.203   0.893   1.371  1.5226 -1.3886 -1.7794
13872TIP3    H241560   8.154   0.859   1.510  0.9991  3.4472 -0.6706
13873TIP3   OH241561   3.090   2.806   6.563  0.6531 -0.5421  0.1992
13873TIP3    H141562   3.002   2.793   6.528  0.3787  1.1195  0.2191
13873TIP3    H241563   3.081   2.791   6.657 -0.2951  2.5872  0.6634
13874TIP3   OH241564   8.451   2.228   1.731  0.1312 -0.5174 -0.1981
13874TIP3    H141565   8.536   2.272   1.732 -0.8572  1.4031  1.1259
13874TIP3    H241566   8.394   2.286   1.681 -1.2935 -0.0230  1.9390
13875TIP3   OH241567   2.610   3.737   6.717  0.0652  0.6448 -0.5617
13875TIP3    H141568   2.640   3.821   6.751 -0.6050 -0.1121  2.0447
13875TIP3    H241569   2.675   3.674   6.749 -0.5703 -0.0903 -0.7004
13876TIP3   OH241570   6.473   7.886   0.651 -0.3833  0.3304 -0.2893
13876TIP3    H141571   6.503   7.914   0.564  1.3211 -0.3725  0.0535
13876TIP3    H241572   6.528   7.936   0.712 -0.4265 -0.4231  0.3703
13877TIP3   OH241573   6.452   7.356   1.440 -0.2985  0.1692  0.2065
13877TIP3    H141574   6.508   7.311   1.377 -0.0661  1.2301 -0.3596
13877TIP3    H241575   6.389   7.290   1.468 -1.3821  0.0785 -2.3156
13878TIP3   OH241576   0.459   1.939   1.887 -0.0468  0.5789  0.4071
13878TIP3    H141577   0.407   1.873   1.933  0.2541  0.4228  0.5253
13878TIP3    H241578   0.539   1.948   1.940  1.2695 -1.1464 -1.2202
13879TIP3   OH241579   8.500   1.451   1.284 -0.4196 -0.0021 -0.0373
13879TIP3    H141580   8.455   1.378   1.241  0.2044  0.1202 -0.9325
13879TIP3    H241581   8.478   1.442   1.376  0.3135 -1.8127 -0.0140
13880TIP3   OH241582   1.072   0.320   1.646 -0.5018  0.4737  0.4580
13880TIP3    H141583   1.087   0.332   1.552 -0.3323  2.1674  0.6986
13880TIP3    H241584   0.981   0.346   1.659 -0.9407 -1.0384  0.5599
13881TIP3   OH241585   0.506   1.813   1.660 -0.0702  0.7013  0.2850
13881TIP3    H141586   0.441   1.846   1.598 -0.9223 -2.5237 -0.6129
13881TIP3    H241587   0.474   1.841   1.746 -1.4530  1.0515 -0.3353
13882TIP3   OH241588   2.881   3.314   3.049  0.3680 -0.2972  0.0721
13882TIP3    H141589   2.791   3.283   3.045  0.0654  0.5574  0.2094
13882TIP3    H241590   2.887   3.362   3.132  0.1787  2.0012 -1.2110
13883TIP3   OH241591   3.443   3.250   0.353  0.4107 -0.2242  0.2135
13883TIP3    H141592   3.390   3.216   0.281  2.3939 -1.4630 -0.6752
13883TIP3    H241593   3.472   3.336   0.323  0.6071 -0.4172 -0.1453
13884TIP3   OH241594   2.489   2.311   2.648  0.2240  0.1773  0.0372
13884TIP3    H141595   2.467   2.221   2.671  1.9939 -0.0666  0.9143
13884TIP3    H241596   2.430   2.333   2.576 -1.9461 -0.8054  1.4675
13885TIP3   OH241597   6.212   7.846   1.842 -0.1765 -0.3745  0.2803
13885TIP3    H141598   6.269   7.873   1.770  0.4717 -0.8166  0.6139
13885TIP3    H241599   6.265   7.782   1.890 -1.1881 -1.2216  0.2612
13886TIP3   OH241600   6.027   7.817   0.665 -0.7557 -0.4712  0.1678
13886TIP3    H141601   6.059   7.874   0.736 -1.5009 -1.1934  1.1010
13886TIP3    H241602   6.096   7.820   0.599 -1.1861  2.2594 -0.2120
13887TIP3   OH241603   0.797   1.593   2.002  0.6670 -0.4785 -0.2631
13887TIP3    H141604   0.797   1.614   1.909  1.4030  1.2380  0.1010
13887TIP3    H241605   0.884   1.557   2.019  0.5446 -0.7617 -0.2394
13888TIP3   OH241606   0.778   0.606   1.489  0.3830  0.0465  0.3565
13888TIP3    H141607   0.872   0.595   1.474  0.3241 -0.4347  0.3360
13888TIP3    H241608   0.771   0.690   1.535  0.7015  0.7232 -0.8291
13889TIP3   OH241609   8.115   1.245   3.704  0.3740  0.3302  0.6098
13889TIP3    H141610   8.186   1.293   3.661  0.6842  1.1208  1.9856
13889TIP3    H241611   8.035   1.284   3.668  0.6184  0.1644 -0.1346
13890TIP3   OH241612   2.311   1.549   1.108 -0.0127  0.9550 -0.1643
13890TIP3    H141613   2.228   1.593   1.125  0.2173  1.7434 -1.0365
13890TIP3    H241614   2.377   1.606   1.148  0.1191  0.3155  0.5549
13891TIP3   OH241615   8.263   0.326   2.324 -0.5696 -0.1836  0.5697
13891TIP3    H141616   8.314   0.398   2.288 -1.5938  0.5803  0.6286
13891TIP3    H241617   8.178   0.365   2.345 -0.7274 -1.1245  1.7227
13892TIP3   OH241618   8.175   2.369   1.024 -0.3062  0.2870 -0.3266
13892TIP3    H141619   8.149   2.358   1.116 -1.4474  1.0563 -0.5546
13892TIP3    H241620   8.188   2.463   1.015 -0.8554  0.2868 -1.1297
13893TIP3   OH241621   7.835   0.794   0.912  0.2779  0.0795  0.2427
13893TIP3    H141622   7.814   0.710   0.953  2.0407 -0.9613 -0.9022
13893TIP3    H241623   7.808   0.860   0.976 -0.1662 -1.3858  1.5966
13894TIP3   OH241624   3.065   4.126   6.414 -0.2695 -0.1932 -0.5686
13894TIP3    H141625   3.014   4.167   6.344 -1.0421  1.1774  0.7647
13894TIP3    H241626   3.014   4.049   6.439 -1.3988  0.8341  0.3384
13895TIP3   OH241627   7.532   7.023   1.686  0.1162 -0.0406 -0.3251
13895TIP3    H141628   7.492   7.046   1.770  0.4550  1.5371 -0.5782
13895TIP3    H241629   7.600   7.089   1.673  0.1874 -0.3816 -1.7507
13896TIP3   OH241630   8.327   1.263   4.686  0.2504 -0.5012 -0.0576
13896TIP3    H141631   8.384   1.187   4.697 -0.9404 -1.3792  0.1029
13896TIP3    H241632   8.297   1.282   4.775  2.8307  1.9871  0.3675
13897TIP3   OH241633   4.932   7.178   0.991  0.3814  0.0827 -0.0895
13897TIP3    H141634   4.869   7.246   1.015 -1.5765 -0.9035 -2.2365
13897TIP3    H241635   4.879   7.099   0.983  1.5936 -0.4586 -3.4823
13898TIP3   OH241636   5.752   7.952   0.679 -0.1114 -0.4562 -0.5027
13898TIP3    H141637   5.722   7.870   0.716  0.0885 -0.6181 -0.6998
13898TIP3    H241638   5.847   7.942   0.672  0.1477  0.4835  1.2224
13899TIP3   OH241639   0.751   3.024   2.318  0.9640 -0.1990  0.3158
13899TIP3    H141640   0.773   3.006   2.410  4.2053 -0.8294 -0.4965
13899TIP3    H241641   0.655   3.025   2.316  0.8205 -0.1234  3.7010
13900TIP3   OH241642   1.201   2.011   1.174  0.0635 -0.4564  0.0355
13900TIP3    H141643   1.123   2.046   1.217 -0.6805 -1.4860 -0.4418
13900TIP3    H241644   1.167   1.950   1.109  1.1984  0.6947 -1.6781
13901TIP3   OH241645   7.456   0.910   1.167  0.5657  0.1235  0.0418
13901TIP3    H141646   7.421   0.970   1.232  1.7529 -0.6538  1.4432
13901TIP3    H241647   7.386   0.846   1.153  0.1849  0.4758  0.3190
13902TIP3   OH241648   7.523   7.501   0.485  0.3259  0.2065  0.0896
13902TIP3    H141649   7.503   7.546   0.403  1.9753 -1.4250 -1.2514
13902TIP3    H241650   7.438   7.487   0.526 -0.4126  2.2350 -0.6787
13903TIP3   OH241651   5.271   7.232   1.417 -0.0790 -0.2459  0.3272
13903TIP3    H141652   5.253   7.196   1.503 -1.2053 -0.7988 -0.1242
13903TIP3    H241653   5.198   7.203   1.363  1.8150 -1.9290 -1.4069
13904TIP3   OH241654   4.411   6.905   1.072 -0.0996 -0.0563 -0.2522
13904TIP3    H141655   4.333   6.945   1.110 -0.5354 -2.3907  1.4276
13904TIP3    H241656   4.476   6.907   1.142  0.1886 -1.3411 -0.4586
13905TIP3   OH241657   5.643   1.032   3.601 -0.3719 -0.0277  0.2670
13905TIP3    H141658   5.558   1.072   3.582 -0.7640 -0.6946  0.6222
13905TIP3    H241659   5.658   0.971   3.528 -0.6655 -0.6576  0.7358
13906TIP3   OH241660   6.941   2.282   2.595 -0.6825 -0.4470 -0.6927
13906TIP3    H141661   6.971   2.204   2.548 -3.1406 -1.2365 -0.9924
13906TIP3    H241662   6.983   2.276   2.681  2.1526 -0.0986 -1.9974
13907TIP3   OH241663   5.777   0.185   2.481  0.3141 -0.4048 -0.3775
13907TIP3    H141664   5.798   0.123   2.551  2.0187 -0.0926 -0.5924
13907TIP3    H241665   5.857   0.191   2.430 -0.7097 -0.1013 -1.9634
13908TIP3   OH241666   8.482   4.174   2.267 -0.0954  0.1556 -0.0284
13908TIP3    H141667   8.420   4.244   2.288  0.8352  1.7041 -2.1684
13908TIP3    H241668   8.566   4.220   2.258  0.9361 -1.5736  0.6305
13909TIP3   OH241669   6.517   6.852   1.418 -0.0201 -0.2626  0.0199
13909TIP3    H141670   6.444   6.888   1.366 -0.4287  0.1398  0.8508
13909TIP3    H241671   6.560   6.790   1.360  0.0241  0.7728 -1.0756
13910TIP3   OH241672   6.130   7.682   1.284  0.0967  0.0690 -0.0210
13910TIP3    H141673   6.179   7.656   1.363 -0.2242 -0.0240  0.1507
13910TIP3    H241674   6.195   7.683   1.214  0.4977  0.7014  0.3574
13911TIP3   OH241675   8.303   7.171   2.120 -0.0063 -0.2935 -0.3455
13911TIP3    H141676   8.372   7.105   2.116 -0.7992 -1.1143 -0.6974
13911TIP3    H241677   8.344   7.251   2.088  0.6954 -0.8502 -0.8390
13912TIP3   OH241678   2.009   2.021   1.347 -0.0624 -0.3575 -0.4070
13912TIP3    H141679   2.005   2.105   1.301 -2.4086 -0.1516  0.1172
13912TIP3    H241680   2.074   1.970   1.299  0.3646  1.2501 -1.5719
13913TIP3   OH241681   2.174   2.256   6.377 -0.0026 -0.3436 -0.9120
13913TIP3    H141682   2.203   2.315   6.307  0.1572 -0.3175 -0.8239
13913TIP3    H241683   2.254   2.212   6.406 -0.1705 -0.8377 -1.1961
13914TIP3   OH241684   7.960   0.286   1.359 -0.2531  0.4466 -0.0929
13914TIP3    H141685   7.973   0.284   1.454 -0.0795  0.6749 -0.1122
13914TIP3    H241686   7.878   0.239   1.345 -0.0512  0.0182  0.1331
13915TIP3   OH241687   3.767   5.480   5.771 -0.3389 -0.2053  0.3727
13915TIP3    H141688   3.736   5.504   5.859  0.6522  1.1741  0.3615
13915TIP3    H241689   3.739   5.553   5.715 -0.7047 -0.9388 -0.4031
13916TIP3   OH241690   0.389   0.904   1.931  0.2343  0.2878  0.7279
13916TIP3    H141691   0.402   0.811   1.911 -3.1462  0.4982 -3.3007
13916TIP3    H241692   0.322   0.904   2.000  0.8351 -0.2988  1.3120
13917TIP3   OH241693   0.530   1.289   1.433  0.3073 -0.2367  0.7944
13917TIP3    H141694   0.566   1.357   1.489  0.5856  0.8227 -0.6446
13917TIP3    H241695   0.460   1.250   1.485  0.3522  0.9305  1.7573
13918TIP3   OH241696   0.619   1.251   1.168 -0.4312  0.2773  0.3228
13918TIP3    H141697   0.597   1.263   1.260  0.7387 -0.2611  0.6858
13918TIP3    H241698   0.563   1.178   1.139 -0.4699  0.1482  0.7273
13919TIP3   OH241699   0.667   3.914   2.475  0.1571 -0.0281 -0.9631
13919TIP3    H141700   0.694   3.984   2.416 -0.3681  0.2754 -0.8526
13919TIP3    H241701   0.723   3.840   2.452  1.1682  0.6283 -0.6268
13920TIP3   OH241702   2.001   2.342   2.062 -0.3994 -0.6556  1.2624
13920TIP3    H141703   1.950   2.286   2.004 -0.2335  0.5927 -0.1110
13920TIP3    H241704   2.092   2.318   2.043 -0.3253  0.0915  0.6277
13921TIP3   OH241705   1.500   3.616   3.057 -0.0667 -0.3179  0.4057
13921TIP3    H141706   1.435   3.665   3.107 -0.2640 -0.2121  0.0454
13921TIP3    H241707   1.559   3.683   3.022 -0.0135 -0.3813  0.3731
13922TIP3   OH241708   2.276   0.699   0.998 -0.0116 -0.0920  0.1905
13922TIP3    H141709   2.337   0.710   1.070 -0.9005  0.9181  0.8097
13922TIP3    H241710   2.219   0.628   1.026 -0.5969  0.5529  0.6790
13923TIP3   OH241711   0.170   1.127   3.932 -0.3983  0.3523  0.0863
13923TIP3    H141712   0.206   1.136   3.843 -0.3760  1.8092  0.2318
13923TIP3    H241713   0.226   1.062   3.974 -0.1841 -0.0802 -0.8459
13924TIP3   OH241714   5.656   7.530   1.350 -0.1893  0.1965  0.0705
13924TIP3    H141715   5.672   7.471   1.423  3.3104  0.7622 -0.1662
13924TIP3    H241716   5.680   7.616   1.383 -0.2835  0.7155 -1.1831
13925TIP3   OH241717   1.710   6.823   6.200  0.4975 -0.4477  0.1195
13925TIP3    H141718   1.699   6.777   6.283  0.5078 -2.1142 -0.7784
13925TIP3    H241719   1.635   6.882   6.195 -0.0366 -1.0567  0.8570
13926TIP3   OH241720   7.596   7.344   1.275 -0.1077 -0.6477 -0.7722
13926TIP3    H141721   7.575   7.265   1.324  0.1956 -0.0012  0.4052
13926TIP3    H241722   7.669   7.318   1.218  0.4175 -1.0462  0.0712
13927TIP3   OH241723   3.231   2.188   5.049 -0.4445  0.1709 -0.2357
13927TIP3    H141724   3.172   2.174   4.975 -1.6368  1.7937  0.3986
13927TIP3    H241725   3.274   2.103   5.061 -1.5756 -0.6169 -1.6189
13928TIP3   OH241726   6.222   2.079   6.629  0.7465 -0.3073  0.5889
13928TIP3    H141727   6.200   2.151   6.688 -0.0096 -0.3297  0.3347
13928TIP3    H241728   6.145   2.023   6.630  0.5247 -0.0457 -0.8214
13929TIP3   OH241729   0.744   0.928   0.701 -0.8551  0.2267 -0.3614
13929TIP3    H141730   0.654   0.923   0.668 -0.6543  1.1043 -1.0659
13929TIP3    H241731   0.792   0.977   0.634 -0.2625  1.3718  0.8730
13930TIP3   OH241732   8.418   1.950   5.213 -0.2391 -0.0266  0.3299
13930TIP3    H141733   8.510   1.947   5.238  0.0228 -1.0933 -0.7809
13930TIP3    H241734   8.390   2.038   5.238  0.3688 -0.5873  3.1690
13931TIP3   OH241735   8.406   0.387   0.870  0.0840 -0.2779 -0.6352
13931TIP3    H141736   8.431   0.302   0.835  1.9274 -0.2283  0.4937
13931TIP3    H241737   8.378   0.437   0.793  1.8882 -0.9096 -1.7301
13932TIP3   OH241738   0.188   0.330   1.313 -0.2753 -0.3912 -0.0013
13932TIP3    H141739   0.116   0.329   1.376 -0.3012  0.0256 -0.0195
13932TIP3    H241740   0.199   0.423   1.291 -0.0448 -0.5016 -0.3553
13933TIP3   OH241741   1.213   0.624   1.198 -0.3210 -0.6435 -0.0012
13933TIP3    H141742   1.287   0.631   1.137  0.6083  0.6456  1.2512
13933TIP3    H241743   1.158   0.555   1.160 -1.1465  1.9153 -3.7792
13934TIP3   OH241744   6.855   7.872   1.671  0.3771  0.2118  0.1461
13934TIP3    H141745   6.851   7.797   1.731  2.1095  0.4169  0.5394
13934TIP3    H241746   6.925   7.850   1.609  0.3478  1.1500 -0.2249
13935TIP3   OH241747   7.139   7.929   3.075  0.0321  0.0581  0.0971
13935TIP3    H141748   7.104   7.841   3.066 -1.7327  0.8582 -1.0687
13935TIP3    H241749   7.069   7.980   3.116  0.4346  1.2853 -0.6931
13936TIP3   OH241750   5.088   2.286   6.571 -0.2902  0.0049 -0.0275
13936TIP3    H141751   5.023   2.352   6.597  0.3944  0.3863  0.7428
13936TIP3    H241752   5.037   2.218   6.528 -1.0233  0.9931 -0.7488
13937TIP3   OH241753   3.822   6.887   0.806  0.8134 -0.2473  0.2903
13937TIP3    H141754   3.892   6.900   0.870  1.9527 -0.4495 -0.8959
13937TIP3    H241755   3.805   6.793   0.808  0.9892 -0.2817  0.1405
13938TIP3   OH241756   7.601   2.272   1.682 -0.0233  0.3034  0.1476
13938TIP3    H141757   7.536   2.301   1.618  1.0134 -0.3964 -1.2619
13938TIP3    H241758   7.671   2.234   1.629  0.8123 -0.3919  1.7136
13939TIP3   OH241759   1.290   2.254   1.227  0.3498  0.0151  0.6681
13939TIP3    H141760   1.270   2.164   1.203 -0.3187  0.5948 -1.0143
13939TIP3    H241761   1.375   2.249   1.271  0.9378 -1.2537 -0.5900
13940TIP3   OH241762   7.732   2.922   1.339 -0.3990  0.8858 -0.0855
13940TIP3    H141763   7.693   3.008   1.356  0.2400  1.5614 -1.8864
13940TIP3    H241764   7.666   2.876   1.286 -0.8486  0.1601  1.0898
13941TIP3   OH241765   1.093   2.807   1.337  0.4973  0.3012 -0.8019
13941TIP3    H141766   1.166   2.850   1.382 -0.3054 -0.4331  1.2540
13941TIP3    H241767   1.131   2.724   1.306  0.3790 -0.4363  0.9397
13942TIP3   OH241768   8.533   0.435   1.887  0.2905 -0.1917 -0.0441
13942TIP3    H141769   8.496   0.403   1.969  0.5122 -0.7839 -0.1738
13942TIP3    H241770   8.458   0.472   1.840  0.0253 -0.5388  0.0987
13943TIP3   OH241771   0.727   2.522   1.361 -0.0648  0.5818 -0.6133
13943TIP3    H141772   0.655   2.491   1.416  0.6231 -2.1155 -1.1790
13943TIP3    H241773   0.788   2.563   1.422 -1.0938  1.0234  0.1309
13944TIP3   OH241774   0.917   2.009   0.194  0.0283 -0.9829  0.5556
13944TIP3    H141775   0.843   1.990   0.251  0.3117 -0.9140  0.9431
13944TIP3    H241776   0.992   2.018   0.253  0.1038  0.2624  0.2728
13945TIP3   OH241777   0.171   2.235   1.344  0.1504 -0.2190  0.2511
13945TIP3    H141778   0.132   2.166   1.397  0.7504 -1.0897 -0.4201
13945TIP3    H241779   0.256   2.200   1.318  1.2039  1.4684  1.3317
13946TIP3   OH241780   7.729   0.944   1.151 -0.1067 -0.1470  0.1204
13946TIP3    H141781   7.635   0.937   1.136 -0.0471  0.3103 -0.4671
13946TIP3    H241782   7.737   0.997   1.230 -0.3522 -0.4993  0.3820
13947TIP3   OH241783   7.646   2.304   0.825 -0.8689 -0.4910  0.1291
13947TIP3    H141784   7.592   2.379   0.849  0.9765  0.2962  1.9901
13947TIP3    H241785   7.642   2.246   0.902 -0.6075 -1.3093 -0.4656
13948TIP3   OH241786   5.186   7.567   2.261  0.3667  0.4451 -0.5316
13948TIP3    H141787   5.201   7.473   2.272 -2.1181  0.0042 -0.5023
13948TIP3    H241788   5.249   7.593   2.194 -0.1581 -1.6624 -1.9156
13949TIP3   OH241789   4.541   0.325   2.316  0.0129 -0.1729  0.1987
13949TIP3    H141790   4.629   0.347   2.284 -0.5817  0.3884 -1.0592
13949TIP3    H241791   4.528   0.383   2.391  0.7317 -0.2984  0.4263
13950TIP3   OH241792   2.104   0.934   1.058 -0.1321  0.2256 -0.1338
13950TIP3    H141793   2.139   1.016   1.093 -2.4497  1.4294 -0.4591
13950TIP3    H241794   2.125   0.938   0.964  1.6208 -0.5806  0.2143
13951TIP3   OH241795   7.323   0.459   0.378  0.6084 -0.2751  0.2350
13951TIP3    H141796   7.267   0.421   0.446  0.4830  0.6212  0.6490
13951TIP3    H241797   7.404   0.408   0.382  0.9087  0.2707  1.6197
13952TIP3   OH241798   6.938   5.784   1.694  0.4748 -1.0950 -0.2974
13952TIP3    H141799   6.860   5.772   1.749  0.2249 -0.5747 -0.5388
13952TIP3    H241800   6.909   5.839   1.622  1.4795  0.5101  0.4926
13953TIP3   OH241801   0.663   6.688   3.446 -0.7936  0.0382  0.0116
13953TIP3    H141802   0.729   6.663   3.511 -1.8658  0.6767  1.3733
13953TIP3    H241803   0.705   6.671   3.362  2.1533  2.9839  0.7872
13954TIP3   OH241804   6.816   2.524   6.735 -0.1041  0.1536 -0.1391
13954TIP3    H141805   6.865   2.603   6.713 -2.1910  1.1594 -1.3484
13954TIP3    H241806   6.809   2.476   6.652  1.8622 -1.7637  0.7402
13955TIP3   OH241807   5.942   3.560   1.204 -0.3835 -0.3445 -0.2513
13955TIP3    H141808   5.976   3.512   1.128 -2.0255 -1.2745 -0.4266
13955TIP3    H241809   5.878   3.620   1.167  1.1859  1.5447  0.0501
13956TIP3   OH241810   3.821   2.547   5.334  0.0487  0.7122  0.0814
13956TIP3    H141811   3.777   2.585   5.410  1.4817  0.0058  1.3063
13956TIP3    H241812   3.883   2.484   5.372  0.1270 -0.3312 -1.7253
13957TIP3   OH241813   7.774   7.624   1.831 -0.4951  0.0212 -0.1724
13957TIP3    H141814   7.682   7.605   1.815 -0.4837  1.5221 -2.1253
13957TIP3    H241815   7.821   7.580   1.760  0.0188  2.0032 -1.0881
13958TIP3   OH241816   0.706   0.943   1.437 -0.2166  0.2124  0.3277
13958TIP3    H141817   0.699   1.038   1.422 -0.0313  0.0450 -0.8502
13958TIP3    H241818   0.663   0.904   1.361 -0.3427 -0.6588  0.8447
13959TIP3   OH241819   0.609   2.210   2.105 -0.4847 -0.3159  0.1444
13959TIP3    H141820   0.568   2.273   2.163 -0.2393  0.9432 -1.0203
13959TIP3    H241821   0.692   2.189   2.147 -1.4197 -1.3553  1.5048
13960TIP3   OH241822   5.200   7.864   3.739 -0.5350 -0.1196  0.1804
13960TIP3    H141823   5.233   7.775   3.749 -1.1300 -0.4300 -0.6141
13960TIP3    H241824   5.267   7.919   3.780  0.2646 -0.8576 -0.1195
13961TIP3   OH241825   8.148   2.633   2.078 -0.6885  0.2048  0.2742
13961TIP3    H141826   8.139   2.557   2.020  0.7736  1.0172 -1.0278
13961TIP3    H241827   8.134   2.708   2.021  0.0086  0.9874  1.1254
13962TIP3   OH241828   8.328   4.211   0.948  0.8210  0.5242  0.1990
13962TIP3    H141829   8.259   4.206   1.013  1.1687  0.4644  0.5675
13962TIP3    H241830   8.383   4.284   0.977  1.1018  0.3585  0.0948
13963TIP3   OH241831   0.644   1.542   0.870  0.1382 -0.2145 -0.8516
13963TIP3    H141832   0.700   1.470   0.899 -0.1194  0.0186  0.2447
13963TIP3    H241833   0.555   1.512   0.889 -0.0251  0.0079 -1.2626
13964TIP3   OH241834   6.157   6.906   0.485 -0.0941 -0.0668  0.5815
13964TIP3    H141835   6.184   6.969   0.552  1.1188  0.0161  0.0388
13964TIP3    H241836   6.123   6.960   0.414 -0.8339 -0.1276  0.8802
13965TIP3   OH241837   1.037   0.851   0.546 -0.4912  0.5956  0.1132
13965TIP3    H141838   0.964   0.899   0.509 -0.3642  1.7606  1.3494
13965TIP3    H241839   1.107   0.916   0.557  1.4986 -0.8769 -2.9606
13966TIP3   OH241840   0.464   2.829   1.320  1.1795  0.5426  0.3472
13966TIP3    H141841   0.483   2.740   1.290  0.4920  0.1715  1.0055
13966TIP3    H241842   0.425   2.872   1.244 -1.0162 -0.5428  0.8436
13967TIP3   OH241843   2.026   1.200   2.040  0.1476 -0.4009 -0.0305
13967TIP3    H141844   2.030   1.194   1.945  3.5632  0.7401 -0.0293
13967TIP3    H241845   2.010   1.293   2.058 -2.9115 -0.9626  0.5555
13968TIP3   OH241846   7.781   7.941   0.420  0.1952 -0.1628 -0.0429
13968TIP3    H141847   7.861   7.970   0.465 -0.6445  1.8327  0.2423
13968TIP3    H241848   7.735   8.023   0.400 -0.5656 -1.1380 -2.4782
13969TIP3   OH241849   3.171   1.697   1.190  0.3768  0.9741  0.4161
13969TIP3    H141850   3.176   1.753   1.267 -2.3704  0.1653  1.2401
13969TIP3    H241851   3.116   1.745   1.128 -2.2074 -0.8306  1.2274
13970TIP3   OH241852   1.280   1.408   1.305 -0.0195  0.0307  0.5433
13970TIP3    H141853   1.275   1.381   1.214  0.3034  0.0713  0.5111
13970TIP3    H241854   1.191   1.398   1.339 -0.4931  1.5589 -0.2131
13971TIP3   OH241855   3.694   0.802   2.092  0.3464 -0.0479  0.6149
13971TIP3    H141856   3.604   0.822   2.066  0.6124  0.3535 -0.0025
13971TIP3    H241857   3.732   0.758   2.015  1.9332  3.4446 -0.7281
13972TIP3   OH241858   7.772   7.365   2.761  0.0690  0.6792  0.3512
13972TIP3    H141859   7.682   7.371   2.729  0.2917 -2.6223 -1.0150
13972TIP3    H241860   7.822   7.330   2.688  2.1036  0.6281  1.7254
13973TIP3   OH241861   8.369   6.729   0.437  0.7069 -0.0050  0.3347
13973TIP3    H141862   8.320   6.766   0.511  0.6259  0.3639  0.0974
13973TIP3    H241863   8.372   6.800   0.373 -2.3398 -1.4387 -1.5041
13974TIP3   OH241864   7.889   7.466   0.797 -0.3384  0.2721  0.4956
13974TIP3    H141865   7.795   7.460   0.815 -0.2296  0.9707  1.3752
13974TIP3    H241866   7.898   7.545   0.744 -0.3951 -0.5423 -0.7441
13975TIP3   OH241867   4.564   0.114   1.409 -0.0677  0.3519  0.3595
13975TIP3    H141868   4.510   0.154   1.341 -0.1430 -0.0459  0.1827
13975TIP3    H241869   4.505   0.103   1.484  0.0628  0.9577  0.5516
13976TIP3   OH241870   0.429   2.167   1.548 -0.3235 -0.1372  0.1345
13976TIP3    H141871   0.495   2.170   1.617  1.5711 -0.6153 -1.5900
13976TIP3    H241872   0.414   2.259   1.525  0.8456 -0.0784 -0.4457
13977TIP3   OH241873   4.181   0.625   3.354  0.3806 -0.3925 -0.2049
13977TIP3    H141874   4.181   0.649   3.261 -1.8144 -0.4114 -0.2433
13977TIP3    H241875   4.140   0.539   3.356  1.1267 -0.7269  0.7109
13978TIP3   OH241876   1.647   0.728   2.492  0.6467 -0.1868 -0.1130
13978TIP3    H141877   1.557   0.757   2.502  0.4004 -0.6621 -0.8877
13978TIP3    H241878   1.659   0.662   2.561  0.8413  0.8606  0.8741
13979TIP3   OH241879   1.851   1.257   1.397 -0.1962 -0.4333  0.1547
13979TIP3    H141880   1.890   1.281   1.313 -0.9922 -0.4131 -0.2166
13979TIP3    H241881   1.892   1.316   1.461 -1.4749  1.3223 -0.6086
13980TIP3   OH241882   7.468   0.827   2.231  0.3902  0.4695 -0.2112
13980TIP3    H141883   7.437   0.746   2.271  0.8796  1.2496  1.7854
13980TIP3    H241884   7.411   0.895   2.267  1.9039  1.4030  0.4606
13981TIP3   OH241885   2.976   0.974   0.751  0.5602  0.5147  0.5020
13981TIP3    H141886   2.981   0.909   0.681  0.9068  0.8558  0.2046
13981TIP3    H241887   2.904   1.031   0.726 -0.0911 -0.0650  1.0355
13982TIP3   OH241888   6.990   7.841   0.834 -0.7210 -0.4481 -0.1762
13982TIP3    H141889   7.071   7.837   0.782 -1.2318  2.7872 -1.2907
13982TIP3    H241890   6.922   7.863   0.771 -1.9850 -0.2562  1.2448
13983TIP3   OH241891   0.656   1.935   1.101 -0.0158 -0.0929  0.0784
13983TIP3    H141892   0.695   1.923   1.015 -1.5205 -0.6675 -0.5430
13983TIP3    H241893   0.633   1.847   1.130 -1.0953  0.2608  0.3116
13984TIP3   OH241894   0.782   5.306   0.474 -0.2913 -0.1682  0.1040
13984TIP3    H141895   0.760   5.393   0.440  0.2996 -0.3814 -0.8536
13984TIP3    H241896   0.722   5.247   0.428  1.0346 -0.5506 -1.2129
13985TIP3   OH241897   0.975   0.830   1.221 -0.0546 -0.0049  0.0878
13985TIP3    H141898   0.960   0.857   1.312 -0.2089  0.1602  0.0166
13985TIP3    H241899   1.066   0.802   1.219 -0.2227 -0.5971  0.4335
13986TIP3   OH241900   8.154   7.976   2.606  0.0788 -0.2162  0.3365
13986TIP3    H141901   8.160   7.891   2.563  0.3258 -1.5491  2.8951
13986TIP3    H241902   8.234   7.982   2.658 -0.2367  1.3092  0.6815
13987TIP3   OH241903   2.082   0.439   2.795 -0.0458  0.1962 -0.3362
13987TIP3    H141904   2.112   0.475   2.879  0.4934  0.0492 -0.4651
13987TIP3    H241905   2.154   0.457   2.735 -0.2602 -0.0756 -0.6691
13988TIP3   OH241906   0.271   7.390   1.744 -0.1404 -0.6214  0.2017
13988TIP3    H141907   0.204   7.322   1.739 -1.0114  0.2563 -0.0626
13988TIP3    H241908   0.311   7.377   1.830  0.0567 -1.8003 -0.0551
13989TIP3   OH241909   2.075   1.262   0.532  0.3769 -0.0094 -0.1309
13989TIP3    H141910   2.086   1.330   0.599 -0.3168  0.4654 -0.4985
13989TIP3    H241911   2.163   1.228   0.519  0.7707  0.9792 -0.1126
13990TIP3   OH241912   2.952   1.897   0.642 -0.2614  0.4527 -0.4331
13990TIP3    H141913   2.877   1.839   0.631  0.5856 -0.6090 -0.7038
13990TIP3    H241914   2.944   1.960   0.570 -0.7049  0.1452 -0.6577
13991TIP3   OH241915   0.984   2.141   1.899  0.3392  0.2445 -0.0799
13991TIP3    H141916   0.925   2.082   1.852 -0.0763  1.2615 -0.8569
13991TIP3    H241917   0.927   2.196   1.952  0.8172 -1.0016  1.7778
13992TIP3   OH241918   2.493   0.710   2.891  0.3518  0.3733 -0.6906
13992TIP3    H141919   2.568   0.662   2.926 -0.8634 -0.3816  0.9463
13992TIP3    H241920   2.439   0.642   2.851  0.3599  0.8722 -1.5576
13993TIP3   OH241921   3.767   4.339   6.913  0.1001  0.6508 -0.0756
13993TIP3    H141922   3.821   4.417   6.900  1.7622 -0.2795  1.0044
13993TIP3    H241923   3.831   4.267   6.921 -1.3918 -0.8488 -1.1836
13994TIP3   OH241924   8.202   7.384   0.409  0.4814  0.0440  0.1020
13994TIP3    H141925   8.124   7.334   0.434 -0.0567  0.9163  0.2160
13994TIP3    H241926   8.262   7.319   0.373 -0.3104 -0.6407 -0.0001
13995TIP3   OH241927   2.637   2.985   0.735  0.6736 -0.1635  0.0514
13995TIP3    H141928   2.717   3.013   0.690  0.8751  0.8661  1.0392
13995TIP3    H241929   2.667   2.953   0.820 -0.0139  0.8145  0.6731
13996TIP3   OH241930   0.843   0.875   0.189  0.8997 -0.0213 -0.0669
13996TIP3    H141931   0.758   0.869   0.232  0.7255 -0.2322 -0.4402
13996TIP3    H241932   0.856   0.969   0.176  0.0613 -0.0674 -1.3180
13997TIP3   OH241933   7.925   3.099   0.335 -0.2686  0.5413 -0.0652
13997TIP3    H141934   8.000   3.118   0.278 -1.6424  1.1040 -1.7606
13997TIP3    H241935   7.874   3.034   0.286 -0.2056 -0.8748  1.6918
13998TIP3   OH241936   6.823   7.773   0.448  0.5687  0.3333 -0.4513
13998TIP3    H141937   6.799   7.715   0.520 -0.0204  1.4955  0.3158
13998TIP3    H241938   6.853   7.715   0.379  1.0092 -0.8206  0.6831
13999TIP3   OH241939   1.606   1.210   0.727  0.7269 -0.3498  0.6756
13999TIP3    H141940   1.580   1.141   0.664 -1.1284  0.0829  0.9303
13999TIP3    H241941   1.562   1.289   0.695 -0.2881 -0.1308  2.5318
14000TIP3   OH241942   8.483   0.304   1.478 -0.6715 -0.4651  0.3261
14000TIP3    H141943   8.436   0.385   1.495 -0.3459 -0.0528 -0.7505
14000TIP3    H241944   8.415   0.243   1.448 -0.8341 -0.4517  0.6635
14001TIP3   OH241945   0.075   7.943   1.948  0.9518 -0.2582  0.4850
14001TIP3    H141946   0.086   7.943   1.853 -0.1322  0.5787  0.3383
14001TIP3    H241947  -0.010   7.987   1.961  0.8567 -0.8309  1.8037
14002TIP3   OH241948   7.754   8.036   2.647 -0.1120  0.1082 -0.2996
14002TIP3    H141949   7.661   8.032   2.623 -0.1260 -0.4435 -0.1751
14002TIP3    H241950   7.769   7.955   2.696  0.0227  1.0246  1.1743
14003TIP3   OH241951   1.774   2.788   1.766 -0.3047  0.3286 -0.4332
14003TIP3    H141952   1.753   2.817   1.855 -0.9534  0.5570 -0.6534
14003TIP3    H241953   1.869   2.787   1.762 -0.2716 -0.3781  0.4939
14004TIP3   OH241954   7.692   2.994   3.235 -0.5560  0.1912  0.4049
14004TIP3    H141955   7.780   2.965   3.262 -0.9304 -1.0716  0.2974
14004TIP3    H241956   7.671   3.064   3.297  0.0542 -0.3000  1.1954
14005TIP3   OH241957   6.904   3.068   4.985 -0.2388 -0.2716  0.2451
14005TIP3    H141958   6.860   2.983   4.975  0.4757 -0.9018  2.2160
14005TIP3    H241959   6.861   3.108   5.060  0.3246  0.5412  0.1332
14006TIP3   OH241960   2.244   3.347   1.964 -0.2977  0.6710 -0.2568
14006TIP3    H141961   2.192   3.357   1.885  1.9312 -1.1606 -2.0500
14006TIP3    H241962   2.279   3.434   1.982 -0.6862  1.0602 -1.4106
14007TIP3   OH241963   2.938   0.378   2.391  0.1700  0.0476 -0.3696
14007TIP3    H141964   2.867   0.324   2.427  0.6267 -0.2906  0.0204
14007TIP3    H241965   3.018   0.336   2.422  0.5341  0.7203 -0.4068
14008TIP3   OH241966   2.742   0.511   1.693  0.1750  0.2501  0.2857
14008TIP3    H141967   2.681   0.531   1.622  0.2874 -1.2090 -0.2358
14008TIP3    H241968   2.720   0.422   1.719  1.7165 -0.0878  0.4778
14009TIP3   OH241969   3.038   7.341   6.765  0.2421 -0.0959 -0.3626
14009TIP3    H141970   2.988   7.364   6.844  0.6346  2.4478 -0.8133
14009TIP3    H241971   2.983   7.370   6.692  1.2505  0.3942 -0.9333
14010TIP3   OH241972   1.207   3.710   1.802 -0.3898 -0.2948 -0.6325
14010TIP3    H141973   1.246   3.773   1.741 -0.7639 -0.3782 -0.9582
14010TIP3    H241974   1.139   3.666   1.751 -2.3185  1.2869  0.4912
14011TIP3   OH241975   3.139   1.745   0.782 -0.6842  1.0670 -0.6085
14011TIP3    H141976   3.124   1.743   0.688 -3.3446 -0.2196 -0.2138
14011TIP3    H241977   3.060   1.786   0.818 -0.0203  0.8766  1.1204
14012TIP3   OH241978   2.867   3.566   1.195 -0.3949  0.0515  0.1835
14012TIP3    H141979   2.807   3.506   1.239  0.4591 -0.9293  0.0389
14012TIP3    H241980   2.952   3.521   1.197  0.1368  1.0025 -0.4390
14013TIP3   OH241981   1.713   3.199   1.502  0.0201  0.1567 -0.3445
14013TIP3    H141982   1.799   3.157   1.501 -0.6393 -1.2485  0.0720
14013TIP3    H241983   1.700   3.224   1.594 -0.0757  0.2296 -0.3783
14014TIP3   OH241984   3.165   0.561   1.251 -0.5876  0.0343  0.2509
14014TIP3    H141985   3.144   0.594   1.164  0.5207 -0.3795 -0.1775
14014TIP3    H241986   3.140   0.632   1.310  3.1530  2.3193 -0.7752
14015TIP3   OH241987   4.085   0.782   2.094  0.1229  0.2295 -0.8257
14015TIP3    H141988   4.012   0.843   2.103 -0.6735 -0.8670  0.4275
14015TIP3    H241989   4.123   0.802   2.009 -1.7026  0.7830 -1.5331
14016TIP3   OH241990   1.514   0.705   0.597 -0.3162  0.2870 -0.1281
14016TIP3    H141991   1.475   0.703   0.510 -1.3339 -0.1375  0.3254
14016TIP3    H241992   1.527   0.613   0.620  0.2761  0.4083  0.0190
14017TIP3   OH241993   8.401   1.765   3.010  0.4045 -0.3864 -0.1799
14017TIP3    H141994   8.455   1.725   2.941  0.0188 -0.8380 -0.2236
14017TIP3    H241995   8.350   1.692   3.046  1.5541 -0.3765  1.4781
14018TIP3   OH241996   5.215   4.314   6.876  0.1010 -0.0303  0.1997
14018TIP3    H141997   5.257   4.399   6.862  1.3845 -0.4553  1.3819
14018TIP3    H241998   5.226   4.268   6.793  0.3754  0.5393 -0.0857
14019TIP3   OH241999   2.276   1.276   1.781  0.1797  0.3584 -0.3607
14019TIP3    H142000   2.357   1.266   1.829 -0.3061  0.0358  0.3927
14019TIP3    H242001   2.234   1.353   1.820 -0.0173  0.3450 -0.5429
14020TIP3   OH242002   1.612   2.089   1.236 -0.8266 -0.0541 -0.0499
14020TIP3    H142003   1.539   2.036   1.203 -0.7577 -0.0881 -0.1480
14020TIP3    H242004   1.655   2.033   1.300 -0.8277 -0.0722 -0.0646
14021TIP3   OH242005   5.116   4.140   5.865  0.4885 -0.1326  0.1774
14021TIP3    H142006   5.133   4.192   5.786 -1.3243  0.3939  0.1027
14021TIP3    H242007   5.077   4.058   5.831 -1.6612  0.6926  0.5713
14022TIP3   OH242008   5.920   4.251   6.273 -0.4866  0.3410  0.0839
14022TIP3    H142009   5.888   4.314   6.208 -0.0236  1.2314  0.7015
14022TIP3    H242010   5.979   4.194   6.225 -0.6356  0.6034 -0.4086
14023TIP3   OH242011   2.178   1.681   0.511 -0.5067 -0.3506  0.6814
14023TIP3    H142012   2.176   1.669   0.416 -1.7702  0.9615  0.5311
14023TIP3    H242013   2.205   1.596   0.545 -0.6697 -1.0207 -0.8169
14024TIP3   OH242014   2.193   0.366   0.645  0.2808  0.3190 -0.2853
14024TIP3    H142015   2.118   0.421   0.668  1.6553  2.9620 -1.8583
14024TIP3    H242016   2.256   0.381   0.716 -0.7854 -2.2759  1.2928
14025TIP3   OH242017   0.838   7.357   3.887 -0.0262 -0.2042 -0.1733
14025TIP3    H142018   0.800   7.432   3.841 -0.2348  0.2222  0.6738
14025TIP3    H242019   0.773   7.336   3.954 -0.9364 -2.4455 -1.7058
14026TIP3   OH242020   0.496   0.681   1.063  0.1508 -0.4858  0.0759
14026TIP3    H142021   0.550   0.613   1.023 -0.5414 -1.4093  0.6889
14026TIP3    H242022   0.493   0.657   1.156  0.7311  0.9446  0.4823
14027TIP3   OH242023   4.194   0.662   3.055 -0.2140 -0.4929 -0.0653
14027TIP3    H142024   4.134   0.648   2.982  1.1574 -3.0961 -0.7629
14027TIP3    H242025   4.281   0.648   3.017  0.5459 -1.5070  1.9858
14028TIP3   OH242026   2.328   0.038   1.763  0.6608 -0.1091 -0.1787
14028TIP3    H142027   2.277   0.119   1.772  0.2760 -0.6075  2.4539
14028TIP3    H242028   2.263  -0.032   1.769  1.3744 -0.6883  0.9037
14029TIP3   OH242029   5.740   6.177   1.064 -0.2960  0.1078 -0.7066
14029TIP3    H142030   5.780   6.162   1.149  0.6013 -3.5055 -1.7096
14029TIP3    H242031   5.652   6.209   1.085  0.0705 -0.2732  1.5561
14030TIP3   OH242032   0.604   1.273   0.171 -0.3101 -0.3288  0.2043
14030TIP3    H142033   0.566   1.230   0.247 -1.1003 -0.7289 -0.4094
14030TIP3    H242034   0.658   1.344   0.207 -0.9036 -0.3431  1.1142
14031TIP3   OH242035   8.335   3.039   0.233 -1.2121 -0.6741 -0.2424
14031TIP3    H142036   8.340   3.104   0.303  1.7170  2.1594 -2.9278
14031TIP3    H242037   8.416   2.989   0.241 -0.2583  0.4847 -2.2874
14032TIP3   OH242038   1.130   0.709   0.339  0.0496 -0.4420  0.5822
14032TIP3    H142039   1.109   0.752   0.422  0.4490 -1.4726  1.2302
14032TIP3    H242040   1.193   0.641   0.363 -0.6813 -1.4789 -0.3968
14033TIP3   OH242041   0.649   7.851   0.710  0.3978  0.1480  0.0743
14033TIP3    H142042   0.631   7.849   0.616  2.2117 -0.0881 -0.2938
14033TIP3    H242043   0.563   7.849   0.751 -0.3791 -0.9406 -1.5579
14034TIP3   OH242044   1.560   0.214   0.086 -0.0821 -0.7773 -0.0894
14034TIP3    H142045   1.496   0.284   0.069  0.7818 -0.2638 -1.2793
14034TIP3    H242046   1.644   0.260   0.091  0.2419 -1.4869  1.1802
14035TIP3   OH242047   3.012   1.360   2.362 -0.1961 -0.4481 -0.3870
14035TIP3    H142048   3.095   1.356   2.410  0.4316 -1.0995 -1.4933
14035TIP3    H242049   3.014   1.446   2.319 -0.6779  0.0617  0.6007
14036TIP3   OH242050   4.511   3.750   6.644 -0.2887  0.0626 -0.1170
14036TIP3    H142051   4.576   3.712   6.704  1.4115  1.3390 -1.0902
14036TIP3    H242052   4.533   3.843   6.640 -2.6187  0.6413  0.0227
14037TIP3   OH242053   0.009   1.622   2.283  0.2242  0.3016 -0.5373
14037TIP3    H142054   0.041   1.534   2.300 -0.3406  0.1696 -0.1333
14037TIP3    H242055   0.022   1.635   2.189  0.0032 -0.3346 -0.6586
14038TIP3   OH242056   0.604   7.899   1.336  0.1216 -0.5538 -0.0511
14038TIP3    H142057   0.578   7.990   1.349  0.9954 -0.2220 -0.6363
14038TIP3    H242058   0.692   7.904   1.299  1.0648 -1.6636  1.9678
14039TIP3   OH242059   2.310   0.164   2.691  0.0708 -0.2848  0.1920
14039TIP3    H142060   2.227   0.146   2.647  0.0275  2.5438 -1.0346
14039TIP3    H242061   2.372   0.103   2.651 -0.9095 -0.7408 -0.6624
14040TIP3   OH242062   7.503   7.594   1.282  0.6284 -0.1476  0.3438
14040TIP3    H142063   7.449   7.583   1.204 -0.0886  2.8849  0.3576
14040TIP3    H242064   7.532   7.505   1.304 -1.6428 -1.4086 -1.5791
14041TIP3   OH242065   1.782   1.778   0.203 -0.0413  0.6152 -0.2032
14041TIP3    H142066   1.834   1.800   0.280  2.2387 -0.0727 -1.4791
14041TIP3    H242067   1.742   1.693   0.224  2.1736 -0.5461 -0.4689
14042TIP3   OH242068   5.696   2.652   6.371  0.7542 -0.5404 -0.2523
14042TIP3    H142069   5.710   2.560   6.350 -0.3512 -0.4640 -1.3298
14042TIP3    H242070   5.701   2.656   6.467  2.0678 -1.4929 -0.2644
14043TIP3   OH242071   0.770   1.058   0.961 -0.5904 -0.4571  0.6715
14043TIP3    H142072   0.690   1.102   0.932  0.1923  0.4576 -0.1120
14043TIP3    H242073   0.831   1.068   0.888  0.1261 -1.4749  1.1161
14044TIP3   OH242074   0.730   7.705   0.954  0.2860  0.2548  0.3480
14044TIP3    H142075   0.667   7.756   1.005 -0.6457 -0.7382  0.2046
14044TIP3    H242076   0.719   7.735   0.864  0.4916  0.5603  0.4256
14045TIP3   OH242077   2.403   3.461   1.126 -0.1377  0.0545 -0.0223
14045TIP3    H142078   2.381   3.370   1.148 -1.5898  0.2581 -0.5834
14045TIP3    H242079   2.444   3.496   1.205 -0.2227 -0.8741  0.4395
14046TIP3   OH242080   0.265   1.958   1.522 -0.2090  0.4810  0.4031
14046TIP3    H142081   0.318   2.038   1.524  1.2700 -0.4399 -0.9619
14046TIP3    H242082   0.180   1.985   1.557  0.6800  2.3330  1.2086
14047TIP3   OH242083   3.291   4.432   6.321  0.1941 -0.2017 -0.4277
14047TIP3    H142084   3.214   4.469   6.362 -0.4079 -1.1476 -0.6894
14047TIP3    H242085   3.342   4.508   6.292  0.0438  0.4477  0.9764
14048TIP3   OH242086   0.838   2.107   2.467 -0.4018  0.0056 -0.0657
14048TIP3    H142087   0.925   2.103   2.506  0.1479  5.0060 -0.5439
14048TIP3    H242088   0.851   2.147   2.381 -3.1257  0.7584 -0.1808
14049TIP3   OH242089   7.882   7.903   2.962  0.1943  0.6173  0.5458
14049TIP3    H142090   7.843   7.988   2.943 -0.6298  0.3366  0.9048
14049TIP3    H242091   7.835   7.842   2.905 -0.7384  0.1015  1.8326
14050TIP3   OH242092   3.100   2.052   1.147 -0.3425  0.0378 -0.2754
14050TIP3    H142093   3.017   2.036   1.102 -0.4454 -2.9516  0.8326
14050TIP3    H242094   3.094   2.000   1.227  1.5842  1.8154  1.0667
14051TIP3   OH242095   8.042   7.622   0.358 -0.0336  0.1430 -0.4982
14051TIP3    H142096   7.961   7.649   0.402 -0.5331 -1.5279 -0.3560
14051TIP3    H242097   8.082   7.559   0.419  0.3760 -0.5326 -1.4598
14052TIP3   OH242098   4.588   1.046   0.637  0.4691  0.3054 -0.0519
14052TIP3    H142099   4.622   1.034   0.548 -0.0682  0.2103 -0.2419
14052TIP3    H242100   4.503   1.003   0.637  0.4128  0.4101  0.4757
14053TIP3   OH242101   4.167   0.337   0.152  0.4337 -0.0357 -0.0321
14053TIP3    H142102   4.101   0.367   0.214  1.1514  0.9981  0.2385
14053TIP3    H242103   4.142   0.247   0.132 -0.9984  0.3144  0.1432
14054TIP3   OH242104   1.605   0.434   0.335  0.3202  0.9704 -0.3802
14054TIP3    H142105   1.573   0.417   0.424 -0.3627  1.1775 -0.5867
14054TIP3    H242106   1.661   0.359   0.315  1.3650  1.4572  0.6504
14055TIP3   OH242107   6.945   7.684   1.277  0.4167  0.0449 -0.4461
14055TIP3    H142108   6.982   7.616   1.222 -1.3134 -0.5934 -0.8747
14055TIP3    H242109   6.897   7.741   1.217 -0.7982 -0.1884  0.2773
14056TIP3   OH242110   1.358   0.107   1.406 -0.2787 -0.5238 -0.2628
14056TIP3    H142111   1.433   0.099   1.348 -0.7855 -0.3001 -0.9604
14056TIP3    H242112   1.395   0.135   1.489  0.4343 -0.6305 -0.5379
14057TIP3   OH242113   0.459   0.617   1.972  0.1957  0.2253  0.2651
14057TIP3    H142114   0.419   0.682   2.030  1.7806  2.6557 -1.2840
14057TIP3    H242115   0.385   0.567   1.937 -0.9482  0.2457  2.5518
14058TIP3   OH242116   4.075   1.840   0.906 -0.1959  0.4740 -0.3924
14058TIP3    H142117   4.036   1.756   0.933 -0.6243  0.4173 -1.1800
14058TIP3    H242118   4.068   1.895   0.985 -0.2127 -0.1235  0.0284
14059TIP3   OH242119   2.912   3.320   0.499 -0.2964 -0.1374  0.0283
14059TIP3    H142120   2.824   3.357   0.492 -0.1837 -0.0123 -0.8905
14059TIP3    H242121   2.929   3.284   0.412  0.6342  0.0186  0.1408
14060TIP3   OH242122   2.159   1.143   0.825  0.0099 -0.3893  1.2520
14060TIP3    H142123   2.073   1.175   0.800  0.3961 -0.8231 -0.7098
14060TIP3    H242124   2.210   1.223   0.842 -0.3238 -0.0870  0.8487
14061TIP3   OH242125   5.382   7.502   1.366 -0.0232 -0.2089 -0.5679
14061TIP3    H142126   5.357   7.412   1.345 -1.0709 -0.3504  1.2305
14061TIP3    H242127   5.478   7.500   1.369 -0.0749 -1.5226  0.4974
14062TIP3   OH242128   1.924   1.451   2.639 -0.4822  0.5339  0.2268
14062TIP3    H142129   1.974   1.377   2.673  1.5540  1.7064 -0.1618
14062TIP3    H242130   1.868   1.478   2.712 -1.4636 -1.5662  0.2674
14063TIP3   OH242131   3.989   2.768   0.539 -0.0126 -0.1455 -0.2927
14063TIP3    H142132   4.026   2.713   0.608  1.0050 -0.8269 -1.3688
14063TIP3    H242133   3.908   2.724   0.514  0.3030 -0.6288 -0.4679
14064TIP3   OH242134   4.148   0.154   2.537  0.4524  0.3106 -0.4764
14064TIP3    H142135   4.084   0.116   2.598 -1.1509  0.4798 -2.0096
14064TIP3    H242136   4.169   0.240   2.574 -0.3064  0.3099 -0.0376
14065TIP3   OH242137   2.218   1.591   2.165  0.4916 -0.0293 -0.1411
14065TIP3    H142138   2.191   1.591   2.256  0.0261 -1.3369 -0.2703
14065TIP3    H242139   2.296   1.535   2.162  1.0485  0.7436 -0.3968
14066TIP3   OH242140   8.084   1.956   2.119  0.5787 -0.2729  0.1967
14066TIP3    H142141   8.114   1.923   2.035 -0.6011  1.6122 -0.9863
14066TIP3    H242142   8.065   1.877   2.170 -0.5267 -1.4461 -1.9586
14067TIP3   OH242143   1.504   1.166   0.973  0.0479  0.5483  0.1724
14067TIP3    H142144   1.476   1.076   0.991  3.2842 -0.5374  0.2854
14067TIP3    H242145   1.505   1.173   0.878 -2.1914  1.1676  0.1810
14068TIP3   OH242146   0.733   0.817   1.679  0.4029 -0.2676 -0.3322
14068TIP3    H142147   0.827   0.820   1.697  0.4040  0.7019 -0.5075
14068TIP3    H242148   0.717   0.890   1.620 -0.6519  0.2000  0.5249
14069TIP3   OH242149   3.770   4.777   5.277  0.2402 -0.1573 -0.0086
14069TIP3    H142150   3.697   4.817   5.230 -1.0492 -2.3806  0.0182
14069TIP3    H242151   3.838   4.765   5.211 -0.8510 -1.5257 -0.9108
14070TIP3   OH242152   1.677   0.941   3.468 -0.1893 -0.2626  0.3213
14070TIP3    H142153   1.744   0.875   3.488 -1.3056 -1.5950 -0.2391
14070TIP3    H242154   1.645   0.968   3.554  0.6818 -0.0071  0.5784
14071TIP3   OH242155   1.305   0.261   0.324  0.0315 -0.0253  0.3767
14071TIP3    H142156   1.212   0.265   0.345  0.0414  0.5794  0.3072
14071TIP3    H242157   1.326   0.348   0.289  0.3937 -0.4657 -0.5347
14072TIP3   OH242158   2.414   3.807   0.878  0.0468  0.4066  0.3272
14072TIP3    H142159   2.339   3.865   0.877 -0.1670  0.1447 -1.7432
14072TIP3    H242160   2.432   3.789   0.786  0.0168 -2.9193  0.8921
14073TIP3   OH242161   4.944   5.350   4.425 -0.0620  0.6514 -0.1928
14073TIP3    H142162   4.942   5.283   4.493  0.2252  0.8736  0.0392
14073TIP3    H242163   5.021   5.403   4.446  0.2312  0.5039 -0.9043
14074TIP3   OH242164   1.246   2.099   1.927  0.2258 -0.3979 -0.0946
14074TIP3    H142165   1.293   2.104   1.843 -0.2406 -2.7621 -0.5077
14074TIP3    H242166   1.154   2.108   1.904  0.1196 -0.7037  0.2043
14075TIP3   OH242167   3.517   3.488   0.237  0.0082 -0.0986 -0.7953
14075TIP3    H142168   3.476   3.517   0.156 -1.2645  0.9522  0.2096
14075TIP3    H242169   3.600   3.536   0.240 -0.2920  0.4458 -1.0968
14076TIP3   OH242170   1.911   3.754   1.175 -0.4802 -0.2067 -0.1724
14076TIP3    H142171   1.907   3.815   1.101  2.0202  0.5367  0.2701
14076TIP3    H242172   1.991   3.704   1.161 -0.8459 -1.1937  1.1843
14077TIP3   OH242173   6.147   5.217   4.441 -0.2219  0.9293  0.5950
14077TIP3    H142174   6.199   5.297   4.439 -0.5060  1.1203  0.7325
14077TIP3    H242175   6.082   5.228   4.371  1.8939 -0.6727 -1.6967
14078TIP3   OH242176   5.266   4.827   5.544 -0.1278  0.4911  0.3809
14078TIP3    H142177   5.335   4.809   5.609 -0.1705 -0.9112  0.0520
14078TIP3    H242178   5.238   4.741   5.515 -1.2195  1.0895 -0.3540
14079TIP3   OH242179   0.869   0.789   0.953 -0.0824  0.0281 -0.3126
14079TIP3    H142180   0.902   0.835   1.030  1.7575 -0.0277 -1.0514
14079TIP3    H242181   0.807   0.851   0.913 -0.8410  0.1660  1.0280
14080TIP3   OH242182   7.589   3.504   2.727  0.0994  0.1417 -0.4368
14080TIP3    H142183   7.517   3.565   2.746 -0.2656  0.0536 -1.5119
14080TIP3    H242184   7.603   3.512   2.633  0.7622 -0.6608 -0.4087
14081TIP3   OH242185   2.802   0.102   0.511  0.1961 -0.2533 -0.1637
14081TIP3    H142186   2.888   0.060   0.502 -0.2822 -1.1139 -0.7444
14081TIP3    H242187   2.750   0.067   0.439 -0.3365  1.0598 -0.4348
14082TIP3   OH242188   3.329   4.553   2.657 -0.2685  0.1845  0.3235
14082TIP3    H142189   3.247   4.598   2.678 -0.5953 -0.8174  1.2436
14082TIP3    H242190   3.354   4.509   2.738 -0.0963 -1.4959 -0.6276
14083TIP3   OH242191   3.124   0.051   0.751  0.1207 -0.0722  0.4928
14083TIP3    H142192   3.100   0.140   0.777 -2.2628 -0.4098 -0.4367
14083TIP3    H242193   3.153   0.060   0.660 -1.7801 -0.4700 -0.1774
14084TIP3   OH242194   2.172   2.497   2.660 -0.0455  0.0905  0.3672
14084TIP3    H142195   2.080   2.519   2.642 -0.2968 -1.0999  0.1863
14084TIP3    H242196   2.219   2.525   2.582 -0.3643  0.0062  0.1436
14085TIP3   OH242197   8.500   2.042   1.525  0.5594 -0.0372 -0.0739
14085TIP3    H142198   8.411   2.016   1.501  1.2468  0.5764 -3.5266
14085TIP3    H242199   8.488   2.105   1.595 -1.6023 -1.6940  1.1280
14086TIP3   OH242200   8.286   2.030   0.880 -0.4089 -0.1942  0.0405
14086TIP3    H142201   8.209   2.017   0.825  1.9780 -0.4407 -3.3813
14086TIP3    H242202   8.267   2.110   0.929 -2.6114  0.0376 -1.1135
14087TIP3   OH242203   4.688   2.048   1.611  0.4289 -0.0293  0.0217
14087TIP3    H142204   4.637   2.047   1.530  0.3341  1.1798  0.0651
14087TIP3    H242205   4.687   1.956   1.641  0.1747 -0.4115 -1.1519
14088TIP3   OH242206   4.941   4.532   6.045  0.1980 -0.2289 -0.5959
14088TIP3    H142207   4.948   4.437   6.052  0.9140 -0.0810  0.7477
14088TIP3    H242208   4.954   4.564   6.134  1.9056  1.2487 -1.3481
14089TIP3   OH242209   5.044   3.349   6.950 -0.4872  0.1767  0.0602
14089TIP3    H142210   5.028   3.373   6.858  1.1477  0.1285 -0.2461
14089TIP3    H242211   5.108   3.413   6.980  0.9749 -1.4296  0.3955
14090TIP3   OH242212   3.626   3.389   6.825 -0.0436  0.3845 -0.3761
14090TIP3    H142213   3.706   3.391   6.773  0.1355  0.9657 -0.0809
14090TIP3    H242214   3.570   3.455   6.785 -0.9215 -0.9957 -1.4496
14091TIP3   OH242215   1.359   1.531   0.335 -0.1500 -0.1828 -0.7268
14091TIP3    H142216   1.264   1.544   0.340 -0.2128 -0.4885 -1.1017
14091TIP3    H242217   1.381   1.554   0.245  0.5500  2.6146  0.0908
14092TIP3   OH242218   6.490   5.453   6.883  0.6056  0.0646  0.2556
14092TIP3    H142219   6.524   5.417   6.801 -0.5233 -0.2915 -0.0639
14092TIP3    H242220   6.404   5.413   6.893  0.3037  0.9078  1.0897
14093TIP3   OH242221   5.143   7.512   2.760 -0.5168 -1.0056 -0.1958
14093TIP3    H142222   5.176   7.422   2.756 -0.5660 -0.9517 -1.9273
14093TIP3    H242223   5.172   7.552   2.678 -0.8216  0.4565  0.3929
14094TIP3   OH242224   2.189   0.755   1.301 -0.0842  0.0092  0.1135
14094TIP3    H142225   2.154   0.798   1.223 -1.0613  0.6879  0.9042
14094TIP3    H242226   2.263   0.809   1.327 -0.4231  0.4056  0.2705
14095TIP3   OH242227   1.231   1.901   2.965 -0.7706 -0.6423 -0.3910
14095TIP3    H142228   1.178   1.825   2.940  1.0288 -1.6847 -1.1431
14095TIP3    H242229   1.310   1.863   3.003 -0.8064  0.9001  1.3114
14096TIP3   OH242230   6.620   7.658   0.900  0.1515 -0.9894 -0.5896
14096TIP3    H142231   6.625   7.579   0.953  0.0456  0.7458  2.1053
14096TIP3    H242232   6.527   7.668   0.880 -0.3114  0.3367  2.0790
14097TIP3   OH242233   3.688   2.417   0.983 -0.1541 -0.4620  0.4938
14097TIP3    H142234   3.664   2.498   0.937  1.7499  0.7844  1.5912
14097TIP3    H242235   3.726   2.362   0.915  1.2785  0.7779  0.2439
14098TIP3   OH242236   2.677   1.425   1.069  0.1194  0.1461 -0.6001
14098TIP3    H142237   2.700   1.517   1.086  2.0975 -0.5699  0.7743
14098TIP3    H242238   2.627   1.399   1.146 -1.2810  0.3298 -1.4329
14099TIP3   OH242239   2.440   6.682   1.562 -0.0658 -0.6708  0.4097
14099TIP3    H142240   2.472   6.680   1.472 -2.0525 -1.0400 -0.3054
14099TIP3    H242241   2.508   6.637   1.613  1.6411  0.5787 -0.6901
14100TIP3   OH242242   1.109   1.076   1.335 -0.2195 -0.1234 -0.4121
14100TIP3    H142243   1.066   1.047   1.416 -0.7923 -0.3579 -0.7982
14100TIP3    H242244   1.078   1.165   1.322  2.2760  1.0484  1.2858
14101TIP3   OH242245   7.547   7.661   0.234 -0.1049 -0.5835 -0.0965
14101TIP3    H142246   7.477   7.623   0.182 -0.7904  0.4395  0.0642
14101TIP3    H242247   7.594   7.718   0.174  1.3752 -2.1887 -0.5302
14102TIP3   OH242248   1.710   2.186   3.335 -0.0686  0.2867 -0.3919
14102TIP3    H142249   1.727   2.268   3.381  0.0553 -0.7299  1.4303
14102TIP3    H242250   1.797   2.153   3.313 -0.1732  1.5665 -2.8434
14103TIP3   OH242251   2.711   0.226   1.785 -0.2200  0.3213 -0.6991
14103TIP3    H142252   2.733   0.190   1.698 -0.3050  2.3192 -1.5862
14103TIP3    H242253   2.616   0.236   1.784 -0.2887 -0.2921 -0.1192
14104TIP3   OH242254   8.017   7.509   2.866 -0.5370 -0.2578 -0.2336
14104TIP3    H142255   8.112   7.501   2.860 -0.3628  0.9450  0.6229
14104TIP3    H242256   7.984   7.462   2.789  0.6733 -1.8697  0.1975
14105TIP3   OH242257   8.291   7.541   0.987 -0.2809 -0.5955  0.2182
14105TIP3    H142258   8.294   7.541   0.891 -0.9760 -0.8306  0.1922
14105TIP3    H242259   8.199   7.555   1.008  0.0776  0.8697  0.8754
14106TIP3   OH242260   2.213   1.376   1.381 -0.1617 -0.5934 -0.8748
14106TIP3    H142261   2.284   1.439   1.380  0.2104 -1.0088 -0.7891
14106TIP3    H242262   2.138   1.425   1.416  0.1620 -0.2446 -0.6680
14107TIP3   OH242263   3.253   1.634   1.720  0.2785 -0.2005  0.0233
14107TIP3    H142264   3.217   1.556   1.678 -0.5161 -0.5189  1.2715
14107TIP3    H242265   3.179   1.670   1.769  1.2820 -0.0107  1.3873
14108TIP3   OH242266   1.938   1.708   1.698 -0.7606  0.0483 -0.3089
14108TIP3    H142267   1.861   1.763   1.680 -0.3462  1.0177  0.8240
14108TIP3    H242268   2.007   1.771   1.721  0.1715 -0.8611 -0.6020
14109TIP3   OH242269   4.364   4.958   4.988 -0.1081  0.0013  0.0828
14109TIP3    H142270   4.400   4.989   4.906  0.7754  0.9611  0.8202
14109TIP3    H242271   4.269   4.960   4.976  0.0214  0.1673 -0.8928
14110TIP3   OH242272   2.515   0.637   1.861  0.2946  0.2204 -0.1359
14110TIP3    H142273   2.592   0.692   1.842 -1.7864  2.5301 -2.4222
14110TIP3    H242274   2.491   0.660   1.951  1.0587  1.0704 -0.1354
14111TIP3   OH242275   1.291   3.477   0.702  0.1221 -0.0949  0.1160
14111TIP3    H142276   1.263   3.534   0.774 -1.2035  0.5165 -0.8530
14111TIP3    H242277   1.290   3.389   0.739  1.9654  0.4812  1.5623
14112TIP3   OH242278   2.025   0.532   0.304 -0.0414  0.2139  0.1551
14112TIP3    H142279   2.059   0.551   0.216  0.4350  1.5814  0.6306
14112TIP3    H242280   1.948   0.477   0.288  0.8357 -0.7132 -1.0566
14113TIP3   OH242281   3.121   1.930   1.387 -0.0260 -0.0978  0.1939
14113TIP3    H142282   3.191   1.911   1.449  0.2962  0.0476 -0.1264
14113TIP3    H242283   3.055   1.976   1.439  0.9359  1.4357  0.0753
14114TIP3   OH242284   7.434   6.912   0.714 -0.1129  0.2192  0.1684
14114TIP3    H142285   7.417   6.979   0.780 -0.2523  0.6094 -0.2678
14114TIP3    H242286   7.348   6.891   0.677 -0.6855 -3.0264  3.0172
14115TIP3   OH242287   3.547   0.357   0.795 -0.4831  0.1641 -0.2322
14115TIP3    H142288   3.577   0.445   0.773  1.2526 -0.9712 -2.5601
14115TIP3    H242289   3.591   0.337   0.878 -0.9626  1.4974  0.3647
14116TIP3   OH242290   3.707   0.562   1.067 -0.4067 -0.4320  0.1724
14116TIP3    H142291   3.740   0.473   1.050  2.1083  0.1712  1.7033
14116TIP3    H242292   3.699   0.601   0.980  1.6335 -1.0996 -0.3538
14117TIP3   OH242293   1.277   0.411   1.818 -0.6773  0.0463 -0.5534
14117TIP3    H142294   1.353   0.431   1.764  0.6908 -1.2446  0.8266
14117TIP3    H242295   1.227   0.347   1.767  0.3808 -0.8464 -0.4943
14118TIP3   OH242296   7.500   5.674   6.406  0.4402  0.1216  0.1078
14118TIP3    H142297   7.585   5.691   6.447  0.5515  0.5259 -0.2992
14118TIP3    H242298   7.436   5.699   6.473  0.6303  0.4005  0.1861
14119TIP3   OH242299   7.110   4.603   6.958  0.6633 -0.2157  0.4099
14119TIP3    H142300   7.163   4.563   6.890  2.0062  0.3453  1.1145
14119TIP3    H242301   7.035   4.544   6.968  1.6313 -1.5070  0.0791
14120TIP3   OH242302   7.530   7.393   1.654 -0.4184 -0.2716  0.2571
14120TIP3    H142303   7.511   7.486   1.653  1.2542  0.0677 -0.2048
14120TIP3    H242304   7.455   7.353   1.611 -0.5683  0.9624 -0.6422
14121TIP3   OH242305   2.172   2.361   1.727  0.1039 -0.3526  0.7001
14121TIP3    H142306   2.234   2.380   1.797 -0.1564 -0.0279  0.8464
14121TIP3    H242307   2.114   2.437   1.726  1.1039  0.4200 -0.9521
14122TIP3   OH242308   4.091   0.098   3.324 -0.5348 -0.0994  0.1485
14122TIP3    H142309   4.074   0.012   3.364  1.0095 -1.4166 -1.8990
14122TIP3    H242310   4.186   0.108   3.331 -0.6547  1.2358 -0.0851
14123TIP3   OH242311   2.877   1.049   1.525  0.1255 -0.6011 -0.8031
14123TIP3    H142312   2.833   0.971   1.490 -2.3254  0.5298 -0.3611
14123TIP3    H242313   2.893   1.104   1.449  1.6469 -1.4200 -1.0860
14124TIP3   OH242314   2.513   2.035   2.313  0.2434  0.1060  0.1199
14124TIP3    H142315   2.601   2.017   2.281  0.5665  0.8056  0.5961
14124TIP3    H242316   2.526   2.085   2.393 -0.5883  0.5908 -0.0376
14125TIP3   OH242317   3.880   0.483   0.572 -0.3580 -0.0883  0.0472
14125TIP3    H142318   3.845   0.417   0.631  0.1496  0.7140  1.2553
14125TIP3    H242319   3.890   0.437   0.488 -1.0930 -1.2214  0.5688
14126TIP3   OH242320   5.974   2.270   2.982 -0.4245  0.0043 -0.2377
14126TIP3    H142321   5.926   2.202   2.934 -2.8005  1.0292  0.5689
14126TIP3    H242322   5.961   2.349   2.930 -0.3532  0.4637  0.4317
14127TIP3   OH242323   3.747   0.883   0.958  0.0911 -0.6329 -0.1366
14127TIP3    H142324   3.839   0.908   0.952  0.5354 -1.8845  1.3222
14127TIP3    H242325   3.723   0.902   1.048 -1.0990 -0.2814 -0.5208
14128TIP3   OH242326   0.795   7.656   1.559  0.1801 -0.1420  0.2423
14128TIP3    H142327   0.777   7.664   1.653 -0.7237  1.8630 -0.0911
14128TIP3    H242328   0.868   7.715   1.543  0.2870 -0.4284 -0.3479
14129TIP3   OH242329   0.635   7.887   1.667 -0.2110 -0.5467  0.4408
14129TIP3    H142330   0.618   7.843   1.584 -0.3504  0.7866 -0.2470
14129TIP3    H242331   0.555   7.873   1.718  0.5464 -2.8775  1.0477
14130TIP3   OH242332   6.220   6.554   1.608 -0.1656 -0.6461  0.5059
14130TIP3    H142333   6.282   6.627   1.608  1.4219 -1.9743  0.8590
14130TIP3    H242334   6.246   6.500   1.533 -2.4954  0.0810 -0.8865
14131TIP3   OH242335   7.318   6.445   2.325  0.5654  0.7883  0.3499
14131TIP3    H142336   7.343   6.388   2.252 -0.7105  0.5054  0.1302
14131TIP3    H242337   7.384   6.515   2.324  0.6693  0.6871 -0.9505
14132TIP3   OH242338   0.877   1.630   1.241 -0.4540  0.0365 -0.4233
14132TIP3    H142339   0.788   1.621   1.205 -1.8661 -0.6260  3.0409
14132TIP3    H242340   0.871   1.593   1.329  3.5015 -0.7650 -0.4004
14133TIP3   OH242341   5.283   7.138   0.907  0.1874  0.2823  0.1470
14133TIP3    H142342   5.249   7.071   0.967  0.3072  0.0891  0.0030
14133TIP3    H242343   5.227   7.131   0.830  0.5144  0.0024 -0.0678
14134TIP3   OH242344   0.885   1.191   1.207 -0.3776  0.3101 -0.4743
14134TIP3    H142345   0.794   1.189   1.177 -1.0678  0.2413  1.5638
14134TIP3    H242346   0.913   1.100   1.204 -1.0277  0.0503  0.7499
14135TIP3   OH242347   0.116   7.625   2.717 -0.1856 -0.2751  0.1982
14135TIP3    H142348   0.076   7.545   2.682  0.2491 -0.6482  0.5572
14135TIP3    H242349   0.209   7.616   2.697 -0.2927  0.6687 -0.7822
14136TIP3   OH242350   2.359   2.156   0.800  0.2737  0.0546 -0.1272
14136TIP3    H142351   2.354   2.197   0.714  1.2378 -0.2892 -0.3562
14136TIP3    H242352   2.441   2.107   0.798  0.1019 -0.2814  0.8464
14137TIP3   OH242353   0.417   1.191   2.582 -0.4244 -0.3217  0.6318
14137TIP3    H142354   0.425   1.260   2.516 -4.4165 -1.0041 -0.7433
14137TIP3    H242355   0.364   1.231   2.651 -3.4669 -2.1546 -0.5513
14138TIP3   OH242356   3.266   4.179   0.796  0.0761 -0.1791 -0.1032
14138TIP3    H142357   3.216   4.107   0.758 -1.2514  1.0834 -0.7780
14138TIP3    H242358   3.280   4.240   0.724 -0.7022  1.2601  0.9356
14139TIP3   OH242359   3.044   1.759   1.835  0.0253 -0.8514  0.4214
14139TIP3    H142360   3.044   1.854   1.817  1.4060 -0.7102  1.0996
14139TIP3    H242361   2.952   1.733   1.825 -0.6126  0.8343  1.6231
14140TIP3   OH242362   0.133   7.944   0.211  0.2245 -0.3074  0.0154
14140TIP3    H142363   0.189   7.979   0.141 -0.1981  0.9070  0.2904
14140TIP3    H242364   0.157   7.994   0.289 -1.8890  0.8786 -0.0530
14141TIP3   OH242365   1.451   3.154   2.827  0.3195  0.1205  0.1987
14141TIP3    H142366   1.512   3.221   2.795  0.1015  1.0829  1.7442
14141TIP3    H242367   1.398   3.200   2.893 -2.2030 -0.6425 -1.2308
14142TIP3   OH242368   2.697   3.695   0.238  0.1112  0.1130 -0.3943
14142TIP3    H142369   2.749   3.646   0.175  0.1937 -0.1210 -0.1440
14142TIP3    H242370   2.746   3.690   0.320  0.4071  1.0885 -0.4982
14143TIP3   OH242371   0.496   2.768   1.584 -0.3675 -0.1312  0.5992
14143TIP3    H142372   0.473   2.791   1.494 -2.9393  1.3606  1.5728
14143TIP3    H242373   0.591   2.772   1.587 -0.3643  3.0051 -1.2602
14144TIP3   OH242374   0.004   0.540   2.830  0.1357 -0.4427 -0.3587
14144TIP3    H142375   0.090   0.561   2.866  0.3123 -0.9497 -0.4714
14144TIP3    H242376   0.020   0.525   2.736  0.0487 -1.1970 -0.2629
14145TIP3   OH242377   3.913   2.743   2.321 -0.2519 -0.0508 -1.0815
14145TIP3    H142378   3.988   2.693   2.353  0.3508  0.0077 -2.3611
14145TIP3    H242379   3.952   2.813   2.268 -1.0528  1.9538  0.8720
14146TIP3   OH242380   2.149   4.147   2.657 -0.2112 -0.1266 -0.4478
14146TIP3    H142381   2.161   4.199   2.578  0.8257  0.2179 -0.0720
14146TIP3    H242382   2.117   4.209   2.723 -1.1260 -0.4233 -0.6133
14147TIP3   OH242383   3.971   4.215   2.138 -0.6820 -0.0362  0.1252
14147TIP3    H142384   3.930   4.279   2.080  0.1676  0.4284  0.0306
14147TIP3    H242385   4.054   4.193   2.095  0.0741  0.5038  1.2771
14148TIP3   OH242386   1.467   2.612   2.708  0.3656 -0.3603  0.2434
14148TIP3    H142387   1.430   2.657   2.632 -0.0892 -0.8534  0.1731
14148TIP3    H242388   1.392   2.572   2.752  0.9382 -2.5073 -0.6500
14149TIP3   OH242389   1.370   1.476   1.922 -0.1003  0.3667 -0.6538
14149TIP3    H142390   1.387   1.391   1.964 -1.0162  0.8117  0.6435
14149TIP3    H242391   1.406   1.466   1.834 -0.4528 -1.4841 -0.6236
14150TIP3   OH242392   2.685   0.811   0.734 -0.3318  0.2220  1.0183
14150TIP3    H142393   2.663   0.904   0.733 -2.0428 -0.1591 -0.8846
14150TIP3    H242394   2.730   0.796   0.650 -0.5263 -0.7634  1.0770
14151TIP3   OH242395   3.185   2.305   1.634  0.5892 -0.0532  0.0596
14151TIP3    H142396   3.108   2.346   1.594  0.4899  0.4435  0.7508
14151TIP3    H242397   3.198   2.353   1.716  1.0141 -0.8097  0.4453
14152TIP3   OH242398   1.439   0.390   1.605 -0.2762  0.1304 -0.0399
14152TIP3    H142399   1.463   0.304   1.639 -0.6549 -0.5038 -1.3035
14152TIP3    H242400   1.510   0.412   1.545 -0.3677  0.5291  0.0014
14153TIP3   OH242401   7.174   7.831   0.617 -0.4178  0.2511  0.4152
14153TIP3    H142402   7.198   7.889   0.546 -0.4909  1.4704  1.3713
14153TIP3    H242403   7.152   7.748   0.574 -1.4030  1.2536 -1.0458
14154TIP3   OH242404   7.645   4.453   2.560 -0.3635 -0.0057  0.3840
14154TIP3    H142405   7.579   4.486   2.499  0.6139  1.0153 -0.1283
14154TIP3    H242406   7.625   4.496   2.643 -0.3495  0.2955  0.2318
14155TIP3   OH242407   2.110   2.300   1.274  0.1253 -0.1926  0.2501
14155TIP3    H142408   2.057   2.376   1.297 -0.6766 -0.1609 -1.6177
14155TIP3    H242409   2.113   2.300   1.179  0.1605 -2.4684  0.2151
14156TIP3   OH242410   5.137   1.901   6.801  0.0503 -0.2255  0.2654
14156TIP3    H142411   5.100   1.897   6.889  1.0413  1.1265  0.7426
14156TIP3    H242412   5.065   1.934   6.747 -1.5086 -3.7925  0.0008
14157TIP3   OH242413   1.888   1.018   0.558  0.6597  0.0468  0.0064
14157TIP3    H142414   1.817   1.007   0.621 -0.0115 -1.3060 -0.9774
14157TIP3    H242415   1.893   1.112   0.543 -0.6636  0.1766  0.3698
14158TIP3   OH242416   6.889   7.498   0.329  0.5027 -0.2998  0.4177
14158TIP3    H142417   6.869   7.453   0.247  0.0078 -0.3308  0.5517
14158TIP3    H242418   6.974   7.465   0.355  0.4328 -0.6685  0.1765
14159TIP3   OH242419   1.345   1.908   0.275 -0.6691  0.8242  0.3593
14159TIP3    H142420   1.423   1.963   0.272  0.6457 -1.0196 -0.4982
14159TIP3    H242421   1.332   1.879   0.184 -0.5848 -1.2611  0.9815
14160TIP3   OH242422   1.241   2.916   0.968 -0.2948 -0.8437  0.4857
14160TIP3    H142423   1.171   2.855   0.990  0.0772 -0.5261  2.6210
14160TIP3    H242424   1.322   2.870   0.992  0.0388  0.1000  1.1866
14161TIP3   OH242425   4.187   0.256   0.876  0.4504  0.0265 -0.3054
14161TIP3    H142426   4.206   0.341   0.836  0.7647 -0.3193 -0.9109
14161TIP3    H242427   4.098   0.264   0.908  0.5918  0.6938 -0.0727
14162TIP3   OH242428   0.413   3.804   1.109 -0.0482 -0.1023 -0.1762
14162TIP3    H142429   0.413   3.885   1.160 -0.0205 -0.6886  0.7748
14162TIP3    H242430   0.505   3.790   1.086  0.1348 -0.5594  0.8025
14163TIP3   OH242431   2.722   3.041   0.314  0.0454  0.4230  0.1357
14163TIP3    H142432   2.726   2.959   0.364 -0.8511 -0.5683 -1.3584
14163TIP3    H242433   2.650   3.090   0.353 -0.1665 -0.0087  0.2893
14164TIP3   OH242434   3.231   2.420   1.868  0.3326 -0.3121  0.2694
14164TIP3    H142435   3.313   2.400   1.912  0.0992  0.8424  1.2477
14164TIP3    H242436   3.196   2.496   1.915  0.1314  1.0187 -1.9777
14165TIP3   OH242437   6.658   5.160   5.769 -0.6413  0.6071  0.5851
14165TIP3    H142438   6.653   5.111   5.850  1.6335  2.0048  1.6180
14165TIP3    H242439   6.722   5.114   5.716 -0.9111  0.6202  0.2456
14166TIP3   OH242440   5.553   1.357   3.215 -0.0901  0.4075  0.0914
14166TIP3    H142441   5.576   1.399   3.132 -0.6827 -0.3574 -0.4734
14166TIP3    H242442   5.569   1.264   3.199  0.7207  0.3524  1.1556
14167TIP3   OH242443   2.576   1.332   1.588  0.1698 -0.1725  0.0064
14167TIP3    H142444   2.642   1.297   1.648  1.7972  2.1038 -0.4027
14167TIP3    H242445   2.535   1.404   1.637 -1.8721 -1.4069  0.1641
14168TIP3   OH242446   6.862   5.004   6.809  0.2571  0.2577  0.0199
14168TIP3    H142447   6.915   4.987   6.887  0.0147  0.8504  0.3183
14168TIP3    H242448   6.830   4.918   6.782 -0.3556  0.1426  1.0754
14169TIP3   OH242449   5.103   5.040   5.618 -0.1395 -0.0443  0.1318
14169TIP3    H142450   5.178   4.986   5.593 -1.7503 -1.9036 -0.7968
14169TIP3    H242451   5.045   4.981   5.665 -0.0768  1.9126  2.8308
14170TIP3   OH242452   4.286   0.519   0.564 -0.0208 -0.4163 -0.1983
14170TIP3    H142453   4.264   0.568   0.485 -1.5559 -2.5865 -1.1977
14170TIP3    H242454   4.322   0.584   0.624  2.4966  1.0535 -3.1517
14171TIP3   OH242455   5.694   2.275   0.816  0.1650  0.3842  0.3189
14171TIP3    H142456   5.762   2.239   0.758  0.0577  0.1487  0.3409
14171TIP3    H242457   5.730   2.263   0.904  1.3927  2.8785  0.2145
14172TIP3   OH242458   1.580   7.108   1.485  0.3887 -0.0849  0.2950
14172TIP3    H142459   1.563   7.134   1.394 -2.0785  0.0995  0.7720
14172TIP3    H242460   1.577   7.189   1.535 -1.9979 -0.5810  1.0338
14173TIP3   OH242461   7.241   4.499   6.737  0.3402  1.0528  0.8462
14173TIP3    H142462   7.238   4.448   6.656 -1.0758 -0.1622  1.6406
14173TIP3    H242463   7.319   4.467   6.782 -0.1911  0.0474  1.0479
14174TIP3   OH242464   4.274   0.019   0.773 -0.2714 -0.7563  0.1302
14174TIP3    H142465   4.252   0.102   0.816  1.0245 -0.2198 -0.2205
14174TIP3    H242466   4.296   0.044   0.683  1.8231 -1.2585  0.4839
14175TIP3   OH242467   4.577   1.326   0.563  0.0871  0.5933  0.5128
14175TIP3    H142468   4.655   1.330   0.507 -0.2135 -0.1142  0.0333
14175TIP3    H242469   4.555   1.232   0.566 -1.7471  0.9527 -0.7413
14176TIP3   OH242470   4.474   1.519   2.010 -0.0637  0.4862  0.5633
14176TIP3    H142471   4.382   1.545   2.019 -0.0682  0.4002  0.7494
14176TIP3    H242472   4.494   1.534   1.917 -0.8301 -1.3766  0.0737
14177TIP3   OH242473   3.389   0.149   3.137 -0.0115 -0.0994 -0.3190
14177TIP3    H142474   3.405   0.120   3.226  0.2306 -2.1026 -0.9933
14177TIP3    H242475   3.469   0.195   3.112  1.2184 -2.3168 -0.5871
14178TIP3   OH242476   3.448   0.829   1.982  0.3552  0.1880  0.3165
14178TIP3    H142477   3.436   0.756   1.922  0.8113 -0.4895  1.0472
14178TIP3    H242478   3.458   0.905   1.925  1.3150 -0.5231 -0.4942
14179TIP3   OH242479   4.038   1.009   0.939 -0.3328 -0.2337  0.3282
14179TIP3    H142480   4.034   1.000   0.844 -4.8554 -0.0209  0.3825
14179TIP3    H242481   4.057   1.102   0.954 -3.3401  0.5381 -0.4314
14180TIP3   OH242482   8.415   7.547   0.353 -0.5141  0.1225  0.3669
14180TIP3    H142483   8.454   7.550   0.441  0.6524  0.0547 -0.1271
14180TIP3    H242484   8.332   7.501   0.365 -0.3450  0.0696  1.4269
14181TIP3   OH242485   3.460   1.752   0.144  0.0018  0.1893 -0.2860
14181TIP3    H142486   3.404   1.674   0.139  0.3377  0.0184 -1.5248
14181TIP3    H242487   3.438   1.792   0.228  0.1915 -1.5125  0.5987
14182TIP3   OH242488   3.089   1.415   0.062  0.3041  0.0382  0.2962
14182TIP3    H142489   3.100   1.507   0.037 -0.0996 -0.0454 -0.1790
14182TIP3    H242490   3.097   1.416   0.158  2.4951  0.2560  0.1312
14183TIP3   OH242491   3.068   2.174   2.487  0.0789 -0.5472  0.7200
14183TIP3    H142492   3.128   2.115   2.442  0.0548  0.8647 -1.2133
14183TIP3    H242493   3.052   2.245   2.425 -0.7916  0.9288  2.5561
14184TIP3   OH242494   3.508   2.162   2.332  0.0143 -0.3160  0.4087
14184TIP3    H142495   3.539   2.236   2.279  0.1386  0.6292  1.7876
14184TIP3    H242496   3.581   2.100   2.330 -0.1392 -0.4742 -0.8615
14185TIP3   OH242497   5.337   4.570   6.100 -0.3185 -0.2025 -0.6308
14185TIP3    H142498   5.399   4.505   6.067  0.2477  0.6069 -1.1986
14185TIP3    H242499   5.384   4.654   6.092 -0.8394  0.2215  0.5654
14186TIP3   OH242500   5.399   1.358   1.500 -0.0191 -0.2333 -0.0834
14186TIP3    H142501   5.386   1.366   1.595  1.2026  0.4317  0.0340
14186TIP3    H242502   5.311   1.341   1.465 -0.2121 -2.3543  1.3493
14187TIP3   OH242503   3.034   0.926   0.351 -0.4842 -0.4893 -0.4444
14187TIP3    H142504   3.121   0.961   0.368  0.1922 -1.8171 -1.1044
14187TIP3    H242505   3.010   0.962   0.265  0.1683 -1.5536 -1.0780
14188TIP3   OH242506   7.827   2.797   6.836 -0.5643  0.2582  0.0020
14188TIP3    H142507   7.914   2.801   6.875  0.0847 -0.0490 -1.3783
14188TIP3    H242508   7.783   2.876   6.868  0.1866  0.3818  0.7647
14189TIP3   OH242509   6.412   3.704   5.781 -0.3583  0.1222  0.4912
14189TIP3    H142510   6.443   3.795   5.786 -0.3101  0.0459  1.5803
14189TIP3    H242511   6.323   3.711   5.748 -0.1852  0.5246  0.0902
14190TIP3   OH242512   6.192   6.405   4.140  0.6221 -0.0517 -0.6075
14190TIP3    H142513   6.261   6.469   4.155 -0.1231  0.4854  0.5662
14190TIP3    H242514   6.123   6.454   4.096 -0.5702  0.3472  1.6308
14191TIP3   OH242515   2.624   2.015   2.673  0.3241 -0.4498 -0.0877
14191TIP3    H142516   2.712   1.996   2.639  0.4764 -1.2951  0.7617
14191TIP3    H242517   2.639   2.079   2.743  0.2630 -0.6049  0.0668
14192TIP3   OH242518   3.286   0.462   0.839  0.4284  0.3474 -0.2186
14192TIP3    H142519   3.224   0.396   0.868  0.0128  0.5695 -0.5959
14192TIP3    H242520   3.368   0.414   0.827  0.4585  0.1480  0.7534
14193TIP3   OH242521   5.681   7.050   5.679 -0.4732 -0.0220  0.2583
14193TIP3    H142522   5.704   7.095   5.597  0.1341  1.4105  1.1911
14193TIP3    H242523   5.642   6.967   5.651 -0.4035  0.5150 -1.4840
14194TIP3   OH242524   3.595   0.219   2.041 -0.2216  0.4321  0.2284
14194TIP3    H142525   3.649   0.142   2.025 -1.0711 -0.0196 -0.5687
14194TIP3    H242526   3.653   0.281   2.085  0.3966 -0.7715  1.1556
14195TIP3   OH242527   3.794   0.771   1.221 -0.1686  0.4140 -0.1348
14195TIP3    H142528   3.776   0.685   1.184 -2.0635  0.3316  0.9505
14195TIP3    H242529   3.888   0.784   1.205  0.1446 -1.8379 -0.3062
14196TIP3   OH242530   7.534   4.704   6.450  0.2174 -0.4286 -0.2513
14196TIP3    H142531   7.559   4.774   6.511 -0.2695  0.9312 -1.5968
14196TIP3    H242532   7.611   4.693   6.394 -0.3677  0.3418 -1.2311
14197TIP3   OH242533   7.926   5.491   6.103 -0.1027 -0.4432 -0.2113
14197TIP3    H142534   8.012   5.491   6.146 -1.4715 -0.7865  2.6670
14197TIP3    H242535   7.896   5.400   6.111 -0.2054 -0.6017 -2.3217
14198TIP3   OH242536   8.466   6.791   1.315  0.0591 -0.1335  0.0133
14198TIP3    H142537   8.516   6.718   1.352  0.7796  0.1488 -0.4169
14198TIP3    H242538   8.412   6.822   1.388 -0.6702 -1.4573  0.0489
14199TIP3   OH242539   7.046   5.749   6.352  0.3485 -0.0933  0.1099
14199TIP3    H142540   7.033   5.765   6.445 -1.1805  0.3522 -0.1690
14199TIP3    H242541   6.965   5.707   6.323  0.2109  1.1300 -1.3225
14200TIP3   OH242542   6.387   0.935   0.117 -0.3538  0.3134 -0.3825
14200TIP3    H142543   6.339   0.860   0.082 -0.4537 -1.2328  2.8584
14200TIP3    H242544   6.477   0.902   0.127  0.2297  1.5291 -1.4761
14201TIP3   OH242545   2.355   1.473   0.600 -0.2740  0.1882  0.4196
14201TIP3    H142546   2.338   1.447   0.690  1.3155 -0.4617  0.5618
14201TIP3    H242547   2.375   1.391   0.555 -0.3552  0.5887 -0.3474
14202TIP3   OH242548   1.999   0.506   0.853 -0.0108  1.2426  0.2884
14202TIP3    H142549   2.055   0.560   0.909 -3.1961  2.0516  2.8205
14202TIP3    H242550   1.959   0.443   0.912 -1.5370  0.4790 -1.5162
14203TIP3   OH242551   5.948   4.570   6.866 -0.1023 -0.6246 -0.2654
14203TIP3    H142552   6.032   4.609   6.885  0.3829 -1.5250 -0.5163
14203TIP3    H242553   5.969   4.485   6.826 -1.1126 -1.3504  0.6831
14204TIP3   OH242554   2.108   7.899   1.437  0.8174  0.2110 -0.1041
14204TIP3    H142555   2.086   7.992   1.430  2.7483  0.4525 -4.7752
14204TIP3    H242556   2.181   7.897   1.499 -0.5955  1.5203  1.6587
14205TIP3   OH242557   4.177   1.547   1.994 -0.0081 -0.4796 -0.2629
14205TIP3    H142558   4.087   1.558   2.024 -0.0394 -0.6613 -0.2870
14205TIP3    H242559   4.172   1.477   1.928  0.4510 -1.9315  1.1968
14206TIP3   OH242560   6.768   4.723   6.503 -0.5526  0.4408 -0.4430
14206TIP3    H142561   6.795   4.813   6.485  1.2421 -0.1296 -0.6725
14206TIP3    H242562   6.838   4.669   6.467 -0.3415 -0.9573  1.9605
14207TIP3   OH242563   3.914   0.387   1.924 -0.1670 -0.7711  0.4327
14207TIP3    H142564   3.928   0.472   1.881  0.2314 -0.4471  1.2092
14207TIP3    H242565   3.853   0.406   1.995  1.1418 -0.8436  1.5857
14208TIP3   OH242566   5.835   3.329   6.611 -0.1645 -0.1931 -0.2784
14208TIP3    H142567   5.922   3.296   6.630  0.0800  0.8430  0.4853
14208TIP3    H242568   5.813   3.384   6.687 -0.2216  1.9930 -1.8164
14209TIP3   OH242569   0.929   7.418   0.293 -0.5168  0.1543 -0.1499
14209TIP3    H142570   0.842   7.416   0.335  0.3174  2.0841  1.7286
14209TIP3    H242571   0.989   7.391   0.362  0.7716  2.2784 -0.3993
14210TIP3   OH242572   0.112   6.636   1.956 -0.2226  0.1297  0.2621
14210TIP3    H142573   0.160   6.675   2.029  1.2282 -0.5366 -0.3156
14210TIP3    H242574   0.097   6.708   1.895  1.1066  0.1120 -0.0990
14211TIP3   OH242575   7.510   5.408   5.975  0.1289  0.7296  0.1710
14211TIP3    H142576   7.512   5.436   6.067 -1.9873 -0.2892  0.5646
14211TIP3    H242577   7.546   5.320   5.976  0.4964  0.8775 -0.0402
14212TIP3   OH242578   5.856   0.389   0.026  0.2369 -0.1373 -0.4060
14212TIP3    H142579   5.851   0.297   0.001  1.6122  0.2698 -2.2080
14212TIP3    H242580   5.769   0.423   0.007 -0.8579 -1.4447  1.9573
14213TIP3   OH242581   1.463   6.716   1.053  0.7856 -0.4352 -0.7483
14213TIP3    H142582   1.511   6.674   0.982  0.4931  1.9577 -2.4100
14213TIP3    H242583   1.410   6.646   1.091 -0.3133 -1.4210 -3.9408
14214TIP3   OH242584   4.082   1.029   0.246  0.8820  0.4943  0.6464
14214TIP3    H142585   4.158   1.082   0.271  0.5627  0.7310  1.1399
14214TIP3    H242586   4.013   1.093   0.229  1.2556  0.3660 -1.4760
14215TIP3   OH242587   3.177   0.669   0.652  0.4662  0.0550 -0.1722
14215TIP3    H142588   3.205   0.584   0.688  0.6474 -0.2704 -1.0669
14215TIP3    H242589   3.089   0.682   0.688  0.7536 -0.1367  0.6034
14216TIP3   OH242590   5.072   0.993   1.947 -0.2164  0.3340  0.5115
14216TIP3    H142591   4.976   0.996   1.953 -0.3590  0.0918 -1.2453
14216TIP3    H242592   5.101   1.070   1.996 -1.4358  1.6987 -0.8346
14217TIP3   OH242593   6.112   7.053   6.310  0.2482 -0.6844 -0.6699
14217TIP3    H142594   6.128   7.100   6.228 -1.2286 -0.5550 -0.9012
14217TIP3    H242595   6.035   6.999   6.292 -1.0767  0.5490  1.1127
14218TIP3   OH242596   4.625   0.118   0.945 -0.3859 -0.3421  0.3804
14218TIP3    H142597   4.685   0.154   1.011 -0.9147  0.1676  0.5905
14218TIP3    H242598   4.625   0.024   0.962  2.5363 -0.7203 -1.4556
14219TIP3   OH242599   5.634   5.461   5.900  0.4191  0.0365 -0.0602
14219TIP3    H142600   5.601   5.488   5.985  0.1793  0.2551 -0.2210
14219TIP3    H242601   5.645   5.366   5.908  1.1472  0.1605  0.4616
14220TIP3   OH242602   2.866   3.076   0.611 -0.1710 -0.4928 -0.1477
14220TIP3    H142603   2.876   3.153   0.556  1.3818 -0.1078  0.6735
14220TIP3    H242604   2.941   3.021   0.590 -2.3460 -2.7967 -2.2954
14221TIP3   OH242605   5.790   2.430   1.485  0.1677  0.3331  0.5046
14221TIP3    H142606   5.779   2.514   1.529  2.6220  1.2765 -0.5951
14221TIP3    H242607   5.876   2.398   1.516 -1.2204 -2.3534  1.8204
14222TIP3   OH242608   2.143   2.592   0.792 -0.7402 -0.1466  0.5535
14222TIP3    H142609   2.149   2.651   0.716 -2.3294 -0.4984  0.1440
14222TIP3    H242610   2.066   2.622   0.839 -0.6984 -0.9795  1.1469
14223TIP3   OH242611   5.674   1.983   1.056  0.3320  0.0210  0.1780
14223TIP3    H142612   5.662   2.078   1.052  1.4951  0.1549 -0.3730
14223TIP3    H242613   5.617   1.948   0.988 -0.1541  0.3163  0.4291
14224TIP3   OH242614   7.118   5.139   6.159 -0.7150 -0.4409 -0.0311
14224TIP3    H142615   7.119   5.128   6.064 -0.8582 -0.9714  0.0269
14224TIP3    H242616   7.025   5.146   6.181 -0.6373  1.0290 -0.0739
14225TIP3   OH242617   8.158   5.844   5.550 -0.2770  0.3132 -0.1635
14225TIP3    H142618   8.158   5.835   5.455 -0.9045 -0.4980 -0.0841
14225TIP3    H242619   8.161   5.754   5.583 -0.2834  0.5854  0.5874
14226TIP3   OH242620   7.811   3.419   6.546  0.4951  0.1627  0.1669
14226TIP3    H142621   7.735   3.361   6.552  2.0735 -2.2949 -2.5960
14226TIP3    H242622   7.789   3.478   6.474  1.1980 -0.5939 -0.6781
14227TIP3   OH242623   7.306   3.707   6.340  0.3362 -0.1315 -0.2547
14227TIP3    H142624   7.395   3.699   6.374  0.4230  0.0972 -0.4218
14227TIP3    H242625   7.269   3.619   6.348  0.8471 -0.4168 -0.9305
14228TIP3   OH242626   7.202   5.235   6.910  0.1376 -0.3476  0.3466
14228TIP3    H142627   7.110   5.257   6.919  0.2755  0.4438 -0.1472
14228TIP3    H242628   7.203   5.157   6.855 -0.1908  0.1679 -0.3955
14229TIP3   OH242629   4.524   5.861   4.822 -0.0320  0.3102 -0.0811
14229TIP3    H142630   4.452   5.894   4.876  1.8758  1.8443  1.6245
14229TIP3    H242631   4.552   5.781   4.866 -0.1663  0.1676 -0.2583
14230TIP3   OH242632   3.843   1.911   1.590 -0.1451  0.2423  1.0691
14230TIP3    H142633   3.844   1.877   1.500 -1.2543  0.1710  1.0835
14230TIP3    H242634   3.773   1.975   1.591 -1.1337 -0.8170  2.2718
14231TIP3   OH242635   2.920   0.663   0.811  0.1170  0.1596 -0.4297
14231TIP3    H142636   2.856   0.732   0.791 -0.6738 -0.3149  0.4314
14231TIP3    H242637   2.902   0.595   0.746 -1.2008 -0.5765  0.6887
14232TIP3   OH242638   2.824   1.325   0.545  0.2594 -0.5368  0.6641
14232TIP3    H142639   2.912   1.291   0.565  0.7126 -1.5761 -2.8786
14232TIP3    H242640   2.833   1.420   0.554  1.3667 -0.7236  1.7000
14233TIP3   OH242641   4.933   5.287   6.691  0.2132 -0.0362 -0.2616
14233TIP3    H142642   4.912   5.215   6.631 -0.3773  0.7036 -0.9652
14233TIP3    H242643   4.997   5.340   6.643 -1.1403  1.2009 -0.7372
14234TIP3   OH242644   1.809   2.969   0.088 -0.4690  0.0599  0.0630
14234TIP3    H142645   1.738   2.918   0.127 -0.5356  0.2551  0.1955
14234TIP3    H242646   1.838   2.916   0.013  1.2441 -1.4376  1.7452
14235TIP3   OH242647   0.563   6.768   1.390 -0.2475 -0.3413 -0.2514
14235TIP3    H142648   0.553   6.858   1.421  2.8327 -0.2635  0.6939
14235TIP3    H242649   0.487   6.753   1.335 -1.4501  2.4301  0.5749
14236TIP3   OH242650   7.408   5.011   5.568 -0.0680 -0.1071  0.3562
14236TIP3    H142651   7.504   5.009   5.558 -0.0263 -0.4865  0.7884
14236TIP3    H242652   7.378   4.932   5.523 -0.1945  0.1069  0.0666
14237TIP3   OH242653   3.778   3.468   0.460 -0.0591 -0.1863  0.3860
14237TIP3    H142654   3.736   3.541   0.415 -1.8770 -0.8494  0.9416
14237TIP3    H242655   3.862   3.503   0.490 -0.9244  1.6787  0.6921
14238TIP3   OH242656   5.903   3.999   5.945  0.3091  0.3550  0.1754
14238TIP3    H142657   5.943   4.011   5.858  0.1815  1.0277  0.2084
14238TIP3    H242658   5.948   3.923   5.981  2.0076  1.4795  0.4607
14239TIP3   OH242659   6.407   3.322   6.444  0.0707  0.0226  0.6522
14239TIP3    H142660   6.400   3.235   6.405 -1.4556  0.4636 -0.0886
14239TIP3    H242661   6.468   3.310   6.516 -0.5786 -1.8129  0.9421
14240TIP3   OH242662   3.137   2.511   1.003  0.5178 -0.6729  0.3629
14240TIP3    H142663   3.044   2.507   1.028  0.2253  0.3764 -0.5216
14240TIP3    H242664   3.153   2.427   0.960 -0.2758 -0.5048 -0.2884
14241TIP3   OH242665   1.058   7.703   1.070 -0.2796  0.9555  0.1265
14241TIP3    H142666   1.018   7.647   1.003  0.1983 -0.6893  1.2020
14241TIP3    H242667   1.118   7.760   1.021 -0.7218  0.5036 -0.9601
14242TIP3   OH242668   3.946   2.804   1.442  0.2883 -0.5175  0.2125
14242TIP3    H142669   3.859   2.763   1.443  1.1034 -2.2528  0.7626
14242TIP3    H242670   3.949   2.855   1.524 -0.8543  0.9771 -0.6427
14243TIP3   OH242671   2.389   2.168   0.056 -0.0316  0.0988  0.0494
14243TIP3    H142672   2.310   2.212   0.088  1.5672  1.1372  2.8079
14243TIP3    H242673   2.420   2.221  -0.017  0.2024  1.8698  1.4182
14244TIP3   OH242674   8.298   8.007   1.322  0.2029  0.0529  0.0828
14244TIP3    H142675   8.255   7.938   1.272  0.3764  0.5475 -0.7515
14244TIP3    H242676   8.380   8.023   1.276 -0.0463  1.1439  0.0017
14245TIP3   OH242677   1.213   6.657   2.145  0.2896 -0.0552 -0.3867
14245TIP3    H142678   1.134   6.712   2.144  0.7276  0.5610 -1.8615
14245TIP3    H242679   1.279   6.711   2.189  0.0126 -0.4260  0.5071
14246TIP3   OH242680   4.463   1.287   1.108 -0.2994 -0.1320  0.5084
14246TIP3    H142681   4.402   1.357   1.129 -2.3043 -1.8816  0.7534
14246TIP3    H242682   4.432   1.251   1.025  1.1596 -0.2340 -0.0131
14247TIP3   OH242683   8.377   5.737   5.334 -0.0562  0.0534 -0.2156
14247TIP3    H142684   8.306   5.771   5.280  0.6698 -0.2002 -1.3468
14247TIP3    H242685   8.457   5.764   5.289  0.5687  0.0128  0.8449
14248TIP3   OH242686   6.927   5.553   5.872 -0.1657  0.0063 -0.1941
14248TIP3    H142687   6.888   5.616   5.811 -0.6521  0.7838  0.8899
14248TIP3    H242688   6.857   5.491   5.890 -0.1089 -0.0673 -0.2294
14249TIP3   OH242689   5.395   7.056   5.305  0.5622 -0.5603  0.6702
14249TIP3    H142690   5.479   7.009   5.307  0.0859 -1.4227  0.7152
14249TIP3    H242691   5.419   7.148   5.304  1.5614 -0.8149 -1.7582
14250TIP3   OH242692   3.643   3.554   1.060 -0.3924  0.2746  0.2717
14250TIP3    H142693   3.652   3.505   1.141 -1.5171 -1.7800 -0.8053
14250TIP3    H242694   3.576   3.621   1.079 -0.3014  0.1131  1.1595
14251TIP3   OH242695   2.616   3.923   1.020  0.1149 -0.0666  0.5774
14251TIP3    H142696   2.544   3.878   0.975 -0.1194  0.4846  0.3996
14251TIP3    H242697   2.572   3.981   1.082  0.4258 -0.3019  1.0192
14252TIP3   OH242698   4.093   0.820   0.731  0.1706  0.1089  0.1861
14252TIP3    H142699   4.071   0.797   0.641  0.7791  0.1147  0.0341
14252TIP3    H242700   4.023   0.780   0.784 -1.2924  1.7898 -0.4245
14253TIP3   OH242701   7.048   0.891   0.037  0.0696  0.0348  0.3961
14253TIP3    H142702   7.010   0.869   0.122 -0.8354  1.8511  0.4952
14253TIP3    H242703   7.109   0.963   0.056  0.2151  0.1255 -0.4143
14254TIP3   OH242704   5.970   6.293   5.607 -0.4813  0.1282  0.3532
14254TIP3    H142705   5.928   6.316   5.690 -1.9952 -0.3540 -0.2620
14254TIP3    H242706   6.062   6.277   5.630 -0.5842  1.4014  1.6839
14255TIP3   OH242707   6.537   7.847   2.905 -0.3548 -0.0034 -0.0554
14255TIP3    H142708   6.454   7.826   2.862 -1.1148  3.2234 -0.3014
14255TIP3    H242709   6.592   7.880   2.834 -0.1383  1.2777  0.6973
14256TIP3   OH242710   5.470   4.836   5.055 -0.0798  0.2485  0.1969
14256TIP3    H142711   5.521   4.916   5.046  0.5194 -0.2904 -1.2312
14256TIP3    H242712   5.398   4.846   4.993  0.0791 -0.3724 -0.0927
14257TIP3   OH242713   7.248   3.544   4.376 -0.7854  0.4336  0.4927
14257TIP3    H142714   7.176   3.493   4.414 -1.5890  0.6043 -0.7711
14257TIP3    H242715   7.315   3.479   4.357 -0.9477  0.1476  0.8839
14258TIP3   OH242716   2.801   7.966   1.744 -0.7964  0.0538  0.5839
14258TIP3    H142717   2.824   8.028   1.813 -1.6734  0.6142  0.3814
14258TIP3    H242718   2.760   8.020   1.676  0.4153 -0.4281 -0.5574
14259TIP3   OH242719   7.003   3.868   4.817 -0.1870 -0.3490 -0.5820
14259TIP3    H142720   6.915   3.906   4.827  0.4987  1.1087  0.1687
14259TIP3    H242721   6.989   3.774   4.821 -1.4182 -0.0963  2.4206
14260TIP3   OH242722   4.691   6.508   5.786 -0.5170 -0.2092  0.3377
14260TIP3    H142723   4.612   6.454   5.788  0.5194 -1.7307  2.0805
14260TIP3    H242724   4.758   6.451   5.749  0.2198  0.4107  0.7011
14261TIP3   OH242725   2.482   1.807   1.911 -0.3468 -0.1181 -0.3690
14261TIP3    H142726   2.507   1.899   1.902  0.6931 -0.3673 -0.1869
14261TIP3    H242727   2.389   1.809   1.934 -0.2782  0.8986 -0.1406
14262TIP3   OH242728   7.233   5.568   6.170  0.0815  0.2524  0.4997
14262TIP3    H142729   7.316   5.530   6.200  1.2175  1.4093 -1.0796
14262TIP3    H242730   7.204   5.510   6.100 -0.6803 -0.3868  1.3300
14263TIP3   OH242731   1.075   7.749   0.784  0.4985 -0.9535 -0.6772
14263TIP3    H142732   1.070   7.828   0.731 -0.1600 -1.4124 -1.3108
14263TIP3    H242733   1.168   7.724   0.782  0.5684 -0.6506 -1.1424
14264TIP3   OH242734   7.196   4.948   6.795 -0.0731  0.1154 -0.4416
14264TIP3    H142735   7.262   4.889   6.832 -1.0408  0.9353  2.7564
14264TIP3    H242736   7.136   4.891   6.748 -0.9307 -1.4996  2.5027
14265TIP3   OH242737   5.152   2.052   1.406 -0.3494  0.0421 -0.5304
14265TIP3    H142738   5.213   2.023   1.474 -0.1489  0.2385 -0.6245
14265TIP3    H242739   5.185   2.138   1.379  0.9133 -1.0146 -2.4701
14266TIP3   OH242740   0.517   4.980   4.447 -0.5614  0.2789  0.3524
14266TIP3    H142741   0.508   5.067   4.485 -0.3566  0.0259  0.9694
14266TIP3    H242742   0.435   4.936   4.469 -0.4494  0.1367  0.4775
14267TIP3   OH242743   3.310   1.019   0.359  0.1065 -0.4688 -0.3285
14267TIP3    H142744   3.320   0.964   0.436 -1.1662 -0.8424 -0.4203
14267TIP3    H242745   3.319   0.959   0.285  0.1835 -0.3119 -0.4458
14268TIP3   OH242746   7.200   5.043   6.445 -0.6536  0.1197  0.6022
14268TIP3    H142747   7.270   5.059   6.508 -1.2449  2.6758  0.6395
14268TIP3    H242748   7.214   5.108   6.377  1.0042 -3.6519 -2.8693
14269TIP3   OH242749   0.056   7.011   0.627  0.0880  0.3439 -0.0636
14269TIP3    H142750  -0.018   7.006   0.687  0.3978 -0.7862  0.2307
14269TIP3    H242751   0.079   7.104   0.625 -0.8198  0.5837  0.4658
14270TIP3   OH242752   0.110   5.868   5.236 -0.3725  0.5408  0.7675
14270TIP3    H142753   0.191   5.868   5.287 -0.0152  0.3500  0.1981
14270TIP3    H242754   0.133   5.910   5.153 -0.6766 -0.1312  0.3383
14271TIP3   OH242755   5.821   4.780   6.722 -0.2444  0.1532 -0.3171
14271TIP3    H142756   5.881   4.724   6.772 -0.2681 -1.1113 -1.6330
14271TIP3    H242757   5.743   4.788   6.777 -0.1353 -0.9187  0.0095
14272TIP3   OH242758   0.551   6.739   1.660 -0.4690  0.2736 -0.2890
14272TIP3    H142759   0.456   6.735   1.669 -0.5060  0.5559 -0.5392
14272TIP3    H242760   0.568   6.704   1.572 -0.3253  0.0401 -0.1702
14273TIP3   OH242761   2.296   7.360   2.114  0.3487 -0.2300  0.1750
14273TIP3    H142762   2.338   7.417   2.178  1.5255 -2.2677  1.2532
14273TIP3    H242763   2.230   7.312   2.164 -0.0854 -0.4014 -0.5564
14274TIP3   OH242764   0.354   0.116   1.736 -0.2042  0.1960 -0.3403
14274TIP3    H142765   0.449   0.109   1.743 -0.1435 -0.0892 -1.2972
14274TIP3    H242766   0.333   0.204   1.766  0.1156 -0.5482  2.1658
14275TIP3   OH242767   8.125   1.557   0.354  0.3295  0.5085 -0.3592
14275TIP3    H142768   8.169   1.514   0.427  0.7153 -0.9756 -1.4398
14275TIP3    H242769   8.177   1.534   0.277 -0.3652  1.6176 -1.1924
14276TIP3   OH242770   6.558   4.024   4.321  0.1345  0.6325  0.5355
14276TIP3    H142771   6.579   4.040   4.413 -0.7087  0.8819  0.6854
14276TIP3    H242772   6.636   4.054   4.274  0.3250  1.0773  1.1188
14277TIP3   OH242773   4.016   5.423   5.931  0.2650  0.3796  0.1815
14277TIP3    H142774   4.008   5.505   5.882 -1.3408 -0.4993 -1.0581
14277TIP3    H242775   4.109   5.402   5.926  0.3405  0.9778 -1.4180
14278TIP3   OH242776   4.829   0.143   1.380  0.2993 -0.2541  0.3221
14278TIP3    H142777   4.846   0.210   1.446  0.0363 -0.8842  1.0493
14278TIP3    H242778   4.734   0.127   1.387  0.3169 -0.5066 -0.0237
14279TIP3   OH242779   6.212   7.396   6.724  0.1958 -0.1952 -0.4899
14279TIP3    H142780   6.254   7.469   6.770 -0.8492  0.0519  0.0905
14279TIP3    H242781   6.193   7.332   6.792 -2.2646  0.5939 -0.3507
14280TIP3   OH242782   2.124   2.014   0.142  0.0846 -0.2155  0.7990
14280TIP3    H142783   2.062   2.043   0.209  2.3183  2.1409  1.9215
14280TIP3    H242784   2.190   1.965   0.191  1.2274  0.7211  0.2127
14281TIP3   OH242785   4.723   0.180   0.450 -0.3850 -0.2090  0.3457
14281TIP3    H142786   4.654   0.244   0.431 -1.0702 -1.2743 -0.8274
14281TIP3    H242787   4.693   0.137   0.530 -0.1050  0.6745  0.9319
14282TIP3   OH242788   7.422   4.783   6.873 -0.3441 -0.4414 -0.1757
14282TIP3    H142789   7.392   4.701   6.834 -2.0451  0.4667 -0.8061
14282TIP3    H242790   7.417   4.768   6.967 -1.0594 -0.9031 -0.2854
14283TIP3   OH242791   8.287   5.384   6.405 -0.1598  0.3803 -0.3661
14283TIP3    H142792   8.379   5.407   6.423  0.4707 -0.2670 -2.6223
14283TIP3    H242793   8.257   5.344   6.487  1.4962  0.8188  0.4948
14284TIP3   OH242794   6.387   6.006   5.755  0.7636 -0.3710  0.5057
14284TIP3    H142795   6.478   6.010   5.784  1.4391 -0.1242 -1.5236
14284TIP3    H242796   6.368   6.094   5.723  0.6038 -1.0174 -1.2683
14285TIP3   OH242797   7.982   7.278   0.598 -0.3985  0.0638 -0.3481
14285TIP3    H142798   7.962   7.335   0.672  1.5254  1.1817 -0.6569
14285TIP3    H242799   7.906   7.287   0.540 -0.9236  0.9134  0.4455
14286TIP3   OH242800   6.963   4.497   5.867  0.1244  0.0343  0.1758
14286TIP3    H142801   6.966   4.532   5.778  1.2412 -0.2354  0.0916
14286TIP3    H242802   7.040   4.536   5.910  0.3135 -0.8475  0.6390
14287TIP3   OH242803   5.957   4.306   6.550  0.4884  0.2760 -0.5813
14287TIP3    H142804   5.921   4.300   6.461  0.0299  1.6009 -0.4911
14287TIP3    H242805   5.993   4.394   6.556  2.0547 -0.3819 -0.0101
14288TIP3   OH242806   1.356   3.221   5.599 -0.3304 -0.9076  0.2572
14288TIP3    H142807   1.322   3.201   5.512 -0.4312 -1.7778  0.4863
14288TIP3    H242808   1.447   3.193   5.597 -0.2703 -0.7237  0.3611
14289TIP3   OH242809   4.616   7.874   0.641 -0.2962 -0.1269  0.7922
14289TIP3    H142810   4.555   7.801   0.629 -1.2596  0.3681  2.5052
14289TIP3    H242811   4.687   7.838   0.694  0.6530 -0.5611 -0.7533
14290TIP3   OH242812   2.511   3.544   1.714 -0.2405  0.0846  0.0478
14290TIP3    H142813   2.506   3.498   1.798 -1.2445 -1.8000 -1.0154
14290TIP3    H242814   2.456   3.621   1.725  1.4112  1.0503  1.8398
14291TIP3   OH242815   4.099   1.344   0.052  0.2565 -0.1785  0.8074
14291TIP3    H142816   4.071   1.321  -0.037  0.9615  0.8535  0.3128
14291TIP3    H242817   4.025   1.318   0.107 -0.9175  0.8115 -0.2713
14292TIP3   OH242818   6.357   2.997   6.649 -0.0903 -0.5439  0.1564
14292TIP3    H142819   6.310   2.931   6.599 -1.8794  2.0948 -1.8005
14292TIP3    H242820   6.315   3.080   6.626  1.1708  1.1813  3.5532
14293TIP3   OH242821   3.228   2.772   0.855  0.6451 -0.7138  0.3804
14293TIP3    H142822   3.169   2.714   0.903 -0.4423 -0.4247 -0.5944
14293TIP3    H242823   3.259   2.720   0.782  2.0459 -1.0456  1.2060
14294TIP3   OH242824   5.824   5.800   5.737  0.1912 -0.1469 -0.2516
14294TIP3    H142825   5.830   5.710   5.707 -0.5901 -0.0831 -0.6253
14294TIP3    H242826   5.913   5.833   5.733  0.2241 -0.3966 -1.7433
14295TIP3   OH242827   3.803   0.818   0.131  0.2306  0.0611  0.3972
14295TIP3    H142828   3.720   0.803   0.176  0.3813 -1.2879  0.2488
14295TIP3    H242829   3.858   0.862   0.196  0.1401 -1.0422  1.2442
14296TIP3   OH242830   1.860   7.294   0.447 -0.2532  0.2833 -0.1081
14296TIP3    H142831   1.916   7.340   0.385 -0.9238  0.9683 -0.2101
14296TIP3    H242832   1.895   7.318   0.533 -0.4074  0.7252 -0.1706
14297TIP3   OH242833   3.964   6.462   6.701  0.3314  0.2070  0.2813
14297TIP3    H142834   3.998   6.542   6.662 -0.8752 -0.0633 -1.4057
14297TIP3    H242835   3.902   6.492   6.767  0.0627  0.6718 -0.1761
14298TIP3   OH242836   4.504   1.888   1.057 -0.1118 -0.1326  0.1507
14298TIP3    H142837   4.558   1.885   1.135 -0.9549  1.1648  0.7843
14298TIP3    H242838   4.545   1.954   1.001  1.2464 -1.9747 -1.0850
14299TIP3   OH242839   0.643   4.573   6.854  0.6019  0.2441  0.5565
14299TIP3    H142840   0.594   4.652   6.874  1.2782  1.1258 -1.2327
14299TIP3    H242841   0.582   4.501   6.873 -0.2669  1.2094  1.4450
14300TIP3   OH242842   7.159   1.122   0.090 -0.5801  0.1210 -0.1315
14300TIP3    H142843   7.239   1.095   0.045  0.2774  2.8153 -0.3030
14300TIP3    H242844   7.164   1.218   0.092 -3.2799  0.2733  0.8212
14301TIP3   OH242845   7.905   0.301   0.357  0.5213 -0.0727  0.3188
14301TIP3    H142846   7.963   0.230   0.329 -1.0477 -1.1934 -0.1123
14301TIP3    H242847   7.957   0.381   0.343  1.1317 -0.8748 -2.3588
14302TIP3   OH242848   5.890   1.148   1.520  0.2858 -0.3597 -0.0032
14302TIP3    H142849   5.873   1.103   1.437  1.6671  1.6056 -1.3943
14302TIP3    H242850   5.835   1.102   1.584  0.0115 -2.5966 -1.7781
14303TIP3   OH242851   1.204   5.885   4.956  0.3071 -0.1765 -0.6421
14303TIP3    H142852   1.283   5.931   4.928  1.2907 -1.8682 -0.7537
14303TIP3    H242853   1.163   5.856   4.875 -0.7731  1.2104 -0.6124
14304TIP3   OH242854   5.924   1.756   0.461 -0.6653 -0.2545  0.6617
14304TIP3    H142855   5.878   1.704   0.394  0.2994  0.3699 -0.5160
14304TIP3    H242856   6.017   1.748   0.437 -0.1588 -1.2018  2.7859
14305TIP3   OH242857   7.490   4.115   6.239 -0.2960 -0.3024 -0.0930
14305TIP3    H142858   7.409   4.064   6.247 -0.0844 -0.2068  3.7980
14305TIP3    H242859   7.463   4.205   6.262  0.8723 -0.2752  1.2401
14306TIP3   OH242860   7.359   5.306   5.066  0.0903  0.5504  0.2833
14306TIP3    H142861   7.316   5.388   5.039  0.7781  0.2996 -1.6878
14306TIP3    H242862   7.381   5.263   4.983 -0.3410 -1.6743  1.3018
14307TIP3   OH242863   3.599   2.396   0.213 -0.0343 -0.2064 -0.2619
14307TIP3    H142864   3.668   2.463   0.201 -0.4571  0.2013 -0.4271
14307TIP3    H242865   3.647   2.313   0.211  0.5671  0.1109  0.5014
14308TIP3   OH242866   7.474   3.469   6.703  0.3693  0.3173  0.2666
14308TIP3    H142867   7.559   3.438   6.735  1.7136  1.8846 -1.6923
14308TIP3    H242868   7.495   3.546   6.649 -2.2961  0.7647 -0.1914
14309TIP3   OH242869   1.031   3.705   5.397 -0.2482  0.6082  0.5192
14309TIP3    H142870   0.992   3.699   5.309 -1.1098  2.6350  0.7406
14309TIP3    H242871   1.125   3.713   5.381 -0.0023 -2.7320 -0.0775
14310TIP3   OH242872   5.186   1.658   2.277 -0.3534  0.1288 -0.4489
14310TIP3    H142873   5.166   1.719   2.206 -0.3793 -0.7487 -1.1943
14310TIP3    H242874   5.104   1.649   2.325 -0.4346  0.4281 -0.5302
14311TIP3   OH242875   6.366   1.036   0.511  0.1219 -0.0649 -0.0201
14311TIP3    H142876   6.461   1.046   0.521 -0.0513  1.7354  0.0856
14311TIP3    H242877   6.341   1.107   0.451 -1.1563 -0.4942 -0.0106
14312TIP3   OH242878   6.252   6.260   5.651  0.8263  0.5775 -0.1370
14312TIP3    H142879   6.278   6.337   5.601  0.1524  1.1966  0.4671
14312TIP3    H242880   6.295   6.271   5.736  2.2898 -0.6595 -0.6715
14313TIP3   OH242881   8.372   7.017   5.119  0.1578 -0.3610  0.1372
14313TIP3    H142882   8.416   7.101   5.105  0.3474 -0.7244 -1.5564
14313TIP3    H242883   8.284   7.040   5.149  0.0280  0.4441 -0.8566
14314TIP3   OH242884   5.250   0.290   0.794 -0.1996 -0.5916  0.3987
14314TIP3    H142885   5.339   0.292   0.757 -0.8299 -1.9822 -1.2860
14314TIP3    H242886   5.241   0.373   0.839  0.2178  1.8126 -3.6807
14315TIP3   OH242887   3.962   0.559   0.071  0.4121 -0.0199  0.1813
14315TIP3    H142888   3.959   0.549  -0.024 -0.3914  1.8614 -0.0281
14315TIP3    H242889   3.949   0.653   0.085 -0.0876 -0.3636  2.1792
14316TIP3   OH242890   2.773   5.649   6.313 -0.3037 -0.5151 -0.2063
14316TIP3    H142891   2.684   5.685   6.307  0.3135  0.6574 -2.8552
14316TIP3    H242892   2.822   5.715   6.361 -0.8791 -1.2754  1.4812
14317TIP3   OH242893   3.658   1.698   0.957  0.3169  0.3967 -0.0901
14317TIP3    H142894   3.594   1.692   0.886  0.8641  1.4502 -0.6786
14317TIP3    H242895   3.742   1.702   0.913  0.9421 -2.6812  0.7138
14318TIP3   OH242896   6.471   4.808   6.540 -0.3376 -0.0578  0.5837
14318TIP3    H142897   6.504   4.771   6.622  1.0825 -0.4867 -0.1774
14318TIP3    H242898   6.534   4.877   6.518 -1.1170  0.5476  0.2343
14319TIP3   OH242899   5.929   0.061   0.292 -0.0468 -0.2017  0.2351
14319TIP3    H142900   5.917  -0.029   0.259 -1.5624 -1.2468  3.4017
14319TIP3    H242901   6.023   0.069   0.308  0.2592 -0.7915 -1.1805
14320TIP3   OH242902   8.174   6.450   4.310 -0.1772 -0.0937  0.5171
14320TIP3    H142903   8.201   6.503   4.386  0.2046 -2.0123  1.7511
14320TIP3    H242904   8.256   6.430   4.265 -0.4182  1.1622 -0.5037
14321TIP3   OH242905   8.059   0.385   3.771 -0.1203  0.1285 -0.3153
14321TIP3    H142906   7.968   0.361   3.786 -0.4667  1.7953  0.3010
14321TIP3    H242907   8.070   0.380   3.676 -1.1193  0.8728 -0.4754
14322TIP3   OH242908   7.749   1.156   4.335  0.1381 -0.2175  0.6205
14322TIP3    H142909   7.667   1.190   4.299 -0.3584 -1.5787  0.4356
14322TIP3    H242910   7.787   1.106   4.264  1.0575  0.2720  0.7670
14323TIP3   OH242911   7.457   3.714   2.145  0.0183  0.0481  0.4143
14323TIP3    H142912   7.407   3.738   2.067  0.3531  0.4270  0.3132
14323TIP3    H242913   7.462   3.795   2.196  0.2821 -0.0587  0.5621
14324TIP3   OH242914   7.620   2.176   2.540 -0.0005 -0.2566 -0.3420
14324TIP3    H142915   7.546   2.198   2.483 -0.6871  0.5867  0.8635
14324TIP3    H242916   7.660   2.100   2.498 -1.9097 -1.0984 -0.6838
14325TIP3   OH242917   4.316   6.874   0.594  0.0268  0.1856 -0.5529
14325TIP3    H142918   4.348   6.944   0.651 -1.7384 -0.1951  0.9478
14325TIP3    H242919   4.243   6.836   0.642 -2.3494  0.6866 -3.5961
14326TIP3   OH242920   6.254   3.487   1.781 -0.2201 -0.2060  0.6236
14326TIP3    H142921   6.280   3.457   1.694 -1.4534 -2.2034  0.9016
14326TIP3    H242922   6.307   3.435   1.841 -0.3803  0.1722  1.0967
14327TIP3   OH242923   7.369   2.778   1.541 -0.0235  0.0998  0.3102
14327TIP3    H142924   7.358   2.869   1.515 -0.3325 -0.0498 -0.0945
14327TIP3    H242925   7.288   2.756   1.587 -0.7587 -0.5229 -1.2445
14328TIP3   OH242926   2.106   5.420   6.751 -0.0489  0.2947 -0.0788
14328TIP3    H142927   2.028   5.468   6.721 -0.2319  0.1830  0.2168
14328TIP3    H242928   2.178   5.480   6.734 -0.3943  1.1196  1.2667
14329TIP3   OH242929   6.284   4.874   0.601  0.1808 -0.0729 -0.2187
14329TIP3    H142930   6.290   4.918   0.686  0.3935  0.0026 -0.2747
14329TIP3    H242931   6.355   4.911   0.549 -0.1983  0.1758 -0.5627
14330TIP3   OH242932   6.969   1.854   0.790 -0.5617 -0.1619 -0.4607
14330TIP3    H142933   6.930   1.766   0.787  1.2033 -1.0243  0.8494
14330TIP3    H242934   6.933   1.894   0.869 -0.1019 -0.3399 -0.1563
14331TIP3   OH242935   6.941   1.929   1.681  0.4822 -0.6502 -0.4501
14331TIP3    H142936   6.927   1.841   1.645 -0.1609 -0.7770  0.0837
14331TIP3    H242937   6.889   1.929   1.762  1.8414 -0.3451  0.4244
14332TIP3   OH242938   1.848   6.304   4.969  0.0178 -0.4565 -0.1013
14332TIP3    H142939   1.896   6.320   4.888  0.1033 -1.3080 -0.2180
14332TIP3    H242940   1.899   6.349   5.036  0.0131  0.1461 -0.4951
14333TIP3   OH242941   7.714   0.799   2.487  0.5112  0.1781 -0.3473
14333TIP3    H142942   7.626   0.781   2.521  0.3159 -1.2931 -1.5750
14333TIP3    H242943   7.745   0.714   2.455  1.8943  0.9338 -1.0356
14334TIP3   OH242944   4.616   7.663   0.322 -0.3544 -0.0175 -0.6007
14334TIP3    H142945   4.679   7.630   0.385 -1.0041 -2.0726 -0.9832
14334TIP3    H242946   4.658   7.651   0.237 -0.2461  0.9964 -0.7051
14335TIP3   OH242947   7.466   1.847   1.912  0.0652 -0.2948  0.4497
14335TIP3    H142948   7.378   1.879   1.892  0.5217  0.6932 -0.0415
14335TIP3    H242949   7.466   1.834   2.007 -0.5315 -0.0596  0.4834
14336TIP3   OH242950   8.277   0.697   0.382  0.1810 -0.3278  0.5800
14336TIP3    H142951   8.234   0.611   0.385 -0.5561  0.0056 -0.4940
14336TIP3    H242952   8.362   0.682   0.425 -0.9741 -0.9792  2.6671
14337TIP3   OH242953   8.070   3.426   0.192 -0.4704  0.0449 -0.2824
14337TIP3    H142954   7.991   3.467   0.157 -0.3559 -1.7159 -2.6673
14337TIP3    H242955   8.097   3.363   0.125  3.9806  1.8365 -0.3708
14338TIP3   OH242956   7.700   1.152   1.951  0.6161  0.3524  0.5266
14338TIP3    H142957   7.680   1.063   1.979 -0.0935  0.5516  0.6695
14338TIP3    H242958   7.666   1.208   2.021 -0.5581  0.8164 -0.3974
14339TIP3   OH242959   7.989   0.873   3.670  0.0467 -0.0732  0.2062
14339TIP3    H142960   8.027   0.854   3.756  1.1122  1.0432  0.0034
14339TIP3    H242961   7.946   0.958   3.681 -2.0885 -1.1392  0.3204
14340TIP3   OH242962   4.376   1.647   1.770  0.3207 -0.1590  0.0384
14340TIP3    H142963   4.392   1.741   1.779  1.0968 -0.4020  1.3781
14340TIP3    H242964   4.291   1.641   1.726  1.0035  1.1641 -1.5049
14341TIP3   OH242965   7.166   3.662   0.556  0.1094  0.4297  0.3808
14341TIP3    H142966   7.137   3.732   0.614  0.3315 -0.4686  1.5954
14341TIP3    H242967   7.254   3.688   0.529 -0.0557  0.9280  0.3117
14342TIP3   OH242968   7.876   3.168   1.860 -0.0630  0.2028 -0.6525
14342TIP3    H142969   7.907   3.140   1.946  0.3326  1.5685 -0.3355
14342TIP3    H242970   7.894   3.262   1.858  0.6511  0.0546 -2.5207
14343TIP3   OH242971   6.977   2.926   1.838  0.4825  0.2940 -0.2528
14343TIP3    H142972   6.917   2.883   1.899  0.7070  0.3088 -0.0259
14343TIP3    H242973   7.034   2.980   1.893 -0.3012  1.5000 -0.5871
14344TIP3   OH242974   5.022   1.807   1.413 -0.0384  0.2035 -0.0641
14344TIP3    H142975   5.060   1.894   1.401 -1.5474  0.6997 -1.6121
14344TIP3    H242976   5.060   1.755   1.342  0.3714 -0.2255  0.4713
14345TIP3   OH242977   6.159   1.203   1.370 -0.1503  0.0807 -0.0145
14345TIP3    H142978   6.094   1.189   1.438 -0.7948  0.3220 -0.5768
14345TIP3    H242979   6.213   1.124   1.372 -0.8844 -0.4274 -0.0110
14346TIP3   OH242980   1.781   4.713   6.894 -0.1364  0.4196 -0.1907
14346TIP3    H142981   1.731   4.680   6.969 -1.5985 -1.0427 -1.7801
14346TIP3    H242982   1.722   4.773   6.850  0.5409  0.8718 -0.4903
14347TIP3   OH242983   6.876   2.612   2.938  0.3331  0.6041 -0.1251
14347TIP3    H142984   6.816   2.549   2.979  0.2667  0.4581 -0.4477
14347TIP3    H242985   6.849   2.697   2.973 -2.5620  1.0535 -3.1624
14348TIP3   OH242986   1.073   1.454   2.247  0.0024 -0.2218  0.3014
14348TIP3    H142987   1.074   1.440   2.153  0.7274  0.4476  0.2041
14348TIP3    H242988   1.080   1.366   2.285 -0.8313 -0.5340 -0.2567
14349TIP3   OH242989   0.503   1.656   2.503  0.2625 -0.2735  0.2177
14349TIP3    H142990   0.495   1.727   2.567  1.1826 -0.6754  0.7787
14349TIP3    H242991   0.509   1.701   2.418 -1.2813  0.2486  0.3691
14350TIP3   OH242992   6.912   1.336   1.448 -0.1521 -0.0315  0.7554
14350TIP3    H142993   6.856   1.271   1.405 -1.6560  1.4151  0.4951
14350TIP3    H242994   6.882   1.420   1.415  3.8866  0.6992 -1.4168
14351TIP3   OH242995   8.144   3.238   3.084 -0.3076 -0.3102 -0.4767
14351TIP3    H142996   8.109   3.261   3.170 -0.1008 -1.4395 -0.0876
14351TIP3    H242997   8.069   3.201   3.037 -0.4194  0.3038 -0.7942
14352TIP3   OH242998   0.149   0.748   0.023 -0.2984  0.2093 -0.3072
14352TIP3    H142999   0.232   0.732   0.069  0.5760  3.2199 -0.6980
14352TIP3    H243000   0.176   0.776  -0.064 -1.6745  2.1590 -0.1319
14353TIP3   OH243001   7.745   1.520   4.130  0.5720  0.2366  0.3610
14353TIP3    H143002   7.781   1.502   4.217  0.0808  0.7881  0.6861
14353TIP3    H243003   7.764   1.613   4.116  1.0690  0.0294 -0.3215
14354TIP3   OH243004   6.071   2.630   1.356  0.4989  0.6693 -0.2393
14354TIP3    H143005   6.000   2.572   1.327  1.2967 -0.0339 -0.8137
14354TIP3    H243006   6.133   2.631   1.283  1.4789  0.6217  0.5748
14355TIP3   OH243007   4.879   2.834   1.970 -0.1082 -0.1605 -0.0309
14355TIP3    H143008   4.879   2.886   2.050  0.2026 -1.9223  1.1301
14355TIP3    H243009   4.788   2.806   1.959 -0.5478  1.7230 -1.4008
14356TIP3   OH243010   6.407   7.894   1.649  0.3650 -0.9045 -0.4593
14356TIP3    H143011   6.422   7.862   1.560  3.7492  0.3718 -0.4497
14356TIP3    H243012   6.473   7.963   1.660 -2.2969  1.3788  1.8301
14357TIP3   OH243013   6.989   0.403   2.618 -0.2203  0.0645  0.4464
14357TIP3    H143014   6.914   0.349   2.593 -0.4873  0.7942 -0.3389
14357TIP3    H243015   6.971   0.489   2.580  0.6632  0.4487  0.8777
14358TIP3   OH243016   0.937   4.138   3.437  0.1547 -0.3273 -0.5398
14358TIP3    H143017   0.894   4.173   3.515  1.0298  0.3938 -0.3699
14358TIP3    H243018   0.867   4.098   3.386 -0.6848  0.7013 -0.1941
14359TIP3   OH243019   8.445   1.393   1.536 -0.2549  0.0924 -0.3708
14359TIP3    H143020   8.422   1.300   1.539 -1.2810  0.3860  1.4619
14359TIP3    H243021   8.482   1.412   1.623  0.0538  1.3707 -0.7664
14360TIP3   OH243022   0.240   3.658   2.475  0.0439 -0.4001  0.2039
14360TIP3    H143023   0.276   3.739   2.441 -0.8211  1.6998  4.0763
14360TIP3    H243024   0.306   3.625   2.536 -0.3331 -1.7109 -0.0754
14361TIP3   OH243025   6.379   0.630   2.987 -0.1699  0.0305  0.5967
14361TIP3    H143026   6.297   0.607   2.944  0.6658  0.7385 -1.4679
14361TIP3    H243027   6.445   0.574   2.945  0.8545  1.5976  0.0258
14362TIP3   OH243028   7.658   1.883   2.941  0.0936  0.6970  0.1968
14362TIP3    H143029   7.751   1.905   2.939  0.2343  0.0275 -0.9687
14362TIP3    H243030   7.621   1.928   2.865 -0.4494  0.5707  0.3824
14363TIP3   OH243031   6.756   5.013   0.360 -0.2396  0.4958  0.0103
14363TIP3    H143032   6.814   5.088   0.378  0.1633 -0.2374  1.8512
14363TIP3    H243033   6.815   4.939   0.349 -0.6988  0.2430 -0.7866
14364TIP3   OH243034   8.362   2.294   2.195 -0.2896  0.0543  0.0540
14364TIP3    H143035   8.441   2.337   2.161  1.7022 -1.1708  2.8941
14364TIP3    H243036   8.307   2.365   2.226  0.7927  0.8335  0.2343
14365TIP3   OH243037   1.069   3.087   1.286 -0.1199 -0.0857  0.1285
14365TIP3    H143038   1.112   3.116   1.206  3.2492 -1.0791  1.4674
14365TIP3    H243039   1.076   2.991   1.283 -1.6646 -0.2353  0.7303
14366TIP3   OH243040   3.411   6.345   5.383 -0.3256  0.4328  0.1094
14366TIP3    H143041   3.377   6.420   5.430 -0.5250 -0.7093  1.8401
14366TIP3    H243042   3.476   6.306   5.442  1.2028  0.3718 -1.5685
14367TIP3   OH243043   7.838   1.576   2.260  1.0043  0.3572  0.6266
14367TIP3    H143044   7.772   1.644   2.271  1.8878  1.1341  1.2220
14367TIP3    H243045   7.836   1.555   2.167 -0.4720 -0.0268  0.7426
14368TIP3   OH243046   1.470   3.251   2.398  0.3146  0.4490 -0.1933
14368TIP3    H143047   1.547   3.270   2.344 -0.5030  4.1621 -0.1865
14368TIP3    H243048   1.486   3.296   2.481 -1.9929  1.6427 -0.3360
14369TIP3   OH243049   2.821   3.803   2.680 -0.0039  0.2578  0.0846
14369TIP3    H143050   2.789   3.875   2.626 -2.5309  0.2836  1.5730
14369TIP3    H243051   2.899   3.772   2.634 -0.5415  2.0386 -2.1157
14370TIP3   OH243052   0.818   1.166   1.765 -0.2997 -0.0264  0.0347
14370TIP3    H143053   0.859   1.122   1.840 -0.4654 -0.5016 -0.1541
14370TIP3    H243054   0.725   1.147   1.775 -0.4416  0.8223  0.3112
14371TIP3   OH243055   1.107   2.022   2.150 -0.0730 -0.4474  0.5932
14371TIP3    H143056   1.157   2.051   2.226  0.4985  0.0135  0.0446
14371TIP3    H243057   1.170   2.020   2.078 -0.5222 -1.2533  0.2082
14372TIP3   OH243058   7.830   5.672   1.161 -0.8237 -0.0145 -0.2895
14372TIP3    H143059   7.754   5.689   1.216 -0.2725 -0.8829  0.7459
14372TIP3    H243060   7.903   5.713   1.207 -0.4064 -0.5023 -0.5169
14373TIP3   OH243061   0.882   0.878   3.241  0.3279  0.0298  0.6165
14373TIP3    H143062   0.809   0.833   3.282  0.6749 -0.4487  0.7144
14373TIP3    H243063   0.936   0.808   3.204  0.0799  0.4489 -0.5575
14374TIP3   OH243064   5.962   1.574   1.414  0.0636 -0.4644 -0.3625
14374TIP3    H143065   5.981   1.552   1.505 -0.3104 -2.2062 -0.6905
14374TIP3    H243066   5.973   1.669   1.410  1.5568 -0.5471  1.1407
14375TIP3   OH243067   8.193   2.943   2.298  0.1870 -0.2017 -0.7051
14375TIP3    H143068   8.245   2.887   2.356 -1.9328 -0.4449  1.0191
14375TIP3    H243069   8.240   3.026   2.297 -0.0375 -0.0229  1.8511
14376TIP3   OH243070   5.650   0.965   1.491 -0.1953  0.3144  0.0756
14376TIP3    H143071   5.662   0.911   1.569 -0.7310  0.4631  0.2663
14376TIP3    H243072   5.635   0.903   1.420  0.2910  0.1779  0.0895
14377TIP3   OH243073   7.195   1.735   0.831 -0.0182 -0.7895 -0.4492
14377TIP3    H143074   7.198   1.736   0.735 -0.6495  0.0107 -0.4668
14377TIP3    H243075   7.104   1.755   0.852  0.4147  0.3840  0.3421
14378TIP3   OH243076   3.234   6.551   6.544  0.6624  0.0038 -0.2757
14378TIP3    H143077   3.268   6.634   6.577 -2.2802  1.1881 -0.0474
14378TIP3    H243078   3.274   6.485   6.600  2.5408  1.2980 -0.0363
14379TIP3   OH243079   1.657   2.363   2.532  0.1840 -0.1099  0.4429
14379TIP3    H143080   1.569   2.364   2.569  1.1181 -1.0000  2.8556
14379TIP3    H243081   1.662   2.282   2.482 -0.5472  0.2398 -0.2019
14380TIP3   OH243082   2.741   7.838   6.547 -0.2704  0.2307  0.1908
14380TIP3    H143083   2.739   7.786   6.466 -1.0969  1.9476 -0.9230
14380TIP3    H243084   2.826   7.883   6.544  0.4975 -1.1375  1.2140
14381TIP3   OH243085   8.214   1.618   1.502  0.3473 -0.1373  0.0805
14381TIP3    H143086   8.193   1.699   1.548 -0.3244  0.3886 -1.1416
14381TIP3    H243087   8.285   1.580   1.553  0.3078  0.9524  0.9714
14382TIP3   OH243088   7.337   4.153   2.045  0.2294  0.0327  0.2976
14382TIP3    H143089   7.378   4.067   2.058 -0.0422 -0.5751 -2.4590
14382TIP3    H243090   7.260   4.134   1.991 -0.5052  1.8734  0.6703
14383TIP3   OH243091   1.538   3.822   1.639  0.1654  0.0551  0.0690
14383TIP3    H143092   1.553   3.735   1.602 -0.7744  0.9274 -2.4362
14383TIP3    H243093   1.459   3.854   1.596  1.9824  3.2517 -1.0932
14384TIP3   OH243094   0.699   3.730   0.591  0.1357  0.1043  0.2446
14384TIP3    H143095   0.760   3.682   0.648 -0.5921  0.0025  0.9565
14384TIP3    H243096   0.710   3.690   0.505  1.4708  0.4520  0.2351
14385TIP3   OH243097   3.673   3.098   2.512 -0.0122  0.0673  0.5091
14385TIP3    H143098   3.607   3.154   2.552  0.6489  0.3071  1.2827
14385TIP3    H243099   3.634   3.071   2.429 -0.7942  0.7656  0.6360
14386TIP3   OH243100   1.211   3.155   1.548  0.1009 -0.3696  0.3942
14386TIP3    H143101   1.194   3.249   1.556  0.1538 -0.3653  0.4579
14386TIP3    H243102   1.189   3.134   1.457  2.0784  0.1103 -0.2274
14387TIP3   OH243103   1.041   3.725   1.240 -0.3930  0.0695  0.1150
14387TIP3    H143104   1.024   3.633   1.220 -0.1490  0.0188  0.1321
14387TIP3    H243105   1.071   3.762   1.157 -0.2816  0.0815  0.1603
14388TIP3   OH243106   8.079   2.421   2.538  0.4340 -0.1191 -0.2760
14388TIP3    H143107   8.016   2.352   2.557  0.6036 -0.3140 -0.4204
14388TIP3    H243108   8.026   2.501   2.535 -0.3193 -0.6826 -3.4466
14389TIP3   OH243109   8.336   2.287   2.500  0.2269  0.2599  0.3027
14389TIP3    H143110   8.248   2.295   2.461 -0.0110 -1.0676  0.5439
14389TIP3    H243111   8.378   2.371   2.480 -1.2564  1.1028  0.5974
14390TIP3   OH243112   1.641   3.702   0.828 -0.1842 -0.8502 -0.3041
14390TIP3    H143113   1.713   3.753   0.791  0.1456 -1.6087 -0.7302
14390TIP3    H243114   1.562   3.745   0.793  0.0774 -0.4618 -0.4298
14391TIP3   OH243115   1.837   0.494   3.140 -0.2160  0.3678 -0.1612
14391TIP3    H143116   1.748   0.460   3.152 -0.4024 -0.0121 -2.3386
14391TIP3    H243117   1.825   0.579   3.097  0.4443  0.5765  0.0595
14392TIP3   OH243118   0.023   3.492   2.395  0.2317  0.2642 -0.2529
14392TIP3    H143119   0.067   3.569   2.433 -1.2672  1.5302 -1.0115
14392TIP3    H243120  -0.015   3.447   2.471 -0.3214  1.2086  0.0395
14393TIP3   OH243121   3.314   3.472   0.849  0.0828  0.1762 -0.1224
14393TIP3    H143122   3.323   3.505   0.938 -1.4408 -1.5894  0.7156
14393TIP3    H243123   3.263   3.391   0.858 -0.2572  0.0679 -2.6114
14394TIP3   OH243124   1.877   4.825   0.618  0.3684  0.3012 -0.0337
14394TIP3    H143125   1.893   4.734   0.644  0.0142  0.4713  0.7945
14394TIP3    H243126   1.855   4.819   0.524  0.8551 -0.4059 -0.1072
14395TIP3   OH243127   7.429   1.292   1.227  0.2002  0.0172  0.5686
14395TIP3    H143128   7.471   1.257   1.148 -1.1240  0.3225 -0.2747
14395TIP3    H243129   7.338   1.306   1.202 -0.5753 -1.2716  2.6128
14396TIP3   OH243130   0.296   2.593   1.707 -0.3897  0.1220  0.7848
14396TIP3    H143131   0.367   2.591   1.771 -0.5649  0.0695  0.9767
14396TIP3    H243132   0.341   2.591   1.622 -0.2146 -1.6155  0.9051
14397TIP3   OH243133   1.724   1.970   2.697 -0.2672 -0.2855  0.1789
14397TIP3    H143134   1.710   1.910   2.771 -0.1987  0.0111  0.4374
14397TIP3    H243135   1.820   1.976   2.689 -0.2727 -0.1464  0.2091
14398TIP3   OH243136   3.606   0.250   6.302 -0.1696 -0.0137  0.4558
14398TIP3    H143137   3.551   0.324   6.330 -0.8112 -0.3988  0.2260
14398TIP3    H243138   3.580   0.234   6.212  1.9561  1.2800 -0.4236
14399TIP3   OH243139   1.077   2.668   0.625  0.0255  0.1486 -0.4725
14399TIP3    H143140   1.094   2.584   0.667  2.7571 -0.0977 -1.9442
14399TIP3    H243141   0.985   2.685   0.641 -0.0551 -2.0976  1.6816
14400TIP3   OH243142   7.666   4.133   1.261  0.5802  0.1348  0.0123
14400TIP3    H143143   7.681   4.227   1.265  0.8516  0.0802  0.3303
14400TIP3    H243144   7.600   4.122   1.193 -0.1463  0.6407  0.6141
14401TIP3   OH243145   1.850   4.310   1.276  0.3039  0.0825 -0.6013
14401TIP3    H143146   1.779   4.285   1.335  0.8136  1.3734  0.5720
14401TIP3    H243147   1.909   4.234   1.278 -1.5331 -1.4747 -2.4546
14402TIP3   OH243148   7.555   1.135   0.472  0.2778 -0.0611  0.5710
14402TIP3    H143149   7.476   1.119   0.524  0.0757 -1.1566 -0.0826
14402TIP3    H243150   7.558   1.064   0.408  1.6753  0.0920  0.4448
14403TIP3   OH243151   1.923   2.207   0.880  0.2474  0.6500 -0.6717
14403TIP3    H143152   1.970   2.181   0.959 -0.2042 -1.4598 -1.0695
14403TIP3    H243153   1.979   2.178   0.808 -0.8384 -0.3529 -1.1360
14404TIP3   OH243154   7.986   2.878   1.220 -0.2609  0.2515  0.1843
14404TIP3    H143155   7.902   2.880   1.265  0.5173 -1.5154  1.8049
14404TIP3    H243156   8.009   2.970   1.207 -1.1116  0.7946  2.3235
14405TIP3   OH243157   7.113   2.756   1.683  0.0902  0.0952 -0.5053
14405TIP3    H143158   7.171   2.716   1.748  1.0116  1.7108 -0.3015
14405TIP3    H243159   7.056   2.814   1.734 -0.7967 -0.4571 -0.8655
14406TIP3   OH243160   8.401   1.194   1.190  0.4177 -0.6802 -0.2968
14406TIP3    H143161   8.337   1.124   1.198  1.1568 -1.4787 -1.1327
14406TIP3    H243162   8.481   1.149   1.161  0.7150  0.5902 -1.4938
14407TIP3   OH243163   7.905   0.747   3.445  0.2946 -0.0762 -0.1222
14407TIP3    H143164   7.927   0.766   3.535 -0.5786 -1.1037  0.3312
14407TIP3    H243165   7.866   0.828   3.411 -0.0245  0.0966  0.6434
14408TIP3   OH243166   1.216   3.246   2.550 -0.2120  0.3424  0.4509
14408TIP3    H143167   1.237   3.237   2.643  2.1897 -0.8965 -0.1612
14408TIP3    H243168   1.297   3.221   2.505 -2.1203 -1.6913 -2.0145
14409TIP3   OH243169   0.710   3.369   1.797  0.2364  0.0840 -0.0027
14409TIP3    H143170   0.639   3.306   1.785  1.0086 -0.7293 -0.3760
14409TIP3    H243171   0.789   3.316   1.799  0.7306  0.8561  1.7861
14410TIP3   OH243172   7.991   2.123   0.886 -0.2418  0.0045 -0.0478
14410TIP3    H143173   7.935   2.049   0.907  1.0267 -0.9330  0.1349
14410TIP3    H243174   7.989   2.178   0.965  0.4344 -0.8928  0.6079
14411TIP3   OH243175   7.463   3.170   0.978 -0.1865 -0.8607  0.5586
14411TIP3    H143176   7.375   3.205   0.966 -0.2577 -1.6066 -1.3242
14411TIP3    H243177   7.457   3.118   1.059 -0.6839  1.4164  2.0371
14412TIP3   OH243178   0.439   2.164   2.724  0.2985  0.3702 -0.0165
14412TIP3    H143179   0.478   2.227   2.663 -1.2179 -0.2853 -1.6968
14412TIP3    H243180   0.494   2.170   2.802  1.5403  2.1271 -0.9759
14413TIP3   OH243181   1.437   2.753   1.106 -0.1194 -0.3711 -0.6536
14413TIP3    H143182   1.479   2.814   1.167 -2.0007 -1.0877  1.4316
14413TIP3    H243183   1.419   2.675   1.159  0.8813 -2.2035 -2.8862
14414TIP3   OH243184   1.077   3.020   0.171  0.2917  0.0041  0.0812
14414TIP3    H143185   1.169   2.995   0.178 -0.1043 -1.7398 -0.7848
14414TIP3    H243186   1.030   2.937   0.166 -1.2693  0.8950 -0.1999
14415TIP3   OH243187   8.183   2.297   0.689  0.0090 -0.6024  0.0893
14415TIP3    H143188   8.234   2.358   0.742  0.3273  0.6129 -1.5636
14415TIP3    H243189   8.240   2.275   0.616  0.3771 -3.9354  1.2993
14416TIP3   OH243190   0.095   5.152   1.440  0.3032  0.5354 -0.7508
14416TIP3    H143191   0.159   5.080   1.437  1.2386  1.3339 -0.4020
14416TIP3    H243192   0.063   5.160   1.351 -0.7670 -1.1554 -0.5485
14417TIP3   OH243193   0.217   0.947   0.695  0.1891  0.0953  0.2856
14417TIP3    H143194   0.248   0.894   0.769  0.1168 -0.9300 -0.4013
14417TIP3    H243195   0.158   1.011   0.734  0.1185 -0.4731  1.1244
14418TIP3   OH243196   1.798   2.851   3.807 -0.2996 -0.2219 -0.0218
14418TIP3    H143197   1.781   2.876   3.898  2.2696  2.0519 -0.1117
14418TIP3    H243198   1.776   2.929   3.756  0.7553 -0.5939 -1.0732
14419TIP3   OH243199   1.812   0.776   0.656  0.2595 -0.0808 -0.2212
14419TIP3    H143200   1.815   0.788   0.751  2.9585 -0.3587 -0.2465
14419TIP3    H243201   1.750   0.704   0.643 -2.8200  2.1848  1.0467
14420TIP3   OH243202   1.570   2.140   2.389  0.2635 -0.4296  0.2260
14420TIP3    H143203   1.480   2.166   2.409 -0.4386 -2.5695 -0.0422
14420TIP3    H243204   1.561   2.057   2.341  2.4146 -1.4567  1.5168
14421TIP3   OH243205   8.074   2.899   0.157  0.1916 -0.2572 -0.3180
14421TIP3    H143206   8.162   2.934   0.163 -0.1956  0.9641 -1.4823
14421TIP3    H243207   8.069   2.862   0.068 -0.5455 -0.1087 -0.3436
14422TIP3   OH243208   0.868   4.765   2.452  0.2693 -0.3282  0.2613
14422TIP3    H143209   0.810   4.836   2.424 -0.4548 -0.5627  1.1333
14422TIP3    H243210   0.952   4.807   2.471 -0.2729  0.3668  1.1625
14423TIP3   OH243211   3.432   6.946   6.391 -0.0066 -0.0450  0.7496
14423TIP3    H143212   3.402   6.955   6.300  1.8285 -0.3969  0.0963
14423TIP3    H243213   3.402   7.026   6.434  0.1508  0.6862 -0.4692
14424TIP3   OH243214   0.483   4.677   2.814  0.5479  0.3496 -0.4679
14424TIP3    H143215   0.517   4.588   2.820 -1.4127 -0.5926 -2.8329
14424TIP3    H243216   0.519   4.711   2.732  0.6143  1.4413  0.0108
14425TIP3   OH243217   0.839   4.519   0.405 -0.4715 -0.1062 -0.1496
14425TIP3    H143218   0.781   4.543   0.478  0.0113  0.4199  0.0657
14425TIP3    H243219   0.920   4.566   0.423 -0.4520  0.2793 -1.1937
14426TIP3   OH243220   8.101   0.113   0.216 -0.6083  0.2639 -0.0585
14426TIP3    H143221   8.072   0.165   0.141 -0.4545 -0.6065 -0.7325
14426TIP3    H243222   8.195   0.101   0.202 -0.5152  0.3895  0.4532
14427TIP3   OH243223   1.191   5.514   6.311  0.6511  0.1134  0.3299
14427TIP3    H143224   1.185   5.454   6.236 -1.0657  1.3805 -0.5595
14427TIP3    H243225   1.264   5.572   6.289 -0.2132  0.8507 -0.6546
14428TIP3   OH243226   8.433   3.769   0.113 -0.2360 -0.7900 -0.0706
14428TIP3    H143227   8.377   3.822   0.169  0.3105 -0.6705  0.3606
14428TIP3    H243228   8.424   3.807   0.026  3.1914  2.5374  0.8810
14429TIP3   OH243229   7.131   4.101   1.870 -0.0589  0.1582  0.3247
14429TIP3    H143230   7.149   4.147   1.788  0.4115 -0.1477  0.2477
14429TIP3    H243231   7.041   4.072   1.862 -0.0478  0.2222 -0.0435
14430TIP3   OH243232   7.660   4.031   2.837 -0.1337 -0.0326  0.6028
14430TIP3    H143233   7.680   4.119   2.870 -0.6030 -0.4158  1.9806
14430TIP3    H243234   7.649   3.978   2.917 -2.4592 -0.7462 -0.1691
14431TIP3   OH243235   7.879   2.551   1.705  0.8027  0.2089  0.0139
14431TIP3    H143236   7.816   2.546   1.634 -0.3031 -0.1026  0.9982
14431TIP3    H243237   7.939   2.478   1.690  0.1160 -0.3175 -0.1644
14432TIP3   OH243238   3.571   6.268   5.561 -0.9515 -0.7250  0.8271
14432TIP3    H143239   3.539   6.237   5.646 -1.0937  0.0509  1.0560
14432TIP3    H243240   3.635   6.336   5.583  0.0012 -1.4560  0.3437
14433TIP3   OH243241   0.040   4.761   3.273  0.5492  0.3142 -0.2260
14433TIP3    H143242   0.128   4.733   3.297  0.4539 -0.8520 -1.1522
14433TIP3    H243243  -0.007   4.679   3.255 -0.4517  0.9624 -0.6156
14434TIP3   OH243244   4.494   0.285   6.091 -0.0110  0.0637  0.5705
14434TIP3    H143245   4.462   0.364   6.048 -0.7219  0.3139  1.5413
14434TIP3    H243246   4.472   0.214   6.031  0.7391  0.6168 -0.3602
14435TIP3   OH243247   0.399   3.213   0.590 -0.7610 -0.2485 -0.3609
14435TIP3    H143248   0.348   3.233   0.511 -0.5275  1.4249 -0.0845
14435TIP3    H243249   0.388   3.289   0.646  1.2364 -0.3142  0.1384
14436TIP3   OH243250   0.580   3.377   1.436  0.0453  0.2263  0.1465
14436TIP3    H143251   0.578   3.283   1.418 -1.6831  0.1504  0.6783
14436TIP3    H243252   0.521   3.389   1.510  0.0872  1.7674 -0.0498
14437TIP3   OH243253   8.455   2.535   2.948  0.1033 -0.3626  0.2838
14437TIP3    H143254   8.365   2.508   2.964 -0.9413  1.3180 -2.3659
14437TIP3    H243255   8.496   2.537   3.035 -2.6003 -0.4098  1.5979
14438TIP3   OH243256   1.009   2.531   0.372  0.7053  0.0371 -0.1757
14438TIP3    H143257   1.047   2.564   0.453 -0.0504  0.7183 -0.0963
14438TIP3    H243258   0.916   2.551   0.379  0.6315  0.0752 -1.1974
14439TIP3   OH243259   8.257   3.909   0.479 -0.2822  0.0778  0.2412
14439TIP3    H143260   8.229   3.995   0.509 -3.2998 -1.4896  2.1713
14439TIP3    H243261   8.275   3.860   0.559  2.0452 -0.9221 -0.8347
14440TIP3   OH243262   1.346   1.358   2.576  0.3068 -0.6307  0.4693
14440TIP3    H143263   1.339   1.404   2.492  0.4879 -1.4755 -0.0130
14440TIP3    H243264   1.330   1.426   2.642  1.0856  0.2398 -0.2217
14441TIP3   OH243265   0.591   0.400   2.110  0.4725 -0.4502  0.0773
14441TIP3    H143266   0.556   0.466   2.051  0.3384  1.3377  2.1021
14441TIP3    H243267   0.514   0.355   2.145  0.4211  0.1685  0.7721
14442TIP3   OH243268   7.313   2.029   0.760  0.1236  0.1284 -0.1801
14442TIP3    H143269   7.260   1.992   0.690  0.2218  1.2781 -0.8946
14442TIP3    H243270   7.386   2.070   0.714 -0.3337  1.7632  0.5154
14443TIP3   OH243271   5.198   0.027   6.291  0.0389  0.0831 -0.0535
14443TIP3    H143272   5.249  -0.039   6.244  0.1473 -0.7179  1.1611
14443TIP3    H243273   5.247   0.108   6.281 -0.2756  0.0705 -1.8678
14444TIP3   OH243274   0.052   1.843   3.776  0.5052 -0.0654 -0.0185
14444TIP3    H143275   0.086   1.823   3.689  0.0270  1.0275 -0.4686
14444TIP3    H243276   0.005   1.925   3.765 -0.8666 -0.6988  0.9453
14445TIP3   OH243277   2.112   3.759   2.553 -0.6305  0.6652  0.5134
14445TIP3    H143278   2.189   3.796   2.594  0.9389 -2.3652  0.4369
14445TIP3    H243279   2.081   3.827   2.494  1.9443  1.9482  0.5807
14446TIP3   OH243280   1.182   2.421   1.853  0.4633  0.1108  0.3621
14446TIP3    H143281   1.112   2.406   1.790 -0.3790  0.2208  1.2579
14446TIP3    H243282   1.161   2.363   1.926  0.0311  1.8263  1.6295
14447TIP3   OH243283   7.174   3.308   2.305  0.6803 -0.0372 -0.4812
14447TIP3    H143284   7.118   3.270   2.373  0.4369  0.7599 -0.2205
14447TIP3    H243285   7.238   3.240   2.286  0.1838 -0.6189 -0.1165
14448TIP3   OH243286   4.166   0.559   5.442  0.0343 -0.2190 -0.0104
14448TIP3    H143287   4.256   0.592   5.439 -0.2931  0.6021 -1.4222
14448TIP3    H243288   4.126   0.603   5.516  0.3335  0.6558 -0.3625
14449TIP3   OH243289   2.698   4.592   1.291  0.4146  0.8606  0.2812
14449TIP3    H143290   2.636   4.563   1.224 -0.0347 -0.2166  1.1505
14449TIP3    H243291   2.757   4.652   1.245 -0.3529  0.7236 -0.8980
14450TIP3   OH243292   7.892   2.346   0.734  0.8190 -0.0638 -0.0479
14450TIP3    H143293   7.808   2.326   0.775  1.1946  0.3131  0.9188
14450TIP3    H243294   7.899   2.441   0.737 -0.1153  0.1641 -2.9495
14451TIP3   OH243295   6.712   1.117   6.969  0.2770 -0.4319  0.2268
14451TIP3    H143296   6.704   1.049   6.903 -1.8575  1.0665 -1.1168
14451TIP3    H243297   6.755   1.190   6.924 -2.1589  0.9966  0.1217
14452TIP3   OH243298   7.388   1.940   0.290 -0.3297  0.3932  0.1821
14452TIP3    H143299   7.463   1.970   0.341  0.4353  0.1021 -0.7639
14452TIP3    H243300   7.378   2.006   0.222 -0.1354 -0.2349 -0.4601
14453TIP3   OH243301   0.288   3.420   2.292  0.0665  0.2640  0.4465
14453TIP3    H143302   0.313   3.496   2.239 -0.6738  0.9155  1.0363
14453TIP3    H243303   0.196   3.434   2.312  0.3375  0.0085  1.8964
14454TIP3   OH243304   3.843   6.927   4.735  0.0524 -0.2397  0.0523
14454TIP3    H143305   3.861   7.003   4.789  0.4725  1.3581 -2.2442
14454TIP3    H243306   3.825   6.856   4.797  0.5786  1.4934  2.2278
14455TIP3   OH243307   7.601   4.355   0.621 -0.2308 -0.2048  0.0727
14455TIP3    H143308   7.664   4.426   0.604 -1.1991  0.0471 -2.5717
14455TIP3    H243309   7.518   4.400   0.635 -0.1270 -0.6272  2.2603
14456TIP3   OH243310   0.205   3.670   1.442  0.8304 -0.8988 -0.1688
14456TIP3    H143311   0.165   3.620   1.372  1.0105 -1.8235  0.3793
14456TIP3    H243312   0.198   3.761   1.414  1.1930 -1.2863 -1.5253
14457TIP3   OH243313   7.599   2.071   0.403  0.0984 -0.6497 -0.0300
14457TIP3    H143314   7.636   2.028   0.480 -0.3217  0.4764  0.8206
14457TIP3    H243315   7.667   2.064   0.336  1.5267  0.6309  1.2416
14458TIP3   OH243316   3.137   5.691   6.900  0.6891  0.6362  0.2595
14458TIP3    H143317   3.203   5.627   6.925  1.0660  1.1360  0.5533
14458TIP3    H243318   3.100   5.657   6.818  0.1556 -0.4860  0.9584
14459TIP3   OH243319   7.530   4.088   1.036 -0.0406 -0.0810 -0.0627
14459TIP3    H143320   7.558   4.013   0.983 -0.5906 -0.2375 -0.1398
14459TIP3    H243321   7.516   4.158   0.972 -0.6078 -0.2406 -0.1186
14460TIP3   OH243322   1.404   1.791   0.801  0.2754 -0.2228 -0.1179
14460TIP3    H143323   1.377   1.802   0.710  1.3198 -1.3269 -0.5787
14460TIP3    H243324   1.497   1.768   0.796 -0.3791 -3.4347  1.0086
14461TIP3   OH243325   8.062   3.195   2.568  0.6722  0.0824  0.2753
14461TIP3    H143326   8.003   3.252   2.617  1.9534  0.6956  1.1339
14461TIP3    H243327   8.100   3.252   2.500 -0.1919 -0.4693 -0.6896
14462TIP3   OH243328   0.679   3.442   2.841  0.3850 -0.4237  0.9364
14462TIP3    H143329   0.651   3.407   2.756  0.1762  2.1690 -0.0808
14462TIP3    H243330   0.621   3.399   2.904  0.2941 -2.0927 -0.2472
14463TIP3   OH243331   0.460   3.528   1.126  0.3043  0.5691  0.2593
14463TIP3    H143332   0.444   3.492   1.213  0.5939 -0.1574  0.0160
14463TIP3    H243333   0.419   3.615   1.128  0.2845  0.5427  1.1045
14464TIP3   OH243334   1.125   2.086   2.647  0.6876 -0.0991 -0.0951
14464TIP3    H143335   1.059   2.064   2.712  0.2118 -0.8710 -0.8315
14464TIP3    H243336   1.101   2.174   2.617 -0.4873 -0.6976 -0.9379
14465TIP3   OH243337   6.718   3.433   1.347  0.2369 -0.4909 -0.2261
14465TIP3    H143338   6.744   3.431   1.255 -1.5661  2.2027 -0.8523
14465TIP3    H243339   6.792   3.475   1.392  0.9872 -1.5267 -0.4683
14466TIP3   OH243340   7.032   3.740   1.682  0.1967  0.0921  0.0705
14466TIP3    H143341   7.002   3.686   1.755  0.1993 -0.7708 -0.5542
14466TIP3    H243342   7.115   3.700   1.655  0.6513  0.9497  0.1694
14467TIP3   OH243343   3.489   5.352   6.305  0.1396 -0.0798  0.0048
14467TIP3    H143344   3.512   5.434   6.261  0.7099 -0.3134 -0.1240
14467TIP3    H243345   3.477   5.289   6.234  0.2049 -0.2379  0.1331
14468TIP3   OH243346   2.684   3.729   1.569 -0.1952  0.3715  0.3093
14468TIP3    H143347   2.773   3.706   1.595 -0.5268 -1.0495  0.2107
14468TIP3    H243348   2.629   3.661   1.607 -1.2086  1.0281  0.0485
14469TIP3   OH243349   8.260   3.738   1.298 -0.4125 -0.1297  0.1240
14469TIP3    H143350   8.238   3.794   1.373  0.2296 -1.4727  1.3460
14469TIP3    H243351   8.274   3.799   1.226  1.7944  1.4204  1.7865
14470TIP3   OH243352   2.122   3.742   2.126  0.2534  0.1331  1.0997
14470TIP3    H143353   2.111   3.776   2.215  0.8945  0.6925  0.9661
14470TIP3    H243354   2.192   3.678   2.132  0.4445  0.3274  0.9567
14471TIP3   OH243355   2.825   5.100   1.684 -0.0649 -0.0457  0.0818
14471TIP3    H143356   2.870   5.019   1.711 -2.5087 -1.6522 -0.4810
14471TIP3    H243357   2.841   5.105   1.589  0.2982  0.2572  0.1610
14472TIP3   OH243358   1.674   5.250   0.808  0.3851 -0.8490  0.4615
14472TIP3    H143359   1.591   5.294   0.823  0.7410  0.1804 -0.5388
14472TIP3    H243360   1.657   5.192   0.734  0.8319  0.1266 -0.4107
14473TIP3   OH243361   3.207   7.340   5.718  0.1156  0.0148 -0.1420
14473TIP3    H143362   3.283   7.340   5.776 -0.0028  0.3951  0.0130
14473TIP3    H243363   3.145   7.400   5.759  0.6249  1.4582 -1.4399
14474TIP3   OH243364   2.068   6.474   6.546  0.3420  0.0796 -0.2073
14474TIP3    H143365   2.041   6.554   6.501  1.6021  0.6421  0.0203
14474TIP3    H243366   1.986   6.437   6.579 -0.4503  0.3386 -1.8279
14475TIP3   OH243367   1.805   5.185   2.380  0.3226 -0.4409  0.4146
14475TIP3    H143368   1.840   5.252   2.439 -0.2926  1.1201 -0.9766
14475TIP3    H243369   1.879   5.162   2.323 -0.3699  1.5247 -1.3192
14476TIP3   OH243370   1.200   4.255   3.348 -0.8073  1.0642 -0.0742
14476TIP3    H143371   1.135   4.188   3.328  2.8392 -2.1808 -1.8453
14476TIP3    H243372   1.212   4.301   3.265  0.3911  0.4423 -0.2613
14477TIP3   OH243373   3.299   4.153   6.263  0.9049 -0.4152 -0.4096
14477TIP3    H143374   3.313   4.247   6.256  0.0976 -0.3691 -1.6029
14477TIP3    H243375   3.267   4.140   6.352  1.2266  0.4058 -0.1679
14478TIP3   OH243376   2.157   6.896   6.630  0.1403 -0.1502 -0.7628
14478TIP3    H143377   2.183   6.821   6.685  0.6274  0.9155  0.4786
14478TIP3    H243378   2.211   6.888   6.552  0.5430 -0.8226 -0.4296
14479TIP3   OH243379   7.699   2.863   0.878  0.5198  0.0219 -0.5450
14479TIP3    H143380   7.677   2.956   0.873 -1.8052 -0.3830  1.3330
14479TIP3    H243381   7.624   2.823   0.922  2.4032 -2.4263  0.5484
14480TIP3   OH243382   2.667   2.198   2.932  0.2081 -0.0651  0.0302
14480TIP3    H143383   2.745   2.240   2.967  1.6083 -2.9925  0.5872
14480TIP3    H243384   2.605   2.196   3.005  0.9711 -0.9628  0.6575
14481TIP3   OH243385   0.260   2.037   0.892 -0.8427 -0.6995 -0.4373
14481TIP3    H143386   0.213   2.001   0.968 -1.2322  0.2088 -0.2347
14481TIP3    H243387   0.324   1.971   0.869  0.5623 -0.1711  1.8681
14482TIP3   OH243388   7.868   1.598   1.423 -0.4131  0.6674  0.1095
14482TIP3    H143389   7.857   1.669   1.487 -0.3063 -0.0107  0.8826
14482TIP3    H243390   7.874   1.643   1.339  0.1953  1.6164  0.6468
14483TIP3   OH243391   0.949   2.452   3.747 -0.4724 -0.6050 -0.4159
14483TIP3    H143392   0.971   2.398   3.671  0.6343 -1.6444  0.6080
14483TIP3    H243393   0.971   2.396   3.822  1.4492  1.5587  0.6849
14484TIP3   OH243394   7.174   2.770   0.982  0.3454 -0.5545 -0.2998
14484TIP3    H143395   7.128   2.852   0.963 -1.7035 -1.4153  0.7062
14484TIP3    H243396   7.126   2.704   0.932  1.5742 -1.2372 -0.5869
14485TIP3   OH243397   8.008   2.819   1.536 -0.0399  0.0990  0.4610
14485TIP3    H143398   7.950   2.882   1.492 -0.7663 -0.0003  1.2758
14485TIP3    H243399   7.951   2.773   1.598  1.3919  1.6794  3.0273
14486TIP3   OH243400   3.128   3.542   0.090  0.1404 -0.2849 -0.1917
14486TIP3    H143401   3.096   3.454   0.109 -0.8303  0.2153  0.5214
14486TIP3    H243402   3.088   3.598   0.157 -0.2010  0.8847 -1.3461
14487TIP3   OH243403   1.964   3.713   0.363  0.0811  0.0131 -0.7404
14487TIP3    H143404   2.025   3.760   0.421  0.9662 -0.1917 -1.4908
14487TIP3    H243405   1.935   3.638   0.415  0.2309  0.2834 -0.2622
14488TIP3   OH243406   6.765   2.844   0.757  0.1235  0.4994 -0.2859
14488TIP3    H143407   6.696   2.848   0.824  1.8907 -2.2140  1.8132
14488TIP3    H243408   6.723   2.802   0.682 -1.0499  0.7159  0.2382
14489TIP3   OH243409   7.653   0.882   0.730  0.0150 -0.2013  0.3320
14489TIP3    H143410   7.713   0.939   0.683 -0.6622 -1.6786 -2.4187
14489TIP3    H243411   7.708   0.839   0.796  1.6911 -0.5192 -1.2413
14490TIP3   OH243412   0.893   1.794   0.566 -0.7835  0.0716 -0.3896
14490TIP3    H143413   0.966   1.854   0.581 -0.9549  0.5440 -1.3961
14490TIP3    H243414   0.876   1.755   0.651  0.1038  0.5785  0.0263
14491TIP3   OH243415   8.208   3.995   2.682 -0.0803  0.0025  0.2819
14491TIP3    H143416   8.218   4.033   2.595 -1.1817  1.7945  0.9183
14491TIP3    H243417   8.297   3.990   2.716  0.4817 -1.7708 -1.3600
14492TIP3   OH243418   4.264   7.535   2.052  0.5451 -0.9262 -0.6883
14492TIP3    H143419   4.329   7.569   1.990  1.4535 -1.1732  0.1155
14492TIP3    H243420   4.183   7.530   2.001  1.2672 -1.0791 -1.8496
14493TIP3   OH243421   3.576   3.839   6.671  0.1699 -0.1059  0.5025
14493TIP3    H143422   3.550   3.808   6.584 -0.2169  2.4348 -0.3407
14493TIP3    H243423   3.513   3.908   6.691  0.3393 -0.5614  2.7722
14494TIP3   OH243424   1.082   0.944   2.217  0.3739 -0.0086  0.9154
14494TIP3    H143425   1.087   0.852   2.192 -1.1996 -0.4509  2.1663
14494TIP3    H243426   1.078   0.943   2.313  1.7182  1.4320  1.0123
14495TIP3   OH243427   0.457   4.681   1.373  0.1760 -0.1893  0.6437
14495TIP3    H143428   0.542   4.673   1.330  0.0793 -0.9636  0.5896
14495TIP3    H243429   0.397   4.711   1.304  0.7713  2.1597  1.1087
14496TIP3   OH243430   7.798   1.868   1.297  0.4785 -0.5839  0.4807
14496TIP3    H143431   7.811   1.955   1.259  1.0544 -1.2239 -0.8206
14496TIP3    H243432   7.707   1.846   1.275  0.4476 -0.4645  0.4908
14497TIP3   OH243433   1.971   1.831   0.769 -0.4570 -0.5356  0.2536
14497TIP3    H143434   2.024   1.889   0.715 -2.0610 -0.6728 -1.5190
14497TIP3    H243435   1.980   1.745   0.728 -0.1365 -1.0407  1.3599
14498TIP3   OH243436   0.265   2.886   0.078 -0.5090  0.0152  0.1956
14498TIP3    H143437   0.259   2.909  -0.014  0.6967 -3.2141 -0.7219
14498TIP3    H243438   0.352   2.914   0.105 -0.2210 -0.6112 -0.0908
14499TIP3   OH243439   2.023   6.721   6.425  0.0222 -0.2852 -0.1345
14499TIP3    H143440   1.933   6.748   6.443  0.5906  0.5847  1.5857
14499TIP3    H243441   2.075   6.799   6.444  1.0283 -0.3836 -2.3792
14500TIP3   OH243442   0.523   2.441   0.975  0.1665 -0.1836 -0.0366
14500TIP3    H143443   0.576   2.372   1.014 -1.5216  0.6008  3.9540
14500TIP3    H243444   0.437   2.401   0.962 -0.2620  0.5494  0.4519
14501TIP3   OH243445   1.151   2.495   0.137  0.8787  1.4304  0.9080
14501TIP3    H143446   1.182   2.408   0.159  0.0957  0.9699  0.1868
14501TIP3    H243447   1.107   2.526   0.217 -0.6126  0.3679  0.5082
14502TIP3   OH243448   2.952   5.122   3.335  0.6085  0.0940 -0.3334
14502TIP3    H143449   2.932   5.173   3.256 -1.5112  0.1390  0.1975
14502TIP3    H243450   2.882   5.057   3.339  1.0941 -0.3499  1.1317
14503TIP3   OH243451   1.391   3.571   3.341 -0.2703  0.3690 -1.0103
14503TIP3    H143452   1.486   3.564   3.335 -0.1046  0.1783  1.1934
14503TIP3    H243453   1.373   3.663   3.324  0.8450  1.5158  3.2563
14504TIP3   OH243454   0.317   0.043   6.182  0.2657 -0.1541  0.4260
14504TIP3    H143455   0.321   0.034   6.277  0.5044  1.5517  0.5927
14504TIP3    H243456   0.241  -0.009   6.156  0.5154 -1.0680  1.4805
14505TIP3   OH243457   0.654   2.913   2.958  0.0978 -0.4950  0.1587
14505TIP3    H143458   0.599   2.939   3.031 -0.7221 -1.0154 -0.2552
14505TIP3    H243459   0.593   2.874   2.895  0.6041  1.1148 -1.3639
14506TIP3   OH243460   2.858   2.729   0.676 -0.1954 -0.4359 -0.6642
14506TIP3    H143461   2.799   2.654   0.684 -1.3974  0.6409  0.7527
14506TIP3    H243462   2.898   2.738   0.763  0.8580 -0.1731 -1.1623
14507TIP3   OH243463   1.311   5.984   1.359  0.4048  0.3757  0.2359
14507TIP3    H143464   1.366   6.041   1.413  0.3169  1.1722 -0.5131
14507TIP3    H243465   1.222   6.006   1.385  0.4103 -0.4762  1.0039
14508TIP3   OH243466   3.162   4.233   2.317  0.3141  0.1338 -0.6580
14508TIP3    H143467   3.207   4.248   2.401  1.1013 -0.8202 -0.8956
14508TIP3    H243468   3.090   4.295   2.317 -0.5809 -0.8338  1.3973
14509TIP3   OH243469   4.225   6.387   6.673 -0.2837  0.1019 -0.5597
14509TIP3    H143470   4.132   6.408   6.675 -0.4379 -0.1827 -2.8646
14509TIP3    H243471   4.257   6.428   6.593  1.3815 -0.5145 -0.2258
14510TIP3   OH243472   1.689   2.399   1.411 -0.6999  0.2789 -0.0738
14510TIP3    H143473   1.665   2.463   1.478 -0.7014 -0.6544  0.8365
14510TIP3    H243474   1.668   2.314   1.451  1.2723 -0.4103 -0.4417
14511TIP3   OH243475   2.413   2.550   0.895 -0.4346  0.2254  0.6961
14511TIP3    H143476   2.322   2.554   0.867  0.2923 -1.3976 -2.1860
14511TIP3    H243477   2.457   2.616   0.841  0.1945  0.5495  1.6098
14512TIP3   OH243478   7.716   7.207   1.604 -0.0064 -0.5093 -0.7244
14512TIP3    H143479   7.646   7.266   1.633 -0.0857 -0.7225 -0.4797
14512TIP3    H243480   7.787   7.265   1.577 -0.1411 -0.2989 -0.6280
14513TIP3   OH243481   1.493   3.594   1.489 -0.0722 -0.0954 -0.5006
14513TIP3    H143482   1.515   3.605   1.396  0.2134  0.3618 -0.3822
14513TIP3    H243483   1.398   3.591   1.491 -0.0715 -0.5557 -0.8570
14514TIP3   OH243484   1.889   3.800   0.672  0.5740  0.7727  0.6113
14514TIP3    H143485   1.882   3.743   0.595  0.9191  0.9583  0.4435
14514TIP3    H243486   1.852   3.884   0.642  0.8487  0.8899  0.6014
14515TIP3   OH243487   3.652   6.617   6.551  0.0972  0.1770 -0.3077
14515TIP3    H143488   3.596   6.621   6.473 -0.2267  0.6537 -0.0584
14515TIP3    H243489   3.740   6.602   6.517 -0.0392  0.3941 -0.7672
14516TIP3   OH243490   2.025   4.790   2.826 -0.1403  0.3276 -0.1039
14516TIP3    H143491   2.099   4.732   2.807 -2.0391 -1.1710 -3.4139
14516TIP3    H243492   2.058   4.878   2.808  0.6400 -0.3961 -2.4841
14517TIP3   OH243493   5.035   7.302   5.530 -0.0792 -0.2437  0.2059
14517TIP3    H143494   5.085   7.311   5.611 -0.9215  0.5592  0.6600
14517TIP3    H243495   4.950   7.342   5.551 -0.1042  0.4966 -1.2548
14518TIP3   OH243496   1.951   3.621   1.488  0.2028 -0.0191  0.3718
14518TIP3    H143497   1.931   3.552   1.425 -0.1069  1.2090 -0.9203
14518TIP3    H243498   1.868   3.669   1.497  0.7898  1.0499  0.1447
14519TIP3   OH243499   1.066   2.999   2.669  0.1060 -0.4652  0.3519
14519TIP3    H143500   1.051   3.088   2.700  1.8805 -0.0011 -0.0367
14519TIP3    H243501   1.075   2.947   2.748  1.0220  0.0722  0.6143
14520TIP3   OH243502   0.906   3.464   0.532 -0.0289 -0.1408 -0.3406
14520TIP3    H143503   0.965   3.400   0.493  0.4671  0.3205 -0.3392
14520TIP3    H243504   0.855   3.498   0.459 -0.0981 -0.3250 -0.3795
14521TIP3   OH243505   2.763   4.544   2.620  0.0777 -0.8606 -0.1353
14521TIP3    H143506   2.731   4.628   2.589  0.7677  0.2129  1.9543
14521TIP3    H243507   2.696   4.513   2.681  1.6111  0.0456  2.0678
14522TIP3   OH243508   8.433   1.577   6.770  0.1928  0.2254  0.0261
14522TIP3    H143509   8.445   1.500   6.824 -1.2540 -0.4044 -0.5220
14522TIP3    H243510   8.507   1.634   6.791  0.8429 -0.9778  0.9909
14523TIP3   OH243511   0.403   0.679   0.113  0.3244 -0.5799 -0.2091
14523TIP3    H143512   0.493   0.646   0.113  1.0037  1.1895  1.9981
14523TIP3    H243513   0.412   0.773   0.130 -1.9940 -0.5568  1.0816
14524TIP3   OH243514   1.536   3.271   0.558  0.5996 -0.5103 -0.0235
14524TIP3    H143515   1.488   3.324   0.621  0.0554 -1.3742  0.2998
14524TIP3    H243516   1.508   3.181   0.575  0.4992 -0.7662 -1.4440
14525TIP3   OH243517   3.633   2.025   0.086  0.1183  0.5156 -0.1770
14525TIP3    H143518   3.623   2.095   0.022  1.7231  0.8660 -0.0776
14525TIP3    H243519   3.696   2.059   0.149  0.1872 -0.6543  0.4048
14526TIP3   OH243520   1.116   0.013   5.139 -0.0501 -0.8964  0.5132
14526TIP3    H143521   1.041   0.033   5.083  0.7657 -0.1652 -0.3089
14526TIP3    H243522   1.121   0.086   5.200 -0.0941 -1.0206  0.6668
14527TIP3   OH243523   0.864   4.980   1.777  0.3642 -0.3596 -0.0153
14527TIP3    H143524   0.890   4.981   1.685  1.8682 -2.3147  0.3600
14527TIP3    H243525   0.776   5.018   1.777 -0.0939 -1.2974 -2.4191
14528TIP3   OH243526   1.390   2.644   0.660 -0.3846 -0.2178 -0.1153
14528TIP3    H143527   1.417   2.604   0.743 -0.8964  2.2670  1.3055
14528TIP3    H243528   1.301   2.674   0.676 -0.3584  0.5941 -1.4524
14529TIP3   OH243529   3.022   2.500   1.477 -0.1916  0.6152  0.0936
14529TIP3    H143530   3.064   2.572   1.524 -0.5421  0.0414  1.3036
14529TIP3    H243531   2.937   2.535   1.450 -0.0104  0.9269 -0.0775
14530TIP3   OH243532   0.136   2.602   1.066  0.2060 -0.1520 -0.4270
14530TIP3    H143533   0.074   2.675   1.064  0.7070  0.2838  0.0011
14530TIP3    H243534   0.098   2.537   1.006 -0.9736 -0.1304  0.2685
14531TIP3   OH243535   2.130   2.579   1.909 -0.2358  0.1029 -0.2539
14531TIP3    H143536   2.204   2.529   1.945 -0.2534 -1.8096 -2.6782
14531TIP3    H243537   2.109   2.644   1.976  1.5012 -1.4808  1.9001
14532TIP3   OH243538   0.628   3.374   2.086 -0.6236 -0.8748 -0.1822
14532TIP3    H143539   0.583   3.308   2.033  0.0419 -1.6840  0.2524
14532TIP3    H243540   0.716   3.377   2.049  0.4081 -2.7797  2.0435
14533TIP3   OH243541   1.307   2.724   2.539 -0.3675 -0.1316 -0.7820
14533TIP3    H143542   1.215   2.731   2.564  0.2097  1.7334  0.9917
14533TIP3    H243543   1.314   2.776   2.459 -0.6763  0.5390 -0.3787
14534TIP3   OH243544   7.774   4.872   0.103 -0.1126  0.0869  0.0943
14534TIP3    H143545   7.840   4.863   0.035 -0.4986 -0.0756 -0.2595
14534TIP3    H243546   7.765   4.967   0.115  0.5280  0.1025  0.4850
14535TIP3   OH243547   0.673   2.646   1.790 -0.1379  0.0597  0.2571
14535TIP3    H143548   0.583   2.632   1.820 -1.1053  1.8444 -1.6960
14535TIP3    H243549   0.710   2.707   1.855  0.1897 -1.8199  1.8960
14536TIP3   OH243550   2.304   1.371   0.883  0.4514 -0.4526 -0.0294
14536TIP3    H143551   2.300   1.427   0.961  2.0116 -0.0977 -0.1952
14536TIP3    H243552   2.380   1.315   0.898  0.8772 -0.2464 -1.3918
14537TIP3   OH243553   1.342   3.201   0.860 -0.1528  0.3307  0.0258
14537TIP3    H143554   1.341   3.147   0.781  1.9898  0.1984  0.0719
14537TIP3    H243555   1.261   3.179   0.905 -1.5754  0.6408 -2.2898
14538TIP3   OH243556   3.488   0.756   1.172  0.7620 -0.2398  0.7711
14538TIP3    H143557   3.445   0.695   1.233  0.2952  0.2303  0.9118
14538TIP3    H243558   3.563   0.707   1.139  0.9002 -0.5800  1.5637
14539TIP3   OH243559   1.512   3.011   1.838  0.2550 -0.5154  0.2292
14539TIP3    H143560   1.592   3.061   1.820  0.4686 -0.7954  0.3808
14539TIP3    H243561   1.483   3.043   1.923  0.0320 -0.1920  0.0318
14540TIP3   OH243562   2.804   7.189   6.319  0.0777  0.3596  0.2399
14540TIP3    H143563   2.789   7.205   6.412 -0.0693 -1.2873  0.5035
14540TIP3    H243564   2.727   7.142   6.289  0.5080  0.1181 -0.5190
14541TIP3   OH243565   6.529   0.033   6.627 -0.2811 -0.0233 -0.5614
14541TIP3    H143566   6.573  -0.051   6.617  0.4992  0.5311 -2.0342
14541TIP3    H243567   6.440   0.019   6.594 -0.3906 -0.4680 -0.0739
14542TIP3   OH243568   6.068   0.682   5.883 -0.0996 -0.2347 -0.1492
14542TIP3    H143569   6.016   0.684   5.802  0.3185  2.1643 -0.3944
14542TIP3    H243570   6.154   0.713   5.857  0.4295 -0.7463  0.9712
14543TIP3   OH243571   5.848   7.661   4.868  0.2640 -0.2069 -0.1464
14543TIP3    H143572   5.894   7.681   4.786  1.0170 -0.3760  0.2372
14543TIP3    H243573   5.917   7.640   4.930 -0.2562  0.9396  0.8230
14544TIP3   OH243574   8.252   0.885   6.857 -0.7674 -0.3982 -0.0122
14544TIP3    H143575   8.258   0.964   6.911 -0.5883 -1.4372  1.5229
14544TIP3    H243576   8.224   0.817   6.918 -2.4066 -1.2088 -1.6417
14545TIP3   OH243577   0.325   2.820   1.091  0.3617 -0.5176 -0.0764
14545TIP3    H143578   0.280   2.736   1.101 -0.9868  0.1116 -0.8103
14545TIP3    H243579   0.300   2.850   1.003  0.7937  0.6827  0.2071
14546TIP3   OH243580   0.994   4.316   1.009  0.1291 -0.3927  0.2409
14546TIP3    H143581   1.034   4.385   1.062 -3.4196  0.4854  1.9488
14546TIP3    H243582   1.017   4.235   1.054  1.8286 -0.1069 -0.0869
14547TIP3   OH243583   2.294   4.264   0.077 -0.1345  0.7925 -0.0875
14547TIP3    H143584   2.272   4.182   0.033  0.7443  0.7642 -0.4685
14547TIP3    H243585   2.216   4.284   0.129 -0.0597 -0.6811  0.6222
14548TIP3   OH243586   5.367   7.642   6.027  0.8298 -0.2425  0.3878
14548TIP3    H143587   5.369   7.737   6.025 -2.6008 -0.1212  0.0526
14548TIP3    H243588   5.375   7.616   5.935 -0.6557 -0.1579  0.2193
14549TIP3   OH243589   2.095   3.205   1.011 -0.0461 -0.1356 -0.0071
14549TIP3    H143590   2.016   3.244   1.048  0.1366  1.3963 -1.2263
14549TIP3    H243591   2.141   3.169   1.087 -0.9895  0.6148  0.9321
14550TIP3   OH243592   1.975   1.335   1.132  0.3997  0.2003 -0.4009
14550TIP3    H143593   1.979   1.428   1.156 -0.3216 -0.1521  1.1425
14550TIP3    H243594   1.937   1.335   1.044  1.1387  1.4028 -0.7423
14551TIP3   OH243595   1.117   2.529   1.528 -0.0689  0.0460 -0.3365
14551TIP3    H143596   1.092   2.459   1.588 -0.3337  0.9567  0.6287
14551TIP3    H243597   1.150   2.599   1.585 -0.3302  0.9206 -1.2426
14552TIP3   OH243598   1.370   3.858   3.808 -0.4070 -0.0865  0.2318
14552TIP3    H143599   1.338   3.848   3.718 -0.4702 -1.9550  0.4435
14552TIP3    H243600   1.403   3.948   3.811 -0.4044  0.0114 -1.6624
14553TIP3   OH243601   1.346   4.299   0.159 -0.2470  0.1160  0.3287
14553TIP3    H143602   1.410   4.355   0.114 -1.4926  0.2006 -1.3810
14553TIP3    H243603   1.348   4.216   0.111  0.3461 -0.7451  1.8004
14554TIP3   OH243604   3.616   4.803   1.996  0.3095  0.1831  0.6939
14554TIP3    H143605   3.638   4.895   1.992  1.2587  0.0601  2.5647
14554TIP3    H243606   3.685   4.758   1.947 -0.0887  0.4274 -0.1112
14555TIP3   OH243607   6.010   0.614   6.330  0.1649 -0.0899 -0.1789
14555TIP3    H143608   5.916   0.611   6.345  0.2931 -0.3415  0.6045
14555TIP3    H243609   6.041   0.527   6.357  0.8507  0.5658  1.1842
14556TIP3   OH243610   0.621   2.649   0.052 -0.0701 -0.5032  0.2812
14556TIP3    H143611   0.657   2.677  -0.032 -3.3603  0.8594 -0.7586
14556TIP3    H243612   0.599   2.556   0.039 -1.1834 -0.1304 -0.6393
14557TIP3   OH243613   4.151   6.694   6.258 -0.1405  0.0107 -0.4207
14557TIP3    H143614   4.144   6.752   6.182  0.3986 -1.1156 -1.3450
14557TIP3    H243615   4.245   6.684   6.273 -0.2178 -0.9176 -0.5071
14558TIP3   OH243616   2.343   3.935   2.235  0.1506  0.1818 -0.2205
14558TIP3    H143617   2.422   3.881   2.228  0.2074  0.3222 -0.6895
14558TIP3    H243618   2.359   3.991   2.311  1.2029  1.3428 -1.2780
14559TIP3   OH243619   3.233   2.024   0.777 -0.5632 -0.2093  0.8377
14559TIP3    H143620   3.260   1.962   0.845  0.6732 -1.0788 -0.4264
14559TIP3    H243621   3.241   1.976   0.695 -2.0160  0.8378  0.0551
14560TIP3   OH243622   3.478   1.772   0.631  0.1050  0.3370  0.0796
14560TIP3    H143623   3.445   1.769   0.721 -0.4968 -2.3713 -0.1800
14560TIP3    H243624   3.572   1.753   0.640 -0.1046 -0.7268  0.0825
14561TIP3   OH243625   8.488   2.185   0.759  0.7766 -0.1487 -0.6250
14561TIP3    H143626   8.417   2.124   0.777  0.9789 -0.1241  0.2834
14561TIP3    H243627   8.567   2.131   0.764  1.0562  0.4268  1.4425
14562TIP3   OH243628   5.980   7.219   6.522  0.0832 -0.0551  0.4976
14562TIP3    H143629   6.051   7.191   6.463 -0.1633 -0.1615  0.2470
14562TIP3    H243630   5.926   7.141   6.531  0.1979 -0.0765  0.9808
14563TIP3   OH243631   6.048   6.108   5.246  0.2246  0.0168  0.0432
14563TIP3    H143632   6.021   6.200   5.243  0.7011  0.1381 -4.2886
14563TIP3    H243633   5.976   6.060   5.207  1.0938 -1.1096 -0.2114
14564TIP3   OH243634   0.765   3.016   1.400 -0.3475  0.8148 -0.0271
14564TIP3    H143635   0.785   2.923   1.411 -0.3172  0.7088 -0.9945
14564TIP3    H243636   0.826   3.046   1.333 -0.4736  1.4994  0.1603
14565TIP3   OH243637   5.068   7.613   6.827 -0.0740  0.1830  0.3906
14565TIP3    H143638   5.163   7.629   6.821 -0.4381  1.8337 -1.1822
14565TIP3    H243639   5.056   7.528   6.785  0.4654  0.9232 -1.3300
14566TIP3   OH243640   1.945   3.974   1.957 -0.8170  0.1271  0.5189
14566TIP3    H143641   2.030   4.018   1.946 -1.0603  0.8855  1.5904
14566TIP3    H243642   1.962   3.883   1.934  0.5147  0.0789  1.6571
14567TIP3   OH243643   0.275   0.728   2.183  0.0084 -0.0557 -0.5628
14567TIP3    H143644   0.186   0.751   2.210  0.4247  1.6998 -0.6407
14567TIP3    H243645   0.272   0.634   2.170 -2.5722  0.3375 -3.3222
14568TIP3   OH243646   2.975   4.038   0.188 -0.1285  0.0327  0.4447
14568TIP3    H143647   3.070   4.026   0.185 -0.1005  0.0362  1.0808
14568TIP3    H243648   2.940   3.950   0.201 -0.2155  0.0198  0.1137
14569TIP3   OH243649   2.664   3.953   1.795  0.1753  0.0760  0.1517
14569TIP3    H143650   2.730   4.009   1.836  0.3348  0.2114 -0.2911
14569TIP3    H243651   2.714   3.900   1.733 -0.5068  2.0989 -2.2029
14570TIP3   OH243652   2.343   5.029   0.087 -0.1458 -0.1529  0.1099
14570TIP3    H143653   2.311   5.119   0.089  1.6337  0.5430 -1.2172
14570TIP3    H243654   2.420   5.031   0.145  1.1051 -0.3024 -1.5065
14571TIP3   OH243655   0.738   4.568   2.862 -0.0803  0.1199 -0.0065
14571TIP3    H143656   0.717   4.661   2.857  1.1148  0.4077  0.0779
14571TIP3    H243657   0.746   4.540   2.771 -0.8399  0.0088 -0.0363
14572TIP3   OH243658   3.817   6.959   6.715 -0.0319 -0.1453 -0.2297
14572TIP3    H143659   3.885   7.026   6.709  0.0234 -0.2275 -0.5672
14572TIP3    H243660   3.866   6.878   6.732 -0.1414 -0.0134  0.7265
14573TIP3   OH243661   0.506   4.306   2.843 -0.1452  0.2571  0.4352
14573TIP3    H143662   0.469   4.352   2.768  1.2070  0.7461  0.0601
14573TIP3    H243663   0.598   4.292   2.820 -0.0810 -0.9493  1.3501
14574TIP3   OH243664   2.084   3.368   0.322 -0.3524  0.0678 -0.2507
14574TIP3    H143665   2.106   3.458   0.297  2.9431 -0.4011  0.7520
14574TIP3    H243666   2.105   3.363   0.415 -0.8676 -1.6314 -0.2126
14575TIP3   OH243667   1.575   0.648   1.684  0.0664  0.1395  0.0027
14575TIP3    H143668   1.540   0.735   1.667 -0.6754  0.2442  1.9466
14575TIP3    H243669   1.538   0.593   1.616 -1.2567  0.9085  0.0890
14576TIP3   OH243670   2.191   4.053   1.091  0.8358  0.3566  0.6499
14576TIP3    H143671   2.203   3.993   1.165 -0.3004  0.3014  0.8042
14576TIP3    H243672   2.256   4.122   1.104  1.1841 -0.0814  1.2525
14577TIP3   OH243673   0.729   3.592   1.165 -0.3431  0.0282 -0.3122
14577TIP3    H143674   0.755   3.559   1.078 -1.8308  2.4966 -1.7675
14577TIP3    H243675   0.641   3.559   1.178  0.8043 -2.4540  1.4501
14578TIP3   OH243676   0.740   1.630   0.088  0.9625  0.1837 -0.0599
14578TIP3    H143677   0.792   1.564   0.041  2.6730 -0.0555  2.0812
14578TIP3    H243678   0.770   1.623   0.179 -2.2403  0.6631  1.0810
14579TIP3   OH243679   8.456   2.557   2.016 -0.4454 -0.4943 -0.1316
14579TIP3    H143680   8.434   2.632   1.961  0.2738 -0.7020 -0.7041
14579TIP3    H243681   8.403   2.485   1.981  1.2059 -1.0234 -1.5860
14580TIP3   OH243682   3.663   3.493   0.732 -0.1162  0.2348  0.7097
14580TIP3    H143683   3.725   3.489   0.659 -0.4891  1.8660  0.2911
14580TIP3    H243684   3.579   3.510   0.691 -0.7391 -1.2957  1.3358
14581TIP3   OH243685   2.861   4.138   1.870 -0.3186 -0.0553 -0.4779
14581TIP3    H143686   2.950   4.128   1.905 -0.5250  0.7024  0.2872
14581TIP3    H243687   2.873   4.175   1.783  0.0507  1.8773  0.3678
14582TIP3   OH243688   5.138   7.049   6.119 -0.0506 -0.2894  0.0798
14582TIP3    H143689   5.222   7.092   6.134  0.0002 -0.7217  1.0909
14582TIP3    H243690   5.161   6.968   6.073  0.2173 -0.9744  1.3874
14583TIP3   OH243691   0.252   0.586   6.200 -0.6380  0.4650  0.6893
14583TIP3    H143692   0.253   0.493   6.222 -0.2410  0.6763  1.5790
14583TIP3    H243693   0.240   0.588   6.105 -0.5312 -0.4974  0.6526
14584TIP3   OH243694   1.657   2.368   2.221  0.8302  0.4254  0.4396
14584TIP3    H143695   1.629   2.277   2.212  2.2257  0.0306 -0.0806
14584TIP3    H243696   1.635   2.390   2.312 -2.2669  0.5587 -0.3146
14585TIP3   OH243697   4.233   3.720   0.430  0.2506 -0.1166  0.5355
14585TIP3    H143698   4.260   3.682   0.514 -3.8941 -1.7458  1.2670
14585TIP3    H243699   4.233   3.647   0.369 -0.8047  0.1917  0.1610
14586TIP3   OH243700   2.199   2.093   2.035 -0.2156 -0.1053 -0.3125
14586TIP3    H143701   2.209   2.003   2.065  0.0724  0.1242  0.2916
14586TIP3    H243702   2.210   2.146   2.114 -0.3347  0.4629 -0.6716
14587TIP3   OH243703   2.048   4.296   0.205  0.6800 -0.1070  0.1883
14587TIP3    H143704   2.002   4.285   0.122  1.0713 -0.5203  0.0208
14587TIP3    H243705   2.005   4.235   0.264  2.6625 -2.4419 -0.6642
14588TIP3   OH243706   5.090   6.721   6.182  0.4752 -0.2546  0.1333
14588TIP3    H143707   5.078   6.626   6.179 -0.1035 -0.2219  1.0327
14588TIP3    H243708   5.132   6.737   6.267 -0.2555  0.3672  0.3836
14589TIP3   OH243709   8.251   5.316   1.046  0.0221  0.2289 -0.1568
14589TIP3    H143710   8.286   5.230   1.023  0.7798  0.6429 -0.5884
14589TIP3    H243711   8.159   5.300   1.066  0.4965 -0.9034  1.1593
14590TIP3   OH243712   4.193   0.582   1.362 -0.7202  0.3093 -0.3336
14590TIP3    H143713   4.232   0.665   1.387  1.6388 -0.7705 -0.3281
14590TIP3    H243714   4.238   0.516   1.415  1.0230 -1.4892 -3.8121
14591TIP3   OH243715   7.244   7.479   0.531 -0.3596  0.3219 -0.0905
14591TIP3    H143716   7.231   7.387   0.509 -0.8294  0.6129 -1.0928
14591TIP3    H243717   7.214   7.487   0.621  1.6578 -0.9278  0.7139
14592TIP3   OH243718   8.433   2.778   0.993 -0.3416 -0.2458 -0.0510
14592TIP3    H143719   8.386   2.695   1.004 -1.3204  0.2900 -0.1507
14592TIP3    H243720   8.367   2.845   1.010  1.0194  0.5091  2.3603
14593TIP3   OH243721   2.910   2.103   1.463  0.9883 -0.2044 -0.2754
14593TIP3    H143722   2.904   2.186   1.512 -0.3461  0.5065 -1.6074
14593TIP3    H243723   2.825   2.061   1.477  0.0527  0.6776 -3.1393
14594TIP3   OH243724   3.250   1.323   1.997 -0.0765  0.3627 -0.6543
14594TIP3    H143725   3.215   1.411   2.010  1.2517  1.0200 -1.3639
14594TIP3    H243726   3.345   1.336   1.989  0.2894 -1.3014  0.7281
14595TIP3   OH243727   0.751   2.928   0.798 -0.6321 -0.2131  0.0004
14595TIP3    H143728   0.670   2.943   0.749 -0.8032 -1.7062 -0.1997
14595TIP3    H243729   0.796   2.859   0.750 -0.0253 -0.5586  1.0345
14596TIP3   OH243730   1.353   3.978   1.901  1.4707  0.1267  0.1967
14596TIP3    H143731   1.265   3.958   1.933  0.4943  2.3255 -1.0123
14596TIP3    H243732   1.389   3.894   1.873 -0.3631 -0.7386  0.3935
14597TIP3   OH243733   2.336   2.954   1.536 -0.3240  0.2789  0.6359
14597TIP3    H143734   2.333   2.901   1.617  0.3619  0.4514  0.7787
14597TIP3    H243735   2.263   2.921   1.484 -1.1048  0.5329  1.5529
14598TIP3   OH243736   2.115   2.891   2.657 -0.1838  0.1492  0.0707
14598TIP3    H143737   2.184   2.873   2.593 -0.6108 -0.6076 -0.1887
14598TIP3    H243738   2.073   2.971   2.626  0.6511  0.6801  0.2967
14599TIP3   OH243739   7.529   1.635   2.280  0.4316 -0.8475 -1.0859
14599TIP3    H143740   7.469   1.563   2.303  0.6816 -0.7644 -0.1256
14599TIP3    H243741   7.591   1.638   2.353  0.5922  0.1614 -1.2577
14600TIP3   OH243742   3.448   6.023   6.680  0.3081 -0.3698  0.1239
14600TIP3    H143743   3.415   6.002   6.767 -2.4604  1.0658 -0.5315
14600TIP3    H243744   3.543   6.031   6.692 -0.1944  1.4173  3.3662
14601TIP3   OH243745   1.676   1.782   0.760  0.0220 -0.1066 -0.3701
14601TIP3    H143746   1.727   1.856   0.728  0.7276 -0.0500  0.8860
14601TIP3    H243747   1.735   1.733   0.817 -0.5549 -1.4320 -0.8664
14602TIP3   OH243748   7.748   3.116   0.769 -0.0219  0.1693  0.0751
14602TIP3    H143749   7.705   3.145   0.688 -1.0059 -0.1439  0.4860
14602TIP3    H243750   7.765   3.198   0.816 -0.7993  0.2503  0.2270
14603TIP3   OH243751   3.614   6.362   6.709  0.2521  0.0957  0.2081
14603TIP3    H143752   3.599   6.434   6.648 -1.2746  0.4820  1.0128
14603TIP3    H243753   3.643   6.289   6.654 -1.6706  0.2731 -1.0728
14604TIP3   OH243754   5.502   0.465   6.286 -0.3664  0.6050 -0.0998
14604TIP3    H143755   5.562   0.540   6.287  0.4788 -0.0654  0.0802
14604TIP3    H243756   5.530   0.413   6.211  0.2854 -0.5165  0.9058
14605TIP3   OH243757   2.476   4.613   1.117  0.4673  0.0067 -0.1688
14605TIP3    H143758   2.466   4.618   1.022  0.9790 -0.2712 -0.2365
14605TIP3    H243759   2.461   4.703   1.147 -2.0881 -0.3414 -0.2708
14606TIP3   OH243760   3.300   3.146   0.147  0.4763 -0.4896 -0.2053
14606TIP3    H143761   3.273   3.153   0.056 -0.6434 -0.3276  0.1211
14606TIP3    H243762   3.340   3.060   0.155 -0.9758 -1.2032 -0.4707
14607TIP3   OH243763   1.726   2.942   2.466 -0.3137 -0.2020 -0.4183
14607TIP3    H143764   1.799   3.004   2.461 -0.2049 -0.2418  0.6736
14607TIP3    H243765   1.753   2.878   2.531 -1.2413 -0.3358 -0.1587
14608TIP3   OH243766   0.344   2.157   0.595  0.4846 -0.0274  0.3797
14608TIP3    H143767   0.307   2.115   0.673 -1.1077 -1.3946 -1.0897
14608TIP3    H243768   0.406   2.221   0.630  0.3519 -1.1437  2.7571
14609TIP3   OH243769   1.386   3.995   2.964  0.3103  0.8072 -0.5035
14609TIP3    H143770   1.394   3.998   2.868  1.7146  1.0874 -0.3904
14609TIP3    H243771   1.472   4.022   2.996  0.3548 -0.8423  0.8344
14610TIP3   OH243772   2.779   2.789   0.427 -0.0408 -0.6292 -0.2395
14610TIP3    H143773   2.802   2.753   0.513  1.1663  2.0797  0.5954
14610TIP3    H243774   2.750   2.712   0.376  1.7865 -2.6717  1.7113
14611TIP3   OH243775   2.951   3.566   0.724 -0.0564  0.0253 -0.0826
14611TIP3    H143776   3.043   3.555   0.749  0.2913  0.5377 -1.1053
14611TIP3    H243777   2.904   3.503   0.778  0.9732 -0.7150 -0.0283
14612TIP3   OH243778   6.361   3.223   1.272  0.4153 -0.1633  0.3248
14612TIP3    H143779   6.307   3.288   1.318 -0.4641  0.8639 -2.0819
14612TIP3    H243780   6.310   3.143   1.274 -0.3320  0.2985 -0.2419
14613TIP3   OH243781   2.485   3.165   0.876 -0.0368  0.0393  0.3863
14613TIP3    H143782   2.531   3.150   0.958 -0.6373  1.1398  0.9313
14613TIP3    H243783   2.523   3.102   0.815  0.0952 -1.0828  1.6222
14614TIP3   OH243784   2.715   1.712   1.098 -0.5033  0.0233  0.6927
14614TIP3    H143785   2.679   1.774   1.161 -0.9270  0.7228 -0.2256
14614TIP3    H243786   2.671   1.733   1.016  1.7429  0.6906 -0.3795
14615TIP3   OH243787   1.255   4.705   3.309  0.6819 -0.2106 -0.5692
14615TIP3    H143788   1.176   4.702   3.363  1.1985  1.0033  0.2774
14615TIP3    H243789   1.224   4.727   3.221  0.0097 -0.5388 -0.4167
14616TIP3   OH243790   1.038   2.408   2.172 -0.1737  0.3422  0.4428
14616TIP3    H143791   1.005   2.496   2.191  0.6636  0.8118 -0.2889
14616TIP3    H243792   1.128   2.421   2.143 -0.7648 -0.5255 -1.9449
14617TIP3   OH243793   2.832   2.060   1.051 -0.0846 -0.4794 -0.4388
14617TIP3    H143794   2.758   2.057   0.991 -1.3824  0.2918  1.0880
14617TIP3    H243795   2.812   2.132   1.110  2.5874  0.7054 -0.8815
14618TIP3   OH243796   0.825   3.449   2.475 -0.2119 -0.1745 -0.0402
14618TIP3    H143797   0.751   3.433   2.534  0.4620 -0.3990  0.7458
14618TIP3    H243798   0.864   3.362   2.463  0.6106  0.1296  0.4531
14619TIP3   OH243799   3.149   0.764   1.911 -0.4684  0.4309  0.1133
14619TIP3    H143800   3.055   0.751   1.920 -0.1103 -1.0571  1.9850
14619TIP3    H243801   3.166   0.846   1.959 -0.7682  0.5899 -0.0477
14620TIP3   OH243802   1.131   1.587   1.614  0.1983 -0.5659 -0.3057
14620TIP3    H143803   1.119   1.493   1.611  0.6508 -0.6289 -0.2519
14620TIP3    H243804   1.226   1.599   1.622  0.1552 -0.1060 -0.4460
14621TIP3   OH243805   3.953   6.366   6.333  0.3429  0.1238 -1.1691
14621TIP3    H143806   3.993   6.445   6.371 -0.7898 -0.7913  2.1443
14621TIP3    H243807   3.868   6.397   6.300  0.6693  0.6361 -1.5426
14622TIP3   OH243808   5.494   0.344   5.998 -0.3013 -0.4342 -0.4230
14622TIP3    H143809   5.578   0.384   5.974 -0.8203 -0.2116 -1.9061
14622TIP3    H243810   5.485   0.270   5.938  0.4877 -2.6356  2.0590
14623TIP3   OH243811   1.601   3.862   0.457 -0.9182  0.3064 -0.4784
14623TIP3    H143812   1.542   3.788   0.443  1.3221 -1.3358 -1.7225
14623TIP3    H243813   1.653   3.866   0.376 -0.3967  2.6985 -0.0663
14624TIP3   OH243814   2.794   3.436   1.694 -0.1070 -0.1112  0.0748
14624TIP3    H143815   2.732   3.479   1.754 -0.5210  1.0892 -1.1807
14624TIP3    H243816   2.738   3.396   1.628  0.4260  0.1836 -0.5511
14625TIP3   OH243817   6.165   6.541   6.931 -0.1534 -0.0566 -0.2575
14625TIP3    H143818   6.125   6.468   6.884  1.3349  1.0358 -3.2966
14625TIP3    H243819   6.097   6.609   6.932 -0.8909 -0.7732  1.0055
14626TIP3   OH243820   3.776   7.565   5.743  0.0778  0.1635  0.5941
14626TIP3    H143821   3.719   7.637   5.771 -1.5522 -1.2097  0.9434
14626TIP3    H243822   3.838   7.605   5.683 -1.5774  1.6583 -0.1794
14627TIP3   OH243823   1.093   1.387   1.974  0.0832 -0.1741  0.3766
14627TIP3    H143824   1.161   1.447   1.945 -1.3365  0.5012 -1.6222
14627TIP3    H243825   1.042   1.367   1.895 -2.0290 -0.6936  1.8179
14628TIP3   OH243826   2.201   4.563   2.453  0.6602 -0.8065 -0.1734
14628TIP3    H143827   2.271   4.599   2.507  1.3948 -1.8081 -0.4522
14628TIP3    H243828   2.126   4.619   2.472  1.5170  0.2604  0.1566
14629TIP3   OH243829   4.288   0.865   6.390 -0.5740  0.0753  0.0460
14629TIP3    H143830   4.210   0.916   6.366 -1.2443 -0.1552  1.6708
14629TIP3    H243831   4.341   0.927   6.441  0.2145  0.1586 -0.8551
14630TIP3   OH243832   4.754   6.366   6.556 -0.0502 -0.0626 -0.2547
14630TIP3    H143833   4.736   6.398   6.645 -2.0754 -1.6008 -0.0706
14630TIP3    H243834   4.675   6.389   6.507 -0.3508 -2.2442 -0.8044
14631TIP3   OH243835   3.152   1.219   0.579 -0.3886 -0.0367  0.4294
14631TIP3    H143836   3.194   1.134   0.592  0.4137  0.4843  1.2324
14631TIP3    H243837   3.139   1.254   0.667 -0.2987  0.8775  0.0843
14632TIP3   OH243838   0.456   1.078   6.432 -0.3149 -0.2704  0.0441
14632TIP3    H143839   0.504   1.144   6.481 -0.6586  0.5222 -0.6667
14632TIP3    H243840   0.492   1.083   6.343 -1.5219  0.1492 -0.4302
14633TIP3   OH243841   6.616   5.354   6.655 -0.2395 -0.7366 -0.7522
14633TIP3    H143842   6.597   5.261   6.647  0.9785 -1.0561  0.0052
14633TIP3    H243843   6.712   5.360   6.656 -0.3005  0.3919  0.5631
14634TIP3   OH243844   0.522   1.790   0.610 -0.4610 -0.0445 -0.5269
14634TIP3    H143845   0.595   1.739   0.575 -0.9758 -2.6289  1.9167
14634TIP3    H243846   0.450   1.775   0.549 -0.1693 -1.0779 -0.6283
14635TIP3   OH243847   7.658   3.022   1.739 -0.1150 -0.3667  1.1135
14635TIP3    H143848   7.718   2.948   1.750  0.0923 -0.3510  0.1802
14635TIP3    H243849   7.712   3.100   1.756 -0.2460 -0.4174  1.7525
14636TIP3   OH243850   0.867   1.318   3.029  0.0947  0.0660 -0.0574
14636TIP3    H143851   0.791   1.369   3.002 -0.1683 -0.1569  0.2560
14636TIP3    H243852   0.838   1.272   3.107  0.7797  0.5280  0.4740
14637TIP3   OH243853   2.817   2.430   0.475 -0.4138 -0.3127 -0.2501
14637TIP3    H143854   2.857   2.419   0.561  0.3214 -0.4296 -0.6010
14637TIP3    H243855   2.890   2.457   0.418 -1.0100  0.3539 -0.7070
14638TIP3   OH243856   8.235   3.822   2.911 -0.3123  0.6067  0.0164
14638TIP3    H143857   8.145   3.853   2.899  0.0683  1.5362 -0.5313
14638TIP3    H243858   8.228   3.750   2.973 -1.7923 -1.2072 -2.1824
14639TIP3   OH243859   7.749   1.834   5.056  0.2410 -0.2139 -0.3277
14639TIP3    H143860   7.752   1.819   4.961  0.5267 -0.6079 -0.2574
14639TIP3    H243861   7.676   1.781   5.087 -0.0920  0.2105 -0.3784
14640TIP3   OH243862   2.350   1.524   2.447 -0.1847 -0.2876 -0.7067
14640TIP3    H143863   2.262   1.549   2.474 -0.4583 -3.2637  1.4097
14640TIP3    H243864   2.387   1.604   2.409 -2.7015  1.8366  1.1427
14641TIP3   OH243865   2.269   4.425   0.483  0.2135 -0.7668 -0.0975
14641TIP3    H143866   2.293   4.335   0.506 -0.6830 -0.5101  2.0198
14641TIP3    H243867   2.174   4.423   0.473  0.2376 -0.1486 -0.4620
14642TIP3   OH243868   3.759   3.263   0.175 -0.1298 -0.0475 -0.3481
14642TIP3    H143869   3.853   3.248   0.181 -0.1751 -0.3209 -0.3035
14642TIP3    H243870   3.739   3.322   0.248  0.4006  1.9798 -1.7982
14643TIP3   OH243871   7.698   0.116   5.945 -0.1497 -0.5943  0.6190
14643TIP3    H143872   7.691   0.207   5.917 -0.3887 -1.0571 -0.9235
14643TIP3    H243873   7.608   0.084   5.942  0.0971 -1.2422 -0.2003
14644TIP3   OH243874   3.148   1.316   0.830 -0.1655  0.5312 -0.1344
14644TIP3    H143875   3.232   1.341   0.870 -1.2006 -0.1782  2.6510
14644TIP3    H243876   3.082   1.345   0.894 -1.8586 -1.4864 -0.9207
14645TIP3   OH243877   0.699   3.312   0.247 -0.3762 -0.1363  0.0105
14645TIP3    H143878   0.632   3.377   0.268  0.8202  1.0041  0.3885
14645TIP3    H243879   0.709   3.261   0.328 -1.2846 -0.7647 -0.2716
14646TIP3   OH243880   1.860   3.021   0.856  0.0362 -0.0805 -0.0388
14646TIP3    H143881   1.827   2.968   0.783  1.1539 -0.1113 -0.5236
14646TIP3    H243882   1.950   3.041   0.833 -0.1352  1.3863  0.5171
14647TIP3   OH243883   8.347   7.610   2.363  0.0256  0.2481  0.5294
14647TIP3    H143884   8.380   7.580   2.447 -0.3046 -1.7432 -0.0178
14647TIP3    H243885   8.366   7.704   2.361 -0.5804  0.4628  3.1019
14648TIP3   OH243886   1.569   3.519   2.150  0.1493 -0.1601  0.0394
14648TIP3    H143887   1.539   3.564   2.072  2.5762  0.1478 -0.7533
14648TIP3    H243888   1.513   3.553   2.220 -1.7030 -0.0622 -1.4434
14649TIP3   OH243889   1.898   3.394   1.031  0.0902 -0.6247 -0.1366
14649TIP3    H143890   1.955   3.452   1.081 -0.3172  0.8338 -1.3286
14649TIP3    H243891   1.814   3.439   1.027 -0.2914 -1.3752 -0.9380
14650TIP3   OH243892   7.795   3.575   1.401 -0.3881  0.0364 -0.2462
14650TIP3    H143893   7.805   3.615   1.315  2.3508  1.7276  0.7702
14650TIP3    H243894   7.793   3.650   1.462  0.0636 -1.1947  1.3285
14651TIP3   OH243895   0.506   4.083   1.430 -0.3404  0.2833  0.2577
14651TIP3    H143896   0.560   4.158   1.405  0.2115 -0.6318 -1.3616
14651TIP3    H243897   0.565   4.027   1.481  0.5150 -1.0699 -2.1264
14652TIP3   OH243898   1.882   2.512   2.571  0.1881 -0.1508  0.1448
14652TIP3    H143899   1.793   2.479   2.556  0.7446 -2.2047  1.1424
14652TIP3    H243900   1.919   2.525   2.484 -0.8143 -0.0187 -0.2638
14653TIP3   OH243901   8.345   2.663   1.623  0.1276 -0.3075  0.2069
14653TIP3    H143902   8.356   2.696   1.712 -1.8993 -0.9992  0.7385
14653TIP3    H243903   8.409   2.713   1.571 -1.7740  3.4419  1.2509
14654TIP3   OH243904   2.385   1.785   0.717  0.3160  0.2014  0.0541
14654TIP3    H143905   2.361   1.726   0.645  0.8484  0.2740 -0.1872
14654TIP3    H243906   2.435   1.855   0.675  0.2019  0.5058  0.4279
14655TIP3   OH243907   3.295   1.123   1.329  0.4931  0.2012 -0.1369
14655TIP3    H143908   3.217   1.129   1.384 -1.5161 -0.5586 -2.8292
14655TIP3    H243909   3.331   1.212   1.329 -1.4734  1.0209 -0.3949
14656TIP3   OH243910   1.413   1.592   1.668  0.1683 -0.0681 -0.2548
14656TIP3    H143911   1.505   1.568   1.653  0.4523  1.4073 -0.9732
14656TIP3    H243912   1.403   1.675   1.622 -0.9980  0.7845  1.5179
14657TIP3   OH243913   1.640   1.736   0.491  0.1023 -0.7587  0.0593
14657TIP3    H143914   1.706   1.786   0.443 -0.1817 -0.6951 -0.2655
14657TIP3    H243915   1.661   1.750   0.583  0.0641 -0.0952 -0.0342
14658TIP3   OH243916   3.353   6.425   6.284 -0.1348 -0.1987  0.8096
14658TIP3    H143917   3.326   6.417   6.192  0.1408 -1.7819  0.8510
14658TIP3    H243918   3.355   6.519   6.300  0.1796  0.1078 -0.9216
14659TIP3   OH243919   1.037   0.528   6.665  0.7546  0.4761  0.6305
14659TIP3    H143920   1.031   0.502   6.573 -0.3418  1.3019  0.4620
14659TIP3    H243921   0.968   0.593   6.676  0.9699  0.4787  2.0124
14660TIP3   OH243922   2.072   3.458   2.684 -0.1220  0.1057 -0.7699
14660TIP3    H143923   2.090   3.416   2.768 -0.7909  1.9784  0.3478
14660TIP3    H243924   2.154   3.504   2.663 -0.8451  1.9359  0.2794
14661TIP3   OH243925   0.463   1.575   1.355 -0.4542  0.2451 -0.6032
14661TIP3    H143926   0.518   1.543   1.427  1.8321  0.9859 -1.9700
14661TIP3    H243927   0.431   1.495   1.313  2.9296 -0.3566 -2.2596
14662TIP3   OH243928   1.511   3.324   1.031  0.5021 -0.4947 -0.9237
14662TIP3    H143929   1.508   3.254   1.095  2.0236 -1.0540 -1.4291
14662TIP3    H243930   1.435   3.309   0.975 -0.1901 -0.6675  0.0504
14663TIP3   OH243931   0.885   3.009   1.031  0.2990  0.1226 -0.1836
14663TIP3    H143932   0.858   2.958   1.108  0.2915 -0.1274 -0.3521
14663TIP3    H243933   0.831   2.976   0.960  0.2256  0.4369 -0.2729
14664TIP3   OH243934   1.190   0.974   6.383 -0.4724  0.0078  0.4845
14664TIP3    H143935   1.181   0.909   6.313 -1.2247 -1.0164  1.5260
14664TIP3    H243936   1.129   1.044   6.360 -0.1196  0.0592 -0.3084
14665TIP3   OH243937   4.342   4.690   0.379 -0.7535  0.8591 -0.1752
14665TIP3    H143938   4.325   4.715   0.288 -0.0744  0.0090 -0.5411
14665TIP3    H243939   4.326   4.595   0.381 -1.3195  0.9671  0.7233
14666TIP3   OH243940   4.927   7.116   6.782 -0.5336  0.2086 -0.7595
14666TIP3    H143941   4.971   7.189   6.740  0.3757  0.6766  0.9682
14666TIP3    H243942   4.930   7.136   6.876 -0.4808 -1.9089 -0.2719
14667TIP3   OH243943   3.583   1.018   0.792  0.0464  0.7058  0.4762
14667TIP3    H143944   3.629   0.956   0.736  0.5469  1.7366 -0.2744
14667TIP3    H243945   3.578   0.975   0.878  1.6477  0.2406  0.3412
14668TIP3   OH243946   3.269   2.228   0.246  0.0020  0.2108 -0.4373
14668TIP3    H143947   3.260   2.272   0.330  3.5434  2.3438 -1.0839
14668TIP3    H243948   3.345   2.268   0.205 -1.3386 -1.0890 -4.5062
14669TIP3   OH243949   5.227   5.655   6.716 -0.7249  0.1599  0.0334
14669TIP3    H143950   5.223   5.644   6.620 -1.9325 -0.2348  0.1151
14669TIP3    H243951   5.179   5.736   6.733  0.9739  1.1694  0.1749
14670TIP3   OH243952   3.815   3.288   1.368 -0.1556  0.2564  0.1056
14670TIP3    H143953   3.746   3.243   1.320 -0.6397  0.7475  0.3457
14670TIP3    H243954   3.796   3.381   1.356 -0.7304  0.3845  1.9036
14671TIP3   OH243955   6.439   6.914   5.876 -0.2497 -0.3835 -0.3171
14671TIP3    H143956   6.362   6.970   5.882 -0.2632  0.0616 -3.4262
14671TIP3    H243957   6.513   6.975   5.868  0.0546 -0.7888 -0.6582
14672TIP3   OH243958   6.954   6.879   4.769 -0.2836 -0.5089  0.3651
14672TIP3    H143959   6.913   6.931   4.700  0.3937  1.2213  1.2477
14672TIP3    H243960   7.029   6.931   4.797  0.9048 -2.3400  0.6997
14673TIP3   OH243961   2.592   4.649   0.045 -0.0479  0.0030  0.2795
14673TIP3    H143962   2.676   4.612   0.068  1.0244  1.4623 -1.1605
14673TIP3    H243963   2.542   4.577   0.006  0.8747 -0.6480  0.3183
14674TIP3   OH243964   6.483   7.577   5.219  0.1967 -0.0053 -0.1994
14674TIP3    H143965   6.428   7.649   5.249  0.7052 -0.1228  1.0779
14674TIP3    H243966   6.534   7.552   5.297  1.5100 -0.3750 -1.1527
14675TIP3   OH243967   3.970   3.945   2.230 -0.1897  0.1966 -0.0591
14675TIP3    H143968   3.977   3.932   2.324  0.7802 -0.8508 -0.2615
14675TIP3    H243969   3.966   4.040   2.219 -0.0181  0.3348  1.0146
14676TIP3   OH243970   5.547   6.505   6.717 -0.3098  0.0166 -0.0251
14676TIP3    H143971   5.537   6.600   6.707  1.6536  0.3486  0.9778
14676TIP3    H243972   5.558   6.473   6.628  0.0289  0.8489 -0.2890
14677TIP3   OH243973   4.287   6.854   6.803  0.8569  0.1430  0.0471
14677TIP3    H143974   4.217   6.866   6.738  0.6201  2.2358  0.6303
14677TIP3    H243975   4.254   6.786   6.862  1.2722 -2.1101 -2.2420
14678TIP3   OH243976   4.837   5.734   6.859  0.1883 -0.4459 -0.5084
14678TIP3    H143977   4.822   5.645   6.888  1.6657 -0.8122 -0.8331
14678TIP3    H243978   4.759   5.782   6.885 -0.8819 -1.9709 -0.8925
14679TIP3   OH243979   4.837   4.657   0.795 -0.1171  0.0601 -0.3391
14679TIP3    H143980   4.918   4.613   0.769 -1.1689 -1.2538 -1.5449
14679TIP3    H243981   4.841   4.662   0.890  1.8720  1.0116 -0.4651
14680TIP3   OH243982   6.687   4.559   6.069  0.3728  0.2760  0.4777
14680TIP3    H143983   6.652   4.611   5.997  2.1868  0.6192 -0.1919
14680TIP3    H243984   6.738   4.490   6.026  1.6854  0.6344  1.4168
14681TIP3   OH243985   1.784   2.855   1.340 -1.1214 -0.2426 -0.4931
14681TIP3    H143986   1.787   2.905   1.259 -1.8602 -0.5510 -0.7042
14681TIP3    H243987   1.876   2.848   1.366 -1.0469  1.9724 -0.0029
14682TIP3   OH243988   2.182   0.010   5.163 -0.1850 -0.2062  0.3785
14682TIP3    H143989   2.225   0.081   5.115 -1.4729  0.7266  0.5885
14682TIP3    H243990   2.247  -0.017   5.228  1.1262 -0.6845 -1.0773
14683TIP3   OH243991   4.650   3.670   1.756  0.7413  0.1979  0.1510
14683TIP3    H143992   4.641   3.765   1.768  1.3544  0.2112  0.5382
14683TIP3    H243993   4.716   3.644   1.821  0.7755 -0.4514 -0.1425
14684TIP3   OH243994   0.726   0.462   6.596 -0.3339 -0.1448  0.0927
14684TIP3    H143995   0.644   0.497   6.630  0.5353 -0.0551  2.1721
14684TIP3    H243996   0.791   0.531   6.615  0.8390 -1.6191  1.5300
14685TIP3   OH243997   2.534   3.175   0.483  0.1957  0.4839 -0.5798
14685TIP3    H143998   2.460   3.125   0.516 -0.8794  1.9846 -0.6347
14685TIP3    H243999   2.574   3.215   0.561  0.4367  0.3569 -0.6367
14686TIP3   OH244000   7.367   6.135   4.896 -0.3846  0.3286 -0.0580
14686TIP3    H144001   7.427   6.107   4.965 -0.2214 -2.1155 -1.1311
14686TIP3    H244002   7.423   6.177   4.831 -0.0108 -0.7362 -0.4313
14687TIP3   OH244003   6.227   5.306   4.779 -0.4078 -0.2171  0.7286
14687TIP3    H144004   6.246   5.387   4.731 -2.6705 -0.1446 -0.0964
14687TIP3    H244005   6.313   5.266   4.794  0.4813  0.7166 -1.7108
14688TIP3   OH244006   2.949   1.378   1.031  0.7323 -0.1931 -0.1092
14688TIP3    H144007   2.965   1.284   1.038 -1.1225 -0.5091 -0.0842
14688TIP3    H244008   2.855   1.386   1.015  1.2127  1.5582 -2.3233
14689TIP3   OH244009   2.564   3.050   0.064  0.3082 -0.1364  0.2016
14689TIP3    H144010   2.610   3.062   0.147  1.2572 -1.7114 -0.0763
14689TIP3    H244011   2.476   3.023   0.089 -0.0252  1.3583  0.7104
14690TIP3   OH244012   5.529   7.034   6.553  0.5120 -0.1889  0.8044
14690TIP3    H144013   5.478   7.113   6.533  0.8776 -0.2911 -0.5719
14690TIP3    H244014   5.467   6.962   6.543  1.1409 -0.4042 -1.8994
14691TIP3   OH244015   1.831   3.236   0.009  0.2310  0.0700 -0.0060
14691TIP3    H144016   1.833   3.143  -0.013 -0.7836  0.2167 -0.7191
14691TIP3    H244017   1.902   3.246   0.072 -0.8104 -1.5366  1.4828
14692TIP3   OH244018   2.644   1.179   5.696 -0.1917  0.5286  0.2119
14692TIP3    H144019   2.685   1.130   5.767  0.3524  1.2381  0.3876
14692TIP3    H244020   2.567   1.220   5.737  0.1130  0.9245  0.3845
14693TIP3   OH244021   5.761   7.673   5.278  0.4000  0.2466 -0.2283
14693TIP3    H144022   5.793   7.589   5.245 -0.9562  0.0469 -1.0715
14693TIP3    H244023   5.680   7.651   5.323  0.8560  0.9020  0.9403
14694TIP3   OH244024   7.890   0.615   6.916  0.5467 -0.4048  0.0510
14694TIP3    H144025   7.926   0.700   6.891  1.1232  0.1738  2.6411
14694TIP3    H244026   7.965   0.556   6.919  0.0524 -1.1823 -2.3719
14695TIP3   OH244027   0.820   0.197   6.532 -0.5324 -0.3113  0.3913
14695TIP3    H144028   0.843   0.138   6.604  1.3080  0.7930  0.7123
14695TIP3    H244029   0.813   0.283   6.573  0.5959  0.3352 -0.7535
14696TIP3   OH244030   4.877   7.483   5.896 -0.7576  0.1038  0.5176
14696TIP3    H144031   4.820   7.559   5.902 -1.5084 -0.3025 -1.2740
14696TIP3    H244032   4.965   7.519   5.882 -1.1460  0.6233 -0.5550
14697TIP3   OH244033   6.161   6.038   6.911 -0.4536 -0.3574  0.3805
14697TIP3    H144034   6.136   6.061   6.821 -1.4279 -0.3409  0.6528
14697TIP3    H244035   6.239   5.984   6.901 -0.6603 -0.5015 -0.4913
14698TIP3   OH244036   3.132   7.284   3.154 -0.4950  0.2408 -0.0239
14698TIP3    H144037   3.095   7.368   3.182 -0.2421  0.2112  0.4032
14698TIP3    H244038   3.166   7.245   3.234  0.1389  0.1080 -0.3523
14699TIP3   OH244039   7.011   5.991   5.867  0.2216  0.1475 -0.2328
14699TIP3    H144040   6.919   5.997   5.841  0.4026  0.7703 -0.7353
14699TIP3    H244041   7.060   6.005   5.787  0.7631  0.0948  0.0845
14700TIP3   OH244042   6.351   4.728   4.568  0.3412  0.2745 -0.3859
14700TIP3    H144043   6.289   4.704   4.498  1.3579  2.0349 -1.9340
14700TIP3    H244044   6.357   4.823   4.564  1.7089  0.2692  0.9996
14701TIP3   OH244045   5.965   7.868   4.541 -0.2331 -0.0741  0.4041
14701TIP3    H144046   5.957   7.773   4.554  3.2707 -0.4393  0.5242
14701TIP3    H244047   6.052   7.879   4.502 -0.3384  3.1419  0.9590
14702TIP3   OH244048   3.086   3.161   2.024 -0.2502  0.1206  0.3376
14702TIP3    H144049   2.992   3.145   2.033 -0.7471  2.6052 -0.1356
14702TIP3    H244050   3.093   3.225   1.953  1.8327 -0.2009  0.2200
14703TIP3   OH244051   7.913   3.938   5.705  0.1274 -0.0147 -0.2573
14703TIP3    H144052   7.983   3.977   5.757  2.2111 -1.9536 -1.4935
14703TIP3    H244053   7.832   3.963   5.750  1.5435  2.9754  0.7365
14704TIP3   OH244054   4.661   7.663   6.517 -0.1132 -0.3368  0.3590
14704TIP3    H144055   4.597   7.654   6.447 -1.1344 -3.7406  1.6410
14704TIP3    H244056   4.742   7.629   6.481  0.3523  1.4823 -0.3786
14705TIP3   OH244057   3.558   7.249   4.683 -0.1577  0.4361  0.1550
14705TIP3    H144058   3.592   7.171   4.640 -0.7382  0.0527  0.3939
14705TIP3    H244059   3.474   7.266   4.641  0.4243  1.5298 -0.5999
14706TIP3   OH244060   1.592   2.033   0.250  0.3369 -0.3855 -0.4389
14706TIP3    H144061   1.605   2.106   0.191 -3.3338  1.1300  0.4833
14706TIP3    H244062   1.604   2.070   0.337  0.4264 -1.3493 -0.0350
14707TIP3   OH244063   2.477   1.598   0.136  0.4280 -0.2388  0.8544
14707TIP3    H144064   2.542   1.588   0.066 -0.9144  1.6534 -0.7166
14707TIP3    H244065   2.397   1.559   0.101 -0.6982  2.1588  0.6527
14708TIP3   OH244066   6.765   2.279   0.722 -0.3762 -0.2243 -0.3587
14708TIP3    H144067   6.822   2.339   0.674 -1.0434  0.9589  0.3147
14708TIP3    H244068   6.678   2.291   0.682 -1.0220  1.0718  1.4040
14709TIP3   OH244069   8.222   0.934   5.939  0.5143  0.4885 -0.6670
14709TIP3    H144070   8.307   0.900   5.967 -0.4610 -1.9226 -0.4837
14709TIP3    H244071   8.218   1.022   5.977  2.0210 -0.1821  1.1716
14710TIP3   OH244072   1.772   3.605   2.339 -0.1860  0.2915  0.5853
14710TIP3    H144073   1.703   3.548   2.304 -2.1423  1.8051  1.8673
14710TIP3    H244074   1.725   3.669   2.393  2.1701  1.8202  0.8819
14711TIP3   OH244075   2.469   6.762   6.180  0.8025 -0.3936  0.6050
14711TIP3    H144076   2.562   6.748   6.159  0.8630 -0.2525  0.7753
14711TIP3    H244077   2.469   6.786   6.273  0.6924  0.7084  0.3219
14712TIP3   OH244078   2.009   5.352   1.985  0.3402  0.0723 -0.7230
14712TIP3    H144079   2.062   5.306   1.919  0.7996  0.2320 -0.4699
14712TIP3    H244080   2.073   5.404   2.034  0.0725 -0.4939  0.2268
14713TIP3   OH244081   2.851   5.705   6.010 -0.0618 -0.0556 -0.8200
14713TIP3    H144082   2.891   5.621   5.986  1.5688  0.3440  0.4112
14713TIP3    H244083   2.834   5.697   6.104  0.7830  1.2451 -0.5428
14714TIP3   OH244084   2.631   5.033   1.855  0.1675 -0.1855  0.3560
14714TIP3    H144085   2.716   5.045   1.814  0.6547 -0.7573  1.1974
14714TIP3    H244086   2.608   4.942   1.837 -0.1682 -0.0995  0.3345
14715TIP3   OH244087   2.123   5.093   1.104  1.0335  0.5144 -0.2158
14715TIP3    H144088   2.159   5.069   1.189  0.0622  0.4112  0.1723
14715TIP3    H244089   2.068   5.019   1.080  1.6903  0.3244 -1.1712
14716TIP3   OH244090   0.918   7.069   3.957 -0.1872  0.0085  0.1003
14716TIP3    H144091   0.849   7.124   3.921  0.2032  0.9714  0.7995
14716TIP3    H244092   0.901   6.982   3.922 -0.9980  0.5144 -0.7588
14717TIP3   OH244093   7.316   4.800   2.351 -0.0890 -0.2942  0.1447
14717TIP3    H144094   7.323   4.895   2.349 -1.0221 -0.2283 -0.6343
14717TIP3    H244095   7.222   4.783   2.353  0.0641 -1.2055 -0.1273
14718TIP3   OH244096   2.392   7.603   6.625  0.3634  0.4149 -0.2660
14718TIP3    H144097   2.349   7.644   6.550  1.0161  0.8920 -0.3824
14718TIP3    H244098   2.381   7.667   6.696 -1.7066 -0.7450  0.5080
14719TIP3   OH244099   0.397   5.983   0.478  0.1937 -0.0179 -0.0837
14719TIP3    H144100   0.442   6.067   0.483 -1.6170  0.9523  0.2332
14719TIP3    H244101   0.405   5.946   0.566  0.1080  0.3030  0.0616
14720TIP3   OH244102   2.396   7.346   6.751  0.3120  0.0573 -0.1614
14720TIP3    H144103   2.316   7.307   6.788  0.1449  0.5538  0.0137
14720TIP3    H244104   2.366   7.429   6.714  0.3952 -0.6483 -1.8370
14721TIP3   OH244105   8.380   4.285   0.365 -0.2726  0.1662  0.4024
14721TIP3    H144106   8.472   4.260   0.364 -0.5383 -0.9892  1.7221
14721TIP3    H244107   8.356   4.293   0.273  1.5175  1.9739  0.0697
14722TIP3   OH244108   6.696   2.054   5.445 -0.1596  0.8298  0.1342
14722TIP3    H144109   6.681   1.960   5.434  0.0061  0.5507  2.0687
14722TIP3    H244110   6.751   2.079   5.371 -1.7158 -0.2013 -1.4142
14723TIP3   OH244111   2.532   0.742   6.637 -0.0997  0.4895  0.1178
14723TIP3    H144112   2.439   0.720   6.646  0.1379 -1.0260 -0.9766
14723TIP3    H244113   2.552   0.727   6.545  1.7438 -1.3629  0.7665
14724TIP3   OH244114   4.003   7.962   6.913  0.2929 -0.4265 -0.2251
14724TIP3    H144115   4.097   7.978   6.922  0.3332 -0.1485 -1.0894
14724TIP3    H244116   3.970   8.039   6.868 -0.4068 -0.3763  0.3715
14725TIP3   OH244117   0.036   3.326   0.495  0.4281  0.2456 -0.3813
14725TIP3    H144118   0.128   3.317   0.470  0.4500 -0.7758  0.0649
14725TIP3    H244119   0.016   3.246   0.544 -0.1121  1.4160  1.3594
14726TIP3   OH244120   7.254   5.520   1.339 -0.0923 -0.5323  0.0871
14726TIP3    H144121   7.294   5.533   1.425 -0.8944 -0.1815  0.4144
14726TIP3    H244122   7.164   5.549   1.350 -0.0879 -0.0901 -0.9920
14727TIP3   OH244123   1.910   2.168   2.431 -0.7129 -0.3186 -0.3812
14727TIP3    H144124   1.885   2.150   2.521  0.0613 -2.5200 -0.5565
14727TIP3    H244125   1.827   2.178   2.385 -1.1940 -1.8939  0.0964
14728TIP3   OH244126   6.036   0.462   6.770 -0.0022  1.2136 -0.4542
14728TIP3    H144127   5.998   0.400   6.708 -0.2294  1.1820 -0.2828
14728TIP3    H244128   6.096   0.410   6.823 -1.7960  0.6972  1.1170
14729TIP3   OH244129   0.789   2.315   0.782  0.0836  0.5443 -0.0821
14729TIP3    H144130   0.741   2.398   0.786  0.7810  0.9721 -0.3464
14729TIP3    H244131   0.812   2.296   0.873 -0.2811  0.5226  0.0044
14730TIP3   OH244132   5.481   0.166   6.459 -0.4435  0.2663  0.6857
14730TIP3    H144133   5.448   0.240   6.408 -0.2607 -0.6625 -0.7829
14730TIP3    H244134   5.504   0.100   6.394  1.6602 -0.1793  1.8530
14731TIP3   OH244135   1.131   2.036   0.386  0.5738  0.0186  0.0056
14731TIP3    H144136   1.209   1.985   0.363  0.7087  0.2856 -0.1315
14731TIP3    H244137   1.107   2.006   0.474  1.0451  0.1974  0.1967
14732TIP3   OH244138   0.032   2.852   0.727 -0.3254  0.0721  0.2004
14732TIP3    H144139  -0.022   2.839   0.805 -0.7719  1.5316  0.1302
14732TIP3    H244140   0.040   2.764   0.689  0.0571 -0.6898  1.9909
14733TIP3   OH244141   2.201   6.929   6.344 -0.1513 -0.1860 -0.4638
14733TIP3    H144142   2.136   6.958   6.280  0.6479  0.3778 -1.0216
14733TIP3    H244143   2.267   6.997   6.345 -0.4302  0.0990  1.3954
14734TIP3   OH244144   1.960   4.496   1.546 -0.3626 -0.4238 -1.0438
14734TIP3    H144145   1.915   4.538   1.619 -1.8671 -1.2214 -1.4945
14734TIP3    H244146   1.938   4.404   1.554  1.0564 -0.8135 -1.3960
14735TIP3   OH244147   1.709   2.067   0.723 -0.2902  0.0134 -0.0487
14735TIP3    H144148   1.790   2.114   0.703 -1.2679  1.6094 -0.3154
14735TIP3    H244149   1.659   2.126   0.779 -0.1257 -2.0562  2.3740
14736TIP3   OH244150   2.982   3.403   2.470  0.2781 -0.1594  0.1197
14736TIP3    H144151   2.918   3.373   2.534 -1.0713 -0.5255 -1.3659
14736TIP3    H244152   3.044   3.330   2.463  0.0058 -0.4269  0.4503
14737TIP3   OH244153   2.996   4.543   1.167 -0.1631 -0.0762  0.1681
14737TIP3    H144154   2.982   4.528   1.261 -1.6226  0.7630  0.1203
14737TIP3    H244155   3.042   4.465   1.136 -1.3887 -1.2434  1.2112
14738TIP3   OH244156   6.278   0.161   6.689  0.0787 -0.0327  0.0646
14738TIP3    H144157   6.372   0.163   6.708 -0.1877  0.1572  1.3954
14738TIP3    H244158   6.237   0.186   6.771 -1.1109  0.7542 -0.7602
14739TIP3   OH244159   0.770   2.314   0.258  0.3329 -0.0853  0.5456
14739TIP3    H144160   0.842   2.372   0.283  0.7361 -1.1464  1.8446
14739TIP3    H244161   0.787   2.294   0.166  0.3613  1.5930  0.1586
14740TIP3   OH244162   5.811   1.549   6.408 -0.3538  0.2716 -0.3435
14740TIP3    H144163   5.854   1.589   6.332 -0.7022  2.1209  0.4050
14740TIP3    H244164   5.745   1.491   6.370  0.8731 -0.4298 -1.4719
14741TIP3   OH244165   7.176   0.095   6.410  0.0984  0.2771  0.1923
14741TIP3    H144166   7.165   0.000   6.411 -0.4743  0.3398 -0.3500
14741TIP3    H244167   7.137   0.124   6.328  0.6405  0.9404  0.1585
14742TIP3   OH244168   0.007   5.424   1.535 -0.4691  0.2392  0.0182
14742TIP3    H144169   0.060   5.488   1.488 -0.8217 -0.4324 -1.3103
14742TIP3    H244170   0.041   5.339   1.508 -0.8315 -0.1697  0.8008
14743TIP3   OH244171   6.622   7.946   5.718 -0.4661  0.0389  0.5715
14743TIP3    H144172   6.560   7.932   5.789 -0.0966 -0.7318  0.7440
14743TIP3    H244173   6.622   7.864   5.669 -1.1065  0.7286 -0.6345
14744TIP3   OH244174   2.298   5.715   1.091  0.0462  0.3322 -0.4441
14744TIP3    H144175   2.203   5.710   1.089 -0.0453  2.1160 -1.4737
14744TIP3    H244176   2.318   5.808   1.093  1.7840 -0.0101 -0.3854
14745TIP3   OH244177   7.845   3.106   6.611 -0.1073  0.3370  0.1288
14745TIP3    H144178   7.924   3.051   6.614 -0.4798 -0.2114 -0.1564
14745TIP3    H244179   7.878   3.193   6.588  0.6535  0.5660  2.0112
14746TIP3   OH244180   2.381   3.472   0.324  0.3712  0.1418 -0.3101
14746TIP3    H144181   2.304   3.492   0.272 -1.5459 -2.0627  1.5703
14746TIP3    H244182   2.374   3.379   0.343  2.3410  0.3544  1.7312
14747TIP3   OH244183   0.945   4.404   0.185  0.2482  0.0916  0.0551
14747TIP3    H144184   0.897   4.446   0.256  0.5432 -0.5616  0.6410
14747TIP3    H244185   0.990   4.476   0.141  0.0147  0.5010  0.4889
14748TIP3   OH244186   3.876   3.384   0.928  0.2504 -0.1023 -0.0904
14748TIP3    H144187   3.942   3.371   0.996  1.2189 -1.1439 -1.2178
14748TIP3    H244188   3.880   3.305   0.875 -1.3936  0.1432 -0.6176
14749TIP3   OH244189   5.753   0.441   5.990 -0.3689 -0.1895 -0.1525
14749TIP3    H144190   5.809   0.394   5.928  0.1865  0.2815 -0.0178
14749TIP3    H244191   5.814   0.494   6.041 -1.0719  1.4953 -1.0144
14750TIP3   OH244192   0.941   5.692   0.885 -0.0385  0.3197 -0.6608
14750TIP3    H144193   0.989   5.614   0.857  1.8699  1.4742 -0.7197
14750TIP3    H244194   0.995   5.730   0.955 -0.1400  2.3941 -1.6492
14751TIP3   OH244195   3.878   7.808   5.583  0.1891  0.3478  0.5532
14751TIP3    H144196   3.805   7.870   5.576  1.0960  1.3885  0.1078
14751TIP3    H244197   3.937   7.849   5.646 -0.1508 -1.0630  1.8262
14752TIP3   OH244198   0.122   4.271   0.865 -0.2877 -0.1658  0.3479
14752TIP3    H144199   0.061   4.210   0.823  1.5293 -2.3679  0.7987
14752TIP3    H244200   0.100   4.265   0.958 -0.9611  0.8696  0.2605
14753TIP3   OH244201   7.492   3.288   5.516  0.0630  0.4212 -0.2130
14753TIP3    H144202   7.485   3.383   5.523 -0.7807  0.2665  1.2737
14753TIP3    H244203   7.409   3.260   5.477  0.6019  0.3473 -1.3298
14754TIP3   OH244204   7.656   1.126   5.575 -0.0038 -0.7570  0.6931
14754TIP3    H144205   7.657   1.142   5.670 -0.5857  2.2318  0.2574
14754TIP3    H244206   7.592   1.190   5.542  0.3127 -1.6843 -1.7279
14755TIP3   OH244207   6.842   1.032   6.369 -0.1192  0.2546 -0.5004
14755TIP3    H144208   6.855   1.002   6.460  0.9743 -1.1873 -1.1154
14755TIP3    H244209   6.877   1.121   6.368  0.0676  0.1990  0.4430
14756TIP3   OH244210   1.257   3.971   0.894  0.3798 -0.3328  0.6604
14756TIP3    H144211   1.336   3.941   0.850 -0.0806  1.8711 -1.7872
14756TIP3    H244212   1.286   4.040   0.953  0.3980 -0.2263  0.5249
14757TIP3   OH244213   6.098   0.415   6.013 -0.5091 -0.4521  0.6122
14757TIP3    H144214   6.155   0.469   6.068 -0.4057 -0.6085  0.6595
14757TIP3    H244215   6.095   0.461   5.929 -2.4515  0.9665  1.4244
14758TIP3   OH244216   0.864   2.314   1.259  0.7770 -0.1472  1.0684
14758TIP3    H144217   0.914   2.265   1.325 -1.2820 -0.4260  2.4549
14758TIP3    H244218   0.834   2.392   1.306  0.7722  0.5150 -0.0420
14759TIP3   OH244219   2.614   5.514   0.503 -0.6985 -0.2055  0.0048
14759TIP3    H144220   2.630   5.456   0.577 -1.6589 -1.2823 -0.6014
14759TIP3    H244221   2.696   5.513   0.454 -0.4829 -0.5168  0.3662
14760TIP3   OH244222   0.244   4.442   2.820  0.0915  0.0966 -0.0424
14760TIP3    H144223   0.204   4.526   2.844 -1.9817 -0.6381 -0.7873
14760TIP3    H244224   0.226   4.433   2.726  0.6727 -0.9720 -0.0583
14761TIP3   OH244225   7.745   1.192   6.746  0.4000  0.8146 -0.8272
14761TIP3    H144226   7.705   1.262   6.695  0.0530 -0.3375 -2.1662
14761TIP3    H244227   7.818   1.161   6.692 -0.0149 -0.4737 -0.6760
14762TIP3   OH244228   1.025   4.730   0.539 -0.1155  0.2923  0.0826
14762TIP3    H144229   1.073   4.797   0.588 -0.6721 -1.2860  2.8419
14762TIP3    H244230   1.003   4.663   0.603 -1.7939 -1.3558 -2.1131
14763TIP3   OH244231   3.821   3.703   0.881  0.0057 -0.2969  0.0016
14763TIP3    H144232   3.787   3.788   0.852 -0.8838 -0.2049  1.2776
14763TIP3    H244233   3.874   3.724   0.958 -1.1621 -1.0047  1.0278
14764TIP3   OH244234   0.985   6.177   0.125  0.2874  0.0518 -0.1322
14764TIP3    H144235   0.941   6.149   0.045  0.9491 -0.0230 -0.4706
14764TIP3    H244236   1.004   6.270   0.111  1.9251 -0.3710 -0.7590
14765TIP3   OH244237   0.509   0.394   6.229 -0.2976  0.3113 -0.0037
14765TIP3    H144238   0.579   0.328   6.237  0.2252  0.6232 -1.6702
14765TIP3    H244239   0.428   0.344   6.238  0.0715 -0.7584 -2.1908
14766TIP3   OH244240   2.735   6.482   0.986  0.2229  0.4524 -0.6396
14766TIP3    H144241   2.680   6.446   0.917 -1.3564  0.8279  0.3866
14766TIP3    H244242   2.757   6.570   0.955 -1.3629  1.0202 -0.2203
14767TIP3   OH244243   8.462   0.498   6.778 -0.4240 -0.5495 -0.2849
14767TIP3    H144244   8.471   0.590   6.751 -0.5932 -0.4767 -0.0881
14767TIP3    H244245   8.549   0.473   6.808  0.1569 -1.0700 -2.2965
14768TIP3   OH244246   8.299   0.274   6.722  0.8537  0.2959  0.3472
14768TIP3    H144247   8.350   0.208   6.769  0.6831  0.9141  1.4047
14768TIP3    H244248   8.347   0.355   6.734  0.7046  0.4965 -0.3913
14769TIP3   OH244249   7.737   0.579   6.379 -0.2590  0.5040  0.0474
14769TIP3    H144250   7.678   0.583   6.455 -0.5603  0.4514 -0.1821
14769TIP3    H244251   7.824   0.570   6.417 -0.2801  1.7830  0.4177
14770TIP3   OH244252   4.960   7.984   6.638 -0.1824  0.3251  0.6708
14770TIP3    H144253   4.982   7.966   6.547 -0.8442 -0.5484  0.6817
14770TIP3    H244254   4.907   8.064   6.635 -0.2412  0.2709  0.2886
14771TIP3   OH244255   2.255   6.611   1.309 -0.1967 -0.0537  0.3442
14771TIP3    H144256   2.265   6.644   1.219  0.6678 -1.3465 -0.0540
14771TIP3    H244257   2.338   6.633   1.351 -0.0654 -0.6838  0.4142
14772TIP3   OH244258   6.683   2.848   5.524 -0.4419 -0.1481  0.1151
14772TIP3    H144259   6.621   2.782   5.492 -0.3072 -0.7263  1.0330
14772TIP3    H244260   6.640   2.932   5.504 -0.6564 -0.4977 -0.9729
14773TIP3   OH244261   6.877   0.582   6.119 -0.0910  0.1292 -0.3029
14773TIP3    H144262   6.818   0.548   6.052  0.3179  0.2007 -0.6998
14773TIP3    H244263   6.891   0.674   6.094  0.2075  0.1055 -0.2266
14774TIP3   OH244264   7.437   0.945   6.260 -0.0306 -0.3562  0.0838
14774TIP3    H144265   7.503   0.931   6.328  0.1618 -2.3242 -0.4956
14774TIP3    H244266   7.407   1.035   6.275  1.1559 -0.2096  1.7580
14775TIP3   OH244267   8.230   2.609   4.551 -0.0192 -0.1529 -0.1030
14775TIP3    H144268   8.138   2.589   4.567  0.2526 -0.1445  1.6031
14775TIP3    H244269   8.235   2.704   4.554 -0.2054 -0.0891 -1.6972
14776TIP3   OH244270   7.430   1.394   5.112  0.3247  0.4573  0.1535
14776TIP3    H144271   7.346   1.351   5.130  0.0718  0.2989 -1.3243
14776TIP3    H244272   7.478   1.389   5.195 -1.8705  2.3004  1.6022
14777TIP3   OH244273   0.501   2.411   0.076 -0.3461 -0.2939 -0.1783
14777TIP3    H144274   0.446   2.354   0.021 -2.2766 -1.9570  3.3265
14777TIP3    H244275   0.440   2.474   0.114  0.3937 -1.1576  2.5162
14778TIP3   OH244276   4.514   7.859   4.746 -0.0994  0.0542 -0.1268
14778TIP3    H144277   4.598   7.844   4.704  0.1835 -2.4552  1.2784
14778TIP3    H244278   4.467   7.776   4.738 -1.3186  0.5351  1.6166
14779TIP3   OH244279   8.175   2.416   5.136 -0.8753 -0.4944  0.3157
14779TIP3    H144280   8.085   2.424   5.103 -0.6645  0.2531 -0.0823
14779TIP3    H244281   8.230   2.430   5.059 -0.3990  0.1095  0.7633
14780TIP3   OH244282   5.162   0.622   5.133 -0.2028  0.0133 -0.5126
14780TIP3    H144283   5.138   0.594   5.221 -1.5593 -0.9441 -1.1616
14780TIP3    H244284   5.138   0.714   5.129 -0.9267 -0.1562 -0.1356
14781TIP3   OH244285   5.196   7.727   5.688 -0.0702 -0.0002  0.4260
14781TIP3    H144286   5.259   7.763   5.625 -0.4152 -0.8875 -0.4419
14781TIP3    H244287   5.111   7.758   5.657 -0.2434 -0.4697  0.4326
14782TIP3   OH244288   3.676   3.503   1.759  0.4163 -0.5554  0.7333
14782TIP3    H144289   3.764   3.467   1.769  0.3116 -0.9429  0.3004
14782TIP3    H244290   3.671   3.573   1.824  0.4880 -1.5978  1.8902
14783TIP3   OH244291   4.609   7.877   6.248  0.2842  0.0307  0.6566
14783TIP3    H144292   4.668   7.931   6.300  0.1514  0.1247  0.7087
14783TIP3    H244293   4.597   7.926   6.166  1.3626 -0.6373  0.0932
14784TIP3   OH244294   4.331   4.074   0.770  0.2065  0.2495 -0.9457
14784TIP3    H144295   4.359   4.040   0.685 -0.5166  1.4081 -1.6630
14784TIP3    H244296   4.301   4.163   0.751 -0.9879  0.1339  0.3438
14785TIP3   OH244297   7.116   0.432   6.217  0.6173 -0.6385  0.3613
14785TIP3    H144298   7.059   0.461   6.146  0.8453 -0.9544  0.0464
14785TIP3    H244299   7.095   0.339   6.228  0.1234 -0.4335  1.1417
14786TIP3   OH244300   5.614   0.336   5.288  0.4687 -0.4011  0.3648
14786TIP3    H144301   5.642   0.327   5.197  0.9052 -3.4930  0.7599
14786TIP3    H244302   5.574   0.423   5.292  0.6309 -0.1285 -2.7166
14787TIP3   OH244303   1.253   0.752   5.268  0.5649 -0.3517 -0.0740
14787TIP3    H144304   1.288   0.675   5.224  0.2150 -0.4129 -0.2517
14787TIP3    H244305   1.226   0.720   5.355  3.9977  0.3958  1.3383
14788TIP3   OH244306   1.606   7.072   6.381  0.3246  0.1023 -0.0800
14788TIP3    H144307   1.545   7.040   6.315  1.4098  1.0361 -1.5771
14788TIP3    H244308   1.599   7.167   6.375  0.5711  0.1869  1.0257
14789TIP3   OH244309   0.464   3.886   0.456  0.1224 -0.2068  0.0667
14789TIP3    H144310   0.522   3.870   0.531  0.7941  0.8457 -0.2240
14789TIP3    H244311   0.523   3.896   0.382 -0.2873  2.6514  0.0612
14790TIP3   OH244312   1.732   4.610   0.104 -0.2434  0.1531  0.1920
14790TIP3    H144313   1.812   4.593   0.054 -0.0535  0.1491  0.4953
14790TIP3    H244314   1.661   4.596   0.042 -0.0281 -0.3843  0.0672
14791TIP3   OH244315   1.482   2.378   0.561 -0.6457  0.3483 -0.3097
14791TIP3    H144316   1.390   2.396   0.582 -0.5563 -0.7806  1.1518
14791TIP3    H244317   1.530   2.448   0.604 -0.9039  1.9564 -2.5382
14792TIP3   OH244318   3.362   7.752   6.191 -0.4217  0.3407 -0.0212
14792TIP3    H144319   3.271   7.765   6.221 -0.3138 -1.5340  1.2294
14792TIP3    H244320   3.400   7.694   6.257  1.6849  1.0638 -0.5775
14793TIP3   OH244321   7.591   0.147   6.644  0.1697  0.6754  0.1577
14793TIP3    H144322   7.522   0.085   6.617  0.3778  0.3106  0.4527
14793TIP3    H244323   7.594   0.211   6.573  1.7785 -1.1216 -1.4512
14794TIP3   OH244324   6.159   7.186   6.066 -0.3484 -0.2583 -0.2306
14794TIP3    H144325   6.103   7.251   6.024 -0.7309 -0.9912 -0.8838
14794TIP3    H244326   6.244   7.229   6.074 -0.0312 -0.3690 -2.5390
14795TIP3   OH244327   0.543   4.881   1.552 -0.0299 -0.0832  0.7650
14795TIP3    H144328   0.541   4.806   1.493  1.2848  1.6409 -1.5302
14795TIP3    H244329   0.634   4.883   1.584 -0.3012  0.0015  1.5420
14796TIP3   OH244330   1.402   1.791   2.004 -0.0204  0.0389 -0.2406
14796TIP3    H144331   1.376   1.710   1.960  0.4848 -0.2347 -0.0360
14796TIP3    H244332   1.377   1.777   2.095  0.4463 -0.0499 -0.1267
14797TIP3   OH244333   7.747   0.499   6.117 -0.4034  0.0966 -0.3948
14797TIP3    H144334   7.810   0.427   6.111  1.3109  1.6397 -1.5173
14797TIP3    H244335   7.732   0.510   6.211  0.9314 -0.3525 -0.1138
14798TIP3   OH244336   1.591   2.933   4.988 -0.2874 -0.1982 -0.0495
14798TIP3    H144337   1.607   2.930   4.894  1.0676 -0.1278  0.1780
14798TIP3    H244338   1.556   2.846   5.009 -1.1124 -0.0332 -0.6978
14799TIP3   OH244339   3.391   3.818   3.019 -0.3008  0.5179 -0.8775
14799TIP3    H144340   3.345   3.734   3.013 -0.0633  0.2398  1.0060
14799TIP3    H244341   3.484   3.795   3.010 -0.2640  0.6259 -0.7708
14800TIP3   OH244342   1.486   0.511   6.704  0.0833  0.1984  0.7997
14800TIP3    H144343   1.530   0.426   6.700 -1.0053 -0.4126  1.5770
14800TIP3    H244344   1.405   0.494   6.753 -0.4536  1.5471  0.4023
14801TIP3   OH244345   2.388   1.286   5.840  0.2821 -0.1956 -0.0011
14801TIP3    H144346   2.320   1.337   5.884 -1.5088 -1.3973 -1.3114
14801TIP3    H244347   2.425   1.231   5.909 -1.4997 -1.0052  0.3283
14802TIP3   OH244348   5.775   5.987   5.199  0.2611  0.2547 -0.1261
14802TIP3    H144349   5.724   6.067   5.207  0.0490  0.2186 -1.0864
14802TIP3    H244350   5.736   5.927   5.262 -1.0188  0.1627 -0.9894
   8.50000   8.01388   6.94022   0.00000   0.00000  -2.83333   0.00000  -2.83333  -4.00694
