Title t= 386.00000 step= 193000
44463
    1GLY      N    1   2.763   3.226   4.064
    1GLY    HT1    2   2.858   3.183   4.057
    1GLY    HT2    3   2.754   3.290   4.146
    1GLY    HT3    4   2.739   3.286   3.983
    1GLY     CA    5   2.675   3.119   4.104
    1GLY    HA1    6   2.671   3.048   4.022
    1GLY    HA2    7   2.579   3.165   4.120
    1GLY      C    8   2.710   3.031   4.218
    1GLY      O    9   2.813   3.047   4.287
    2PRO      N   10   2.631   2.931   4.257
    2PRO     CD   11   2.492   2.912   4.205
    2PRO    HD1   12   2.497   2.880   4.099
    2PRO    HD2   13   2.437   3.007   4.216
    2PRO     CA   14   2.676   2.811   4.333
    2PRO     HA   15   2.680   2.840   4.437
    2PRO     CB   16   2.560   2.714   4.310
    2PRO    HB1   17   2.535   2.644   4.392
    2PRO    HB2   18   2.576   2.670   4.210
    2PRO     CG   19   2.435   2.798   4.290
    2PRO    HG1   20   2.352   2.737   4.248
    2PRO    HG2   21   2.399   2.835   4.388
    2PRO      C   22   2.812   2.756   4.306
    2PRO      O   23   2.845   2.747   4.189
    3GLY      N   24   2.896   2.728   4.412
    3GLY     HN   25   2.866   2.739   4.507
    3GLY     CA   26   3.025   2.676   4.389
    3GLY    HA1   27   3.068   2.666   4.487
    3GLY    HA2   28   3.080   2.752   4.334
    3GLY      C   29   3.039   2.542   4.321
    3GLY      O   30   2.955   2.508   4.240
    4ASP      N   31   3.153   2.473   4.341
    4ASP     HN   32   3.218   2.488   4.416
    4ASP     CA   33   3.184   2.350   4.271
    4ASP     HA   34   3.164   2.348   4.165
    4ASP     CB   35   3.336   2.330   4.284
    4ASP    HB1   36   3.360   2.238   4.226
    4ASP    HB2   37   3.360   2.301   4.389
    4ASP     CG   38   3.410   2.447   4.232
    4ASP    OD1   39   3.387   2.495   4.118
    4ASP    OD2   40   3.494   2.494   4.313
    4ASP      C   41   3.116   2.227   4.313
    4ASP      O   42   3.092   2.219   4.435
    5PRO      N   43   3.079   2.130   4.230
    5PRO     CD   44   3.076   2.135   4.080
    5PRO    HD1   45   3.182   2.131   4.045
    5PRO    HD2   46   3.031   2.232   4.050
    5PRO     CA   47   3.048   1.999   4.277
    5PRO     HA   48   2.968   2.010   4.349
    5PRO     CB   49   2.994   1.917   4.155
    5PRO    HB1   50   2.901   1.860   4.178
    5PRO    HB2   51   3.072   1.839   4.140
    5PRO     CG   52   2.981   2.019   4.043
    5PRO    HG1   53   3.019   1.982   3.945
    5PRO    HG2   54   2.880   2.064   4.038
    5PRO      C   55   3.168   1.935   4.351
    5PRO      O   56   3.277   1.933   4.292
    6GLY      N   57   3.157   1.884   4.479
    6GLY     HN   58   3.077   1.892   4.537
    6GLY     CA   59   3.264   1.810   4.543
    6GLY    HA1   60   3.231   1.802   4.646
    6GLY    HA2   61   3.352   1.871   4.529
    6GLY      C   62   3.289   1.665   4.497
    6GLY      O   63   3.243   1.636   4.388
    7PRO      N   64   3.354   1.576   4.578
    7PRO     CD   65   3.424   1.603   4.704
    7PRO    HD1   66   3.349   1.621   4.784
    7PRO    HD2   67   3.490   1.691   4.688
    7PRO     CA   68   3.346   1.432   4.556
    7PRO     HA   69   3.399   1.422   4.462
    7PRO     CB   70   3.417   1.363   4.667
    7PRO    HB1   71   3.487   1.283   4.633
    7PRO    HB2   72   3.349   1.336   4.751
    7PRO     CG   73   3.501   1.480   4.724
    7PRO    HG1   74   3.524   1.466   4.832
    7PRO    HG2   75   3.601   1.493   4.677
    7PRO      C   76   3.209   1.370   4.530
    7PRO      O   77   3.108   1.427   4.572
    8GLY      N   78   3.200   1.264   4.456
    8GLY     HN   79   3.283   1.226   4.416
    8GLY     CA   80   3.077   1.204   4.413
    8GLY    HA1   81   2.993   1.247   4.466
    8GLY    HA2   82   3.087   1.098   4.430
    8GLY      C   83   3.057   1.214   4.267
    8GLY      O   84   3.127   1.285   4.194
    9ASP      N   85   2.963   1.136   4.223
    9ASP     HN   86   2.891   1.105   4.286
    9ASP     CA   87   2.919   1.115   4.087
    9ASP     HA   88   3.005   1.099   4.024
    9ASP     CB   89   2.833   0.990   4.070
    9ASP    HB1   90   2.791   0.988   3.967
    9ASP    HB2   91   2.741   0.996   4.132
    9ASP     CG   92   2.916   0.870   4.095
    9ASP    OD1   93   2.880   0.798   4.190
    9ASP    OD2   94   3.008   0.835   4.019
    9ASP      C   95   2.849   1.231   4.028
    9ASP      O   96   2.779   1.303   4.099
   10PRO      N   97   2.862   1.261   3.898
   10PRO     CD   98   2.968   1.207   3.813
   10PRO    HD1   99   2.967   1.097   3.798
   10PRO    HD2  100   3.065   1.242   3.854
   10PRO     CA  101   2.783   1.356   3.821
   10PRO     HA  102   2.832   1.448   3.851
   10PRO     CB  103   2.806   1.320   3.678
   10PRO    HB1  104   2.784   1.395   3.598
   10PRO    HB2  105   2.741   1.233   3.658
   10PRO     CG  106   2.958   1.286   3.675
   10PRO    HG1  107   2.990   1.220   3.592
   10PRO    HG2  108   3.015   1.381   3.670
   10PRO      C  109   2.641   1.380   3.861
   10PRO      O  110   2.569   1.280   3.883
   11GLY      N  111   2.594   1.510   3.866
   11GLY     HN  112   2.661   1.579   3.841
   11GLY     CA  113   2.465   1.557   3.911
   11GLY    HA1  114   2.388   1.516   3.848
   11GLY    HA2  115   2.459   1.665   3.911
   11GLY      C  116   2.433   1.520   4.058
   11GLY      O  117   2.504   1.440   4.120
   12PRO      N  118   2.326   1.577   4.106
   12PRO     CD  119   2.219   1.648   4.026
   12PRO    HD1  120   2.169   1.585   3.949
   12PRO    HD2  121   2.256   1.748   3.993
   12PRO     CA  122   2.261   1.547   4.238
   12PRO     HA  123   2.292   1.626   4.304
   12PRO     CB  124   2.111   1.569   4.221
   12PRO    HB1  125   2.063   1.604   4.315
   12PRO    HB2  126   2.060   1.476   4.189
   12PRO     CG  127   2.101   1.684   4.118
   12PRO    HG1  128   2.006   1.667   4.062
   12PRO    HG2  129   2.108   1.776   4.180
   12PRO      C  130   2.293   1.411   4.305
   12PRO      O  131   2.273   1.304   4.240
   13GLY      N  132   2.345   1.411   4.431
   13GLY     HN  133   2.371   1.501   4.465
   13GLY     CA  134   2.349   1.278   4.505
   13GLY    HA1  135   2.406   1.310   4.591
   13GLY    HA2  136   2.409   1.216   4.441
   13GLY      C  137   2.220   1.219   4.571
   13GLY      O  138   2.112   1.282   4.575
   14ASP      N  139   2.231   1.094   4.630
   14ASP     HN  140   2.315   1.041   4.626
   14ASP     CA  141   2.127   1.028   4.704
   14ASP     HA  142   2.048   1.025   4.630
   14ASP     CB  143   2.169   0.879   4.736
   14ASP    HB1  144   2.116   0.829   4.820
   14ASP    HB2  145   2.268   0.875   4.787
   14ASP     CG  146   2.184   0.791   4.616
   14ASP    OD1  147   2.112   0.803   4.516
   14ASP    OD2  148   2.259   0.692   4.617
   14ASP      C  149   2.064   1.089   4.830
   14ASP      O  150   2.135   1.157   4.905
   15PRO      N  151   1.933   1.064   4.859
   15PRO     CD  152   1.837   0.969   4.791
   15PRO    HD1  153   1.857   0.861   4.780
   15PRO    HD2  154   1.822   1.023   4.694
   15PRO     CA  155   1.870   1.138   4.964
   15PRO     HA  156   1.897   1.241   4.951
   15PRO     CB  157   1.721   1.114   4.937
   15PRO    HB1  158   1.683   1.190   4.865
   15PRO    HB2  159   1.673   1.120   5.037
   15PRO     CG  160   1.704   0.980   4.868
   15PRO    HG1  161   1.680   0.900   4.941
   15PRO    HG2  162   1.624   0.984   4.791
   15PRO      C  163   1.916   1.091   5.107
   15PRO    OT1  164   1.999   0.996   5.119
   15PRO    OT2  165   1.866   1.137   5.212
   16LIT    LIT  166   2.014   1.062   5.296
   17LIT    LIT  167   2.512   1.577   5.208
   18LIT    LIT  168   3.274   7.041   1.351
   19LIT    LIT  169   5.812   5.318   2.523
   20LIT    LIT  170   2.132   5.792   2.763
   21LIT    LIT  171   0.487   2.678   3.043
   22LIT    LIT  172   0.876   1.901   4.205
   23LIT    LIT  173   1.683   2.179   2.145
   24LIT    LIT  174   2.434   6.108   0.283
   25LIT    LIT  175   5.722   0.750   3.531
   26LIT    LIT  176   6.914   2.599   3.601
   27LIT    LIT  177   2.136   4.275   6.117
   28LIT    LIT  178   4.775   2.094   5.806
   29LIT    LIT  179   1.588   6.474   1.201
   30LIT    LIT  180   7.789   7.144   6.666
   31LIT    LIT  181   7.089   5.536   5.946
   32LIT    LIT  182   4.602   4.221   0.343
   33LIT    LIT  183   7.308   2.960   1.440
   34LIT    LIT  184   3.777   5.875   2.399
   35LIT    LIT  185   6.146   0.746   5.973
   36LIT    LIT  186   1.388   7.616   4.308
   37LIT    LIT  187   1.421   5.858   0.202
   38LIT    LIT  188   4.140   7.423   4.413
   39LIT    LIT  189   0.118   7.522   3.989
   40LIT    LIT  190   0.873   0.836   3.614
   41LIT    LIT  191   4.997   0.140   3.757
   42LIT    LIT  192   1.471   5.674   6.523
   43LIT    LIT  193   4.091   2.309   0.549
   44LIT    LIT  194   7.313   0.552   5.998
   45LIT    LIT  195   7.412   6.436   2.547
   46LIT    LIT  196   8.232   5.913   0.611
   47LIT    LIT  197   1.875   4.977   2.199
   48LIT    LIT  198   7.916   1.231   3.159
   49LIT    LIT  199   7.180   7.750   6.111
   50LIT    LIT  200   8.308   0.950   4.659
   51LIT    LIT  201   2.482   0.265   3.280
   52LIT    LIT  202   3.911   2.808   6.473
   53LIT    LIT  203   0.918   4.091   0.656
   54LIT    LIT  204   0.059   3.654   2.324
   55LIT    LIT  205   5.589   7.341   3.386
   56LIT    LIT  206   7.601   1.120   2.284
   57LIT    LIT  207   6.256   5.785   0.659
   58LIT    LIT  208   2.232   0.644   4.438
   59LIT    LIT  209   0.590   5.409   4.669
   60LIT    LIT  210   3.082   4.053   3.961
   61CLA    CLA  211   8.248   5.565   3.577
   62CLA    CLA  212   1.315   5.291   4.645
   63CLA    CLA  213   0.051   2.084   4.426
   64CLA    CLA  214   5.917   2.524   0.186
   65CLA    CLA  215   8.266   0.878   1.891
   66CLA    CLA  216   0.656   1.577   3.729
   67CLA    CLA  217   7.097   6.927   5.430
   68CLA    CLA  218   3.003   7.556   3.801
   69CLA    CLA  219   2.584   2.030   5.705
   70CLA    CLA  220   4.918   5.610   5.674
   71CLA    CLA  221   8.268   5.099   6.549
   72CLA    CLA  222   4.043   4.686   1.422
   73CLA    CLA  223   0.488   3.088   2.214
   74CLA    CLA  224   0.681   5.182   4.221
   75CLA    CLA  225   5.753  -0.009   4.662
   76CLA    CLA  226   4.326   1.404   1.392
   77CLA    CLA  227   2.675   5.841   4.343
   78CLA    CLA  228   4.684   5.600   1.544
   79CLA    CLA  229   5.056   2.437   5.913
   80CLA    CLA  230   0.578   4.651   2.103
   81CLA    CLA  231   4.608   6.911   4.999
   82CLA    CLA  232   1.263   0.110   5.957
   83CLA    CLA  233   2.994   4.425   0.407
   84CLA    CLA  234   0.472   0.578   1.436
   85CLA    CLA  235   2.499   6.152   5.240
   86CLA    CLA  236   7.121   5.159   2.803
   87CLA    CLA  237   3.431   6.190   2.315
   88CLA    CLA  238   4.553   3.819   0.376
   89CLA    CLA  239   6.471   3.492   5.831
   90CLA    CLA  240   6.651   1.988   0.320
   91CLA    CLA  241   4.146   3.738   3.636
   92CLA    CLA  242   4.726   7.216   6.521
   93CLA    CLA  243   4.860   1.092   4.554
   94CLA    CLA  244   2.336   2.162   6.626
   95CLA    CLA  245   2.364   5.749   3.135
   96CLA    CLA  246   0.200   2.072   2.056
   97CLA    CLA  247   8.069   1.741   3.673
   98CLA    CLA  248   1.624   7.191   5.728
   99CLA    CLA  249   7.462   2.790   1.475
  100CLA    CLA  250   2.816   3.473   4.235
  101CLA    CLA  251   0.397   2.630   3.247
  102CLA    CLA  252   1.533   0.055   4.928
  103TIP3   OH2  253   2.790   6.319   1.971
  103TIP3    H1  254   2.751   6.266   2.040
  103TIP3    H2  255   2.755   6.407   1.984
  104TIP3   OH2  256   1.070   2.386   0.584
  104TIP3    H1  257   0.984   2.346   0.577
  104TIP3    H2  258   1.103   2.387   0.493
  105TIP3   OH2  259   8.174   1.727   2.280
  105TIP3    H1  260   8.161   1.679   2.198
  105TIP3    H2  261   8.196   1.815   2.252
  106TIP3   OH2  262   6.737   6.402   0.410
  106TIP3    H1  263   6.826   6.436   0.421
  106TIP3    H2  264   6.721   6.352   0.490
  107TIP3   OH2  265   1.704   2.952   1.183
  107TIP3    H1  266   1.658   2.875   1.218
  107TIP3    H2  267   1.634   3.009   1.152
  108TIP3   OH2  268   0.289   5.064   0.970
  108TIP3    H1  269   0.334   4.994   1.017
  108TIP3    H2  270   0.317   5.144   1.013
  109TIP3   OH2  271   6.782   7.322   2.461
  109TIP3    H1  272   6.692   7.289   2.458
  109TIP3    H2  273   6.829   7.258   2.515
  110TIP3   OH2  274   3.608   5.812   4.171
  110TIP3    H1  275   3.566   5.886   4.214
  110TIP3    H2  276   3.663   5.772   4.239
  111TIP3   OH2  277   6.332   4.868   5.450
  111TIP3    H1  278   6.299   4.818   5.375
  111TIP3    H2  279   6.376   4.803   5.505
  112TIP3   OH2  280   2.613   4.042   6.367
  112TIP3    H1  281   2.628   4.134   6.387
  112TIP3    H2  282   2.699   4.001   6.373
  113TIP3   OH2  283   3.606   0.015   0.924
  113TIP3    H1  284   3.672   0.021   0.855
  113TIP3    H2  285   3.561   0.099   0.923
  114TIP3   OH2  286   6.252   6.060   0.315
  114TIP3    H1  287   6.275   6.139   0.266
  114TIP3    H2  288   6.178   6.022   0.266
  115TIP3   OH2  289   7.425   0.075   4.747
  115TIP3    H1  290   7.431  -0.021   4.750
  115TIP3    H2  291   7.516   0.105   4.750
  116TIP3   OH2  292   3.065   4.351   5.290
  116TIP3    H1  293   2.991   4.315   5.337
  116TIP3    H2  294   3.091   4.283   5.228
  117TIP3   OH2  295   5.892   3.222   2.782
  117TIP3    H1  296   5.918   3.198   2.871
  117TIP3    H2  297   5.922   3.150   2.727
  118TIP3   OH2  298   0.296   3.217   0.653
  118TIP3    H1  299   0.348   3.137   0.644
  118TIP3    H2  300   0.356   3.288   0.632
  119TIP3   OH2  301   1.588   6.934   2.472
  119TIP3    H1  302   1.579   7.029   2.481
  119TIP3    H2  303   1.682   6.920   2.465
  120TIP3   OH2  304   2.092   1.770   5.860
  120TIP3    H1  305   2.180   1.742   5.833
  120TIP3    H2  306   2.107   1.828   5.934
  121TIP3   OH2  307   4.564   4.858   0.445
  121TIP3    H1  308   4.645   4.868   0.394
  121TIP3    H2  309   4.546   4.764   0.443
  122TIP3   OH2  310   6.254   7.013   5.193
  122TIP3    H1  311   6.220   7.067   5.264
  122TIP3    H2  312   6.186   6.946   5.180
  123TIP3   OH2  313   5.481   4.668   1.886
  123TIP3    H1  314   5.394   4.701   1.908
  123TIP3    H2  315   5.469   4.621   1.804
  124TIP3   OH2  316   8.099   5.539   3.280
  124TIP3    H1  317   8.114   5.569   3.370
  124TIP3    H2  318   8.186   5.542   3.240
  125TIP3   OH2  319   0.395   4.560   4.579
  125TIP3    H1  320   0.345   4.639   4.560
  125TIP3    H2  321   0.369   4.535   4.667
  126TIP3   OH2  322   7.966   3.465   0.322
  126TIP3    H1  323   8.050   3.462   0.277
  126TIP3    H2  324   7.975   3.535   0.386
  127TIP3   OH2  325   4.531   7.591   0.776
  127TIP3    H1  326   4.523   7.518   0.715
  127TIP3    H2  327   4.625   7.609   0.781
  128TIP3   OH2  328   0.779   3.145   1.769
  128TIP3    H1  329   0.851   3.116   1.823
  128TIP3    H2  330   0.753   3.068   1.719
  129TIP3   OH2  331   0.933   1.425   0.253
  129TIP3    H1  332   0.983   1.406   0.332
  129TIP3    H2  333   0.845   1.446   0.285
  130TIP3   OH2  334   7.105   2.231   2.758
  130TIP3    H1  335   7.192   2.264   2.732
  130TIP3    H2  336   7.089   2.274   2.842
  131TIP3   OH2  337   3.392   2.914   0.172
  131TIP3    H1  338   3.394   3.005   0.202
  131TIP3    H2  339   3.343   2.917   0.090
  132TIP3   OH2  340   4.307   3.238   3.478
  132TIP3    H1  341   4.375   3.306   3.481
  132TIP3    H2  342   4.339   3.177   3.411
  133TIP3   OH2  343   3.888   6.153   6.220
  133TIP3    H1  344   3.907   6.094   6.294
  133TIP3    H2  345   3.911   6.102   6.143
  134TIP3   OH2  346   7.921   7.489   3.807
  134TIP3    H1  347   7.834   7.494   3.847
  134TIP3    H2  348   7.963   7.571   3.832
  135TIP3   OH2  349   5.606   6.176   5.666
  135TIP3    H1  350   5.513   6.156   5.662
  135TIP3    H2  351   5.635   6.176   5.575
  136TIP3   OH2  352   7.898   3.675   1.587
  136TIP3    H1  353   7.901   3.736   1.513
  136TIP3    H2  354   7.836   3.607   1.559
  137TIP3   OH2  355   4.559   5.242   0.682
  137TIP3    H1  356   4.638   5.274   0.638
  137TIP3    H2  357   4.495   5.233   0.611
  138TIP3   OH2  358   3.241   4.521   4.923
  138TIP3    H1  359   3.264   4.555   4.837
  138TIP3    H2  360   3.303   4.563   4.983
  139TIP3   OH2  361   7.498   4.902   0.568
  139TIP3    H1  362   7.426   4.846   0.542
  139TIP3    H2  363   7.458   4.989   0.579
  140TIP3   OH2  364   1.060   7.302   1.553
  140TIP3    H1  365   1.137   7.266   1.597
  140TIP3    H2  366   1.000   7.228   1.544
  141TIP3   OH2  367   3.528   5.200   2.149
  141TIP3    H1  368   3.563   5.176   2.235
  141TIP3    H2  369   3.604   5.222   2.097
  142TIP3   OH2  370   4.186   6.365   2.780
  142TIP3    H1  371   4.251   6.341   2.713
  142TIP3    H2  372   4.232   6.352   2.863
  143TIP3   OH2  373   0.277   6.212   0.892
  143TIP3    H1  374   0.286   6.198   0.986
  143TIP3    H2  375   0.193   6.173   0.869
  144TIP3   OH2  376   0.500   5.414   2.999
  144TIP3    H1  377   0.564   5.344   3.011
  144TIP3    H2  378   0.417   5.376   3.027
  145TIP3   OH2  379   5.746   5.075   5.437
  145TIP3    H1  380   5.801   5.115   5.505
  145TIP3    H2  381   5.758   4.981   5.449
  146TIP3   OH2  382   5.810   6.164   2.569
  146TIP3    H1  383   5.782   6.073   2.586
  146TIP3    H2  384   5.821   6.167   2.474
  147TIP3   OH2  385   1.285   3.511   3.447
  147TIP3    H1  386   1.239   3.573   3.504
  147TIP3    H2  387   1.340   3.461   3.507
  148TIP3   OH2  388   0.014   4.594   1.516
  148TIP3    H1  389   0.048   4.513   1.554
  148TIP3    H2  390  -0.029   4.638   1.589
  149TIP3   OH2  391   0.410   0.846   6.295
  149TIP3    H1  392   0.339   0.846   6.231
  149TIP3    H2  393   0.383   0.785   6.363
  150TIP3   OH2  394   4.853   6.689   4.048
  150TIP3    H1  395   4.869   6.732   4.132
  150TIP3    H2  396   4.764   6.713   4.025
  151TIP3   OH2  397   2.069   4.157   4.845
  151TIP3    H1  398   2.012   4.230   4.822
  151TIP3    H2  399   2.100   4.122   4.761
  152TIP3   OH2  400   6.549   3.534   5.465
  152TIP3    H1  401   6.454   3.542   5.457
  152TIP3    H2  402   6.564   3.511   5.556
  153TIP3   OH2  403   7.293   5.040   3.306
  153TIP3    H1  404   7.309   5.034   3.400
  153TIP3    H2  405   7.315   5.131   3.283
  154TIP3   OH2  406   0.656   1.420   5.170
  154TIP3    H1  407   0.563   1.408   5.189
  154TIP3    H2  408   0.692   1.457   5.250
  155TIP3   OH2  409   5.813   4.090   0.779
  155TIP3    H1  410   5.834   4.093   0.873
  155TIP3    H2  411   5.718   4.085   0.777
  156TIP3   OH2  412   8.266   4.413   4.731
  156TIP3    H1  413   8.333   4.422   4.798
  156TIP3    H2  414   8.315   4.394   4.650
  157TIP3   OH2  415   7.509   2.425   0.682
  157TIP3    H1  416   7.544   2.429   0.593
  157TIP3    H2  417   7.563   2.485   0.732
  158TIP3   OH2  418   8.239   2.837   1.902
  158TIP3    H1  419   8.207   2.756   1.862
  158TIP3    H2  420   8.266   2.811   1.990
  159TIP3   OH2  421   1.570   0.084   1.175
  159TIP3    H1  422   1.501   0.018   1.181
  159TIP3    H2  423   1.526   0.164   1.147
  160TIP3   OH2  424   2.603   4.430   2.106
  160TIP3    H1  425   2.524   4.437   2.053
  160TIP3    H2  426   2.666   4.384   2.050
  161TIP3   OH2  427   7.962   6.692   5.668
  161TIP3    H1  428   8.019   6.760   5.632
  161TIP3    H2  429   8.004   6.666   5.750
  162TIP3   OH2  430   7.753   3.318   0.385
  162TIP3    H1  431   7.827   3.378   0.385
  162TIP3    H2  432   7.688   3.360   0.442
  163TIP3   OH2  433   7.079   2.811   2.930
  163TIP3    H1  434   7.166   2.782   2.959
  163TIP3    H2  435   7.069   2.772   2.843
  164TIP3   OH2  436   5.215   2.450   4.862
  164TIP3    H1  437   5.123   2.429   4.849
  164TIP3    H2  438   5.228   2.533   4.816
  165TIP3   OH2  439   4.527   2.746   3.732
  165TIP3    H1  440   4.520   2.841   3.734
  165TIP3    H2  441   4.527   2.723   3.639
  166TIP3   OH2  442   0.866   3.089   5.931
  166TIP3    H1  443   0.839   2.997   5.923
  166TIP3    H2  444   0.788   3.139   5.907
  167TIP3   OH2  445   6.914   1.867   5.470
  167TIP3    H1  446   6.901   1.869   5.375
  167TIP3    H2  447   7.008   1.852   5.481
  168TIP3   OH2  448   1.758   7.521   1.462
  168TIP3    H1  449   1.671   7.490   1.484
  168TIP3    H2  450   1.747   7.567   1.378
  169TIP3   OH2  451   7.461   1.281   5.065
  169TIP3    H1  452   7.464   1.311   4.974
  169TIP3    H2  453   7.429   1.191   5.060
  170TIP3   OH2  454   5.095   1.782   1.384
  170TIP3    H1  455   5.026   1.837   1.423
  170TIP3    H2  456   5.147   1.843   1.332
  171TIP3   OH2  457   6.849   7.723   0.078
  171TIP3    H1  458   6.848   7.768   0.162
  171TIP3    H2  459   6.917   7.769   0.028
  172TIP3   OH2  460   0.504   6.684   3.132
  172TIP3    H1  461   0.481   6.713   3.043
  172TIP3    H2  462   0.421   6.687   3.179
  173TIP3   OH2  463   3.425   4.568   6.412
  173TIP3    H1  464   3.443   4.507   6.484
  173TIP3    H2  465   3.398   4.649   6.455
  174TIP3   OH2  466   8.292   4.779   3.561
  174TIP3    H1  467   8.263   4.706   3.506
  174TIP3    H2  468   8.211   4.822   3.587
  175TIP3   OH2  469   2.332   6.359   3.119
  175TIP3    H1  470   2.267   6.329   3.182
  175TIP3    H2  471   2.402   6.396   3.173
  176TIP3   OH2  472   3.903   3.643   5.042
  176TIP3    H1  473   3.924   3.690   4.962
  176TIP3    H2  474   3.859   3.563   5.013
  177TIP3   OH2  475   0.846   6.123   4.254
  177TIP3    H1  476   0.780   6.175   4.208
  177TIP3    H2  477   0.930   6.153   4.219
  178TIP3   OH2  478   5.416   6.401   2.472
  178TIP3    H1  479   5.465   6.459   2.530
  178TIP3    H2  480   5.437   6.312   2.502
  179TIP3   OH2  481   7.112   4.224   3.610
  179TIP3    H1  482   7.178   4.166   3.571
  179TIP3    H2  483   7.029   4.181   3.592
  180TIP3   OH2  484   2.424   0.851   5.342
  180TIP3    H1  485   2.380   0.844   5.426
  180TIP3    H2  486   2.457   0.763   5.324
  181TIP3   OH2  487   2.635   1.791   2.455
  181TIP3    H1  488   2.605   1.882   2.453
  181TIP3    H2  489   2.630   1.766   2.548
  182TIP3   OH2  490   1.127   6.320   2.533
  182TIP3    H1  491   1.215   6.355   2.544
  182TIP3    H2  492   1.120   6.301   2.439
  183TIP3   OH2  493   1.636   5.760   6.577
  183TIP3    H1  494   1.711   5.701   6.585
  183TIP3    H2  495   1.667   5.843   6.613
  184TIP3   OH2  496   8.005   6.877   2.706
  184TIP3    H1  497   8.098   6.871   2.685
  184TIP3    H2  498   7.971   6.947   2.650
  185TIP3   OH2  499   5.928   2.300   0.956
  185TIP3    H1  500   5.951   2.215   0.918
  185TIP3    H2  501   5.989   2.362   0.915
  186TIP3   OH2  502   5.315   0.383   4.261
  186TIP3    H1  503   5.380   0.410   4.326
  186TIP3    H2  504   5.232   0.387   4.307
  187TIP3   OH2  505   1.991   4.120   6.512
  187TIP3    H1  506   2.070   4.173   6.521
  187TIP3    H2  507   1.970   4.093   6.601
  188TIP3   OH2  508   4.083   1.347   6.067
  188TIP3    H1  509   3.994   1.335   6.035
  188TIP3    H2  510   4.078   1.421   6.127
  189TIP3   OH2  511   8.266   4.066   6.673
  189TIP3    H1  512   8.261   4.136   6.608
  189TIP3    H2  513   8.179   4.064   6.714
  190TIP3   OH2  514   5.407   7.296   1.033
  190TIP3    H1  515   5.460   7.375   1.038
  190TIP3    H2  516   5.466   7.226   1.060
  191TIP3   OH2  517   7.639   7.513   1.745
  191TIP3    H1  518   7.664   7.599   1.713
  191TIP3    H2  519   7.566   7.530   1.805
  192TIP3   OH2  520   5.040   5.889   5.725
  192TIP3    H1  521   5.133   5.867   5.719
  192TIP3    H2  522   4.996   5.804   5.734
  193TIP3   OH2  523   7.052   7.388   2.037
  193TIP3    H1  524   7.016   7.464   2.082
  193TIP3    H2  525   7.131   7.366   2.086
  194TIP3   OH2  526   6.463   3.205   4.017
  194TIP3    H1  527   6.465   3.177   3.926
  194TIP3    H2  528   6.397   3.274   4.020
  195TIP3   OH2  529   0.316   2.026   0.973
  195TIP3    H1  530   0.281   2.054   0.888
  195TIP3    H2  531   0.244   2.035   1.034
  196TIP3   OH2  532   7.112   2.686   2.701
  196TIP3    H1  533   7.193   2.673   2.652
  196TIP3    H2  534   7.043   2.665   2.638
  197TIP3   OH2  535   7.453   2.106   1.449
  197TIP3    H1  536   7.511   2.167   1.494
  197TIP3    H2  537   7.448   2.139   1.359
  198TIP3   OH2  538   5.795   6.075   1.403
  198TIP3    H1  539   5.752   6.057   1.487
  198TIP3    H2  540   5.833   5.991   1.377
  199TIP3   OH2  541   5.803   5.325   5.571
  199TIP3    H1  542   5.894   5.355   5.576
  199TIP3    H2  543   5.792   5.270   5.648
  200TIP3   OH2  544   2.529   4.786   3.700
  200TIP3    H1  545   2.567   4.718   3.645
  200TIP3    H2  546   2.557   4.868   3.660
  201TIP3   OH2  547   5.597   4.287   6.156
  201TIP3    H1  548   5.632   4.303   6.068
  201TIP3    H2  549   5.674   4.277   6.211
  202TIP3   OH2  550   5.155   1.210   0.280
  202TIP3    H1  551   5.102   1.217   0.359
  202TIP3    H2  552   5.105   1.152   0.222
  203TIP3   OH2  553   5.376   4.407   4.420
  203TIP3    H1  554   5.341   4.496   4.426
  203TIP3    H2  555   5.402   4.385   4.510
  204TIP3   OH2  556   3.817   2.605   2.183
  204TIP3    H1  557   3.910   2.585   2.174
  204TIP3    H2  558   3.781   2.531   2.232
  205TIP3   OH2  559   1.076   5.491   4.571
  205TIP3    H1  560   1.030   5.449   4.499
  205TIP3    H2  561   1.151   5.433   4.588
  206TIP3   OH2  562   0.780   0.742   0.154
  206TIP3    H1  563   0.694   0.775   0.129
  206TIP3    H2  564   0.783   0.753   0.249
  207TIP3   OH2  565   3.328   7.490   3.757
  207TIP3    H1  566   3.237   7.520   3.759
  207TIP3    H2  567   3.322   7.395   3.769
  208TIP3   OH2  568   6.588   0.781   1.909
  208TIP3    H1  569   6.544   0.787   1.824
  208TIP3    H2  570   6.574   0.867   1.949
  209TIP3   OH2  571   4.204   4.624   0.976
  209TIP3    H1  572   4.297   4.629   0.953
  209TIP3    H2  573   4.171   4.712   0.960
  210TIP3   OH2  574   7.306   1.500   5.606
  210TIP3    H1  575   7.316   1.553   5.527
  210TIP3    H2  576   7.212   1.483   5.612
  211TIP3   OH2  577   5.699   0.394   4.011
  211TIP3    H1  578   5.657   0.387   4.097
  211TIP3    H2  579   5.751   0.474   4.017
  212TIP3   OH2  580   1.177   5.729   0.513
  212TIP3    H1  581   1.101   5.786   0.502
  212TIP3    H2  582   1.232   5.774   0.578
  213TIP3   OH2  583   4.271   7.679   0.826
  213TIP3    H1  584   4.325   7.758   0.819
  213TIP3    H2  585   4.329   7.614   0.866
  214TIP3   OH2  586   0.733   6.410   1.974
  214TIP3    H1  587   0.800   6.353   1.935
  214TIP3    H2  588   0.665   6.417   1.906
  215TIP3   OH2  589   8.064   4.008   1.536
  215TIP3    H1  590   8.046   4.018   1.629
  215TIP3    H2  591   8.160   4.003   1.531
  216TIP3   OH2  592   0.808   4.890   4.359
  216TIP3    H1  593   0.717   4.860   4.356
  216TIP3    H2  594   0.806   4.974   4.311
  217TIP3   OH2  595   3.569   6.356   5.677
  217TIP3    H1  596   3.529   6.375   5.762
  217TIP3    H2  597   3.604   6.268   5.686
  218TIP3   OH2  598   7.986   4.153   3.486
  218TIP3    H1  599   7.997   4.231   3.540
  218TIP3    H2  600   7.980   4.081   3.549
  219TIP3   OH2  601   5.261   5.953   2.091
  219TIP3    H1  602   5.205   5.894   2.041
  219TIP3    H2  603   5.299   5.897   2.160
  220TIP3   OH2  604   1.997   1.880   2.141
  220TIP3    H1  605   2.020   1.819   2.212
  220TIP3    H2  606   2.065   1.947   2.144
  221TIP3   OH2  607   1.381   7.817   2.140
  221TIP3    H1  608   1.416   7.773   2.063
  221TIP3    H2  609   1.417   7.768   2.214
  222TIP3   OH2  610   7.866   5.741   3.798
  222TIP3    H1  611   7.826   5.815   3.752
  222TIP3    H2  612   7.958   5.764   3.805
  223TIP3   OH2  613   1.604   2.371   5.136
  223TIP3    H1  614   1.660   2.298   5.109
  223TIP3    H2  615   1.542   2.380   5.064
  224TIP3   OH2  616   1.581   3.408   6.394
  224TIP3    H1  617   1.613   3.417   6.483
  224TIP3    H2  618   1.577   3.497   6.360
  225TIP3   OH2  619   5.066   5.971   1.345
  225TIP3    H1  620   4.979   5.992   1.379
  225TIP3    H2  621   5.114   5.936   1.420
  226TIP3   OH2  622   1.193   6.025   4.567
  226TIP3    H1  623   1.246   6.001   4.491
  226TIP3    H2  624   1.236   6.102   4.603
  227TIP3   OH2  625   1.775   4.146   0.056
  227TIP3    H1  626   1.736   4.226   0.092
  227TIP3    H2  627   1.782   4.087   0.131
  228TIP3   OH2  628   1.343   7.192   3.650
  228TIP3    H1  629   1.290   7.140   3.590
  228TIP3    H2  630   1.358   7.274   3.604
  229TIP3   OH2  631   0.416   2.061   5.583
  229TIP3    H1  632   0.357   2.040   5.655
  229TIP3    H2  633   0.497   2.088   5.626
  230TIP3   OH2  634   6.738   2.030   3.136
  230TIP3    H1  635   6.650   2.061   3.159
  230TIP3    H2  636   6.758   2.073   3.053
  231TIP3   OH2  637   4.210   5.139   2.070
  231TIP3    H1  638   4.148   5.191   2.018
  231TIP3    H2  639   4.199   5.171   2.160
  232TIP3   OH2  640   3.251   3.424   3.531
  232TIP3    H1  641   3.199   3.394   3.456
  232TIP3    H2  642   3.189   3.469   3.588
  233TIP3   OH2  643   1.364   2.788   6.000
  233TIP3    H1  644   1.323   2.716   5.953
  233TIP3    H2  645   1.380   2.753   6.088
  234TIP3   OH2  646   4.825   0.009   4.239
  234TIP3    H1  647   4.843   0.101   4.220
  234TIP3    H2  648   4.910  -0.029   4.260
  235TIP3   OH2  649   5.707   5.622   6.762
  235TIP3    H1  650   5.764   5.584   6.696
  235TIP3    H2  651   5.619   5.595   6.737
  236TIP3   OH2  652   3.587   1.661   2.976
  236TIP3    H1  653   3.525   1.676   3.048
  236TIP3    H2  654   3.647   1.595   3.009
  237TIP3   OH2  655   3.847   5.973   4.061
  237TIP3    H1  656   3.820   5.888   4.096
  237TIP3    H2  657   3.789   6.036   4.103
  238TIP3   OH2  658   2.225   6.173   3.566
  238TIP3    H1  659   2.278   6.224   3.629
  238TIP3    H2  660   2.199   6.095   3.615
  239TIP3   OH2  661   4.340   6.998   5.139
  239TIP3    H1  662   4.407   7.026   5.203
  239TIP3    H2  663   4.388   6.991   5.057
  240TIP3   OH2  664   1.677   3.849   5.998
  240TIP3    H1  665   1.689   3.892   5.913
  240TIP3    H2  666   1.681   3.920   6.061
  241TIP3   OH2  667   6.849   0.435   6.054
  241TIP3    H1  668   6.931   0.385   6.047
  241TIP3    H2  669   6.815   0.437   5.964
  242TIP3   OH2  670   3.876   4.838   4.198
  242TIP3    H1  671   3.821   4.791   4.135
  242TIP3    H2  672   3.816   4.866   4.267
  243TIP3   OH2  673   7.898   0.084   1.712
  243TIP3    H1  674   7.895  -0.008   1.686
  243TIP3    H2  675   7.950   0.085   1.792
  244TIP3   OH2  676   1.890   3.830   3.491
  244TIP3    H1  677   1.922   3.918   3.470
  244TIP3    H2  678   1.941   3.772   3.435
  245TIP3   OH2  679   5.066   3.920   0.032
  245TIP3    H1  680   5.037   3.972  -0.042
  245TIP3    H2  681   5.161   3.912   0.020
  246TIP3   OH2  682   6.620   5.534   3.932
  246TIP3    H1  683   6.569   5.613   3.914
  246TIP3    H2  684   6.626   5.532   4.028
  247TIP3   OH2  685   1.938   5.127   6.314
  247TIP3    H1  686   1.855   5.080   6.324
  247TIP3    H2  687   1.999   5.079   6.369
  248TIP3   OH2  688   4.161   2.037   5.212
  248TIP3    H1  689   4.216   2.095   5.265
  248TIP3    H2  690   4.223   1.981   5.165
  249TIP3   OH2  691   3.813   1.731   5.642
  249TIP3    H1  692   3.763   1.650   5.630
  249TIP3    H2  693   3.864   1.740   5.562
  250TIP3   OH2  694   6.928   3.567   0.140
  250TIP3    H1  695   6.851   3.594   0.090
  250TIP3    H2  696   6.961   3.490   0.094
  251TIP3   OH2  697   2.686   5.684   4.631
  251TIP3    H1  698   2.762   5.627   4.643
  251TIP3    H2  699   2.707   5.736   4.554
  252TIP3   OH2  700   1.371   3.160   2.786
  252TIP3    H1  701   1.298   3.102   2.807
  252TIP3    H2  702   1.349   3.196   2.700
  253TIP3   OH2  703   1.791   2.146   1.992
  253TIP3    H1  704   1.882   2.118   1.997
  253TIP3    H2  705   1.775   2.160   1.898
  254TIP3   OH2  706   2.747   6.383   5.313
  254TIP3    H1  707   2.686   6.309   5.313
  254TIP3    H2  708   2.818   6.355   5.370
  255TIP3   OH2  709   4.409   2.867   2.543
  255TIP3    H1  710   4.461   2.926   2.490
  255TIP3    H2  711   4.409   2.785   2.494
  256TIP3   OH2  712   6.276   3.422   2.939
  256TIP3    H1  713   6.331   3.360   2.891
  256TIP3    H2  714   6.338   3.480   2.984
  257TIP3   OH2  715   3.560   7.813   6.217
  257TIP3    H1  716   3.486   7.866   6.245
  257TIP3    H2  717   3.520   7.739   6.171
  258TIP3   OH2  718   2.854   0.435   5.852
  258TIP3    H1  719   2.834   0.481   5.770
  258TIP3    H2  720   2.917   0.492   5.896
  259TIP3   OH2  721   7.721   1.345   4.142
  259TIP3    H1  722   7.663   1.416   4.112
  259TIP3    H2  723   7.667   1.267   4.137
  260TIP3   OH2  724   2.186   1.139   5.697
  260TIP3    H1  725   2.248   1.066   5.693
  260TIP3    H2  726   2.144   1.130   5.783
  261TIP3   OH2  727   0.169   6.199   2.523
  261TIP3    H1  728   0.123   6.114   2.523
  261TIP3    H2  729   0.259   6.177   2.498
  262TIP3   OH2  730   7.560   6.279   0.853
  262TIP3    H1  731   7.500   6.339   0.899
  262TIP3    H2  732   7.551   6.197   0.900
  263TIP3   OH2  733   3.584   7.058   2.646
  263TIP3    H1  734   3.660   7.074   2.702
  263TIP3    H2  735   3.520   7.015   2.703
  264TIP3   OH2  736   6.657   4.098   2.906
  264TIP3    H1  737   6.583   4.072   2.960
  264TIP3    H2  738   6.729   4.042   2.936
  265TIP3   OH2  739   7.046   4.633   1.519
  265TIP3    H1  740   6.967   4.683   1.501
  265TIP3    H2  741   7.015   4.545   1.541
  266TIP3   OH2  742   5.325   5.744   3.390
  266TIP3    H1  743   5.324   5.724   3.296
  266TIP3    H2  744   5.309   5.839   3.393
  267TIP3   OH2  745   8.308   0.185   4.110
  267TIP3    H1  746   8.247   0.171   4.182
  267TIP3    H2  747   8.258   0.235   4.045
  268TIP3   OH2  748   6.204   2.927   6.333
  268TIP3    H1  749   6.144   2.965   6.396
  268TIP3    H2  750   6.207   2.991   6.262
  269TIP3   OH2  751   0.204   1.776   6.100
  269TIP3    H1  752   0.153   1.811   6.028
  269TIP3    H2  753   0.155   1.699   6.129
  270TIP3   OH2  754   7.955   2.129   4.544
  270TIP3    H1  755   7.871   2.117   4.500
  270TIP3    H2  756   7.933   2.178   4.623
  271TIP3   OH2  757   4.364   0.335   5.755
  271TIP3    H1  758   4.416   0.409   5.724
  271TIP3    H2  759   4.428   0.275   5.792
  272TIP3   OH2  760   6.431   4.206   0.230
  272TIP3    H1  761   6.473   4.185   0.313
  272TIP3    H2  762   6.337   4.200   0.248
  273TIP3   OH2  763   2.792   5.368   2.977
  273TIP3    H1  764   2.718   5.426   2.992
  273TIP3    H2  765   2.792   5.354   2.882
  274TIP3   OH2  766   1.783   0.872   6.186
  274TIP3    H1  767   1.693   0.864   6.156
  274TIP3    H2  768   1.826   0.791   6.158
  275TIP3   OH2  769   5.953   6.883   4.232
  275TIP3    H1  770   5.890   6.840   4.175
  275TIP3    H2  771   5.949   6.976   4.208
  276TIP3   OH2  772   5.944   0.972   2.880
  276TIP3    H1  773   5.983   0.896   2.923
  276TIP3    H2  774   5.871   0.935   2.829
  277TIP3   OH2  775   4.933   1.894   4.816
  277TIP3    H1  776   4.888   1.810   4.805
  277TIP3    H2  777   5.022   1.870   4.843
  278TIP3   OH2  778   2.736   0.006   3.338
  278TIP3    H1  779   2.738  -0.017   3.245
  278TIP3    H2  780   2.656   0.057   3.349
  279TIP3   OH2  781   7.224   4.999   5.054
  279TIP3    H1  782   7.215   5.063   5.124
  279TIP3    H2  783   7.136   4.988   5.019
  280TIP3   OH2  784   2.605   6.265   4.059
  280TIP3    H1  785   2.618   6.203   3.987
  280TIP3    H2  786   2.516   6.298   4.045
  281TIP3   OH2  787   3.803   1.126   4.120
  281TIP3    H1  788   3.868   1.144   4.188
  281TIP3    H2  789   3.783   1.212   4.082
  282TIP3   OH2  790   2.540   0.974   2.193
  282TIP3    H1  791   2.455   1.011   2.216
  282TIP3    H2  792   2.538   0.885   2.228
  283TIP3   OH2  793   4.525   3.862   4.336
  283TIP3    H1  794   4.619   3.875   4.329
  283TIP3    H2  795   4.505   3.796   4.269
  284TIP3   OH2  796   5.984   6.386   0.432
  284TIP3    H1  797   5.916   6.408   0.369
  284TIP3    H2  798   5.994   6.291   0.423
  285TIP3   OH2  799   6.530   0.832   2.781
  285TIP3    H1  800   6.563   0.748   2.811
  285TIP3    H2  801   6.476   0.812   2.706
  286TIP3   OH2  802   2.807   2.792   4.685
  286TIP3    H1  803   2.829   2.840   4.765
  286TIP3    H2  804   2.714   2.808   4.673
  287TIP3   OH2  805   8.203   6.880   5.064
  287TIP3    H1  806   8.131   6.838   5.017
  287TIP3    H2  807   8.183   6.867   5.156
  288TIP3   OH2  808   5.994   3.942   1.673
  288TIP3    H1  809   5.960   3.894   1.597
  288TIP3    H2  810   5.986   3.880   1.745
  289TIP3   OH2  811   3.084   5.992   4.793
  289TIP3    H1  812   3.148   6.047   4.838
  289TIP3    H2  813   3.031   5.955   4.863
  290TIP3   OH2  814   6.871   3.891   3.019
  290TIP3    H1  815   6.843   3.801   3.001
  290TIP3    H2  816   6.950   3.902   2.966
  291TIP3   OH2  817   2.536   5.584   5.670
  291TIP3    H1  818   2.501   5.670   5.650
  291TIP3    H2  819   2.631   5.598   5.677
  292TIP3   OH2  820   0.086   0.614   0.755
  292TIP3    H1  821   0.112   0.607   0.663
  292TIP3    H2  822   0.041   0.531   0.773
  293TIP3   OH2  823   0.313   1.493   5.910
  293TIP3    H1  824   0.407   1.485   5.899
  293TIP3    H2  825   0.288   1.562   5.849
  294TIP3   OH2  826   6.285   0.687   4.266
  294TIP3    H1  827   6.375   0.665   4.289
  294TIP3    H2  828   6.233   0.612   4.295
  295TIP3   OH2  829   3.281   4.289   2.480
  295TIP3    H1  830   3.247   4.294   2.391
  295TIP3    H2  831   3.208   4.318   2.535
  296TIP3   OH2  832   4.232   1.651   2.253
  296TIP3    H1  833   4.247   1.559   2.274
  296TIP3    H2  834   4.150   1.652   2.204
  297TIP3   OH2  835   4.293   0.479   1.307
  297TIP3    H1  836   4.251   0.449   1.388
  297TIP3    H2  837   4.307   0.573   1.320
  298TIP3   OH2  838   0.965   2.968   2.348
  298TIP3    H1  839   0.969   2.873   2.358
  298TIP3    H2  840   0.872   2.989   2.351
  299TIP3   OH2  841   6.404   5.786   5.406
  299TIP3    H1  842   6.494   5.816   5.418
  299TIP3    H2  843   6.351   5.853   5.449
  300TIP3   OH2  844   3.494   4.029   0.747
  300TIP3    H1  845   3.544   4.092   0.696
  300TIP3    H2  846   3.547   3.949   0.747
  301TIP3   OH2  847   4.577   6.549   1.355
  301TIP3    H1  848   4.513   6.570   1.287
  301TIP3    H2  849   4.661   6.574   1.317
  302TIP3   OH2  850   8.071   4.807   2.339
  302TIP3    H1  851   8.091   4.874   2.274
  302TIP3    H2  852   8.083   4.851   2.423
  303TIP3   OH2  853   4.371   2.986   3.011
  303TIP3    H1  854   4.371   3.024   2.923
  303TIP3    H2  855   4.312   3.042   3.062
  304TIP3   OH2  856   6.276   6.596   5.356
  304TIP3    H1  857   6.294   6.687   5.333
  304TIP3    H2  858   6.253   6.598   5.448
  305TIP3   OH2  859   8.253   2.510   4.376
  305TIP3    H1  860   8.329   2.484   4.324
  305TIP3    H2  861   8.240   2.438   4.438
  306TIP3   OH2  862   4.891   4.965   6.317
  306TIP3    H1  863   4.899   4.896   6.251
  306TIP3    H2  864   4.951   4.940   6.387
  307TIP3   OH2  865   0.063   0.752   2.559
  307TIP3    H1  866   0.042   0.692   2.488
  307TIP3    H2  867   0.155   0.776   2.545
  308TIP3   OH2  868   7.052   7.683   6.235
  308TIP3    H1  869   7.062   7.708   6.327
  308TIP3    H2  870   6.967   7.640   6.231
  309TIP3   OH2  871   0.902   3.734   4.510
  309TIP3    H1  872   0.881   3.640   4.515
  309TIP3    H2  873   0.879   3.768   4.596
  310TIP3   OH2  874   1.250   7.125   1.806
  310TIP3    H1  875   1.183   7.186   1.837
  310TIP3    H2  876   1.333   7.164   1.833
  311TIP3   OH2  877   0.220   2.973   2.319
  311TIP3    H1  878   0.294   3.015   2.275
  311TIP3    H2  879   0.189   3.039   2.381
  312TIP3   OH2  880   7.236   4.198   2.117
  312TIP3    H1  881   7.209   4.139   2.047
  312TIP3    H2  882   7.224   4.285   2.080
  313TIP3   OH2  883   3.363   0.245   5.079
  313TIP3    H1  884   3.410   0.186   5.020
  313TIP3    H2  885   3.426   0.263   5.149
  314TIP3   OH2  886   0.745   6.116   0.868
  314TIP3    H1  887   0.765   6.112   0.775
  314TIP3    H2  888   0.736   6.209   0.887
  315TIP3   OH2  889   7.281   5.541   5.913
  315TIP3    H1  890   7.340   5.518   5.985
  315TIP3    H2  891   7.337   5.547   5.836
  316TIP3   OH2  892   5.548   4.554   6.676
  316TIP3    H1  893   5.474   4.606   6.709
  316TIP3    H2  894   5.507   4.481   6.630
  317TIP3   OH2  895   0.958   6.179   5.987
  317TIP3    H1  896   1.013   6.181   5.909
  317TIP3    H2  897   0.993   6.108   6.040
  318TIP3   OH2  898   1.919   4.030   5.164
  318TIP3    H1  899   2.013   4.013   5.160
  318TIP3    H2  900   1.911   4.125   5.150
  319TIP3   OH2  901   3.943   7.833   4.186
  319TIP3    H1  902   3.849   7.836   4.169
  319TIP3    H2  903   3.980   7.899   4.127
  320TIP3   OH2  904   7.188   4.921   6.063
  320TIP3    H1  905   7.154   4.853   6.122
  320TIP3    H2  906   7.115   4.982   6.053
  321TIP3   OH2  907   3.076   0.517   2.802
  321TIP3    H1  908   3.073   0.612   2.790
  321TIP3    H2  909   2.987   0.487   2.781
  322TIP3   OH2  910   4.939   0.162   1.898
  322TIP3    H1  911   4.938   0.074   1.934
  322TIP3    H2  912   4.986   0.153   1.815
  323TIP3   OH2  913   4.770   4.162   1.860
  323TIP3    H1  914   4.712   4.157   1.784
  323TIP3    H2  915   4.845   4.105   1.837
  324TIP3   OH2  916   0.735   5.637   6.720
  324TIP3    H1  917   0.785   5.642   6.801
  324TIP3    H2  918   0.750   5.721   6.677
  325TIP3   OH2  919   7.713   3.966   0.962
  325TIP3    H1  920   7.665   3.903   0.910
  325TIP3    H2  921   7.649   3.998   1.026
  326TIP3   OH2  922   5.010   1.203   1.339
  326TIP3    H1  923   5.079   1.222   1.276
  326TIP3    H2  924   4.938   1.171   1.286
  327TIP3   OH2  925   2.331   3.216   5.313
  327TIP3    H1  926   2.270   3.163   5.262
  327TIP3    H2  927   2.297   3.213   5.402
  328TIP3   OH2  928   2.710   1.871   3.530
  328TIP3    H1  929   2.772   1.942   3.512
  328TIP3    H2  930   2.695   1.830   3.445
  329TIP3   OH2  931   7.361   6.557   4.990
  329TIP3    H1  932   7.340   6.609   4.912
  329TIP3    H2  933   7.343   6.467   4.964
  330TIP3   OH2  934   1.209   3.178   1.552
  330TIP3    H1  935   1.166   3.252   1.511
  330TIP3    H2  936   1.146   3.145   1.616
  331TIP3   OH2  937  -0.046   5.259   3.524
  331TIP3    H1  938  -0.042   5.351   3.551
  331TIP3    H2  939   0.044   5.237   3.500
  332TIP3   OH2  940   3.719   2.045   1.993
  332TIP3    H1  941   3.691   2.096   1.917
  332TIP3    H2  942   3.788   1.988   1.959
  333TIP3   OH2  943   4.342   1.273   6.035
  333TIP3    H1  944   4.356   1.227   5.951
  333TIP3    H2  945   4.253   1.308   6.028
  334TIP3   OH2  946   4.482   4.257   0.494
  334TIP3    H1  947   4.478   4.190   0.562
  334TIP3    H2  948   4.410   4.317   0.516
  335TIP3   OH2  949   2.086   5.941   4.617
  335TIP3    H1  950   2.020   5.984   4.563
  335TIP3    H2  951   2.111   5.863   4.566
  336TIP3   OH2  952   2.320   6.165   0.757
  336TIP3    H1  953   2.297   6.223   0.829
  336TIP3    H2  954   2.247   6.104   0.751
  337TIP3   OH2  955   2.563   5.800   2.128
  337TIP3    H1  956   2.612   5.875   2.095
  337TIP3    H2  957   2.599   5.784   2.215
  338TIP3   OH2  958   3.473   2.451   0.356
  338TIP3    H1  959   3.482   2.437   0.262
  338TIP3    H2  960   3.404   2.517   0.364
  339TIP3   OH2  961   7.698   2.472   6.594
  339TIP3    H1  962   7.741   2.505   6.514
  339TIP3    H2  963   7.746   2.515   6.665
  340TIP3   OH2  964   5.098   2.120   3.967
  340TIP3    H1  965   5.146   2.128   4.050
  340TIP3    H2  966   5.066   2.030   3.967
  341TIP3   OH2  967   5.346   4.884   1.541
  341TIP3    H1  968   5.378   4.963   1.497
  341TIP3    H2  969   5.426   4.834   1.560
  342TIP3   OH2  970   0.088   0.675   1.023
  342TIP3    H1  971   0.168   0.718   1.054
  342TIP3    H2  972   0.101   0.666   0.929
  343TIP3   OH2  973   6.549   4.296   5.875
  343TIP3    H1  974   6.611   4.369   5.874
  343TIP3    H2  975   6.591   4.229   5.821
  344TIP3   OH2  976   0.333   5.319   1.132
  344TIP3    H1  977   0.301   5.390   1.077
  344TIP3    H2  978   0.425   5.340   1.147
  345TIP3   OH2  979   0.792   5.316   6.471
  345TIP3    H1  980   0.767   5.324   6.563
  345TIP3    H2  981   0.786   5.406   6.437
  346TIP3   OH2  982   7.065   6.713   4.510
  346TIP3    H1  983   7.033   6.738   4.423
  346TIP3    H2  984   7.127   6.642   4.493
  347TIP3   OH2  985   3.277   4.411   4.114
  347TIP3    H1  986   3.255   4.349   4.184
  347TIP3    H2  987   3.330   4.360   4.053
  348TIP3   OH2  988   3.679   7.202   3.836
  348TIP3    H1  989   3.631   7.159   3.906
  348TIP3    H2  990   3.666   7.146   3.759
  349TIP3   OH2  991   6.730   1.384   3.706
  349TIP3    H1  992   6.716   1.476   3.726
  349TIP3    H2  993   6.729   1.380   3.610
  350TIP3   OH2  994   7.327   1.245   2.676
  350TIP3    H1  995   7.290   1.219   2.592
  350TIP3    H2  996   7.391   1.313   2.654
  351TIP3   OH2  997   5.653   7.441   2.754
  351TIP3    H1  998   5.563   7.416   2.731
  351TIP3    H2  999   5.647   7.534   2.777
  352TIP3   OH2 1000   1.066   4.608   3.114
  352TIP3    H1 1001   0.994   4.563   3.158
  352TIP3    H2 1002   1.065   4.572   3.025
  353TIP3   OH2 1003   4.151   6.020   0.869
  353TIP3    H1 1004   4.084   5.986   0.928
  353TIP3    H2 1005   4.231   6.022   0.922
  354TIP3   OH2 1006   0.875   1.054   5.210
  354TIP3    H1 1007   0.892   1.037   5.303
  354TIP3    H2 1008   0.922   1.135   5.191
  355TIP3   OH2 1009   2.195   0.699   3.038
  355TIP3    H1 1010   2.200   0.676   3.130
  355TIP3    H2 1011   2.136   0.774   3.035
  356TIP3   OH2 1012   7.034   2.033   0.916
  356TIP3    H1 1013   7.025   2.010   1.008
  356TIP3    H2 1014   6.999   2.122   0.910
  357TIP3   OH2 1015   3.354   7.363   0.784
  357TIP3    H1 1016   3.395   7.432   0.731
  357TIP3    H2 1017   3.264   7.359   0.752
  358TIP3   OH2 1018   1.580   6.459   6.008
  358TIP3    H1 1019   1.556   6.367   5.997
  358TIP3    H2 1020   1.601   6.489   5.920
  359TIP3   OH2 1021   6.164   1.916   0.289
  359TIP3    H1 1022   6.217   1.914   0.369
  359TIP3    H2 1023   6.101   1.845   0.299
  360TIP3   OH2 1024   2.997   0.493   4.324
  360TIP3    H1 1025   2.950   0.545   4.389
  360TIP3    H2 1026   2.938   0.487   4.250
  361TIP3   OH2 1027   2.850   3.487   3.041
  361TIP3    H1 1028   2.916   3.495   3.110
  361TIP3    H2 1029   2.775   3.448   3.085
  362TIP3   OH2 1030   2.410   5.208   0.330
  362TIP3    H1 1031   2.488   5.187   0.279
  362TIP3    H2 1032   2.409   5.304   0.334
  363TIP3   OH2 1033   3.642   0.806   0.105
  363TIP3    H1 1034   3.677   0.804   0.195
  363TIP3    H2 1035   3.710   0.764   0.053
  364TIP3   OH2 1036   4.827   5.481   3.991
  364TIP3    H1 1037   4.845   5.507   4.081
  364TIP3    H2 1038   4.735   5.458   3.990
  365TIP3   OH2 1039   6.426   5.314   5.589
  365TIP3    H1 1040   6.403   5.237   5.537
  365TIP3    H2 1041   6.372   5.384   5.554
  366TIP3   OH2 1042   0.600   6.553   4.590
  366TIP3    H1 1043   0.621   6.460   4.583
  366TIP3    H2 1044   0.509   6.555   4.619
  367TIP3   OH2 1045   4.988   5.612   5.368
  367TIP3    H1 1046   4.936   5.678   5.321
  367TIP3    H2 1047   4.947   5.607   5.454
  368TIP3   OH2 1048   5.623   0.474   5.321
  368TIP3    H1 1049   5.669   0.393   5.302
  368TIP3    H2 1050   5.660   0.538   5.260
  369TIP3   OH2 1051   7.288   5.936   0.241
  369TIP3    H1 1052   7.285   5.932   0.337
  369TIP3    H2 1053   7.207   5.980   0.216
  370TIP3   OH2 1054   2.229   4.081   4.585
  370TIP3    H1 1055   2.324   4.092   4.587
  370TIP3    H2 1056   2.213   4.029   4.506
  371TIP3   OH2 1057   6.406   2.420   5.872
  371TIP3    H1 1058   6.437   2.366   5.944
  371TIP3    H2 1059   6.365   2.496   5.915
  372TIP3   OH2 1060   2.942   3.920   2.955
  372TIP3    H1 1061   2.984   3.864   3.021
  372TIP3    H2 1062   2.878   3.971   3.004
  373TIP3   OH2 1063   5.959   1.774   4.419
  373TIP3    H1 1064   6.053   1.757   4.405
  373TIP3    H2 1065   5.956   1.823   4.501
  374TIP3   OH2 1066   4.895   3.746   5.554
  374TIP3    H1 1067   4.917   3.666   5.506
  374TIP3    H2 1068   4.963   3.753   5.621
  375TIP3   OH2 1069   0.238   1.210   0.188
  375TIP3    H1 1070   0.277   1.260   0.116
  375TIP3    H2 1071   0.248   1.267   0.265
  376TIP3   OH2 1072   6.932   2.752   5.022
  376TIP3    H1 1073   6.968   2.810   4.956
  376TIP3    H2 1074   6.913   2.670   4.975
  377TIP3   OH2 1075   4.822   0.541   1.847
  377TIP3    H1 1076   4.738   0.501   1.870
  377TIP3    H2 1077   4.872   0.537   1.929
  378TIP3   OH2 1078   3.433   0.496   0.449
  378TIP3    H1 1079   3.489   0.456   0.516
  378TIP3    H2 1080   3.344   0.487   0.484
  379TIP3   OH2 1081   7.261   4.023   1.201
  379TIP3    H1 1082   7.250   4.058   1.290
  379TIP3    H2 1083   7.176   4.036   1.159
  380TIP3   OH2 1084   4.144   0.895   5.077
  380TIP3    H1 1085   4.094   0.862   5.151
  380TIP3    H2 1086   4.116   0.986   5.068
  381TIP3   OH2 1087   2.164   5.661   5.714
  381TIP3    H1 1088   2.216   5.595   5.761
  381TIP3    H2 1089   2.215   5.682   5.637
  382TIP3   OH2 1090   6.391   3.441   4.443
  382TIP3    H1 1091   6.311   3.488   4.419
  382TIP3    H2 1092   6.408   3.467   4.534
  383TIP3   OH2 1093   5.217   5.101   0.272
  383TIP3    H1 1094   5.289   5.038   0.267
  383TIP3    H2 1095   5.153   5.060   0.330
  384TIP3   OH2 1096   5.594   4.201   5.692
  384TIP3    H1 1097   5.680   4.201   5.651
  384TIP3    H2 1098   5.539   4.250   5.632
  385TIP3   OH2 1099   1.805   7.648   1.033
  385TIP3    H1 1100   1.848   7.637   1.118
  385TIP3    H2 1101   1.783   7.742   1.030
  386TIP3   OH2 1102   4.049   4.400   1.034
  386TIP3    H1 1103   3.983   4.406   1.104
  386TIP3    H2 1104   4.076   4.490   1.018
  387TIP3   OH2 1105   7.681   1.863   2.032
  387TIP3    H1 1106   7.660   1.820   2.115
  387TIP3    H2 1107   7.762   1.820   2.003
  388TIP3   OH2 1108   4.997   3.199   4.011
  388TIP3    H1 1109   4.912   3.156   4.022
  388TIP3    H2 1110   5.014   3.241   4.095
  389TIP3   OH2 1111   5.685   6.671   1.279
  389TIP3    H1 1112   5.764   6.619   1.266
  389TIP3    H2 1113   5.715   6.753   1.316
  390TIP3   OH2 1114   2.370   7.531   1.120
  390TIP3    H1 1115   2.302   7.525   1.187
  390TIP3    H2 1116   2.337   7.595   1.057
  391TIP3   OH2 1117   0.492   1.813   0.914
  391TIP3    H1 1118   0.444   1.892   0.937
  391TIP3    H2 1119   0.576   1.846   0.880
  392TIP3   OH2 1120   2.496   2.014   1.663
  392TIP3    H1 1121   2.516   1.924   1.639
  392TIP3    H2 1122   2.434   2.043   1.597
  393TIP3   OH2 1123   2.525   2.078   4.592
  393TIP3    H1 1124   2.606   2.027   4.590
  393TIP3    H2 1125   2.520   2.119   4.506
  394TIP3   OH2 1126   0.455   1.741   5.181
  394TIP3    H1 1127   0.489   1.794   5.253
  394TIP3    H2 1128   0.498   1.777   5.103
  395TIP3   OH2 1129   4.162   3.245   2.498
  395TIP3    H1 1130   4.105   3.169   2.491
  395TIP3    H2 1131   4.103   3.318   2.517
  396TIP3   OH2 1132  -0.027   1.178   3.423
  396TIP3    H1 1133  -0.062   1.182   3.512
  396TIP3    H2 1134   0.043   1.112   3.428
  397TIP3   OH2 1135   2.749   4.639   3.031
  397TIP3    H1 1136   2.817   4.572   3.038
  397TIP3    H2 1137   2.780   4.710   3.087
  398TIP3   OH2 1138   4.503   2.090   3.592
  398TIP3    H1 1139   4.421   2.140   3.581
  398TIP3    H2 1140   4.537   2.120   3.677
  399TIP3   OH2 1141   1.686   6.298   2.189
  399TIP3    H1 1142   1.703   6.305   2.283
  399TIP3    H2 1143   1.773   6.290   2.150
  400TIP3   OH2 1144   0.843   6.883   4.196
  400TIP3    H1 1145   0.928   6.918   4.168
  400TIP3    H2 1146   0.837   6.798   4.153
  401TIP3   OH2 1147   6.458   5.756   3.987
  401TIP3    H1 1148   6.432   5.817   3.918
  401TIP3    H2 1149   6.377   5.712   4.013
  402TIP3   OH2 1150   3.818   2.075   3.344
  402TIP3    H1 1151   3.790   2.132   3.272
  402TIP3    H2 1152   3.879   2.013   3.303
  403TIP3   OH2 1153   7.346   5.580   3.919
  403TIP3    H1 1154   7.366   5.538   3.836
  403TIP3    H2 1155   7.416   5.551   3.978
  404TIP3   OH2 1156   6.176   2.629   2.172
  404TIP3    H1 1157   6.213   2.667   2.252
  404TIP3    H2 1158   6.184   2.534   2.185
  405TIP3   OH2 1159   2.851   5.964   1.307
  405TIP3    H1 1160   2.770   5.915   1.315
  405TIP3    H2 1161   2.912   5.920   1.366
  406TIP3   OH2 1162   0.294   4.131   3.098
  406TIP3    H1 1163   0.372   4.155   3.149
  406TIP3    H2 1164   0.329   4.090   3.018
  407TIP3   OH2 1165   5.293   5.249   4.443
  407TIP3    H1 1166   5.352   5.175   4.432
  407TIP3    H2 1167   5.206   5.210   4.455
  408TIP3   OH2 1168   4.769   0.140   3.257
  408TIP3    H1 1169   4.791   0.226   3.294
  408TIP3    H2 1170   4.712   0.160   3.183
  409TIP3   OH2 1171   4.060   6.588   2.689
  409TIP3    H1 1172   4.109   6.520   2.735
  409TIP3    H2 1173   4.062   6.561   2.597
  410TIP3   OH2 1174   3.260   1.136   2.257
  410TIP3    H1 1175   3.210   1.216   2.275
  410TIP3    H2 1176   3.320   1.128   2.331
  411TIP3   OH2 1177   7.291   1.690   3.122
  411TIP3    H1 1178   7.359   1.756   3.110
  411TIP3    H2 1179   7.287   1.646   3.037
  412TIP3   OH2 1180   7.134   3.430   0.808
  412TIP3    H1 1181   7.103   3.433   0.898
  412TIP3    H2 1182   7.061   3.464   0.756
  413TIP3   OH2 1183   0.963   7.705   2.873
  413TIP3    H1 1184   1.030   7.649   2.833
  413TIP3    H2 1185   0.909   7.733   2.799
  414TIP3   OH2 1186   3.487   4.818   0.944
  414TIP3    H1 1187   3.481   4.784   1.033
  414TIP3    H2 1188   3.534   4.901   0.954
  415TIP3   OH2 1189   6.680   6.109   0.148
  415TIP3    H1 1190   6.639   6.106   0.061
  415TIP3    H2 1191   6.770   6.137   0.131
  416TIP3   OH2 1192   2.784   0.952   4.395
  416TIP3    H1 1193   2.720   0.898   4.441
  416TIP3    H2 1194   2.811   0.899   4.320
  417TIP3   OH2 1195   4.446   4.937   3.264
  417TIP3    H1 1196   4.408   4.871   3.206
  417TIP3    H2 1197   4.375   4.961   3.323
  418TIP3   OH2 1198   7.981   5.548   0.562
  418TIP3    H1 1199   7.987   5.578   0.471
  418TIP3    H2 1200   7.891   5.568   0.587
  419TIP3   OH2 1201   2.641   1.363   2.716
  419TIP3    H1 1202   2.578   1.412   2.663
  419TIP3    H2 1203   2.723   1.410   2.705
  420TIP3   OH2 1204   7.065   3.328   1.292
  420TIP3    H1 1205   7.157   3.300   1.286
  420TIP3    H2 1206   7.049   3.372   1.209
  421TIP3   OH2 1207   2.325   7.436   6.592
  421TIP3    H1 1208   2.298   7.387   6.514
  421TIP3    H2 1209   2.351   7.522   6.558
  422TIP3   OH2 1210   3.773   2.237   6.708
  422TIP3    H1 1211   3.752   2.329   6.727
  422TIP3    H2 1212   3.762   2.228   6.614
  423TIP3   OH2 1213   6.582   0.897   5.127
  423TIP3    H1 1214   6.665   0.878   5.082
  423TIP3    H2 1215   6.544   0.970   5.077
  424TIP3   OH2 1216   5.489   6.199   4.855
  424TIP3    H1 1217   5.455   6.182   4.943
  424TIP3    H2 1218   5.554   6.268   4.868
  425TIP3   OH2 1219   0.577   4.034   6.632
  425TIP3    H1 1220   0.624   3.951   6.634
  425TIP3    H2 1221   0.556   4.048   6.540
  426TIP3   OH2 1222   4.020   2.580   1.472
  426TIP3    H1 1223   3.964   2.599   1.547
  426TIP3    H2 1224   4.062   2.663   1.452
  427TIP3   OH2 1225   7.429   4.797   5.540
  427TIP3    H1 1226   7.348   4.780   5.491
  427TIP3    H2 1227   7.495   4.814   5.472
  428TIP3   OH2 1228   6.876   1.282   1.806
  428TIP3    H1 1229   6.912   1.329   1.731
  428TIP3    H2 1230   6.798   1.332   1.831
  429TIP3   OH2 1231   4.832   6.235   2.199
  429TIP3    H1 1232   4.882   6.284   2.264
  429TIP3    H2 1233   4.741   6.241   2.229
  430TIP3   OH2 1234   2.560   6.082   3.842
  430TIP3    H1 1235   2.614   6.008   3.868
  430TIP3    H2 1236   2.470   6.048   3.842
  431TIP3   OH2 1237   2.534   0.120   0.553
  431TIP3    H1 1238   2.588   0.171   0.493
  431TIP3    H2 1239   2.592   0.053   0.588
  432TIP3   OH2 1240   1.634   0.435   3.518
  432TIP3    H1 1241   1.588   0.490   3.455
  432TIP3    H2 1242   1.657   0.494   3.589
  433TIP3   OH2 1243   2.176   4.399   4.586
  433TIP3    H1 1244   2.149   4.481   4.546
  433TIP3    H2 1245   2.103   4.339   4.569
  434TIP3   OH2 1246   3.674   2.542   6.651
  434TIP3    H1 1247   3.601   2.525   6.592
  434TIP3    H2 1248   3.733   2.599   6.601
  435TIP3   OH2 1249   0.782   0.912   4.668
  435TIP3    H1 1250   0.806   0.826   4.703
  435TIP3    H2 1251   0.706   0.895   4.612
  436TIP3   OH2 1252   4.051   6.583   1.179
  436TIP3    H1 1253   4.051   6.487   1.179
  436TIP3    H2 1254   4.125   6.607   1.123
  437TIP3   OH2 1255   7.557   3.723   6.679
  437TIP3    H1 1256   7.601   3.658   6.625
  437TIP3    H2 1257   7.585   3.808   6.643
  438TIP3   OH2 1258   5.758   4.362   1.968
  438TIP3    H1 1259   5.791   4.342   2.056
  438TIP3    H2 1260   5.781   4.286   1.915
  439TIP3   OH2 1261   6.388   1.067   4.561
  439TIP3    H1 1262   6.451   1.062   4.489
  439TIP3    H2 1263   6.323   0.999   4.540
  440TIP3   OH2 1264   6.032   4.284   5.798
  440TIP3    H1 1265   5.971   4.226   5.845
  440TIP3    H2 1266   6.114   4.278   5.848
  441TIP3   OH2 1267   4.319   2.115   4.899
  441TIP3    H1 1268   4.348   2.092   4.987
  441TIP3    H2 1269   4.382   2.181   4.870
  442TIP3   OH2 1270   6.289   3.787   5.720
  442TIP3    H1 1271   6.321   3.876   5.735
  442TIP3    H2 1272   6.367   3.733   5.727
  443TIP3   OH2 1273   3.796   1.226   6.642
  443TIP3    H1 1274   3.728   1.164   6.668
  443TIP3    H2 1275   3.749   1.300   6.603
  444TIP3   OH2 1276   5.540   6.634   0.907
  444TIP3    H1 1277   5.454   6.605   0.874
  444TIP3    H2 1278   5.570   6.698   0.842
  445TIP3   OH2 1279   3.709   7.792   0.031
  445TIP3    H1 1280   3.802   7.772   0.042
  445TIP3    H2 1281   3.664   7.709   0.048
  446TIP3   OH2 1282   7.796   3.822   0.515
  446TIP3    H1 1283   7.834   3.854   0.596
  446TIP3    H2 1284   7.798   3.897   0.456
  447TIP3   OH2 1285   0.592   2.882   6.374
  447TIP3    H1 1286   0.528   2.811   6.375
  447TIP3    H2 1287   0.539   2.962   6.374
  448TIP3   OH2 1288   2.347   3.241   1.984
  448TIP3    H1 1289   2.266   3.229   2.035
  448TIP3    H2 1290   2.316   3.262   1.896
  449TIP3   OH2 1291   8.176   3.071   3.629
  449TIP3    H1 1292   8.213   3.067   3.717
  449TIP3    H2 1293   8.188   3.161   3.601
  450TIP3   OH2 1294   5.715   7.373   4.590
  450TIP3    H1 1295   5.802   7.410   4.603
  450TIP3    H2 1296   5.731   7.283   4.562
  451TIP3   OH2 1297   5.198   2.105   3.038
  451TIP3    H1 1298   5.229   2.175   3.096
  451TIP3    H2 1299   5.277   2.059   3.011
  452TIP3   OH2 1300   0.134   5.424   0.185
  452TIP3    H1 1301   0.126   5.431   0.090
  452TIP3    H2 1302   0.224   5.394   0.199
  453TIP3   OH2 1303   2.918   7.785   2.611
  453TIP3    H1 1304   2.976   7.858   2.634
  453TIP3    H2 1305   2.942   7.716   2.672
  454TIP3   OH2 1306   1.495   5.458   0.569
  454TIP3    H1 1307   1.560   5.388   0.571
  454TIP3    H2 1308   1.485   5.484   0.661
  455TIP3   OH2 1309   2.355   5.136   2.674
  455TIP3    H1 1310   2.412   5.120   2.750
  455TIP3    H2 1311   2.415   5.150   2.601
  456TIP3   OH2 1312   6.184   3.711   0.104
  456TIP3    H1 1313   6.201   3.666   0.021
  456TIP3    H2 1314   6.180   3.641   0.169
  457TIP3   OH2 1315   3.198   1.606   3.862
  457TIP3    H1 1316   3.231   1.520   3.834
  457TIP3    H2 1317   3.178   1.594   3.955
  458TIP3   OH2 1318   4.101   0.391   5.665
  458TIP3    H1 1319   4.186   0.388   5.709
  458TIP3    H2 1320   4.121   0.424   5.577
  459TIP3   OH2 1321   7.141   4.580   2.927
  459TIP3    H1 1322   7.121   4.669   2.956
  459TIP3    H2 1323   7.200   4.592   2.853
  460TIP3   OH2 1324   5.137   0.770   0.134
  460TIP3    H1 1325   5.142   0.730   0.047
  460TIP3    H2 1326   5.047   0.754   0.162
  461TIP3   OH2 1327   3.311   3.153   5.433
  461TIP3    H1 1328   3.337   3.240   5.403
  461TIP3    H2 1329   3.242   3.169   5.496
  462TIP3   OH2 1330   0.861   1.141   0.790
  462TIP3    H1 1331   0.834   1.229   0.819
  462TIP3    H2 1332   0.953   1.151   0.767
  463TIP3   OH2 1333   0.361   1.187   6.011
  463TIP3    H1 1334   0.420   1.226   5.947
  463TIP3    H2 1335   0.339   1.101   5.975
  464TIP3   OH2 1336   2.190   7.200   5.405
  464TIP3    H1 1337   2.155   7.176   5.318
  464TIP3    H2 1338   2.166   7.292   5.415
  465TIP3   OH2 1339   5.044   5.772   0.111
  465TIP3    H1 1340   5.109   5.841   0.102
  465TIP3    H2 1341   5.023   5.747   0.021
  466TIP3   OH2 1342   5.945   3.018   0.113
  466TIP3    H1 1343   5.981   3.107   0.119
  466TIP3    H2 1344   6.021   2.961   0.119
  467TIP3   OH2 1345   1.179   4.197   0.931
  467TIP3    H1 1346   1.212   4.245   1.008
  467TIP3    H2 1347   1.170   4.107   0.961
  468TIP3   OH2 1348   7.692   3.168   5.462
  468TIP3    H1 1349   7.609   3.148   5.420
  468TIP3    H2 1350   7.720   3.251   5.424
  469TIP3   OH2 1351   6.212   0.947   1.641
  469TIP3    H1 1352   6.212   0.945   1.545
  469TIP3    H2 1353   6.286   1.004   1.664
  470TIP3   OH2 1354   1.794   4.890   0.777
  470TIP3    H1 1355   1.887   4.914   0.785
  470TIP3    H2 1356   1.751   4.939   0.848
  471TIP3   OH2 1357   6.061   6.667   5.956
  471TIP3    H1 1358   6.110   6.587   5.934
  471TIP3    H2 1359   6.007   6.641   6.031
  472TIP3   OH2 1360   6.255   0.052   0.711
  472TIP3    H1 1361   6.317   0.041   0.639
  472TIP3    H2 1362   6.275   0.139   0.746
  473TIP3   OH2 1363   5.378   0.101   3.739
  473TIP3    H1 1364   5.338   0.030   3.789
  473TIP3    H2 1365   5.349   0.086   3.649
  474TIP3   OH2 1366   5.465   2.988   5.885
  474TIP3    H1 1367   5.373   3.000   5.908
  474TIP3    H2 1368   5.471   2.898   5.854
  475TIP3   OH2 1369   0.579   0.558   5.947
  475TIP3    H1 1370   0.499   0.605   5.972
  475TIP3    H2 1371   0.550   0.494   5.882
  476TIP3   OH2 1372   4.315   1.449   3.120
  476TIP3    H1 1373   4.383   1.456   3.188
  476TIP3    H2 1374   4.334   1.521   3.060
  477TIP3   OH2 1375   1.622   1.876   6.559
  477TIP3    H1 1376   1.707   1.834   6.543
  477TIP3    H2 1377   1.642   1.970   6.559
  478TIP3   OH2 1378   2.553   3.587   5.107
  478TIP3    H1 1379   2.471   3.540   5.093
  478TIP3    H2 1380   2.593   3.592   5.020
  479TIP3   OH2 1381   7.539   0.659   2.896
  479TIP3    H1 1382   7.457   0.689   2.858
  479TIP3    H2 1383   7.513   0.602   2.969
  480TIP3   OH2 1384   7.269   4.256   6.006
  480TIP3    H1 1385   7.301   4.169   5.982
  480TIP3    H2 1386   7.345   4.301   6.042
  481TIP3   OH2 1387   4.584   4.009   6.161
  481TIP3    H1 1388   4.666   3.962   6.149
  481TIP3    H2 1389   4.537   3.997   6.079
  482TIP3   OH2 1390   5.363   6.966   6.131
  482TIP3    H1 1391   5.363   6.870   6.124
  482TIP3    H2 1392   5.277   6.987   6.169
  483TIP3   OH2 1393   0.175   4.729   1.322
  483TIP3    H1 1394   0.129   4.704   1.402
  483TIP3    H2 1395   0.108   4.769   1.267
  484TIP3   OH2 1396   7.525   7.123   3.917
  484TIP3    H1 1397   7.562   7.147   4.002
  484TIP3    H2 1398   7.598   7.083   3.869
  485TIP3   OH2 1399   3.110   3.678   6.111
  485TIP3    H1 1400   3.135   3.588   6.089
  485TIP3    H2 1401   3.017   3.672   6.132
  486TIP3   OH2 1402   2.821   5.248   2.705
  486TIP3    H1 1403   2.796   5.158   2.727
  486TIP3    H2 1404   2.912   5.255   2.733
  487TIP3   OH2 1405   3.082   1.304   2.001
  487TIP3    H1 1406   3.055   1.212   2.000
  487TIP3    H2 1407   3.067   1.335   1.912
  488TIP3   OH2 1408   8.193   5.100   3.043
  488TIP3    H1 1409   8.167   5.154   3.118
  488TIP3    H2 1410   8.205   5.013   3.080
  489TIP3   OH2 1411   3.419   7.714   4.425
  489TIP3    H1 1412   3.393   7.647   4.488
  489TIP3    H2 1413   3.479   7.670   4.365
  490TIP3   OH2 1414   1.308   7.333   6.079
  490TIP3    H1 1415   1.342   7.298   5.997
  490TIP3    H2 1416   1.334   7.425   6.079
  491TIP3   OH2 1417   1.137   2.844   6.375
  491TIP3    H1 1418   1.087   2.762   6.378
  491TIP3    H2 1419   1.228   2.816   6.363
  492TIP3   OH2 1420   1.442   2.945   4.108
  492TIP3    H1 1421   1.401   3.000   4.174
  492TIP3    H2 1422   1.372   2.889   4.075
  493TIP3   OH2 1423   2.100   1.232   0.524
  493TIP3    H1 1424   2.023   1.286   0.509
  493TIP3    H2 1425   2.174   1.291   0.507
  494TIP3   OH2 1426   5.650   2.271   2.328
  494TIP3    H1 1427   5.644   2.238   2.418
  494TIP3    H2 1428   5.742   2.295   2.317
  495TIP3   OH2 1429   0.988   5.439   2.923
  495TIP3    H1 1430   0.992   5.345   2.938
  495TIP3    H2 1431   0.896   5.463   2.941
  496TIP3   OH2 1432   1.524   4.230   3.289
  496TIP3    H1 1433   1.488   4.149   3.326
  496TIP3    H2 1434   1.483   4.238   3.203
  497TIP3   OH2 1435   1.104   3.407   1.475
  497TIP3    H1 1436   1.054   3.454   1.408
  497TIP3    H2 1437   1.057   3.426   1.557
  498TIP3   OH2 1438   4.239   5.588   0.490
  498TIP3    H1 1439   4.244   5.650   0.563
  498TIP3    H2 1440   4.319   5.603   0.441
  499TIP3   OH2 1441   0.848   7.797   1.233
  499TIP3    H1 1442   0.849   7.818   1.140
  499TIP3    H2 1443   0.874   7.705   1.238
  500TIP3   OH2 1444   3.475   2.716   3.797
  500TIP3    H1 1445   3.540   2.715   3.726
  500TIP3    H2 1446   3.436   2.803   3.793
  501TIP3   OH2 1447   0.214   7.556   5.203
  501TIP3    H1 1448   0.244   7.465   5.197
  501TIP3    H2 1449   0.220   7.590   5.114
  502TIP3   OH2 1450   6.545   4.749   3.795
  502TIP3    H1 1451   6.482   4.777   3.728
  502TIP3    H2 1452   6.503   4.774   3.878
  503TIP3   OH2 1453   4.193   4.588   5.438
  503TIP3    H1 1454   4.203   4.568   5.345
  503TIP3    H2 1455   4.145   4.513   5.473
  504TIP3   OH2 1456   2.929   5.666   1.241
  504TIP3    H1 1457   3.019   5.654   1.211
  504TIP3    H2 1458   2.936   5.684   1.335
  505TIP3   OH2 1459   1.495   6.676   2.406
  505TIP3    H1 1460   1.547   6.753   2.428
  505TIP3    H2 1461   1.500   6.670   2.311
  506TIP3   OH2 1462   5.560   0.821   5.601
  506TIP3    H1 1463   5.525   0.900   5.642
  506TIP3    H2 1464   5.552   0.753   5.667
  507TIP3   OH2 1465   2.770   6.173   3.606
  507TIP3    H1 1466   2.693   6.175   3.663
  507TIP3    H2 1467   2.754   6.243   3.543
  508TIP3   OH2 1468   3.909   2.145   5.592
  508TIP3    H1 1469   3.977   2.100   5.643
  508TIP3    H2 1470   3.917   2.107   5.504
  509TIP3   OH2 1471   3.747   3.015   0.008
  509TIP3    H1 1472   3.824   3.052  -0.034
  509TIP3    H2 1473   3.781   2.966   0.083
  510TIP3   OH2 1474   4.374   1.962   1.888
  510TIP3    H1 1475   4.403   2.044   1.927
  510TIP3    H2 1476   4.454   1.908   1.883
  511TIP3   OH2 1477   0.262   5.825   3.967
  511TIP3    H1 1478   0.337   5.835   3.909
  511TIP3    H2 1479   0.201   5.894   3.940
  512TIP3   OH2 1480   3.518   6.485   3.061
  512TIP3    H1 1481   3.511   6.576   3.033
  512TIP3    H2 1482   3.461   6.479   3.138
  513TIP3   OH2 1483   8.018   3.964   4.010
  513TIP3    H1 1484   8.043   3.872   4.011
  513TIP3    H2 1485   7.922   3.962   4.005
  514TIP3   OH2 1486   5.656   7.009   2.424
  514TIP3    H1 1487   5.674   7.074   2.357
  514TIP3    H2 1488   5.568   6.978   2.406
  515TIP3   OH2 1489   0.631   0.412   4.578
  515TIP3    H1 1490   0.537   0.421   4.565
  515TIP3    H2 1491   0.655   0.332   4.532
  516TIP3   OH2 1492   4.695   6.265   5.472
  516TIP3    H1 1493   4.734   6.193   5.522
  516TIP3    H2 1494   4.769   6.324   5.454
  517TIP3   OH2 1495   8.272   7.080   6.013
  517TIP3    H1 1496   8.206   7.147   5.998
  517TIP3    H2 1497   8.267   7.023   5.936
  518TIP3   OH2 1498   5.522   4.946   4.775
  518TIP3    H1 1499   5.613   4.919   4.784
  518TIP3    H2 1500   5.523   5.041   4.782
  519TIP3   OH2 1501   3.817   0.702   6.593
  519TIP3    H1 1502   3.897   0.755   6.587
  519TIP3    H2 1503   3.840   0.618   6.554
  520TIP3   OH2 1504   1.906   7.185   4.303
  520TIP3    H1 1505   1.975   7.232   4.351
  520TIP3    H2 1506   1.860   7.135   4.370
  521TIP3   OH2 1507   3.378   4.578   5.416
  521TIP3    H1 1508   3.415   4.549   5.499
  521TIP3    H2 1509   3.420   4.662   5.399
  522TIP3   OH2 1510   1.433   4.815   6.402
  522TIP3    H1 1511   1.475   4.850   6.481
  522TIP3    H2 1512   1.344   4.794   6.431
  523TIP3   OH2 1513   1.286   7.468   5.442
  523TIP3    H1 1514   1.365   7.512   5.412
  523TIP3    H2 1515   1.319   7.391   5.489
  524TIP3   OH2 1516   5.169   6.160   4.844
  524TIP3    H1 1517   5.147   6.084   4.898
  524TIP3    H2 1518   5.246   6.133   4.795
  525TIP3   OH2 1519   6.335   6.531   5.982
  525TIP3    H1 1520   6.357   6.506   5.892
  525TIP3    H2 1521   6.387   6.610   5.998
  526TIP3   OH2 1522   0.414   2.453   0.389
  526TIP3    H1 1523   0.488   2.437   0.330
  526TIP3    H2 1524   0.347   2.391   0.361
  527TIP3   OH2 1525   4.858   0.732   0.225
  527TIP3    H1 1526   4.793   0.748   0.157
  527TIP3    H2 1527   4.810   0.738   0.307
  528TIP3   OH2 1528   0.119   3.796   4.554
  528TIP3    H1 1529   0.111   3.879   4.507
  528TIP3    H2 1530   0.033   3.783   4.594
  529TIP3   OH2 1531   3.984   7.052   6.173
  529TIP3    H1 1532   3.997   6.966   6.213
  529TIP3    H2 1533   3.971   7.111   6.248
  530TIP3   OH2 1534   2.615   6.786   3.603
  530TIP3    H1 1535   2.586   6.843   3.674
  530TIP3    H2 1536   2.655   6.711   3.648
  531TIP3   OH2 1537   1.922   5.492   4.286
  531TIP3    H1 1538   1.906   5.446   4.369
  531TIP3    H2 1539   1.904   5.426   4.219
  532TIP3   OH2 1540   0.074   7.221   0.228
  532TIP3    H1 1541   0.016   7.294   0.205
  532TIP3    H2 1542   0.015   7.148   0.244
  533TIP3   OH2 1543   6.055   6.273   3.904
  533TIP3    H1 1544   5.974   6.322   3.919
  533TIP3    H2 1545   6.033   6.211   3.834
  534TIP3   OH2 1546   8.082   5.920   0.735
  534TIP3    H1 1547   8.094   5.838   0.784
  534TIP3    H2 1548   8.037   5.978   0.797
  535TIP3   OH2 1549   6.639   3.289   5.110
  535TIP3    H1 1550   6.614   3.246   5.028
  535TIP3    H2 1551   6.700   3.228   5.152
  536TIP3   OH2 1552   2.305   1.824   3.153
  536TIP3    H1 1553   2.249   1.899   3.133
  536TIP3    H2 1554   2.248   1.765   3.203
  537TIP3   OH2 1555   0.543   2.945   0.765
  537TIP3    H1 1556   0.494   2.918   0.687
  537TIP3    H2 1557   0.619   2.886   0.766
  538TIP3   OH2 1558   7.584   1.907   4.147
  538TIP3    H1 1559   7.539   1.901   4.063
  538TIP3    H2 1560   7.531   1.852   4.206
  539TIP3   OH2 1561   2.674   4.802   2.577
  539TIP3    H1 1562   2.697   4.709   2.579
  539TIP3    H2 1563   2.737   4.841   2.516
  540TIP3   OH2 1564   0.907   7.106   5.260
  540TIP3    H1 1565   0.848   7.034   5.280
  540TIP3    H2 1566   0.882   7.175   5.322
  541TIP3   OH2 1567   7.593   5.516   1.011
  541TIP3    H1 1568   7.562   5.434   0.971
  541TIP3    H2 1569   7.685   5.498   1.033
  542TIP3   OH2 1570   5.634   6.436   2.933
  542TIP3    H1 1571   5.705   6.426   2.996
  542TIP3    H2 1572   5.554   6.421   2.984
  543TIP3   OH2 1573   2.450   1.270   2.054
  543TIP3    H1 1574   2.536   1.293   2.091
  543TIP3    H2 1575   2.452   1.305   1.965
  544TIP3   OH2 1576   1.385   3.107   4.781
  544TIP3    H1 1577   1.347   3.028   4.819
  544TIP3    H2 1578   1.434   3.147   4.853
  545TIP3   OH2 1579   7.540   1.089   4.873
  545TIP3    H1 1580   7.488   1.079   4.794
  545TIP3    H2 1581   7.613   1.146   4.847
  546TIP3   OH2 1582   1.139   0.142   4.530
  546TIP3    H1 1583   1.197   0.082   4.575
  546TIP3    H2 1584   1.099   0.194   4.599
  547TIP3   OH2 1585   2.032   3.087   5.872
  547TIP3    H1 1586   2.049   2.993   5.877
  547TIP3    H2 1587   1.947   3.093   5.829
  548TIP3   OH2 1588   4.518   0.507   6.513
  548TIP3    H1 1589   4.495   0.459   6.593
  548TIP3    H2 1590   4.523   0.439   6.446
  549TIP3   OH2 1591   2.680   6.086   6.426
  549TIP3    H1 1592   2.744   6.023   6.394
  549TIP3    H2 1593   2.689   6.162   6.369
  550TIP3   OH2 1594   1.200   5.156   0.014
  550TIP3    H1 1595   1.255   5.138   0.090
  550TIP3    H2 1596   1.141   5.226   0.044
  551TIP3   OH2 1597   6.658   1.728   5.303
  551TIP3    H1 1598   6.600   1.804   5.311
  551TIP3    H2 1599   6.711   1.746   5.225
  552TIP3   OH2 1600   5.912   0.453   6.108
  552TIP3    H1 1601   5.821   0.473   6.130
  552TIP3    H2 1602   5.913   0.358   6.097
  553TIP3   OH2 1603   2.493   2.341   1.128
  553TIP3    H1 1604   2.582   2.308   1.122
  553TIP3    H2 1605   2.482   2.396   1.051
  554TIP3   OH2 1606   4.004   7.029   3.049
  554TIP3    H1 1607   3.952   7.102   3.014
  554TIP3    H2 1608   4.058   7.069   3.117
  555TIP3   OH2 1609   2.123   1.932   4.837
  555TIP3    H1 1610   2.174   1.865   4.884
  555TIP3    H2 1611   2.106   1.893   4.751
  556TIP3   OH2 1612   1.115   0.933   4.068
  556TIP3    H1 1613   1.088   0.995   4.137
  556TIP3    H2 1614   1.124   0.987   3.990
  557TIP3   OH2 1615   4.784   1.883   2.268
  557TIP3    H1 1616   4.772   1.853   2.358
  557TIP3    H2 1617   4.786   1.803   2.217
  558TIP3   OH2 1618   7.688   6.349   5.668
  558TIP3    H1 1619   7.683   6.417   5.600
  558TIP3    H2 1620   7.632   6.279   5.636
  559TIP3   OH2 1621   1.677   4.058   5.785
  559TIP3    H1 1622   1.585   4.035   5.774
  559TIP3    H2 1623   1.676   4.137   5.839
  560TIP3   OH2 1624   3.789   6.208   2.942
  560TIP3    H1 1625   3.799   6.302   2.925
  560TIP3    H2 1626   3.704   6.200   2.985
  561TIP3   OH2 1627   2.388   7.806   5.136
  561TIP3    H1 1628   2.353   7.830   5.050
  561TIP3    H2 1629   2.473   7.850   5.140
  562TIP3   OH2 1630   6.078   1.208   5.072
  562TIP3    H1 1631   6.064   1.296   5.038
  562TIP3    H2 1632   6.168   1.208   5.103
  563TIP3   OH2 1633   4.563   2.480   1.053
  563TIP3    H1 1634   4.570   2.553   1.114
  563TIP3    H2 1635   4.634   2.420   1.077
  564TIP3   OH2 1636   6.125   0.929   0.175
  564TIP3    H1 1637   6.070   0.935   0.097
  564TIP3    H2 1638   6.213   0.955   0.145
  565TIP3   OH2 1639   6.448   0.551   5.986
  565TIP3    H1 1640   6.453   0.584   6.075
  565TIP3    H2 1641   6.495   0.615   5.933
  566TIP3   OH2 1642   8.015   5.780   1.189
  566TIP3    H1 1643   7.954   5.850   1.213
  566TIP3    H2 1644   8.024   5.727   1.268
  567TIP3   OH2 1645   3.869   4.783   3.673
  567TIP3    H1 1646   3.838   4.845   3.607
  567TIP3    H2 1647   3.956   4.814   3.697
  568TIP3   OH2 1648   5.089   6.781   4.960
  568TIP3    H1 1649   5.003   6.796   5.001
  568TIP3    H2 1650   5.151   6.791   5.031
  569TIP3   OH2 1651   6.981   2.862   2.020
  569TIP3    H1 1652   6.972   2.780   2.069
  569TIP3    H2 1653   7.062   2.900   2.051
  570TIP3   OH2 1654   2.903   0.825   2.907
  570TIP3    H1 1655   2.961   0.900   2.922
  570TIP3    H2 1656   2.857   0.847   2.826
  571TIP3   OH2 1657   4.820   3.447   1.707
  571TIP3    H1 1658   4.771   3.492   1.638
  571TIP3    H2 1659   4.912   3.460   1.683
  572TIP3   OH2 1660   6.894   0.462   4.973
  572TIP3    H1 1661   6.876   0.491   4.883
  572TIP3    H2 1662   6.910   0.368   4.964
  573TIP3   OH2 1663   4.637   0.203   1.558
  573TIP3    H1 1664   4.675   0.289   1.578
  573TIP3    H2 1665   4.602   0.174   1.642
  574TIP3   OH2 1666   6.659   4.355   2.384
  574TIP3    H1 1667   6.741   4.309   2.401
  574TIP3    H2 1668   6.682   4.447   2.387
  575TIP3   OH2 1669   4.340   6.587   0.658
  575TIP3    H1 1670   4.324   6.626   0.744
  575TIP3    H2 1671   4.297   6.646   0.596
  576TIP3   OH2 1672   7.867   5.604   0.316
  576TIP3    H1 1673   7.787   5.654   0.307
  576TIP3    H2 1674   7.844   5.516   0.286
  577TIP3   OH2 1675   4.803  -0.027   1.535
  577TIP3    H1 1676   4.761   0.058   1.525
  577TIP3    H2 1677   4.881  -0.010   1.588
  578TIP3   OH2 1678   2.254   2.395   4.107
  578TIP3    H1 1679   2.294   2.340   4.039
  578TIP3    H2 1680   2.166   2.413   4.073
  579TIP3   OH2 1681   0.310   6.622   1.886
  579TIP3    H1 1682   0.388   6.669   1.856
  579TIP3    H2 1683   0.237   6.667   1.843
  580TIP3   OH2 1684   3.943   3.820   4.173
  580TIP3    H1 1685   3.963   3.731   4.144
  580TIP3    H2 1686   3.867   3.845   4.121
  581TIP3   OH2 1687   8.247   2.247   5.071
  581TIP3    H1 1688   8.292   2.167   5.045
  581TIP3    H2 1689   8.318   2.311   5.084
  582TIP3   OH2 1690   7.537   0.786   1.433
  582TIP3    H1 1691   7.578   0.872   1.441
  582TIP3    H2 1692   7.511   0.763   1.522
  583TIP3   OH2 1693   5.023   3.933   0.388
  583TIP3    H1 1694   5.058   4.015   0.423
  583TIP3    H2 1695   5.033   3.870   0.460
  584TIP3   OH2 1696   3.018   5.331   0.345
  584TIP3    H1 1697   3.033   5.264   0.411
  584TIP3    H2 1698   3.096   5.327   0.289
  585TIP3   OH2 1699   1.741   3.534   4.371
  585TIP3    H1 1700   1.699   3.573   4.448
  585TIP3    H2 1701   1.678   3.468   4.340
  586TIP3   OH2 1702   7.214   7.061   4.507
  586TIP3    H1 1703   7.180   7.144   4.539
  586TIP3    H2 1704   7.170   7.047   4.424
  587TIP3   OH2 1705   0.349   3.256   5.855
  587TIP3    H1 1706   0.379   3.168   5.833
  587TIP3    H2 1707   0.301   3.245   5.937
  588TIP3   OH2 1708   1.365   5.197   3.414
  588TIP3    H1 1709   1.448   5.152   3.397
  588TIP3    H2 1710   1.313   5.135   3.465
  589TIP3   OH2 1711   7.354   4.212   5.390
  589TIP3    H1 1712   7.428   4.167   5.432
  589TIP3    H2 1713   7.337   4.287   5.447
  590TIP3   OH2 1714   5.211   3.632   4.325
  590TIP3    H1 1715   5.250   3.559   4.278
  590TIP3    H2 1716   5.133   3.654   4.275
  591TIP3   OH2 1717   1.661   1.648   2.249
  591TIP3    H1 1718   1.697   1.680   2.166
  591TIP3    H2 1719   1.684   1.716   2.312
  592TIP3   OH2 1720   0.481   3.375   6.714
  592TIP3    H1 1721   0.439   3.443   6.767
  592TIP3    H2 1722   0.527   3.424   6.645
  593TIP3   OH2 1723   4.287   4.706   6.011
  593TIP3    H1 1724   4.272   4.722   6.104
  593TIP3    H2 1725   4.217   4.754   5.966
  594TIP3   OH2 1726   0.867   6.073   2.064
  594TIP3    H1 1727   0.903   5.996   2.108
  594TIP3    H2 1728   0.805   6.039   2.001
  595TIP3   OH2 1729   8.335   6.445   0.229
  595TIP3    H1 1730   8.373   6.533   0.237
  595TIP3    H2 1731   8.241   6.460   0.223
  596TIP3   OH2 1732   3.504   2.202   3.191
  596TIP3    H1 1733   3.463   2.210   3.105
  596TIP3    H2 1734   3.598   2.212   3.173
  597TIP3   OH2 1735   5.164   4.254   3.083
  597TIP3    H1 1736   5.077   4.237   3.047
  597TIP3    H2 1737   5.211   4.172   3.073
  598TIP3   OH2 1738   1.344   3.059   5.901
  598TIP3    H1 1739   1.426   3.104   5.925
  598TIP3    H2 1740   1.351   2.974   5.944
  599TIP3   OH2 1741   4.012   1.885   0.729
  599TIP3    H1 1742   3.951   1.880   0.802
  599TIP3    H2 1743   4.081   1.822   0.751
  600TIP3   OH2 1744   4.572   7.864   2.211
  600TIP3    H1 1745   4.633   7.807   2.259
  600TIP3    H2 1746   4.500   7.806   2.186
  601TIP3   OH2 1747   0.258   4.002   0.009
  601TIP3    H1 1748   0.256   4.055   0.089
  601TIP3    H2 1749   0.240   3.913   0.038
  602TIP3   OH2 1750   0.055   1.823   3.758
  602TIP3    H1 1751  -0.035   1.791   3.748
  602TIP3    H2 1752   0.049   1.917   3.743
  603TIP3   OH2 1753   6.489   5.255   3.993
  603TIP3    H1 1754   6.410   5.221   3.950
  603TIP3    H2 1755   6.561   5.225   3.938
  604TIP3   OH2 1756   4.040   0.207   4.826
  604TIP3    H1 1757   4.005   0.214   4.915
  604TIP3    H2 1758   4.124   0.253   4.830
  605TIP3   OH2 1759   0.550   2.069   0.252
  605TIP3    H1 1760   0.520   2.001   0.191
  605TIP3    H2 1761   0.589   2.021   0.325
  606TIP3   OH2 1762   4.798   4.862   0.276
  606TIP3    H1 1763   4.798   4.949   0.236
  606TIP3    H2 1764   4.890   4.839   0.284
  607TIP3   OH2 1765   1.391   1.747   5.845
  607TIP3    H1 1766   1.373   1.742   5.751
  607TIP3    H2 1767   1.364   1.663   5.880
  608TIP3   OH2 1768   6.917   3.939   1.990
  608TIP3    H1 1769   6.877   4.025   1.984
  608TIP3    H2 1770   7.011   3.955   1.987
  609TIP3   OH2 1771   3.041   7.719   2.291
  609TIP3    H1 1772   2.984   7.766   2.352
  609TIP3    H2 1773   3.021   7.758   2.206
  610TIP3   OH2 1774   7.300   2.066   4.736
  610TIP3    H1 1775   7.380   2.044   4.784
  610TIP3    H2 1776   7.232   2.073   4.803
  611TIP3   OH2 1777   8.177   2.483   0.585
  611TIP3    H1 1778   8.191   2.510   0.494
  611TIP3    H2 1779   8.088   2.448   0.587
  612TIP3   OH2 1780   3.065   3.173   5.568
  612TIP3    H1 1781   2.977   3.207   5.548
  612TIP3    H2 1782   3.061   3.081   5.541
  613TIP3   OH2 1783   6.730   7.421   3.631
  613TIP3    H1 1784   6.732   7.327   3.610
  613TIP3    H2 1785   6.821   7.446   3.640
  614TIP3   OH2 1786   7.093   4.960   1.501
  614TIP3    H1 1787   7.059   5.001   1.581
  614TIP3    H2 1788   7.111   4.870   1.526
  615TIP3   OH2 1789   1.042   7.538   3.893
  615TIP3    H1 1790   1.000   7.463   3.852
  615TIP3    H2 1791   1.125   7.546   3.846
  616TIP3   OH2 1792   3.261   3.083   6.159
  616TIP3    H1 1793   3.230   3.029   6.085
  616TIP3    H2 1794   3.211   3.050   6.234
  617TIP3   OH2 1795   6.291   3.063   3.263
  617TIP3    H1 1796   6.233   3.021   3.199
  617TIP3    H2 1797   6.372   3.013   3.259
  618TIP3   OH2 1798   0.532   0.630   4.770
  618TIP3    H1 1799   0.600   0.590   4.716
  618TIP3    H2 1800   0.479   0.557   4.801
  619TIP3   OH2 1801   4.230   4.882   1.286
  619TIP3    H1 1802   4.240   4.941   1.360
  619TIP3    H2 1803   4.164   4.818   1.315
  620TIP3   OH2 1804   6.468   6.639   2.744
  620TIP3    H1 1805   6.379   6.607   2.763
  620TIP3    H2 1806   6.512   6.638   2.829
  621TIP3   OH2 1807   4.876   5.308   4.545
  621TIP3    H1 1808   4.893   5.309   4.639
  621TIP3    H2 1809   4.857   5.400   4.524
  622TIP3   OH2 1810   0.892   4.662   2.097
  622TIP3    H1 1811   0.911   4.585   2.150
  622TIP3    H2 1812   0.797   4.672   2.102
  623TIP3   OH2 1813   5.665   3.707   0.184
  623TIP3    H1 1814   5.581   3.725   0.142
  623TIP3    H2 1815   5.649   3.723   0.277
  624TIP3   OH2 1816   4.659   3.098   0.672
  624TIP3    H1 1817   4.682   3.171   0.614
  624TIP3    H2 1818   4.620   3.033   0.614
  625TIP3   OH2 1819   5.730   7.452   3.420
  625TIP3    H1 1820   5.813   7.415   3.450
  625TIP3    H2 1821   5.730   7.542   3.453
  626TIP3   OH2 1822   3.477   4.217   1.814
  626TIP3    H1 1823   3.437   4.284   1.758
  626TIP3    H2 1824   3.406   4.156   1.833
  627TIP3   OH2 1825   5.949   7.592   3.855
  627TIP3    H1 1826   5.859   7.595   3.887
  627TIP3    H2 1827   5.989   7.672   3.890
  628TIP3   OH2 1828   1.399   4.251   5.565
  628TIP3    H1 1829   1.397   4.346   5.578
  628TIP3    H2 1830   1.412   4.215   5.653
  629TIP3   OH2 1831   4.097   7.614   0.261
  629TIP3    H1 1832   4.043   7.692   0.276
  629TIP3    H2 1833   4.148   7.604   0.341
  630TIP3   OH2 1834   4.787   0.804   4.501
  630TIP3    H1 1835   4.872   0.761   4.493
  630TIP3    H2 1836   4.808   0.894   4.527
  631TIP3   OH2 1837   0.790   2.279   2.601
  631TIP3    H1 1838   0.712   2.244   2.644
  631TIP3    H2 1839   0.758   2.315   2.518
  632TIP3   OH2 1840   2.297   2.254   2.016
  632TIP3    H1 1841   2.344   2.242   1.933
  632TIP3    H2 1842   2.319   2.343   2.042
  633TIP3   OH2 1843   5.912   0.845   2.503
  633TIP3    H1 1844   5.896   0.786   2.576
  633TIP3    H2 1845   5.827   0.855   2.461
  634TIP3   OH2 1846   6.799   4.330   6.764
  634TIP3    H1 1847   6.785   4.267   6.693
  634TIP3    H2 1848   6.849   4.281   6.829
  635TIP3   OH2 1849   6.788   0.565   4.251
  635TIP3    H1 1850   6.871   0.581   4.207
  635TIP3    H2 1851   6.732   0.526   4.184
  636TIP3   OH2 1852   5.188   6.031   0.742
  636TIP3    H1 1853   5.244   6.053   0.816
  636TIP3    H2 1854   5.223   6.081   0.669
  637TIP3   OH2 1855   6.113   7.719   1.211
  637TIP3    H1 1856   6.188   7.740   1.156
  637TIP3    H2 1857   6.142   7.740   1.300
  638TIP3   OH2 1858   5.467   3.218   5.136
  638TIP3    H1 1859   5.454   3.255   5.049
  638TIP3    H2 1860   5.409   3.142   5.138
  639TIP3   OH2 1861   5.705   7.648   2.059
  639TIP3    H1 1862   5.751   7.724   2.093
  639TIP3    H2 1863   5.613   7.665   2.077
  640TIP3   OH2 1864   7.447   1.921   3.118
  640TIP3    H1 1865   7.408   1.995   3.072
  640TIP3    H2 1866   7.478   1.957   3.201
  641TIP3   OH2 1867   6.220   0.568   3.783
  641TIP3    H1 1868   6.240   0.543   3.693
  641TIP3    H2 1869   6.195   0.486   3.825
  642TIP3   OH2 1870   8.216   5.814   0.116
  642TIP3    H1 1871   8.166   5.891   0.089
  642TIP3    H2 1872   8.152   5.742   0.115
  643TIP3   OH2 1873   1.468   4.849   4.464
  643TIP3    H1 1874   1.555   4.852   4.503
  643TIP3    H2 1875   1.416   4.912   4.514
  644TIP3   OH2 1876   1.347   5.082   5.633
  644TIP3    H1 1877   1.408   5.114   5.567
  644TIP3    H2 1878   1.273   5.048   5.582
  645TIP3   OH2 1879   4.496   7.252   4.479
  645TIP3    H1 1880   4.524   7.201   4.555
  645TIP3    H2 1881   4.550   7.221   4.407
  646TIP3   OH2 1882   0.127   1.289   0.601
  646TIP3    H1 1883   0.175   1.371   0.589
  646TIP3    H2 1884   0.074   1.281   0.522
  647TIP3   OH2 1885   1.142   1.766   2.548
  647TIP3    H1 1886   1.144   1.694   2.484
  647TIP3    H2 1887   1.231   1.802   2.545
  648TIP3   OH2 1888   8.015   5.147   5.815
  648TIP3    H1 1889   8.075   5.222   5.815
  648TIP3    H2 1890   8.034   5.102   5.898
  649TIP3   OH2 1891   3.394   1.044   4.573
  649TIP3    H1 1892   3.393   0.975   4.507
  649TIP3    H2 1893   3.484   1.044   4.606
  650TIP3   OH2 1894   3.048   7.016   0.319
  650TIP3    H1 1895   3.079   7.087   0.263
  650TIP3    H2 1896   3.023   6.946   0.258
  651TIP3   OH2 1897   5.854   3.574   4.504
  651TIP3    H1 1898   5.928   3.629   4.530
  651TIP3    H2 1899   5.850   3.582   4.409
  652TIP3   OH2 1900   5.444   5.918   4.765
  652TIP3    H1 1901   5.405   5.866   4.695
  652TIP3    H2 1902   5.421   5.872   4.846
  653TIP3   OH2 1903   0.527   0.122   5.825
  653TIP3    H1 1904   0.515   0.139   5.918
  653TIP3    H2 1905   0.503   0.204   5.782
  654TIP3   OH2 1906   4.888   3.069   0.226
  654TIP3    H1 1907   4.828   3.095   0.156
  654TIP3    H2 1908   4.958   3.135   0.222
  655TIP3   OH2 1909   6.940   7.095   1.956
  655TIP3    H1 1910   6.970   7.113   1.867
  655TIP3    H2 1911   6.963   7.174   2.005
  656TIP3   OH2 1912   2.636   7.390   5.841
  656TIP3    H1 1913   2.589   7.437   5.773
  656TIP3    H2 1914   2.568   7.357   5.899
  657TIP3   OH2 1915   6.923   3.175   1.049
  657TIP3    H1 1916   6.973   3.167   1.130
  657TIP3    H2 1917   6.931   3.089   1.008
  658TIP3   OH2 1918   0.504   4.368   6.496
  658TIP3    H1 1919   0.490   4.287   6.447
  658TIP3    H2 1920   0.599   4.371   6.510
  659TIP3   OH2 1921   0.363   4.235   0.815
  659TIP3    H1 1922   0.310   4.315   0.818
  659TIP3    H2 1923   0.387   4.219   0.906
  660TIP3   OH2 1924   8.041   7.580   4.510
  660TIP3    H1 1925   8.096   7.514   4.467
  660TIP3    H2 1926   8.065   7.663   4.468
  661TIP3   OH2 1927   7.718   5.055   5.101
  661TIP3    H1 1928   7.624   5.075   5.099
  661TIP3    H2 1929   7.761   5.140   5.110
  662TIP3   OH2 1930   1.732   2.462   3.799
  662TIP3    H1 1931   1.692   2.437   3.716
  662TIP3    H2 1932   1.659   2.468   3.860
  663TIP3   OH2 1933   1.975   4.267   4.450
  663TIP3    H1 1934   1.956   4.310   4.367
  663TIP3    H2 1935   1.890   4.261   4.494
  664TIP3   OH2 1936   4.111   5.983   2.007
  664TIP3    H1 1937   4.190   6.003   2.058
  664TIP3    H2 1938   4.043   6.037   2.046
  665TIP3   OH2 1939   7.493   5.114   6.776
  665TIP3    H1 1940   7.428   5.081   6.714
  665TIP3    H2 1941   7.525   5.195   6.736
  666TIP3   OH2 1942   6.645   7.599   4.244
  666TIP3    H1 1943   6.673   7.569   4.330
  666TIP3    H2 1944   6.665   7.692   4.243
  667TIP3   OH2 1945   0.536   5.075   0.703
  667TIP3    H1 1946   0.545   5.069   0.799
  667TIP3    H2 1947   0.618   5.040   0.669
  668TIP3   OH2 1948   4.660   6.742   0.168
  668TIP3    H1 1949   4.688   6.737   0.077
  668TIP3    H2 1950   4.628   6.832   0.178
  669TIP3   OH2 1951   4.039   3.618   3.343
  669TIP3    H1 1952   4.086   3.652   3.419
  669TIP3    H2 1953   4.005   3.696   3.300
  670TIP3   OH2 1954   3.113   1.553   4.136
  670TIP3    H1 1955   3.112   1.472   4.187
  670TIP3    H2 1956   3.160   1.616   4.192
  671TIP3   OH2 1957   1.940   0.450   0.972
  671TIP3    H1 1958   2.014   0.511   0.967
  671TIP3    H2 1959   1.911   0.439   0.882
  672TIP3   OH2 1960   5.088   1.322   2.788
  672TIP3    H1 1961   5.134   1.366   2.717
  672TIP3    H2 1962   5.115   1.231   2.782
  673TIP3   OH2 1963   6.223   4.270   3.219
  673TIP3    H1 1964   6.199   4.330   3.289
  673TIP3    H2 1965   6.188   4.310   3.140
  674TIP3   OH2 1966   6.100   3.124   2.520
  674TIP3    H1 1967   6.006   3.120   2.504
  674TIP3    H2 1968   6.139   3.144   2.435
  675TIP3   OH2 1969   7.902   5.463   1.108
  675TIP3    H1 1970   7.925   5.443   1.017
  675TIP3    H2 1971   7.967   5.416   1.160
  676TIP3   OH2 1972   6.326   6.081   5.420
  676TIP3    H1 1973   6.231   6.070   5.424
  676TIP3    H2 1974   6.340   6.176   5.421
  677TIP3   OH2 1975   5.567   5.380   5.353
  677TIP3    H1 1976   5.529   5.468   5.355
  677TIP3    H2 1977   5.655   5.391   5.389
  678TIP3   OH2 1978   6.440   3.515   4.724
  678TIP3    H1 1979   6.444   3.577   4.797
  678TIP3    H2 1980   6.352   3.479   4.728
  679TIP3   OH2 1981   3.367   2.737   0.386
  679TIP3    H1 1982   3.383   2.783   0.304
  679TIP3    H2 1983   3.272   2.745   0.400
  680TIP3   OH2 1984   7.615   6.043   3.008
  680TIP3    H1 1985   7.680   5.973   3.005
  680TIP3    H2 1986   7.543   6.006   3.060
  681TIP3   OH2 1987   2.825   4.279   2.001
  681TIP3    H1 1988   2.902   4.257   1.949
  681TIP3    H2 1989   2.830   4.223   2.078
  682TIP3   OH2 1990   7.409   0.772   0.742
  682TIP3    H1 1991   7.375   0.697   0.693
  682TIP3    H2 1992   7.423   0.738   0.830
  683TIP3   OH2 1993   1.312   5.783   2.805
  683TIP3    H1 1994   1.326   5.739   2.888
  683TIP3    H2 1995   1.282   5.871   2.828
  684TIP3   OH2 1996   3.890   0.124   4.066
  684TIP3    H1 1997   3.886   0.178   4.145
  684TIP3    H2 1998   3.844   0.044   4.089
  685TIP3   OH2 1999   3.187   2.773   3.490
  685TIP3    H1 2000   3.181   2.737   3.578
  685TIP3    H2 2001   3.156   2.702   3.433
  686TIP3   OH2 2002   3.642   5.829   0.182
  686TIP3    H1 2003   3.674   5.862   0.266
  686TIP3    H2 2004   3.624   5.737   0.197
  687TIP3   OH2 2005   4.914   5.039   4.084
  687TIP3    H1 2006   4.906   5.093   4.005
  687TIP3    H2 2007   4.835   5.058   4.134
  688TIP3   OH2 2008   3.491   6.206   1.207
  688TIP3    H1 2009   3.428   6.225   1.277
  688TIP3    H2 2010   3.537   6.128   1.238
  689TIP3   OH2 2011   5.818   3.668   1.259
  689TIP3    H1 2012   5.763   3.729   1.209
  689TIP3    H2 2013   5.761   3.639   1.330
  690TIP3   OH2 2014   6.050   6.120   5.487
  690TIP3    H1 2015   6.066   6.130   5.581
  690TIP3    H2 2016   5.956   6.138   5.477
  691TIP3   OH2 2017   6.739   3.173   3.701
  691TIP3    H1 2018   6.764   3.262   3.726
  691TIP3    H2 2019   6.654   3.182   3.659
  692TIP3   OH2 2020   4.198   4.647   1.702
  692TIP3    H1 2021   4.143   4.638   1.624
  692TIP3    H2 2022   4.203   4.741   1.717
  693TIP3   OH2 2023   4.014   4.932   6.253
  693TIP3    H1 2024   4.076   4.928   6.180
  693TIP3    H2 2025   3.946   4.992   6.223
  694TIP3   OH2 2026   5.965   1.298   1.000
  694TIP3    H1 2027   5.996   1.371   0.946
  694TIP3    H2 2028   5.989   1.220   0.950
  695TIP3   OH2 2029   3.167   3.888   5.441
  695TIP3    H1 2030   3.111   3.871   5.517
  695TIP3    H2 2031   3.167   3.805   5.393
  696TIP3   OH2 2032   3.122   5.702   5.170
  696TIP3    H1 2033   3.186   5.633   5.188
  696TIP3    H2 2034   3.045   5.656   5.136
  697TIP3   OH2 2035   2.018   3.974   2.663
  697TIP3    H1 2036   2.053   4.014   2.743
  697TIP3    H2 2037   1.949   3.915   2.694
  698TIP3   OH2 2038   6.131   7.186   3.753
  698TIP3    H1 2039   6.083   7.234   3.820
  698TIP3    H2 2040   6.077   7.109   3.735
  699TIP3   OH2 2041   4.366   4.241   6.502
  699TIP3    H1 2042   4.385   4.240   6.596
  699TIP3    H2 2043   4.317   4.322   6.488
  700TIP3   OH2 2044   0.919   6.242   1.846
  700TIP3    H1 2045   0.949   6.204   1.928
  700TIP3    H2 2046   0.923   6.169   1.783
  701TIP3   OH2 2047   1.020   7.744   6.607
  701TIP3    H1 2048   0.934   7.744   6.564
  701TIP3    H2 2049   1.041   7.837   6.617
  702TIP3   OH2 2050   7.792   5.200   4.270
  702TIP3    H1 2051   7.721   5.219   4.209
  702TIP3    H2 2052   7.839   5.283   4.279
  703TIP3   OH2 2053   0.562   3.155   4.392
  703TIP3    H1 2054   0.517   3.216   4.450
  703TIP3    H2 2055   0.516   3.072   4.405
  704TIP3   OH2 2056   3.157   6.740   5.938
  704TIP3    H1 2057   3.078   6.715   5.890
  704TIP3    H2 2058   3.213   6.782   5.872
  705TIP3   OH2 2059   7.010   5.044   6.633
  705TIP3    H1 2060   6.956   4.978   6.589
  705TIP3    H2 2061   6.975   5.128   6.603
  706TIP3   OH2 2062   6.279   5.165   3.392
  706TIP3    H1 2063   6.228   5.088   3.368
  706TIP3    H2 2064   6.356   5.131   3.437
  707TIP3   OH2 2065   3.431   1.051   5.404
  707TIP3    H1 2066   3.525   1.035   5.395
  707TIP3    H2 2067   3.413   1.038   5.497
  708TIP3   OH2 2068   6.474   1.352   5.063
  708TIP3    H1 2069   6.447   1.444   5.071
  708TIP3    H2 2070   6.466   1.318   5.153
  709TIP3   OH2 2071   5.627   3.583   2.853
  709TIP3    H1 2072   5.641   3.594   2.947
  709TIP3    H2 2073   5.709   3.546   2.821
  710TIP3   OH2 2074   1.146   4.073   3.980
  710TIP3    H1 2075   1.234   4.111   3.983
  710TIP3    H2 2076   1.154   3.998   3.921
  711TIP3   OH2 2077   5.795   5.889   5.180
  711TIP3    H1 2078   5.777   5.886   5.086
  711TIP3    H2 2079   5.807   5.798   5.205
  712TIP3   OH2 2080   2.353   2.542   4.586
  712TIP3    H1 2081   2.326   2.498   4.506
  712TIP3    H2 2082   2.286   2.609   4.600
  713TIP3   OH2 2083   7.446   4.538   3.109
  713TIP3    H1 2084   7.531   4.560   3.072
  713TIP3    H2 2085   7.465   4.478   3.181
  714TIP3   OH2 2086   0.594   4.771   3.826
  714TIP3    H1 2087   0.558   4.841   3.771
  714TIP3    H2 2088   0.518   4.734   3.871
  715TIP3   OH2 2089   1.509   5.572   6.357
  715TIP3    H1 2090   1.480   5.482   6.340
  715TIP3    H2 2091   1.595   5.578   6.316
  716TIP3   OH2 2092   6.467   0.057   6.680
  716TIP3    H1 2093   6.514   0.140   6.684
  716TIP3    H2 2094   6.502   0.005   6.752
  717TIP3   OH2 2095   2.626   4.236   2.716
  717TIP3    H1 2096   2.597   4.203   2.631
  717TIP3    H2 2097   2.641   4.329   2.702
  718TIP3   OH2 2098   2.253   7.191   1.976
  718TIP3    H1 2099   2.268   7.097   1.989
  718TIP3    H2 2100   2.341   7.229   1.980
  719TIP3   OH2 2101   4.699   2.204   4.272
  719TIP3    H1 2102   4.697   2.230   4.180
  719TIP3    H2 2103   4.629   2.139   4.280
  720TIP3   OH2 2104   2.262   3.533   4.661
  720TIP3    H1 2105   2.313   3.614   4.654
  720TIP3    H2 2106   2.179   3.552   4.617
  721TIP3   OH2 2107   5.019   7.736   2.921
  721TIP3    H1 2108   4.930   7.699   2.923
  721TIP3    H2 2109   5.068   7.676   2.865
  722TIP3   OH2 2110   6.581   4.754   2.861
  722TIP3    H1 2111   6.516   4.684   2.849
  722TIP3    H2 2112   6.533   4.825   2.902
  723TIP3   OH2 2113   4.897   5.192   0.833
  723TIP3    H1 2114   4.972   5.250   0.821
  723TIP3    H2 2115   4.844   5.205   0.754
  724TIP3   OH2 2116   7.230   4.046   4.154
  724TIP3    H1 2117   7.203   4.039   4.062
  724TIP3    H2 2118   7.151   4.075   4.200
  725TIP3   OH2 2119   0.423   7.801   0.513
  725TIP3    H1 2120   0.482   7.809   0.588
  725TIP3    H2 2121   0.371   7.722   0.532
  726TIP3   OH2 2122   2.300   7.683   5.376
  726TIP3    H1 2123   2.356   7.694   5.299
  726TIP3    H2 2124   2.349   7.725   5.447
  727TIP3   OH2 2125   7.360   3.274   0.833
  727TIP3    H1 2126   7.350   3.207   0.766
  727TIP3    H2 2127   7.290   3.337   0.815
  728TIP3   OH2 2128   3.004   1.076   1.866
  728TIP3    H1 2129   2.989   0.982   1.872
  728TIP3    H2 2130   3.099   1.086   1.873
  729TIP3   OH2 2131   3.491   5.582   5.400
  729TIP3    H1 2132   3.452   5.515   5.456
  729TIP3    H2 2133   3.496   5.659   5.456
  730TIP3   OH2 2134   6.970   1.513   2.304
  730TIP3    H1 2135   7.060   1.500   2.274
  730TIP3    H2 2136   6.924   1.547   2.226
  731TIP3   OH2 2137   0.551   7.702   3.146
  731TIP3    H1 2138   0.613   7.770   3.175
  731TIP3    H2 2139   0.578   7.624   3.194
  732TIP3   OH2 2140   0.261   1.144   6.510
  732TIP3    H1 2141   0.253   1.074   6.575
  732TIP3    H2 2142   0.216   1.219   6.550
  733TIP3   OH2 2143   4.255   2.373   0.479
  733TIP3    H1 2144   4.328   2.395   0.537
  733TIP3    H2 2145   4.296   2.359   0.394
  734TIP3   OH2 2146   7.524   6.320   4.237
  734TIP3    H1 2147   7.506   6.295   4.327
  734TIP3    H2 2148   7.605   6.273   4.215
  735TIP3   OH2 2149   3.217   2.698   5.558
  735TIP3    H1 2150   3.236   2.718   5.466
  735TIP3    H2 2151   3.259   2.614   5.573
  736TIP3   OH2 2152   8.287   2.163   6.227
  736TIP3    H1 2153   8.197   2.193   6.243
  736TIP3    H2 2154   8.292   2.152   6.132
  737TIP3   OH2 2155   1.856   4.998   1.696
  737TIP3    H1 2156   1.761   4.996   1.684
  737TIP3    H2 2157   1.890   5.035   1.615
  738TIP3   OH2 2158   7.687   4.929   5.813
  738TIP3    H1 2159   7.756   4.949   5.750
  738TIP3    H2 2160   7.650   4.846   5.783
  739TIP3   OH2 2161   6.235   2.694   6.201
  739TIP3    H1 2162   6.301   2.704   6.133
  739TIP3    H2 2163   6.222   2.782   6.235
  740TIP3   OH2 2164   5.058   5.079   1.085
  740TIP3    H1 2165   5.069   5.164   1.042
  740TIP3    H2 2166   5.080   5.094   1.176
  741TIP3   OH2 2167   0.446   1.896   4.870
  741TIP3    H1 2168   0.363   1.848   4.866
  741TIP3    H2 2169   0.513   1.828   4.868
  742TIP3   OH2 2170   2.854   4.121   2.295
  742TIP3    H1 2171   2.931   4.085   2.253
  742TIP3    H2 2172   2.827   4.054   2.358
  743TIP3   OH2 2173   0.956   0.506   4.953
  743TIP3    H1 2174   0.924   0.425   4.995
  743TIP3    H2 2175   1.016   0.544   5.018
  744TIP3   OH2 2176   8.203   0.784   4.612
  744TIP3    H1 2177   8.220   0.764   4.520
  744TIP3    H2 2178   8.110   0.764   4.624
  745TIP3   OH2 2179   6.102   1.738   6.777
  745TIP3    H1 2180   6.117   1.730   6.683
  745TIP3    H2 2181   6.187   1.765   6.813
  746TIP3   OH2 2182   4.713   2.454   3.546
  746TIP3    H1 2183   4.791   2.402   3.527
  746TIP3    H2 2184   4.644   2.414   3.492
  747TIP3   OH2 2185   2.226   4.170   5.492
  747TIP3    H1 2186   2.206   4.123   5.411
  747TIP3    H2 2187   2.319   4.153   5.507
  748TIP3   OH2 2188   1.314  -0.005   1.191
  748TIP3    H1 2189   1.227  -0.044   1.179
  748TIP3    H2 2190   1.296   0.082   1.227
  749TIP3   OH2 2191   7.948   4.690   0.380
  749TIP3    H1 2192   7.871   4.644   0.345
  749TIP3    H2 2193   8.011   4.689   0.309
  750TIP3   OH2 2194   1.310   5.790   6.517
  750TIP3    H1 2195   1.262   5.841   6.452
  750TIP3    H2 2196   1.285   5.827   6.601
  751TIP3   OH2 2197   2.368   7.019   3.380
  751TIP3    H1 2198   2.454   6.978   3.382
  751TIP3    H2 2199   2.311   6.961   3.430
  752TIP3   OH2 2200   5.010   1.633   0.525
  752TIP3    H1 2201   5.074   1.561   0.530
  752TIP3    H2 2202   5.054   1.700   0.472
  753TIP3   OH2 2203   0.427   1.317   0.453
  753TIP3    H1 2204   0.391   1.392   0.499
  753TIP3    H2 2205   0.444   1.252   0.521
  754TIP3   OH2 2206   5.892   2.848   1.255
  754TIP3    H1 2207   5.811   2.798   1.247
  754TIP3    H2 2208   5.879   2.925   1.199
  755TIP3   OH2 2209   7.598   1.105   3.549
  755TIP3    H1 2210   7.687   1.141   3.548
  755TIP3    H2 2211   7.557   1.142   3.471
  756TIP3   OH2 2212   5.914   2.741   0.397
  756TIP3    H1 2213   5.927   2.692   0.316
  756TIP3    H2 2214   5.833   2.705   0.434
  757TIP3   OH2 2215   6.939   4.756   0.996
  757TIP3    H1 2216   6.893   4.752   1.079
  757TIP3    H2 2217   7.031   4.741   1.018
  758TIP3   OH2 2218   3.641   6.012   1.406
  758TIP3    H1 2219   3.699   6.083   1.434
  758TIP3    H2 2220   3.581   6.000   1.480
  759TIP3   OH2 2221   7.206   4.864   6.443
  759TIP3    H1 2222   7.166   4.821   6.519
  759TIP3    H2 2223   7.162   4.825   6.368
  760TIP3   OH2 2224   7.760   0.776   6.202
  760TIP3    H1 2225   7.748   0.740   6.115
  760TIP3    H2 2226   7.696   0.729   6.256
  761TIP3   OH2 2227   0.693   5.494   4.266
  761TIP3    H1 2228   0.657   5.410   4.293
  761TIP3    H2 2229   0.763   5.472   4.204
  762TIP3   OH2 2230   8.027   2.977   4.506
  762TIP3    H1 2231   7.979   3.009   4.582
  762TIP3    H2 2232   8.044   2.885   4.525
  763TIP3   OH2 2233   6.282   0.546   5.331
  763TIP3    H1 2234   6.308   0.456   5.312
  763TIP3    H2 2235   6.350   0.579   5.389
  764TIP3   OH2 2236   1.320   5.285   2.760
  764TIP3    H1 2237   1.258   5.273   2.832
  764TIP3    H2 2238   1.393   5.331   2.800
  765TIP3   OH2 2239   4.229   2.431   6.017
  765TIP3    H1 2240   4.274   2.514   6.001
  765TIP3    H2 2241   4.223   2.390   5.930
  766TIP3   OH2 2242   0.097   3.099   6.397
  766TIP3    H1 2243   0.067   3.184   6.365
  766TIP3    H2 2244   0.042   3.081   6.473
  767TIP3   OH2 2245   2.843   1.118   5.580
  767TIP3    H1 2246   2.751   1.124   5.551
  767TIP3    H2 2247   2.886   1.068   5.511
  768TIP3   OH2 2248   4.631   2.701   6.382
  768TIP3    H1 2249   4.708   2.758   6.374
  768TIP3    H2 2250   4.599   2.692   6.292
  769TIP3   OH2 2251   5.358   6.565   0.044
  769TIP3    H1 2252   5.338   6.650   0.084
  769TIP3    H2 2253   5.318   6.501   0.102
  770TIP3   OH2 2254   3.259   1.606   3.323
  770TIP3    H1 2255   3.232   1.547   3.394
  770TIP3    H2 2256   3.228   1.692   3.350
  771TIP3   OH2 2257   7.654   6.533   0.663
  771TIP3    H1 2258   7.664   6.548   0.757
  771TIP3    H2 2259   7.597   6.456   0.658
  772TIP3   OH2 2260   2.447   1.800   5.511
  772TIP3    H1 2261   2.470   1.888   5.542
  772TIP3    H2 2262   2.353   1.791   5.531
  773TIP3   OH2 2263   1.202   4.850   4.292
  773TIP3    H1 2264   1.174   4.768   4.334
  773TIP3    H2 2265   1.292   4.863   4.324
  774TIP3   OH2 2266   5.916   5.378   1.110
  774TIP3    H1 2267   5.984   5.444   1.127
  774TIP3    H2 2268   5.869   5.412   1.035
  775TIP3   OH2 2269   6.197   6.512   4.819
  775TIP3    H1 2270   6.161   6.506   4.907
  775TIP3    H2 2271   6.288   6.482   4.828
  776TIP3   OH2 2272   3.152   7.816   0.086
  776TIP3    H1 2273   3.062   7.823   0.119
  776TIP3    H2 2274   3.143   7.821  -0.009
  777TIP3   OH2 2275   0.388   7.489   3.061
  777TIP3    H1 2276   0.357   7.442   3.138
  777TIP3    H2 2277   0.338   7.571   3.061
  778TIP3   OH2 2278   1.367   2.747   0.845
  778TIP3    H1 2279   1.357   2.665   0.894
  778TIP3    H2 2280   1.277   2.774   0.825
  779TIP3   OH2 2281   1.827   6.877   0.803
  779TIP3    H1 2282   1.777   6.897   0.724
  779TIP3    H2 2283   1.891   6.948   0.809
  780TIP3   OH2 2284   1.813   7.272   1.889
  780TIP3    H1 2285   1.833   7.349   1.942
  780TIP3    H2 2286   1.867   7.281   1.811
  781TIP3   OH2 2287   3.641   6.104   5.712
  781TIP3    H1 2288   3.722   6.085   5.759
  781TIP3    H2 2289   3.572   6.064   5.765
  782TIP3   OH2 2290   2.031   0.722   1.267
  782TIP3    H1 2291   1.967   0.790   1.249
  782TIP3    H2 2292   2.054   0.689   1.180
  783TIP3   OH2 2293   5.529   5.292   5.842
  783TIP3    H1 2294   5.484   5.302   5.758
  783TIP3    H2 2295   5.622   5.290   5.819
  784TIP3   OH2 2296   2.622   3.731   4.289
  784TIP3    H1 2297   2.677   3.659   4.257
  784TIP3    H2 2298   2.680   3.783   4.345
  785TIP3   OH2 2299   2.786   2.342   2.089
  785TIP3    H1 2300   2.876   2.374   2.081
  785TIP3    H2 2301   2.777   2.320   2.182
  786TIP3   OH2 2302   6.860   2.782   4.207
  786TIP3    H1 2303   6.947   2.767   4.172
  786TIP3    H2 2304   6.855   2.877   4.219
  787TIP3   OH2 2305   6.519   4.838   3.273
  787TIP3    H1 2306   6.596   4.893   3.262
  787TIP3    H2 2307   6.507   4.832   3.367
  788TIP3   OH2 2308   5.881   3.097   1.152
  788TIP3    H1 2309   5.811   3.158   1.176
  788TIP3    H2 2310   5.893   3.110   1.058
  789TIP3   OH2 2311   3.833   6.967   1.037
  789TIP3    H1 2312   3.788   7.000   0.959
  789TIP3    H2 2313   3.776   6.993   1.110
  790TIP3   OH2 2314   7.628   6.799   0.638
  790TIP3    H1 2315   7.609   6.813   0.731
  790TIP3    H2 2316   7.660   6.709   0.634
  791TIP3   OH2 2317   2.840   2.141   3.537
  791TIP3    H1 2318   2.880   2.186   3.611
  791TIP3    H2 2319   2.752   2.177   3.531
  792TIP3   OH2 2320   2.811   3.218   5.509
  792TIP3    H1 2321   2.805   3.129   5.543
  792TIP3    H2 2322   2.736   3.264   5.547
  793TIP3   OH2 2323   1.248   7.133   2.179
  793TIP3    H1 2324   1.155   7.157   2.176
  793TIP3    H2 2325   1.290   7.206   2.224
  794TIP3   OH2 2326   7.765   0.472   0.835
  794TIP3    H1 2327   7.685   0.482   0.887
  794TIP3    H2 2328   7.742   0.405   0.770
  795TIP3   OH2 2329   6.116   4.032   3.250
  795TIP3    H1 2330   6.058   4.024   3.174
  795TIP3    H2 2331   6.161   4.116   3.237
  796TIP3   OH2 2332   2.163   2.246   4.603
  796TIP3    H1 2333   2.075   2.221   4.578
  796TIP3    H2 2334   2.162   2.248   4.699
  797TIP3   OH2 2335   3.593   3.942   1.031
  797TIP3    H1 2336   3.676   3.934   0.982
  797TIP3    H2 2337   3.526   3.912   0.969
  798TIP3   OH2 2338   0.527   1.081   6.404
  798TIP3    H1 2339   0.500   0.991   6.386
  798TIP3    H2 2340   0.462   1.113   6.467
  799TIP3   OH2 2341   1.254   0.461   5.603
  799TIP3    H1 2342   1.327   0.420   5.650
  799TIP3    H2 2343   1.280   0.458   5.511
  800TIP3   OH2 2344   1.382   0.647   0.663
  800TIP3    H1 2345   1.421   0.598   0.590
  800TIP3    H2 2346   1.451   0.648   0.730
  801TIP3   OH2 2347   7.326   6.378   0.037
  801TIP3    H1 2348   7.382   6.427   0.097
  801TIP3    H2 2349   7.364   6.394  -0.050
  802TIP3   OH2 2350   3.145   0.885   1.427
  802TIP3    H1 2351   3.069   0.832   1.449
  802TIP3    H2 2352   3.174   0.851   1.342
  803TIP3   OH2 2353   1.307   2.501   0.176
  803TIP3    H1 2354   1.253   2.551   0.238
  803TIP3    H2 2355   1.397   2.515   0.206
  804TIP3   OH2 2356   5.800   4.788   0.244
  804TIP3    H1 2357   5.813   4.721   0.311
  804TIP3    H2 2358   5.885   4.795   0.200
  805TIP3   OH2 2359   6.425   6.819   6.039
  805TIP3    H1 2360   6.377   6.867   6.106
  805TIP3    H2 2361   6.416   6.873   5.960
  806TIP3   OH2 2362   0.384   6.469   1.566
  806TIP3    H1 2363   0.297   6.429   1.573
  806TIP3    H2 2364   0.367   6.559   1.539
  807TIP3   OH2 2365   5.008   6.782   3.018
  807TIP3    H1 2366   5.072   6.771   3.088
  807TIP3    H2 2367   4.992   6.693   2.985
  808TIP3   OH2 2368   4.824   1.091   1.181
  808TIP3    H1 2369   4.856   1.034   1.112
  808TIP3    H2 2370   4.817   1.034   1.258
  809TIP3   OH2 2371   3.218   6.899   1.744
  809TIP3    H1 2372   3.309   6.876   1.761
  809TIP3    H2 2373   3.194   6.953   1.819
  810TIP3   OH2 2374   6.653   5.914   3.104
  810TIP3    H1 2375   6.646   5.827   3.064
  810TIP3    H2 2376   6.580   5.963   3.065
  811TIP3   OH2 2377   6.763   2.278   5.532
  811TIP3    H1 2378   6.702   2.298   5.603
  811TIP3    H2 2379   6.821   2.355   5.529
  812TIP3   OH2 2380   4.223   1.522   1.649
  812TIP3    H1 2381   4.268   1.487   1.726
  812TIP3    H2 2382   4.266   1.480   1.574
  813TIP3   OH2 2383   1.701   4.998   2.281
  813TIP3    H1 2384   1.692   4.929   2.347
  813TIP3    H2 2385   1.652   5.072   2.317
  814TIP3   OH2 2386   3.085   1.888   6.334
  814TIP3    H1 2387   3.117   1.799   6.350
  814TIP3    H2 2388   3.148   1.945   6.378
  815TIP3   OH2 2389   7.727   5.796   4.415
  815TIP3    H1 2390   7.768   5.716   4.448
  815TIP3    H2 2391   7.793   5.864   4.428
  816TIP3   OH2 2392   2.981   3.368   4.661
  816TIP3    H1 2393   3.019   3.366   4.573
  816TIP3    H2 2394   2.902   3.315   4.654
  817TIP3   OH2 2395   3.605   7.118   5.861
  817TIP3    H1 2396   3.573   7.194   5.909
  817TIP3    H2 2397   3.630   7.056   5.929
  818TIP3   OH2 2398   5.826   3.124   2.474
  818TIP3    H1 2399   5.798   3.033   2.466
  818TIP3    H2 2400   5.786   3.169   2.399
  819TIP3   OH2 2401   0.954   7.376   6.649
  819TIP3    H1 2402   0.903   7.414   6.577
  819TIP3    H2 2403   0.890   7.333   6.704
  820TIP3   OH2 2404   7.109   5.845   3.978
  820TIP3    H1 2405   7.054   5.818   4.051
  820TIP3    H2 2406   7.048   5.856   3.905
  821TIP3   OH2 2407   3.927   0.425   1.251
  821TIP3    H1 2408   3.928   0.330   1.238
  821TIP3    H2 2409   3.897   0.436   1.340
  822TIP3   OH2 2410   4.784   7.231   2.920
  822TIP3    H1 2411   4.872   7.193   2.922
  822TIP3    H2 2412   4.727   7.158   2.896
  823TIP3   OH2 2413   7.801   7.363   2.384
  823TIP3    H1 2414   7.739   7.401   2.446
  823TIP3    H2 2415   7.882   7.354   2.433
  824TIP3   OH2 2416   4.309   0.916   4.478
  824TIP3    H1 2417   4.260   0.982   4.527
  824TIP3    H2 2418   4.380   0.963   4.436
  825TIP3   OH2 2419   4.824   1.631   4.804
  825TIP3    H1 2420   4.812   1.640   4.710
  825TIP3    H2 2421   4.879   1.553   4.814
  826TIP3   OH2 2422   7.162   2.066   2.289
  826TIP3    H1 2423   7.222   2.095   2.220
  826TIP3    H2 2424   7.196   2.105   2.369
  827TIP3   OH2 2425   3.768   6.844   3.249
  827TIP3    H1 2426   3.755   6.848   3.343
  827TIP3    H2 2427   3.782   6.935   3.223
  828TIP3   OH2 2428   3.003   5.815   0.271
  828TIP3    H1 2429   2.971   5.832   0.183
  828TIP3    H2 2430   3.088   5.860   0.275
  829TIP3   OH2 2431   2.487   4.598   4.416
  829TIP3    H1 2432   2.448   4.579   4.501
  829TIP3    H2 2433   2.449   4.683   4.391
  830TIP3   OH2 2434   5.401   7.750   1.471
  830TIP3    H1 2435   5.424   7.843   1.468
  830TIP3    H2 2436   5.370   7.736   1.561
  831TIP3   OH2 2437   4.287   4.053   0.023
  831TIP3    H1 2438   4.229   4.126   0.002
  831TIP3    H2 2439   4.246   4.012   0.099
  832TIP3   OH2 2440   1.486   1.325   2.382
  832TIP3    H1 2441   1.399   1.308   2.418
  832TIP3    H2 2442   1.534   1.367   2.454
  833TIP3   OH2 2443   2.976   3.056   4.029
  833TIP3    H1 2444   3.062   3.076   4.067
  833TIP3    H2 2445   2.990   2.976   3.979
  834TIP3   OH2 2446   5.312   6.964   2.759
  834TIP3    H1 2447   5.349   7.051   2.743
  834TIP3    H2 2448   5.218   6.980   2.771
  835TIP3   OH2 2449   5.492   0.412   5.549
  835TIP3    H1 2450   5.547   0.343   5.584
  835TIP3    H2 2451   5.526   0.429   5.461
  836TIP3   OH2 2452   8.266   3.322   6.319
  836TIP3    H1 2453   8.285   3.414   6.300
  836TIP3    H2 2454   8.180   3.307   6.280
  837TIP3   OH2 2455   4.097   3.605   6.530
  837TIP3    H1 2456   4.189   3.613   6.506
  837TIP3    H2 2457   4.089   3.518   6.569
  838TIP3   OH2 2458   4.993   2.590   1.505
  838TIP3    H1 2459   5.080   2.596   1.545
  838TIP3    H2 2460   4.969   2.498   1.512
  839TIP3   OH2 2461   3.527   1.983   0.226
  839TIP3    H1 2462   3.446   1.935   0.207
  839TIP3    H2 2463   3.541   2.038   0.149
  840TIP3   OH2 2464   1.342   7.292   4.764
  840TIP3    H1 2465   1.261   7.251   4.796
  840TIP3    H2 2466   1.313   7.374   4.724
  841TIP3   OH2 2467   0.473   2.140   6.123
  841TIP3    H1 2468   0.471   2.046   6.107
  841TIP3    H2 2469   0.460   2.149   6.218
  842TIP3   OH2 2470   6.886   2.353   1.281
  842TIP3    H1 2471   6.982   2.350   1.274
  842TIP3    H2 2472   6.856   2.372   1.192
  843TIP3   OH2 2473   1.393   4.667   0.918
  843TIP3    H1 2474   1.485   4.661   0.943
  843TIP3    H2 2475   1.355   4.732   0.977
  844TIP3   OH2 2476   3.666   4.594   4.794
  844TIP3    H1 2477   3.598   4.641   4.842
  844TIP3    H2 2478   3.744   4.648   4.803
  845TIP3   OH2 2479   3.828   1.723   4.670
  845TIP3    H1 2480   3.784   1.763   4.744
  845TIP3    H2 2481   3.781   1.756   4.593
  846TIP3   OH2 2482   1.796   6.724   3.227
  846TIP3    H1 2483   1.777   6.664   3.299
  846TIP3    H2 2484   1.719   6.719   3.171
  847TIP3   OH2 2485   7.823   5.266   3.102
  847TIP3    H1 2486   7.844   5.172   3.102
  847TIP3    H2 2487   7.862   5.299   3.183
  848TIP3   OH2 2488   4.798   0.801   4.958
  848TIP3    H1 2489   4.826   0.721   5.002
  848TIP3    H2 2490   4.859   0.868   4.987
  849TIP3   OH2 2491   7.034   1.781   5.760
  849TIP3    H1 2492   7.078   1.783   5.675
  849TIP3    H2 2493   6.981   1.701   5.758
  850TIP3   OH2 2494   5.593   5.278   0.207
  850TIP3    H1 2495   5.551   5.280   0.121
  850TIP3    H2 2496   5.586   5.187   0.234
  851TIP3   OH2 2497   6.522   0.980   6.032
  851TIP3    H1 2498   6.594   0.918   6.047
  851TIP3    H2 2499   6.546   1.058   6.081
  852TIP3   OH2 2500   4.535   5.240   3.685
  852TIP3    H1 2501   4.579   5.194   3.613
  852TIP3    H2 2502   4.583   5.213   3.763
  853TIP3   OH2 2503   7.533   5.493   0.083
  853TIP3    H1 2504   7.479   5.504   0.004
  853TIP3    H2 2505   7.486   5.542   0.150
  854TIP3   OH2 2506   2.585  -0.036   4.016
  854TIP3    H1 2507   2.649   0.034   4.020
  854TIP3    H2 2508   2.566  -0.045   3.922
  855TIP3   OH2 2509   6.352   5.538   3.633
  855TIP3    H1 2510   6.322   5.525   3.723
  855TIP3    H2 2511   6.273   5.525   3.579
  856TIP3   OH2 2512   3.482   3.902   5.521
  856TIP3    H1 2513   3.406   3.870   5.473
  856TIP3    H2 2514   3.511   3.828   5.574
  857TIP3   OH2 2515   2.071   1.955   3.885
  857TIP3    H1 2516   2.128   1.910   3.823
  857TIP3    H2 2517   2.072   2.046   3.857
  858TIP3   OH2 2518   1.019   6.313   5.480
  858TIP3    H1 2519   1.054   6.228   5.451
  858TIP3    H2 2520   1.087   6.376   5.455
  859TIP3   OH2 2521   4.330   7.560   3.967
  859TIP3    H1 2522   4.299   7.606   3.889
  859TIP3    H2 2523   4.259   7.571   4.031
  860TIP3   OH2 2524   3.184   4.562   4.407
  860TIP3    H1 2525   3.149   4.603   4.328
  860TIP3    H2 2526   3.149   4.615   4.478
  861TIP3   OH2 2527   4.139   6.029   5.794
  861TIP3    H1 2528   4.095   6.104   5.755
  861TIP3    H2 2529   4.173   6.062   5.878
  862TIP3   OH2 2530   0.391   5.731   4.704
  862TIP3    H1 2531   0.328   5.698   4.640
  862TIP3    H2 2532   0.375   5.825   4.707
  863TIP3   OH2 2533   4.260   2.326   1.265
  863TIP3    H1 2534   4.167   2.304   1.255
  863TIP3    H2 2535   4.281   2.303   1.356
  864TIP3   OH2 2536   0.654   4.262   6.102
  864TIP3    H1 2537   0.615   4.209   6.032
  864TIP3    H2 2538   0.666   4.348   6.063
  865TIP3   OH2 2539   3.526   0.393   5.694
  865TIP3    H1 2540   3.468   0.445   5.637
  865TIP3    H2 2541   3.611   0.397   5.651
  866TIP3   OH2 2542   3.222   7.756   3.155
  866TIP3    H1 2543   3.273   7.701   3.096
  866TIP3    H2 2544   3.168   7.810   3.097
  867TIP3   OH2 2545   1.223   1.284   2.453
  867TIP3    H1 2546   1.219   1.313   2.544
  867TIP3    H2 2547   1.174   1.202   2.452
  868TIP3   OH2 2548   3.806   6.650   6.065
  868TIP3    H1 2549   3.847   6.700   6.136
  868TIP3    H2 2550   3.863   6.575   6.052
  869TIP3   OH2 2551   1.396   5.134   5.341
  869TIP3    H1 2552   1.389   5.044   5.372
  869TIP3    H2 2553   1.306   5.158   5.319
  870TIP3   OH2 2554   4.794   5.829   1.978
  870TIP3    H1 2555   4.717   5.880   1.953
  870TIP3    H2 2556   4.831   5.800   1.895
  871TIP3   OH2 2557   2.429   1.707   2.893
  871TIP3    H1 2558   2.374   1.742   2.964
  871TIP3    H2 2559   2.366   1.674   2.828
  872TIP3   OH2 2560   2.439   3.463   3.881
  872TIP3    H1 2561   2.346   3.446   3.866
  872TIP3    H2 2562   2.446   3.479   3.975
  873TIP3   OH2 2563   6.644   4.676   5.189
  873TIP3    H1 2564   6.662   4.664   5.095
  873TIP3    H2 2565   6.608   4.592   5.217
  874TIP3   OH2 2566   1.433   6.786   5.833
  874TIP3    H1 2567   1.469   6.830   5.756
  874TIP3    H2 2568   1.380   6.715   5.798
  875TIP3   OH2 2569   4.568   7.417   3.914
  875TIP3    H1 2570   4.544   7.331   3.880
  875TIP3    H2 2571   4.485   7.464   3.923
  876TIP3   OH2 2572   3.430   6.271   3.545
  876TIP3    H1 2573   3.513   6.317   3.562
  876TIP3    H2 2574   3.387   6.268   3.631
  877TIP3   OH2 2575   4.638   7.541   5.844
  877TIP3    H1 2576   4.689   7.462   5.860
  877TIP3    H2 2577   4.549   7.518   5.869
  878TIP3   OH2 2578   3.520   3.194   3.667
  878TIP3    H1 2579   3.586   3.221   3.730
  878TIP3    H2 2580   3.521   3.263   3.600
  879TIP3   OH2 2581   5.216   1.129   1.509
  879TIP3    H1 2582   5.128   1.166   1.514
  879TIP3    H2 2583   5.259   1.178   1.439
  880TIP3   OH2 2584   4.476   5.873   1.993
  880TIP3    H1 2585   4.450   5.797   1.940
  880TIP3    H2 2586   4.467   5.843   2.083
  881TIP3   OH2 2587   0.990   5.927   3.481
  881TIP3    H1 2588   0.947   6.007   3.510
  881TIP3    H2 2589   0.991   5.933   3.386
  882TIP3   OH2 2590   5.309   3.239   3.895
  882TIP3    H1 2591   5.270   3.286   3.821
  882TIP3    H2 2592   5.286   3.291   3.972
  883TIP3   OH2 2593   7.335   0.320   5.220
  883TIP3    H1 2594   7.356   0.318   5.126
  883TIP3    H2 2595   7.261   0.261   5.229
  884TIP3   OH2 2596   4.998   3.764   4.189
  884TIP3    H1 2597   4.976   3.685   4.141
  884TIP3    H2 2598   5.021   3.828   4.121
  885TIP3   OH2 2599   7.188   2.317   1.278
  885TIP3    H1 2600   7.245   2.371   1.332
  885TIP3    H2 2601   7.175   2.237   1.330
  886TIP3   OH2 2602   5.623   7.424   6.185
  886TIP3    H1 2603   5.553   7.447   6.246
  886TIP3    H2 2604   5.602   7.334   6.158
  887TIP3   OH2 2605   5.160   0.720   3.095
  887TIP3    H1 2606   5.152   0.646   3.155
  887TIP3    H2 2607   5.179   0.679   3.010
  888TIP3   OH2 2608   4.521   1.767   4.218
  888TIP3    H1 2609   4.500   1.674   4.211
  888TIP3    H2 2610   4.457   1.811   4.162
  889TIP3   OH2 2611   4.879   2.286   2.431
  889TIP3    H1 2612   4.893   2.268   2.338
  889TIP3    H2 2613   4.863   2.200   2.470
  890TIP3   OH2 2614   5.581   0.083   2.065
  890TIP3    H1 2615   5.660   0.135   2.080
  890TIP3    H2 2616   5.596   0.040   1.981
  891TIP3   OH2 2617   4.158   2.034   4.700
  891TIP3    H1 2618   4.160   1.938   4.702
  891TIP3    H2 2619   4.198   2.061   4.783
  892TIP3   OH2 2620   4.681   2.890   0.939
  892TIP3    H1 2621   4.605   2.891   0.996
  892TIP3    H2 2622   4.670   2.966   0.882
  893TIP3   OH2 2623   5.171   3.052   4.792
  893TIP3    H1 2624   5.266   3.056   4.792
  893TIP3    H2 2625   5.143   3.135   4.830
  894TIP3   OH2 2626   2.985   4.423   3.456
  894TIP3    H1 2627   2.945   4.407   3.541
  894TIP3    H2 2628   2.914   4.411   3.393
  895TIP3   OH2 2629   7.828   2.680   6.733
  895TIP3    H1 2630   7.900   2.742   6.746
  895TIP3    H2 2631   7.754   2.722   6.776
  896TIP3   OH2 2632   5.756   0.537   5.087
  896TIP3    H1 2633   5.846   0.503   5.085
  896TIP3    H2 2634   5.734   0.551   4.995
  897TIP3   OH2 2635   5.795   0.840   1.997
  897TIP3    H1 2636   5.756   0.850   1.910
  897TIP3    H2 2637   5.881   0.880   1.989
  898TIP3   OH2 2638   3.858   4.644   3.270
  898TIP3    H1 2639   3.896   4.557   3.284
  898TIP3    H2 2640   3.817   4.666   3.354
  899TIP3   OH2 2641   6.212   5.565   2.239
  899TIP3    H1 2642   6.264   5.636   2.201
  899TIP3    H2 2643   6.205   5.588   2.332
  900TIP3   OH2 2644   7.507   3.081   2.537
  900TIP3    H1 2645   7.506   3.122   2.624
  900TIP3    H2 2646   7.416   3.087   2.507
  901TIP3   OH2 2647   4.233   0.721   1.034
  901TIP3    H1 2648   4.139   0.739   1.041
  901TIP3    H2 2649   4.265   0.785   0.970
  902TIP3   OH2 2650   3.167   3.716   4.493
  902TIP3    H1 2651   3.192   3.674   4.411
  902TIP3    H2 2652   3.096   3.661   4.527
  903TIP3   OH2 2653   1.393   4.383   3.523
  903TIP3    H1 2654   1.464   4.392   3.459
  903TIP3    H2 2655   1.412   4.451   3.589
  904TIP3   OH2 2656   6.757   4.555   5.668
  904TIP3    H1 2657   6.799   4.519   5.747
  904TIP3    H2 2658   6.794   4.504   5.596
  905TIP3   OH2 2659   2.054   0.805   3.308
  905TIP3    H1 2660   2.021   0.883   3.352
  905TIP3    H2 2661   1.988   0.738   3.324
  906TIP3   OH2 2662   5.115   3.765   5.727
  906TIP3    H1 2663   5.101   3.704   5.799
  906TIP3    H2 2664   5.205   3.749   5.698
  907TIP3   OH2 2665   6.417   1.123   0.156
  907TIP3    H1 2666   6.405   1.204   0.107
  907TIP3    H2 2667   6.461   1.064   0.095
  908TIP3   OH2 2668   3.648   4.408   5.897
  908TIP3    H1 2669   3.687   4.368   5.974
  908TIP3    H2 2670   3.721   4.448   5.851
  909TIP3   OH2 2671   3.480   4.580   1.764
  909TIP3    H1 2672   3.491   4.668   1.800
  909TIP3    H2 2673   3.562   4.535   1.785
  910TIP3   OH2 2674   3.498   0.305   2.350
  910TIP3    H1 2675   3.542   0.369   2.406
  910TIP3    H2 2676   3.534   0.322   2.262
  911TIP3   OH2 2677   2.880   5.794   3.242
  911TIP3    H1 2678   2.820   5.727   3.275
  911TIP3    H2 2679   2.906   5.843   3.320
  912TIP3   OH2 2680   0.902   6.876   0.547
  912TIP3    H1 2681   0.821   6.833   0.522
  912TIP3    H2 2682   0.892   6.894   0.641
  913TIP3   OH2 2683   0.801   0.069   2.142
  913TIP3    H1 2684   0.742   0.087   2.068
  913TIP3    H2 2685   0.778  -0.019   2.170
  914TIP3   OH2 2686   5.356   6.618   1.482
  914TIP3    H1 2687   5.451   6.631   1.483
  914TIP3    H2 2688   5.323   6.677   1.550
  915TIP3   OH2 2689   3.049   2.825   2.457
  915TIP3    H1 2690   2.964   2.853   2.423
  915TIP3    H2 2691   3.095   2.791   2.380
  916TIP3   OH2 2692   3.073   1.565   0.948
  916TIP3    H1 2693   3.052   1.651   0.913
  916TIP3    H2 2694   3.050   1.570   1.041
  917TIP3   OH2 2695   8.070   0.565   4.958
  917TIP3    H1 2696   8.033   0.520   5.033
  917TIP3    H2 2697   8.117   0.640   4.995
  918TIP3   OH2 2698   2.205   2.374   6.078
  918TIP3    H1 2699   2.257   2.338   6.149
  918TIP3    H2 2700   2.255   2.448   6.045
  919TIP3   OH2 2701   6.160   4.090   2.591
  919TIP3    H1 2702   6.223   4.029   2.553
  919TIP3    H2 2703   6.211   4.170   2.607
  920TIP3   OH2 2704   0.597   6.965   2.058
  920TIP3    H1 2705   0.628   7.049   2.023
  920TIP3    H2 2706   0.553   6.987   2.140
  921TIP3   OH2 2707   5.607   1.659   5.966
  921TIP3    H1 2708   5.664   1.628   5.896
  921TIP3    H2 2709   5.519   1.652   5.929
  922TIP3   OH2 2710   6.822   3.477   4.309
  922TIP3    H1 2711   6.862   3.497   4.394
  922TIP3    H2 2712   6.761   3.406   4.327
  923TIP3   OH2 2713   4.294   3.964   5.076
  923TIP3    H1 2714   4.309   4.045   5.123
  923TIP3    H2 2715   4.287   3.897   5.144
  924TIP3   OH2 2716   7.855   3.214   3.077
  924TIP3    H1 2717   7.873   3.143   3.139
  924TIP3    H2 2718   7.845   3.292   3.131
  925TIP3   OH2 2719   6.362   2.322   0.194
  925TIP3    H1 2720   6.401   2.409   0.205
  925TIP3    H2 2721   6.383   2.276   0.276
  926TIP3   OH2 2722   1.696   6.536   3.407
  926TIP3    H1 2723   1.768   6.552   3.468
  926TIP3    H2 2724   1.701   6.442   3.389
  927TIP3   OH2 2725   5.809   6.778   2.680
  927TIP3    H1 2726   5.767   6.740   2.757
  927TIP3    H2 2727   5.739   6.784   2.615
  928TIP3   OH2 2728   4.120   0.315   4.011
  928TIP3    H1 2729   4.077   0.388   4.057
  928TIP3    H2 2730   4.058   0.243   4.018
  929TIP3   OH2 2731   5.875   5.764   3.774
  929TIP3    H1 2732   5.849   5.836   3.832
  929TIP3    H2 2733   5.965   5.744   3.800
  930TIP3   OH2 2734   1.036   3.553   3.077
  930TIP3    H1 2735   1.092   3.540   3.000
  930TIP3    H2 2736   1.060   3.639   3.111
  931TIP3   OH2 2737   1.070   4.511   5.851
  931TIP3    H1 2738   1.043   4.437   5.797
  931TIP3    H2 2739   1.058   4.480   5.941
  932TIP3   OH2 2740   6.267   1.206   6.701
  932TIP3    H1 2741   6.286   1.271   6.634
  932TIP3    H2 2742   6.282   1.122   6.659
  933TIP3   OH2 2743   4.340   3.128   6.015
  933TIP3    H1 2744   4.323   3.220   6.031
  933TIP3    H2 2745   4.310   3.083   6.094
  934TIP3   OH2 2746   6.065   7.235   2.959
  934TIP3    H1 2747   6.099   7.208   3.044
  934TIP3    H2 2748   6.050   7.152   2.912
  935TIP3   OH2 2749   1.949   4.718   6.137
  935TIP3    H1 2750   1.977   4.792   6.083
  935TIP3    H2 2751   1.855   4.731   6.148
  936TIP3   OH2 2752   2.601   2.239   1.362
  936TIP3    H1 2753   2.514   2.214   1.334
  936TIP3    H2 2754   2.597   2.335   1.370
  937TIP3   OH2 2755   0.345   3.734   0.670
  937TIP3    H1 2756   0.288   3.792   0.619
  937TIP3    H2 2757   0.294   3.712   0.748
  938TIP3   OH2 2758   1.686   3.164   1.700
  938TIP3    H1 2759   1.683   3.130   1.790
  938TIP3    H2 2760   1.594   3.180   1.678
  939TIP3   OH2 2761   6.985   0.291   4.038
  939TIP3    H1 2762   6.983   0.343   3.958
  939TIP3    H2 2763   6.965   0.202   4.009
  940TIP3   OH2 2764   3.931   1.960   1.357
  940TIP3    H1 2765   3.922   1.949   1.451
  940TIP3    H2 2766   3.842   1.981   1.327
  941TIP3   OH2 2767   4.028   1.562   4.792
  941TIP3    H1 2768   4.087   1.626   4.832
  941TIP3    H2 2769   3.969   1.614   4.738
  942TIP3   OH2 2770   0.883   7.103   1.519
  942TIP3    H1 2771   0.801   7.089   1.471
  942TIP3    H2 2772   0.867   7.066   1.605
  943TIP3   OH2 2773   6.509   2.286   4.094
  943TIP3    H1 2774   6.570   2.353   4.065
  943TIP3    H2 2775   6.446   2.278   4.023
  944TIP3   OH2 2776   0.627   5.636   6.005
  944TIP3    H1 2777   0.546   5.672   6.041
  944TIP3    H2 2778   0.600   5.552   5.967
  945TIP3   OH2 2779   7.400   1.571   3.596
  945TIP3    H1 2780   7.429   1.633   3.530
  945TIP3    H2 2781   7.324   1.528   3.558
  946TIP3   OH2 2782   7.778   0.171   4.319
  946TIP3    H1 2783   7.697   0.134   4.354
  946TIP3    H2 2784   7.830   0.193   4.397
  947TIP3   OH2 2785   7.047   4.033   3.899
  947TIP3    H1 2786   7.006   4.001   3.818
  947TIP3    H2 2787   6.988   4.101   3.931
  948TIP3   OH2 2788   6.620   5.980   0.770
  948TIP3    H1 2789   6.561   6.027   0.830
  948TIP3    H2 2790   6.658   5.911   0.824
  949TIP3   OH2 2791   7.056   3.383   3.530
  949TIP3    H1 2792   7.033   3.398   3.622
  949TIP3    H2 2793   7.125   3.317   3.534
  950TIP3   OH2 2794   7.679   0.541   6.338
  950TIP3    H1 2795   7.769   0.525   6.310
  950TIP3    H2 2796   7.631   0.463   6.310
  951TIP3   OH2 2797   4.292   5.068   1.485
  951TIP3    H1 2798   4.201   5.074   1.515
  951TIP3    H2 2799   4.339   5.136   1.534
  952TIP3   OH2 2800   4.859   4.560   3.945
  952TIP3    H1 2801   4.885   4.490   3.885
  952TIP3    H2 2802   4.913   4.634   3.922
  953TIP3   OH2 2803   5.137   6.813   6.552
  953TIP3    H1 2804   5.089   6.770   6.623
  953TIP3    H2 2805   5.101   6.902   6.549
  954TIP3   OH2 2806   2.979   7.559   3.175
  954TIP3    H1 2807   3.029   7.638   3.157
  954TIP3    H2 2808   2.888   7.590   3.184
  955TIP3   OH2 2809   0.501   6.465   2.355
  955TIP3    H1 2810   0.505   6.484   2.262
  955TIP3    H2 2811   0.557   6.387   2.366
  956TIP3   OH2 2812   3.452   6.232   4.373
  956TIP3    H1 2813   3.466   6.215   4.467
  956TIP3    H2 2814   3.407   6.153   4.342
  957TIP3   OH2 2815   3.333   3.708   5.207
  957TIP3    H1 2816   3.401   3.659   5.161
  957TIP3    H2 2817   3.366   3.798   5.208
  958TIP3   OH2 2818   0.572   2.308   5.937
  958TIP3    H1 2819   0.539   2.260   6.014
  958TIP3    H2 2820   0.510   2.379   5.924
  959TIP3   OH2 2821   0.797   3.486   5.465
  959TIP3    H1 2822   0.836   3.468   5.550
  959TIP3    H2 2823   0.859   3.449   5.402
  960TIP3   OH2 2824   5.621   2.469   4.817
  960TIP3    H1 2825   5.661   2.383   4.831
  960TIP3    H2 2826   5.640   2.489   4.725
  961TIP3   OH2 2827   5.789   5.111   3.047
  961TIP3    H1 2828   5.717   5.095   2.986
  961TIP3    H2 2829   5.866   5.124   2.992
  962TIP3   OH2 2830   7.792   2.684   4.790
  962TIP3    H1 2831   7.728   2.753   4.772
  962TIP3    H2 2832   7.861   2.728   4.840
  963TIP3   OH2 2833   2.254   0.702   5.549
  963TIP3    H1 2834   2.298   0.629   5.593
  963TIP3    H2 2835   2.230   0.667   5.464
  964TIP3   OH2 2836   0.046   6.052   1.476
  964TIP3    H1 2837  -0.022   6.084   1.535
  964TIP3    H2 2838   0.007   6.057   1.389
  965TIP3   OH2 2839   0.321   7.226   2.611
  965TIP3    H1 2840   0.349   7.223   2.703
  965TIP3    H2 2841   0.372   7.298   2.573
  966TIP3   OH2 2842   4.644   3.714   0.769
  966TIP3    H1 2843   4.730   3.753   0.782
  966TIP3    H2 2844   4.588   3.757   0.833
  967TIP3   OH2 2845   5.033   5.086   4.413
  967TIP3    H1 2846   4.986   5.142   4.474
  967TIP3    H2 2847   5.008   5.118   4.326
  968TIP3   OH2 2848   4.122   4.865   2.272
  968TIP3    H1 2849   4.039   4.909   2.255
  968TIP3    H2 2850   4.160   4.850   2.185
  969TIP3   OH2 2851   0.101   5.334   4.719
  969TIP3    H1 2852   0.110   5.252   4.669
  969TIP3    H2 2853   0.057   5.308   4.800
  970TIP3   OH2 2854   0.662   4.116   0.988
  970TIP3    H1 2855   0.709   4.119   1.071
  970TIP3    H2 2856   0.572   4.139   1.010
  971TIP3   OH2 2857   3.849   3.648   1.612
  971TIP3    H1 2858   3.925   3.702   1.633
  971TIP3    H2 2859   3.829   3.669   1.521
  972TIP3   OH2 2860   7.135   5.611   1.453
  972TIP3    H1 2861   7.120   5.674   1.523
  972TIP3    H2 2862   7.172   5.535   1.497
  973TIP3   OH2 2863   5.243   7.357   1.889
  973TIP3    H1 2864   5.176   7.325   1.828
  973TIP3    H2 2865   5.263   7.282   1.945
  974TIP3   OH2 2866   8.148   3.570   1.631
  974TIP3    H1 2867   8.061   3.607   1.618
  974TIP3    H2 2868   8.208   3.642   1.608
  975TIP3   OH2 2869   3.031   7.229   0.520
  975TIP3    H1 2870   2.943   7.204   0.548
  975TIP3    H2 2871   3.069   7.149   0.483
  976TIP3   OH2 2872   1.055   0.594   5.171
  976TIP3    H1 2873   1.016   0.628   5.251
  976TIP3    H2 2874   1.112   0.523   5.201
  977TIP3   OH2 2875   1.805   1.719   1.544
  977TIP3    H1 2876   1.848   1.804   1.548
  977TIP3    H2 2877   1.735   1.730   1.479
  978TIP3   OH2 2878   6.751   4.814   3.476
  978TIP3    H1 2879   6.798   4.751   3.421
  978TIP3    H2 2880   6.664   4.777   3.485
  979TIP3   OH2 2881   4.912   6.435   0.332
  979TIP3    H1 2882   4.986   6.494   0.321
  979TIP3    H2 2883   4.908   6.386   0.250
  980TIP3   OH2 2884   2.521   5.549   2.009
  980TIP3    H1 2885   2.525   5.628   2.063
  980TIP3    H2 2886   2.451   5.496   2.048
  981TIP3   OH2 2887   0.833   1.859   6.330
  981TIP3    H1 2888   0.926   1.842   6.343
  981TIP3    H2 2889   0.829   1.911   6.250
  982TIP3   OH2 2890   6.464   3.653   2.690
  982TIP3    H1 2891   6.539   3.615   2.644
  982TIP3    H2 2892   6.387   3.617   2.645
  983TIP3   OH2 2893   0.971   0.190   1.254
  983TIP3    H1 2894   0.925   0.273   1.246
  983TIP3    H2 2895   1.002   0.188   1.345
  984TIP3   OH2 2896   0.719   6.602   5.980
  984TIP3    H1 2897   0.732   6.530   6.042
  984TIP3    H2 2898   0.778   6.671   6.010
  985TIP3   OH2 2899   6.970   4.715   5.730
  985TIP3    H1 2900   7.028   4.643   5.754
  985TIP3    H2 2901   6.895   4.673   5.688
  986TIP3   OH2 2902   5.446   2.128   1.657
  986TIP3    H1 2903   5.410   2.216   1.646
  986TIP3    H2 2904   5.385   2.084   1.716
  987TIP3   OH2 2905   4.769   4.612   6.613
  987TIP3    H1 2906   4.825   4.616   6.535
  987TIP3    H2 2907   4.702   4.547   6.592
  988TIP3   OH2 2908   1.543   7.233   0.559
  988TIP3    H1 2909   1.530   7.301   0.625
  988TIP3    H2 2910   1.489   7.160   0.589
  989TIP3   OH2 2911   5.591   3.474   5.572
  989TIP3    H1 2912   5.604   3.409   5.503
  989TIP3    H2 2913   5.501   3.504   5.560
  990TIP3   OH2 2914   1.386   7.067   5.014
  990TIP3    H1 2915   1.421   7.136   5.070
  990TIP3    H2 2916   1.291   7.078   5.019
  991TIP3   OH2 2917   1.708   1.303   0.581
  991TIP3    H1 2918   1.627   1.346   0.553
  991TIP3    H2 2919   1.776   1.339   0.523
  992TIP3   OH2 2920   0.523   6.557   2.112
  992TIP3    H1 2921   0.456   6.574   2.046
  992TIP3    H2 2922   0.605   6.555   2.063
  993TIP3   OH2 2923   2.108   7.708   6.446
  993TIP3    H1 2924   2.059   7.626   6.459
  993TIP3    H2 2925   2.080   7.764   6.518
  994TIP3   OH2 2926   6.629   3.410   3.431
  994TIP3    H1 2927   6.596   3.320   3.434
  994TIP3    H2 2928   6.673   3.417   3.346
  995TIP3   OH2 2929   1.393   5.239   3.103
  995TIP3    H1 2930   1.470   5.186   3.085
  995TIP3    H2 2931   1.392   5.251   3.198
  996TIP3   OH2 2932   8.098   0.221   1.206
  996TIP3    H1 2933   8.183   0.265   1.209
  996TIP3    H2 2934   8.073   0.213   1.298
  997TIP3   OH2 2935   1.673   3.718   6.595
  997TIP3    H1 2936   1.736   3.652   6.626
  997TIP3    H2 2937   1.602   3.716   6.660
  998TIP3   OH2 2938   4.363   1.146   5.782
  998TIP3    H1 2939   4.341   1.193   5.702
  998TIP3    H2 2940   4.459   1.141   5.782
  999TIP3   OH2 2941   3.134   7.083   3.650
  999TIP3    H1 2942   3.119   7.127   3.734
  999TIP3    H2 2943   3.051   7.092   3.603
 1000TIP3   OH2 2944   5.515   3.795   5.893
 1000TIP3    H1 2945   5.572   3.761   5.824
 1000TIP3    H2 2946   5.567   3.783   5.973
 1001TIP3   OH2 2947   7.207   6.353   3.807
 1001TIP3    H1 2948   7.199   6.264   3.773
 1001TIP3    H2 2949   7.274   6.346   3.875
 1002TIP3   OH2 2950   7.863   3.073   5.267
 1002TIP3    H1 2951   7.794   3.106   5.323
 1002TIP3    H2 2952   7.891   3.149   5.216
 1003TIP3   OH2 2953   2.359   4.871   4.531
 1003TIP3    H1 2954   2.445   4.905   4.558
 1003TIP3    H2 2955   2.365   4.865   4.436
 1004TIP3   OH2 2956   7.310   3.498   0.098
 1004TIP3    H1 2957   7.337   3.522   0.187
 1004TIP3    H2 2958   7.380   3.442   0.065
 1005TIP3   OH2 2959   3.003   3.178   5.943
 1005TIP3    H1 2960   3.060   3.102   5.928
 1005TIP3    H2 2961   3.053   3.252   5.908
 1006TIP3   OH2 2962   5.161   5.193   2.512
 1006TIP3    H1 2963   5.068   5.205   2.493
 1006TIP3    H2 2964   5.170   5.101   2.535
 1007TIP3   OH2 2965   5.456   6.410   5.933
 1007TIP3    H1 2966   5.508   6.426   6.012
 1007TIP3    H2 2967   5.504   6.455   5.863
 1008TIP3   OH2 2968   7.042   6.494   3.479
 1008TIP3    H1 2969   6.990   6.414   3.480
 1008TIP3    H2 2970   7.016   6.538   3.398
 1009TIP3   OH2 2971   6.010   5.735   1.395
 1009TIP3    H1 2972   5.921   5.713   1.424
 1009TIP3    H2 2973   5.997   5.782   1.313
 1010TIP3   OH2 2974   0.675   7.475   3.282
 1010TIP3    H1 2975   0.733   7.508   3.350
 1010TIP3    H2 2976   0.675   7.380   3.295
 1011TIP3   OH2 2977   5.452   2.762   1.751
 1011TIP3    H1 2978   5.532   2.715   1.777
 1011TIP3    H2 2979   5.480   2.853   1.741
 1012TIP3   OH2 2980   5.714   0.746   6.095
 1012TIP3    H1 2981   5.684   0.669   6.143
 1012TIP3    H2 2982   5.755   0.712   6.016
 1013TIP3   OH2 2983   3.399   5.366   1.816
 1013TIP3    H1 2984   3.373   5.407   1.898
 1013TIP3    H2 2985   3.325   5.310   1.792
 1014TIP3   OH2 2986   4.423   1.760   5.905
 1014TIP3    H1 2987   4.407   1.693   5.838
 1014TIP3    H2 2988   4.351   1.822   5.895
 1015TIP3   OH2 2989   1.597   1.933   6.212
 1015TIP3    H1 2990   1.638   2.019   6.203
 1015TIP3    H2 2991   1.670   1.871   6.207
 1016TIP3   OH2 2992   3.642   0.509   3.944
 1016TIP3    H1 2993   3.559   0.520   3.897
 1016TIP3    H2 2994   3.636   0.570   4.018
 1017TIP3   OH2 2995   6.644   7.724   5.122
 1017TIP3    H1 2996   6.664   7.630   5.112
 1017TIP3    H2 2997   6.713   7.756   5.180
 1018TIP3   OH2 2998   5.554   5.876   1.264
 1018TIP3    H1 2999   5.563   5.951   1.205
 1018TIP3    H2 3000   5.463   5.848   1.254
 1019TIP3   OH2 3001   6.250   7.655   0.473
 1019TIP3    H1 3002   6.304   7.689   0.401
 1019TIP3    H2 3003   6.209   7.733   0.511
 1020TIP3   OH2 3004   1.563   6.220   1.941
 1020TIP3    H1 3005   1.618   6.147   1.910
 1020TIP3    H2 3006   1.593   6.236   2.030
 1021TIP3   OH2 3007   1.437   3.667   1.360
 1021TIP3    H1 3008   1.478   3.685   1.275
 1021TIP3    H2 3009   1.500   3.699   1.425
 1022TIP3   OH2 3010   7.449   3.811   6.207
 1022TIP3    H1 3011   7.460   3.803   6.112
 1022TIP3    H2 3012   7.538   3.803   6.242
 1023TIP3   OH2 3013   0.790   0.405   0.618
 1023TIP3    H1 3014   0.714   0.382   0.673
 1023TIP3    H2 3015   0.831   0.321   0.598
 1024TIP3   OH2 3016   2.068   2.558   2.700
 1024TIP3    H1 3017   2.061   2.622   2.771
 1024TIP3    H2 3018   2.159   2.565   2.671
 1025TIP3   OH2 3019   3.733   2.917   1.586
 1025TIP3    H1 3020   3.760   2.951   1.500
 1025TIP3    H2 3021   3.646   2.955   1.600
 1026TIP3   OH2 3022   2.964   6.047   2.256
 1026TIP3    H1 3023   2.993   5.964   2.217
 1026TIP3    H2 3024   2.986   6.039   2.349
 1027TIP3   OH2 3025   6.708   0.863   1.587
 1027TIP3    H1 3026   6.709   0.957   1.570
 1027TIP3    H2 3027   6.792   0.846   1.630
 1028TIP3   OH2 3028   0.351   5.721   6.122
 1028TIP3    H1 3029   0.325   5.803   6.163
 1028TIP3    H2 3030   0.272   5.691   6.078
 1029TIP3   OH2 3031   3.179   5.705   2.853
 1029TIP3    H1 3032   3.230   5.777   2.890
 1029TIP3    H2 3033   3.218   5.626   2.891
 1030TIP3   OH2 3034   6.950   3.339   5.291
 1030TIP3    H1 3035   6.895   3.390   5.233
 1030TIP3    H2 3036   6.911   3.351   5.378
 1031TIP3   OH2 3037   3.901   2.885   0.884
 1031TIP3    H1 3038   3.860   2.854   0.964
 1031TIP3    H2 3039   3.839   2.948   0.847
 1032TIP3   OH2 3040   2.842   1.903   6.453
 1032TIP3    H1 3041   2.878   1.987   6.482
 1032TIP3    H2 3042   2.907   1.870   6.391
 1033TIP3   OH2 3043   7.442   4.450   6.130
 1033TIP3    H1 3044   7.437   4.546   6.135
 1033TIP3    H2 3045   7.495   4.433   6.052
 1034TIP3   OH2 3046   5.963   2.758   5.575
 1034TIP3    H1 3047   5.964   2.842   5.530
 1034TIP3    H2 3048   5.873   2.748   5.606
 1035TIP3   OH2 3049   6.126   0.346   5.780
 1035TIP3    H1 3050   6.126   0.309   5.692
 1035TIP3    H2 3051   6.147   0.272   5.837
 1036TIP3   OH2 3052   6.549   4.011   0.748
 1036TIP3    H1 3053   6.590   3.952   0.686
 1036TIP3    H2 3054   6.555   3.966   0.832
 1037TIP3   OH2 3055  -0.046   6.291   2.013
 1037TIP3    H1 3056   0.013   6.227   2.053
 1037TIP3    H2 3057  -0.056   6.262   1.923
 1038TIP3   OH2 3058   3.047   2.792   4.026
 1038TIP3    H1 3059   3.137   2.772   4.053
 1038TIP3    H2 3060   3.006   2.830   4.104
 1039TIP3   OH2 3061   3.163   3.894   4.950
 1039TIP3    H1 3062   3.162   3.858   5.038
 1039TIP3    H2 3063   3.252   3.877   4.919
 1040TIP3   OH2 3064   5.782   5.512   1.941
 1040TIP3    H1 3065   5.876   5.501   1.926
 1040TIP3    H2 3066   5.740   5.488   1.859
 1041TIP3   OH2 3067   6.384   2.382   1.831
 1041TIP3    H1 3068   6.403   2.360   1.922
 1041TIP3    H2 3069   6.379   2.478   1.831
 1042TIP3   OH2 3070   2.123   5.952   0.739
 1042TIP3    H1 3071   2.056   5.934   0.673
 1042TIP3    H2 3072   2.199   5.901   0.711
 1043TIP3   OH2 3073   4.500   2.890   4.436
 1043TIP3    H1 3074   4.484   2.945   4.360
 1043TIP3    H2 3075   4.511   2.952   4.508
 1044TIP3   OH2 3076   2.102   0.404   2.484
 1044TIP3    H1 3077   2.053   0.484   2.502
 1044TIP3    H2 3078   2.080   0.346   2.557
 1045TIP3   OH2 3079   2.346   1.653   1.758
 1045TIP3    H1 3080   2.441   1.646   1.765
 1045TIP3    H2 3081   2.331   1.688   1.670
 1046TIP3   OH2 3082   7.028   3.642   3.440
 1046TIP3    H1 3083   7.040   3.552   3.470
 1046TIP3    H2 3084   6.936   3.661   3.460
 1047TIP3   OH2 3085   3.487   4.920   4.375
 1047TIP3    H1 3086   3.507   4.971   4.453
 1047TIP3    H2 3087   3.546   4.954   4.308
 1048TIP3   OH2 3088   4.018   5.368   6.606
 1048TIP3    H1 3089   3.977   5.390   6.689
 1048TIP3    H2 3090   3.957   5.307   6.564
 1049TIP3   OH2 3091   5.050   0.905   4.365
 1049TIP3    H1 3092   4.999   0.972   4.411
 1049TIP3    H2 3093   5.112   0.955   4.312
 1050TIP3   OH2 3094   8.220   2.600   3.885
 1050TIP3    H1 3095   8.269   2.639   3.957
 1050TIP3    H2 3096   8.236   2.658   3.811
 1051TIP3   OH2 3097   6.252   7.281   0.290
 1051TIP3    H1 3098   6.237   7.207   0.232
 1051TIP3    H2 3099   6.347   7.287   0.299
 1052TIP3   OH2 3100   7.084   3.161   3.126
 1052TIP3    H1 3101   7.158   3.147   3.184
 1052TIP3    H2 3102   7.008   3.127   3.173
 1053TIP3   OH2 3103   4.007   1.481   2.206
 1053TIP3    H1 3104   3.925   1.433   2.219
 1053TIP3    H2 3105   4.076   1.414   2.217
 1054TIP3   OH2 3106   8.292   2.844   6.778
 1054TIP3    H1 3107   8.233   2.775   6.808
 1054TIP3    H2 3108   8.323   2.814   6.693
 1055TIP3   OH2 3109   1.723   0.926   0.207
 1055TIP3    H1 3110   1.656   0.961   0.149
 1055TIP3    H2 3111   1.730   0.991   0.277
 1056TIP3   OH2 3112   4.512   4.658   1.458
 1056TIP3    H1 3113   4.436   4.675   1.402
 1056TIP3    H2 3114   4.566   4.737   1.448
 1057TIP3   OH2 3115   5.800   3.837   2.022
 1057TIP3    H1 3116   5.853   3.805   1.950
 1057TIP3    H2 3117   5.851   3.910   2.059
 1058TIP3   OH2 3118   4.716   2.461   5.204
 1058TIP3    H1 3119   4.762   2.377   5.197
 1058TIP3    H2 3120   4.766   2.510   5.269
 1059TIP3   OH2 3121   2.767   3.998   5.649
 1059TIP3    H1 3122   2.839   4.059   5.663
 1059TIP3    H2 3123   2.739   3.973   5.737
 1060TIP3   OH2 3124   5.963   3.186   3.047
 1060TIP3    H1 3125   5.999   3.275   3.055
 1060TIP3    H2 3126   5.879   3.190   3.091
 1061TIP3   OH2 3127   1.960   0.286   3.147
 1061TIP3    H1 3128   2.043   0.253   3.114
 1061TIP3    H2 3129   1.984   0.343   3.220
 1062TIP3   OH2 3130   4.982   6.814   1.633
 1062TIP3    H1 3131   5.075   6.833   1.616
 1062TIP3    H2 3132   4.964   6.735   1.584
 1063TIP3   OH2 3133   8.044   7.720   5.917
 1063TIP3    H1 3134   8.123   7.669   5.895
 1063TIP3    H2 3135   7.990   7.713   5.838
 1064TIP3   OH2 3136   3.070   3.395   4.919
 1064TIP3    H1 3137   3.058   3.392   4.824
 1064TIP3    H2 3138   3.003   3.456   4.949
 1065TIP3   OH2 3139   5.343   4.239   5.300
 1065TIP3    H1 3140   5.422   4.216   5.252
 1065TIP3    H2 3141   5.273   4.191   5.256
 1066TIP3   OH2 3142   6.764   1.727   1.757
 1066TIP3    H1 3143   6.698   1.795   1.765
 1066TIP3    H2 3144   6.805   1.742   1.672
 1067TIP3   OH2 3145   1.305   5.971   4.305
 1067TIP3    H1 3146   1.367   5.898   4.309
 1067TIP3    H2 3147   1.260   5.959   4.221
 1068TIP3   OH2 3148   6.729   7.433   2.922
 1068TIP3    H1 3149   6.747   7.468   2.835
 1068TIP3    H2 3150   6.797   7.472   2.978
 1069TIP3   OH2 3151   1.674   2.616   5.510
 1069TIP3    H1 3152   1.730   2.582   5.440
 1069TIP3    H2 3153   1.624   2.540   5.539
 1070TIP3   OH2 3154   1.308   7.432   1.270
 1070TIP3    H1 3155   1.229   7.486   1.270
 1070TIP3    H2 3156   1.278   7.348   1.305
 1071TIP3   OH2 3157   3.885   1.922   4.309
 1071TIP3    H1 3158   3.887   1.966   4.224
 1071TIP3    H2 3159   3.967   1.873   4.312
 1072TIP3   OH2 3160   5.916   7.765   6.502
 1072TIP3    H1 3161   5.966   7.724   6.572
 1072TIP3    H2 3162   5.898   7.853   6.534
 1073TIP3   OH2 3163   7.284   0.357   2.868
 1073TIP3    H1 3164   7.288   0.280   2.926
 1073TIP3    H2 3165   7.336   0.332   2.792
 1074TIP3   OH2 3166   0.293   2.451   1.518
 1074TIP3    H1 3167   0.376   2.423   1.480
 1074TIP3    H2 3168   0.245   2.369   1.534
 1075TIP3   OH2 3169   6.430   1.915   1.840
 1075TIP3    H1 3170   6.445   1.840   1.899
 1075TIP3    H2 3171   6.449   1.881   1.753
 1076TIP3   OH2 3172   7.100   4.657   4.100
 1076TIP3    H1 3173   7.064   4.692   4.018
 1076TIP3    H2 3174   7.061   4.710   4.169
 1077TIP3   OH2 3175   5.789   6.466   2.101
 1077TIP3    H1 3176   5.798   6.527   2.175
 1077TIP3    H2 3177   5.715   6.411   2.125
 1078TIP3   OH2 3178   5.552   5.536   0.740
 1078TIP3    H1 3179   5.487   5.602   0.717
 1078TIP3    H2 3180   5.501   5.460   0.768
 1079TIP3   OH2 3181   7.511   6.067   1.917
 1079TIP3    H1 3182   7.546   5.986   1.880
 1079TIP3    H2 3183   7.428   6.081   1.872
 1080TIP3   OH2 3184   0.713   4.433   5.288
 1080TIP3    H1 3185   0.709   4.347   5.329
 1080TIP3    H2 3186   0.767   4.420   5.210
 1081TIP3   OH2 3187   5.173   6.107   0.422
 1081TIP3    H1 3188   5.118   6.090   0.346
 1081TIP3    H2 3189   5.237   6.036   0.422
 1082TIP3   OH2 3190   2.567   0.954   6.560
 1082TIP3    H1 3191   2.517   1.032   6.585
 1082TIP3    H2 3192   2.570   0.900   6.639
 1083TIP3   OH2 3193   6.967   0.188   3.485
 1083TIP3    H1 3194   7.035   0.127   3.513
 1083TIP3    H2 3195   6.992   0.271   3.526
 1084TIP3   OH2 3196   8.019   4.261   4.760
 1084TIP3    H1 3197   8.101   4.308   4.742
 1084TIP3    H2 3198   8.045   4.189   4.818
 1085TIP3   OH2 3199   7.342   3.499   2.815
 1085TIP3    H1 3200   7.357   3.582   2.770
 1085TIP3    H2 3201   7.307   3.524   2.901
 1086TIP3   OH2 3202   3.373   2.837   5.776
 1086TIP3    H1 3203   3.453   2.784   5.772
 1086TIP3    H2 3204   3.328   2.819   5.694
 1087TIP3   OH2 3205   4.637   7.465   1.616
 1087TIP3    H1 3206   4.582   7.389   1.639
 1087TIP3    H2 3207   4.619   7.481   1.524
 1088TIP3   OH2 3208   7.486   4.072   6.024
 1088TIP3    H1 3209   7.508   4.067   6.117
 1088TIP3    H2 3210   7.545   4.009   5.982
 1089TIP3   OH2 3211   1.359   4.145   1.221
 1089TIP3    H1 3212   1.325   4.085   1.287
 1089TIP3    H2 3213   1.447   4.113   1.202
 1090TIP3   OH2 3214   3.999   3.341   3.339
 1090TIP3    H1 3215   3.989   3.300   3.425
 1090TIP3    H2 3216   4.047   3.422   3.357
 1091TIP3   OH2 3217   3.337   6.161   2.776
 1091TIP3    H1 3218   3.332   6.232   2.712
 1091TIP3    H2 3219   3.251   6.160   2.817
 1092TIP3   OH2 3220   5.070   0.200   5.270
 1092TIP3    H1 3221   5.094   0.109   5.256
 1092TIP3    H2 3222   5.011   0.221   5.197
 1093TIP3   OH2 3223   7.601   4.964   2.667
 1093TIP3    H1 3224   7.612   4.900   2.737
 1093TIP3    H2 3225   7.532   5.022   2.700
 1094TIP3   OH2 3226   6.623   0.707   3.824
 1094TIP3    H1 3227   6.596   0.684   3.913
 1094TIP3    H2 3228   6.543   0.699   3.772
 1095TIP3   OH2 3229   8.140   6.623   5.893
 1095TIP3    H1 3230   8.178   6.560   5.832
 1095TIP3    H2 3231   8.215   6.675   5.923
 1096TIP3   OH2 3232   8.018   0.015   1.032
 1096TIP3    H1 3233   7.968  -0.041   1.091
 1096TIP3    H2 3234   8.056   0.082   1.088
 1097TIP3   OH2 3235   2.408   7.770   3.355
 1097TIP3    H1 3236   2.482   7.831   3.350
 1097TIP3    H2 3237   2.434   7.697   3.300
 1098TIP3   OH2 3238   5.838   4.474   4.537
 1098TIP3    H1 3239   5.808   4.421   4.463
 1098TIP3    H2 3240   5.867   4.557   4.497
 1099TIP3   OH2 3241   2.551   5.554   4.313
 1099TIP3    H1 3242   2.599   5.637   4.304
 1099TIP3    H2 3243   2.470   5.578   4.357
 1100TIP3   OH2 3244   2.392   4.754   6.263
 1100TIP3    H1 3245   2.373   4.712   6.180
 1100TIP3    H2 3246   2.487   4.745   6.273
 1101TIP3   OH2 3247   7.755   2.451   2.263
 1101TIP3    H1 3248   7.761   2.456   2.358
 1101TIP3    H2 3249   7.843   2.469   2.232
 1102TIP3   OH2 3250   0.171   7.163   6.178
 1102TIP3    H1 3251   0.120   7.107   6.120
 1102TIP3    H2 3252   0.223   7.103   6.231
 1103TIP3   OH2 3253   3.209   1.717   5.755
 1103TIP3    H1 3254   3.176   1.628   5.770
 1103TIP3    H2 3255   3.282   1.705   5.694
 1104TIP3   OH2 3256   5.457   5.984   0.860
 1104TIP3    H1 3257   5.468   6.018   0.771
 1104TIP3    H2 3258   5.445   5.890   0.848
 1105TIP3   OH2 3259   7.755   1.945   5.941
 1105TIP3    H1 3260   7.800   1.892   5.875
 1105TIP3    H2 3261   7.671   1.967   5.901
 1106TIP3   OH2 3262   7.534   5.270   5.786
 1106TIP3    H1 3263   7.619   5.268   5.742
 1106TIP3    H2 3264   7.549   5.223   5.868
 1107TIP3   OH2 3265   5.326   5.444   4.222
 1107TIP3    H1 3266   5.308   5.394   4.302
 1107TIP3    H2 3267   5.252   5.427   4.165
 1108TIP3   OH2 3268   2.072   7.280   5.176
 1108TIP3    H1 3269   2.068   7.369   5.140
 1108TIP3    H2 3270   2.118   7.229   5.110
 1109TIP3   OH2 3271   4.848   6.817   6.491
 1109TIP3    H1 3272   4.830   6.739   6.544
 1109TIP3    H2 3273   4.890   6.783   6.412
 1110TIP3   OH2 3274   1.830   1.690   2.023
 1110TIP3    H1 3275   1.858   1.776   2.056
 1110TIP3    H2 3276   1.878   1.679   1.941
 1111TIP3   OH2 3277   4.157   7.220   5.868
 1111TIP3    H1 3278   4.079   7.166   5.876
 1111TIP3    H2 3279   4.214   7.192   5.940
 1112TIP3   OH2 3280   0.829   2.555   4.780
 1112TIP3    H1 3281   0.894   2.610   4.825
 1112TIP3    H2 3282   0.754   2.613   4.769
 1113TIP3   OH2 3283   8.379   3.530   0.362
 1113TIP3    H1 3284   8.360   3.559   0.451
 1113TIP3    H2 3285   8.293   3.513   0.323
 1114TIP3   OH2 3286   3.466   4.671   2.708
 1114TIP3    H1 3287   3.550   4.670   2.753
 1114TIP3    H2 3288   3.483   4.719   2.626
 1115TIP3   OH2 3289   1.546   6.183   5.959
 1115TIP3    H1 3290   1.627   6.145   5.993
 1115TIP3    H2 3291   1.531   6.139   5.875
 1116TIP3   OH2 3292   3.531   5.277   4.433
 1116TIP3    H1 3293   3.499   5.334   4.363
 1116TIP3    H2 3294   3.452   5.252   4.481
 1117TIP3   OH2 3295   3.947   1.552   5.952
 1117TIP3    H1 3296   3.886   1.558   6.025
 1117TIP3    H2 3297   3.908   1.488   5.892
 1118TIP3   OH2 3298   1.896   6.662   5.617
 1118TIP3    H1 3299   1.910   6.752   5.586
 1118TIP3    H2 3300   1.946   6.608   5.555
 1119TIP3   OH2 3301   8.250   5.305   4.391
 1119TIP3    H1 3302   8.266   5.239   4.459
 1119TIP3    H2 3303   8.338   5.337   4.368
 1120TIP3   OH2 3304   5.830   1.208   5.217
 1120TIP3    H1 3305   5.909   1.210   5.164
 1120TIP3    H2 3306   5.861   1.208   5.307
 1121TIP3   OH2 3307   3.978   3.142   1.587
 1121TIP3    H1 3308   3.945   3.227   1.617
 1121TIP3    H2 3309   4.006   3.098   1.667
 1122TIP3   OH2 3310   7.559   6.933   5.632
 1122TIP3    H1 3311   7.589   7.010   5.681
 1122TIP3    H2 3312   7.595   6.858   5.679
 1123TIP3   OH2 3313   6.465   4.908   4.023
 1123TIP3    H1 3314   6.439   4.915   4.114
 1123TIP3    H2 3315   6.559   4.922   4.023
 1124TIP3   OH2 3316   3.723   0.766   3.186
 1124TIP3    H1 3317   3.716   0.826   3.261
 1124TIP3    H2 3318   3.781   0.696   3.217
 1125TIP3   OH2 3319   5.851   4.735   4.040
 1125TIP3    H1 3320   5.892   4.817   4.014
 1125TIP3    H2 3321   5.829   4.747   4.132
 1126TIP3   OH2 3322   2.517   5.118   2.895
 1126TIP3    H1 3323   2.599   5.075   2.871
 1126TIP3    H2 3324   2.502   5.091   2.986
 1127TIP3   OH2 3325   3.533   5.062   2.595
 1127TIP3    H1 3326   3.555   4.974   2.626
 1127TIP3    H2 3327   3.540   5.117   2.673
 1128TIP3   OH2 3328   6.893   5.626   2.356
 1128TIP3    H1 3329   6.907   5.716   2.328
 1128TIP3    H2 3330   6.954   5.574   2.304
 1129TIP3   OH2 3331   2.628   0.161   2.834
 1129TIP3    H1 3332   2.616   0.178   2.740
 1129TIP3    H2 3333   2.701   0.100   2.839
 1130TIP3   OH2 3334   0.464   0.570   2.756
 1130TIP3    H1 3335   0.384   0.517   2.757
 1130TIP3    H2 3336   0.487   0.576   2.663
 1131TIP3   OH2 3337   0.169   0.158   4.911
 1131TIP3    H1 3338   0.171   0.231   4.973
 1131TIP3    H2 3339   0.260   0.127   4.906
 1132TIP3   OH2 3340   7.568   6.128   6.169
 1132TIP3    H1 3341   7.498   6.189   6.144
 1132TIP3    H2 3342   7.553   6.051   6.114
 1133TIP3   OH2 3343   4.607   7.621   0.475
 1133TIP3    H1 3344   4.556   7.547   0.509
 1133TIP3    H2 3345   4.677   7.633   0.540
 1134TIP3   OH2 3346   6.467   0.321   0.376
 1134TIP3    H1 3347   6.382   0.359   0.399
 1134TIP3    H2 3348   6.455   0.287   0.288
 1135TIP3   OH2 3349   7.866   2.623   2.480
 1135TIP3    H1 3350   7.918   2.561   2.430
 1135TIP3    H2 3351   7.924   2.653   2.550
 1136TIP3   OH2 3352   0.328   6.477   0.297
 1136TIP3    H1 3353   0.304   6.412   0.363
 1136TIP3    H2 3354   0.333   6.559   0.346
 1137TIP3   OH2 3355   3.611   6.832   2.223
 1137TIP3    H1 3356   3.608   6.919   2.185
 1137TIP3    H2 3357   3.662   6.780   2.161
 1138TIP3   OH2 3358   5.120   7.204   0.508
 1138TIP3    H1 3359   5.208   7.234   0.532
 1138TIP3    H2 3360   5.075   7.194   0.592
 1139TIP3   OH2 3361   2.152   4.868   4.982
 1139TIP3    H1 3362   2.114   4.866   5.070
 1139TIP3    H2 3363   2.169   4.961   4.965
 1140TIP3   OH2 3364   3.748   6.939   4.842
 1140TIP3    H1 3365   3.805   6.960   4.916
 1140TIP3    H2 3366   3.783   6.856   4.808
 1141TIP3   OH2 3367   8.154   3.939   5.624
 1141TIP3    H1 3368   8.232   3.920   5.572
 1141TIP3    H2 3369   8.156   4.034   5.635
 1142TIP3   OH2 3370   3.952   7.725   5.240
 1142TIP3    H1 3371   3.954   7.711   5.335
 1142TIP3    H2 3372   4.006   7.803   5.226
 1143TIP3   OH2 3373   0.667   5.833   5.726
 1143TIP3    H1 3374   0.666   5.790   5.812
 1143TIP3    H2 3375   0.722   5.911   5.740
 1144TIP3   OH2 3376   4.765   3.142   3.717
 1144TIP3    H1 3377   4.792   3.206   3.651
 1144TIP3    H2 3378   4.847   3.100   3.744
 1145TIP3   OH2 3379   7.085   7.517   0.325
 1145TIP3    H1 3380   7.111   7.609   0.327
 1145TIP3    H2 3381   7.081   7.495   0.232
 1146TIP3   OH2 3382   2.253   5.100   5.740
 1146TIP3    H1 3383   2.259   5.146   5.824
 1146TIP3    H2 3384   2.279   5.166   5.676
 1147TIP3   OH2 3385   6.811   2.623   6.370
 1147TIP3    H1 3386   6.744   2.575   6.323
 1147TIP3    H2 3387   6.891   2.608   6.320
 1148TIP3   OH2 3388   3.065   5.215   2.822
 1148TIP3    H1 3389   3.114   5.214   2.904
 1148TIP3    H2 3390   3.077   5.127   2.786
 1149TIP3   OH2 3391   0.547   1.978   4.270
 1149TIP3    H1 3392   0.529   2.055   4.215
 1149TIP3    H2 3393   0.582   1.913   4.208
 1150TIP3   OH2 3394   1.514   5.777   4.823
 1150TIP3    H1 3395   1.532   5.811   4.735
 1150TIP3    H2 3396   1.600   5.752   4.856
 1151TIP3   OH2 3397   5.364   1.045   6.702
 1151TIP3    H1 3398   5.420   0.994   6.643
 1151TIP3    H2 3399   5.383   1.136   6.680
 1152TIP3   OH2 3400   2.814   1.318   3.283
 1152TIP3    H1 3401   2.754   1.393   3.278
 1152TIP3    H2 3402   2.759   1.246   3.315
 1153TIP3   OH2 3403   6.684   6.553   5.242
 1153TIP3    H1 3404   6.661   6.564   5.334
 1153TIP3    H2 3405   6.758   6.613   5.228
 1154TIP3   OH2 3406   6.314   2.219   4.283
 1154TIP3    H1 3407   6.396   2.249   4.243
 1154TIP3    H2 3408   6.269   2.171   4.213
 1155TIP3   OH2 3409   1.208   6.491   5.335
 1155TIP3    H1 3410   1.185   6.460   5.248
 1155TIP3    H2 3411   1.286   6.546   5.322
 1156TIP3   OH2 3412   0.309   1.410   1.007
 1156TIP3    H1 3413   0.378   1.358   0.966
 1156TIP3    H2 3414   0.288   1.478   0.943
 1157TIP3   OH2 3415   3.120   2.632   0.751
 1157TIP3    H1 3416   3.129   2.638   0.656
 1157TIP3    H2 3417   3.067   2.554   0.765
 1158TIP3   OH2 3418   4.226   2.931   5.110
 1158TIP3    H1 3419   4.286   2.864   5.143
 1158TIP3    H2 3420   4.258   2.949   5.021
 1159TIP3   OH2 3421   5.648   7.719   3.523
 1159TIP3    H1 3422   5.657   7.772   3.603
 1159TIP3    H2 3423   5.587   7.769   3.468
 1160TIP3   OH2 3424   1.221   6.808   2.175
 1160TIP3    H1 3425   1.168   6.834   2.099
 1160TIP3    H2 3426   1.264   6.889   2.204
 1161TIP3   OH2 3427   0.138   2.577   2.153
 1161TIP3    H1 3428   0.132   2.592   2.059
 1161TIP3    H2 3429   0.098   2.491   2.167
 1162TIP3   OH2 3430   8.172   3.612   6.563
 1162TIP3    H1 3431   8.108   3.562   6.511
 1162TIP3    H2 3432   8.123   3.642   6.639
 1163TIP3   OH2 3433   2.670   3.662   0.492
 1163TIP3    H1 3434   2.650   3.753   0.471
 1163TIP3    H2 3435   2.662   3.656   0.587
 1164TIP3   OH2 3436   3.446   3.971   6.383
 1164TIP3    H1 3437   3.413   3.945   6.297
 1164TIP3    H2 3438   3.388   4.042   6.411
 1165TIP3   OH2 3439   3.072   2.110   5.043
 1165TIP3    H1 3440   3.113   2.197   5.042
 1165TIP3    H2 3441   3.055   2.094   5.136
 1166TIP3   OH2 3442   4.396   1.893   4.483
 1166TIP3    H1 3443   4.418   1.918   4.572
 1166TIP3    H2 3444   4.465   1.932   4.429
 1167TIP3   OH2 3445   5.862   0.938   3.200
 1167TIP3    H1 3446   5.923   0.886   3.148
 1167TIP3    H2 3447   5.917   0.992   3.256
 1168TIP3   OH2 3448   4.761   0.103   2.623
 1168TIP3    H1 3449   4.680   0.152   2.611
 1168TIP3    H2 3450   4.820   0.166   2.666
 1169TIP3   OH2 3451   7.128   5.208   2.232
 1169TIP3    H1 3452   7.181   5.139   2.190
 1169TIP3    H2 3453   7.163   5.214   2.321
 1170TIP3   OH2 3454   4.584   0.486   5.679
 1170TIP3    H1 3455   4.533   0.531   5.612
 1170TIP3    H2 3456   4.629   0.555   5.727
 1171TIP3   OH2 3457   3.609   6.195   3.903
 1171TIP3    H1 3458   3.521   6.161   3.885
 1171TIP3    H2 3459   3.651   6.199   3.818
 1172TIP3   OH2 3460   2.052   7.654   3.534
 1172TIP3    H1 3461   2.023   7.598   3.606
 1172TIP3    H2 3462   2.035   7.743   3.565
 1173TIP3   OH2 3463   7.065   2.875   5.460
 1173TIP3    H1 3464   7.000   2.820   5.416
 1173TIP3    H2 3465   7.016   2.919   5.529
 1174TIP3   OH2 3466   8.089   5.199   2.106
 1174TIP3    H1 3467   8.110   5.108   2.127
 1174TIP3    H2 3468   8.082   5.243   2.191
 1175TIP3   OH2 3469   6.440   0.064   2.265
 1175TIP3    H1 3470   6.455  -0.007   2.203
 1175TIP3    H2 3471   6.524   0.109   2.270
 1176TIP3   OH2 3472   2.548   0.045   1.548
 1176TIP3    H1 3473   2.570   0.076   1.636
 1176TIP3    H2 3474   2.465   0.088   1.528
 1177TIP3   OH2 3475   5.928   1.791   0.037
 1177TIP3    H1 3476   5.949   1.810  -0.054
 1177TIP3    H2 3477   5.929   1.877   0.080
 1178TIP3   OH2 3478   2.806   2.617   3.667
 1178TIP3    H1 3479   2.774   2.623   3.757
 1178TIP3    H2 3480   2.800   2.524   3.646
 1179TIP3   OH2 3481   0.726   7.300   0.512
 1179TIP3    H1 3482   0.812   7.341   0.504
 1179TIP3    H2 3483   0.667   7.371   0.538
 1180TIP3   OH2 3484   7.827   6.746   3.408
 1180TIP3    H1 3485   7.882   6.772   3.481
 1180TIP3    H2 3486   7.778   6.670   3.440
 1181TIP3   OH2 3487   2.351   0.693   0.316
 1181TIP3    H1 3488   2.316   0.674   0.229
 1181TIP3    H2 3489   2.396   0.777   0.305
 1182TIP3   OH2 3490   5.117   5.943   3.900
 1182TIP3    H1 3491   5.136   6.009   3.966
 1182TIP3    H2 3492   5.021   5.941   3.895
 1183TIP3   OH2 3493   7.727   4.773   0.066
 1183TIP3    H1 3494   7.793   4.818   0.119
 1183TIP3    H2 3495   7.651   4.832   0.068
 1184TIP3   OH2 3496   1.405   6.881   2.661
 1184TIP3    H1 3497   1.321   6.868   2.617
 1184TIP3    H2 3498   1.469   6.888   2.589
 1185TIP3   OH2 3499   4.251   2.571   6.331
 1185TIP3    H1 3500   4.274   2.480   6.348
 1185TIP3    H2 3501   4.184   2.567   6.263
 1186TIP3   OH2 3502   7.801   5.764   0.845
 1186TIP3    H1 3503   7.763   5.712   0.775
 1186TIP3    H2 3504   7.869   5.708   0.883
 1187TIP3   OH2 3505   4.301   6.495   4.545
 1187TIP3    H1 3506   4.373   6.486   4.607
 1187TIP3    H2 3507   4.322   6.574   4.494
 1188TIP3   OH2 3508   2.527   2.552   2.913
 1188TIP3    H1 3509   2.618   2.574   2.896
 1188TIP3    H2 3510   2.489   2.632   2.950
 1189TIP3   OH2 3511   4.751   3.557   5.003
 1189TIP3    H1 3512   4.750   3.465   5.027
 1189TIP3    H2 3513   4.659   3.584   5.008
 1190TIP3   OH2 3514   7.107   5.026   3.095
 1190TIP3    H1 3515   7.190   5.002   3.136
 1190TIP3    H2 3516   7.132   5.063   3.011
 1191TIP3   OH2 3517   4.617   6.798   0.612
 1191TIP3    H1 3518   4.676   6.729   0.582
 1191TIP3    H2 3519   4.549   6.802   0.544
 1192TIP3   OH2 3520   5.211   4.141   5.050
 1192TIP3    H1 3521   5.116   4.148   5.059
 1192TIP3    H2 3522   5.224   4.094   4.968
 1193TIP3   OH2 3523   4.572   4.345   2.689
 1193TIP3    H1 3524   4.548   4.319   2.600
 1193TIP3    H2 3525   4.498   4.319   2.743
 1194TIP3   OH2 3526   2.144   5.888   3.580
 1194TIP3    H1 3527   2.151   5.794   3.567
 1194TIP3    H2 3528   2.089   5.918   3.508
 1195TIP3   OH2 3529   6.411   7.407   1.207
 1195TIP3    H1 3530   6.454   7.358   1.277
 1195TIP3    H2 3531   6.479   7.465   1.172
 1196TIP3   OH2 3532   1.381   0.906   2.427
 1196TIP3    H1 3533   1.301   0.883   2.474
 1196TIP3    H2 3534   1.351   0.949   2.347
 1197TIP3   OH2 3535   0.547   4.138   6.328
 1197TIP3    H1 3536   0.564   4.173   6.240
 1197TIP3    H2 3537   0.569   4.045   6.321
 1198TIP3   OH2 3538   1.063   4.123   4.247
 1198TIP3    H1 3539   1.061   4.103   4.153
 1198TIP3    H2 3540   1.058   4.218   4.252
 1199TIP3   OH2 3541   1.886   4.013   0.820
 1199TIP3    H1 3542   1.961   4.059   0.784
 1199TIP3    H2 3543   1.905   3.920   0.807
 1200TIP3   OH2 3544   8.114   0.928   3.900
 1200TIP3    H1 3545   8.092   0.858   3.962
 1200TIP3    H2 3546   8.156   0.883   3.827
 1201TIP3   OH2 3547   0.825   6.430   0.647
 1201TIP3    H1 3548   0.813   6.488   0.723
 1201TIP3    H2 3549   0.738   6.394   0.631
 1202TIP3   OH2 3550   6.668   3.791   0.616
 1202TIP3    H1 3551   6.720   3.754   0.545
 1202TIP3    H2 3552   6.620   3.717   0.653
 1203TIP3   OH2 3553   2.289   5.837   2.035
 1203TIP3    H1 3554   2.370   5.814   2.081
 1203TIP3    H2 3555   2.298   5.794   1.950
 1204TIP3   OH2 3556   2.836   4.305   4.839
 1204TIP3    H1 3557   2.849   4.236   4.904
 1204TIP3    H2 3558   2.907   4.368   4.857
 1205TIP3   OH2 3559   2.295   6.742   4.306
 1205TIP3    H1 3560   2.304   6.709   4.216
 1205TIP3    H2 3561   2.312   6.667   4.361
 1206TIP3   OH2 3562   1.369   6.420   1.504
 1206TIP3    H1 3563   1.396   6.381   1.587
 1206TIP3    H2 3564   1.332   6.505   1.528
 1207TIP3   OH2 3565   1.392   4.785   1.660
 1207TIP3    H1 3566   1.310   4.790   1.610
 1207TIP3    H2 3567   1.371   4.826   1.744
 1208TIP3   OH2 3568   5.130   2.228   6.704
 1208TIP3    H1 3569   5.145   2.147   6.656
 1208TIP3    H2 3570   5.093   2.288   6.640
 1209TIP3   OH2 3571   7.584   0.901   1.138
 1209TIP3    H1 3572   7.640   0.901   1.060
 1209TIP3    H2 3573   7.551   0.811   1.143
 1210TIP3   OH2 3574   7.436   5.328   1.855
 1210TIP3    H1 3575   7.528   5.302   1.861
 1210TIP3    H2 3576   7.397   5.267   1.792
 1211TIP3   OH2 3577   0.670   3.853   1.361
 1211TIP3    H1 3578   0.663   3.759   1.345
 1211TIP3    H2 3579   0.656   3.863   1.455
 1212TIP3   OH2 3580   1.428   1.391   0.545
 1212TIP3    H1 3581   1.418   1.401   0.640
 1212TIP3    H2 3582   1.359   1.331   0.520
 1213TIP3   OH2 3583   4.841   0.928   1.402
 1213TIP3    H1 3584   4.801   0.842   1.390
 1213TIP3    H2 3585   4.934   0.914   1.384
 1214TIP3   OH2 3586   4.210   1.066   3.617
 1214TIP3    H1 3587   4.251   1.022   3.542
 1214TIP3    H2 3588   4.121   1.085   3.588
 1215TIP3   OH2 3589   6.271   3.927   1.670
 1215TIP3    H1 3590   6.283   3.962   1.758
 1215TIP3    H2 3591   6.177   3.934   1.654
 1216TIP3   OH2 3592   2.195   0.805   3.671
 1216TIP3    H1 3593   2.269   0.760   3.629
 1216TIP3    H2 3594   2.169   0.747   3.742
 1217TIP3   OH2 3595   8.151   2.670   3.281
 1217TIP3    H1 3596   8.056   2.679   3.286
 1217TIP3    H2 3597   8.175   2.631   3.365
 1218TIP3   OH2 3598   0.372   6.430   0.742
 1218TIP3    H1 3599   0.399   6.502   0.799
 1218TIP3    H2 3600   0.313   6.377   0.797
 1219TIP3   OH2 3601   1.935   4.430   1.739
 1219TIP3    H1 3602   1.855   4.379   1.727
 1219TIP3    H2 3603   2.005   4.365   1.737
 1220TIP3   OH2 3604   6.660   5.849   5.434
 1220TIP3    H1 3605   6.694   5.842   5.345
 1220TIP3    H2 3606   6.681   5.938   5.461
 1221TIP3   OH2 3607   0.959   6.495   1.369
 1221TIP3    H1 3608   0.985   6.530   1.284
 1221TIP3    H2 3609   0.871   6.459   1.354
 1222TIP3   OH2 3610   5.222   2.423   6.171
 1222TIP3    H1 3611   5.165   2.431   6.095
 1222TIP3    H2 3612   5.198   2.496   6.228
 1223TIP3   OH2 3613   3.695   6.702   1.717
 1223TIP3    H1 3614   3.634   6.628   1.713
 1223TIP3    H2 3615   3.773   6.672   1.670
 1224TIP3   OH2 3616   6.507   1.488   0.392
 1224TIP3    H1 3617   6.520   1.395   0.410
 1224TIP3    H2 3618   6.595   1.522   0.373
 1225TIP3   OH2 3619   0.989   1.997   1.633
 1225TIP3    H1 3620   0.980   2.091   1.620
 1225TIP3    H2 3621   0.933   1.977   1.708
 1226TIP3   OH2 3622   1.478   1.409   4.703
 1226TIP3    H1 3623   1.447   1.427   4.614
 1226TIP3    H2 3624   1.423   1.337   4.733
 1227TIP3   OH2 3625   5.147   6.357   2.836
 1227TIP3    H1 3626   5.168   6.381   2.745
 1227TIP3    H2 3627   5.226   6.378   2.885
 1228TIP3   OH2 3628   1.482   2.117   1.054
 1228TIP3    H1 3629   1.523   2.099   0.969
 1228TIP3    H2 3630   1.468   2.030   1.092
 1229TIP3   OH2 3631   2.936   6.735   2.320
 1229TIP3    H1 3632   2.934   6.641   2.299
 1229TIP3    H2 3633   2.973   6.739   2.408
 1230TIP3   OH2 3634   5.558   6.729   6.501
 1230TIP3    H1 3635   5.604   6.757   6.422
 1230TIP3    H2 3636   5.599   6.647   6.526
 1231TIP3   OH2 3637   8.123   4.168   6.431
 1231TIP3    H1 3638   8.206   4.139   6.395
 1231TIP3    H2 3639   8.145   4.246   6.482
 1232TIP3   OH2 3640   1.043   2.679   1.128
 1232TIP3    H1 3641   1.022   2.703   1.038
 1232TIP3    H2 3642   0.983   2.731   1.182
 1233TIP3   OH2 3643   2.824   5.640   2.426
 1233TIP3    H1 3644   2.901   5.645   2.483
 1233TIP3    H2 3645   2.791   5.551   2.438
 1234TIP3   OH2 3646   0.902   0.604   1.897
 1234TIP3    H1 3647   0.914   0.673   1.832
 1234TIP3    H2 3648   0.991   0.584   1.928
 1235TIP3   OH2 3649   5.588   3.029   4.590
 1235TIP3    H1 3650   5.535   2.980   4.653
 1235TIP3    H2 3651   5.618   3.106   4.638
 1236TIP3   OH2 3652   3.338   3.743   1.836
 1236TIP3    H1 3653   3.407   3.757   1.902
 1236TIP3    H2 3654   3.385   3.736   1.753
 1237TIP3   OH2 3655   2.500   0.460   1.535
 1237TIP3    H1 3656   2.442   0.462   1.611
 1237TIP3    H2 3657   2.442   0.474   1.460
 1238TIP3   OH2 3658   2.107   1.428   0.772
 1238TIP3    H1 3659   2.044   1.368   0.732
 1238TIP3    H2 3660   2.126   1.389   0.857
 1239TIP3   OH2 3661   7.651   3.513   2.419
 1239TIP3    H1 3662   7.666   3.580   2.485
 1239TIP3    H2 3663   7.560   3.484   2.434
 1240TIP3   OH2 3664   0.736   5.356   3.255
 1240TIP3    H1 3665   0.745   5.261   3.265
 1240TIP3    H2 3666   0.641   5.370   3.250
 1241TIP3   OH2 3667   6.625   5.879   2.218
 1241TIP3    H1 3668   6.638   5.925   2.135
 1241TIP3    H2 3669   6.709   5.888   2.263
 1242TIP3   OH2 3670   5.757   4.831   4.819
 1242TIP3    H1 3671   5.838   4.850   4.868
 1242TIP3    H2 3672   5.766   4.740   4.793
 1243TIP3   OH2 3673   7.683   0.103   2.683
 1243TIP3    H1 3674   7.733   0.051   2.747
 1243TIP3    H2 3675   7.716   0.073   2.598
 1244TIP3   OH2 3676   4.589   6.335   6.703
 1244TIP3    H1 3677   4.525   6.386   6.752
 1244TIP3    H2 3678   4.650   6.302   6.769
 1245TIP3   OH2 3679   3.485   7.478   5.318
 1245TIP3    H1 3680   3.468   7.389   5.350
 1245TIP3    H2 3681   3.403   7.524   5.333
 1246TIP3   OH2 3682   2.820   1.649   2.919
 1246TIP3    H1 3683   2.868   1.723   2.955
 1246TIP3    H2 3684   2.888   1.588   2.890
 1247TIP3   OH2 3685   7.681   0.860   3.679
 1247TIP3    H1 3686   7.630   0.928   3.635
 1247TIP3    H2 3687   7.770   0.896   3.683
 1248TIP3   OH2 3688   4.149   3.249   0.766
 1248TIP3    H1 3689   4.135   3.336   0.803
 1248TIP3    H2 3690   4.218   3.260   0.701
 1249TIP3   OH2 3691   6.251   7.379   4.479
 1249TIP3    H1 3692   6.298   7.379   4.562
 1249TIP3    H2 3693   6.242   7.471   4.456
 1250TIP3   OH2 3694   0.714   7.848   3.868
 1250TIP3    H1 3695   0.759   7.817   3.789
 1250TIP3    H2 3696   0.771   7.917   3.903
 1251TIP3   OH2 3697   4.611   1.242   1.332
 1251TIP3    H1 3698   4.649   1.325   1.304
 1251TIP3    H2 3699   4.518   1.261   1.346
 1252TIP3   OH2 3700   2.777   7.145   3.762
 1252TIP3    H1 3701   2.764   7.237   3.738
 1252TIP3    H2 3702   2.859   7.144   3.812
 1253TIP3   OH2 3703   2.278   1.100   1.237
 1253TIP3    H1 3704   2.301   1.034   1.303
 1253TIP3    H2 3705   2.185   1.118   1.252
 1254TIP3   OH2 3706   4.536   1.265   3.811
 1254TIP3    H1 3707   4.587   1.201   3.862
 1254TIP3    H2 3708   4.540   1.345   3.863
 1255TIP3   OH2 3709   7.562   3.759   0.779
 1255TIP3    H1 3710   7.509   3.819   0.726
 1255TIP3    H2 3711   7.500   3.689   0.803
 1256TIP3   OH2 3712   0.640   6.357   0.883
 1256TIP3    H1 3713   0.573   6.361   0.815
 1256TIP3    H2 3714   0.660   6.449   0.903
 1257TIP3   OH2 3715   7.247   2.337   5.875
 1257TIP3    H1 3716   7.191   2.285   5.817
 1257TIP3    H2 3717   7.332   2.292   5.873
 1258TIP3   OH2 3718   8.012   0.198   6.498
 1258TIP3    H1 3719   8.050   0.185   6.585
 1258TIP3    H2 3720   7.931   0.245   6.514
 1259TIP3   OH2 3721   5.364   4.286   5.574
 1259TIP3    H1 3722   5.353   4.273   5.480
 1259TIP3    H2 3723   5.341   4.377   5.589
 1260TIP3   OH2 3724   3.206   4.922   0.144
 1260TIP3    H1 3725   3.282   4.971   0.111
 1260TIP3    H2 3726   3.230   4.898   0.234
 1261TIP3   OH2 3727   1.679   1.083   4.065
 1261TIP3    H1 3728   1.740   1.096   3.992
 1261TIP3    H2 3729   1.596   1.116   4.033
 1262TIP3   OH2 3730   2.607   2.806   0.294
 1262TIP3    H1 3731   2.523   2.848   0.279
 1262TIP3    H2 3732   2.606   2.728   0.238
 1263TIP3   OH2 3733   5.124   5.050   3.862
 1263TIP3    H1 3734   5.126   5.116   3.931
 1263TIP3    H2 3735   5.215   5.045   3.831
 1264TIP3   OH2 3736   0.645   0.040   5.545
 1264TIP3    H1 3737   0.650   0.035   5.449
 1264TIP3    H2 3738   0.557   0.076   5.562
 1265TIP3   OH2 3739   7.051   6.051   0.179
 1265TIP3    H1 3740   7.071   6.130   0.229
 1265TIP3    H2 3741   7.062   6.077   0.087
 1266TIP3   OH2 3742   1.248   5.666   4.993
 1266TIP3    H1 3743   1.166   5.619   5.003
 1266TIP3    H2 3744   1.235   5.721   4.915
 1267TIP3   OH2 3745   3.094   1.327   2.375
 1267TIP3    H1 3746   3.001   1.333   2.352
 1267TIP3    H2 3747   3.095   1.283   2.460
 1268TIP3   OH2 3748   6.254   5.357   2.085
 1268TIP3    H1 3749   6.231   5.280   2.137
 1268TIP3    H2 3750   6.234   5.432   2.142
 1269TIP3   OH2 3751   2.599   6.667   4.329
 1269TIP3    H1 3752   2.685   6.676   4.287
 1269TIP3    H2 3753   2.580   6.573   4.323
 1270TIP3   OH2 3754   2.507   5.088   4.793
 1270TIP3    H1 3755   2.424   5.118   4.759
 1270TIP3    H2 3756   2.489   4.999   4.825
 1271TIP3   OH2 3757   7.858   5.155   0.431
 1271TIP3    H1 3758   7.922   5.227   0.436
 1271TIP3    H2 3759   7.826   5.158   0.341
 1272TIP3   OH2 3760   4.117   7.037   6.832
 1272TIP3    H1 3761   4.049   7.042   6.764
 1272TIP3    H2 3762   4.187   6.985   6.793
 1273TIP3   OH2 3763   0.705   6.494   2.728
 1273TIP3    H1 3764   0.788   6.455   2.756
 1273TIP3    H2 3765   0.729   6.576   2.686
 1274TIP3   OH2 3766   4.053   2.034   1.032
 1274TIP3    H1 3767   4.109   1.958   1.046
 1274TIP3    H2 3768   3.975   1.999   0.991
 1275TIP3   OH2 3769   2.355   4.430   2.939
 1275TIP3    H1 3770   2.437   4.424   2.891
 1275TIP3    H2 3771   2.369   4.377   3.018
 1276TIP3   OH2 3772   6.450   2.361   2.371
 1276TIP3    H1 3773   6.481   2.443   2.408
 1276TIP3    H2 3774   6.472   2.295   2.437
 1277TIP3   OH2 3775   1.752   7.144   2.604
 1277TIP3    H1 3776   1.799   7.196   2.539
 1277TIP3    H2 3777   1.740   7.204   2.678
 1278TIP3   OH2 3778   7.367   2.692   1.773
 1278TIP3    H1 3779   7.425   2.724   1.704
 1278TIP3    H2 3780   7.335   2.772   1.816
 1279TIP3   OH2 3781   5.469   4.234   3.584
 1279TIP3    H1 3782   5.417   4.157   3.610
 1279TIP3    H2 3783   5.441   4.303   3.644
 1280TIP3   OH2 3784   4.357   5.813   5.068
 1280TIP3    H1 3785   4.439   5.793   5.111
 1280TIP3    H2 3786   4.303   5.853   5.136
 1281TIP3   OH2 3787   2.193   0.248   0.553
 1281TIP3    H1 3788   2.287   0.263   0.557
 1281TIP3    H2 3789   2.154   0.327   0.590
 1282TIP3   OH2 3790   0.559   5.566   4.546
 1282TIP3    H1 3791   0.576   5.570   4.452
 1282TIP3    H2 3792   0.517   5.650   4.567
 1283TIP3   OH2 3793   7.416   6.708   0.402
 1283TIP3    H1 3794   7.446   6.776   0.341
 1283TIP3    H2 3795   7.349   6.751   0.454
 1284TIP3   OH2 3796   7.920   1.320   4.338
 1284TIP3    H1 3797   7.846   1.325   4.277
 1284TIP3    H2 3798   7.979   1.390   4.311
 1285TIP3   OH2 3799   5.405   1.887   1.484
 1285TIP3    H1 3800   5.324   1.897   1.533
 1285TIP3    H2 3801   5.461   1.958   1.515
 1286TIP3   OH2 3802   6.209   7.289   4.952
 1286TIP3    H1 3803   6.137   7.351   4.942
 1286TIP3    H2 3804   6.205   7.262   5.044
 1287TIP3   OH2 3805   5.048   1.664   2.748
 1287TIP3    H1 3806   5.054   1.572   2.723
 1287TIP3    H2 3807   4.959   1.675   2.780
 1288TIP3   OH2 3808   1.438   4.523   1.764
 1288TIP3    H1 3809   1.448   4.445   1.709
 1288TIP3    H2 3810   1.437   4.596   1.702
 1289TIP3   OH2 3811   0.368   3.404   0.317
 1289TIP3    H1 3812   0.461   3.389   0.297
 1289TIP3    H2 3813   0.322   3.334   0.271
 1290TIP3   OH2 3814   8.035   5.404   0.859
 1290TIP3    H1 3815   8.056   5.496   0.873
 1290TIP3    H2 3816   8.120   5.360   0.857
 1291TIP3   OH2 3817   6.423   0.279   4.725
 1291TIP3    H1 3818   6.500   0.236   4.764
 1291TIP3    H2 3819   6.399   0.347   4.788
 1292TIP3   OH2 3820   4.234   4.063   2.386
 1292TIP3    H1 3821   4.149   4.098   2.359
 1292TIP3    H2 3822   4.276   4.039   2.303
 1293TIP3   OH2 3823   5.172   2.218   3.384
 1293TIP3    H1 3824   5.229   2.258   3.450
 1293TIP3    H2 3825   5.180   2.275   3.308
 1294TIP3   OH2 3826   1.038   2.343   4.408
 1294TIP3    H1 3827   0.997   2.346   4.495
 1294TIP3    H2 3828   1.056   2.434   4.387
 1295TIP3   OH2 3829   5.075   7.046   5.999
 1295TIP3    H1 3830   5.073   7.013   6.089
 1295TIP3    H2 3831   5.060   7.140   6.008
 1296TIP3   OH2 3832   3.281   6.204   6.111
 1296TIP3    H1 3833   3.279   6.177   6.020
 1296TIP3    H2 3834   3.359   6.259   6.118
 1297TIP3   OH2 3835   0.609   2.596   2.018
 1297TIP3    H1 3836   0.638   2.687   2.013
 1297TIP3    H2 3837   0.554   2.584   1.941
 1298TIP3   OH2 3838   0.372   4.558   4.060
 1298TIP3    H1 3839   0.377   4.582   3.967
 1298TIP3    H2 3840   0.280   4.535   4.074
 1299TIP3   OH2 3841   6.990   4.172   5.380
 1299TIP3    H1 3842   6.984   4.236   5.310
 1299TIP3    H2 3843   7.075   4.130   5.368
 1300TIP3   OH2 3844   3.975   7.162   1.146
 1300TIP3    H1 3845   3.924   7.086   1.120
 1300TIP3    H2 3846   4.063   7.145   1.111
 1301TIP3   OH2 3847   6.939   6.438   2.152
 1301TIP3    H1 3848   6.995   6.372   2.191
 1301TIP3    H2 3849   6.993   6.517   2.146
 1302TIP3   OH2 3850   3.406   5.022   4.992
 1302TIP3    H1 3851   3.323   4.992   5.030
 1302TIP3    H2 3852   3.380   5.073   4.915
 1303TIP3   OH2 3853   0.495   0.030   2.402
 1303TIP3    H1 3854   0.497   0.108   2.346
 1303TIP3    H2 3855   0.585  -0.002   2.401
 1304TIP3   OH2 3856   7.990   6.942   3.577
 1304TIP3    H1 3857   8.051   6.957   3.504
 1304TIP3    H2 3858   7.990   7.025   3.625
 1305TIP3   OH2 3859   8.170   3.815   1.933
 1305TIP3    H1 3860   8.148   3.863   2.013
 1305TIP3    H2 3861   8.108   3.742   1.932
 1306TIP3   OH2 3862   5.948   3.697   6.262
 1306TIP3    H1 3863   5.951   3.696   6.357
 1306TIP3    H2 3864   5.979   3.784   6.237
 1307TIP3   OH2 3865   7.457   2.002   6.369
 1307TIP3    H1 3866   7.465   1.929   6.431
 1307TIP3    H2 3867   7.521   1.982   6.301
 1308TIP3   OH2 3868   4.508   3.874   3.107
 1308TIP3    H1 3869   4.498   3.839   3.196
 1308TIP3    H2 3870   4.602   3.863   3.088
 1309TIP3   OH2 3871   1.029   4.269   0.335
 1309TIP3    H1 3872   1.030   4.335   0.405
 1309TIP3    H2 3873   1.117   4.233   0.335
 1310TIP3   OH2 3874   2.008   2.096   1.544
 1310TIP3    H1 3875   1.996   2.023   1.606
 1310TIP3    H2 3876   2.046   2.166   1.597
 1311TIP3   OH2 3877   4.761   0.683   1.272
 1311TIP3    H1 3878   4.782   0.676   1.179
 1311TIP3    H2 3879   4.665   0.681   1.275
 1312TIP3   OH2 3880   0.717   7.032   2.431
 1312TIP3    H1 3881   0.682   7.106   2.381
 1312TIP3    H2 3882   0.660   6.959   2.407
 1313TIP3   OH2 3883   5.076   7.349   5.538
 1313TIP3    H1 3884   5.021   7.273   5.551
 1313TIP3    H2 3885   5.091   7.383   5.626
 1314TIP3   OH2 3886   4.033   3.008   5.836
 1314TIP3    H1 3887   4.120   2.970   5.838
 1314TIP3    H2 3888   4.008   3.007   5.743
 1315TIP3   OH2 3889   2.657   7.357   4.256
 1315TIP3    H1 3890   2.647   7.449   4.233
 1315TIP3    H2 3891   2.746   7.350   4.291
 1316TIP3   OH2 3892   5.683   7.658   3.917
 1316TIP3    H1 3893   5.652   7.743   3.888
 1316TIP3    H2 3894   5.642   7.595   3.858
 1317TIP3   OH2 3895   5.579   4.442   5.849
 1317TIP3    H1 3896   5.581   4.370   5.786
 1317TIP3    H2 3897   5.657   4.494   5.828
 1318TIP3   OH2 3898   3.582   5.612   2.123
 1318TIP3    H1 3899   3.640   5.579   2.055
 1318TIP3    H2 3900   3.513   5.546   2.131
 1319TIP3   OH2 3901   6.740   5.083   5.154
 1319TIP3    H1 3902   6.692   5.011   5.195
 1319TIP3    H2 3903   6.777   5.131   5.228
 1320TIP3   OH2 3904  -0.012   5.575   1.051
 1320TIP3    H1 3905  -0.007   5.588   1.146
 1320TIP3    H2 3906   0.007   5.482   1.039
 1321TIP3   OH2 3907   6.796   0.271   4.249
 1321TIP3    H1 3908   6.786   0.359   4.284
 1321TIP3    H2 3909   6.870   0.277   4.190
 1322TIP3   OH2 3910   7.548   0.278   3.248
 1322TIP3    H1 3911   7.513   0.215   3.311
 1322TIP3    H2 3912   7.584   0.224   3.177
 1323TIP3   OH2 3913   7.399   5.067   4.834
 1323TIP3    H1 3914   7.356   5.058   4.920
 1323TIP3    H2 3915   7.331   5.043   4.771
 1324TIP3   OH2 3916   2.239   3.364   6.344
 1324TIP3    H1 3917   2.247   3.457   6.365
 1324TIP3    H2 3918   2.163   3.334   6.394
 1325TIP3   OH2 3919   2.194   3.038   4.101
 1325TIP3    H1 3920   2.226   2.954   4.069
 1325TIP3    H2 3921   2.122   3.015   4.160
 1326TIP3   OH2 3922   7.717   2.519   3.732
 1326TIP3    H1 3923   7.759   2.573   3.799
 1326TIP3    H2 3924   7.774   2.525   3.656
 1327TIP3   OH2 3925   6.219   2.689   5.238
 1327TIP3    H1 3926   6.162   2.766   5.240
 1327TIP3    H2 3927   6.174   2.625   5.293
 1328TIP3   OH2 3928   7.927   1.406   3.884
 1328TIP3    H1 3929   7.910   1.398   3.790
 1328TIP3    H2 3930   8.022   1.414   3.891
 1329TIP3   OH2 3931   3.132   6.843   3.753
 1329TIP3    H1 3932   3.085   6.926   3.744
 1329TIP3    H2 3933   3.209   6.853   3.697
 1330TIP3   OH2 3934   1.427   7.154   2.745
 1330TIP3    H1 3935   1.447   7.061   2.748
 1330TIP3    H2 3936   1.361   7.167   2.813
 1331TIP3   OH2 3937   5.944   7.066   3.608
 1331TIP3    H1 3938   5.990   7.014   3.542
 1331TIP3    H2 3939   5.852   7.050   3.591
 1332TIP3   OH2 3940   7.141   7.673   1.666
 1332TIP3    H1 3941   7.064   7.640   1.618
 1332TIP3    H2 3942   7.192   7.720   1.599
 1333TIP3   OH2 3943   5.836   3.883   5.074
 1333TIP3    H1 3944   5.837   3.840   4.988
 1333TIP3    H2 3945   5.750   3.864   5.109
 1334TIP3   OH2 3946   5.323   3.587   5.513
 1334TIP3    H1 3947   5.290   3.515   5.566
 1334TIP3    H2 3948   5.273   3.583   5.431
 1335TIP3   OH2 3949   3.216   3.358   3.094
 1335TIP3    H1 3950   3.264   3.313   3.163
 1335TIP3    H2 3951   3.279   3.366   3.022
 1336TIP3   OH2 3952   2.567   6.656   4.944
 1336TIP3    H1 3953   2.516   6.725   4.984
 1336TIP3    H2 3954   2.619   6.619   5.015
 1337TIP3   OH2 3955   0.028   4.496   6.266
 1337TIP3    H1 3956  -0.036   4.561   6.295
 1337TIP3    H2 3957   0.105   4.513   6.319
 1338TIP3   OH2 3958   2.535   4.470   5.346
 1338TIP3    H1 3959   2.557   4.556   5.381
 1338TIP3    H2 3960   2.617   4.436   5.309
 1339TIP3   OH2 3961   7.949   4.501   6.680
 1339TIP3    H1 3962   8.004   4.454   6.617
 1339TIP3    H2 3963   7.914   4.575   6.631
 1340TIP3   OH2 3964   7.733   0.785   0.911
 1340TIP3    H1 3965   7.642   0.811   0.894
 1340TIP3    H2 3966   7.750   0.716   0.848
 1341TIP3   OH2 3967   6.216   4.295   5.254
 1341TIP3    H1 3968   6.297   4.243   5.255
 1341TIP3    H2 3969   6.208   4.328   5.344
 1342TIP3   OH2 3970   7.997   3.019   6.289
 1342TIP3    H1 3971   8.003   3.105   6.248
 1342TIP3    H2 3972   7.915   2.983   6.256
 1343TIP3   OH2 3973   6.244   5.190   2.698
 1343TIP3    H1 3974   6.339   5.195   2.702
 1343TIP3    H2 3975   6.220   5.241   2.621
 1344TIP3   OH2 3976   3.275   4.898   1.680
 1344TIP3    H1 3977   3.311   4.944   1.604
 1344TIP3    H2 3978   3.201   4.848   1.645
 1345TIP3   OH2 3979   3.768   3.657   5.278
 1345TIP3    H1 3980   3.811   3.663   5.193
 1345TIP3    H2 3981   3.733   3.745   5.293
 1346TIP3   OH2 3982   8.215   3.704   3.427
 1346TIP3    H1 3983   8.291   3.745   3.388
 1346TIP3    H2 3984   8.197   3.628   3.371
 1347TIP3   OH2 3985   5.078   4.352   6.338
 1347TIP3    H1 3986   5.143   4.354   6.267
 1347TIP3    H2 3987   5.016   4.284   6.312
 1348TIP3   OH2 3988   4.437   3.170   6.622
 1348TIP3    H1 3989   4.497   3.113   6.573
 1348TIP3    H2 3990   4.486   3.251   6.634
 1349TIP3   OH2 3991   6.148   0.444   3.254
 1349TIP3    H1 3992   6.094   0.487   3.320
 1349TIP3    H2 3993   6.111   0.472   3.171
 1350TIP3   OH2 3994   3.567   5.349   0.682
 1350TIP3    H1 3995   3.514   5.274   0.707
 1350TIP3    H2 3996   3.648   5.339   0.732
 1351TIP3   OH2 3997   0.021   0.996   0.121
 1351TIP3    H1 3998   0.029   1.051   0.044
 1351TIP3    H2 3999  -0.070   0.967   0.121
 1352TIP3   OH2 4000   1.179   4.180   2.827
 1352TIP3    H1 4001   1.230   4.106   2.860
 1352TIP3    H2 4002   1.224   4.257   2.859
 1353TIP3   OH2 4003   7.646   4.291   1.508
 1353TIP3    H1 4004   7.726   4.239   1.504
 1353TIP3    H2 4005   7.605   4.281   1.422
 1354TIP3   OH2 4006   6.445   7.686   3.425
 1354TIP3    H1 4007   6.354   7.682   3.395
 1354TIP3    H2 4008   6.489   7.744   3.361
 1355TIP3   OH2 4009   1.847   0.147   0.679
 1355TIP3    H1 4010   1.928   0.107   0.709
 1355TIP3    H2 4011   1.793   0.156   0.758
 1356TIP3   OH2 4012   2.437   2.884   3.239
 1356TIP3    H1 4013   2.420   2.884   3.333
 1356TIP3    H2 4014   2.516   2.937   3.229
 1357TIP3   OH2 4015   4.379   1.530   4.825
 1357TIP3    H1 4016   4.437   1.542   4.750
 1357TIP3    H2 4017   4.348   1.440   4.816
 1358TIP3   OH2 4018   0.813   1.799   3.035
 1358TIP3    H1 4019   0.805   1.796   3.130
 1358TIP3    H2 4020   0.768   1.880   3.010
 1359TIP3   OH2 4021   2.437   0.288   0.006
 1359TIP3    H1 4022   2.426   0.283   0.101
 1359TIP3    H2 4023   2.531   0.282  -0.008
 1360TIP3   OH2 4024   1.849   4.333   5.173
 1360TIP3    H1 4025   1.926   4.377   5.136
 1360TIP3    H2 4026   1.776   4.362   5.119
 1361TIP3   OH2 4027   6.250   3.026   4.106
 1361TIP3    H1 4028   6.265   3.093   4.173
 1361TIP3    H2 4029   6.184   3.064   4.048
 1362TIP3   OH2 4030   5.532   1.260   4.492
 1362TIP3    H1 4031   5.536   1.296   4.403
 1362TIP3    H2 4032   5.471   1.186   4.484
 1363TIP3   OH2 4033   0.968   5.724   3.011
 1363TIP3    H1 4034   0.876   5.716   3.033
 1363TIP3    H2 4035   0.995   5.635   2.990
 1364TIP3   OH2 4036   0.050   4.312   1.036
 1364TIP3    H1 4037   0.089   4.305   1.123
 1364TIP3    H2 4038  -0.033   4.357   1.050
 1365TIP3   OH2 4039   4.203   2.803   2.735
 1365TIP3    H1 4040   4.172   2.893   2.743
 1365TIP3    H2 4041   4.288   2.811   2.690
 1366TIP3   OH2 4042   0.356   4.634   3.780
 1366TIP3    H1 4043   0.310   4.562   3.736
 1366TIP3    H2 4044   0.373   4.697   3.711
 1367TIP3   OH2 4045   1.321   1.274   1.460
 1367TIP3    H1 4046   1.384   1.279   1.531
 1367TIP3    H2 4047   1.348   1.342   1.398
 1368TIP3   OH2 4048   5.248   6.137   4.387
 1368TIP3    H1 4049   5.320   6.079   4.408
 1368TIP3    H2 4050   5.279   6.224   4.409
 1369TIP3   OH2 4051   4.068   4.330   6.316
 1369TIP3    H1 4052   4.118   4.251   6.299
 1369TIP3    H2 4053   4.117   4.400   6.273
 1370TIP3   OH2 4054   3.126   6.378   0.884
 1370TIP3    H1 4055   3.092   6.295   0.916
 1370TIP3    H2 4056   3.204   6.394   0.936
 1371TIP3   OH2 4057   1.794   1.405   0.229
 1371TIP3    H1 4058   1.868   1.347   0.249
 1371TIP3    H2 4059   1.729   1.347   0.189
 1372TIP3   OH2 4060   6.256   3.763   1.949
 1372TIP3    H1 4061   6.325   3.740   1.887
 1372TIP3    H2 4062   6.294   3.832   2.002
 1373TIP3   OH2 4063   5.812   2.558   5.393
 1373TIP3    H1 4064   5.774   2.632   5.441
 1373TIP3    H2 4065   5.906   2.563   5.411
 1374TIP3   OH2 4066   3.849   4.171   6.472
 1374TIP3    H1 4067   3.770   4.169   6.526
 1374TIP3    H2 4068   3.858   4.082   6.439
 1375TIP3   OH2 4069   7.310   2.816   5.586
 1375TIP3    H1 4070   7.316   2.720   5.591
 1375TIP3    H2 4071   7.219   2.832   5.560
 1376TIP3   OH2 4072   6.527   6.790   2.550
 1376TIP3    H1 4073   6.526   6.739   2.631
 1376TIP3    H2 4074   6.435   6.803   2.529
 1377TIP3   OH2 4075   6.730   2.503   1.451
 1377TIP3    H1 4076   6.729   2.448   1.530
 1377TIP3    H2 4077   6.798   2.464   1.396
 1378TIP3   OH2 4078   7.151   1.748   1.554
 1378TIP3    H1 4079   7.131   1.839   1.529
 1378TIP3    H2 4080   7.066   1.704   1.551
 1379TIP3   OH2 4081   5.421   6.096   5.096
 1379TIP3    H1 4082   5.436   6.073   5.188
 1379TIP3    H2 4083   5.400   6.012   5.054
 1380TIP3   OH2 4084   3.823   3.993   5.579
 1380TIP3    H1 4085   3.797   4.032   5.662
 1380TIP3    H2 4086   3.803   4.060   5.513
 1381TIP3   OH2 4087   6.039   6.790   6.296
 1381TIP3    H1 4088   6.093   6.711   6.304
 1381TIP3    H2 4089   5.958   6.759   6.256
 1382TIP3   OH2 4090   7.793   0.138   4.026
 1382TIP3    H1 4091   7.767   0.185   3.947
 1382TIP3    H2 4092   7.759   0.190   4.098
 1383TIP3   OH2 4093   5.320   0.695   0.601
 1383TIP3    H1 4094   5.312   0.705   0.506
 1383TIP3    H2 4095   5.292   0.605   0.618
 1384TIP3   OH2 4096   3.041   4.560   1.305
 1384TIP3    H1 4097   3.022   4.633   1.245
 1384TIP3    H2 4098   2.964   4.555   1.362
 1385TIP3   OH2 4099   0.890   4.666   4.685
 1385TIP3    H1 4100   0.890   4.573   4.708
 1385TIP3    H2 4101   0.801   4.683   4.654
 1386TIP3   OH2 4102   7.436   4.530   3.495
 1386TIP3    H1 4103   7.508   4.548   3.434
 1386TIP3    H2 4104   7.465   4.567   3.578
 1387TIP3   OH2 4105   5.172   7.162   1.663
 1387TIP3    H1 4106   5.241   7.116   1.616
 1387TIP3    H2 4107   5.168   7.249   1.621
 1388TIP3   OH2 4108   1.809   6.892   5.876
 1388TIP3    H1 4109   1.762   6.871   5.795
 1388TIP3    H2 4110   1.801   6.987   5.884
 1389TIP3   OH2 4111   6.333   1.377   6.471
 1389TIP3    H1 4112   6.335   1.472   6.487
 1389TIP3    H2 4113   6.267   1.365   6.403
 1390TIP3   OH2 4114  -0.004   5.020   0.974
 1390TIP3    H1 4115  -0.044   5.106   0.988
 1390TIP3    H2 4116   0.083   5.039   0.939
 1391TIP3   OH2 4117   0.089   0.044   1.723
 1391TIP3    H1 4118   0.114   0.093   1.801
 1391TIP3    H2 4119   0.125  -0.043   1.735
 1392TIP3   OH2 4120   6.800   4.625   1.374
 1392TIP3    H1 4121   6.789   4.715   1.345
 1392TIP3    H2 4122   6.821   4.576   1.294
 1393TIP3   OH2 4123   3.233   6.970   6.826
 1393TIP3    H1 4124   3.151   6.944   6.784
 1393TIP3    H2 4125   3.287   7.001   6.753
 1394TIP3   OH2 4126   7.259   3.842   5.594
 1394TIP3    H1 4127   7.227   3.768   5.541
 1394TIP3    H2 4128   7.341   3.810   5.632
 1395TIP3   OH2 4129   3.045   4.262   3.920
 1395TIP3    H1 4130   3.077   4.352   3.909
 1395TIP3    H2 4131   2.977   4.269   3.987
 1396TIP3   OH2 4132   1.885   3.745   0.795
 1396TIP3    H1 4133   1.951   3.696   0.744
 1396TIP3    H2 4134   1.818   3.680   0.815
 1397TIP3   OH2 4135   3.334   7.375   5.884
 1397TIP3    H1 4136   3.331   7.296   5.829
 1397TIP3    H2 4137   3.261   7.364   5.945
 1398TIP3   OH2 4138   4.826   6.866   3.823
 1398TIP3    H1 4139   4.825   6.926   3.898
 1398TIP3    H2 4140   4.911   6.883   3.781
 1399TIP3   OH2 4141   6.967   5.701   4.914
 1399TIP3    H1 4142   7.024   5.671   4.844
 1399TIP3    H2 4143   6.878   5.688   4.880
 1400TIP3   OH2 4144   2.349   7.726   0.509
 1400TIP3    H1 4145   2.356   7.666   0.583
 1400TIP3    H2 4146   2.300   7.800   0.543
 1401TIP3   OH2 4147   6.554   0.388   2.637
 1401TIP3    H1 4148   6.628   0.448   2.625
 1401TIP3    H2 4149   6.576   0.338   2.715
 1402TIP3   OH2 4150   7.145   7.311   4.603
 1402TIP3    H1 4151   7.071   7.289   4.659
 1402TIP3    H2 4152   7.198   7.372   4.656
 1403TIP3   OH2 4153   4.571   5.656   5.971
 1403TIP3    H1 4154   4.550   5.645   5.878
 1403TIP3    H2 4155   4.659   5.694   5.971
 1404TIP3   OH2 4156   2.948   7.739   0.920
 1404TIP3    H1 4157   2.860   7.704   0.934
 1404TIP3    H2 4158   2.933   7.830   0.894
 1405TIP3   OH2 4159   5.358   5.261   2.281
 1405TIP3    H1 4160   5.268   5.237   2.256
 1405TIP3    H2 4161   5.346   5.335   2.340
 1406TIP3   OH2 4162   1.738   6.048   2.613
 1406TIP3    H1 4163   1.730   6.039   2.519
 1406TIP3    H2 4164   1.662   6.002   2.649
 1407TIP3   OH2 4165   0.830   0.351   5.643
 1407TIP3    H1 4166   0.880   0.432   5.628
 1407TIP3    H2 4167   0.896   0.288   5.674
 1408TIP3   OH2 4168   5.680   7.782   5.235
 1408TIP3    H1 4169   5.626   7.736   5.172
 1408TIP3    H2 4170   5.650   7.750   5.320
 1409TIP3   OH2 4171   2.144   2.929   1.931
 1409TIP3    H1 4172   2.055   2.966   1.935
 1409TIP3    H2 4173   2.166   2.932   1.838
 1410TIP3   OH2 4174   3.069   5.250   5.607
 1410TIP3    H1 4175   3.060   5.344   5.620
 1410TIP3    H2 4176   2.980   5.215   5.618
 1411TIP3   OH2 4177   7.761   2.123   2.405
 1411TIP3    H1 4178   7.839   2.122   2.350
 1411TIP3    H2 4179   7.795   2.124   2.495
 1412TIP3   OH2 4180   6.052   7.541   2.686
 1412TIP3    H1 4181   6.002   7.459   2.694
 1412TIP3    H2 4182   6.143   7.513   2.679
 1413TIP3   OH2 4183   4.162   6.395   0.844
 1413TIP3    H1 4184   4.237   6.335   0.838
 1413TIP3    H2 4185   4.194   6.467   0.898
 1414TIP3   OH2 4186   3.558   4.257   2.791
 1414TIP3    H1 4187   3.519   4.237   2.706
 1414TIP3    H2 4188   3.493   4.312   2.835
 1415TIP3   OH2 4189   7.936   1.792   5.770
 1415TIP3    H1 4190   7.998   1.777   5.841
 1415TIP3    H2 4191   7.948   1.717   5.712
 1416TIP3   OH2 4192   6.496   4.720   0.245
 1416TIP3    H1 4193   6.490   4.633   0.206
 1416TIP3    H2 4194   6.573   4.759   0.206
 1417TIP3   OH2 4195   4.871   2.876   2.212
 1417TIP3    H1 4196   4.808   2.915   2.151
 1417TIP3    H2 4197   4.846   2.912   2.298
 1418TIP3   OH2 4198   4.710   2.853   1.454
 1418TIP3    H1 4199   4.761   2.915   1.401
 1418TIP3    H2 4200   4.620   2.868   1.428
 1419TIP3   OH2 4201   7.415   5.648   5.433
 1419TIP3    H1 4202   7.496   5.612   5.397
 1419TIP3    H2 4203   7.396   5.724   5.377
 1420TIP3   OH2 4204   3.079   1.308   1.468
 1420TIP3    H1 4205   3.175   1.304   1.465
 1420TIP3    H2 4206   3.052   1.222   1.498
 1421TIP3   OH2 4207   2.864   6.784   2.019
 1421TIP3    H1 4208   2.906   6.721   2.078
 1421TIP3    H2 4209   2.771   6.782   2.043
 1422TIP3   OH2 4210   1.233   0.642   1.624
 1422TIP3    H1 4211   1.282   0.685   1.694
 1422TIP3    H2 4212   1.182   0.713   1.584
 1423TIP3   OH2 4213   3.630   5.494   4.596
 1423TIP3    H1 4214   3.572   5.425   4.566
 1423TIP3    H2 4215   3.690   5.450   4.656
 1424TIP3   OH2 4216   5.565   2.176   5.450
 1424TIP3    H1 4217   5.526   2.257   5.418
 1424TIP3    H2 4218   5.594   2.131   5.371
 1425TIP3   OH2 4219   8.114   6.439   6.124
 1425TIP3    H1 4220   8.166   6.496   6.067
 1425TIP3    H2 4221   8.024   6.465   6.108
 1426TIP3   OH2 4222   1.705   4.831   0.142
 1426TIP3    H1 4223   1.731   4.797   0.227
 1426TIP3    H2 4224   1.619   4.871   0.157
 1427TIP3   OH2 4225   2.734   5.413   1.919
 1427TIP3    H1 4226   2.649   5.443   1.951
 1427TIP3    H2 4227   2.748   5.330   1.964
 1428TIP3   OH2 4228   3.953   6.215   2.087
 1428TIP3    H1 4229   3.905   6.162   2.151
 1428TIP3    H2 4230   3.914   6.191   2.002
 1429TIP3   OH2 4231   2.935   0.746   1.504
 1429TIP3    H1 4232   2.978   0.686   1.564
 1429TIP3    H2 4233   2.842   0.726   1.513
 1430TIP3   OH2 4234   3.242   0.824   2.405
 1430TIP3    H1 4235   3.274   0.914   2.400
 1430TIP3    H2 4236   3.151   0.833   2.435
 1431TIP3   OH2 4237   3.946   6.261   0.844
 1431TIP3    H1 4238   3.952   6.169   0.869
 1431TIP3    H2 4239   4.032   6.297   0.864
 1432TIP3   OH2 4240   5.286   2.838   0.590
 1432TIP3    H1 4241   5.193   2.831   0.614
 1432TIP3    H2 4242   5.318   2.748   0.593
 1433TIP3   OH2 4243   6.824   6.783   5.127
 1433TIP3    H1 4244   6.798   6.752   5.040
 1433TIP3    H2 4245   6.914   6.814   5.115
 1434TIP3   OH2 4246   4.114   3.478   5.881
 1434TIP3    H1 4247   4.090   3.568   5.903
 1434TIP3    H2 4248   4.031   3.434   5.866
 1435TIP3   OH2 4249   7.349   6.744   5.377
 1435TIP3    H1 4250   7.268   6.788   5.351
 1435TIP3    H2 4251   7.351   6.753   5.472
 1436TIP3   OH2 4252   7.144   4.527   4.633
 1436TIP3    H1 4253   7.220   4.555   4.583
 1436TIP3    H2 4254   7.137   4.433   4.616
 1437TIP3   OH2 4255   5.117   1.779   3.001
 1437TIP3    H1 4256   5.115   1.735   2.916
 1437TIP3    H2 4257   5.105   1.872   2.981
 1438TIP3   OH2 4258   6.284   2.849   4.954
 1438TIP3    H1 4259   6.327   2.912   5.012
 1438TIP3    H2 4260   6.299   2.764   4.995
 1439TIP3   OH2 4261   7.020   2.360   1.589
 1439TIP3    H1 4262   6.964   2.363   1.666
 1439TIP3    H2 4263   7.027   2.267   1.567
 1440TIP3   OH2 4264   3.331   3.510   4.316
 1440TIP3    H1 4265   3.400   3.572   4.338
 1440TIP3    H2 4266   3.348   3.486   4.225
 1441TIP3   OH2 4267   5.062   2.208   1.625
 1441TIP3    H1 4268   5.037   2.228   1.715
 1441TIP3    H2 4269   4.982   2.222   1.574
 1442TIP3   OH2 4270   3.791   4.265   6.087
 1442TIP3    H1 4271   3.848   4.248   6.162
 1442TIP3    H2 4272   3.747   4.181   6.071
 1443TIP3   OH2 4273   7.595   3.535   0.182
 1443TIP3    H1 4274   7.594   3.552   0.276
 1443TIP3    H2 4275   7.601   3.440   0.175
 1444TIP3   OH2 4276   7.701   0.721   2.420
 1444TIP3    H1 4277   7.609   0.705   2.444
 1444TIP3    H2 4278   7.751   0.686   2.493
 1445TIP3   OH2 4279   4.687   1.958   0.345
 1445TIP3    H1 4280   4.710   2.022   0.412
 1445TIP3    H2 4281   4.635   2.007   0.281
 1446TIP3   OH2 4282   8.192   1.100   4.695
 1446TIP3    H1 4283   8.156   1.160   4.760
 1446TIP3    H2 4284   8.140   1.117   4.616
 1447TIP3   OH2 4285   0.459   5.370   3.318
 1447TIP3    H1 4286   0.435   5.325   3.399
 1447TIP3    H2 4287   0.422   5.458   3.328
 1448TIP3   OH2 4288   7.360   0.780   2.195
 1448TIP3    H1 4289   7.399   0.865   2.172
 1448TIP3    H2 4290   7.356   0.733   2.112
 1449TIP3   OH2 4291   4.565   4.082   4.547
 1449TIP3    H1 4292   4.598   3.993   4.555
 1449TIP3    H2 4293   4.639   4.132   4.511
 1450TIP3   OH2 4294   5.641   3.211   3.432
 1450TIP3    H1 4295   5.716   3.184   3.485
 1450TIP3    H2 4296   5.600   3.282   3.483
 1451TIP3   OH2 4297   4.113   0.232   2.006
 1451TIP3    H1 4298   4.087   0.312   2.052
 1451TIP3    H2 4299   4.109   0.164   2.073
 1452TIP3   OH2 4300   1.509   3.616   4.566
 1452TIP3    H1 4301   1.468   3.530   4.562
 1452TIP3    H2 4302   1.485   3.650   4.652
 1453TIP3   OH2 4303   5.991   4.518   1.910
 1453TIP3    H1 4304   5.974   4.589   1.972
 1453TIP3    H2 4305   5.904   4.482   1.891
 1454TIP3   OH2 4306   7.188   0.414   4.294
 1454TIP3    H1 4307   7.193   0.401   4.200
 1454TIP3    H2 4308   7.110   0.365   4.321
 1455TIP3   OH2 4309   1.010   2.948   0.102
 1455TIP3    H1 4310   1.013   3.040   0.077
 1455TIP3    H2 4311   1.022   2.901   0.019
 1456TIP3   OH2 4312   4.182   2.971   3.556
 1456TIP3    H1 4313   4.179   2.966   3.461
 1456TIP3    H2 4314   4.258   3.027   3.575
 1457TIP3   OH2 4315   0.548   2.205   2.697
 1457TIP3    H1 4316   0.479   2.247   2.748
 1457TIP3    H2 4317   0.512   2.120   2.672
 1458TIP3   OH2 4318   2.745   6.564   3.732
 1458TIP3    H1 4319   2.757   6.610   3.815
 1458TIP3    H2 4320   2.819   6.504   3.726
 1459TIP3   OH2 4321   1.138   0.731   5.642
 1459TIP3    H1 4322   1.103   0.666   5.703
 1459TIP3    H2 4323   1.232   0.710   5.637
 1460TIP3   OH2 4324   3.233   1.942   0.342
 1460TIP3    H1 4325   3.158   1.954   0.282
 1460TIP3    H2 4326   3.192   1.928   0.428
 1461TIP3   OH2 4327   0.532   3.308   1.123
 1461TIP3    H1 4328   0.523   3.214   1.112
 1461TIP3    H2 4329   0.453   3.344   1.082
 1462TIP3   OH2 4330   1.027   2.705   4.931
 1462TIP3    H1 4331   1.031   2.801   4.934
 1462TIP3    H2 4332   0.960   2.681   4.994
 1463TIP3   OH2 4333   5.390   0.083   3.445
 1463TIP3    H1 4334   5.469   0.029   3.448
 1463TIP3    H2 4335   5.422   0.172   3.436
 1464TIP3   OH2 4336   3.503   4.476   0.287
 1464TIP3    H1 4337   3.570   4.434   0.341
 1464TIP3    H2 4338   3.421   4.461   0.334
 1465TIP3   OH2 4339   2.056   1.391   5.872
 1465TIP3    H1 4340   2.042   1.464   5.932
 1465TIP3    H2 4341   2.131   1.345   5.907
 1466TIP3   OH2 4342   1.108   3.838   0.085
 1466TIP3    H1 4343   1.194   3.877   0.069
 1466TIP3    H2 4344   1.124   3.766   0.145
 1467TIP3   OH2 4345   1.015   0.807   0.267
 1467TIP3    H1 4346   0.991   0.717   0.288
 1467TIP3    H2 4347   0.960   0.829   0.192
 1468TIP3   OH2 4348   7.056   0.536   0.038
 1468TIP3    H1 4349   6.968   0.533  -0.001
 1468TIP3    H2 4350   7.048   0.597   0.110
 1469TIP3   OH2 4351   1.738   4.761   3.608
 1469TIP3    H1 4352   1.789   4.834   3.643
 1469TIP3    H2 4353   1.743   4.693   3.676
 1470TIP3   OH2 4354   4.814   7.271   3.925
 1470TIP3    H1 4355   4.903   7.304   3.921
 1470TIP3    H2 4356   4.762   7.336   3.877
 1471TIP3   OH2 4357   0.069   3.760   1.609
 1471TIP3    H1 4358   0.116   3.720   1.536
 1471TIP3    H2 4359   0.046   3.848   1.579
 1472TIP3   OH2 4360   4.782   1.653   2.825
 1472TIP3    H1 4361   4.759   1.715   2.894
 1472TIP3    H2 4362   4.760   1.567   2.862
 1473TIP3   OH2 4363   1.783   2.339   2.525
 1473TIP3    H1 4364   1.861   2.300   2.565
 1473TIP3    H2 4365   1.813   2.422   2.489
 1474TIP3   OH2 4366   2.892   0.858   0.143
 1474TIP3    H1 4367   2.820   0.803   0.174
 1474TIP3    H2 4368   2.899   0.839   0.050
 1475TIP3   OH2 4369   0.083   0.728   0.220
 1475TIP3    H1 4370   0.132   0.732   0.302
 1475TIP3    H2 4371   0.096   0.814   0.181
 1476TIP3   OH2 4372   6.304   1.715   3.212
 1476TIP3    H1 4373   6.312   1.637   3.267
 1476TIP3    H2 4374   6.319   1.684   3.123
 1477TIP3   OH2 4375   0.234   4.356   1.821
 1477TIP3    H1 4376   0.251   4.378   1.912
 1477TIP3    H2 4377   0.313   4.383   1.774
 1478TIP3   OH2 4378   2.213   2.219   5.755
 1478TIP3    H1 4379   2.294   2.265   5.774
 1478TIP3    H2 4380   2.224   2.133   5.796
 1479TIP3   OH2 4381   0.185   1.616   1.511
 1479TIP3    H1 4382   0.128   1.612   1.588
 1479TIP3    H2 4383   0.125   1.635   1.438
 1480TIP3   OH2 4384   5.578   2.548   4.570
 1480TIP3    H1 4385   5.543   2.636   4.580
 1480TIP3    H2 4386   5.600   2.541   4.477
 1481TIP3   OH2 4387   0.388   7.307   0.804
 1481TIP3    H1 4388   0.315   7.356   0.840
 1481TIP3    H2 4389   0.466   7.358   0.827
 1482TIP3   OH2 4390   1.186   6.856   2.462
 1482TIP3    H1 4391   1.198   6.837   2.369
 1482TIP3    H2 4392   1.114   6.799   2.490
 1483TIP3   OH2 4393   5.655   6.969   2.907
 1483TIP3    H1 4394   5.632   6.887   2.864
 1483TIP3    H2 4395   5.673   7.030   2.835
 1484TIP3   OH2 4396   0.648   4.003   4.695
 1484TIP3    H1 4397   0.743   4.011   4.685
 1484TIP3    H2 4398   0.627   3.915   4.664
 1485TIP3   OH2 4399   5.163   6.376   4.172
 1485TIP3    H1 4400   5.249   6.356   4.135
 1485TIP3    H2 4401   5.181   6.442   4.239
 1486TIP3   OH2 4402   2.912   2.748   5.310
 1486TIP3    H1 4403   2.869   2.772   5.228
 1486TIP3    H2 4404   2.997   2.713   5.283
 1487TIP3   OH2 4405   6.665   4.634   6.753
 1487TIP3    H1 4406   6.690   4.555   6.706
 1487TIP3    H2 4407   6.732   4.645   6.820
 1488TIP3   OH2 4408   5.578   3.874   5.192
 1488TIP3    H1 4409   5.535   3.870   5.277
 1488TIP3    H2 4410   5.570   3.785   5.157
 1489TIP3   OH2 4411   6.516   5.328   1.826
 1489TIP3    H1 4412   6.610   5.331   1.809
 1489TIP3    H2 4413   6.500   5.400   1.887
 1490TIP3   OH2 4414   5.708   3.145   6.293
 1490TIP3    H1 4415   5.684   3.157   6.202
 1490TIP3    H2 4416   5.641   3.193   6.342
 1491TIP3   OH2 4417   0.577   5.001   1.224
 1491TIP3    H1 4418   0.489   5.012   1.259
 1491TIP3    H2 4419   0.589   4.906   1.218
 1492TIP3   OH2 4420   8.290   4.929   1.246
 1492TIP3    H1 4421   8.325   4.989   1.179
 1492TIP3    H2 4422   8.309   4.972   1.329
 1493TIP3   OH2 4423   2.566   0.247   2.521
 1493TIP3    H1 4424   2.652   0.282   2.542
 1493TIP3    H2 4425   2.508   0.324   2.523
 1494TIP3   OH2 4426   5.570   6.851   1.067
 1494TIP3    H1 4427   5.654   6.837   1.111
 1494TIP3    H2 4428   5.563   6.777   1.006
 1495TIP3   OH2 4429   7.342   2.254   4.346
 1495TIP3    H1 4430   7.368   2.165   4.371
 1495TIP3    H2 4431   7.420   2.307   4.363
 1496TIP3   OH2 4432   0.356   1.428   3.710
 1496TIP3    H1 4433   0.304   1.501   3.677
 1496TIP3    H2 4434   0.444   1.463   3.720
 1497TIP3   OH2 4435   0.694   0.983   3.094
 1497TIP3    H1 4436   0.711   1.041   3.020
 1497TIP3    H2 4437   0.601   0.962   3.087
 1498TIP3   OH2 4438   4.580   6.260   0.361
 1498TIP3    H1 4439   4.504   6.242   0.306
 1498TIP3    H2 4440   4.546   6.314   0.433
 1499TIP3   OH2 4441   1.538   3.736   3.672
 1499TIP3    H1 4442   1.560   3.744   3.765
 1499TIP3    H2 4443   1.458   3.684   3.670
 1500TIP3   OH2 4444   1.977   4.662   0.633
 1500TIP3    H1 4445   2.023   4.713   0.566
 1500TIP3    H2 4446   2.038   4.658   0.706
 1501TIP3   OH2 4447   7.646   1.471   3.651
 1501TIP3    H1 4448   7.554   1.498   3.645
 1501TIP3    H2 4449   7.660   1.458   3.745
 1502TIP3   OH2 4450   0.344   2.808   4.556
 1502TIP3    H1 4451   0.301   2.736   4.602
 1502TIP3    H2 4452   0.306   2.887   4.595
 1503TIP3   OH2 4453   4.612   7.764   6.601
 1503TIP3    H1 4454   4.588   7.705   6.530
 1503TIP3    H2 4455   4.568   7.846   6.580
 1504TIP3   OH2 4456   2.251   7.104   5.952
 1504TIP3    H1 4457   2.196   7.088   6.029
 1504TIP3    H2 4458   2.189   7.132   5.885
 1505TIP3   OH2 4459   2.111   2.692   5.454
 1505TIP3    H1 4460   2.043   2.751   5.422
 1505TIP3    H2 4461   2.073   2.605   5.446
 1506TIP3   OH2 4462   2.817   4.600   1.455
 1506TIP3    H1 4463   2.739   4.561   1.416
 1506TIP3    H2 4464   2.797   4.694   1.461
 1507TIP3   OH2 4465   1.017   0.808   6.264
 1507TIP3    H1 4466   1.065   0.726   6.264
 1507TIP3    H2 4467   0.970   0.808   6.180
 1508TIP3   OH2 4468   0.971   5.812   2.747
 1508TIP3    H1 4469   0.988   5.744   2.813
 1508TIP3    H2 4470   0.885   5.791   2.711
 1509TIP3   OH2 4471   7.182   0.885   0.521
 1509TIP3    H1 4472   7.251   0.899   0.587
 1509TIP3    H2 4473   7.202   0.948   0.452
 1510TIP3   OH2 4474   7.747   3.453   1.520
 1510TIP3    H1 4475   7.805   3.380   1.540
 1510TIP3    H2 4476   7.663   3.413   1.499
 1511TIP3   OH2 4477   0.660   7.351   2.086
 1511TIP3    H1 4478   0.581   7.362   2.034
 1511TIP3    H2 4479   0.731   7.379   2.029
 1512TIP3   OH2 4480   2.270   0.161   6.600
 1512TIP3    H1 4481   2.329   0.159   6.525
 1512TIP3    H2 4482   2.271   0.252   6.629
 1513TIP3   OH2 4483   7.638   2.440   1.074
 1513TIP3    H1 4484   7.693   2.363   1.059
 1513TIP3    H2 4485   7.664   2.471   1.161
 1514TIP3   OH2 4486   8.051   6.399   0.960
 1514TIP3    H1 4487   8.053   6.487   0.996
 1514TIP3    H2 4488   7.958   6.381   0.946
 1515TIP3   OH2 4489   8.031   4.835   3.656
 1515TIP3    H1 4490   8.016   4.877   3.741
 1515TIP3    H2 4491   8.068   4.749   3.677
 1516TIP3   OH2 4492   0.635   4.468   4.113
 1516TIP3    H1 4493   0.543   4.474   4.091
 1516TIP3    H2 4494   0.679   4.449   4.030
 1517TIP3   OH2 4495   6.408   1.036   2.917
 1517TIP3    H1 4496   6.460   0.956   2.918
 1517TIP3    H2 4497   6.325   1.011   2.876
 1518TIP3   OH2 4498   2.432   7.332   5.429
 1518TIP3    H1 4499   2.407   7.391   5.499
 1518TIP3    H2 4500   2.350   7.288   5.404
 1519TIP3   OH2 4501   2.421   0.266   1.955
 1519TIP3    H1 4502   2.470   0.347   1.942
 1519TIP3    H2 4503   2.445   0.236   2.043
 1520TIP3   OH2 4504   0.910   3.122   4.349
 1520TIP3    H1 4505   0.864   3.206   4.348
 1520TIP3    H2 4506   0.953   3.119   4.434
 1521TIP3   OH2 4507   0.872   2.953   4.863
 1521TIP3    H1 4508   0.930   3.028   4.850
 1521TIP3    H2 4509   0.799   2.967   4.803
 1522TIP3   OH2 4510   6.536   3.299   6.471
 1522TIP3    H1 4511   6.582   3.221   6.439
 1522TIP3    H2 4512   6.599   3.370   6.460
 1523TIP3   OH2 4513   6.503   0.264   6.023
 1523TIP3    H1 4514   6.495   0.352   6.060
 1523TIP3    H2 4515   6.413   0.233   6.015
 1524TIP3   OH2 4516   4.570   3.843   6.594
 1524TIP3    H1 4517   4.485   3.852   6.639
 1524TIP3    H2 4518   4.553   3.779   6.525
 1525TIP3   OH2 4519   4.804   3.718   2.503
 1525TIP3    H1 4520   4.881   3.683   2.550
 1525TIP3    H2 4521   4.736   3.653   2.518
 1526TIP3   OH2 4522   5.955   6.557   5.534
 1526TIP3    H1 4523   5.913   6.594   5.611
 1526TIP3    H2 4524   5.885   6.544   5.471
 1527TIP3   OH2 4525   1.913   5.118   4.734
 1527TIP3    H1 4526   1.856   5.157   4.800
 1527TIP3    H2 4527   1.963   5.191   4.698
 1528TIP3   OH2 4528   2.454   2.115   6.246
 1528TIP3    H1 4529   2.469   2.053   6.174
 1528TIP3    H2 4530   2.440   2.060   6.323
 1529TIP3   OH2 4531   5.747   0.972   5.832
 1529TIP3    H1 4532   5.736   0.887   5.790
 1529TIP3    H2 4533   5.661   1.013   5.825
 1530TIP3   OH2 4534   3.313   2.919   2.154
 1530TIP3    H1 4535   3.323   2.840   2.100
 1530TIP3    H2 4536   3.400   2.958   2.154
 1531TIP3   OH2 4537   6.678   1.377   2.303
 1531TIP3    H1 4538   6.606   1.424   2.346
 1531TIP3    H2 4539   6.749   1.441   2.298
 1532TIP3   OH2 4540   5.351   0.975   0.716
 1532TIP3    H1 4541   5.398   0.942   0.792
 1532TIP3    H2 4542   5.353   0.903   0.653
 1533TIP3   OH2 4543   3.872   0.527   4.770
 1533TIP3    H1 4544   3.801   0.463   4.770
 1533TIP3    H2 4545   3.923   0.506   4.692
 1534TIP3   OH2 4546   6.342   6.007   6.744
 1534TIP3    H1 4547   6.434   5.984   6.731
 1534TIP3    H2 4548   6.324   6.074   6.678
 1535TIP3   OH2 4549   1.845   0.832   2.667
 1535TIP3    H1 4550   1.782   0.802   2.601
 1535TIP3    H2 4551   1.874   0.918   2.636
 1536TIP3   OH2 4552   4.336   6.708   4.190
 1536TIP3    H1 4553   4.287   6.741   4.114
 1536TIP3    H2 4554   4.301   6.621   4.205
 1537TIP3   OH2 4555   4.397   4.238   3.806
 1537TIP3    H1 4556   4.457   4.292   3.754
 1537TIP3    H2 4557   4.398   4.279   3.893
 1538TIP3   OH2 4558   2.269   5.568   5.433
 1538TIP3    H1 4559   2.291   5.659   5.452
 1538TIP3    H2 4560   2.277   5.560   5.338
 1539TIP3   OH2 4561   0.966   2.238   0.264
 1539TIP3    H1 4562   1.032   2.261   0.199
 1539TIP3    H2 4563   0.927   2.322   0.290
 1540TIP3   OH2 4564   5.294   1.368   5.083
 1540TIP3    H1 4565   5.233   1.314   5.134
 1540TIP3    H2 4566   5.240   1.437   5.046
 1541TIP3   OH2 4567   0.795   4.495   1.612
 1541TIP3    H1 4568   0.761   4.458   1.694
 1541TIP3    H2 4569   0.748   4.578   1.602
 1542TIP3   OH2 4570   5.849   6.070   3.099
 1542TIP3    H1 4571   5.929   6.108   3.135
 1542TIP3    H2 4572   5.778   6.123   3.136
 1543TIP3   OH2 4573   3.728   4.931   1.089
 1543TIP3    H1 4574   3.815   4.948   1.123
 1543TIP3    H2 4575   3.687   4.873   1.153
 1544TIP3   OH2 4576   7.758   2.605   6.309
 1544TIP3    H1 4577   7.776   2.618   6.216
 1544TIP3    H2 4578   7.709   2.684   6.335
 1545TIP3   OH2 4579   1.675   3.373   2.158
 1545TIP3    H1 4580   1.644   3.446   2.212
 1545TIP3    H2 4581   1.753   3.407   2.114
 1546TIP3   OH2 4582   2.439   6.913   0.685
 1546TIP3    H1 4583   2.415   6.987   0.630
 1546TIP3    H2 4584   2.526   6.935   0.719
 1547TIP3   OH2 4585   6.683   6.960   1.423
 1547TIP3    H1 4586   6.611   7.012   1.460
 1547TIP3    H2 4587   6.640   6.884   1.383
 1548TIP3   OH2 4588   0.853   2.353   5.705
 1548TIP3    H1 4589   0.802   2.387   5.779
 1548TIP3    H2 4590   0.942   2.344   5.740
 1549TIP3   OH2 4591   6.251   7.445   2.877
 1549TIP3    H1 4592   6.257   7.501   2.954
 1549TIP3    H2 4593   6.191   7.374   2.905
 1550TIP3   OH2 4594   2.618   6.549   1.979
 1550TIP3    H1 4595   2.581   6.553   1.891
 1550TIP3    H2 4596   2.627   6.640   2.005
 1551TIP3   OH2 4597   2.170   7.428   0.688
 1551TIP3    H1 4598   2.110   7.502   0.700
 1551TIP3    H2 4599   2.161   7.405   0.596
 1552TIP3   OH2 4600   7.002   0.365   3.781
 1552TIP3    H1 4601   6.915   0.398   3.760
 1552TIP3    H2 4602   7.060   0.439   3.763
 1553TIP3   OH2 4603   2.608   1.580   2.127
 1553TIP3    H1 4604   2.630   1.560   2.036
 1553TIP3    H2 4605   2.685   1.626   2.161
 1554TIP3   OH2 4606   3.938   2.996   4.482
 1554TIP3    H1 4607   3.849   3.028   4.474
 1554TIP3    H2 4608   3.942   2.920   4.425
 1555TIP3   OH2 4609   1.448   0.571   3.823
 1555TIP3    H1 4610   1.482   0.655   3.793
 1555TIP3    H2 4611   1.375   0.594   3.881
 1556TIP3   OH2 4612   7.051   4.504   0.583
 1556TIP3    H1 4613   7.113   4.575   0.567
 1556TIP3    H2 4614   6.966   4.542   0.561
 1557TIP3   OH2 4615   7.540   3.746   2.961
 1557TIP3    H1 4616   7.450   3.765   2.986
 1557TIP3    H2 4617   7.589   3.825   2.985
 1558TIP3   OH2 4618   5.789   7.742   2.798
 1558TIP3    H1 4619   5.769   7.751   2.705
 1558TIP3    H2 4620   5.868   7.688   2.800
 1559TIP3   OH2 4621   7.742   4.962   3.236
 1559TIP3    H1 4622   7.769   4.969   3.327
 1559TIP3    H2 4623   7.772   4.876   3.208
 1560TIP3   OH2 4624   6.819   6.062   5.544
 1560TIP3    H1 4625   6.911   6.085   5.560
 1560TIP3    H2 4626   6.798   6.101   5.460
 1561TIP3   OH2 4627   7.921   7.714   2.161
 1561TIP3    H1 4628   7.957   7.725   2.249
 1561TIP3    H2 4629   7.998   7.709   2.104
 1562TIP3   OH2 4630   0.341   2.953   1.990
 1562TIP3    H1 4631   0.253   2.968   2.023
 1562TIP3    H2 4632   0.399   2.987   2.058
 1563TIP3   OH2 4633   2.173   5.591   0.724
 1563TIP3    H1 4634   2.110   5.582   0.796
 1563TIP3    H2 4635   2.122   5.572   0.645
 1564TIP3   OH2 4636   2.780   5.248   3.253
 1564TIP3    H1 4637   2.791   5.269   3.160
 1564TIP3    H2 4638   2.694   5.281   3.275
 1565TIP3   OH2 4639   1.412   2.967   6.319
 1565TIP3    H1 4640   1.428   2.878   6.289
 1565TIP3    H2 4641   1.487   3.017   6.288
 1566TIP3   OH2 4642   7.208   7.057   2.277
 1566TIP3    H1 4643   7.233   7.015   2.360
 1566TIP3    H2 4644   7.118   7.028   2.262
 1567TIP3   OH2 4645   1.610   2.509   0.290
 1567TIP3    H1 4646   1.620   2.592   0.336
 1567TIP3    H2 4647   1.662   2.446   0.341
 1568TIP3   OH2 4648   8.225   6.822   2.537
 1568TIP3    H1 4649   8.214   6.893   2.474
 1568TIP3    H2 4650   8.197   6.744   2.491
 1569TIP3   OH2 4651   6.798   1.685   4.541
 1569TIP3    H1 4652   6.863   1.712   4.606
 1569TIP3    H2 4653   6.817   1.741   4.465
 1570TIP3   OH2 4654   5.695   7.766   6.074
 1570TIP3    H1 4655   5.638   7.699   6.111
 1570TIP3    H2 4656   5.680   7.760   5.980
 1571TIP3   OH2 4657   0.579   1.313   1.772
 1571TIP3    H1 4658   0.507   1.346   1.827
 1571TIP3    H2 4659   0.540   1.300   1.686
 1572TIP3   OH2 4660   3.988   2.600   5.025
 1572TIP3    H1 4661   3.923   2.536   4.996
 1572TIP3    H2 4662   3.987   2.592   5.120
 1573TIP3   OH2 4663   4.897   0.871   3.949
 1573TIP3    H1 4664   4.905   0.858   3.855
 1573TIP3    H2 4665   4.978   0.915   3.974
 1574TIP3   OH2 4666   3.390   7.123   1.934
 1574TIP3    H1 4667   3.345   7.075   2.003
 1574TIP3    H2 4668   3.470   7.073   1.917
 1575TIP3   OH2 4669   5.069   4.376   0.820
 1575TIP3    H1 4670   5.070   4.312   0.749
 1575TIP3    H2 4671   5.012   4.337   0.886
 1576TIP3   OH2 4672   0.406   5.557   1.007
 1576TIP3    H1 4673   0.463   5.598   1.072
 1576TIP3    H2 4674   0.373   5.629   0.953
 1577TIP3   OH2 4675   7.770   2.338   6.252
 1577TIP3    H1 4676   7.852   2.294   6.272
 1577TIP3    H2 4677   7.792   2.431   6.257
 1578TIP3   OH2 4678   1.686   2.615   1.533
 1578TIP3    H1 4679   1.692   2.572   1.618
 1578TIP3    H2 4680   1.772   2.600   1.493
 1579TIP3   OH2 4681   4.574   7.704   5.416
 1579TIP3    H1 4682   4.541   7.637   5.476
 1579TIP3    H2 4683   4.574   7.661   5.331
 1580TIP3   OH2 4684   2.489   6.504   3.606
 1580TIP3    H1 4685   2.459   6.431   3.661
 1580TIP3    H2 4686   2.570   6.534   3.649
 1581TIP3   OH2 4687   3.377   7.566   6.546
 1581TIP3    H1 4688   3.339   7.556   6.459
 1581TIP3    H2 4689   3.433   7.489   6.557
 1582TIP3   OH2 4690   0.732   0.717   1.285
 1582TIP3    H1 4691   0.736   0.806   1.320
 1582TIP3    H2 4692   0.643   0.687   1.304
 1583TIP3   OH2 4693   7.178   4.192   2.804
 1583TIP3    H1 4694   7.252   4.225   2.753
 1583TIP3    H2 4695   7.173   4.250   2.880
 1584TIP3   OH2 4696   6.306   1.511   3.434
 1584TIP3    H1 4697   6.370   1.443   3.412
 1584TIP3    H2 4698   6.352   1.570   3.493
 1585TIP3   OH2 4699   1.170   2.073   0.677
 1585TIP3    H1 4700   1.100   2.072   0.611
 1585TIP3    H2 4701   1.131   2.122   0.750
 1586TIP3   OH2 4702   3.094   6.162   0.341
 1586TIP3    H1 4703   3.122   6.245   0.380
 1586TIP3    H2 4704   3.100   6.099   0.413
 1587TIP3   OH2 4705   8.234   5.138   0.169
 1587TIP3    H1 4706   8.151   5.184   0.156
 1587TIP3    H2 4707   8.285   5.158   0.090
 1588TIP3   OH2 4708   2.685   4.724   6.362
 1588TIP3    H1 4709   2.736   4.696   6.438
 1588TIP3    H2 4710   2.742   4.787   6.317
 1589TIP3   OH2 4711   7.443   1.625   2.478
 1589TIP3    H1 4712   7.386   1.654   2.407
 1589TIP3    H2 4713   7.383   1.595   2.546
 1590TIP3   OH2 4714   6.059   4.934   3.644
 1590TIP3    H1 4715   6.155   4.931   3.639
 1590TIP3    H2 4716   6.039   4.921   3.737
 1591TIP3   OH2 4717   3.052   7.125   1.808
 1591TIP3    H1 4718   3.047   7.219   1.824
 1591TIP3    H2 4719   2.982   7.107   1.747
 1592TIP3   OH2 4720   2.868   2.329   1.481
 1592TIP3    H1 4721   2.783   2.318   1.438
 1592TIP3    H2 4722   2.914   2.246   1.465
 1593TIP3   OH2 4723   2.537   3.078   0.152
 1593TIP3    H1 4724   2.552   3.029   0.070
 1593TIP3    H2 4725   2.443   3.096   0.152
 1594TIP3   OH2 4726   6.352   0.934   2.415
 1594TIP3    H1 4727   6.416   0.863   2.413
 1594TIP3    H2 4728   6.403   1.014   2.409
 1595TIP3   OH2 4729   6.695   3.507   1.720
 1595TIP3    H1 4730   6.690   3.434   1.659
 1595TIP3    H2 4731   6.712   3.465   1.805
 1596TIP3   OH2 4732   0.812   2.857   5.762
 1596TIP3    H1 4733   0.750   2.795   5.801
 1596TIP3    H2 4734   0.862   2.804   5.700
 1597TIP3   OH2 4735   2.166   6.349   2.910
 1597TIP3    H1 4736   2.178   6.443   2.898
 1597TIP3    H2 4737   2.213   6.328   2.990
 1598TIP3   OH2 4738   5.560   5.514   3.145
 1598TIP3    H1 4739   5.557   5.609   3.134
 1598TIP3    H2 4740   5.622   5.500   3.217
 1599TIP3   OH2 4741   7.753   6.319   4.035
 1599TIP3    H1 4742   7.768   6.233   3.997
 1599TIP3    H2 4743   7.841   6.353   4.053
 1600TIP3   OH2 4744   5.257   6.137   1.816
 1600TIP3    H1 4745   5.243   6.168   1.727
 1600TIP3    H2 4746   5.176   6.157   1.862
 1601TIP3   OH2 4747   3.704   5.976   5.124
 1601TIP3    H1 4748   3.639   5.973   5.194
 1601TIP3    H2 4749   3.745   6.062   5.133
 1602TIP3   OH2 4750   6.618   2.602   4.582
 1602TIP3    H1 4751   6.592   2.662   4.652
 1602TIP3    H2 4752   6.694   2.644   4.541
 1603TIP3   OH2 4753   1.916   2.714   4.520
 1603TIP3    H1 4754   1.878   2.663   4.449
 1603TIP3    H2 4755   1.843   2.762   4.558
 1604TIP3   OH2 4756   6.016   5.568   1.747
 1604TIP3    H1 4757   6.088   5.610   1.796
 1604TIP3    H2 4758   6.042   5.477   1.740
 1605TIP3   OH2 4759   3.397   0.047   2.491
 1605TIP3    H1 4760   3.419   0.130   2.448
 1605TIP3    H2 4761   3.302   0.051   2.502
 1606TIP3   OH2 4762   2.057   6.657   0.670
 1606TIP3    H1 4763   2.085   6.686   0.757
 1606TIP3    H2 4764   2.032   6.565   0.683
 1607TIP3   OH2 4765   6.809   6.482   1.915
 1607TIP3    H1 4766   6.876   6.507   1.851
 1607TIP3    H2 4767   6.857   6.444   1.988
 1608TIP3   OH2 4768   4.891   2.866   2.997
 1608TIP3    H1 4769   4.846   2.940   2.956
 1608TIP3    H2 4770   4.924   2.901   3.079
 1609TIP3   OH2 4771   2.278   1.967   5.765
 1609TIP3    H1 4772   2.236   1.910   5.701
 1609TIP3    H2 4773   2.369   1.971   5.737
 1610TIP3   OH2 4774   1.758   1.455   0.816
 1610TIP3    H1 4775   1.704   1.403   0.756
 1610TIP3    H2 4776   1.796   1.523   0.760
 1611TIP3   OH2 4777   3.047   4.972   1.874
 1611TIP3    H1 4778   2.986   4.978   1.800
 1611TIP3    H2 4779   3.133   4.985   1.834
 1612TIP3   OH2 4780   4.791   7.020   4.050
 1612TIP3    H1 4781   4.719   6.980   4.098
 1612TIP3    H2 4782   4.764   7.111   4.036
 1613TIP3   OH2 4783   3.797   7.606   2.392
 1613TIP3    H1 4784   3.738   7.656   2.448
 1613TIP3    H2 4785   3.741   7.540   2.351
 1614TIP3   OH2 4786   2.478   6.245   1.887
 1614TIP3    H1 4787   2.482   6.326   1.835
 1614TIP3    H2 4788   2.487   6.275   1.977
 1615TIP3   OH2 4789   2.890   1.668   0.660
 1615TIP3    H1 4790   2.818   1.612   0.632
 1615TIP3    H2 4791   2.943   1.681   0.581
 1616TIP3   OH2 4792   6.327   5.128   4.898
 1616TIP3    H1 4793   6.405   5.181   4.886
 1616TIP3    H2 4794   6.293   5.153   4.984
 1617TIP3   OH2 4795   8.081   6.796   3.784
 1617TIP3    H1 4796   8.038   6.711   3.778
 1617TIP3    H2 4797   8.034   6.851   3.721
 1618TIP3   OH2 4798   5.501   0.717   4.092
 1618TIP3    H1 4799   5.580   0.766   4.116
 1618TIP3    H2 4800   5.516   0.630   4.128
 1619TIP3   OH2 4801   0.966   3.708   2.001
 1619TIP3    H1 4802   0.904   3.639   2.024
 1619TIP3    H2 4803   0.997   3.742   2.085
 1620TIP3   OH2 4804   4.774   0.825   0.747
 1620TIP3    H1 4805   4.727   0.741   0.746
 1620TIP3    H2 4806   4.857   0.806   0.789
 1621TIP3   OH2 4807   6.933   4.512   3.107
 1621TIP3    H1 4808   7.014   4.534   3.062
 1621TIP3    H2 4809   6.874   4.483   3.037
 1622TIP3   OH2 4810   2.933   5.747   1.489
 1622TIP3    H1 4811   2.989   5.787   1.554
 1622TIP3    H2 4812   2.847   5.741   1.531
 1623TIP3   OH2 4813   6.021   6.562   1.721
 1623TIP3    H1 4814   6.095   6.514   1.758
 1623TIP3    H2 4815   6.060   6.623   1.658
 1624TIP3   OH2 4816   7.238   3.034   2.945
 1624TIP3    H1 4817   7.197   3.106   2.993
 1624TIP3    H2 4818   7.176   2.961   2.953
 1625TIP3   OH2 4819   7.340   2.487   4.814
 1625TIP3    H1 4820   7.406   2.546   4.776
 1625TIP3    H2 4821   7.371   2.470   4.903
 1626TIP3   OH2 4822   8.202   6.936   0.939
 1626TIP3    H1 4823   8.154   7.016   0.915
 1626TIP3    H2 4824   8.189   6.929   1.034
 1627TIP3   OH2 4825   7.639   4.584   2.664
 1627TIP3    H1 4826   7.616   4.555   2.575
 1627TIP3    H2 4827   7.734   4.597   2.661
 1628TIP3   OH2 4828   4.400   0.708   4.619
 1628TIP3    H1 4829   4.448   0.767   4.677
 1628TIP3    H2 4830   4.356   0.766   4.557
 1629TIP3   OH2 4831   8.100   5.643   6.180
 1629TIP3    H1 4832   8.051   5.562   6.163
 1629TIP3    H2 4833   8.067   5.705   6.115
 1630TIP3   OH2 4834   4.073   0.382   3.105
 1630TIP3    H1 4835   4.009   0.313   3.121
 1630TIP3    H2 4836   4.138   0.372   3.174
 1631TIP3   OH2 4837   1.428   6.350   1.749
 1631TIP3    H1 4838   1.338   6.355   1.781
 1631TIP3    H2 4839   1.476   6.304   1.818
 1632TIP3   OH2 4840   5.044   0.846   0.500
 1632TIP3    H1 4841   4.967   0.794   0.478
 1632TIP3    H2 4842   5.108   0.782   0.532
 1633TIP3   OH2 4843   7.910   5.967   1.574
 1633TIP3    H1 4844   7.942   5.888   1.529
 1633TIP3    H2 4845   7.921   5.947   1.667
 1634TIP3   OH2 4846   0.118   2.392   1.192
 1634TIP3    H1 4847   0.087   2.329   1.258
 1634TIP3    H2 4848   0.059   2.467   1.201
 1635TIP3   OH2 4849   5.340   2.578   0.546
 1635TIP3    H1 4850   5.414   2.560   0.605
 1635TIP3    H2 4851   5.304   2.491   0.527
 1636TIP3   OH2 4852   0.456   1.288   5.391
 1636TIP3    H1 4853   0.401   1.243   5.455
 1636TIP3    H2 4854   0.398   1.354   5.353
 1637TIP3   OH2 4855   5.307   0.660   0.316
 1637TIP3    H1 4856   5.363   0.737   0.330
 1637TIP3    H2 4857   5.238   0.690   0.257
 1638TIP3   OH2 4858   5.334   3.560   1.825
 1638TIP3    H1 4859   5.337   3.605   1.909
 1638TIP3    H2 4860   5.418   3.515   1.818
 1639TIP3   OH2 4861   2.553   4.491   3.775
 1639TIP3    H1 4862   2.540   4.431   3.849
 1639TIP3    H2 4863   2.576   4.574   3.816
 1640TIP3   OH2 4864   5.258   7.616   4.698
 1640TIP3    H1 4865   5.298   7.701   4.718
 1640TIP3    H2 4866   5.329   7.553   4.707
 1641TIP3   OH2 4867   4.315   3.253   1.047
 1641TIP3    H1 4868   4.279   3.164   1.048
 1641TIP3    H2 4869   4.398   3.244   1.000
 1642TIP3   OH2 4870   4.548   1.158   3.112
 1642TIP3    H1 4871   4.500   1.180   3.033
 1642TIP3    H2 4872   4.558   1.063   3.110
 1643TIP3   OH2 4873   2.043   1.771   5.245
 1643TIP3    H1 4874   2.119   1.825   5.270
 1643TIP3    H2 4875   2.050   1.693   5.300
 1644TIP3   OH2 4876   4.409   6.017   5.548
 1644TIP3    H1 4877   4.393   5.922   5.554
 1644TIP3    H2 4878   4.337   6.050   5.496
 1645TIP3   OH2 4879   8.145   2.339   6.711
 1645TIP3    H1 4880   8.136   2.431   6.686
 1645TIP3    H2 4881   8.236   2.317   6.689
 1646TIP3   OH2 4882   0.268   3.412   3.812
 1646TIP3    H1 4883   0.357   3.391   3.842
 1646TIP3    H2 4884   0.213   3.394   3.888
 1647TIP3   OH2 4885   3.726   0.785   5.038
 1647TIP3    H1 4886   3.682   0.788   4.953
 1647TIP3    H2 4887   3.812   0.749   5.019
 1648TIP3   OH2 4888   5.460   3.359   5.862
 1648TIP3    H1 4889   5.426   3.428   5.918
 1648TIP3    H2 4890   5.552   3.382   5.848
 1649TIP3   OH2 4891   6.843   3.852   4.572
 1649TIP3    H1 4892   6.792   3.801   4.510
 1649TIP3    H2 4893   6.777   3.903   4.621
 1650TIP3   OH2 4894   6.963   3.373   0.366
 1650TIP3    H1 4895   6.994   3.293   0.323
 1650TIP3    H2 4896   6.988   3.444   0.307
 1651TIP3   OH2 4897   4.315   1.774   1.528
 1651TIP3    H1 4898   4.385   1.729   1.480
 1651TIP3    H2 4899   4.266   1.704   1.570
 1652TIP3   OH2 4900   2.044   7.742   5.225
 1652TIP3    H1 4901   2.136   7.748   5.251
 1652TIP3    H2 4902   2.001   7.700   5.300
 1653TIP3   OH2 4903   7.076   0.098   0.335
 1653TIP3    H1 4904   7.122   0.134   0.411
 1653TIP3    H2 4905   7.009   0.162   0.315
 1654TIP3   OH2 4906   3.751   7.014   4.574
 1654TIP3    H1 4907   3.773   6.930   4.534
 1654TIP3    H2 4908   3.755   6.998   4.668
 1655TIP3   OH2 4909   6.617   2.008   4.079
 1655TIP3    H1 4910   6.560   2.084   4.079
 1655TIP3    H2 4911   6.616   1.977   3.988
 1656TIP3   OH2 4912   6.921   0.369   1.177
 1656TIP3    H1 4913   6.931   0.374   1.082
 1656TIP3    H2 4914   6.835   0.408   1.193
 1657TIP3   OH2 4915   2.760   4.152   1.538
 1657TIP3    H1 4916   2.725   4.104   1.614
 1657TIP3    H2 4917   2.797   4.084   1.482
 1658TIP3   OH2 4918   6.956   6.155   1.456
 1658TIP3    H1 4919   7.032   6.117   1.500
 1658TIP3    H2 4920   6.882   6.131   1.512
 1659TIP3   OH2 4921   1.380   1.945   4.317
 1659TIP3    H1 4922   1.307   1.945   4.379
 1659TIP3    H2 4923   1.437   1.875   4.347
 1660TIP3   OH2 4924   7.383   5.573   4.971
 1660TIP3    H1 4925   7.371   5.496   5.027
 1660TIP3    H2 4926   7.296   5.611   4.962
 1661TIP3   OH2 4927   7.186   1.965   2.735
 1661TIP3    H1 4928   7.131   2.040   2.715
 1661TIP3    H2 4929   7.175   1.952   2.830
 1662TIP3   OH2 4930   1.040   2.858   4.265
 1662TIP3    H1 4931   1.086   2.910   4.198
 1662TIP3    H2 4932   0.998   2.923   4.320
 1663TIP3   OH2 4933   4.650   7.039   2.391
 1663TIP3    H1 4934   4.593   6.981   2.443
 1663TIP3    H2 4935   4.589   7.091   2.339
 1664TIP3   OH2 4936   7.860   5.612   5.923
 1664TIP3    H1 4937   7.861   5.518   5.942
 1664TIP3    H2 4938   7.905   5.619   5.839
 1665TIP3   OH2 4939   2.644   7.763   5.407
 1665TIP3    H1 4940   2.691   7.680   5.411
 1665TIP3    H2 4941   2.620   7.772   5.315
 1666TIP3   OH2 4942   6.522   1.115   5.773
 1666TIP3    H1 4943   6.509   1.054   5.845
 1666TIP3    H2 4944   6.616   1.109   5.753
 1667TIP3   OH2 4945   6.748   2.254   6.448
 1667TIP3    H1 4946   6.742   2.285   6.358
 1667TIP3    H2 4947   6.671   2.197   6.458
 1668TIP3   OH2 4948   6.744   6.550   6.628
 1668TIP3    H1 4949   6.743   6.604   6.550
 1668TIP3    H2 4950   6.836   6.525   6.639
 1669TIP3   OH2 4951   0.509   4.865   6.662
 1669TIP3    H1 4952   0.469   4.914   6.590
 1669TIP3    H2 4953   0.435   4.832   6.713
 1670TIP3   OH2 4954   4.706   3.732   3.584
 1670TIP3    H1 4955   4.719   3.810   3.637
 1670TIP3    H2 4956   4.629   3.689   3.623
 1671TIP3   OH2 4957   8.293   3.590   2.138
 1671TIP3    H1 4958   8.206   3.577   2.099
 1671TIP3    H2 4959   8.353   3.589   2.064
 1672TIP3   OH2 4960   1.689   5.312   1.107
 1672TIP3    H1 4961   1.671   5.381   1.044
 1672TIP3    H2 4962   1.729   5.356   1.182
 1673TIP3   OH2 4963   1.504   2.338   2.580
 1673TIP3    H1 4964   1.599   2.329   2.586
 1673TIP3    H2 4965   1.475   2.345   2.671
 1674TIP3   OH2 4966   6.765   3.737   2.799
 1674TIP3    H1 4967   6.728   3.650   2.780
 1674TIP3    H2 4968   6.831   3.750   2.731
 1675TIP3   OH2 4969   0.758   5.974   4.894
 1675TIP3    H1 4970   0.732   6.044   4.834
 1675TIP3    H2 4971   0.774   6.018   4.978
 1676TIP3   OH2 4972   3.116   7.151   5.370
 1676TIP3    H1 4973   3.041   7.148   5.310
 1676TIP3    H2 4974   3.107   7.236   5.413
 1677TIP3   OH2 4975   3.882   2.453   1.279
 1677TIP3    H1 4976   3.917   2.485   1.362
 1677TIP3    H2 4977   3.952   2.398   1.243
 1678TIP3   OH2 4978   6.416   0.528   2.347
 1678TIP3    H1 4979   6.322   0.530   2.364
 1678TIP3    H2 4980   6.425   0.558   2.256
 1679TIP3   OH2 4981   3.648   1.845   1.508
 1679TIP3    H1 4982   3.586   1.879   1.443
 1679TIP3    H2 4983   3.691   1.772   1.464
 1680TIP3   OH2 4984   6.830   6.808   3.849
 1680TIP3    H1 4985   6.754   6.812   3.791
 1680TIP3    H2 4986   6.883   6.736   3.815
 1681TIP3   OH2 4987   5.675   5.632   5.273
 1681TIP3    H1 4988   5.593   5.644   5.321
 1681TIP3    H2 4989   5.649   5.591   5.191
 1682TIP3   OH2 4990   5.986   1.146   0.591
 1682TIP3    H1 4991   6.043   1.168   0.518
 1682TIP3    H2 4992   5.918   1.090   0.553
 1683TIP3   OH2 4993   6.089   4.811   4.334
 1683TIP3    H1 4994   6.147   4.875   4.292
 1683TIP3    H2 4995   6.116   4.727   4.298
 1684TIP3   OH2 4996   5.421   4.385   2.745
 1684TIP3    H1 4997   5.433   4.377   2.840
 1684TIP3    H2 4998   5.510   4.386   2.710
 1685TIP3   OH2 4999   1.238   0.499   1.262
 1685TIP3    H1 5000   1.150   0.467   1.283
 1685TIP3    H2 5001   1.289   0.420   1.247
 1686TIP3   OH2 5002   6.898   6.582   3.253
 1686TIP3    H1 5003   6.870   6.655   3.198
 1686TIP3    H2 5004   6.899   6.507   3.194
 1687TIP3   OH2 5005   0.570   3.026   0.300
 1687TIP3    H1 5006   0.665   3.036   0.300
 1687TIP3    H2 5007   0.546   3.016   0.208
 1688TIP3   OH2 5008   4.121   2.834   1.185
 1688TIP3    H1 5009   4.103   2.749   1.145
 1688TIP3    H2 5010   4.106   2.897   1.115
 1689TIP3   OH2 5011   2.993   0.628   5.989
 1689TIP3    H1 5012   2.941   0.706   6.009
 1689TIP3    H2 5013   3.057   0.624   6.060
 1690TIP3   OH2 5014   7.549   0.138   3.756
 1690TIP3    H1 5015   7.457   0.161   3.772
 1690TIP3    H2 5016   7.599   0.207   3.801
 1691TIP3   OH2 5017   0.919   7.087   5.821
 1691TIP3    H1 5018   0.839   7.094   5.768
 1691TIP3    H2 5019   0.951   7.177   5.828
 1692TIP3   OH2 5020   7.375   6.466   2.362
 1692TIP3    H1 5021   7.374   6.554   2.325
 1692TIP3    H2 5022   7.351   6.409   2.289
 1693TIP3   OH2 5023   1.773   1.682   0.656
 1693TIP3    H1 5024   1.794   1.719   0.570
 1693TIP3    H2 5025   1.777   1.756   0.716
 1694TIP3   OH2 5026   4.612   2.897   1.827
 1694TIP3    H1 5027   4.525   2.917   1.794
 1694TIP3    H2 5028   4.612   2.801   1.838
 1695TIP3   OH2 5029   0.705   6.736   2.636
 1695TIP3    H1 5030   0.627   6.791   2.647
 1695TIP3    H2 5031   0.707   6.715   2.543
 1696TIP3   OH2 5032   4.510   1.216   2.837
 1696TIP3    H1 5033   4.495   1.126   2.808
 1696TIP3    H2 5034   4.461   1.269   2.774
 1697TIP3   OH2 5035   0.564   4.163   0.041
 1697TIP3    H1 5036   0.468   4.158   0.047
 1697TIP3    H2 5037   0.589   4.087  -0.011
 1698TIP3   OH2 5038   7.609   2.760   5.148
 1698TIP3    H1 5039   7.551   2.725   5.081
 1698TIP3    H2 5040   7.551   2.807   5.208
 1699TIP3   OH2 5041   2.536   6.357   5.842
 1699TIP3    H1 5042   2.483   6.279   5.825
 1699TIP3    H2 5043   2.497   6.425   5.787
 1700TIP3   OH2 5044   1.743   4.415   6.638
 1700TIP3    H1 5045   1.656   4.404   6.676
 1700TIP3    H2 5046   1.740   4.367   6.555
 1701TIP3   OH2 5047   8.283   2.030   2.458
 1701TIP3    H1 5048   8.207   1.985   2.495
 1701TIP3    H2 5049   8.309   1.976   2.383
 1702TIP3   OH2 5050   6.186   0.041   6.674
 1702TIP3    H1 5051   6.185  -0.054   6.671
 1702TIP3    H2 5052   6.278   0.065   6.685
 1703TIP3   OH2 5053   3.479   4.125   1.180
 1703TIP3    H1 5054   3.407   4.067   1.205
 1703TIP3    H2 5055   3.526   4.077   1.112
 1704TIP3   OH2 5056   7.073   6.389   4.393
 1704TIP3    H1 5057   7.107   6.340   4.319
 1704TIP3    H2 5058   7.145   6.447   4.419
 1705TIP3   OH2 5059   4.561   4.418   5.607
 1705TIP3    H1 5060   4.580   4.411   5.514
 1705TIP3    H2 5061   4.645   4.404   5.650
 1706TIP3   OH2 5062   3.090   7.392   1.791
 1706TIP3    H1 5063   3.118   7.439   1.869
 1706TIP3    H2 5064   3.128   7.440   1.718
 1707TIP3   OH2 5065   5.443   3.363   2.112
 1707TIP3    H1 5066   5.350   3.340   2.121
 1707TIP3    H2 5067   5.450   3.449   2.153
 1708TIP3   OH2 5068   3.833   4.667   0.851
 1708TIP3    H1 5069   3.854   4.610   0.778
 1708TIP3    H2 5070   3.816   4.753   0.811
 1709TIP3   OH2 5071   1.697   3.268   0.837
 1709TIP3    H1 5072   1.766   3.296   0.897
 1709TIP3    H2 5073   1.729   3.185   0.800
 1710TIP3   OH2 5074   0.504   7.540   6.264
 1710TIP3    H1 5075   0.509   7.630   6.295
 1710TIP3    H2 5076   0.568   7.535   6.193
 1711TIP3   OH2 5077  -0.053   2.790   3.649
 1711TIP3    H1 5078  -0.079   2.880   3.631
 1711TIP3    H2 5079   0.043   2.790   3.643
 1712TIP3   OH2 5080   2.106   2.674   4.122
 1712TIP3    H1 5081   2.052   2.648   4.047
 1712TIP3    H2 5082   2.093   2.605   4.186
 1713TIP3   OH2 5083   2.671   0.406   1.796
 1713TIP3    H1 5084   2.640   0.445   1.715
 1713TIP3    H2 5085   2.658   0.474   1.862
 1714TIP3   OH2 5086   7.759   0.793   5.312
 1714TIP3    H1 5087   7.816   0.846   5.258
 1714TIP3    H2 5088   7.728   0.723   5.254
 1715TIP3   OH2 5089   7.061   0.404   6.380
 1715TIP3    H1 5090   6.977   0.374   6.415
 1715TIP3    H2 5091   7.107   0.323   6.357
 1716TIP3   OH2 5092   7.681   2.439   2.577
 1716TIP3    H1 5093   7.687   2.408   2.668
 1716TIP3    H2 5094   7.736   2.518   2.576
 1717TIP3   OH2 5095   3.205   5.879   2.559
 1717TIP3    H1 5096   3.189   5.967   2.525
 1717TIP3    H2 5097   3.119   5.845   2.581
 1718TIP3   OH2 5098   2.713   6.868   2.831
 1718TIP3    H1 5099   2.717   6.932   2.760
 1718TIP3    H2 5100   2.756   6.912   2.905
 1719TIP3   OH2 5101   1.441   1.889   0.503
 1719TIP3    H1 5102   1.451   1.804   0.461
 1719TIP3    H2 5103   1.398   1.870   0.587
 1720TIP3   OH2 5104   1.543   2.341   4.624
 1720TIP3    H1 5105   1.547   2.254   4.665
 1720TIP3    H2 5106   1.634   2.369   4.618
 1721TIP3   OH2 5107   5.192   3.522   0.701
 1721TIP3    H1 5108   5.228   3.442   0.740
 1721TIP3    H2 5109   5.268   3.566   0.663
 1722TIP3   OH2 5110   1.385   4.658   6.156
 1722TIP3    H1 5111   1.402   4.720   6.228
 1722TIP3    H2 5112   1.363   4.714   6.082
 1723TIP3   OH2 5113   1.688   3.093   4.190
 1723TIP3    H1 5114   1.736   3.099   4.108
 1723TIP3    H2 5115   1.617   3.032   4.173
 1724TIP3   OH2 5116   6.094   6.941   3.408
 1724TIP3    H1 5117   6.188   6.953   3.415
 1724TIP3    H2 5118   6.080   6.908   3.319
 1725TIP3   OH2 5119   0.077   4.134   2.200
 1725TIP3    H1 5120   0.160   4.121   2.154
 1725TIP3    H2 5121   0.093   4.209   2.257
 1726TIP3   OH2 5122   1.211   6.612   5.746
 1726TIP3    H1 5123   1.152   6.559   5.799
 1726TIP3    H2 5124   1.187   6.703   5.765
 1727TIP3   OH2 5125   6.171   1.993   3.865
 1727TIP3    H1 5126   6.237   2.045   3.820
 1727TIP3    H2 5127   6.212   1.907   3.876
 1728TIP3   OH2 5128   6.142   2.807   6.638
 1728TIP3    H1 5129   6.082   2.749   6.591
 1728TIP3    H2 5130   6.195   2.749   6.692
 1729TIP3   OH2 5131   7.470   5.741   1.150
 1729TIP3    H1 5132   7.501   5.661   1.108
 1729TIP3    H2 5133   7.375   5.731   1.156
 1730TIP3   OH2 5134   3.252   7.652   0.441
 1730TIP3    H1 5135   3.193   7.666   0.514
 1730TIP3    H2 5136   3.206   7.588   0.385
 1731TIP3   OH2 5137   6.704   2.394   3.914
 1731TIP3    H1 5138   6.668   2.440   3.839
 1731TIP3    H2 5139   6.745   2.462   3.967
 1732TIP3   OH2 5140   7.318   2.140   3.042
 1732TIP3    H1 5141   7.331   2.183   2.957
 1732TIP3    H2 5142   7.230   2.165   3.069
 1733TIP3   OH2 5143   3.006   6.401   2.668
 1733TIP3    H1 5144   2.966   6.466   2.611
 1733TIP3    H2 5145   3.085   6.444   2.702
 1734TIP3   OH2 5146   3.239   3.301   5.764
 1734TIP3    H1 5147   3.193   3.223   5.734
 1734TIP3    H2 5148   3.212   3.370   5.702
 1735TIP3   OH2 5149   7.692   2.283   4.250
 1735TIP3    H1 5150   7.759   2.215   4.235
 1735TIP3    H2 5151   7.658   2.302   4.163
 1736TIP3   OH2 5152   3.569   4.236   6.525
 1736TIP3    H1 5153   3.573   4.253   6.431
 1736TIP3    H2 5154   3.518   4.155   6.532
 1737TIP3   OH2 5155   6.890   4.735   2.559
 1737TIP3    H1 5156   6.937   4.779   2.488
 1737TIP3    H2 5157   6.932   4.768   2.639
 1738TIP3   OH2 5158   0.048   4.133   5.899
 1738TIP3    H1 5159   0.017   4.208   5.949
 1738TIP3    H2 5160   0.143   4.143   5.896
 1739TIP3   OH2 5161   0.992   0.822   4.398
 1739TIP3    H1 5162   0.897   0.826   4.413
 1739TIP3    H2 5163   1.025   0.771   4.472
 1740TIP3   OH2 5164   7.407   0.298   6.577
 1740TIP3    H1 5165   7.399   0.256   6.663
 1740TIP3    H2 5166   7.326   0.347   6.567
 1741TIP3   OH2 5167   6.463   5.040   0.812
 1741TIP3    H1 5168   6.477   4.983   0.887
 1741TIP3    H2 5169   6.552   5.062   0.782
 1742TIP3   OH2 5170   1.147   3.687   1.138
 1742TIP3    H1 5171   1.195   3.615   1.098
 1742TIP3    H2 5172   1.131   3.749   1.066
 1743TIP3   OH2 5173   4.608   4.848   2.860
 1743TIP3    H1 5174   4.612   4.780   2.793
 1743TIP3    H2 5175   4.581   4.802   2.939
 1744TIP3   OH2 5176   0.776   6.370   1.620
 1744TIP3    H1 5177   0.785   6.330   1.534
 1744TIP3    H2 5178   0.865   6.395   1.644
 1745TIP3   OH2 5179   5.212   6.525   5.237
 1745TIP3    H1 5180   5.205   6.436   5.204
 1745TIP3    H2 5181   5.203   6.516   5.332
 1746TIP3   OH2 5182   2.678   1.146   6.015
 1746TIP3    H1 5183   2.604   1.200   5.987
 1746TIP3    H2 5184   2.642   1.090   6.084
 1747TIP3   OH2 5185   4.538   3.491   3.225
 1747TIP3    H1 5186   4.456   3.455   3.190
 1747TIP3    H2 5187   4.510   3.563   3.281
 1748TIP3   OH2 5188   3.967   7.694   2.864
 1748TIP3    H1 5189   4.030   7.667   2.931
 1748TIP3    H2 5190   3.966   7.620   2.802
 1749TIP3   OH2 5191   4.957   1.955   3.476
 1749TIP3    H1 5192   4.872   1.937   3.515
 1749TIP3    H2 5193   4.997   1.869   3.465
 1750TIP3   OH2 5194   1.436   7.094   5.395
 1750TIP3    H1 5195   1.475   7.162   5.341
 1750TIP3    H2 5196   1.361   7.063   5.344
 1751TIP3   OH2 5197   4.499   6.371   2.350
 1751TIP3    H1 5198   4.501   6.275   2.353
 1751TIP3    H2 5199   4.455   6.390   2.267
 1752TIP3   OH2 5200   1.652   1.351   2.184
 1752TIP3    H1 5201   1.585   1.316   2.243
 1752TIP3    H2 5202   1.655   1.444   2.205
 1753TIP3   OH2 5203   7.316   0.366   2.058
 1753TIP3    H1 5204   7.380   0.300   2.029
 1753TIP3    H2 5205   7.293   0.339   2.147
 1754TIP3   OH2 5206   3.137   0.688   1.700
 1754TIP3    H1 5207   3.210   0.720   1.647
 1754TIP3    H2 5208   3.155   0.594   1.710
 1755TIP3   OH2 5209   0.439   5.618   5.106
 1755TIP3    H1 5210   0.475   5.625   5.018
 1755TIP3    H2 5211   0.381   5.542   5.102
 1756TIP3   OH2 5212   4.250   2.242   1.537
 1756TIP3    H1 5213   4.243   2.319   1.593
 1756TIP3    H2 5214   4.327   2.195   1.571
 1757TIP3   OH2 5215   4.169   4.697   0.659
 1757TIP3    H1 5216   4.201   4.683   0.748
 1757TIP3    H2 5217   4.221   4.770   0.626
 1758TIP3   OH2 5218   7.728   4.763   1.758
 1758TIP3    H1 5219   7.768   4.692   1.808
 1758TIP3    H2 5220   7.681   4.719   1.687
 1759TIP3   OH2 5221   5.772   1.954   4.939
 1759TIP3    H1 5222   5.754   1.952   5.033
 1759TIP3    H2 5223   5.840   1.887   4.926
 1760TIP3   OH2 5224   0.273   7.586   3.467
 1760TIP3    H1 5225   0.366   7.597   3.487
 1760TIP3    H2 5226   0.262   7.621   3.379
 1761TIP3   OH2 5227   2.916   3.296   1.520
 1761TIP3    H1 5228   2.943   3.213   1.479
 1761TIP3    H2 5229   2.973   3.305   1.596
 1762TIP3   OH2 5230   7.404   5.844   5.264
 1762TIP3    H1 5231   7.494   5.835   5.231
 1762TIP3    H2 5232   7.379   5.933   5.239
 1763TIP3   OH2 5233   5.888   0.168   3.515
 1763TIP3    H1 5234   5.832   0.245   3.527
 1763TIP3    H2 5235   5.936   0.187   3.434
 1764TIP3   OH2 5236   0.191   7.649   4.939
 1764TIP3    H1 5237   0.256   7.718   4.952
 1764TIP3    H2 5238   0.216   7.607   4.857
 1765TIP3   OH2 5239   0.650   4.672   4.536
 1765TIP3    H1 5240   0.662   4.653   4.443
 1765TIP3    H2 5241   0.580   4.613   4.564
 1766TIP3   OH2 5242   5.111   2.380   2.591
 1766TIP3    H1 5243   5.057   2.353   2.517
 1766TIP3    H2 5244   5.081   2.324   2.664
 1767TIP3   OH2 5245   5.513   4.358   2.262
 1767TIP3    H1 5246   5.529   4.267   2.283
 1767TIP3    H2 5247   5.447   4.355   2.192
 1768TIP3   OH2 5248   0.844   6.564   4.373
 1768TIP3    H1 5249   0.807   6.598   4.292
 1768TIP3    H2 5250   0.784   6.495   4.401
 1769TIP3   OH2 5251   5.564   3.768   0.500
 1769TIP3    H1 5252   5.532   3.857   0.513
 1769TIP3    H2 5253   5.648   3.766   0.545
 1770TIP3   OH2 5254   0.822   7.161   6.085
 1770TIP3    H1 5255   0.747   7.208   6.050
 1770TIP3    H2 5256   0.892   7.227   6.088
 1771TIP3   OH2 5257   6.676   3.946   1.308
 1771TIP3    H1 5258   6.740   3.878   1.325
 1771TIP3    H2 5259   6.608   3.932   1.374
 1772TIP3   OH2 5260   3.868   0.026   2.053
 1772TIP3    H1 5261   3.956   0.021   2.014
 1772TIP3    H2 5262   3.869   0.107   2.104
 1773TIP3   OH2 5263   0.891   4.443   6.094
 1773TIP3    H1 5264   0.877   4.361   6.141
 1773TIP3    H2 5265   0.946   4.495   6.153
 1774TIP3   OH2 5266   1.565   7.173   1.249
 1774TIP3    H1 5267   1.609   7.173   1.333
 1774TIP3    H2 5268   1.623   7.125   1.190
 1775TIP3   OH2 5269   6.093   6.397   2.620
 1775TIP3    H1 5270   6.079   6.490   2.604
 1775TIP3    H2 5271   6.060   6.383   2.709
 1776TIP3   OH2 5272   3.103   0.775   2.719
 1776TIP3    H1 5273   3.108   0.850   2.778
 1776TIP3    H2 5274   3.089   0.814   2.632
 1777TIP3   OH2 5275   6.278   1.568   1.136
 1777TIP3    H1 5276   6.282   1.472   1.131
 1777TIP3    H2 5277   6.207   1.592   1.078
 1778TIP3   OH2 5278   2.087   7.497   6.694
 1778TIP3    H1 5279   2.094   7.461   6.782
 1778TIP3    H2 5280   2.174   7.488   6.656
 1779TIP3   OH2 5281   5.515   4.794   5.013
 1779TIP3    H1 5282   5.437   4.844   5.034
 1779TIP3    H2 5283   5.546   4.830   4.929
 1780TIP3   OH2 5284   7.538   5.467   4.080
 1780TIP3    H1 5285   7.592   5.460   4.001
 1780TIP3    H2 5286   7.537   5.378   4.115
 1781TIP3   OH2 5287   3.780   5.292   0.847
 1781TIP3    H1 5288   3.824   5.257   0.924
 1781TIP3    H2 5289   3.847   5.292   0.779
 1782TIP3   OH2 5290   3.921   6.915   0.168
 1782TIP3    H1 5291   3.842   6.861   0.163
 1782TIP3    H2 5292   3.915   6.974   0.092
 1783TIP3   OH2 5293   3.444   3.973   6.683
 1783TIP3    H1 5294   3.355   4.005   6.697
 1783TIP3    H2 5295   3.436   3.878   6.682
 1784TIP3   OH2 5296   5.952   4.335   0.772
 1784TIP3    H1 5297   5.935   4.257   0.825
 1784TIP3    H2 5298   5.907   4.319   0.689
 1785TIP3   OH2 5299   3.731   1.106   0.250
 1785TIP3    H1 5300   3.665   1.060   0.198
 1785TIP3    H2 5301   3.796   1.039   0.271
 1786TIP3   OH2 5302   7.493   2.047   2.490
 1786TIP3    H1 5303   7.570   2.071   2.438
 1786TIP3    H2 5304   7.448   2.131   2.505
 1787TIP3   OH2 5305   6.898   1.977   5.167
 1787TIP3    H1 5306   6.848   1.902   5.135
 1787TIP3    H2 5307   6.832   2.042   5.190
 1788TIP3   OH2 5308   0.719   4.752   5.044
 1788TIP3    H1 5309   0.720   4.833   4.993
 1788TIP3    H2 5310   0.691   4.684   4.982
 1789TIP3   OH2 5311   5.991   2.878   1.678
 1789TIP3    H1 5312   6.048   2.931   1.621
 1789TIP3    H2 5313   5.904   2.888   1.641
 1790TIP3   OH2 5314   1.463   3.903   5.705
 1790TIP3    H1 5315   1.377   3.863   5.721
 1790TIP3    H2 5316   1.489   3.870   5.619
 1791TIP3   OH2 5317   3.125   6.014   0.564
 1791TIP3    H1 5318   3.087   5.927   0.578
 1791TIP3    H2 5319   3.190   6.023   0.634
 1792TIP3   OH2 5320   3.624   1.724   6.361
 1792TIP3    H1 5321   3.628   1.752   6.453
 1792TIP3    H2 5322   3.530   1.717   6.342
 1793TIP3   OH2 5323   2.952   1.827   0.861
 1793TIP3    H1 5324   2.914   1.788   0.783
 1793TIP3    H2 5325   2.953   1.921   0.844
 1794TIP3   OH2 5326   1.883   4.052   3.295
 1794TIP3    H1 5327   1.969   4.024   3.263
 1794TIP3    H2 5328   1.822   4.028   3.225
 1795TIP3   OH2 5329   0.419   5.331   0.211
 1795TIP3    H1 5330   0.499   5.318   0.160
 1795TIP3    H2 5331   0.425   5.266   0.281
 1796TIP3   OH2 5332   3.878   3.274   2.081
 1796TIP3    H1 5333   3.923   3.337   2.137
 1796TIP3    H2 5334   3.936   3.197   2.080
 1797TIP3   OH2 5335   3.627   0.894   1.775
 1797TIP3    H1 5336   3.599   0.907   1.866
 1797TIP3    H2 5337   3.719   0.918   1.774
 1798TIP3   OH2 5338   2.603   1.025   2.503
 1798TIP3    H1 5339   2.540   0.957   2.480
 1798TIP3    H2 5340   2.550   1.100   2.529
 1799TIP3   OH2 5341   6.000   0.597   5.294
 1799TIP3    H1 5342   6.096   0.594   5.297
 1799TIP3    H2 5343   5.972   0.514   5.331
 1800TIP3   OH2 5344   4.527   7.213   1.674
 1800TIP3    H1 5345   4.449   7.167   1.643
 1800TIP3    H2 5346   4.527   7.200   1.768
 1801TIP3   OH2 5347   0.379   4.242   0.547
 1801TIP3    H1 5348   0.351   4.333   0.542
 1801TIP3    H2 5349   0.385   4.224   0.641
 1802TIP3   OH2 5350   6.954   1.144   2.615
 1802TIP3    H1 5351   6.862   1.152   2.642
 1802TIP3    H2 5352   6.953   1.165   2.522
 1803TIP3   OH2 5353   3.207   3.683   0.895
 1803TIP3    H1 5354   3.166   3.713   0.977
 1803TIP3    H2 5355   3.229   3.763   0.848
 1804TIP3   OH2 5356   1.383   1.176   6.470
 1804TIP3    H1 5357   1.446   1.145   6.404
 1804TIP3    H2 5358   1.406   1.268   6.484
 1805TIP3   OH2 5359   0.231   5.523   3.484
 1805TIP3    H1 5360   0.215   5.595   3.423
 1805TIP3    H2 5361   0.154   5.524   3.541
 1806TIP3   OH2 5362   1.377   4.406   1.203
 1806TIP3    H1 5363   1.347   4.317   1.222
 1806TIP3    H2 5364   1.424   4.399   1.120
 1807TIP3   OH2 5365   3.081   0.235   0.528
 1807TIP3    H1 5366   3.056   0.264   0.440
 1807TIP3    H2 5367   3.110   0.145   0.516
 1808TIP3   OH2 5368   6.796   3.108   6.520
 1808TIP3    H1 5369   6.743   3.044   6.569
 1808TIP3    H2 5370   6.860   3.139   6.583
 1809TIP3   OH2 5371   1.008   0.603   2.552
 1809TIP3    H1 5372   0.972   0.617   2.465
 1809TIP3    H2 5373   0.953   0.534   2.590
 1810TIP3   OH2 5374   0.869   3.071   0.989
 1810TIP3    H1 5375   0.833   3.159   0.978
 1810TIP3    H2 5376   0.927   3.059   0.913
 1811TIP3   OH2 5377   4.112   3.631   5.244
 1811TIP3    H1 5378   4.040   3.648   5.183
 1811TIP3    H2 5379   4.134   3.539   5.230
 1812TIP3   OH2 5380   2.183   1.328   3.667
 1812TIP3    H1 5381   2.229   1.316   3.751
 1812TIP3    H2 5382   2.102   1.374   3.691
 1813TIP3   OH2 5383   0.024   3.561   4.235
 1813TIP3    H1 5384  -0.011   3.646   4.207
 1813TIP3    H2 5385   0.114   3.580   4.262
 1814TIP3   OH2 5386   6.070   5.872   5.287
 1814TIP3    H1 5387   6.017   5.921   5.225
 1814TIP3    H2 5388   6.067   5.924   5.367
 1815TIP3   OH2 5389   7.539   0.091   5.599
 1815TIP3    H1 5390   7.510   0.169   5.551
 1815TIP3    H2 5391   7.510   0.018   5.545
 1816TIP3   OH2 5392   2.628   6.736   2.162
 1816TIP3    H1 5393   2.595   6.823   2.183
 1816TIP3    H2 5394   2.631   6.691   2.247
 1817TIP3   OH2 5395   0.447   5.779   2.320
 1817TIP3    H1 5396   0.362   5.819   2.303
 1817TIP3    H2 5397   0.492   5.840   2.378
 1818TIP3   OH2 5398   0.098   5.837   6.707
 1818TIP3    H1 5399   0.089   5.765   6.770
 1818TIP3    H2 5400   0.166   5.893   6.744
 1819TIP3   OH2 5401   7.525   5.902   4.715
 1819TIP3    H1 5402   7.612   5.866   4.734
 1819TIP3    H2 5403   7.529   5.926   4.622
 1820TIP3   OH2 5404   3.106   5.668   4.728
 1820TIP3    H1 5405   3.017   5.637   4.748
 1820TIP3    H2 5406   3.099   5.707   4.641
 1821TIP3   OH2 5407   0.046   4.685   1.038
 1821TIP3    H1 5408   0.017   4.757   0.982
 1821TIP3    H2 5409   0.117   4.643   0.989
 1822TIP3   OH2 5410   6.504   6.124   6.081
 1822TIP3    H1 5411   6.481   6.216   6.096
 1822TIP3    H2 5412   6.449   6.097   6.008
 1823TIP3   OH2 5413   5.758   2.131   4.001
 1823TIP3    H1 5414   5.665   2.119   3.982
 1823TIP3    H2 5415   5.803   2.112   3.919
 1824TIP3   OH2 5416   8.037   6.901   2.270
 1824TIP3    H1 5417   8.119   6.860   2.296
 1824TIP3    H2 5418   8.057   6.943   2.186
 1825TIP3   OH2 5419   3.953   6.434   6.009
 1825TIP3    H1 5420   4.025   6.493   6.032
 1825TIP3    H2 5421   3.996   6.359   5.968
 1826TIP3   OH2 5422   1.417   2.245   1.474
 1826TIP3    H1 5423   1.396   2.337   1.460
 1826TIP3    H2 5424   1.363   2.198   1.411
 1827TIP3   OH2 5425   3.244   0.504   1.269
 1827TIP3    H1 5426   3.213   0.588   1.237
 1827TIP3    H2 5427   3.336   0.518   1.290
 1828TIP3   OH2 5428   6.946   3.811   4.884
 1828TIP3    H1 5429   6.874   3.810   4.821
 1828TIP3    H2 5430   7.010   3.749   4.848
 1829TIP3   OH2 5431   6.384   5.762   3.489
 1829TIP3    H1 5432   6.385   5.708   3.410
 1829TIP3    H2 5433   6.386   5.699   3.561
 1830TIP3   OH2 5434   2.471   1.961   5.994
 1830TIP3    H1 5435   2.484   1.999   5.907
 1830TIP3    H2 5436   2.379   1.935   5.995
 1831TIP3   OH2 5437   3.958   3.880   0.147
 1831TIP3    H1 5438   3.891   3.816   0.173
 1831TIP3    H2 5439   4.026   3.828   0.105
 1832TIP3   OH2 5440   0.188   1.926   2.643
 1832TIP3    H1 5441   0.134   1.972   2.578
 1832TIP3    H2 5442   0.125   1.884   2.702
 1833TIP3   OH2 5443   7.677   3.533   3.024
 1833TIP3    H1 5444   7.742   3.562   3.087
 1833TIP3    H2 5445   7.617   3.607   3.015
 1834TIP3   OH2 5446   1.186   3.880   2.895
 1834TIP3    H1 5447   1.265   3.829   2.912
 1834TIP3    H2 5448   1.173   3.873   2.801
 1835TIP3   OH2 5449   7.575   1.828   0.259
 1835TIP3    H1 5450   7.581   1.914   0.218
 1835TIP3    H2 5451   7.626   1.836   0.340
 1836TIP3   OH2 5452   6.974   6.512   1.696
 1836TIP3    H1 5453   7.013   6.553   1.618
 1836TIP3    H2 5454   7.036   6.443   1.721
 1837TIP3   OH2 5455   0.731   7.740   6.527
 1837TIP3    H1 5456   0.687   7.661   6.559
 1837TIP3    H2 5457   0.691   7.757   6.441
 1838TIP3   OH2 5458   3.878   6.777   2.667
 1838TIP3    H1 5459   3.795   6.746   2.631
 1838TIP3    H2 5460   3.929   6.698   2.682
 1839TIP3   OH2 5461   0.447   0.880   3.218
 1839TIP3    H1 5462   0.399   0.841   3.144
 1839TIP3    H2 5463   0.396   0.854   3.295
 1840TIP3   OH2 5464   4.087   5.946   2.659
 1840TIP3    H1 5465   4.054   5.912   2.742
 1840TIP3    H2 5466   4.057   6.036   2.656
 1841TIP3   OH2 5467   0.382   3.417   1.363
 1841TIP3    H1 5468   0.419   3.378   1.442
 1841TIP3    H2 5469   0.458   3.434   1.307
 1842TIP3   OH2 5470   2.017   6.288   4.286
 1842TIP3    H1 5471   2.087   6.343   4.251
 1842TIP3    H2 5472   1.943   6.348   4.299
 1843TIP3   OH2 5473   6.803   3.042   0.566
 1843TIP3    H1 5474   6.780   2.950   0.552
 1843TIP3    H2 5475   6.898   3.044   0.563
 1844TIP3   OH2 5476   7.428   3.841   1.532
 1844TIP3    H1 5477   7.494   3.878   1.591
 1844TIP3    H2 5478   7.351   3.830   1.587
 1845TIP3   OH2 5479   1.789   0.527   1.883
 1845TIP3    H1 5480   1.841   0.484   1.951
 1845TIP3    H2 5481   1.811   0.481   1.802
 1846TIP3   OH2 5482   6.078   3.612   5.225
 1846TIP3    H1 5483   6.128   3.547   5.274
 1846TIP3    H2 5484   6.025   3.657   5.291
 1847TIP3   OH2 5485   3.430   3.311   2.920
 1847TIP3    H1 5486   3.468   3.274   2.840
 1847TIP3    H2 5487   3.449   3.247   2.988
 1848TIP3   OH2 5488   5.798   4.519   4.816
 1848TIP3    H1 5489   5.826   4.494   4.728
 1848TIP3    H2 5490   5.869   4.490   4.874
 1849TIP3   OH2 5491   4.708   2.558   3.811
 1849TIP3    H1 5492   4.651   2.630   3.782
 1849TIP3    H2 5493   4.721   2.505   3.732
 1850TIP3   OH2 5494   6.638   6.944   5.803
 1850TIP3    H1 5495   6.727   6.960   5.769
 1850TIP3    H2 5496   6.641   6.977   5.893
 1851TIP3   OH2 5497   1.349   2.782   4.794
 1851TIP3    H1 5498   1.267   2.810   4.836
 1851TIP3    H2 5499   1.417   2.824   4.846
 1852TIP3   OH2 5500   4.511   4.100   0.210
 1852TIP3    H1 5501   4.532   4.007   0.200
 1852TIP3    H2 5502   4.438   4.114   0.151
 1853TIP3   OH2 5503   0.308   6.303   2.158
 1853TIP3    H1 5504   0.296   6.383   2.209
 1853TIP3    H2 5505   0.286   6.329   2.068
 1854TIP3   OH2 5506   0.753   5.113   2.243
 1854TIP3    H1 5507   0.826   5.129   2.302
 1854TIP3    H2 5508   0.675   5.121   2.298
 1855TIP3   OH2 5509   6.395   6.722   4.939
 1855TIP3    H1 5510   6.392   6.753   4.849
 1855TIP3    H2 5511   6.311   6.748   4.977
 1856TIP3   OH2 5512   7.835   4.297   2.707
 1856TIP3    H1 5513   7.783   4.356   2.653
 1856TIP3    H2 5514   7.876   4.237   2.644
 1857TIP3   OH2 5515   0.466   1.117   0.645
 1857TIP3    H1 5516   0.478   1.168   0.725
 1857TIP3    H2 5517   0.398   1.053   0.667
 1858TIP3   OH2 5518   4.231   2.544   5.507
 1858TIP3    H1 5519   4.217   2.635   5.479
 1858TIP3    H2 5520   4.142   2.509   5.517
 1859TIP3   OH2 5521   2.794   0.896   4.916
 1859TIP3    H1 5522   2.712   0.924   4.956
 1859TIP3    H2 5523   2.795   0.937   4.830
 1860TIP3   OH2 5524   6.359   0.282   5.302
 1860TIP3    H1 5525   6.428   0.276   5.235
 1860TIP3    H2 5526   6.339   0.191   5.323
 1861TIP3   OH2 5527   3.738   2.767   5.506
 1861TIP3    H1 5528   3.827   2.734   5.491
 1861TIP3    H2 5529   3.740   2.857   5.474
 1862TIP3   OH2 5530   2.899   5.645   6.088
 1862TIP3    H1 5531   2.918   5.584   6.017
 1862TIP3    H2 5532   2.928   5.599   6.167
 1863TIP3   OH2 5533   3.025   7.501   6.181
 1863TIP3    H1 5534   3.042   7.482   6.274
 1863TIP3    H2 5535   2.942   7.549   6.182
 1864TIP3   OH2 5536   6.374   6.234   4.490
 1864TIP3    H1 5537   6.316   6.287   4.544
 1864TIP3    H2 5538   6.355   6.260   4.400
 1865TIP3   OH2 5539   1.771   6.569   2.133
 1865TIP3    H1 5540   1.741   6.546   2.222
 1865TIP3    H2 5541   1.778   6.664   2.134
 1866TIP3   OH2 5542   1.431   6.557   1.162
 1866TIP3    H1 5543   1.374   6.598   1.228
 1866TIP3    H2 5544   1.384   6.567   1.080
 1867TIP3   OH2 5545   6.596   0.141   3.953
 1867TIP3    H1 5546   6.509   0.180   3.956
 1867TIP3    H2 5547   6.587   0.067   3.892
 1868TIP3   OH2 5548   0.368   3.435   2.518
 1868TIP3    H1 5549   0.384   3.340   2.523
 1868TIP3    H2 5550   0.290   3.449   2.570
 1869TIP3   OH2 5551   3.185   0.330   0.029
 1869TIP3    H1 5552   3.124   0.273  -0.019
 1869TIP3    H2 5553   3.139   0.414   0.034
 1870TIP3   OH2 5554   6.485   1.260   1.896
 1870TIP3    H1 5555   6.477   1.307   1.979
 1870TIP3    H2 5556   6.539   1.317   1.842
 1871TIP3   OH2 5557   4.855   7.518   1.766
 1871TIP3    H1 5558   4.779   7.504   1.710
 1871TIP3    H2 5559   4.862   7.437   1.817
 1872TIP3   OH2 5560   1.136   7.314   2.599
 1872TIP3    H1 5561   1.219   7.303   2.553
 1872TIP3    H2 5562   1.112   7.226   2.627
 1873TIP3   OH2 5563   8.157   4.182   0.567
 1873TIP3    H1 5564   8.236   4.231   0.591
 1873TIP3    H2 5565   8.143   4.122   0.640
 1874TIP3   OH2 5566   6.249   0.242   0.954
 1874TIP3    H1 5567   6.249   0.321   1.008
 1874TIP3    H2 5568   6.336   0.204   0.967
 1875TIP3   OH2 5569   7.878   6.931   4.731
 1875TIP3    H1 5570   7.815   7.003   4.744
 1875TIP3    H2 5571   7.830   6.867   4.678
 1876TIP3   OH2 5572   1.355   4.441   0.242
 1876TIP3    H1 5573   1.396   4.523   0.270
 1876TIP3    H2 5574   1.313   4.407   0.321
 1877TIP3   OH2 5575   7.936   1.668   0.686
 1877TIP3    H1 5576   7.930   1.601   0.754
 1877TIP3    H2 5577   7.989   1.737   0.725
 1878TIP3   OH2 5578   7.673   0.946   2.259
 1878TIP3    H1 5579   7.706   0.903   2.180
 1878TIP3    H2 5580   7.665   0.876   2.323
 1879TIP3   OH2 5581   5.909   6.031   6.263
 1879TIP3    H1 5582   5.898   6.075   6.347
 1879TIP3    H2 5583   5.939   6.099   6.203
 1880TIP3   OH2 5584   0.080   2.781   1.033
 1880TIP3    H1 5585   0.049   2.706   0.983
 1880TIP3    H2 5586   0.168   2.798   0.999
 1881TIP3   OH2 5587   0.315   0.812   2.524
 1881TIP3    H1 5588   0.351   0.724   2.532
 1881TIP3    H2 5589   0.371   0.866   2.580
 1882TIP3   OH2 5590   4.451   2.147   5.138
 1882TIP3    H1 5591   4.408   2.212   5.193
 1882TIP3    H2 5592   4.524   2.115   5.190
 1883TIP3   OH2 5593   2.126   6.961   0.411
 1883TIP3    H1 5594   2.200   6.901   0.421
 1883TIP3    H2 5595   2.059   6.910   0.366
 1884TIP3   OH2 5596   6.490   0.605   2.112
 1884TIP3    H1 5597   6.545   0.672   2.071
 1884TIP3    H2 5598   6.416   0.595   2.052
 1885TIP3   OH2 5599   5.414   1.738   1.248
 1885TIP3    H1 5600   5.413   1.795   1.326
 1885TIP3    H2 5601   5.459   1.790   1.181
 1886TIP3   OH2 5602   4.736   1.741   3.818
 1886TIP3    H1 5603   4.807   1.779   3.767
 1886TIP3    H2 5604   4.667   1.808   3.817
 1887TIP3   OH2 5605   4.450   3.520   2.249
 1887TIP3    H1 5606   4.434   3.443   2.303
 1887TIP3    H2 5607   4.367   3.537   2.206
 1888TIP3   OH2 5608   7.698   3.669   3.898
 1888TIP3    H1 5609   7.707   3.698   3.807
 1888TIP3    H2 5610   7.604   3.661   3.911
 1889TIP3   OH2 5611   3.998   4.668   6.373
 1889TIP3    H1 5612   4.006   4.745   6.316
 1889TIP3    H2 5613   3.963   4.703   6.455
 1890TIP3   OH2 5614   5.230   6.046   6.341
 1890TIP3    H1 5615   5.184   5.963   6.355
 1890TIP3    H2 5616   5.172   6.112   6.379
 1891TIP3   OH2 5617   4.234   5.263   3.301
 1891TIP3    H1 5618   4.178   5.335   3.332
 1891TIP3    H2 5619   4.322   5.299   3.304
 1892TIP3   OH2 5620   4.589   7.037   0.146
 1892TIP3    H1 5621   4.567   7.085   0.225
 1892TIP3    H2 5622   4.669   7.078   0.113
 1893TIP3   OH2 5623   3.605   3.788   0.090
 1893TIP3    H1 5624   3.681   3.757   0.139
 1893TIP3    H2 5625   3.565   3.708   0.055
 1894TIP3   OH2 5626   7.459   1.732   4.300
 1894TIP3    H1 5627   7.413   1.657   4.336
 1894TIP3    H2 5628   7.551   1.710   4.308
 1895TIP3   OH2 5629   6.835   3.332   5.521
 1895TIP3    H1 5630   6.812   3.396   5.588
 1895TIP3    H2 5631   6.762   3.270   5.521
 1896TIP3   OH2 5632   6.743   2.962   4.847
 1896TIP3    H1 5633   6.819   2.953   4.904
 1896TIP3    H2 5634   6.695   2.880   4.858
 1897TIP3   OH2 5635   0.308   3.671   6.282
 1897TIP3    H1 5636   0.353   3.598   6.325
 1897TIP3    H2 5637   0.341   3.670   6.192
 1898TIP3   OH2 5638   3.984   3.402   1.696
 1898TIP3    H1 5639   3.977   3.498   1.699
 1898TIP3    H2 5640   4.047   3.381   1.765
 1899TIP3   OH2 5641   6.730   3.525   5.241
 1899TIP3    H1 5642   6.720   3.447   5.186
 1899TIP3    H2 5643   6.654   3.522   5.300
 1900TIP3   OH2 5644   0.144   3.816   2.263
 1900TIP3    H1 5645   0.098   3.888   2.219
 1900TIP3    H2 5646   0.223   3.857   2.299
 1901TIP3   OH2 5647   2.570   4.907   5.090
 1901TIP3    H1 5648   2.654   4.861   5.087
 1901TIP3    H2 5649   2.516   4.862   5.025
 1902TIP3   OH2 5650   2.713   5.602  -0.039
 1902TIP3    H1 5651   2.738   5.693  -0.028
 1902TIP3    H2 5652   2.793   5.552  -0.018
 1903TIP3   OH2 5653   5.975   1.506   6.685
 1903TIP3    H1 5654   6.049   1.480   6.739
 1903TIP3    H2 5655   5.963   1.599   6.703
 1904TIP3   OH2 5656   2.403   7.526   2.211
 1904TIP3    H1 5657   2.485   7.573   2.194
 1904TIP3    H2 5658   2.401   7.456   2.146
 1905TIP3   OH2 5659   7.699   4.909   0.326
 1905TIP3    H1 5660   7.639   4.930   0.398
 1905TIP3    H2 5661   7.675   4.970   0.256
 1906TIP3   OH2 5662   3.652   7.381   2.343
 1906TIP3    H1 5663   3.633   7.338   2.427
 1906TIP3    H2 5664   3.572   7.369   2.292
 1907TIP3   OH2 5665   5.340   5.257   1.591
 1907TIP3    H1 5666   5.298   5.343   1.585
 1907TIP3    H2 5667   5.302   5.217   1.670
 1908TIP3   OH2 5668   1.898   1.417   5.175
 1908TIP3    H1 5669   1.843   1.415   5.097
 1908TIP3    H2 5670   1.917   1.325   5.193
 1909TIP3   OH2 5671   4.713   6.741   5.649
 1909TIP3    H1 5672   4.668   6.656   5.643
 1909TIP3    H2 5673   4.651   6.802   5.609
 1910TIP3   OH2 5674   0.999   6.352   6.363
 1910TIP3    H1 5675   0.984   6.373   6.456
 1910TIP3    H2 5676   0.992   6.436   6.318
 1911TIP3   OH2 5677   3.613   1.769   2.291
 1911TIP3    H1 5678   3.646   1.689   2.332
 1911TIP3    H2 5679   3.654   1.840   2.340
 1912TIP3   OH2 5680   3.157   0.891   5.064
 1912TIP3    H1 5681   3.224   0.858   5.003
 1912TIP3    H2 5682   3.079   0.839   5.045
 1913TIP3   OH2 5683   4.882   2.037   2.567
 1913TIP3    H1 5684   4.942   1.966   2.587
 1913TIP3    H2 5685   4.801   2.013   2.613
 1914TIP3   OH2 5686   0.515   7.573   3.568
 1914TIP3    H1 5687   0.518   7.660   3.609
 1914TIP3    H2 5688   0.607   7.550   3.554
 1915TIP3   OH2 5689   5.309   7.140   2.073
 1915TIP3    H1 5690   5.245   7.171   2.138
 1915TIP3    H2 5691   5.390   7.187   2.095
 1916TIP3   OH2 5692   6.580   7.091   2.439
 1916TIP3    H1 5693   6.592   7.047   2.355
 1916TIP3    H2 5694   6.553   7.022   2.499
 1917TIP3   OH2 5695   1.304   4.104   4.916
 1917TIP3    H1 5696   1.329   4.150   4.996
 1917TIP3    H2 5697   1.349   4.151   4.846
 1918TIP3   OH2 5698   4.393   0.633   0.188
 1918TIP3    H1 5699   4.470   0.613   0.241
 1918TIP3    H2 5700   4.386   0.559   0.127
 1919TIP3   OH2 5701   2.690   5.816   3.943
 1919TIP3    H1 5702   2.623   5.838   4.007
 1919TIP3    H2 5703   2.665   5.730   3.910
 1920TIP3   OH2 5704   6.139   1.323   2.136
 1920TIP3    H1 5705   6.157   1.417   2.139
 1920TIP3    H2 5706   6.224   1.283   2.116
 1921TIP3   OH2 5707   1.689   0.543   1.334
 1921TIP3    H1 5708   1.606   0.515   1.371
 1921TIP3    H2 5709   1.668   0.624   1.288
 1922TIP3   OH2 5710   7.168   6.929   6.415
 1922TIP3    H1 5711   7.108   6.990   6.372
 1922TIP3    H2 5712   7.195   6.869   6.345
 1923TIP3   OH2 5713   4.464   1.806   3.668
 1923TIP3    H1 5714   4.370   1.788   3.665
 1923TIP3    H2 5715   4.475   1.889   3.623
 1924TIP3   OH2 5716   4.188   6.259   5.385
 1924TIP3    H1 5717   4.163   6.218   5.467
 1924TIP3    H2 5718   4.106   6.290   5.347
 1925TIP3   OH2 5719   5.186   6.316   5.999
 1925TIP3    H1 5720   5.264   6.367   5.980
 1925TIP3    H2 5721   5.159   6.281   5.914
 1926TIP3   OH2 5722   7.555   2.008   5.260
 1926TIP3    H1 5723   7.506   2.075   5.308
 1926TIP3    H2 5724   7.619   2.057   5.209
 1927TIP3   OH2 5725   0.661   0.056   0.815
 1927TIP3    H1 5726   0.591   0.033   0.754
 1927TIP3    H2 5727   0.691  -0.028   0.850
 1928TIP3   OH2 5728   4.452   6.474   3.771
 1928TIP3    H1 5729   4.511   6.548   3.781
 1928TIP3    H2 5730   4.499   6.400   3.809
 1929TIP3   OH2 5731   6.252   6.964   6.236
 1929TIP3    H1 5732   6.200   7.030   6.192
 1929TIP3    H2 5733   6.189   6.909   6.282
 1930TIP3   OH2 5734   4.506   7.174   6.765
 1930TIP3    H1 5735   4.436   7.236   6.787
 1930TIP3    H2 5736   4.571   7.227   6.718
 1931TIP3   OH2 5737   7.078   7.336   3.049
 1931TIP3    H1 5738   7.017   7.403   3.081
 1931TIP3    H2 5739   7.107   7.369   2.964
 1932TIP3   OH2 5740   2.576   5.204   4.540
 1932TIP3    H1 5741   2.568   5.184   4.633
 1932TIP3    H2 5742   2.610   5.124   4.500
 1933TIP3   OH2 5743   1.618   5.058   5.965
 1933TIP3    H1 5744   1.526   5.031   5.958
 1933TIP3    H2 5745   1.645   5.072   5.874
 1934TIP3   OH2 5746   4.867   5.323   1.496
 1934TIP3    H1 5747   4.805   5.389   1.529
 1934TIP3    H2 5748   4.829   5.239   1.521
 1935TIP3   OH2 5749   5.119   4.840   5.921
 1935TIP3    H1 5750   5.064   4.774   5.878
 1935TIP3    H2 5751   5.122   4.913   5.859
 1936TIP3   OH2 5752   7.755   2.842   1.282
 1936TIP3    H1 5753   7.811   2.819   1.208
 1936TIP3    H2 5754   7.686   2.777   1.282
 1937TIP3   OH2 5755   0.756   3.911   3.169
 1937TIP3    H1 5756   0.774   3.885   3.078
 1937TIP3    H2 5757   0.664   3.885   3.183
 1938TIP3   OH2 5758   7.048   2.622   1.500
 1938TIP3    H1 5759   7.033   2.655   1.589
 1938TIP3    H2 5760   7.037   2.528   1.508
 1939TIP3   OH2 5761   8.173   4.812   0.711
 1939TIP3    H1 5762   8.138   4.841   0.627
 1939TIP3    H2 5763   8.100   4.823   0.772
 1940TIP3   OH2 5764   6.380   6.344   5.328
 1940TIP3    H1 5765   6.476   6.351   5.332
 1940TIP3    H2 5766   6.349   6.434   5.340
 1941TIP3   OH2 5767   0.454   0.170   0.018
 1941TIP3    H1 5768   0.406   0.092   0.044
 1941TIP3    H2 5769   0.398   0.243   0.044
 1942TIP3   OH2 5770   6.127   1.864   2.392
 1942TIP3    H1 5771   6.092   1.953   2.403
 1942TIP3    H2 5772   6.050   1.807   2.400
 1943TIP3   OH2 5773   2.802   0.814   5.335
 1943TIP3    H1 5774   2.887   0.828   5.377
 1943TIP3    H2 5775   2.773   0.901   5.309
 1944TIP3   OH2 5776   3.302   1.794   2.588
 1944TIP3    H1 5777   3.266   1.707   2.606
 1944TIP3    H2 5778   3.333   1.789   2.498
 1945TIP3   OH2 5779   2.511   2.748   4.704
 1945TIP3    H1 5780   2.463   2.677   4.660
 1945TIP3    H2 5781   2.554   2.705   4.778
 1946TIP3   OH2 5782   4.582   6.861   3.486
 1946TIP3    H1 5783   4.603   6.799   3.416
 1946TIP3    H2 5784   4.664   6.910   3.500
 1947TIP3   OH2 5785   2.440   7.015   1.382
 1947TIP3    H1 5786   2.481   6.974   1.306
 1947TIP3    H2 5787   2.369   7.067   1.346
 1948TIP3   OH2 5788   5.805   4.486   1.326
 1948TIP3    H1 5789   5.774   4.435   1.401
 1948TIP3    H2 5790   5.744   4.560   1.320
 1949TIP3   OH2 5791   4.121   0.616   2.365
 1949TIP3    H1 5792   4.116   0.591   2.458
 1949TIP3    H2 5793   4.043   0.670   2.350
 1950TIP3   OH2 5794   3.032   4.715   4.607
 1950TIP3    H1 5795   2.980   4.722   4.687
 1950TIP3    H2 5796   3.094   4.788   4.613
 1951TIP3   OH2 5797   3.865   6.775   5.266
 1951TIP3    H1 5798   3.955   6.746   5.251
 1951TIP3    H2 5799   3.849   6.843   5.200
 1952TIP3   OH2 5800   4.324   0.754   3.602
 1952TIP3    H1 5801   4.246   0.786   3.556
 1952TIP3    H2 5802   4.367   0.833   3.635
 1953TIP3   OH2 5803   4.253   7.782   6.456
 1953TIP3    H1 5804   4.191   7.722   6.498
 1953TIP3    H2 5805   4.296   7.827   6.528
 1954TIP3   OH2 5806   6.056   0.697   6.135
 1954TIP3    H1 5807   6.015   0.615   6.109
 1954TIP3    H2 5808   6.007   0.725   6.212
 1955TIP3   OH2 5809   3.704   1.389   5.821
 1955TIP3    H1 5810   3.717   1.325   5.891
 1955TIP3    H2 5811   3.616   1.424   5.835
 1956TIP3   OH2 5812   7.880   3.987   0.714
 1956TIP3    H1 5813   7.856   3.985   0.806
 1956TIP3    H2 5814   7.835   4.064   0.679
 1957TIP3   OH2 5815   5.024   2.740   5.123
 1957TIP3    H1 5816   5.009   2.646   5.127
 1957TIP3    H2 5817   5.114   2.749   5.091
 1958TIP3   OH2 5818   7.896   2.463   3.495
 1958TIP3    H1 5819   7.877   2.377   3.533
 1958TIP3    H2 5820   7.987   2.480   3.520
 1959TIP3   OH2 5821   4.373   3.192   1.903
 1959TIP3    H1 5822   4.390   3.163   1.993
 1959TIP3    H2 5823   4.460   3.208   1.866
 1960TIP3   OH2 5824   6.311   4.108   0.835
 1960TIP3    H1 5825   6.383   4.065   0.789
 1960TIP3    H2 5826   6.285   4.180   0.779
 1961TIP3   OH2 5827   5.703   1.707   2.584
 1961TIP3    H1 5828   5.730   1.684   2.673
 1961TIP3    H2 5829   5.612   1.678   2.578
 1962TIP3   OH2 5830   1.768   7.228   6.339
 1962TIP3    H1 5831   1.740   7.315   6.368
 1962TIP3    H2 5832   1.725   7.217   6.253
 1963TIP3   OH2 5833   2.938   6.364   5.813
 1963TIP3    H1 5834   3.032   6.379   5.820
 1963TIP3    H2 5835   2.900   6.421   5.880
 1964TIP3   OH2 5836   2.671   4.344   6.419
 1964TIP3    H1 5837   2.629   4.371   6.337
 1964TIP3    H2 5838   2.763   4.335   6.396
 1965TIP3   OH2 5839   0.368   0.620   1.855
 1965TIP3    H1 5840   0.277   0.593   1.840
 1965TIP3    H2 5841   0.361   0.713   1.875
 1966TIP3   OH2 5842   7.471   5.552   1.580
 1966TIP3    H1 5843   7.385   5.536   1.616
 1966TIP3    H2 5844   7.460   5.628   1.523
 1967TIP3   OH2 5845   0.530   1.767   3.969
 1967TIP3    H1 5846   0.439   1.759   3.939
 1967TIP3    H2 5847   0.583   1.744   3.893
 1968TIP3   OH2 5848   5.275   0.418   0.586
 1968TIP3    H1 5849   5.224   0.339   0.597
 1968TIP3    H2 5850   5.302   0.416   0.494
 1969TIP3   OH2 5851   0.175   4.209   2.721
 1969TIP3    H1 5852   0.152   4.153   2.795
 1969TIP3    H2 5853   0.254   4.254   2.750
 1970TIP3   OH2 5854   7.659   1.811   3.003
 1970TIP3    H1 5855   7.599   1.879   3.033
 1970TIP3    H2 5856   7.640   1.735   3.059
 1971TIP3   OH2 5857   2.724   1.217   4.437
 1971TIP3    H1 5858   2.742   1.123   4.450
 1971TIP3    H2 5859   2.663   1.219   4.363
 1972TIP3   OH2 5860   4.519   3.691   1.099
 1972TIP3    H1 5861   4.448   3.637   1.063
 1972TIP3    H2 5862   4.479   3.739   1.171
 1973TIP3   OH2 5863   5.457   6.135   3.620
 1973TIP3    H1 5864   5.518   6.081   3.569
 1973TIP3    H2 5865   5.377   6.082   3.625
 1974TIP3   OH2 5866   4.052   1.152   6.365
 1974TIP3    H1 5867   4.101   1.072   6.384
 1974TIP3    H2 5868   4.043   1.195   6.451
 1975TIP3   OH2 5869   0.423   4.258   4.748
 1975TIP3    H1 5870   0.420   4.196   4.821
 1975TIP3    H2 5871   0.385   4.338   4.783
 1976TIP3   OH2 5872   7.022   2.984   4.865
 1976TIP3    H1 5873   7.024   2.953   4.775
 1976TIP3    H2 5874   7.036   3.078   4.859
 1977TIP3   OH2 5875   3.379   2.972   3.750
 1977TIP3    H1 5876   3.328   3.013   3.819
 1977TIP3    H2 5877   3.458   3.027   3.743
 1978TIP3   OH2 5878   0.463   1.819   1.260
 1978TIP3    H1 5879   0.432   1.872   1.334
 1978TIP3    H2 5880   0.386   1.809   1.204
 1979TIP3   OH2 5881   1.556   1.965   5.866
 1979TIP3    H1 5882   1.524   2.038   5.813
 1979TIP3    H2 5883   1.495   1.894   5.849
 1980TIP3   OH2 5884   1.771   4.800   4.326
 1980TIP3    H1 5885   1.797   4.732   4.388
 1980TIP3    H2 5886   1.739   4.752   4.250
 1981TIP3   OH2 5887   3.422   1.343   5.576
 1981TIP3    H1 5888   3.442   1.370   5.666
 1981TIP3    H2 5889   3.347   1.284   5.585
 1982TIP3   OH2 5890   3.411   6.705   1.551
 1982TIP3    H1 5891   3.329   6.672   1.588
 1982TIP3    H2 5892   3.470   6.630   1.552
 1983TIP3   OH2 5893   1.706   5.267   1.414
 1983TIP3    H1 5894   1.743   5.354   1.399
 1983TIP3    H2 5895   1.614   5.277   1.391
 1984TIP3   OH2 5896   5.762   1.737   4.024
 1984TIP3    H1 5897   5.837   1.774   4.071
 1984TIP3    H2 5898   5.794   1.722   3.935
 1985TIP3   OH2 5899   3.316   7.809   1.547
 1985TIP3    H1 5900   3.286   7.735   1.600
 1985TIP3    H2 5901   3.411   7.809   1.558
 1986TIP3   OH2 5902   6.003   7.393   4.615
 1986TIP3    H1 5903   6.069   7.324   4.607
 1986TIP3    H2 5904   6.046   7.472   4.582
 1987TIP3   OH2 5905   1.850   7.073   2.096
 1987TIP3    H1 5906   1.803   7.135   2.041
 1987TIP3    H2 5907   1.938   7.111   2.104
 1988TIP3   OH2 5908   1.830   7.343   4.819
 1988TIP3    H1 5909   1.896   7.275   4.807
 1988TIP3    H2 5910   1.747   7.296   4.821
 1989TIP3   OH2 5911   0.279   2.065   5.179
 1989TIP3    H1 5912   0.284   1.978   5.220
 1989TIP3    H2 5913   0.268   2.046   5.086
 1990TIP3   OH2 5914   7.817   7.566   0.394
 1990TIP3    H1 5915   7.867   7.560   0.312
 1990TIP3    H2 5916   7.769   7.648   0.387
 1991TIP3   OH2 5917   5.899   0.156   6.123
 1991TIP3    H1 5918   5.892   0.083   6.061
 1991TIP3    H2 5919   5.824   0.143   6.182
 1992TIP3   OH2 5920   3.268   6.740   2.269
 1992TIP3    H1 5921   3.309   6.688   2.339
 1992TIP3    H2 5922   3.197   6.685   2.238
 1993TIP3   OH2 5923   0.187   4.235   1.301
 1993TIP3    H1 5924   0.243   4.180   1.356
 1993TIP3    H2 5925   0.166   4.310   1.357
 1994TIP3   OH2 5926   7.913   0.878   6.415
 1994TIP3    H1 5927   7.857   0.834   6.351
 1994TIP3    H2 5928   7.874   0.965   6.426
 1995TIP3   OH2 5929   5.115   3.762   0.975
 1995TIP3    H1 5930   5.080   3.673   0.973
 1995TIP3    H2 5931   5.106   3.790   1.066
 1996TIP3   OH2 5932   5.434   5.033   2.120
 1996TIP3    H1 5933   5.417   5.121   2.154
 1996TIP3    H2 5934   5.443   4.979   2.199
 1997TIP3   OH2 5935   2.023   5.065   0.225
 1997TIP3    H1 5936   2.028   5.054   0.130
 1997TIP3    H2 5937   2.099   5.017   0.259
 1998TIP3   OH2 5938   3.742   7.397   6.710
 1998TIP3    H1 5939   3.814   7.385   6.772
 1998TIP3    H2 5940   3.736   7.491   6.697
 1999TIP3   OH2 5941   5.505   4.619   2.567
 1999TIP3    H1 5942   5.571   4.550   2.560
 1999TIP3    H2 5943   5.422   4.575   2.546
 2000TIP3   OH2 5944   7.183   7.427   1.417
 2000TIP3    H1 5945   7.119   7.417   1.347
 2000TIP3    H2 5946   7.170   7.351   1.473
 2001TIP3   OH2 5947   8.091   0.442   2.800
 2001TIP3    H1 5948   8.083   0.524   2.849
 2001TIP3    H2 5949   8.002   0.407   2.799
 2002TIP3   OH2 5950   3.124   3.673   0.573
 2002TIP3    H1 5951   3.200   3.695   0.519
 2002TIP3    H2 5952   3.125   3.577   0.578
 2003TIP3   OH2 5953   4.315   6.763   5.421
 2003TIP3    H1 5954   4.347   6.673   5.428
 2003TIP3    H2 5955   4.306   6.778   5.327
 2004TIP3   OH2 5956   6.784   4.931   1.202
 2004TIP3    H1 5957   6.720   4.974   1.258
 2004TIP3    H2 5958   6.868   4.950   1.242
 2005TIP3   OH2 5959   2.982   2.615   0.222
 2005TIP3    H1 5960   2.951   2.700   0.190
 2005TIP3    H2 5961   2.996   2.564   0.142
 2006TIP3   OH2 5962   2.748   3.926   2.020
 2006TIP3    H1 5963   2.694   3.869   1.965
 2006TIP3    H2 5964   2.754   3.880   2.103
 2007TIP3   OH2 5965   7.698   4.330   5.448
 2007TIP3    H1 5966   7.779   4.362   5.408
 2007TIP3    H2 5967   7.649   4.410   5.469
 2008TIP3   OH2 5968   6.459   4.111   6.134
 2008TIP3    H1 5969   6.400   4.184   6.150
 2008TIP3    H2 5970   6.405   4.033   6.147
 2009TIP3   OH2 5971   5.526   0.995   1.133
 2009TIP3    H1 5972   5.616   0.967   1.114
 2009TIP3    H2 5973   5.528   1.021   1.225
 2010TIP3   OH2 5974   6.410   5.875   0.621
 2010TIP3    H1 5975   6.492   5.889   0.669
 2010TIP3    H2 5976   6.432   5.891   0.529
 2011TIP3   OH2 5977   1.350   5.004   5.895
 2011TIP3    H1 5978   1.375   5.026   5.805
 2011TIP3    H2 5979   1.294   4.927   5.885
 2012TIP3   OH2 5980   6.324   3.460   3.499
 2012TIP3    H1 5981   6.410   3.500   3.512
 2012TIP3    H2 5982   6.334   3.406   3.420
 2013TIP3   OH2 5983   6.138   6.116   5.744
 2013TIP3    H1 5984   6.110   6.103   5.835
 2013TIP3    H2 5985   6.234   6.122   5.749
 2014TIP3   OH2 5986   4.422   1.088   5.324
 2014TIP3    H1 5987   4.348   1.030   5.341
 2014TIP3    H2 5988   4.491   1.031   5.292
 2015TIP3   OH2 5989   6.617   0.696   4.734
 2015TIP3    H1 5990   6.528   0.687   4.768
 2015TIP3    H2 5991   6.670   0.716   4.811
 2016TIP3   OH2 5992   2.604   5.658   0.777
 2016TIP3    H1 5993   2.628   5.676   0.868
 2016TIP3    H2 5994   2.681   5.616   0.739
 2017TIP3   OH2 5995   6.805   7.203   1.167
 2017TIP3    H1 5996   6.777   7.204   1.259
 2017TIP3    H2 5997   6.860   7.281   1.157
 2018TIP3   OH2 5998   5.431   5.708   2.150
 2018TIP3    H1 5999   5.495   5.638   2.158
 2018TIP3    H2 6000   5.365   5.674   2.090
 2019TIP3   OH2 6001   3.013   6.139   2.561
 2019TIP3    H1 6002   2.994   6.228   2.588
 2019TIP3    H2 6003   2.975   6.084   2.630
 2020TIP3   OH2 6004   0.773   5.965   3.938
 2020TIP3    H1 6005   0.785   5.919   4.021
 2020TIP3    H2 6006   0.848   5.939   3.885
 2021TIP3   OH2 6007   5.237   0.136   1.786
 2021TIP3    H1 6008   5.268   0.153   1.875
 2021TIP3    H2 6009   5.294   0.190   1.731
 2022TIP3   OH2 6010   6.805   5.070   3.570
 2022TIP3    H1 6011   6.787   4.996   3.513
 2022TIP3    H2 6012   6.874   5.118   3.525
 2023TIP3   OH2 6013   8.017   7.669   0.988
 2023TIP3    H1 6014   7.981   7.683   0.900
 2023TIP3    H2 6015   7.972   7.732   1.043
 2024TIP3   OH2 6016   4.495   1.492   4.179
 2024TIP3    H1 6017   4.546   1.434   4.236
 2024TIP3    H2 6018   4.416   1.442   4.159
 2025TIP3   OH2 6019   2.160   6.355   6.751
 2025TIP3    H1 6020   2.228   6.395   6.697
 2025TIP3    H2 6021   2.104   6.308   6.688
 2026TIP3   OH2 6022   1.392   4.598   4.504
 2026TIP3    H1 6023   1.352   4.543   4.437
 2026TIP3    H2 6024   1.401   4.684   4.463
 2027TIP3   OH2 6025   7.886   0.642   3.732
 2027TIP3    H1 6026   7.965   0.597   3.703
 2027TIP3    H2 6027   7.895   0.648   3.827
 2028TIP3   OH2 6028   7.907   7.224   0.305
 2028TIP3    H1 6029   7.860   7.154   0.352
 2028TIP3    H2 6030   7.845   7.252   0.237
 2029TIP3   OH2 6031   0.157   7.440   1.677
 2029TIP3    H1 6032   0.242   7.467   1.642
 2029TIP3    H2 6033   0.105   7.422   1.599
 2030TIP3   OH2 6034   6.940   2.225   2.551
 2030TIP3    H1 6035   6.983   2.235   2.466
 2030TIP3    H2 6036   7.010   2.234   2.615
 2031TIP3   OH2 6037   1.607   6.743   4.421
 2031TIP3    H1 6038   1.542   6.730   4.352
 2031TIP3    H2 6039   1.673   6.799   4.381
 2032TIP3   OH2 6040   3.884   7.025   3.747
 2032TIP3    H1 6041   3.828   7.048   3.672
 2032TIP3    H2 6042   3.967   7.067   3.728
 2033TIP3   OH2 6043   2.368   2.120   5.449
 2033TIP3    H1 6044   2.407   2.087   5.530
 2033TIP3    H2 6045   2.344   2.210   5.470
 2034TIP3   OH2 6046   7.916   5.557   2.049
 2034TIP3    H1 6047   7.931   5.579   1.958
 2034TIP3    H2 6048   7.845   5.492   2.046
 2035TIP3   OH2 6049   7.441   3.711   3.906
 2035TIP3    H1 6050   7.425   3.789   3.853
 2035TIP3    H2 6051   7.368   3.708   3.967
 2036TIP3   OH2 6052   5.156   3.928   5.323
 2036TIP3    H1 6053   5.249   3.943   5.308
 2036TIP3    H2 6054   5.151   3.837   5.354
 2037TIP3   OH2 6055   4.774   6.804   2.092
 2037TIP3    H1 6056   4.784   6.819   1.998
 2037TIP3    H2 6057   4.692   6.756   2.100
 2038TIP3   OH2 6058   3.279   3.368   1.861
 2038TIP3    H1 6059   3.369   3.369   1.894
 2038TIP3    H2 6060   3.233   3.307   1.918
 2039TIP3   OH2 6061   4.900   0.267   2.363
 2039TIP3    H1 6062   4.809   0.237   2.367
 2039TIP3    H2 6063   4.900   0.352   2.406
 2040TIP3   OH2 6064   5.607   3.418   3.839
 2040TIP3    H1 6065   5.580   3.371   3.918
 2040TIP3    H2 6066   5.699   3.394   3.828
 2041TIP3   OH2 6067   6.903   3.943   0.009
 2041TIP3    H1 6068   6.896   3.887  -0.069
 2041TIP3    H2 6069   6.985   3.917   0.050
 2042TIP3   OH2 6070   3.407   2.391   0.864
 2042TIP3    H1 6071   3.493   2.423   0.838
 2042TIP3    H2 6072   3.370   2.462   0.918
 2043TIP3   OH2 6073   2.838   3.008   4.880
 2043TIP3    H1 6074   2.921   3.037   4.843
 2043TIP3    H2 6075   2.775   3.075   4.855
 2044TIP3   OH2 6076   5.660   3.350   2.672
 2044TIP3    H1 6077   5.703   3.425   2.631
 2044TIP3    H2 6078   5.730   3.302   2.715
 2045TIP3   OH2 6079  -0.007   4.355   0.137
 2045TIP3    H1 6080  -0.010   4.366   0.232
 2045TIP3    H2 6081   0.073   4.401   0.111
 2046TIP3   OH2 6082   7.280   0.458   0.393
 2046TIP3    H1 6083   7.365   0.452   0.348
 2046TIP3    H2 6084   7.269   0.373   0.435
 2047TIP3   OH2 6085   5.718   4.334   4.334
 2047TIP3    H1 6086   5.726   4.294   4.247
 2047TIP3    H2 6087   5.658   4.276   4.380
 2048TIP3   OH2 6088   1.738   7.060   5.312
 2048TIP3    H1 6089   1.785   7.140   5.338
 2048TIP3    H2 6090   1.651   7.091   5.288
 2049TIP3   OH2 6091   3.409   3.581   5.957
 2049TIP3    H1 6092   3.382   3.492   5.976
 2049TIP3    H2 6093   3.497   3.572   5.919
 2050TIP3   OH2 6094   7.754   0.572   1.125
 2050TIP3    H1 6095   7.794   0.642   1.177
 2050TIP3    H2 6096   7.764   0.601   1.034
 2051TIP3   OH2 6097   3.115   7.723   4.337
 2051TIP3    H1 6098   3.088   7.671   4.412
 2051TIP3    H2 6099   3.040   7.718   4.277
 2052TIP3   OH2 6100   6.906   6.358   5.214
 2052TIP3    H1 6101   6.841   6.408   5.164
 2052TIP3    H2 6102   6.990   6.394   5.186
 2053TIP3   OH2 6103   1.237   7.365   5.809
 2053TIP3    H1 6104   1.319   7.410   5.788
 2053TIP3    H2 6105   1.245   7.279   5.767
 2054TIP3   OH2 6106   5.861   2.450   4.528
 2054TIP3    H1 6107   5.926   2.485   4.466
 2054TIP3    H2 6108   5.832   2.527   4.578
 2055TIP3   OH2 6109   4.840   2.278   0.503
 2055TIP3    H1 6110   4.836   2.353   0.563
 2055TIP3    H2 6111   4.825   2.202   0.558
 2056TIP3   OH2 6112   7.820   0.148   3.299
 2056TIP3    H1 6113   7.811   0.054   3.318
 2056TIP3    H2 6114   7.777   0.191   3.373
 2057TIP3   OH2 6115   2.965   5.478   3.814
 2057TIP3    H1 6116   2.972   5.573   3.816
 2057TIP3    H2 6117   2.985   5.451   3.904
 2058TIP3   OH2 6118   8.064   6.048   2.547
 2058TIP3    H1 6119   8.034   6.113   2.484
 2058TIP3    H2 6120   8.040   6.084   2.632
 2059TIP3   OH2 6121   0.658   4.778   6.354
 2059TIP3    H1 6122   0.615   4.863   6.346
 2059TIP3    H2 6123   0.741   4.798   6.398
 2060TIP3   OH2 6124   5.265   7.075   4.551
 2060TIP3    H1 6125   5.297   7.052   4.638
 2060TIP3    H2 6126   5.214   7.155   4.564
 2061TIP3   OH2 6127   0.292   1.453   4.054
 2061TIP3    H1 6128   0.326   1.495   3.975
 2061TIP3    H2 6129   0.304   1.518   4.123
 2062TIP3   OH2 6130   1.100   2.168   4.168
 2062TIP3    H1 6131   1.189   2.200   4.186
 2062TIP3    H2 6132   1.050   2.194   4.246
 2063TIP3   OH2 6133   0.562   2.858   2.994
 2063TIP3    H1 6134   0.531   2.891   2.910
 2063TIP3    H2 6135   0.638   2.913   3.015
 2064TIP3   OH2 6136   2.839   2.869   0.822
 2064TIP3    H1 6137   2.850   2.950   0.871
 2064TIP3    H2 6138   2.861   2.800   0.885
 2065TIP3   OH2 6139   2.666   1.843   0.355
 2065TIP3    H1 6140   2.659   1.752   0.382
 2065TIP3    H2 6141   2.752   1.849   0.314
 2066TIP3   OH2 6142   3.739   3.482   4.898
 2066TIP3    H1 6143   3.789   3.402   4.878
 2066TIP3    H2 6144   3.730   3.526   4.814
 2067TIP3   OH2 6145   4.297   1.410   6.330
 2067TIP3    H1 6146   4.324   1.479   6.270
 2067TIP3    H2 6147   4.242   1.352   6.277
 2068TIP3   OH2 6148   7.164   2.573   5.967
 2068TIP3    H1 6149   7.185   2.496   5.915
 2068TIP3    H2 6150   7.215   2.562   6.047
 2069TIP3   OH2 6151   2.563   2.855   6.149
 2069TIP3    H1 6152   2.647   2.834   6.109
 2069TIP3    H2 6153   2.499   2.844   6.078
 2070TIP3   OH2 6154   2.482   0.406   6.329
 2070TIP3    H1 6155   2.494   0.311   6.331
 2070TIP3    H2 6156   2.566   0.441   6.359
 2071TIP3   OH2 6157   1.178   3.948   1.581
 2071TIP3    H1 6158   1.100   3.933   1.634
 2071TIP3    H2 6159   1.251   3.926   1.638
 2072TIP3   OH2 6160   3.646   1.573   1.890
 2072TIP3    H1 6161   3.611   1.656   1.922
 2072TIP3    H2 6162   3.736   1.570   1.923
 2073TIP3   OH2 6163   5.286   4.729   4.772
 2073TIP3    H1 6164   5.291   4.665   4.700
 2073TIP3    H2 6165   5.275   4.676   4.850
 2074TIP3   OH2 6166   3.091   4.699   2.694
 2074TIP3    H1 6167   3.063   4.611   2.669
 2074TIP3    H2 6168   3.185   4.691   2.706
 2075TIP3   OH2 6169   0.710   6.132   5.902
 2075TIP3    H1 6170   0.801   6.145   5.928
 2075TIP3    H2 6171   0.686   6.212   5.856
 2076TIP3   OH2 6172   1.971   2.842   1.270
 2076TIP3    H1 6173   1.955   2.885   1.354
 2076TIP3    H2 6174   1.899   2.872   1.214
 2077TIP3   OH2 6175   3.858   7.382   3.714
 2077TIP3    H1 6176   3.815   7.306   3.753
 2077TIP3    H2 6177   3.829   7.381   3.622
 2078TIP3   OH2 6178   2.676   6.130   6.699
 2078TIP3    H1 6179   2.659   6.095   6.612
 2078TIP3    H2 6180   2.677   6.225   6.687
 2079TIP3   OH2 6181   6.162   5.339   1.454
 2079TIP3    H1 6182   6.223   5.385   1.512
 2079TIP3    H2 6183   6.189   5.366   1.366
 2080TIP3   OH2 6184   6.746   3.240   3.998
 2080TIP3    H1 6185   6.653   3.242   4.022
 2080TIP3    H2 6186   6.754   3.305   3.929
 2081TIP3   OH2 6187   6.002   3.460   4.894
 2081TIP3    H1 6188   5.908   3.468   4.873
 2081TIP3    H2 6189   6.004   3.408   4.974
 2082TIP3   OH2 6190   7.709   3.270   2.129
 2082TIP3    H1 6191   7.728   3.206   2.198
 2082TIP3    H2 6192   7.774   3.339   2.142
 2083TIP3   OH2 6193   1.701   0.715   5.823
 2083TIP3    H1 6194   1.762   0.675   5.885
 2083TIP3    H2 6195   1.665   0.642   5.774
 2084TIP3   OH2 6196   2.772   0.732   5.665
 2084TIP3    H1 6197   2.749   0.768   5.580
 2084TIP3    H2 6198   2.865   0.711   5.658
 2085TIP3   OH2 6199   1.801   3.955   4.063
 2085TIP3    H1 6200   1.713   3.983   4.087
 2085TIP3    H2 6201   1.859   4.016   4.109
 2086TIP3   OH2 6202   5.295   3.782   1.625
 2086TIP3    H1 6203   5.283   3.868   1.665
 2086TIP3    H2 6204   5.288   3.721   1.699
 2087TIP3   OH2 6205   6.838   4.553   0.225
 2087TIP3    H1 6206   6.856   4.520   0.313
 2087TIP3    H2 6207   6.791   4.481   0.182
 2088TIP3   OH2 6208   2.243   1.640   0.900
 2088TIP3    H1 6209   2.213   1.549   0.909
 2088TIP3    H2 6210   2.335   1.631   0.874
 2089TIP3   OH2 6211   8.284   5.314   0.797
 2089TIP3    H1 6212   8.341   5.242   0.770
 2089TIP3    H2 6213   8.273   5.367   0.719
 2090TIP3   OH2 6214   3.984   4.298   5.846
 2090TIP3    H1 6215   3.988   4.386   5.884
 2090TIP3    H2 6216   4.014   4.309   5.756
 2091TIP3   OH2 6217   5.042   6.359   3.579
 2091TIP3    H1 6218   5.000   6.437   3.615
 2091TIP3    H2 6219   5.131   6.361   3.615
 2092TIP3   OH2 6220   4.257   6.114   3.621
 2092TIP3    H1 6221   4.252   6.029   3.665
 2092TIP3    H2 6222   4.170   6.152   3.632
 2093TIP3   OH2 6223   6.056   7.672   5.818
 2093TIP3    H1 6224   6.059   7.765   5.842
 2093TIP3    H2 6225   6.102   7.667   5.734
 2094TIP3   OH2 6226   3.463   4.100   5.749
 2094TIP3    H1 6227   3.475   4.067   5.660
 2094TIP3    H2 6228   3.416   4.030   5.795
 2095TIP3   OH2 6229   2.289   2.300   3.683
 2095TIP3    H1 6230   2.293   2.391   3.652
 2095TIP3    H2 6231   2.251   2.252   3.610
 2096TIP3   OH2 6232   1.024   5.019   4.443
 2096TIP3    H1 6233   1.076   4.984   4.371
 2096TIP3    H2 6234   0.937   4.981   4.431
 2097TIP3   OH2 6235   6.444   6.743   5.724
 2097TIP3    H1 6236   6.365   6.758   5.672
 2097TIP3    H2 6237   6.477   6.831   5.743
 2098TIP3   OH2 6238   1.516   5.522   5.443
 2098TIP3    H1 6239   1.551   5.610   5.460
 2098TIP3    H2 6240   1.456   5.535   5.369
 2099TIP3   OH2 6241   1.534   4.785   4.769
 2099TIP3    H1 6242   1.564   4.875   4.772
 2099TIP3    H2 6243   1.439   4.791   4.756
 2100TIP3   OH2 6244   6.403   5.117   5.392
 2100TIP3    H1 6245   6.440   5.083   5.311
 2100TIP3    H2 6246   6.374   5.040   5.441
 2101TIP3   OH2 6247   5.293   0.190   5.480
 2101TIP3    H1 6248   5.371   0.145   5.446
 2101TIP3    H2 6249   5.311   0.283   5.466
 2102TIP3   OH2 6250   6.052   6.801   5.242
 2102TIP3    H1 6251   5.969   6.768   5.207
 2102TIP3    H2 6252   6.026   6.850   5.320
 2103TIP3   OH2 6253   5.032   2.770   0.685
 2103TIP3    H1 6254   4.986   2.854   0.692
 2103TIP3    H2 6255   4.973   2.715   0.633
 2104TIP3   OH2 6256   6.237   3.607   1.673
 2104TIP3    H1 6257   6.252   3.570   1.760
 2104TIP3    H2 6258   6.205   3.696   1.690
 2105TIP3   OH2 6259   4.096   3.630   0.451
 2105TIP3    H1 6260   4.166   3.644   0.515
 2105TIP3    H2 6261   4.139   3.587   0.377
 2106TIP3   OH2 6262   3.266   4.451   3.140
 2106TIP3    H1 6263   3.251   4.492   3.055
 2106TIP3    H2 6264   3.337   4.388   3.124
 2107TIP3   OH2 6265   3.682   0.942   2.398
 2107TIP3    H1 6266   3.605   0.915   2.348
 2107TIP3    H2 6267   3.676   0.892   2.480
 2108TIP3   OH2 6268   1.106   4.848   2.116
 2108TIP3    H1 6269   1.058   4.924   2.084
 2108TIP3    H2 6270   1.039   4.780   2.128
 2109TIP3   OH2 6271   4.223   3.519   2.100
 2109TIP3    H1 6272   4.220   3.493   2.008
 2109TIP3    H2 6273   4.131   3.520   2.127
 2110TIP3   OH2 6274   2.755   4.842   4.221
 2110TIP3    H1 6275   2.692   4.914   4.231
 2110TIP3    H2 6276   2.742   4.810   4.132
 2111TIP3   OH2 6277   5.886   3.821   3.846
 2111TIP3    H1 6278   5.858   3.745   3.795
 2111TIP3    H2 6279   5.930   3.878   3.782
 2112TIP3   OH2 6280   2.989   4.334   4.432
 2112TIP3    H1 6281   3.000   4.351   4.525
 2112TIP3    H2 6282   2.985   4.422   4.393
 2113TIP3   OH2 6283   7.925   4.083   5.917
 2113TIP3    H1 6284   7.918   4.170   5.877
 2113TIP3    H2 6285   7.954   4.100   6.007
 2114TIP3   OH2 6286   4.908   2.414   0.010
 2114TIP3    H1 6287   4.919   2.350   0.080
 2114TIP3    H2 6288   4.932   2.498   0.051
 2115TIP3   OH2 6289   3.242   4.168   6.470
 2115TIP3    H1 6290   3.215   4.257   6.449
 2115TIP3    H2 6291   3.205   4.151   6.556
 2116TIP3   OH2 6292   7.745   6.151   3.238
 2116TIP3    H1 6293   7.712   6.171   3.150
 2116TIP3    H2 6294   7.667   6.131   3.289
 2117TIP3   OH2 6295   2.471   2.936   0.781
 2117TIP3    H1 6296   2.534   2.876   0.821
 2117TIP3    H2 6297   2.525   3.006   0.744
 2118TIP3   OH2 6298  -0.016   1.398   4.562
 2118TIP3    H1 6299   0.037   1.320   4.576
 2118TIP3    H2 6300   0.022   1.440   4.485
 2119TIP3   OH2 6301   3.801   4.909   0.575
 2119TIP3    H1 6302   3.839   4.930   0.660
 2119TIP3    H2 6303   3.723   4.858   0.595
 2120TIP3   OH2 6304   5.937   5.876   3.403
 2120TIP3    H1 6305   6.020   5.911   3.436
 2120TIP3    H2 6306   5.875   5.892   3.474
 2121TIP3   OH2 6307   6.665   5.902   4.038
 2121TIP3    H1 6308   6.714   5.863   4.110
 2121TIP3    H2 6309   6.596   5.839   4.019
 2122TIP3   OH2 6310   6.370   3.436   6.312
 2122TIP3    H1 6311   6.415   3.375   6.370
 2122TIP3    H2 6312   6.318   3.491   6.371
 2123TIP3   OH2 6313   4.313   5.100   5.024
 2123TIP3    H1 6314   4.345   5.016   4.990
 2123TIP3    H2 6315   4.291   5.150   4.945
 2124TIP3   OH2 6316   5.200   5.762   6.328
 2124TIP3    H1 6317   5.287   5.796   6.305
 2124TIP3    H2 6318   5.159   5.744   6.243
 2125TIP3   OH2 6319   6.239   7.227   0.704
 2125TIP3    H1 6320   6.278   7.250   0.788
 2125TIP3    H2 6321   6.147   7.254   0.712
 2126TIP3   OH2 6322   5.773   6.278   4.678
 2126TIP3    H1 6323   5.712   6.206   4.663
 2126TIP3    H2 6324   5.855   6.235   4.700
 2127TIP3   OH2 6325   7.864   4.246   5.152
 2127TIP3    H1 6326   7.931   4.210   5.210
 2127TIP3    H2 6327   7.912   4.305   5.094
 2128TIP3   OH2 6328   3.796   2.781   5.954
 2128TIP3    H1 6329   3.731   2.802   5.886
 2128TIP3    H2 6330   3.793   2.856   6.013
 2129TIP3   OH2 6331   5.707   2.448   0.412
 2129TIP3    H1 6332   5.758   2.412   0.485
 2129TIP3    H2 6333   5.772   2.465   0.344
 2130TIP3   OH2 6334   5.852   7.668   2.536
 2130TIP3    H1 6335   5.933   7.633   2.571
 2130TIP3    H2 6336   5.879   7.742   2.482
 2131TIP3   OH2 6337   3.836   3.729   2.967
 2131TIP3    H1 6338   3.825   3.812   2.921
 2131TIP3    H2 6339   3.865   3.754   3.055
 2132TIP3   OH2 6340   5.504   5.920   4.425
 2132TIP3    H1 6341   5.429   5.860   4.424
 2132TIP3    H2 6342   5.576   5.869   4.386
 2133TIP3   OH2 6343   3.650   7.009   1.259
 2133TIP3    H1 6344   3.557   7.032   1.259
 2133TIP3    H2 6345   3.688   7.062   1.330
 2134TIP3   OH2 6346   5.254   4.401   1.750
 2134TIP3    H1 6347   5.170   4.375   1.788
 2134TIP3    H2 6348   5.230   4.443   1.667
 2135TIP3   OH2 6349   8.181   4.008   2.368
 2135TIP3    H1 6350   8.204   4.072   2.301
 2135TIP3    H2 6351   8.244   4.022   2.438
 2136TIP3   OH2 6352   1.003   4.303   1.210
 2136TIP3    H1 6353   1.030   4.231   1.153
 2136TIP3    H2 6354   0.992   4.262   1.296
 2137TIP3   OH2 6355   5.365   0.874   2.895
 2137TIP3    H1 6356   5.345   0.850   2.804
 2137TIP3    H2 6357   5.306   0.947   2.914
 2138TIP3   OH2 6358   1.144   2.534   4.039
 2138TIP3    H1 6359   1.090   2.456   4.030
 2138TIP3    H2 6360   1.094   2.591   4.097
 2139TIP3   OH2 6361   4.453   7.067   0.648
 2139TIP3    H1 6362   4.377   7.012   0.632
 2139TIP3    H2 6363   4.478   7.099   0.562
 2140TIP3   OH2 6364   3.859   3.977   0.590
 2140TIP3    H1 6365   3.813   3.911   0.539
 2140TIP3    H2 6366   3.941   3.992   0.542
 2141TIP3   OH2 6367   3.215   0.429   1.737
 2141TIP3    H1 6368   3.191   0.394   1.651
 2141TIP3    H2 6369   3.263   0.358   1.780
 2142TIP3   OH2 6370   6.200   4.605   1.736
 2142TIP3    H1 6371   6.139   4.571   1.801
 2142TIP3    H2 6372   6.158   4.588   1.652
 2143TIP3   OH2 6373   1.754   3.187   4.784
 2143TIP3    H1 6374   1.737   3.265   4.730
 2143TIP3    H2 6375   1.703   3.201   4.863
 2144TIP3   OH2 6376   0.871   2.686   3.884
 2144TIP3    H1 6377   0.875   2.678   3.979
 2144TIP3    H2 6378   0.924   2.614   3.851
 2145TIP3   OH2 6379   2.401   4.475   5.636
 2145TIP3    H1 6380   2.439   4.506   5.554
 2145TIP3    H2 6381   2.476   4.453   5.691
 2146TIP3   OH2 6382   5.314   6.765   5.526
 2146TIP3    H1 6383   5.332   6.711   5.603
 2146TIP3    H2 6384   5.272   6.706   5.464
 2147TIP3   OH2 6385   7.405   4.650   1.329
 2147TIP3    H1 6386   7.375   4.732   1.290
 2147TIP3    H2 6387   7.478   4.623   1.273
 2148TIP3   OH2 6388   4.521   7.003   2.132
 2148TIP3    H1 6389   4.456   6.935   2.148
 2148TIP3    H2 6390   4.602   6.968   2.169
 2149TIP3   OH2 6391   0.845   3.194   3.929
 2149TIP3    H1 6392   0.786   3.121   3.948
 2149TIP3    H2 6393   0.898   3.203   4.008
 2150TIP3   OH2 6394   7.968   1.153   0.674
 2150TIP3    H1 6395   8.000   1.132   0.586
 2150TIP3    H2 6396   7.917   1.076   0.700
 2151TIP3   OH2 6397   6.908   5.696   3.538
 2151TIP3    H1 6398   6.917   5.604   3.563
 2151TIP3    H2 6399   6.855   5.694   3.458
 2152TIP3   OH2 6400   4.457   5.247   1.631
 2152TIP3    H1 6401   4.551   5.232   1.641
 2152TIP3    H2 6402   4.451   5.334   1.590
 2153TIP3   OH2 6403   2.062   4.233   5.940
 2153TIP3    H1 6404   2.050   4.169   5.870
 2153TIP3    H2 6405   2.112   4.304   5.899
 2154TIP3   OH2 6406   6.828   0.344   0.651
 2154TIP3    H1 6407   6.871   0.267   0.613
 2154TIP3    H2 6408   6.857   0.416   0.596
 2155TIP3   OH2 6409   1.610   1.017   5.566
 2155TIP3    H1 6410   1.643   1.080   5.501
 2155TIP3    H2 6411   1.515   1.017   5.554
 2156TIP3   OH2 6412   1.103   5.294   6.637
 2156TIP3    H1 6413   1.113   5.306   6.731
 2156TIP3    H2 6414   1.063   5.376   6.606
 2157TIP3   OH2 6415   4.220   0.598   5.270
 2157TIP3    H1 6416   4.259   0.569   5.187
 2157TIP3    H2 6417   4.125   0.591   5.255
 2158TIP3   OH2 6418   5.762   6.866   0.540
 2158TIP3    H1 6419   5.851   6.846   0.568
 2158TIP3    H2 6420   5.741   6.799   0.475
 2159TIP3   OH2 6421   3.588   7.494   5.876
 2159TIP3    H1 6422   3.661   7.433   5.864
 2159TIP3    H2 6423   3.510   7.443   5.853
 2160TIP3   OH2 6424   0.730   0.765   5.877
 2160TIP3    H1 6425   0.656   0.823   5.893
 2160TIP3    H2 6426   0.696   0.677   5.895
 2161TIP3   OH2 6427   5.006   2.038   2.197
 2161TIP3    H1 6428   5.062   2.025   2.273
 2161TIP3    H2 6429   4.925   1.992   2.219
 2162TIP3   OH2 6430   7.374   1.621   2.869
 2162TIP3    H1 6431   7.290   1.605   2.826
 2162TIP3    H2 6432   7.403   1.705   2.834
 2163TIP3   OH2 6433   6.065   3.855   5.498
 2163TIP3    H1 6434   5.975   3.878   5.474
 2163TIP3    H2 6435   6.100   3.935   5.536
 2164TIP3   OH2 6436   2.294   1.883   2.072
 2164TIP3    H1 6437   2.383   1.909   2.049
 2164TIP3    H2 6438   2.292   1.789   2.058
 2165TIP3   OH2 6439   6.983   0.805   0.191
 2165TIP3    H1 6440   7.018   0.880   0.239
 2165TIP3    H2 6441   6.890   0.825   0.179
 2166TIP3   OH2 6442   3.601   6.230   3.138
 2166TIP3    H1 6443   3.520   6.183   3.159
 2166TIP3    H2 6444   3.572   6.312   3.099
 2167TIP3   OH2 6445   3.630   6.489   3.941
 2167TIP3    H1 6446   3.606   6.528   3.858
 2167TIP3    H2 6447   3.619   6.395   3.928
 2168TIP3   OH2 6448   2.114   3.592   2.697
 2168TIP3    H1 6449   2.095   3.513   2.646
 2168TIP3    H2 6450   2.056   3.659   2.659
 2169TIP3   OH2 6451   4.067   6.887   4.834
 2169TIP3    H1 6452   4.163   6.891   4.843
 2169TIP3    H2 6453   4.053   6.857   4.744
 2170TIP3   OH2 6454   5.112   7.607   3.213
 2170TIP3    H1 6455   5.043   7.569   3.268
 2170TIP3    H2 6456   5.157   7.531   3.176
 2171TIP3   OH2 6457   8.298   6.942   5.767
 2171TIP3    H1 6458   8.342   7.004   5.709
 2171TIP3    H2 6459   8.215   6.923   5.723
 2172TIP3   OH2 6460   6.484   6.048   4.675
 2172TIP3    H1 6461   6.440   6.120   4.629
 2172TIP3    H2 6462   6.550   6.017   4.612
 2173TIP3   OH2 6463   7.816   1.102   6.201
 2173TIP3    H1 6464   7.798   1.102   6.107
 2173TIP3    H2 6465   7.739   1.061   6.241
 2174TIP3   OH2 6466   5.049   2.028   0.483
 2174TIP3    H1 6467   5.044   1.942   0.523
 2174TIP3    H2 6468   5.041   2.011   0.389
 2175TIP3   OH2 6469   4.114   4.489   3.063
 2175TIP3    H1 6470   4.075   4.553   3.124
 2175TIP3    H2 6471   4.118   4.535   2.980
 2176TIP3   OH2 6472   7.164   7.754   5.388
 2176TIP3    H1 6473   7.181   7.801   5.306
 2176TIP3    H2 6474   7.228   7.682   5.388
 2177TIP3   OH2 6475   2.512   5.478   4.651
 2177TIP3    H1 6476   2.556   5.563   4.646
 2177TIP3    H2 6477   2.549   5.427   4.578
 2178TIP3   OH2 6478   1.765   5.578   3.417
 2178TIP3    H1 6479   1.746   5.563   3.324
 2178TIP3    H2 6480   1.687   5.549   3.463
 2179TIP3   OH2 6481   6.013   0.209   3.277
 2179TIP3    H1 6482   6.054   0.292   3.252
 2179TIP3    H2 6483   6.074   0.142   3.247
 2180TIP3   OH2 6484   8.232   0.298   5.569
 2180TIP3    H1 6485   8.298   0.252   5.621
 2180TIP3    H2 6486   8.173   0.336   5.633
 2181TIP3   OH2 6487   2.094   2.503   4.831
 2181TIP3    H1 6488   2.124   2.558   4.759
 2181TIP3    H2 6489   2.014   2.463   4.799
 2182TIP3   OH2 6490   7.775   5.883   1.989
 2182TIP3    H1 6491   7.820   5.851   2.067
 2182TIP3    H2 6492   7.831   5.954   1.957
 2183TIP3   OH2 6493   6.445   7.825   5.331
 2183TIP3    H1 6494   6.508   7.853   5.398
 2183TIP3    H2 6495   6.498   7.783   5.264
 2184TIP3   OH2 6496   8.063   6.978   3.101
 2184TIP3    H1 6497   8.005   7.051   3.080
 2184TIP3    H2 6498   8.129   6.980   3.031
 2185TIP3   OH2 6499   3.242   4.517   6.194
 2185TIP3    H1 6500   3.304   4.521   6.267
 2185TIP3    H2 6501   3.297   4.512   6.116
 2186TIP3   OH2 6502   5.823   1.227   4.806
 2186TIP3    H1 6503   5.802   1.173   4.730
 2186TIP3    H2 6504   5.749   1.214   4.865
 2187TIP3   OH2 6505   2.165   3.922   4.375
 2187TIP3    H1 6506   2.101   3.852   4.388
 2187TIP3    H2 6507   2.239   3.879   4.332
 2188TIP3   OH2 6508   6.339   6.860   1.367
 2188TIP3    H1 6509   6.325   6.922   1.438
 2188TIP3    H2 6510   6.288   6.896   1.293
 2189TIP3   OH2 6511   2.372   7.307   3.325
 2189TIP3    H1 6512   2.315   7.314   3.402
 2189TIP3    H2 6513   2.311   7.298   3.252
 2190TIP3   OH2 6514   2.211   6.926   0.069
 2190TIP3    H1 6515   2.267   6.957   0.140
 2190TIP3    H2 6516   2.126   6.911   0.111
 2191TIP3   OH2 6517   4.181   2.200   2.834
 2191TIP3    H1 6518   4.209   2.225   2.922
 2191TIP3    H2 6519   4.118   2.268   2.809
 2192TIP3   OH2 6520   3.813   5.515   4.353
 2192TIP3    H1 6521   3.813   5.434   4.301
 2192TIP3    H2 6522   3.767   5.492   4.433
 2193TIP3   OH2 6523   6.669   6.407   5.709
 2193TIP3    H1 6524   6.685   6.316   5.685
 2193TIP3    H2 6525   6.575   6.418   5.699
 2194TIP3   OH2 6526   3.209   5.366   3.791
 2194TIP3    H1 6527   3.119   5.399   3.787
 2194TIP3    H2 6528   3.263   5.442   3.768
 2195TIP3   OH2 6529   0.635   2.725   5.510
 2195TIP3    H1 6530   0.699   2.656   5.490
 2195TIP3    H2 6531   0.604   2.704   5.598
 2196TIP3   OH2 6532   3.903   0.575   3.348
 2196TIP3    H1 6533   3.934   0.505   3.290
 2196TIP3    H2 6534   3.900   0.534   3.435
 2197TIP3   OH2 6535   2.691   4.527   2.559
 2197TIP3    H1 6536   2.608   4.505   2.517
 2197TIP3    H2 6537   2.754   4.466   2.520
 2198TIP3   OH2 6538   6.664   7.214   6.396
 2198TIP3    H1 6539   6.754   7.245   6.381
 2198TIP3    H2 6540   6.663   7.186   6.487
 2199TIP3   OH2 6541   7.804   7.658   5.166
 2199TIP3    H1 6542   7.733   7.721   5.178
 2199TIP3    H2 6543   7.844   7.682   5.083
 2200TIP3   OH2 6544   2.877   5.603   4.293
 2200TIP3    H1 6545   2.802   5.663   4.296
 2200TIP3    H2 6546   2.841   5.518   4.316
 2201TIP3   OH2 6547   4.196   7.233   0.215
 2201TIP3    H1 6548   4.244   7.308   0.180
 2201TIP3    H2 6549   4.232   7.158   0.168
 2202TIP3   OH2 6550   6.025   3.224   5.648
 2202TIP3    H1 6551   6.062   3.310   5.630
 2202TIP3    H2 6552   6.102   3.166   5.655
 2203TIP3   OH2 6553   5.729   0.819   2.784
 2203TIP3    H1 6554   5.704   0.760   2.855
 2203TIP3    H2 6555   5.755   0.762   2.712
 2204TIP3   OH2 6556   5.393   6.972   0.540
 2204TIP3    H1 6557   5.394   6.985   0.446
 2204TIP3    H2 6558   5.406   7.059   0.577
 2205TIP3   OH2 6559   5.170   7.558   1.124
 2205TIP3    H1 6560   5.221   7.478   1.134
 2205TIP3    H2 6561   5.081   7.533   1.147
 2206TIP3   OH2 6562   0.961   5.841   6.652
 2206TIP3    H1 6563   0.897   5.894   6.700
 2206TIP3    H2 6564   1.040   5.845   6.706
 2207TIP3   OH2 6565   2.714   5.292   6.217
 2207TIP3    H1 6566   2.711   5.385   6.242
 2207TIP3    H2 6567   2.625   5.271   6.190
 2208TIP3   OH2 6568   2.409   3.773   0.700
 2208TIP3    H1 6569   2.453   3.730   0.774
 2208TIP3    H2 6570   2.428   3.866   0.712
 2209TIP3   OH2 6571   7.918   5.952   3.107
 2209TIP3    H1 6572   7.992   6.008   3.083
 2209TIP3    H2 6573   7.859   6.011   3.154
 2210TIP3   OH2 6574   4.321   1.983   1.334
 2210TIP3    H1 6575   4.262   1.949   1.267
 2210TIP3    H2 6576   4.316   1.920   1.406
 2211TIP3   OH2 6577   6.875   7.350   3.285
 2211TIP3    H1 6578   6.869   7.351   3.381
 2211TIP3    H2 6579   6.851   7.260   3.261
 2212TIP3   OH2 6580   7.170   7.419   2.802
 2212TIP3    H1 6581   7.195   7.348   2.744
 2212TIP3    H2 6582   7.161   7.496   2.745
 2213TIP3   OH2 6583   3.002   2.744   3.060
 2213TIP3    H1 6584   3.006   2.683   3.134
 2213TIP3    H2 6585   3.088   2.736   3.018
 2214TIP3   OH2 6586   7.845   6.621   2.337
 2214TIP3    H1 6587   7.866   6.562   2.409
 2214TIP3    H2 6588   7.928   6.664   2.315
 2215TIP3   OH2 6589   2.030   6.927   3.911
 2215TIP3    H1 6590   2.071   7.009   3.883
 2215TIP3    H2 6591   2.003   6.943   4.001
 2216TIP3   OH2 6592   4.502   3.390   3.560
 2216TIP3    H1 6593   4.597   3.383   3.568
 2216TIP3    H2 6594   4.482   3.481   3.579
 2217TIP3   OH2 6595   3.932   7.390   4.054
 2217TIP3    H1 6596   3.910   7.304   4.019
 2217TIP3    H2 6597   3.872   7.402   4.128
 2218TIP3   OH2 6598   4.757   7.412   5.436
 2218TIP3    H1 6599   4.760   7.375   5.524
 2218TIP3    H2 6600   4.670   7.389   5.403
 2219TIP3   OH2 6601   4.256   6.657   1.792
 2219TIP3    H1 6602   4.331   6.668   1.734
 2219TIP3    H2 6603   4.214   6.577   1.762
 2220TIP3   OH2 6604   6.158   6.844   4.424
 2220TIP3    H1 6605   6.245   6.817   4.397
 2220TIP3    H2 6606   6.112   6.863   4.342
 2221TIP3   OH2 6607   8.281   7.389   1.462
 2221TIP3    H1 6608   8.192   7.412   1.489
 2221TIP3    H2 6609   8.294   7.438   1.380
 2222TIP3   OH2 6610   3.829   3.247   0.200
 2222TIP3    H1 6611   3.788   3.322   0.242
 2222TIP3    H2 6612   3.894   3.217   0.263
 2223TIP3   OH2 6613   2.315   5.109   0.085
 2223TIP3    H1 6614   2.394   5.079   0.039
 2223TIP3    H2 6615   2.346   5.130   0.173
 2224TIP3   OH2 6616   0.136   1.846   6.552
 2224TIP3    H1 6617   0.145   1.901   6.475
 2224TIP3    H2 6618   0.193   1.771   6.536
 2225TIP3   OH2 6619   2.109   4.951   5.275
 2225TIP3    H1 6620   2.198   4.938   5.307
 2225TIP3    H2 6621   2.099   5.046   5.269
 2226TIP3   OH2 6622   3.539   7.346   3.150
 2226TIP3    H1 6623   3.533   7.283   3.079
 2226TIP3    H2 6624   3.451   7.384   3.157
 2227TIP3   OH2 6625   7.158   6.162   2.769
 2227TIP3    H1 6626   7.095   6.106   2.815
 2227TIP3    H2 6627   7.105   6.214   2.709
 2228TIP3   OH2 6628   2.337   6.203   1.241
 2228TIP3    H1 6629   2.317   6.272   1.306
 2228TIP3    H2 6630   2.427   6.221   1.214
 2229TIP3   OH2 6631   2.661   0.953   5.758
 2229TIP3    H1 6632   2.701   0.866   5.768
 2229TIP3    H2 6633   2.725   1.004   5.709
 2230TIP3   OH2 6634   5.385   2.015   1.045
 2230TIP3    H1 6635   5.353   2.052   0.963
 2230TIP3    H2 6636   5.394   1.922   1.028
 2231TIP3   OH2 6637   0.324   4.330   5.241
 2231TIP3    H1 6638   0.319   4.282   5.324
 2231TIP3    H2 6639   0.357   4.417   5.266
 2232TIP3   OH2 6640   8.221   5.839   5.234
 2232TIP3    H1 6641   8.312   5.856   5.260
 2232TIP3    H2 6642   8.212   5.881   5.149
 2233TIP3   OH2 6643   3.338   5.739   0.555
 2233TIP3    H1 6644   3.359   5.646   0.553
 2233TIP3    H2 6645   3.312   5.759   0.465
 2234TIP3   OH2 6646   7.887   2.741   1.031
 2234TIP3    H1 6647   7.976   2.770   1.048
 2234TIP3    H2 6648   7.887   2.715   0.938
 2235TIP3   OH2 6649   3.510   4.678   3.979
 2235TIP3    H1 6650   3.466   4.632   3.908
 2235TIP3    H2 6651   3.465   4.649   4.058
 2236TIP3   OH2 6652   6.670   2.914   5.202
 2236TIP3    H1 6653   6.760   2.927   5.173
 2236TIP3    H2 6654   6.673   2.925   5.297
 2237TIP3   OH2 6655   6.904   6.826   1.962
 2237TIP3    H1 6656   6.852   6.800   1.886
 2237TIP3    H2 6657   6.906   6.921   1.958
 2238TIP3   OH2 6658   2.871   2.101   4.664
 2238TIP3    H1 6659   2.913   2.175   4.620
 2238TIP3    H2 6660   2.822   2.057   4.596
 2239TIP3   OH2 6661   2.596   1.508   5.046
 2239TIP3    H1 6662   2.680   1.532   5.009
 2239TIP3    H2 6663   2.549   1.465   4.975
 2240TIP3   OH2 6664   2.250   1.619   2.716
 2240TIP3    H1 6665   2.190   1.585   2.651
 2240TIP3    H2 6666   2.216   1.586   2.800
 2241TIP3   OH2 6667   5.622   5.980   0.501
 2241TIP3    H1 6668   5.638   6.069   0.531
 2241TIP3    H2 6669   5.708   5.939   0.502
 2242TIP3   OH2 6670   1.604   3.777   3.918
 2242TIP3    H1 6671   1.680   3.724   3.941
 2242TIP3    H2 6672   1.609   3.853   3.976
 2243TIP3   OH2 6673   5.992   1.208   1.435
 2243TIP3    H1 6674   5.933   1.277   1.407
 2243TIP3    H2 6675   5.968   1.133   1.380
 2244TIP3   OH2 6676   1.111   7.061   2.636
 2244TIP3    H1 6677   1.026   7.032   2.670
 2244TIP3    H2 6678   1.138   6.990   2.578
 2245TIP3   OH2 6679   6.479   1.492   3.121
 2245TIP3    H1 6680   6.548   1.471   3.057
 2245TIP3    H2 6681   6.419   1.417   3.117
 2246TIP3   OH2 6682   2.880   7.019   4.073
 2246TIP3    H1 6683   2.905   6.992   4.162
 2246TIP3    H2 6684   2.885   7.114   4.075
 2247TIP3   OH2 6685   2.150   5.012   1.955
 2247TIP3    H1 6686   2.105   4.955   1.893
 2247TIP3    H2 6687   2.212   4.955   2.000
 2248TIP3   OH2 6688   7.575   2.676   2.896
 2248TIP3    H1 6689   7.670   2.684   2.888
 2248TIP3    H2 6690   7.542   2.680   2.807
 2249TIP3   OH2 6691   3.590   4.975   5.555
 2249TIP3    H1 6692   3.639   5.035   5.611
 2249TIP3    H2 6693   3.511   5.023   5.531
 2250TIP3   OH2 6694   4.731   2.489   0.311
 2250TIP3    H1 6695   4.761   2.447   0.392
 2250TIP3    H2 6696   4.786   2.567   0.303
 2251TIP3   OH2 6697   1.805   1.672   0.155
 2251TIP3    H1 6698   1.714   1.699   0.143
 2251TIP3    H2 6699   1.799   1.582   0.187
 2252TIP3   OH2 6700   4.446   0.140   6.495
 2252TIP3    H1 6701   4.414   0.193   6.568
 2252TIP3    H2 6702   4.428   0.193   6.417
 2253TIP3   OH2 6703   7.554   7.051   1.284
 2253TIP3    H1 6704   7.501   7.130   1.288
 2253TIP3    H2 6705   7.568   7.027   1.376
 2254TIP3   OH2 6706   1.119   0.404   3.144
 2254TIP3    H1 6707   1.204   0.447   3.146
 2254TIP3    H2 6708   1.121   0.343   3.218
 2255TIP3   OH2 6709   3.440   7.184   6.111
 2255TIP3    H1 6710   3.379   7.240   6.158
 2255TIP3    H2 6711   3.521   7.188   6.162
 2256TIP3   OH2 6712   4.134   5.303   4.869
 2256TIP3    H1 6713   4.103   5.362   4.800
 2256TIP3    H2 6714   4.230   5.305   4.861
 2257TIP3   OH2 6715   7.627   2.086   1.862
 2257TIP3    H1 6716   7.662   2.056   1.946
 2257TIP3    H2 6717   7.549   2.136   1.885
 2258TIP3   OH2 6718   4.101   0.823   4.770
 2258TIP3    H1 6719   4.190   0.824   4.806
 2258TIP3    H2 6720   4.051   0.768   4.830
 2259TIP3   OH2 6721   7.489   7.345   2.946
 2259TIP3    H1 6722   7.420   7.335   2.880
 2259TIP3    H2 6723   7.563   7.383   2.899
 2260TIP3   OH2 6724   4.876   7.408   0.342
 2260TIP3    H1 6725   4.872   7.435   0.434
 2260TIP3    H2 6726   4.961   7.439   0.312
 2261TIP3   OH2 6727   0.622   2.641   6.077
 2261TIP3    H1 6728   0.555   2.625   6.144
 2261TIP3    H2 6729   0.689   2.691   6.123
 2262TIP3   OH2 6730   6.157   4.126   0.260
 2262TIP3    H1 6731   6.230   4.092   0.312
 2262TIP3    H2 6732   6.161   4.077   0.178
 2263TIP3   OH2 6733   1.359   5.602   4.577
 2263TIP3    H1 6734   1.335   5.512   4.600
 2263TIP3    H2 6735   1.305   5.657   4.635
 2264TIP3   OH2 6736   4.884   2.625   1.248
 2264TIP3    H1 6737   4.926   2.656   1.168
 2264TIP3    H2 6738   4.943   2.651   1.318
 2265TIP3   OH2 6739   0.374   4.831   4.117
 2265TIP3    H1 6740   0.466   4.857   4.119
 2265TIP3    H2 6741   0.376   4.736   4.104
 2266TIP3   OH2 6742   5.367   6.292   0.364
 2266TIP3    H1 6743   5.456   6.258   0.349
 2266TIP3    H2 6744   5.311   6.215   0.363
 2267TIP3   OH2 6745   2.177   6.699   3.855
 2267TIP3    H1 6746   2.231   6.713   3.933
 2267TIP3    H2 6747   2.130   6.781   3.844
 2268TIP3   OH2 6748   5.762   1.763   1.600
 2268TIP3    H1 6749   5.710   1.792   1.674
 2268TIP3    H2 6750   5.703   1.709   1.548
 2269TIP3   OH2 6751   6.519   3.008   0.296
 2269TIP3    H1 6752   6.593   3.056   0.259
 2269TIP3    H2 6753   6.518   3.030   0.389
 2270TIP3   OH2 6754   1.526   7.500   3.076
 2270TIP3    H1 6755   1.485   7.545   3.002
 2270TIP3    H2 6756   1.599   7.557   3.100
 2271TIP3   OH2 6757   6.347   3.860   4.268
 2271TIP3    H1 6758   6.396   3.793   4.221
 2271TIP3    H2 6759   6.399   3.875   4.348
 2272TIP3   OH2 6760   1.032   4.007   1.097
 2272TIP3    H1 6761   0.944   3.982   1.126
 2272TIP3    H2 6762   1.088   3.992   1.174
 2273TIP3   OH2 6763   1.769   5.756   3.866
 2273TIP3    H1 6764   1.692   5.777   3.813
 2273TIP3    H2 6765   1.815   5.839   3.875
 2274TIP3   OH2 6766   0.939   5.408   0.956
 2274TIP3    H1 6767   0.887   5.332   0.982
 2274TIP3    H2 6768   1.017   5.404   1.011
 2275TIP3   OH2 6769   6.227   3.505   0.809
 2275TIP3    H1 6770   6.318   3.516   0.783
 2275TIP3    H2 6771   6.217   3.412   0.825
 2276TIP3   OH2 6772   0.617   6.802   6.637
 2276TIP3    H1 6773   0.708   6.785   6.661
 2276TIP3    H2 6774   0.567   6.779   6.715
 2277TIP3   OH2 6775   1.998   6.586   3.069
 2277TIP3    H1 6776   1.968   6.508   3.114
 2277TIP3    H2 6777   1.940   6.656   3.100
 2278TIP3   OH2 6778   5.140   5.468   3.929
 2278TIP3    H1 6779   5.056   5.494   3.893
 2278TIP3    H2 6780   5.120   5.397   3.990
 2279TIP3   OH2 6781   5.075   4.905   0.869
 2279TIP3    H1 6782   5.075   4.966   0.943
 2279TIP3    H2 6783   5.098   4.960   0.794
 2280TIP3   OH2 6784   0.678   5.054   5.804
 2280TIP3    H1 6785   0.634   4.969   5.813
 2280TIP3    H2 6786   0.771   5.032   5.799
 2281TIP3   OH2 6787   5.229   6.866   1.542
 2281TIP3    H1 6788   5.208   6.875   1.449
 2281TIP3    H2 6789   5.299   6.929   1.558
 2282TIP3   OH2 6790   4.406   6.296   2.627
 2282TIP3    H1 6791   4.495   6.315   2.658
 2282TIP3    H2 6792   4.411   6.305   2.532
 2283TIP3   OH2 6793   1.666   4.080   6.171
 2283TIP3    H1 6794   1.664   4.169   6.134
 2283TIP3    H2 6795   1.758   4.064   6.188
 2284TIP3   OH2 6796   6.552   7.698   1.134
 2284TIP3    H1 6797   6.478   7.754   1.110
 2284TIP3    H2 6798   6.549   7.695   1.230
 2285TIP3   OH2 6799   3.494   6.808   1.864
 2285TIP3    H1 6800   3.567   6.787   1.806
 2285TIP3    H2 6801   3.533   6.816   1.951
 2286TIP3   OH2 6802   6.861   0.616   4.504
 2286TIP3    H1 6803   6.870   0.711   4.498
 2286TIP3    H2 6804   6.802   0.592   4.432
 2287TIP3   OH2 6805   6.984   2.013   1.886
 2287TIP3    H1 6806   6.966   1.920   1.900
 2287TIP3    H2 6807   6.987   2.050   1.974
 2288TIP3   OH2 6808   5.623   1.903   6.294
 2288TIP3    H1 6809   5.688   1.974   6.289
 2288TIP3    H2 6810   5.567   1.927   6.367
 2289TIP3   OH2 6811   3.174   6.502   5.079
 2289TIP3    H1 6812   3.255   6.508   5.030
 2289TIP3    H2 6813   3.182   6.421   5.129
 2290TIP3   OH2 6814   5.107   2.486   3.735
 2290TIP3    H1 6815   5.131   2.417   3.798
 2290TIP3    H2 6816   5.166   2.471   3.661
 2291TIP3   OH2 6817   7.691   5.384   1.608
 2291TIP3    H1 6818   7.720   5.348   1.524
 2291TIP3    H2 6819   7.613   5.436   1.587
 2292TIP3   OH2 6820   6.751   2.449   5.156
 2292TIP3    H1 6821   6.741   2.415   5.067
 2292TIP3    H2 6822   6.687   2.400   5.208
 2293TIP3   OH2 6823   1.899   3.000   1.935
 2293TIP3    H1 6824   1.855   2.916   1.929
 2293TIP3    H2 6825   1.834   3.060   1.971
 2294TIP3   OH2 6826   5.520   2.388   3.241
 2294TIP3    H1 6827   5.570   2.400   3.322
 2294TIP3    H2 6828   5.498   2.295   3.240
 2295TIP3   OH2 6829   5.655   5.025   0.281
 2295TIP3    H1 6830   5.657   5.022   0.377
 2295TIP3    H2 6831   5.715   4.955   0.254
 2296TIP3   OH2 6832   1.202   2.698   2.729
 2296TIP3    H1 6833   1.172   2.705   2.820
 2296TIP3    H2 6834   1.151   2.626   2.692
 2297TIP3   OH2 6835   3.393   2.228   6.302
 2297TIP3    H1 6836   3.340   2.279   6.241
 2297TIP3    H2 6837   3.416   2.149   6.254
 2298TIP3   OH2 6838   6.463   6.368   1.126
 2298TIP3    H1 6839   6.517   6.426   1.072
 2298TIP3    H2 6840   6.519   6.293   1.145
 2299TIP3   OH2 6841   3.647   3.777   1.750
 2299TIP3    H1 6842   3.700   3.841   1.797
 2299TIP3    H2 6843   3.710   3.720   1.707
 2300TIP3   OH2 6844   6.413   6.045   1.015
 2300TIP3    H1 6845   6.490   6.072   1.065
 2300TIP3    H2 6846   6.408   5.950   1.028
 2301TIP3   OH2 6847   0.538   2.122   6.402
 2301TIP3    H1 6848   0.530   2.028   6.416
 2301TIP3    H2 6849   0.630   2.142   6.421
 2302TIP3   OH2 6850   7.478   1.027   5.320
 2302TIP3    H1 6851   7.525   0.978   5.253
 2302TIP3    H2 6852   7.546   1.053   5.383
 2303TIP3   OH2 6853   0.586   0.520   3.938
 2303TIP3    H1 6854   0.546   0.452   3.884
 2303TIP3    H2 6855   0.680   0.507   3.927
 2304TIP3   OH2 6856   3.024   0.020   4.661
 2304TIP3    H1 6857   3.033   0.114   4.649
 2304TIP3    H2 6858   3.071   0.002   4.742
 2305TIP3   OH2 6859   2.953   6.648   6.388
 2305TIP3    H1 6860   2.970   6.560   6.354
 2305TIP3    H2 6861   3.033   6.697   6.369
 2306TIP3   OH2 6862   0.272   4.326   6.220
 2306TIP3    H1 6863   0.348   4.370   6.183
 2306TIP3    H2 6864   0.198   4.359   6.168
 2307TIP3   OH2 6865   2.562   3.152   0.648
 2307TIP3    H1 6866   2.556   3.213   0.574
 2307TIP3    H2 6867   2.548   3.206   0.725
 2308TIP3   OH2 6868   3.570   7.311   1.002
 2308TIP3    H1 6869   3.528   7.395   0.981
 2308TIP3    H2 6870   3.653   7.335   1.043
 2309TIP3   OH2 6871   4.653   4.723   3.095
 2309TIP3    H1 6872   4.562   4.726   3.124
 2309TIP3    H2 6873   4.704   4.747   3.173
 2310TIP3   OH2 6874   8.092   4.790   4.257
 2310TIP3    H1 6875   8.063   4.699   4.251
 2310TIP3    H2 6876   8.030   4.839   4.202
 2311TIP3   OH2 6877   0.229   4.866   3.428
 2311TIP3    H1 6878   0.142   4.859   3.466
 2311TIP3    H2 6879   0.241   4.786   3.378
 2312TIP3   OH2 6880   3.982   3.495   2.243
 2312TIP3    H1 6881   4.034   3.543   2.308
 2312TIP3    H2 6882   3.942   3.563   2.189
 2313TIP3   OH2 6883   4.334   7.776   2.346
 2313TIP3    H1 6884   4.353   7.695   2.299
 2313TIP3    H2 6885   4.256   7.812   2.303
 2314TIP3   OH2 6886   5.323   3.179   4.305
 2314TIP3    H1 6887   5.355   3.089   4.318
 2314TIP3    H2 6888   5.268   3.197   4.380
 2315TIP3   OH2 6889   4.487   6.603   1.117
 2315TIP3    H1 6890   4.550   6.658   1.070
 2315TIP3    H2 6891   4.501   6.515   1.081
 2316TIP3   OH2 6892   3.342   1.215   2.881
 2316TIP3    H1 6893   3.388   1.298   2.866
 2316TIP3    H2 6894   3.252   1.241   2.897
 2317TIP3   OH2 6895   4.046   4.297   6.648
 2317TIP3    H1 6896   4.002   4.256   6.573
 2317TIP3    H2 6897   3.982   4.360   6.681
 2318TIP3   OH2 6898   5.657   0.008   0.115
 2318TIP3    H1 6899   5.596   0.061   0.064
 2318TIP3    H2 6900   5.628  -0.082   0.101
 2319TIP3   OH2 6901   2.822   5.532   0.673
 2319TIP3    H1 6902   2.788   5.444   0.656
 2319TIP3    H2 6903   2.917   5.521   0.674
 2320TIP3   OH2 6904   1.835   5.387   5.210
 2320TIP3    H1 6905   1.874   5.471   5.237
 2320TIP3    H2 6906   1.755   5.412   5.163
 2321TIP3   OH2 6907   2.730   3.701   6.410
 2321TIP3    H1 6908   2.640   3.731   6.401
 2321TIP3    H2 6909   2.773   3.728   6.328
 2322TIP3   OH2 6910   7.317   1.043   5.113
 2322TIP3    H1 6911   7.362   1.053   5.197
 2322TIP3    H2 6912   7.358   0.966   5.073
 2323TIP3   OH2 6913   5.543   1.854   5.584
 2323TIP3    H1 6914   5.600   1.931   5.574
 2323TIP3    H2 6915   5.544   1.812   5.498
 2324TIP3   OH2 6916   3.113   2.207   0.274
 2324TIP3    H1 6917   3.196   2.181   0.313
 2324TIP3    H2 6918   3.082   2.280   0.328
 2325TIP3   OH2 6919   0.378   7.245   1.219
 2325TIP3    H1 6920   0.309   7.179   1.217
 2325TIP3    H2 6921   0.343   7.314   1.276
 2326TIP3   OH2 6922   7.807   3.509   4.114
 2326TIP3    H1 6923   7.765   3.555   4.042
 2326TIP3    H2 6924   7.738   3.498   4.179
 2327TIP3   OH2 6925   7.481   3.671   4.992
 2327TIP3    H1 6926   7.462   3.765   4.985
 2327TIP3    H2 6927   7.535   3.663   5.070
 2328TIP3   OH2 6928   5.188   7.228   0.242
 2328TIP3    H1 6929   5.222   7.316   0.257
 2328TIP3    H2 6930   5.154   7.200   0.327
 2329TIP3   OH2 6931   2.626   6.968   5.055
 2329TIP3    H1 6932   2.535   6.942   5.042
 2329TIP3    H2 6933   2.622   7.037   5.121
 2330TIP3   OH2 6934   5.551   1.709   0.147
 2330TIP3    H1 6935   5.559   1.765   0.224
 2330TIP3    H2 6936   5.628   1.651   0.151
 2331TIP3   OH2 6937   6.840   1.232   6.533
 2331TIP3    H1 6938   6.775   1.302   6.522
 2331TIP3    H2 6939   6.832   1.207   6.625
 2332TIP3   OH2 6940   7.326   4.114   6.505
 2332TIP3    H1 6941   7.363   4.196   6.472
 2332TIP3    H2 6942   7.402   4.062   6.531
 2333TIP3   OH2 6943   6.157   6.451   3.208
 2333TIP3    H1 6944   6.176   6.498   3.289
 2333TIP3    H2 6945   6.159   6.518   3.140
 2334TIP3   OH2 6946   0.166   0.438   2.206
 2334TIP3    H1 6947   0.105   0.421   2.278
 2334TIP3    H2 6948   0.120   0.500   2.150
 2335TIP3   OH2 6949   2.010   5.260   5.041
 2335TIP3    H1 6950   2.020   5.237   5.133
 2335TIP3    H2 6951   1.950   5.335   5.041
 2336TIP3   OH2 6952   2.310   0.389   0.868
 2336TIP3    H1 6953   2.382   0.389   0.804
 2336TIP3    H2 6954   2.272   0.476   0.861
 2337TIP3   OH2 6955   1.057   7.444   5.302
 2337TIP3    H1 6956   0.983   7.400   5.343
 2337TIP3    H2 6957   1.130   7.429   5.362
 2338TIP3   OH2 6958   7.847   1.004   4.781
 2338TIP3    H1 6959   7.883   0.915   4.776
 2338TIP3    H2 6960   7.837   1.031   4.690
 2339TIP3   OH2 6961   2.904   0.236   1.432
 2339TIP3    H1 6962   2.904   0.239   1.528
 2339TIP3    H2 6963   2.860   0.317   1.406
 2340TIP3   OH2 6964   4.887   5.732   0.988
 2340TIP3    H1 6965   4.909   5.682   1.067
 2340TIP3    H2 6966   4.913   5.821   1.009
 2341TIP3   OH2 6967   4.202   3.284   4.287
 2341TIP3    H1 6968   4.174   3.273   4.196
 2341TIP3    H2 6969   4.289   3.244   4.289
 2342TIP3   OH2 6970   1.630   0.532   5.641
 2342TIP3    H1 6971   1.627   0.524   5.546
 2342TIP3    H2 6972   1.714   0.494   5.666
 2343TIP3   OH2 6973   3.359   1.081   6.133
 2343TIP3    H1 6974   3.277   1.103   6.178
 2343TIP3    H2 6975   3.362   0.986   6.134
 2344TIP3   OH2 6976   8.128   4.316   3.666
 2344TIP3    H1 6977   8.190   4.326   3.739
 2344TIP3    H2 6978   8.183   4.323   3.587
 2345TIP3   OH2 6979   7.064   7.373   4.296
 2345TIP3    H1 6980   7.011   7.322   4.358
 2345TIP3    H2 6981   7.142   7.319   4.283
 2346TIP3   OH2 6982   6.496   2.351   4.529
 2346TIP3    H1 6983   6.515   2.430   4.579
 2346TIP3    H2 6984   6.405   2.359   4.503
 2347TIP3   OH2 6985   1.402   1.940   6.728
 2347TIP3    H1 6986   1.474   1.921   6.668
 2347TIP3    H2 6987   1.373   1.855   6.759
 2348TIP3   OH2 6988   4.709   3.816   4.576
 2348TIP3    H1 6989   4.802   3.808   4.598
 2348TIP3    H2 6990   4.703   3.783   4.486
 2349TIP3   OH2 6991   5.585   2.374   3.664
 2349TIP3    H1 6992   5.669   2.404   3.697
 2349TIP3    H2 6993   5.522   2.397   3.733
 2350TIP3   OH2 6994   3.658   6.350   0.967
 2350TIP3    H1 6995   3.671   6.382   0.878
 2350TIP3    H2 6996   3.678   6.426   1.022
 2351TIP3   OH2 6997   8.133   2.521   0.888
 2351TIP3    H1 6998   8.101   2.476   0.810
 2351TIP3    H2 6999   8.110   2.613   0.875
 2352TIP3   OH2 7000   0.703   3.738   5.328
 2352TIP3    H1 7001   0.653   3.667   5.369
 2352TIP3    H2 7002   0.675   3.817   5.375
 2353TIP3   OH2 7003   5.386   5.727   0.639
 2353TIP3    H1 7004   5.382   5.808   0.589
 2353TIP3    H2 7005   5.351   5.661   0.581
 2354TIP3   OH2 7006   8.190   1.144   4.035
 2354TIP3    H1 7007   8.249   1.110   4.102
 2354TIP3    H2 7008   8.152   1.065   3.995
 2355TIP3   OH2 7009   5.709   2.742   5.986
 2355TIP3    H1 7010   5.770   2.815   5.993
 2355TIP3    H2 7011   5.760   2.672   5.944
 2356TIP3   OH2 7012   6.777   2.835   0.268
 2356TIP3    H1 7013   6.728   2.853   0.348
 2356TIP3    H2 7014   6.779   2.739   0.262
 2357TIP3   OH2 7015   5.339   1.207   2.751
 2357TIP3    H1 7016   5.268   1.145   2.767
 2357TIP3    H2 7017   5.338   1.221   2.656
 2358TIP3   OH2 7018   1.322   7.250   4.194
 2358TIP3    H1 7019   1.331   7.204   4.111
 2358TIP3    H2 7020   1.299   7.182   4.258
 2359TIP3   OH2 7021   1.879   6.005   5.047
 2359TIP3    H1 7022   1.835   6.090   5.044
 2359TIP3    H2 7023   1.958   6.017   4.994
 2360TIP3   OH2 7024   6.451   1.698   6.485
 2360TIP3    H1 7025   6.539   1.729   6.462
 2360TIP3    H2 7026   6.415   1.767   6.540
 2361TIP3   OH2 7027   2.069   3.051   2.889
 2361TIP3    H1 7028   2.106   3.064   2.976
 2361TIP3    H2 7029   2.105   3.122   2.837
 2362TIP3   OH2 7030   7.482   7.180   1.823
 2362TIP3    H1 7031   7.439   7.112   1.875
 2362TIP3    H2 7032   7.488   7.255   1.883
 2363TIP3   OH2 7033   5.217   1.469   6.127
 2363TIP3    H1 7034   5.230   1.507   6.040
 2363TIP3    H2 7035   5.131   1.428   6.123
 2364TIP3   OH2 7036   3.976   5.712   0.608
 2364TIP3    H1 7037   3.907   5.677   0.664
 2364TIP3    H2 7038   3.946   5.694   0.518
 2365TIP3   OH2 7039   5.870   0.120   2.704
 2365TIP3    H1 7040   5.912   0.205   2.710
 2365TIP3    H2 7041   5.942   0.059   2.687
 2366TIP3   OH2 7042   6.073   4.677   0.749
 2366TIP3    H1 7043   6.024   4.670   0.666
 2366TIP3    H2 7044   6.039   4.605   0.802
 2367TIP3   OH2 7045   1.901   6.905   5.523
 2367TIP3    H1 7046   1.965   6.885   5.455
 2367TIP3    H2 7047   1.835   6.958   5.479
 2368TIP3   OH2 7048   0.577   5.428   1.236
 2368TIP3    H1 7049   0.537   5.503   1.281
 2368TIP3    H2 7050   0.647   5.467   1.183
 2369TIP3   OH2 7051   4.628   1.144   5.784
 2369TIP3    H1 7052   4.674   1.203   5.725
 2369TIP3    H2 7053   4.697   1.092   5.826
 2370TIP3   OH2 7054   5.306   3.338   1.186
 2370TIP3    H1 7055   5.365   3.393   1.133
 2370TIP3    H2 7056   5.358   3.259   1.205
 2371TIP3   OH2 7057   6.216   2.085   1.806
 2371TIP3    H1 7058   6.295   2.033   1.822
 2371TIP3    H2 7059   6.206   2.084   1.711
 2372TIP3   OH2 7060   7.321   0.650   1.259
 2372TIP3    H1 7061   7.369   0.728   1.287
 2372TIP3    H2 7062   7.252   0.639   1.324
 2373TIP3   OH2 7063   7.803   3.396   3.509
 2373TIP3    H1 7064   7.734   3.331   3.520
 2373TIP3    H2 7065   7.872   3.350   3.461
 2374TIP3   OH2 7066   1.494   2.468   6.447
 2374TIP3    H1 7067   1.401   2.452   6.430
 2374TIP3    H2 7068   1.504   2.451   6.541
 2375TIP3   OH2 7069   5.385   2.361   4.566
 2375TIP3    H1 7070   5.368   2.356   4.660
 2375TIP3    H2 7071   5.451   2.430   4.558
 2376TIP3   OH2 7072   3.490   2.094   2.391
 2376TIP3    H1 7073   3.406   2.125   2.422
 2376TIP3    H2 7074   3.535   2.063   2.469
 2377TIP3   OH2 7075   5.273   6.708   2.637
 2377TIP3    H1 7076   5.252   6.787   2.588
 2377TIP3    H2 7077   5.333   6.738   2.705
 2378TIP3   OH2 7078   2.672   6.833   4.052
 2378TIP3    H1 7079   2.698   6.741   4.057
 2378TIP3    H2 7080   2.754   6.882   4.056
 2379TIP3   OH2 7081   5.114   3.313   5.264
 2379TIP3    H1 7082   5.202   3.301   5.300
 2379TIP3    H2 7083   5.063   3.349   5.337
 2380TIP3   OH2 7084   5.712   2.930   4.999
 2380TIP3    H1 7085   5.771   2.991   4.956
 2380TIP3    H2 7086   5.729   2.942   5.093
 2381TIP3   OH2 7087   0.940   4.327   2.705
 2381TIP3    H1 7088   0.882   4.283   2.643
 2381TIP3    H2 7089   0.969   4.258   2.764
 2382TIP3   OH2 7090   5.353   4.809   1.132
 2382TIP3    H1 7091   5.408   4.737   1.100
 2382TIP3    H2 7092   5.318   4.776   1.215
 2383TIP3   OH2 7093   6.837   6.712   0.512
 2383TIP3    H1 7094   6.922   6.695   0.473
 2383TIP3    H2 7095   6.775   6.705   0.440
 2384TIP3   OH2 7096   3.033   4.914   0.890
 2384TIP3    H1 7097   3.064   4.838   0.842
 2384TIP3    H2 7098   2.939   4.899   0.900
 2385TIP3   OH2 7099   6.642   2.907   6.679
 2385TIP3    H1 7100   6.597   2.891   6.763
 2385TIP3    H2 7101   6.572   2.906   6.614
 2386TIP3   OH2 7102   5.786   5.652   1.626
 2386TIP3    H1 7103   5.874   5.620   1.645
 2386TIP3    H2 7104   5.728   5.580   1.653
 2387TIP3   OH2 7105   4.948   0.437   2.079
 2387TIP3    H1 7106   4.993   0.369   2.030
 2387TIP3    H2 7107   4.919   0.394   2.160
 2388TIP3   OH2 7108   4.460   0.857   5.594
 2388TIP3    H1 7109   4.450   0.902   5.678
 2388TIP3    H2 7110   4.553   0.868   5.573
 2389TIP3   OH2 7111   7.029   5.208   5.100
 2389TIP3    H1 7112   7.060   5.298   5.108
 2389TIP3    H2 7113   6.968   5.198   5.173
 2390TIP3   OH2 7114   3.759   1.019   5.210
 2390TIP3    H1 7115   3.813   0.953   5.253
 2390TIP3    H2 7116   3.724   0.975   5.132
 2391TIP3   OH2 7117   5.734   7.188   1.687
 2391TIP3    H1 7118   5.814   7.224   1.723
 2391TIP3    H2 7119   5.745   7.093   1.692
 2392TIP3   OH2 7120   6.891   2.683   4.452
 2392TIP3    H1 7121   6.963   2.640   4.405
 2392TIP3    H2 7122   6.847   2.735   4.385
 2393TIP3   OH2 7123   0.058   3.837   5.466
 2393TIP3    H1 7124   0.059   3.742   5.468
 2393TIP3    H2 7125   0.103   3.860   5.385
 2394TIP3   OH2 7126   2.492   4.048   4.640
 2394TIP3    H1 7127   2.496   3.965   4.689
 2394TIP3    H2 7128   2.583   4.078   4.637
 2395TIP3   OH2 7129   4.814   3.777   1.490
 2395TIP3    H1 7130   4.876   3.784   1.417
 2395TIP3    H2 7131   4.866   3.742   1.562
 2396TIP3   OH2 7132   2.307   6.015   4.262
 2396TIP3    H1 7133   2.324   5.990   4.353
 2396TIP3    H2 7134   2.319   6.110   4.260
 2397TIP3   OH2 7135   6.047   3.286   4.482
 2397TIP3    H1 7136   6.022   3.263   4.572
 2397TIP3    H2 7137   6.039   3.381   4.479
 2398TIP3   OH2 7138   7.862   1.797   4.265
 2398TIP3    H1 7139   7.807   1.845   4.203
 2398TIP3    H2 7140   7.920   1.863   4.303
 2399TIP3   OH2 7141   6.303   1.751   4.649
 2399TIP3    H1 7142   6.286   1.815   4.579
 2399TIP3    H2 7143   6.397   1.759   4.665
 2400TIP3   OH2 7144   7.204   5.815   4.433
 2400TIP3    H1 7145   7.298   5.821   4.419
 2400TIP3    H2 7146   7.182   5.723   4.416
 2401TIP3   OH2 7147   5.371   0.654   4.566
 2401TIP3    H1 7148   5.329   0.722   4.619
 2401TIP3    H2 7149   5.413   0.703   4.495
 2402TIP3   OH2 7150   6.776   5.420   1.752
 2402TIP3    H1 7151   6.869   5.401   1.768
 2402TIP3    H2 7152   6.776   5.502   1.703
 2403TIP3   OH2 7153   2.309   7.662   1.358
 2403TIP3    H1 7154   2.264   7.744   1.337
 2403TIP3    H2 7155   2.396   7.672   1.320
 2404TIP3   OH2 7156   5.754   6.038   5.894
 2404TIP3    H1 7157   5.663   6.060   5.917
 2404TIP3    H2 7158   5.783   6.111   5.839
 2405TIP3   OH2 7159   3.735   1.379   3.036
 2405TIP3    H1 7160   3.672   1.318   3.075
 2405TIP3    H2 7161   3.772   1.331   2.961
 2406TIP3   OH2 7162   1.962   4.621   5.120
 2406TIP3    H1 7163   1.907   4.664   5.055
 2406TIP3    H2 7164   2.011   4.555   5.070
 2407TIP3   OH2 7165   7.306   2.246   2.443
 2407TIP3    H1 7166   7.333   2.235   2.352
 2407TIP3    H2 7167   7.321   2.339   2.461
 2408TIP3   OH2 7168   1.128   0.696   2.886
 2408TIP3    H1 7169   1.220   0.676   2.871
 2408TIP3    H2 7170   1.125   0.790   2.903
 2409TIP3   OH2 7171   5.939   0.418   0.110
 2409TIP3    H1 7172   5.921   0.486   0.175
 2409TIP3    H2 7173   5.870   0.353   0.124
 2410TIP3   OH2 7174   3.221   0.709   4.051
 2410TIP3    H1 7175   3.200   0.617   4.065
 2410TIP3    H2 7176   3.136   0.750   4.033
 2411TIP3   OH2 7177   8.230   1.604   0.028
 2411TIP3    H1 7178   8.162   1.552  -0.013
 2411TIP3    H2 7179   8.304   1.543   0.037
 2412TIP3   OH2 7180   2.848   2.071   0.106
 2412TIP3    H1 7181   2.889   2.009   0.167
 2412TIP3    H2 7182   2.767   2.029   0.078
 2413TIP3   OH2 7183   8.267   3.985   6.296
 2413TIP3    H1 7184   8.340   3.960   6.240
 2413TIP3    H2 7185   8.191   3.941   6.257
 2414TIP3   OH2 7186   8.112   2.714   4.514
 2414TIP3    H1 7187   8.068   2.651   4.572
 2414TIP3    H2 7188   8.180   2.662   4.471
 2415TIP3   OH2 7189   7.541   1.391   1.993
 2415TIP3    H1 7190   7.473   1.341   1.948
 2415TIP3    H2 7191   7.553   1.470   1.939
 2416TIP3   OH2 7192   3.428   5.857   6.711
 2416TIP3    H1 7193   3.450   5.927   6.772
 2416TIP3    H2 7194   3.504   5.850   6.654
 2417TIP3   OH2 7195   4.230   6.623   0.153
 2417TIP3    H1 7196   4.237   6.719   0.150
 2417TIP3    H2 7197   4.316   6.594   0.184
 2418TIP3   OH2 7198   3.982   5.420   6.290
 2418TIP3    H1 7199   4.063   5.430   6.240
 2418TIP3    H2 7200   3.925   5.369   6.232
 2419TIP3   OH2 7201   1.032   0.801   0.638
 2419TIP3    H1 7202   1.028   0.891   0.607
 2419TIP3    H2 7203   0.940   0.772   0.639
 2420TIP3   OH2 7204   5.336   1.562   0.254
 2420TIP3    H1 7205   5.256   1.545   0.205
 2420TIP3    H2 7206   5.385   1.624   0.199
 2421TIP3   OH2 7207   5.245   3.395   4.140
 2421TIP3    H1 7208   5.273   3.323   4.197
 2421TIP3    H2 7209   5.151   3.401   4.152
 2422TIP3   OH2 7210   2.250   5.774   1.396
 2422TIP3    H1 7211   2.164   5.789   1.356
 2422TIP3    H2 7212   2.274   5.686   1.366
 2423TIP3   OH2 7213   8.032   5.338   0.133
 2423TIP3    H1 7214   7.955   5.373   0.088
 2423TIP3    H2 7215   8.018   5.359   0.225
 2424TIP3   OH2 7216   0.374   2.242   5.374
 2424TIP3    H1 7217   0.402   2.183   5.444
 2424TIP3    H2 7218   0.343   2.184   5.304
 2425TIP3   OH2 7219   4.472   0.904   3.819
 2425TIP3    H1 7220   4.552   0.950   3.843
 2425TIP3    H2 7221   4.402   0.952   3.863
 2426TIP3   OH2 7222   0.216   0.840   5.109
 2426TIP3    H1 7223   0.129   0.865   5.139
 2426TIP3    H2 7224   0.203   0.759   5.061
 2427TIP3   OH2 7225   4.701   4.903   3.936
 2427TIP3    H1 7226   4.686   4.945   4.021
 2427TIP3    H2 7227   4.794   4.878   3.938
 2428TIP3   OH2 7228   4.827   7.568   0.871
 2428TIP3    H1 7229   4.793   7.485   0.905
 2428TIP3    H2 7230   4.839   7.622   0.950
 2429TIP3   OH2 7231   4.026   2.657   6.564
 2429TIP3    H1 7232   4.072   2.663   6.648
 2429TIP3    H2 7233   4.092   2.622   6.504
 2430TIP3   OH2 7234   3.075   2.392   5.056
 2430TIP3    H1 7235   3.042   2.474   5.019
 2430TIP3    H2 7236   3.169   2.392   5.034
 2431TIP3   OH2 7237   1.567   0.858   3.796
 2431TIP3    H1 7238   1.660   0.835   3.797
 2431TIP3    H2 7239   1.566   0.953   3.788
 2432TIP3   OH2 7240   3.408   6.996   5.647
 2432TIP3    H1 7241   3.423   6.921   5.588
 2432TIP3    H2 7242   3.495   7.033   5.660
 2433TIP3   OH2 7243   0.268   6.864   6.160
 2433TIP3    H1 7244   0.243   6.887   6.249
 2433TIP3    H2 7245   0.303   6.776   6.167
 2434TIP3   OH2 7246   7.782   6.551   4.527
 2434TIP3    H1 7247   7.798   6.486   4.595
 2434TIP3    H2 7248   7.759   6.631   4.575
 2435TIP3   OH2 7249   2.130   5.340   0.101
 2435TIP3    H1 7250   2.142   5.247   0.080
 2435TIP3    H2 7251   2.069   5.372   0.035
 2436TIP3   OH2 7252   5.841   2.063   6.193
 2436TIP3    H1 7253   5.789   2.142   6.182
 2436TIP3    H2 7254   5.932   2.094   6.198
 2437TIP3   OH2 7255   5.750  -0.029   5.007
 2437TIP3    H1 7256   5.722  -0.036   4.916
 2437TIP3    H2 7257   5.829  -0.083   5.012
 2438TIP3   OH2 7258   5.023   4.614   3.187
 2438TIP3    H1 7259   5.083   4.659   3.247
 2438TIP3    H2 7260   5.080   4.576   3.121
 2439TIP3   OH2 7261   6.577   2.671   5.018
 2439TIP3    H1 7262   6.540   2.595   5.063
 2439TIP3    H2 7263   6.627   2.716   5.087
 2440TIP3   OH2 7264   5.819   0.359   6.438
 2440TIP3    H1 7265   5.900   0.386   6.393
 2440TIP3    H2 7266   5.824   0.264   6.440
 2441TIP3   OH2 7267   3.382   0.715   2.644
 2441TIP3    H1 7268   3.378   0.784   2.710
 2441TIP3    H2 7269   3.324   0.745   2.574
 2442TIP3   OH2 7270   8.191   1.504   2.722
 2442TIP3    H1 7271   8.225   1.418   2.748
 2442TIP3    H2 7272   8.264   1.546   2.676
 2443TIP3   OH2 7273   3.639   3.019   5.071
 2443TIP3    H1 7274   3.565   3.014   5.010
 2443TIP3    H2 7275   3.709   2.971   5.027
 2444TIP3   OH2 7276   7.207   6.851   0.525
 2444TIP3    H1 7277   7.201   6.822   0.616
 2444TIP3    H2 7278   7.217   6.946   0.530
 2445TIP3   OH2 7279   4.574   5.197   3.117
 2445TIP3    H1 7280   4.626   5.154   3.049
 2445TIP3    H2 7281   4.588   5.144   3.195
 2446TIP3   OH2 7282   3.717   2.568   0.492
 2446TIP3    H1 7283   3.731   2.635   0.425
 2446TIP3    H2 7284   3.650   2.510   0.455
 2447TIP3   OH2 7285   0.818   4.383   6.508
 2447TIP3    H1 7286   0.856   4.307   6.465
 2447TIP3    H2 7287   0.857   4.458   6.464
 2448TIP3   OH2 7288   7.746   5.148   6.359
 2448TIP3    H1 7289   7.836   5.180   6.348
 2448TIP3    H2 7290   7.695   5.198   6.296
 2449TIP3   OH2 7291   0.422   5.122   6.543
 2449TIP3    H1 7292   0.348   5.064   6.521
 2449TIP3    H2 7293   0.391   5.210   6.521
 2450TIP3   OH2 7294   5.605   5.921   6.464
 2450TIP3    H1 7295   5.667   5.913   6.537
 2450TIP3    H2 7296   5.632   5.853   6.402
 2451TIP3   OH2 7297   5.240   1.201   2.006
 2451TIP3    H1 7298   5.171   1.192   1.941
 2451TIP3    H2 7299   5.320   1.214   1.956
 2452TIP3   OH2 7300   1.084   6.614   4.897
 2452TIP3    H1 7301   1.017   6.549   4.876
 2452TIP3    H2 7302   1.148   6.607   4.826
 2453TIP3   OH2 7303   6.242   4.218   1.424
 2453TIP3    H1 7304   6.298   4.292   1.402
 2453TIP3    H2 7305   6.173   4.220   1.358
 2454TIP3   OH2 7306   1.773   2.803   5.677
 2454TIP3    H1 7307   1.823   2.747   5.737
 2454TIP3    H2 7308   1.716   2.742   5.629
 2455TIP3   OH2 7309   4.921   1.313   2.378
 2455TIP3    H1 7310   4.855   1.381   2.391
 2455TIP3    H2 7311   4.873   1.237   2.345
 2456TIP3   OH2 7312   2.176   0.994   0.143
 2456TIP3    H1 7313   2.109   0.932   0.116
 2456TIP3    H2 7314   2.174   0.993   0.238
 2457TIP3   OH2 7315   3.839   2.212   1.719
 2457TIP3    H1 7316   3.909   2.157   1.754
 2457TIP3    H2 7317   3.762   2.155   1.722
 2458TIP3   OH2 7318   5.008   6.393   4.841
 2458TIP3    H1 7319   5.048   6.460   4.786
 2458TIP3    H2 7320   5.052   6.312   4.816
 2459TIP3   OH2 7321   7.425   5.258   1.354
 2459TIP3    H1 7322   7.502   5.274   1.299
 2459TIP3    H2 7323   7.428   5.164   1.371
 2460TIP3   OH2 7324   0.346   5.946   1.809
 2460TIP3    H1 7325   0.429   5.977   1.845
 2460TIP3    H2 7326   0.346   5.974   1.718
 2461TIP3   OH2 7327   2.645   3.485   3.255
 2461TIP3    H1 7328   2.666   3.391   3.250
 2461TIP3    H2 7329   2.580   3.491   3.326
 2462TIP3   OH2 7330   3.261   4.787   3.463
 2462TIP3    H1 7331   3.242   4.698   3.433
 2462TIP3    H2 7332   3.176   4.829   3.467
 2463TIP3   OH2 7333   3.092   2.463   2.409
 2463TIP3    H1 7334   3.057   2.382   2.372
 2463TIP3    H2 7335   3.016   2.520   2.418
 2464TIP3   OH2 7336   5.381   5.721   4.264
 2464TIP3    H1 7337   5.474   5.702   4.274
 2464TIP3    H2 7338   5.340   5.636   4.254
 2465TIP3   OH2 7339   6.048   7.357   2.214
 2465TIP3    H1 7340   6.114   7.371   2.282
 2465TIP3    H2 7341   6.098   7.328   2.138
 2466TIP3   OH2 7342   5.489   0.317   3.390
 2466TIP3    H1 7343   5.480   0.412   3.403
 2466TIP3    H2 7344   5.554   0.309   3.320
 2467TIP3   OH2 7345   1.581   3.167   5.967
 2467TIP3    H1 7346   1.656   3.220   5.940
 2467TIP3    H2 7347   1.614   3.077   5.966
 2468TIP3   OH2 7348   6.939   6.951   2.229
 2468TIP3    H1 7349   6.961   6.917   2.142
 2468TIP3    H2 7350   6.850   6.921   2.245
 2469TIP3   OH2 7351   7.636   1.014   5.955
 2469TIP3    H1 7352   7.593   1.056   6.029
 2469TIP3    H2 7353   7.572   0.952   5.920
 2470TIP3   OH2 7354   1.658   3.331   6.672
 2470TIP3    H1 7355   1.599   3.260   6.695
 2470TIP3    H2 7356   1.653   3.392   6.746
 2471TIP3   OH2 7357   3.846   2.043   6.343
 2471TIP3    H1 7358   3.811   2.064   6.256
 2471TIP3    H2 7359   3.890   1.959   6.332
 2472TIP3   OH2 7360   2.002   7.299   6.134
 2472TIP3    H1 7361   1.958   7.260   6.210
 2472TIP3    H2 7362   1.953   7.266   6.059
 2473TIP3   OH2 7363   1.791   0.292   2.434
 2473TIP3    H1 7364   1.862   0.243   2.393
 2473TIP3    H2 7365   1.825   0.314   2.521
 2474TIP3   OH2 7366   4.988   0.942   5.830
 2474TIP3    H1 7367   4.916   0.886   5.861
 2474TIP3    H2 7368   5.027   0.977   5.909
 2475TIP3   OH2 7369   7.908   3.340   1.890
 2475TIP3    H1 7370   7.917   3.301   1.803
 2475TIP3    H2 7371   7.884   3.266   1.947
 2476TIP3   OH2 7372   1.949   5.410   2.789
 2476TIP3    H1 7373   2.043   5.430   2.788
 2476TIP3    H2 7374   1.930   5.377   2.702
 2477TIP3   OH2 7375   0.829   5.864   4.177
 2477TIP3    H1 7376   0.887   5.798   4.215
 2477TIP3    H2 7377   0.849   5.944   4.226
 2478TIP3   OH2 7378   6.476   2.135   6.773
 2478TIP3    H1 7379   6.386   2.108   6.792
 2478TIP3    H2 7380   6.486   2.220   6.815
 2479TIP3   OH2 7381   4.869   4.110   3.592
 2479TIP3    H1 7382   4.839   4.112   3.501
 2479TIP3    H2 7383   4.801   4.062   3.638
 2480TIP3   OH2 7384   0.616   3.125   6.648
 2480TIP3    H1 7385   0.549   3.193   6.651
 2480TIP3    H2 7386   0.678   3.149   6.717
 2481TIP3   OH2 7387   2.575   2.504   3.518
 2481TIP3    H1 7388   2.505   2.463   3.468
 2481TIP3    H2 7389   2.599   2.439   3.584
 2482TIP3   OH2 7390   1.268   4.134   0.307
 2482TIP3    H1 7391   1.247   4.141   0.214
 2482TIP3    H2 7392   1.350   4.084   0.310
 2483TIP3   OH2 7393   6.171   3.190   2.265
 2483TIP3    H1 7394   6.189   3.141   2.185
 2483TIP3    H2 7395   6.183   3.281   2.241
 2484TIP3   OH2 7396   5.340   0.714   6.290
 2484TIP3    H1 7397   5.378   0.686   6.207
 2484TIP3    H2 7398   5.323   0.633   6.338
 2485TIP3   OH2 7399   5.890   1.470   0.429
 2485TIP3    H1 7400   5.807   1.511   0.454
 2485TIP3    H2 7401   5.939   1.463   0.511
 2486TIP3   OH2 7402   1.616   3.153   6.271
 2486TIP3    H1 7403   1.617   3.166   6.177
 2486TIP3    H2 7404   1.580   3.234   6.307
 2487TIP3   OH2 7405   5.481   1.533   3.967
 2487TIP3    H1 7406   5.409   1.512   3.907
 2487TIP3    H2 7407   5.498   1.626   3.951
 2488TIP3   OH2 7408   0.421   6.229   4.583
 2488TIP3    H1 7409   0.358   6.254   4.650
 2488TIP3    H2 7410   0.387   6.269   4.503
 2489TIP3   OH2 7411   2.570   3.279   5.606
 2489TIP3    H1 7412   2.578   3.208   5.669
 2489TIP3    H2 7413   2.496   3.332   5.637
 2490TIP3   OH2 7414   7.332   0.899   3.044
 2490TIP3    H1 7415   7.323   0.845   3.122
 2490TIP3    H2 7416   7.243   0.910   3.011
 2491TIP3   OH2 7417   5.186   6.059   6.711
 2491TIP3    H1 7418   5.270   6.013   6.708
 2491TIP3    H2 7419   5.125   5.995   6.749
 2492TIP3   OH2 7420   7.515   1.606   0.879
 2492TIP3    H1 7421   7.419   1.608   0.875
 2492TIP3    H2 7422   7.535   1.579   0.969
 2493TIP3   OH2 7423   1.115   0.977   5.765
 2493TIP3    H1 7424   1.113   1.039   5.692
 2493TIP3    H2 7425   1.121   0.891   5.723
 2494TIP3   OH2 7426   6.360   6.951   1.000
 2494TIP3    H1 7427   6.428   6.996   1.049
 2494TIP3    H2 7428   6.295   6.926   1.066
 2495TIP3   OH2 7429   0.540   6.265   3.185
 2495TIP3    H1 7430   0.607   6.198   3.192
 2495TIP3    H2 7431   0.491   6.242   3.106
 2496TIP3   OH2 7432   2.453   2.068   2.220
 2496TIP3    H1 7433   2.394   2.125   2.170
 2496TIP3    H2 7434   2.520   2.042   2.157
 2497TIP3   OH2 7435   7.709   7.518   2.162
 2497TIP3    H1 7436   7.750   7.465   2.230
 2497TIP3    H2 7437   7.770   7.591   2.148
 2498TIP3   OH2 7438   6.924   4.512   5.425
 2498TIP3    H1 7439   6.920   4.607   5.424
 2498TIP3    H2 7440   6.928   4.487   5.332
 2499TIP3   OH2 7441   0.047   0.132   5.749
 2499TIP3    H1 7442  -0.021   0.124   5.816
 2499TIP3    H2 7443   0.104   0.057   5.765
 2500TIP3   OH2 7444   5.548   6.505   3.638
 2500TIP3    H1 7445   5.470   6.450   3.639
 2500TIP3    H2 7446   5.514   6.594   3.652
 2501TIP3   OH2 7447   2.639   0.551   4.392
 2501TIP3    H1 7448   2.568   0.580   4.449
 2501TIP3    H2 7449   2.613   0.581   4.305
 2502TIP3   OH2 7450   2.392   3.635   5.811
 2502TIP3    H1 7451   2.424   3.714   5.768
 2502TIP3    H2 7452   2.391   3.569   5.741
 2503TIP3   OH2 7453   7.278   4.065   3.059
 2503TIP3    H1 7454   7.233   4.146   3.036
 2503TIP3    H2 7455   7.301   4.025   2.975
 2504TIP3   OH2 7456   2.471   4.895   4.046
 2504TIP3    H1 7457   2.546   4.845   4.012
 2504TIP3    H2 7458   2.403   4.885   3.980
 2505TIP3   OH2 7459   0.039   3.477   2.429
 2505TIP3    H1 7460  -0.048   3.446   2.404
 2505TIP3    H2 7461   0.057   3.436   2.513
 2506TIP3   OH2 7462   6.242   7.443   2.387
 2506TIP3    H1 7463   6.295   7.376   2.344
 2506TIP3    H2 7464   6.252   7.426   2.480
 2507TIP3   OH2 7465   2.709   0.865   1.724
 2507TIP3    H1 7466   2.624   0.908   1.728
 2507TIP3    H2 7467   2.702   0.803   1.652
 2508TIP3   OH2 7468   0.531   7.734   1.839
 2508TIP3    H1 7469   0.446   7.769   1.866
 2508TIP3    H2 7470   0.544   7.767   1.750
 2509TIP3   OH2 7471   5.137   6.601   0.246
 2509TIP3    H1 7472   5.123   6.696   0.235
 2509TIP3    H2 7473   5.161   6.591   0.338
 2510TIP3   OH2 7474   1.653   6.702   5.448
 2510TIP3    H1 7475   1.595   6.741   5.514
 2510TIP3    H2 7476   1.717   6.653   5.499
 2511TIP3   OH2 7477   6.203   4.501   1.066
 2511TIP3    H1 7478   6.108   4.493   1.076
 2511TIP3    H2 7479   6.214   4.584   1.020
 2512TIP3   OH2 7480   3.642   4.735   2.148
 2512TIP3    H1 7481   3.710   4.772   2.092
 2512TIP3    H2 7482   3.686   4.667   2.199
 2513TIP3   OH2 7483   1.604   7.068   3.727
 2513TIP3    H1 7484   1.645   7.066   3.640
 2513TIP3    H2 7485   1.519   7.109   3.711
 2514TIP3   OH2 7486   4.564   4.690   1.988
 2514TIP3    H1 7487   4.512   4.679   2.067
 2514TIP3    H2 7488   4.606   4.605   1.975
 2515TIP3   OH2 7489   4.938   4.372   3.644
 2515TIP3    H1 7490   4.894   4.287   3.640
 2515TIP3    H2 7491   4.993   4.375   3.566
 2516TIP3   OH2 7492   5.906   3.134   4.287
 2516TIP3    H1 7493   5.973   3.148   4.353
 2516TIP3    H2 7494   5.824   3.157   4.330
 2517TIP3   OH2 7495   1.452   6.655   3.478
 2517TIP3    H1 7496   1.524   6.595   3.456
 2517TIP3    H2 7497   1.492   6.742   3.480
 2518TIP3   OH2 7498   2.856   4.973   0.595
 2518TIP3    H1 7499   2.767   4.957   0.627
 2518TIP3    H2 7500   2.907   4.900   0.630
 2519TIP3   OH2 7501   5.306   4.124   6.412
 2519TIP3    H1 7502   5.319   4.029   6.405
 2519TIP3    H2 7503   5.214   4.134   6.433
 2520TIP3   OH2 7504   5.654   5.979   3.307
 2520TIP3    H1 7505   5.646   5.969   3.402
 2520TIP3    H2 7506   5.682   5.893   3.276
 2521TIP3   OH2 7507   5.649   2.850   0.686
 2521TIP3    H1 7508   5.623   2.788   0.754
 2521TIP3    H2 7509   5.630   2.806   0.604
 2522TIP3   OH2 7510   8.080   1.303   2.381
 2522TIP3    H1 7511   8.154   1.348   2.421
 2522TIP3    H2 7512   8.004   1.358   2.404
 2523TIP3   OH2 7513   6.961   2.704   5.765
 2523TIP3    H1 7514   7.001   2.678   5.848
 2523TIP3    H2 7515   6.971   2.799   5.761
 2524TIP3   OH2 7516   2.277   0.889   5.076
 2524TIP3    H1 7517   2.188   0.919   5.056
 2524TIP3    H2 7518   2.283   0.894   5.172
 2525TIP3   OH2 7519   5.170   7.334   4.107
 2525TIP3    H1 7520   5.151   7.396   4.037
 2525TIP3    H2 7521   5.187   7.251   4.062
 2526TIP3   OH2 7522   6.282   4.183   1.100
 2526TIP3    H1 7523   6.242   4.268   1.085
 2526TIP3    H2 7524   6.294   4.146   1.013
 2527TIP3   OH2 7525   8.145   2.300   4.119
 2527TIP3    H1 7526   8.119   2.278   4.209
 2527TIP3    H2 7527   8.241   2.293   4.119
 2528TIP3   OH2 7528   0.269   1.775   3.931
 2528TIP3    H1 7529   0.199   1.787   3.867
 2528TIP3    H2 7530   0.226   1.786   4.016
 2529TIP3   OH2 7531   7.588   4.263   5.830
 2529TIP3    H1 7532   7.592   4.187   5.888
 2529TIP3    H2 7533   7.677   4.300   5.834
 2530TIP3   OH2 7534   1.207   7.457   1.909
 2530TIP3    H1 7535   1.298   7.429   1.897
 2530TIP3    H2 7536   1.189   7.439   2.001
 2531TIP3   OH2 7537   5.270   0.115   0.061
 2531TIP3    H1 7538   5.207   0.182   0.035
 2531TIP3    H2 7539   5.317   0.152   0.136
 2532TIP3   OH2 7540   5.683   6.827   0.110
 2532TIP3    H1 7541   5.636   6.785   0.038
 2532TIP3    H2 7542   5.616   6.838   0.178
 2533TIP3   OH2 7543   3.982   5.087   0.101
 2533TIP3    H1 7544   3.984   5.028   0.176
 2533TIP3    H2 7545   4.018   5.036   0.028
 2534TIP3   OH2 7546   7.893   3.824   6.741
 2534TIP3    H1 7547   7.962   3.877   6.780
 2534TIP3    H2 7548   7.924   3.733   6.751
 2535TIP3   OH2 7549   0.811   5.541   0.693
 2535TIP3    H1 7550   0.765   5.466   0.731
 2535TIP3    H2 7551   0.761   5.562   0.614
 2536TIP3   OH2 7552   0.732   1.702   2.375
 2536TIP3    H1 7553   0.795   1.771   2.394
 2536TIP3    H2 7554   0.779   1.621   2.392
 2537TIP3   OH2 7555   6.966   2.960   5.873
 2537TIP3    H1 7556   6.963   2.911   5.955
 2537TIP3    H2 7557   7.011   3.041   5.895
 2538TIP3   OH2 7558   1.144   3.052   2.932
 2538TIP3    H1 7559   1.101   3.127   2.974
 2538TIP3    H2 7560   1.159   2.990   3.003
 2539TIP3   OH2 7561   1.328   6.090   0.557
 2539TIP3    H1 7562   1.257   6.143   0.522
 2539TIP3    H2 7563   1.303   6.073   0.647
 2540TIP3   OH2 7564   4.754   6.317   0.707
 2540TIP3    H1 7565   4.815   6.287   0.640
 2540TIP3    H2 7566   4.728   6.237   0.753
 2541TIP3   OH2 7567   1.070   6.665   0.575
 2541TIP3    H1 7568   1.070   6.587   0.520
 2541TIP3    H2 7569   1.033   6.734   0.520
 2542TIP3   OH2 7570   1.707   4.477   0.456
 2542TIP3    H1 7571   1.773   4.545   0.441
 2542TIP3    H2 7572   1.726   4.410   0.389
 2543TIP3   OH2 7573   5.707   0.523   1.481
 2543TIP3    H1 7574   5.668   0.579   1.414
 2543TIP3    H2 7575   5.653   0.444   1.481
 2544TIP3   OH2 7576   7.531   2.850   3.298
 2544TIP3    H1 7577   7.495   2.906   3.229
 2544TIP3    H2 7578   7.566   2.910   3.363
 2545TIP3   OH2 7579   2.824   6.765   3.233
 2545TIP3    H1 7580   2.854   6.677   3.213
 2545TIP3    H2 7581   2.876   6.822   3.175
 2546TIP3   OH2 7582   7.026   2.758   1.744
 2546TIP3    H1 7583   7.042   2.782   1.835
 2546TIP3    H2 7584   6.986   2.836   1.705
 2547TIP3   OH2 7585   5.656   2.396   1.415
 2547TIP3    H1 7586   5.670   2.310   1.455
 2547TIP3    H2 7587   5.711   2.395   1.337
 2548TIP3   OH2 7588   5.422   5.805   5.004
 2548TIP3    H1 7589   5.367   5.749   5.059
 2548TIP3    H2 7590   5.495   5.749   4.978
 2549TIP3   OH2 7591   3.216   5.409   2.697
 2549TIP3    H1 7592   3.181   5.326   2.664
 2549TIP3    H2 7593   3.171   5.423   2.780
 2550TIP3   OH2 7594   7.012   1.707   6.583
 2550TIP3    H1 7595   7.094   1.741   6.616
 2550TIP3    H2 7596   6.995   1.757   6.503
 2551TIP3   OH2 7597   4.398   5.321   5.295
 2551TIP3    H1 7598   4.402   5.384   5.367
 2551TIP3    H2 7599   4.305   5.316   5.273
 2552TIP3   OH2 7600   7.269   0.977   1.272
 2552TIP3    H1 7601   7.271   1.000   1.180
 2552TIP3    H2 7602   7.326   1.041   1.315
 2553TIP3   OH2 7603   6.729   1.601   4.171
 2553TIP3    H1 7604   6.779   1.673   4.209
 2553TIP3    H2 7605   6.777   1.522   4.195
 2554TIP3   OH2 7606   0.189   7.710   4.038
 2554TIP3    H1 7607   0.150   7.758   4.111
 2554TIP3    H2 7608   0.277   7.745   4.030
 2555TIP3   OH2 7609   7.168   1.822   5.513
 2555TIP3    H1 7610   7.238   1.886   5.523
 2555TIP3    H2 7611   7.210   1.747   5.471
 2556TIP3   OH2 7612   7.610   1.733   5.255
 2556TIP3    H1 7613   7.527   1.692   5.233
 2556TIP3    H2 7614   7.599   1.825   5.230
 2557TIP3   OH2 7615   0.907   1.495   2.439
 2557TIP3    H1 7616   0.995   1.533   2.433
 2557TIP3    H2 7617   0.897   1.470   2.530
 2558TIP3   OH2 7618   2.421   5.438   0.774
 2558TIP3    H1 7619   2.334   5.470   0.749
 2558TIP3    H2 7620   2.474   5.516   0.786
 2559TIP3   OH2 7621   7.163   1.234   4.462
 2559TIP3    H1 7622   7.130   1.324   4.457
 2559TIP3    H2 7623   7.113   1.187   4.395
 2560TIP3   OH2 7624   2.336   3.879   1.266
 2560TIP3    H1 7625   2.416   3.881   1.319
 2560TIP3    H2 7626   2.359   3.927   1.186
 2561TIP3   OH2 7627   5.392   4.816   2.374
 2561TIP3    H1 7628   5.427   4.770   2.297
 2561TIP3    H2 7629   5.426   4.767   2.449
 2562TIP3   OH2 7630   5.288   7.273   6.245
 2562TIP3    H1 7631   5.329   7.210   6.304
 2562TIP3    H2 7632   5.309   7.358   6.283
 2563TIP3   OH2 7633   1.957   4.586   5.824
 2563TIP3    H1 7634   1.904   4.599   5.745
 2563TIP3    H2 7635   1.904   4.621   5.895
 2564TIP3   OH2 7636   1.908   3.976   4.551
 2564TIP3    H1 7637   1.952   4.060   4.549
 2564TIP3    H2 7638   1.975   3.913   4.525
 2565TIP3   OH2 7639   3.862   3.979   2.340
 2565TIP3    H1 7640   3.908   4.059   2.367
 2565TIP3    H2 7641   3.868   3.921   2.416
 2566TIP3   OH2 7642   2.983   2.133   1.796
 2566TIP3    H1 7643   2.985   2.179   1.713
 2566TIP3    H2 7644   3.075   2.123   1.820
 2567TIP3   OH2 7645   6.855   6.873   4.377
 2567TIP3    H1 7646   6.821   6.849   4.463
 2567TIP3    H2 7647   6.778   6.882   4.321
 2568TIP3   OH2 7648   3.697   7.566   0.869
 2568TIP3    H1 7649   3.773   7.623   0.857
 2568TIP3    H2 7650   3.632   7.599   0.806
 2569TIP3   OH2 7651   0.804   6.883   6.033
 2569TIP3    H1 7652   0.719   6.884   6.077
 2569TIP3    H2 7653   0.824   6.976   6.018
 2570TIP3   OH2 7654   1.054   5.373   0.090
 2570TIP3    H1 7655   1.125   5.432   0.064
 2570TIP3    H2 7656   0.975   5.417   0.060
 2571TIP3   OH2 7657   0.417   4.720   5.909
 2571TIP3    H1 7658   0.502   4.754   5.881
 2571TIP3    H2 7659   0.361   4.798   5.916
 2572TIP3   OH2 7660   3.136   1.454   0.168
 2572TIP3    H1 7661   3.155   1.442   0.261
 2572TIP3    H2 7662   3.045   1.426   0.158
 2573TIP3   OH2 7663   3.927   5.212   1.079
 2573TIP3    H1 7664   3.922   5.283   1.143
 2573TIP3    H2 7665   3.942   5.133   1.131
 2574TIP3   OH2 7666   3.869   4.611   0.342
 2574TIP3    H1 7667   3.847   4.561   0.421
 2574TIP3    H2 7668   3.791   4.664   0.325
 2575TIP3   OH2 7669   6.327   1.733   1.353
 2575TIP3    H1 7670   6.421   1.751   1.344
 2575TIP3    H2 7671   6.301   1.699   1.267
 2576TIP3   OH2 7672   1.329   3.353   6.284
 2576TIP3    H1 7673   1.416   3.372   6.320
 2576TIP3    H2 7674   1.283   3.310   6.356
 2577TIP3   OH2 7675   7.000   7.013   1.200
 2577TIP3    H1 7676   6.924   7.071   1.202
 2577TIP3    H2 7677   6.990   6.963   1.120
 2578TIP3   OH2 7678   5.799   4.462   6.576
 2578TIP3    H1 7679   5.871   4.525   6.577
 2578TIP3    H2 7680   5.723   4.512   6.605
 2579TIP3   OH2 7681   0.652   3.300   0.185
 2579TIP3    H1 7682   0.715   3.270   0.251
 2579TIP3    H2 7683   0.625   3.219   0.140
 2580TIP3   OH2 7684   5.105   6.654   4.719
 2580TIP3    H1 7685   5.141   6.735   4.682
 2580TIP3    H2 7686   5.071   6.679   4.804
 2581TIP3   OH2 7687   4.609   5.803   3.100
 2581TIP3    H1 7688   4.652   5.727   3.139
 2581TIP3    H2 7689   4.681   5.864   3.081
 2582TIP3   OH2 7690   0.699   5.525   1.004
 2582TIP3    H1 7691   0.789   5.505   0.978
 2582TIP3    H2 7692   0.644   5.479   0.940
 2583TIP3   OH2 7693   6.184   2.279   0.527
 2583TIP3    H1 7694   6.254   2.228   0.486
 2583TIP3    H2 7695   6.157   2.226   0.602
 2584TIP3   OH2 7696   4.766   4.940   5.847
 2584TIP3    H1 7697   4.773   5.023   5.893
 2584TIP3    H2 7698   4.672   4.920   5.849
 2585TIP3   OH2 7699   1.362   7.446   3.470
 2585TIP3    H1 7700   1.334   7.525   3.426
 2585TIP3    H2 7701   1.368   7.380   3.401
 2586TIP3   OH2 7702   2.913   2.473   2.808
 2586TIP3    H1 7703   2.882   2.563   2.819
 2586TIP3    H2 7704   2.918   2.438   2.897
 2587TIP3   OH2 7705   0.385   5.856   0.421
 2587TIP3    H1 7706   0.304   5.810   0.400
 2587TIP3    H2 7707   0.396   5.919   0.350
 2588TIP3   OH2 7708   4.495   6.553   0.318
 2588TIP3    H1 7709   4.528   6.508   0.395
 2588TIP3    H2 7710   4.570   6.603   0.286
 2589TIP3   OH2 7711   0.171   5.933   5.391
 2589TIP3    H1 7712   0.255   5.887   5.393
 2589TIP3    H2 7713   0.189   6.016   5.435
 2590TIP3   OH2 7714   2.279   4.073   3.461
 2590TIP3    H1 7715   2.275   4.161   3.424
 2590TIP3    H2 7716   2.222   4.076   3.538
 2591TIP3   OH2 7717   2.740   3.429   2.048
 2591TIP3    H1 7718   2.748   3.439   2.143
 2591TIP3    H2 7719   2.817   3.378   2.023
 2592TIP3   OH2 7720   4.427   4.256   2.471
 2592TIP3    H1 7721   4.407   4.176   2.422
 2592TIP3    H2 7722   4.343   4.283   2.508
 2593TIP3   OH2 7723   5.547   4.086   1.752
 2593TIP3    H1 7724   5.543   3.999   1.711
 2593TIP3    H2 7725   5.636   4.116   1.736
 2594TIP3   OH2 7726   1.763   0.276   3.892
 2594TIP3    H1 7727   1.729   0.236   3.972
 2594TIP3    H2 7728   1.706   0.245   3.822
 2595TIP3   OH2 7729   3.281   6.675   5.301
 2595TIP3    H1 7730   3.235   6.736   5.244
 2595TIP3    H2 7731   3.291   6.595   5.248
 2596TIP3   OH2 7732   7.073   6.668   0.384
 2596TIP3    H1 7733   7.069   6.677   0.288
 2596TIP3    H2 7734   7.146   6.724   0.410
 2597TIP3   OH2 7735   6.678   7.113   1.836
 2597TIP3    H1 7736   6.762   7.111   1.882
 2597TIP3    H2 7737   6.671   7.202   1.802
 2598TIP3   OH2 7738   0.729   3.985   4.236
 2598TIP3    H1 7739   0.634   3.989   4.230
 2598TIP3    H2 7740   0.753   4.057   4.294
 2599TIP3   OH2 7741   2.236   7.083   4.317
 2599TIP3    H1 7742   2.304   7.046   4.260
 2599TIP3    H2 7743   2.256   7.176   4.322
 2600TIP3   OH2 7744   8.013   6.723   4.051
 2600TIP3    H1 7745   7.948   6.652   4.053
 2600TIP3    H2 7746   7.966   6.797   4.014
 2601TIP3   OH2 7747   4.287   0.865   5.898
 2601TIP3    H1 7748   4.293   0.953   5.860
 2601TIP3    H2 7749   4.196   0.858   5.927
 2602TIP3   OH2 7750   6.575   3.175   4.864
 2602TIP3    H1 7751   6.595   3.236   4.792
 2602TIP3    H2 7752   6.626   3.097   4.844
 2603TIP3   OH2 7753   3.937   5.776   2.492
 2603TIP3    H1 7754   3.983   5.825   2.560
 2603TIP3    H2 7755   4.004   5.717   2.455
 2604TIP3   OH2 7756   0.422   6.641   6.291
 2604TIP3    H1 7757   0.484   6.714   6.295
 2604TIP3    H2 7758   0.476   6.564   6.274
 2605TIP3   OH2 7759   4.891   7.653   5.407
 2605TIP3    H1 7760   4.868   7.561   5.413
 2605TIP3    H2 7761   4.888   7.672   5.313
 2606TIP3   OH2 7762   1.694   5.297   2.931
 2606TIP3    H1 7763   1.773   5.330   2.888
 2606TIP3    H2 7764   1.629   5.365   2.918
 2607TIP3   OH2 7765   0.662   3.255   1.501
 2607TIP3    H1 7766   0.580   3.284   1.541
 2607TIP3    H2 7767   0.718   3.233   1.575
 2608TIP3   OH2 7768   5.680   2.919   4.305
 2608TIP3    H1 7769   5.746   2.927   4.374
 2608TIP3    H2 7770   5.599   2.898   4.352
 2609TIP3   OH2 7771   4.989   7.024   1.819
 2609TIP3    H1 7772   5.072   7.058   1.786
 2609TIP3    H2 7773   4.969   6.949   1.763
 2610TIP3   OH2 7774   4.602   5.722   0.537
 2610TIP3    H1 7775   4.561   5.707   0.451
 2610TIP3    H2 7776   4.548   5.673   0.598
 2611TIP3   OH2 7777   0.181   1.985   6.329
 2611TIP3    H1 7778   0.184   1.917   6.261
 2611TIP3    H2 7779   0.111   2.044   6.300
 2612TIP3   OH2 7780   0.199   7.195   1.809
 2612TIP3    H1 7781   0.159   7.201   1.896
 2612TIP3    H2 7782   0.180   7.279   1.768
 2613TIP3   OH2 7783   1.908   4.836   2.652
 2613TIP3    H1 7784   1.819   4.802   2.663
 2613TIP3    H2 7785   1.952   4.817   2.735
 2614TIP3   OH2 7786   6.750   1.035   4.461
 2614TIP3    H1 7787   6.675   1.036   4.401
 2614TIP3    H2 7788   6.742   1.116   4.511
 2615TIP3   OH2 7789   1.522   5.609   4.106
 2615TIP3    H1 7790   1.480   5.555   4.173
 2615TIP3    H2 7791   1.557   5.545   4.043
 2616TIP3   OH2 7792   3.090   5.746   4.443
 2616TIP3    H1 7793   3.083   5.769   4.350
 2616TIP3    H2 7794   3.023   5.799   4.486
 2617TIP3   OH2 7795   3.244   4.602   1.069
 2617TIP3    H1 7796   3.177   4.534   1.079
 2617TIP3    H2 7797   3.224   4.642   0.984
 2618TIP3   OH2 7798   1.795   5.538   6.596
 2618TIP3    H1 7799   1.784   5.502   6.508
 2618TIP3    H2 7800   1.876   5.498   6.628
 2619TIP3   OH2 7801   0.530   6.918   0.919
 2619TIP3    H1 7802   0.542   6.971   0.998
 2619TIP3    H2 7803   0.559   6.974   0.848
 2620TIP3   OH2 7804   4.587   1.125   6.367
 2620TIP3    H1 7805   4.548   1.058   6.311
 2620TIP3    H2 7806   4.649   1.078   6.422
 2621TIP3   OH2 7807   7.331   6.294   4.893
 2621TIP3    H1 7808   7.332   6.254   4.806
 2621TIP3    H2 7809   7.415   6.271   4.932
 2622TIP3   OH2 7810   7.939   3.997   1.141
 2622TIP3    H1 7811   7.992   4.061   1.094
 2622TIP3    H2 7812   7.863   3.982   1.086
 2623TIP3   OH2 7813   1.402   4.437   5.766
 2623TIP3    H1 7814   1.323   4.467   5.812
 2623TIP3    H2 7815   1.473   4.488   5.806
 2624TIP3   OH2 7816   5.836   0.895   0.046
 2624TIP3    H1 7817   5.788   0.813   0.047
 2624TIP3    H2 7818   5.821   0.932   0.133
 2625TIP3   OH2 7819   1.278   4.890   3.486
 2625TIP3    H1 7820   1.195   4.885   3.437
 2625TIP3    H2 7821   1.251   4.896   3.578
 2626TIP3   OH2 7822   7.635   4.073   4.555
 2626TIP3    H1 7823   7.574   4.099   4.486
 2626TIP3    H2 7824   7.580   4.061   4.633
 2627TIP3   OH2 7825   4.671   6.287   2.687
 2627TIP3    H1 7826   4.687   6.241   2.769
 2627TIP3    H2 7827   4.698   6.377   2.705
 2628TIP3   OH2 7828   5.204   3.407   3.667
 2628TIP3    H1 7829   5.272   3.401   3.600
 2628TIP3    H2 7830   5.210   3.497   3.699
 2629TIP3   OH2 7831   0.796   2.173   6.441
 2629TIP3    H1 7832   0.875   2.161   6.389
 2629TIP3    H2 7833   0.827   2.205   6.526
 2630TIP3   OH2 7834   3.021   4.044   4.688
 2630TIP3    H1 7835   3.051   4.087   4.768
 2630TIP3    H2 7836   3.098   3.996   4.656
 2631TIP3   OH2 7837   1.330   3.884   1.811
 2631TIP3    H1 7838   1.406   3.830   1.788
 2631TIP3    H2 7839   1.257   3.822   1.815
 2632TIP3   OH2 7840   6.914   3.067   5.168
 2632TIP3    H1 7841   6.943   3.151   5.203
 2632TIP3    H2 7842   6.963   3.056   5.087
 2633TIP3   OH2 7843   5.721   7.382   6.609
 2633TIP3    H1 7844   5.787   7.425   6.663
 2633TIP3    H2 7845   5.684   7.452   6.555
 2634TIP3   OH2 7846   3.323   0.663   0.253
 2634TIP3    H1 7847   3.385   0.622   0.313
 2634TIP3    H2 7848   3.302   0.747   0.294
 2635TIP3   OH2 7849   3.352   6.762   2.701
 2635TIP3    H1 7850   3.368   6.686   2.645
 2635TIP3    H2 7851   3.277   6.806   2.662
 2636TIP3   OH2 7852   6.875   4.266   4.810
 2636TIP3    H1 7853   6.959   4.221   4.809
 2636TIP3    H2 7854   6.847   4.265   4.718
 2637TIP3   OH2 7855   1.767   0.165   1.926
 2637TIP3    H1 7856   1.791   0.178   1.834
 2637TIP3    H2 7857   1.685   0.115   1.923
 2638TIP3   OH2 7858   3.917   0.546   5.288
 2638TIP3    H1 7859   3.824   0.540   5.265
 2638TIP3    H2 7860   3.957   0.469   5.246
 2639TIP3   OH2 7861   0.071   0.450   0.439
 2639TIP3    H1 7862   0.134   0.379   0.427
 2639TIP3    H2 7863   0.042   0.472   0.350
 2640TIP3   OH2 7864   6.874   2.549   0.580
 2640TIP3    H1 7865   6.857   2.457   0.600
 2640TIP3    H2 7866   6.933   2.546   0.505
 2641TIP3   OH2 7867   0.559   7.182   0.982
 2641TIP3    H1 7868   0.509   7.197   1.062
 2641TIP3    H2 7869   0.496   7.190   0.911
 2642TIP3   OH2 7870   6.672   3.844   2.082
 2642TIP3    H1 7871   6.747   3.895   2.050
 2642TIP3    H2 7872   6.596   3.887   2.042
 2643TIP3   OH2 7873   0.903   6.958   0.842
 2643TIP3    H1 7874   0.865   7.043   0.821
 2643TIP3    H2 7875   0.865   6.935   0.927
 2644TIP3   OH2 7876   2.464   5.406   4.064
 2644TIP3    H1 7877   2.488   5.370   4.150
 2644TIP3    H2 7878   2.418   5.487   4.084
 2645TIP3   OH2 7879   5.205   4.525   3.903
 2645TIP3    H1 7880   5.204   4.551   3.996
 2645TIP3    H2 7881   5.222   4.607   3.856
 2646TIP3   OH2 7882   4.234   4.674   2.013
 2646TIP3    H1 7883   4.279   4.642   2.092
 2646TIP3    H2 7884   4.303   4.719   1.964
 2647TIP3   OH2 7885   0.311   6.321   5.150
 2647TIP3    H1 7886   0.227   6.314   5.105
 2647TIP3    H2 7887   0.374   6.340   5.080
 2648TIP3   OH2 7888   7.609   3.088   0.421
 2648TIP3    H1 7889   7.670   3.154   0.387
 2648TIP3    H2 7890   7.666   3.019   0.456
 2649TIP3   OH2 7891   7.569   6.517   6.257
 2649TIP3    H1 7892   7.599   6.501   6.347
 2649TIP3    H2 7893   7.649   6.536   6.208
 2650TIP3   OH2 7894   3.426   6.344   5.418
 2650TIP3    H1 7895   3.431   6.385   5.505
 2650TIP3    H2 7896   3.341   6.302   5.417
 2651TIP3   OH2 7897   0.726   2.760   3.279
 2651TIP3    H1 7898   0.703   2.674   3.313
 2651TIP3    H2 7899   0.655   2.817   3.306
 2652TIP3   OH2 7900   8.083   7.312   5.984
 2652TIP3    H1 7901   8.147   7.383   5.993
 2652TIP3    H2 7902   8.064   7.285   6.074
 2653TIP3   OH2 7903   3.013   4.933   5.815
 2653TIP3    H1 7904   3.023   4.838   5.809
 2653TIP3    H2 7905   2.953   4.946   5.889
 2654TIP3   OH2 7906   4.429   3.723   6.027
 2654TIP3    H1 7907   4.456   3.809   5.995
 2654TIP3    H2 7908   4.376   3.742   6.104
 2655TIP3   OH2 7909   6.203   0.899   5.670
 2655TIP3    H1 7910   6.148   0.962   5.715
 2655TIP3    H2 7911   6.142   0.839   5.628
 2656TIP3   OH2 7912   0.627   7.091   3.613
 2656TIP3    H1 7913   0.582   7.091   3.698
 2656TIP3    H2 7914   0.614   7.003   3.579
 2657TIP3   OH2 7915   4.470   0.090   1.312
 2657TIP3    H1 7916   4.436   0.002   1.298
 2657TIP3    H2 7917   4.467   0.102   1.407
 2658TIP3   OH2 7918   1.134   5.050   5.470
 2658TIP3    H1 7919   1.040   5.070   5.476
 2658TIP3    H2 7920   1.140   4.987   5.398
 2659TIP3   OH2 7921   4.951   7.393   3.355
 2659TIP3    H1 7922   4.892   7.365   3.424
 2659TIP3    H2 7923   4.901   7.381   3.274
 2660TIP3   OH2 7924   2.697   5.589   1.117
 2660TIP3    H1 7925   2.768   5.623   1.171
 2660TIP3    H2 7926   2.741   5.554   1.039
 2661TIP3   OH2 7927   4.625   5.594   4.913
 2661TIP3    H1 7928   4.644   5.677   4.868
 2661TIP3    H2 7929   4.532   5.579   4.898
 2662TIP3   OH2 7930   1.575   0.214   1.411
 2662TIP3    H1 7931   1.573   0.160   1.332
 2662TIP3    H2 7932   1.641   0.280   1.393
 2663TIP3   OH2 7933   1.130   3.700   1.778
 2663TIP3    H1 7934   1.069   3.684   1.707
 2663TIP3    H2 7935   1.076   3.705   1.857
 2664TIP3   OH2 7936   4.801   7.291   5.859
 2664TIP3    H1 7937   4.884   7.260   5.821
 2664TIP3    H2 7938   4.785   7.231   5.931
 2665TIP3   OH2 7939   4.245   1.743   4.703
 2665TIP3    H1 7940   4.287   1.670   4.748
 2665TIP3    H2 7941   4.272   1.734   4.611
 2666TIP3   OH2 7942   6.401   2.355   2.727
 2666TIP3    H1 7943   6.466   2.314   2.669
 2666TIP3    H2 7944   6.344   2.282   2.754
 2667TIP3   OH2 7945   5.293   1.615   5.905
 2667TIP3    H1 7946   5.225   1.596   5.840
 2667TIP3    H2 7947   5.323   1.703   5.885
 2668TIP3   OH2 7948   4.663   0.977   5.243
 2668TIP3    H1 7949   4.623   0.923   5.175
 2668TIP3    H2 7950   4.728   1.030   5.198
 2669TIP3   OH2 7951   4.991   3.273   3.581
 2669TIP3    H1 7952   5.054   3.339   3.552
 2669TIP3    H2 7953   4.994   3.205   3.514
 2670TIP3   OH2 7954   4.727   7.643   2.673
 2670TIP3    H1 7955   4.791   7.658   2.604
 2670TIP3    H2 7956   4.651   7.696   2.647
 2671TIP3   OH2 7957   1.578   0.803   1.170
 2671TIP3    H1 7958   1.491   0.761   1.177
 2671TIP3    H2 7959   1.564   0.893   1.199
 2672TIP3   OH2 7960   1.186   1.372   5.038
 2672TIP3    H1 7961   1.244   1.301   5.066
 2672TIP3    H2 7962   1.105   1.358   5.086
 2673TIP3   OH2 7963   2.378   5.932   0.233
 2673TIP3    H1 7964   2.433   5.856   0.252
 2673TIP3    H2 7965   2.300   5.896   0.193
 2674TIP3   OH2 7966   8.102   5.854   3.469
 2674TIP3    H1 7967   8.160   5.802   3.525
 2674TIP3    H2 7968   8.030   5.794   3.449
 2675TIP3   OH2 7969   5.372   2.212   4.851
 2675TIP3    H1 7970   5.375   2.307   4.861
 2675TIP3    H2 7971   5.278   2.191   4.849
 2676TIP3   OH2 7972   7.420   0.634   0.968
 2676TIP3    H1 7973   7.387   0.672   1.049
 2676TIP3    H2 7974   7.403   0.540   0.976
 2677TIP3   OH2 7975   7.221   0.640   2.879
 2677TIP3    H1 7976   7.149   0.639   2.942
 2677TIP3    H2 7977   7.242   0.548   2.864
 2678TIP3   OH2 7978   4.568   3.130   0.253
 2678TIP3    H1 7979   4.591   3.221   0.271
 2678TIP3    H2 7980   4.608   3.112   0.168
 2679TIP3   OH2 7981   7.190   7.337   0.907
 2679TIP3    H1 7982   7.264   7.348   0.847
 2679TIP3    H2 7983   7.114   7.327   0.849
 2680TIP3   OH2 7984   6.779   0.910   4.713
 2680TIP3    H1 7985   6.699   0.857   4.714
 2680TIP3    H2 7986   6.790   0.935   4.621
 2681TIP3   OH2 7987   1.932   1.499   6.393
 2681TIP3    H1 7988   1.837   1.503   6.396
 2681TIP3    H2 7989   1.960   1.589   6.375
 2682TIP3   OH2 7990   4.216   6.852   0.854
 2682TIP3    H1 7991   4.242   6.915   0.788
 2682TIP3    H2 7992   4.127   6.827   0.830
 2683TIP3   OH2 7993   2.661   1.123   0.136
 2683TIP3    H1 7994   2.669   1.146   0.043
 2683TIP3    H2 7995   2.601   1.049   0.137
 2684TIP3   OH2 7996   6.279   4.303   5.942
 2684TIP3    H1 7997   6.272   4.389   5.983
 2684TIP3    H2 7998   6.368   4.300   5.906
 2685TIP3   OH2 7999   5.627   5.390   3.913
 2685TIP3    H1 8000   5.602   5.396   3.821
 2685TIP3    H2 8001   5.547   5.409   3.962
 2686TIP3   OH2 8002   1.742   5.500   2.372
 2686TIP3    H1 8003   1.694   5.505   2.455
 2686TIP3    H2 8004   1.712   5.576   2.322
 2687TIP3   OH2 8005   1.789   3.559   4.074
 2687TIP3    H1 8006   1.825   3.510   4.148
 2687TIP3    H2 8007   1.863   3.610   4.040
 2688TIP3   OH2 8008   1.754   6.441   1.883
 2688TIP3    H1 8009   1.719   6.352   1.874
 2688TIP3    H2 8010   1.745   6.461   1.976
 2689TIP3   OH2 8011   6.979   2.315   0.052
 2689TIP3    H1 8012   6.886   2.297   0.039
 2689TIP3    H2 8013   7.012   2.237   0.095
 2690TIP3   OH2 8014   6.035   0.818   1.779
 2690TIP3    H1 8015   5.953   0.818   1.730
 2690TIP3    H2 8016   6.101   0.848   1.717
 2691TIP3   OH2 8017   4.442   1.793   2.723
 2691TIP3    H1 8018   4.374   1.831   2.779
 2691TIP3    H2 8019   4.403   1.711   2.691
 2692TIP3   OH2 8020   1.932   6.038   5.313
 2692TIP3    H1 8021   2.026   6.026   5.299
 2692TIP3    H2 8022   1.892   6.012   5.230
 2693TIP3   OH2 8023   7.682   7.103   4.802
 2693TIP3    H1 8024   7.593   7.138   4.807
 2693TIP3    H2 8025   7.737   7.175   4.833
 2694TIP3   OH2 8026   3.603   2.772   3.555
 2694TIP3    H1 8027   3.567   2.739   3.472
 2694TIP3    H2 8028   3.623   2.864   3.537
 2695TIP3   OH2 8029   6.848   0.835   6.602
 2695TIP3    H1 8030   6.851   0.841   6.697
 2695TIP3    H2 8031   6.772   0.887   6.576
 2696TIP3   OH2 8032   6.953   1.638   5.260
 2696TIP3    H1 8033   6.940   1.544   5.244
 2696TIP3    H2 8034   6.910   1.653   5.345
 2697TIP3   OH2 8035   4.998   7.158   1.000
 2697TIP3    H1 8036   5.007   7.188   1.091
 2697TIP3    H2 8037   4.921   7.102   1.001
 2698TIP3   OH2 8038   0.187   7.698   5.421
 2698TIP3    H1 8039   0.096   7.676   5.442
 2698TIP3    H2 8040   0.197   7.672   5.329
 2699TIP3   OH2 8041   6.966   3.056   0.256
 2699TIP3    H1 8042   6.915   2.977   0.273
 2699TIP3    H2 8043   7.028   3.060   0.329
 2700TIP3   OH2 8044   0.263   3.093   1.421
 2700TIP3    H1 8045   0.223   3.156   1.482
 2700TIP3    H2 8046   0.303   3.027   1.478
 2701TIP3   OH2 8047   2.603   1.736   6.433
 2701TIP3    H1 8048   2.546   1.733   6.509
 2701TIP3    H2 8049   2.686   1.768   6.466
 2702TIP3   OH2 8050   5.710   7.290   0.716
 2702TIP3    H1 8051   5.673   7.204   0.734
 2702TIP3    H2 8052   5.672   7.347   0.784
 2703TIP3   OH2 8053   2.730   3.469   2.310
 2703TIP3    H1 8054   2.702   3.545   2.361
 2703TIP3    H2 8055   2.769   3.409   2.374
 2704TIP3   OH2 8056   2.295   1.265   3.950
 2704TIP3    H1 8057   2.290   1.301   4.038
 2704TIP3    H2 8058   2.388   1.270   3.927
 2705TIP3   OH2 8059   3.336   0.890   0.422
 2705TIP3    H1 8060   3.382   0.973   0.413
 2705TIP3    H2 8061   3.361   0.858   0.508
 2706TIP3   OH2 8062   7.929   2.485   4.636
 2706TIP3    H1 8063   7.981   2.465   4.714
 2706TIP3    H2 8064   7.846   2.517   4.669
 2707TIP3   OH2 8065   3.963   0.029  -0.018
 2707TIP3    H1 8066   3.945   0.052  -0.109
 2707TIP3    H2 8067   3.880   0.040   0.027
 2708TIP3   OH2 8068   4.349   1.541   1.914
 2708TIP3    H1 8069   4.331   1.448   1.931
 2708TIP3    H2 8070   4.436   1.555   1.949
 2709TIP3   OH2 8071   7.191   5.319   5.464
 2709TIP3    H1 8072   7.162   5.393   5.517
 2709TIP3    H2 8073   7.128   5.314   5.393
 2710TIP3   OH2 8074   7.519   2.872   4.484
 2710TIP3    H1 8075   7.595   2.910   4.441
 2710TIP3    H2 8076   7.481   2.814   4.418
 2711TIP3   OH2 8077   3.094   1.292   2.954
 2711TIP3    H1 8078   3.121   1.370   3.002
 2711TIP3    H2 8079   3.001   1.282   2.976
 2712TIP3   OH2 8080   5.747   3.314   4.560
 2712TIP3    H1 8081   5.819   3.262   4.594
 2712TIP3    H2 8082   5.773   3.405   4.576
 2713TIP3   OH2 8083   5.501   3.859   3.232
 2713TIP3    H1 8084   5.440   3.924   3.265
 2713TIP3    H2 8085   5.507   3.794   3.302
 2714TIP3   OH2 8086   3.678   3.062   3.900
 2714TIP3    H1 8087   3.754   3.043   3.955
 2714TIP3    H2 8088   3.691   3.008   3.822
 2715TIP3   OH2 8089   4.203   4.976   5.854
 2715TIP3    H1 8090   4.202   4.930   5.771
 2715TIP3    H2 8091   4.110   4.986   5.878
 2716TIP3   OH2 8092   1.881   1.660   1.235
 2716TIP3    H1 8093   1.936   1.738   1.226
 2716TIP3    H2 8094   1.820   1.665   1.162
 2717TIP3   OH2 8095   2.801   7.492   0.382
 2717TIP3    H1 8096   2.786   7.542   0.302
 2717TIP3    H2 8097   2.739   7.419   0.377
 2718TIP3   OH2 8098   2.871   4.013   6.439
 2718TIP3    H1 8099   2.947   3.958   6.419
 2718TIP3    H2 8100   2.907   4.101   6.447
 2719TIP3   OH2 8101   3.081   3.239   3.407
 2719TIP3    H1 8102   3.151   3.175   3.398
 2719TIP3    H2 8103   3.003   3.187   3.426
 2720TIP3   OH2 8104   8.189   6.100   3.497
 2720TIP3    H1 8105   8.174   6.006   3.502
 2720TIP3    H2 8106   8.163   6.124   3.407
 2721TIP3   OH2 8107   0.043   3.143   4.133
 2721TIP3    H1 8108   0.118   3.126   4.189
 2721TIP3    H2 8109  -0.032   3.146   4.193
 2722TIP3   OH2 8110   7.245   4.421   0.764
 2722TIP3    H1 8111   7.319   4.442   0.707
 2722TIP3    H2 8112   7.168   4.441   0.711
 2723TIP3   OH2 8113   6.872   5.086   0.175
 2723TIP3    H1 8114   6.891   5.015   0.236
 2723TIP3    H2 8115   6.955   5.102   0.130
 2724TIP3   OH2 8116   4.235   4.317   0.838
 2724TIP3    H1 8117   4.201   4.372   0.909
 2724TIP3    H2 8118   4.329   4.332   0.838
 2725TIP3   OH2 8119   6.296   1.717   3.908
 2725TIP3    H1 8120   6.366   1.726   3.973
 2725TIP3    H2 8121   6.338   1.675   3.833
 2726TIP3   OH2 8122   4.030   6.784   3.178
 2726TIP3    H1 8123   3.964   6.811   3.242
 2726TIP3    H2 8124   4.024   6.848   3.108
 2727TIP3   OH2 8125   5.119   5.000   5.442
 2727TIP3    H1 8126   5.056   4.992   5.513
 2727TIP3    H2 8127   5.084   4.947   5.371
 2728TIP3   OH2 8128   2.443   2.555   0.965
 2728TIP3    H1 8129   2.515   2.582   0.908
 2728TIP3    H2 8130   2.454   2.608   1.043
 2729TIP3   OH2 8131   4.992   3.366   4.247
 2729TIP3    H1 8132   4.975   3.431   4.315
 2729TIP3    H2 8133   4.946   3.288   4.277
 2730TIP3   OH2 8134   1.006   6.209   5.018
 2730TIP3    H1 8135   1.034   6.176   4.933
 2730TIP3    H2 8136   1.047   6.151   5.082
 2731TIP3   OH2 8137   1.587   3.119   0.467
 2731TIP3    H1 8138   1.554   3.030   0.472
 2731TIP3    H2 8139   1.642   3.120   0.389
 2732TIP3   OH2 8140   3.085   3.914   5.820
 2732TIP3    H1 8141   3.175   3.883   5.834
 2732TIP3    H2 8142   3.058   3.872   5.738
 2733TIP3   OH2 8143   4.348   1.890   3.335
 2733TIP3    H1 8144   4.437   1.886   3.299
 2733TIP3    H2 8145   4.307   1.808   3.307
 2734TIP3   OH2 8146   1.747   5.310   6.023
 2734TIP3    H1 8147   1.831   5.287   5.983
 2734TIP3    H2 8148   1.702   5.226   6.034
 2735TIP3   OH2 8149   4.508   0.765   1.941
 2735TIP3    H1 8150   4.447   0.827   1.903
 2735TIP3    H2 8151   4.559   0.817   2.004
 2736TIP3   OH2 8152   3.169   6.790   4.820
 2736TIP3    H1 8153   3.086   6.745   4.810
 2736TIP3    H2 8154   3.145   6.883   4.827
 2737TIP3   OH2 8155   4.767   5.153   6.041
 2737TIP3    H1 8156   4.835   5.215   6.017
 2737TIP3    H2 8157   4.747   5.174   6.133
 2738TIP3   OH2 8158   3.126   1.282   2.657
 2738TIP3    H1 8159   3.044   1.234   2.667
 2738TIP3    H2 8160   3.128   1.343   2.731
 2739TIP3   OH2 8161   6.458   1.766   2.938
 2739TIP3    H1 8162   6.462   1.779   2.844
 2739TIP3    H2 8163   6.454   1.671   2.949
 2740TIP3   OH2 8164   4.204   0.725   2.123
 2740TIP3    H1 8165   4.198   0.667   2.199
 2740TIP3    H2 8166   4.124   0.777   2.126
 2741TIP3   OH2 8167   8.276   6.274   6.278
 2741TIP3    H1 8168   8.238   6.317   6.201
 2741TIP3    H2 8169   8.256   6.181   6.266
 2742TIP3   OH2 8170   5.702   5.006   2.481
 2742TIP3    H1 8171   5.736   5.068   2.545
 2742TIP3    H2 8172   5.611   5.031   2.467
 2743TIP3   OH2 8173   4.729   7.438   0.008
 2743TIP3    H1 8174   4.825   7.437   0.012
 2743TIP3    H2 8175   4.703   7.500   0.076
 2744TIP3   OH2 8176   2.463   1.824   4.272
 2744TIP3    H1 8177   2.449   1.841   4.179
 2744TIP3    H2 8178   2.388   1.867   4.315
 2745TIP3   OH2 8179   8.180   7.586   2.246
 2745TIP3    H1 8180   8.217   7.665   2.206
 2745TIP3    H2 8181   8.196   7.597   2.340
 2746TIP3   OH2 8182   4.951   5.522   4.928
 2746TIP3    H1 8183   4.910   5.608   4.924
 2746TIP3    H2 8184   4.940   5.494   5.019
 2747TIP3   OH2 8185   1.943   5.845   6.684
 2747TIP3    H1 8186   1.997   5.894   6.746
 2747TIP3    H2 8187   1.870   5.812   6.736
 2748TIP3   OH2 8188  -0.009   1.351   0.279
 2748TIP3    H1 8189   0.051   1.389   0.216
 2748TIP3    H2 8190   0.022   1.261   0.292
 2749TIP3   OH2 8191   1.484   2.866   0.028
 2749TIP3    H1 8192   1.434   2.828   0.100
 2749TIP3    H2 8193   1.571   2.882   0.064
 2750TIP3   OH2 8194   4.612   7.436   0.272
 2750TIP3    H1 8195   4.596   7.528   0.296
 2750TIP3    H2 8196   4.701   7.418   0.302
 2751TIP3   OH2 8197   5.755   7.417   1.527
 2751TIP3    H1 8198   5.719   7.490   1.577
 2751TIP3    H2 8199   5.733   7.340   1.578
 2752TIP3   OH2 8200   6.986   0.467   0.404
 2752TIP3    H1 8201   6.953   0.555   0.422
 2752TIP3    H2 8202   7.081   0.474   0.413
 2753TIP3   OH2 8203   1.237   3.052   2.494
 2753TIP3    H1 8204   1.324   3.063   2.455
 2753TIP3    H2 8205   1.177   3.052   2.419
 2754TIP3   OH2 8206   2.397   4.544   0.268
 2754TIP3    H1 8207   2.384   4.585   0.354
 2754TIP3    H2 8208   2.344   4.598   0.209
 2755TIP3   OH2 8209   4.110   6.538   4.779
 2755TIP3    H1 8210   4.086   6.605   4.715
 2755TIP3    H2 8211   4.193   6.567   4.815
 2756TIP3   OH2 8212   2.961   3.796   5.598
 2756TIP3    H1 8213   2.951   3.735   5.525
 2756TIP3    H2 8214   2.875   3.839   5.605
 2757TIP3   OH2 8215   0.853   7.772   1.657
 2757TIP3    H1 8216   0.769   7.735   1.630
 2757TIP3    H2 8217   0.890   7.707   1.717
 2758TIP3   OH2 8218   8.110   5.117   1.504
 2758TIP3    H1 8219   8.166   5.165   1.564
 2758TIP3    H2 8220   8.063   5.055   1.560
 2759TIP3   OH2 8221   3.918   6.523   3.848
 2759TIP3    H1 8222   3.843   6.519   3.908
 2759TIP3    H2 8223   3.938   6.616   3.842
 2760TIP3   OH2 8224   5.431   4.788   0.811
 2760TIP3    H1 8225   5.347   4.801   0.854
 2760TIP3    H2 8226   5.409   4.776   0.718
 2761TIP3   OH2 8227   2.973   7.363   2.257
 2761TIP3    H1 8228   3.062   7.396   2.243
 2761TIP3    H2 8229   2.966   7.287   2.199
 2762TIP3   OH2 8230   3.691   5.633   6.709
 2762TIP3    H1 8231   3.623   5.603   6.649
 2762TIP3    H2 8232   3.744   5.555   6.726
 2763TIP3   OH2 8233   3.910   2.358   0.477
 2763TIP3    H1 8234   3.886   2.344   0.386
 2763TIP3    H2 8235   3.836   2.404   0.515
 2764TIP3   OH2 8236   0.946   4.612   2.393
 2764TIP3    H1 8237   1.028   4.660   2.377
 2764TIP3    H2 8238   0.879   4.665   2.349
 2765TIP3   OH2 8239   8.219   5.983   1.180
 2765TIP3    H1 8240   8.158   5.910   1.185
 2765TIP3    H2 8241   8.163   6.061   1.181
 2766TIP3   OH2 8242   3.813   1.840   0.946
 2766TIP3    H1 8243   3.739   1.796   0.906
 2766TIP3    H2 8244   3.833   1.789   1.024
 2767TIP3   OH2 8245   4.567   3.025   2.369
 2767TIP3    H1 8246   4.651   3.022   2.414
 2767TIP3    H2 8247   4.548   3.119   2.359
 2768TIP3   OH2 8248   1.580   1.006   4.413
 2768TIP3    H1 8249   1.507   1.003   4.474
 2768TIP3    H2 8250   1.624   0.922   4.423
 2769TIP3   OH2 8251   2.023   4.639   3.649
 2769TIP3    H1 8252   2.031   4.550   3.612
 2769TIP3    H2 8253   1.941   4.672   3.612
 2770TIP3   OH2 8254   4.740   4.514   1.302
 2770TIP3    H1 8255   4.756   4.595   1.255
 2770TIP3    H2 8256   4.653   4.525   1.341
 2771TIP3   OH2 8257   7.966   3.722   0.863
 2771TIP3    H1 8258   7.994   3.813   0.847
 2771TIP3    H2 8259   7.981   3.708   0.956
 2772TIP3   OH2 8260   1.220   6.730   3.618
 2772TIP3    H1 8261   1.283   6.679   3.568
 2772TIP3    H2 8262   1.207   6.810   3.567
 2773TIP3   OH2 8263   3.773   0.323   0.816
 2773TIP3    H1 8264   3.823   0.401   0.840
 2773TIP3    H2 8265   3.688   0.334   0.859
 2774TIP3   OH2 8266   1.773   5.232   3.540
 2774TIP3    H1 8267   1.847   5.280   3.503
 2774TIP3    H2 8268   1.726   5.297   3.592
 2775TIP3   OH2 8269   6.700   4.597   2.004
 2775TIP3    H1 8270   6.648   4.523   2.034
 2775TIP3    H2 8271   6.787   4.582   2.042
 2776TIP3   OH2 8272   6.314   3.732   0.519
 2776TIP3    H1 8273   6.281   3.699   0.603
 2776TIP3    H2 8274   6.365   3.658   0.484
 2777TIP3   OH2 8275   3.888   5.928   4.671
 2777TIP3    H1 8276   3.894   6.018   4.702
 2777TIP3    H2 8277   3.913   5.932   4.579
 2778TIP3   OH2 8278   0.488   5.954   4.519
 2778TIP3    H1 8279   0.411   5.931   4.467
 2778TIP3    H2 8280   0.471   6.044   4.549
 2779TIP3   OH2 8281   1.314   5.497   3.447
 2779TIP3    H1 8282   1.278   5.540   3.370
 2779TIP3    H2 8283   1.318   5.404   3.423
 2780TIP3   OH2 8284   7.058   0.941   0.772
 2780TIP3    H1 8285   7.092   0.856   0.800
 2780TIP3    H2 8286   7.045   0.932   0.678
 2781TIP3   OH2 8287   4.146   2.857   5.457
 2781TIP3    H1 8288   4.092   2.813   5.391
 2781TIP3    H2 8289   4.094   2.932   5.484
 2782TIP3   OH2 8290   3.295   0.837   5.310
 2782TIP3    H1 8291   3.356   0.907   5.335
 2782TIP3    H2 8292   3.254   0.869   5.230
 2783TIP3   OH2 8293   3.824   5.216   1.451
 2783TIP3    H1 8294   3.822   5.294   1.395
 2783TIP3    H2 8295   3.777   5.241   1.530
 2784TIP3   OH2 8296   1.618   7.207   2.345
 2784TIP3    H1 8297   1.619   7.137   2.280
 2784TIP3    H2 8298   1.709   7.216   2.372
 2785TIP3   OH2 8299   0.892   6.160   2.363
 2785TIP3    H1 8300   0.812   6.213   2.361
 2785TIP3    H2 8301   0.923   6.160   2.273
 2786TIP3   OH2 8302   5.658   0.486   6.169
 2786TIP3    H1 8303   5.599   0.418   6.136
 2786TIP3    H2 8304   5.619   0.513   6.253
 2787TIP3   OH2 8305   6.324   2.553   0.977
 2787TIP3    H1 8306   6.275   2.537   1.057
 2787TIP3    H2 8307   6.416   2.542   1.002
 2788TIP3   OH2 8308   6.517   4.180   5.262
 2788TIP3    H1 8309   6.577   4.202   5.333
 2788TIP3    H2 8310   6.493   4.089   5.278
 2789TIP3   OH2 8311   4.865   4.603   5.258
 2789TIP3    H1 8312   4.829   4.576   5.174
 2789TIP3    H2 8313   4.828   4.541   5.321
 2790TIP3   OH2 8314   1.956   0.197   1.395
 2790TIP3    H1 8315   2.019   0.252   1.442
 2790TIP3    H2 8316   1.923   0.253   1.325
 2791TIP3   OH2 8317   4.151   2.351   4.710
 2791TIP3    H1 8318   4.066   2.382   4.681
 2791TIP3    H2 8319   4.132   2.295   4.785
 2792TIP3   OH2 8320   1.943   0.615   2.549
 2792TIP3    H1 8321   1.931   0.695   2.599
 2792TIP3    H2 8322   1.901   0.632   2.465
 2793TIP3   OH2 8323   3.847   2.239   3.570
 2793TIP3    H1 8324   3.776   2.294   3.536
 2793TIP3    H2 8325   3.848   2.163   3.513
 2794TIP3   OH2 8326   7.228   0.850   5.303
 2794TIP3    H1 8327   7.139   0.866   5.335
 2794TIP3    H2 8328   7.233   0.900   5.221
 2795TIP3   OH2 8329   4.437   5.336   1.948
 2795TIP3    H1 8330   4.398   5.314   1.863
 2795TIP3    H2 8331   4.524   5.297   1.945
 2796TIP3   OH2 8332   4.009   7.670   0.552
 2796TIP3    H1 8333   4.061   7.706   0.623
 2796TIP3    H2 8334   3.989   7.745   0.496
 2797TIP3   OH2 8335   0.943   5.814   6.285
 2797TIP3    H1 8336   0.904   5.902   6.294
 2797TIP3    H2 8337   0.928   5.791   6.193
 2798TIP3   OH2 8338   5.934   0.866   0.408
 2798TIP3    H1 8339   5.963   0.856   0.499
 2798TIP3    H2 8340   6.016   0.872   0.358
 2799TIP3   OH2 8341   7.763   2.852   0.434
 2799TIP3    H1 8342   7.830   2.842   0.501
 2799TIP3    H2 8343   7.811   2.845   0.351
 2800TIP3   OH2 8344   4.487   0.463   3.363
 2800TIP3    H1 8345   4.481   0.424   3.275
 2800TIP3    H2 8346   4.436   0.404   3.418
 2801TIP3   OH2 8347   3.889   1.323   0.131
 2801TIP3    H1 8348   3.844   1.269   0.196
 2801TIP3    H2 8349   3.892   1.269   0.052
 2802TIP3   OH2 8350   2.343   2.553   2.687
 2802TIP3    H1 8351   2.424   2.574   2.640
 2802TIP3    H2 8352   2.370   2.545   2.778
 2803TIP3   OH2 8353   1.467   1.994   3.282
 2803TIP3    H1 8354   1.465   1.998   3.377
 2803TIP3    H2 8355   1.494   1.904   3.262
 2804TIP3   OH2 8356   1.181   3.263   5.076
 2804TIP3    H1 8357   1.203   3.205   5.150
 2804TIP3    H2 8358   1.123   3.329   5.113
 2805TIP3   OH2 8359   7.262   6.167   1.018
 2805TIP3    H1 8360   7.207   6.160   1.095
 2805TIP3    H2 8361   7.262   6.079   0.980
 2806TIP3   OH2 8362   7.018   3.925   5.681
 2806TIP3    H1 8363   7.093   3.909   5.625
 2806TIP3    H2 8364   7.054   3.935   5.769
 2807TIP3   OH2 8365   2.645   4.919   4.532
 2807TIP3    H1 8366   2.652   4.833   4.572
 2807TIP3    H2 8367   2.646   4.903   4.438
 2808TIP3   OH2 8368   3.209   7.070   0.101
 2808TIP3    H1 8369   3.197   7.153   0.056
 2808TIP3    H2 8370   3.301   7.069   0.127
 2809TIP3   OH2 8371   1.500   2.967   3.754
 2809TIP3    H1 8372   1.530   2.879   3.779
 2809TIP3    H2 8373   1.406   2.957   3.739
 2810TIP3   OH2 8374   5.424   2.428   6.393
 2810TIP3    H1 8375   5.460   2.499   6.341
 2810TIP3    H2 8376   5.343   2.404   6.349
 2811TIP3   OH2 8377   2.803   1.700   3.759
 2811TIP3    H1 8378   2.890   1.670   3.734
 2811TIP3    H2 8379   2.771   1.748   3.683
 2812TIP3   OH2 8380   7.516   3.208   4.312
 2812TIP3    H1 8381   7.482   3.199   4.401
 2812TIP3    H2 8382   7.596   3.155   4.312
 2813TIP3   OH2 8383   3.133   7.189   1.255
 2813TIP3    H1 8384   3.116   7.270   1.303
 2813TIP3    H2 8385   3.172   7.219   1.172
 2814TIP3   OH2 8386   3.690   2.386   0.023
 2814TIP3    H1 8387   3.711   2.331   0.099
 2814TIP3    H2 8388   3.626   2.334  -0.026
 2815TIP3   OH2 8389   4.511   1.345   5.396
 2815TIP3    H1 8390   4.502   1.249   5.392
 2815TIP3    H2 8391   4.429   1.378   5.359
 2816TIP3   OH2 8392   8.107   4.727   6.085
 2816TIP3    H1 8393   8.101   4.654   6.146
 2816TIP3    H2 8394   8.124   4.803   6.141
 2817TIP3   OH2 8395   2.873   6.357   2.902
 2817TIP3    H1 8396   2.787   6.316   2.897
 2817TIP3    H2 8397   2.899   6.371   2.811
 2818TIP3   OH2 8398   3.565   3.632   4.398
 2818TIP3    H1 8399   3.621   3.640   4.321
 2818TIP3    H2 8400   3.606   3.688   4.463
 2819TIP3   OH2 8401   0.496   5.109   2.554
 2819TIP3    H1 8402   0.468   5.044   2.490
 2819TIP3    H2 8403   0.526   5.058   2.629
 2820TIP3   OH2 8404   5.351   2.865   1.403
 2820TIP3    H1 8405   5.351   2.773   1.375
 2820TIP3    H2 8406   5.264   2.897   1.381
 2821TIP3   OH2 8407   1.822   3.921   1.099
 2821TIP3    H1 8408   1.886   3.864   1.141
 2821TIP3    H2 8409   1.852   3.927   1.008
 2822TIP3   OH2 8410   8.027   0.475   0.850
 2822TIP3    H1 8411   8.054   0.566   0.859
 2822TIP3    H2 8412   7.932   0.479   0.837
 2823TIP3   OH2 8413   6.912   1.397   4.201
 2823TIP3    H1 8414   6.967   1.439   4.267
 2823TIP3    H2 8415   6.921   1.304   4.218
 2824TIP3   OH2 8416   4.607   6.114   2.306
 2824TIP3    H1 8417   4.684   6.121   2.363
 2824TIP3    H2 8418   4.608   6.023   2.275
 2825TIP3   OH2 8419   8.099   6.969   6.565
 2825TIP3    H1 8420   8.133   6.907   6.500
 2825TIP3    H2 8421   8.075   6.916   6.640
 2826TIP3   OH2 8422   2.615   2.266   6.513
 2826TIP3    H1 8423   2.668   2.267   6.593
 2826TIP3    H2 8424   2.542   2.207   6.534
 2827TIP3   OH2 8425   7.457   5.100   5.282
 2827TIP3    H1 8426   7.436   5.134   5.369
 2827TIP3    H2 8427   7.483   5.009   5.297
 2828TIP3   OH2 8428   0.852   0.829   1.715
 2828TIP3    H1 8429   0.781   0.767   1.699
 2828TIP3    H2 8430   0.809   0.905   1.755
 2829TIP3   OH2 8431   1.652   3.872   4.924
 2829TIP3    H1 8432   1.643   3.852   4.831
 2829TIP3    H2 8433   1.677   3.964   4.926
 2830TIP3   OH2 8434   2.181   3.166   3.841
 2830TIP3    H1 8435   2.124   3.132   3.772
 2830TIP3    H2 8436   2.152   3.122   3.921
 2831TIP3   OH2 8437   5.341   1.512   1.543
 2831TIP3    H1 8438   5.281   1.542   1.474
 2831TIP3    H2 8439   5.314   1.422   1.561
 2832TIP3   OH2 8440   1.645   4.332   5.371
 2832TIP3    H1 8441   1.593   4.252   5.361
 2832TIP3    H2 8442   1.717   4.322   5.310
 2833TIP3   OH2 8443   3.598   3.341   3.425
 2833TIP3    H1 8444   3.645   3.424   3.437
 2833TIP3    H2 8445   3.627   3.309   3.340
 2834TIP3   OH2 8446   3.698   4.177   0.629
 2834TIP3    H1 8447   3.740   4.211   0.709
 2834TIP3    H2 8448   3.756   4.108   0.598
 2835TIP3   OH2 8449   3.415   7.749   0.996
 2835TIP3    H1 8450   3.416   7.821   0.933
 2835TIP3    H2 8451   3.445   7.789   1.078
 2836TIP3   OH2 8452   3.463   0.531   5.013
 2836TIP3    H1 8453   3.512   0.452   4.987
 2836TIP3    H2 8454   3.374   0.499   5.030
 2837TIP3   OH2 8455   1.132   1.507   4.573
 2837TIP3    H1 8456   1.155   1.511   4.665
 2837TIP3    H2 8457   1.058   1.446   4.568
 2838TIP3   OH2 8458   5.039   4.517  -0.011
 2838TIP3    H1 8459   5.034   4.612  -0.010
 2838TIP3    H2 8460   5.067   4.493   0.077
 2839TIP3   OH2 8461   1.278   0.044   0.322
 2839TIP3    H1 8462   1.224  -0.019   0.371
 2839TIP3    H2 8463   1.285   0.120   0.379
 2840TIP3   OH2 8464   7.785   0.116   5.104
 2840TIP3    H1 8465   7.802   0.046   5.040
 2840TIP3    H2 8466   7.823   0.083   5.186
 2841TIP3   OH2 8467   3.114   1.466   5.790
 2841TIP3    H1 8468   3.097   1.439   5.880
 2841TIP3    H2 8469   3.033   1.448   5.743
 2842TIP3   OH2 8470   0.388   5.047   5.484
 2842TIP3    H1 8471   0.428   4.960   5.481
 2842TIP3    H2 8472   0.358   5.057   5.574
 2843TIP3   OH2 8473   0.393   5.603   0.184
 2843TIP3    H1 8474   0.396   5.508   0.177
 2843TIP3    H2 8475   0.472   5.633   0.139
 2844TIP3   OH2 8476   5.093   4.174   5.768
 2844TIP3    H1 8477   5.131   4.184   5.681
 2844TIP3    H2 8478   5.163   4.199   5.828
 2845TIP3   OH2 8479   7.077   4.020   6.445
 2845TIP3    H1 8480   7.057   4.090   6.383
 2845TIP3    H2 8481   7.163   4.041   6.479
 2846TIP3   OH2 8482   7.507   0.399   3.924
 2846TIP3    H1 8483   7.414   0.383   3.943
 2846TIP3    H2 8484   7.509   0.488   3.889
 2847TIP3   OH2 8485   4.948   5.420   5.184
 2847TIP3    H1 8486   4.947   5.487   5.252
 2847TIP3    H2 8487   5.027   5.369   5.201
 2848TIP3   OH2 8488   3.372   1.470   1.168
 2848TIP3    H1 8489   3.400   1.513   1.087
 2848TIP3    H2 8490   3.334   1.540   1.220
 2849TIP3   OH2 8491   2.442   1.419   5.293
 2849TIP3    H1 8492   2.401   1.371   5.221
 2849TIP3    H2 8493   2.393   1.392   5.371
 2850TIP3   OH2 8494   1.842   3.852   2.113
 2850TIP3    H1 8495   1.875   3.927   2.161
 2850TIP3    H2 8496   1.893   3.778   2.145
 2851TIP3   OH2 8497   5.036   4.473   4.221
 2851TIP3    H1 8498   5.111   4.531   4.220
 2851TIP3    H2 8499   4.973   4.514   4.162
 2852TIP3   OH2 8500   4.237   7.670   3.677
 2852TIP3    H1 8501   4.308   7.727   3.648
 2852TIP3    H2 8502   4.159   7.724   3.671
 2853TIP3   OH2 8503   2.791   3.698   4.005
 2853TIP3    H1 8504   2.803   3.758   4.079
 2853TIP3    H2 8505   2.770   3.614   4.045
 2854TIP3   OH2 8506   7.059   2.148   3.950
 2854TIP3    H1 8507   7.082   2.211   4.018
 2854TIP3    H2 8508   7.141   2.104   3.929
 2855TIP3   OH2 8509   3.339   5.377   6.216
 2855TIP3    H1 8510   3.355   5.471   6.212
 2855TIP3    H2 8511   3.330   5.358   6.310
 2856TIP3   OH2 8512   7.999   7.129   2.539
 2856TIP3    H1 8513   8.073   7.141   2.480
 2856TIP3    H2 8514   8.025   7.173   2.620
 2857TIP3   OH2 8515   1.163   5.160   2.961
 2857TIP3    H1 8516   1.110   5.090   2.998
 2857TIP3    H2 8517   1.229   5.178   3.029
 2858TIP3   OH2 8518   4.130   1.303   5.390
 2858TIP3    H1 8519   4.151   1.351   5.470
 2858TIP3    H2 8520   4.152   1.213   5.410
 2859TIP3   OH2 8521   3.147   4.835   5.532
 2859TIP3    H1 8522   3.072   4.775   5.536
 2859TIP3    H2 8523   3.192   4.811   5.451
 2860TIP3   OH2 8524   2.344   3.435   5.617
 2860TIP3    H1 8525   2.304   3.502   5.562
 2860TIP3    H2 8526   2.287   3.359   5.608
 2861TIP3   OH2 8527   3.462   1.342   3.367
 2861TIP3    H1 8528   3.502   1.410   3.421
 2861TIP3    H2 8529   3.534   1.281   3.349
 2862TIP3   OH2 8530   3.749   6.443   5.502
 2862TIP3    H1 8531   3.677   6.415   5.559
 2862TIP3    H2 8532   3.820   6.464   5.562
 2863TIP3   OH2 8533   0.203   6.792   5.307
 2863TIP3    H1 8534   0.274   6.851   5.334
 2863TIP3    H2 8535   0.245   6.706   5.301
 2864TIP3   OH2 8536   4.607   5.900   1.611
 2864TIP3    H1 8537   4.531   5.958   1.616
 2864TIP3    H2 8538   4.572   5.813   1.633
 2865TIP3   OH2 8539   8.194   1.695   1.495
 2865TIP3    H1 8540   8.212   1.651   1.578
 2865TIP3    H2 8541   8.118   1.749   1.512
 2866TIP3   OH2 8542   5.307   5.930   1.186
 2866TIP3    H1 8543   5.236   5.971   1.236
 2866TIP3    H2 8544   5.331   5.995   1.120
 2867TIP3   OH2 8545   7.502   3.689   4.336
 2867TIP3    H1 8546   7.511   3.608   4.286
 2867TIP3    H2 8547   7.588   3.702   4.375
 2868TIP3   OH2 8548   1.248   0.491   2.469
 2868TIP3    H1 8549   1.289   0.419   2.517
 2868TIP3    H2 8550   1.207   0.544   2.537
 2869TIP3   OH2 8551   4.420   5.476   3.234
 2869TIP3    H1 8552   4.387   5.529   3.161
 2869TIP3    H2 8553   4.488   5.530   3.274
 2870TIP3   OH2 8554   2.998   2.572   3.283
 2870TIP3    H1 8555   2.909   2.539   3.279
 2870TIP3    H2 8556   3.053   2.501   3.249
 2871TIP3   OH2 8557   1.992   3.899   0.411
 2871TIP3    H1 8558   2.041   3.957   0.468
 2871TIP3    H2 8559   2.043   3.818   0.408
 2872TIP3   OH2 8560  -0.015   0.854   0.673
 2872TIP3    H1 8561  -0.003   0.781   0.735
 2872TIP3    H2 8562   0.038   0.925   0.709
 2873TIP3   OH2 8563   1.923   1.461   0.477
 2873TIP3    H1 8564   1.882   1.471   0.391
 2873TIP3    H2 8565   1.969   1.544   0.491
 2874TIP3   OH2 8566   3.517   6.738   3.735
 2874TIP3    H1 8567   3.473   6.747   3.651
 2874TIP3    H2 8568   3.450   6.760   3.800
 2875TIP3   OH2 8569   7.445   5.699   2.802
 2875TIP3    H1 8570   7.522   5.696   2.859
 2875TIP3    H2 8571   7.452   5.619   2.749
 2876TIP3   OH2 8572   7.761   7.661   4.798
 2876TIP3    H1 8573   7.723   7.740   4.760
 2876TIP3    H2 8574   7.842   7.691   4.840
 2877TIP3   OH2 8575   4.768   3.447   3.617
 2877TIP3    H1 8576   4.842   3.411   3.667
 2877TIP3    H2 8577   4.786   3.540   3.610
 2878TIP3   OH2 8578   5.630   6.938   5.206
 2878TIP3    H1 8579   5.543   6.972   5.184
 2878TIP3    H2 8580   5.617   6.892   5.289
 2879TIP3   OH2 8581   1.763   3.368   1.449
 2879TIP3    H1 8582   1.831   3.326   1.502
 2879TIP3    H2 8583   1.704   3.296   1.425
 2880TIP3   OH2 8584   2.959   3.506   5.726
 2880TIP3    H1 8585   3.012   3.569   5.677
 2880TIP3    H2 8586   2.888   3.482   5.666
 2881TIP3   OH2 8587   4.738   2.637   2.958
 2881TIP3    H1 8588   4.677   2.657   2.888
 2881TIP3    H2 8589   4.786   2.719   2.972
 2882TIP3   OH2 8590   0.186   4.498   3.605
 2882TIP3    H1 8591   0.130   4.574   3.589
 2882TIP3    H2 8592   0.156   4.433   3.542
 2883TIP3   OH2 8593   3.856   7.410   3.149
 2883TIP3    H1 8594   3.934   7.425   3.204
 2883TIP3    H2 8595   3.892   7.386   3.064
 2884TIP3   OH2 8596   4.462   4.500   2.936
 2884TIP3    H1 8597   4.527   4.547   2.883
 2884TIP3    H2 8598   4.435   4.426   2.881
 2885TIP3   OH2 8599   2.197   3.585   4.273
 2885TIP3    H1 8600   2.161   3.507   4.231
 2885TIP3    H2 8601   2.121   3.636   4.299
 2886TIP3   OH2 8602   2.927   3.751   1.598
 2886TIP3    H1 8603   2.941   3.713   1.511
 2886TIP3    H2 8604   3.014   3.776   1.628
 2887TIP3   OH2 8605   3.933   6.500   5.675
 2887TIP3    H1 8606   4.018   6.527   5.709
 2887TIP3    H2 8607   3.882   6.581   5.669
 2888TIP3   OH2 8608   1.536   0.261   2.528
 2888TIP3    H1 8609   1.560   0.169   2.533
 2888TIP3    H2 8610   1.615   0.305   2.498
 2889TIP3   OH2 8611   1.921   2.365   1.194
 2889TIP3    H1 8612   1.842   2.377   1.140
 2889TIP3    H2 8613   1.923   2.271   1.213
 2890TIP3   OH2 8614   5.063   0.945   5.551
 2890TIP3    H1 8615   5.059   0.966   5.645
 2890TIP3    H2 8616   4.971   0.937   5.524
 2891TIP3   OH2 8617   7.002   6.701   0.064
 2891TIP3    H1 8618   7.093   6.711   0.034
 2891TIP3    H2 8619   6.984   6.608   0.054
 2892TIP3   OH2 8620   3.529   0.759   1.125
 2892TIP3    H1 8621   3.615   0.720   1.139
 2892TIP3    H2 8622   3.547   0.850   1.102
 2893TIP3   OH2 8623   2.249   3.324   2.901
 2893TIP3    H1 8624   2.250   3.420   2.902
 2893TIP3    H2 8625   2.282   3.299   2.987
 2894TIP3   OH2 8626   5.394   5.172   0.855
 2894TIP3    H1 8627   5.424   5.109   0.921
 2894TIP3    H2 8628   5.345   5.238   0.904
 2895TIP3   OH2 8629   3.003   0.510   4.815
 2895TIP3    H1 8630   2.985   0.571   4.887
 2895TIP3    H2 8631   2.983   0.560   4.736
 2896TIP3   OH2 8632   8.263   5.742   5.636
 2896TIP3    H1 8633   8.348   5.710   5.607
 2896TIP3    H2 8634   8.274   5.837   5.642
 2897TIP3   OH2 8635   1.092   0.012   5.529
 2897TIP3    H1 8636   1.081   0.102   5.560
 2897TIP3    H2 8637   1.167  -0.021   5.579
 2898TIP3   OH2 8638   7.652   2.326   2.841
 2898TIP3    H1 8639   7.633   2.335   2.934
 2898TIP3    H2 8640   7.632   2.234   2.821
 2899TIP3   OH2 8641   0.150   7.172   3.432
 2899TIP3    H1 8642   0.237   7.196   3.401
 2899TIP3    H2 8643   0.154   7.077   3.444
 2900TIP3   OH2 8644   2.819   7.421   4.687
 2900TIP3    H1 8645   2.779   7.359   4.625
 2900TIP3    H2 8646   2.906   7.384   4.705
 2901TIP3   OH2 8647   4.477   0.434   0.008
 2901TIP3    H1 8648   4.461   0.429  -0.086
 2901TIP3    H2 8649   4.573   0.428   0.017
 2902TIP3   OH2 8650   5.695   1.503   3.743
 2902TIP3    H1 8651   5.664   1.469   3.827
 2902TIP3    H2 8652   5.774   1.452   3.724
 2903TIP3   OH2 8653   2.846   0.884   1.087
 2903TIP3    H1 8654   2.820   0.932   1.008
 2903TIP3    H2 8655   2.868   0.952   1.150
 2904TIP3   OH2 8656   1.584   6.932   4.194
 2904TIP3    H1 8657   1.499   6.911   4.156
 2904TIP3    H2 8658   1.645   6.931   4.120
 2905TIP3   OH2 8659   1.741   2.570   4.310
 2905TIP3    H1 8660   1.652   2.599   4.290
 2905TIP3    H2 8661   1.733   2.476   4.323
 2906TIP3   OH2 8662   6.162   6.136   2.247
 2906TIP3    H1 8663   6.075   6.109   2.219
 2906TIP3    H2 8664   6.158   6.135   2.343
 2907TIP3   OH2 8665   0.766   4.529   0.403
 2907TIP3    H1 8666   0.714   4.525   0.483
 2907TIP3    H2 8667   0.710   4.487   0.337
 2908TIP3   OH2 8668   3.214   4.664   2.308
 2908TIP3    H1 8669   3.245   4.579   2.339
 2908TIP3    H2 8670   3.263   4.679   2.227
 2909TIP3   OH2 8671   2.551   0.622   5.322
 2909TIP3    H1 8672   2.544   0.536   5.363
 2909TIP3    H2 8673   2.644   0.645   5.329
 2910TIP3   OH2 8674   3.670   5.934   3.283
 2910TIP3    H1 8675   3.592   5.883   3.303
 2910TIP3    H2 8676   3.741   5.887   3.327
 2911TIP3   OH2 8677   4.762   2.234   6.643
 2911TIP3    H1 8678   4.729   2.239   6.733
 2911TIP3    H2 8679   4.749   2.322   6.608
 2912TIP3   OH2 8680   8.096   4.167   4.174
 2912TIP3    H1 8681   8.184   4.156   4.138
 2912TIP3    H2 8682   8.041   4.112   4.118
 2913TIP3   OH2 8683   0.244   7.428   4.102
 2913TIP3    H1 8684   0.247   7.339   4.135
 2913TIP3    H2 8685   0.327   7.467   4.131
 2914TIP3   OH2 8686   6.376   4.493   2.426
 2914TIP3    H1 8687   6.319   4.438   2.481
 2914TIP3    H2 8688   6.465   4.472   2.454
 2915TIP3   OH2 8689   1.395   4.397   1.498
 2915TIP3    H1 8690   1.383   4.393   1.403
 2915TIP3    H2 8691   1.490   4.402   1.509
 2916TIP3   OH2 8692   0.878   5.158   1.077
 2916TIP3    H1 8693   0.957   5.118   1.040
 2916TIP3    H2 8694   0.889   5.150   1.172
 2917TIP3   OH2 8695   3.937   4.455   5.371
 2917TIP3    H1 8696   3.856   4.442   5.322
 2917TIP3    H2 8697   3.990   4.513   5.316
 2918TIP3   OH2 8698   3.628   5.195   4.807
 2918TIP3    H1 8699   3.559   5.238   4.858
 2918TIP3    H2 8700   3.699   5.182   4.870
 2919TIP3   OH2 8701   1.982   1.055   6.721
 2919TIP3    H1 8702   1.997   1.108   6.643
 2919TIP3    H2 8703   1.889   1.034   6.718
 2920TIP3   OH2 8704   7.561   4.504   2.401
 2920TIP3    H1 8705   7.635   4.502   2.340
 2920TIP3    H2 8706   7.485   4.519   2.345
 2921TIP3   OH2 8707   4.430   2.531   2.880
 2921TIP3    H1 8708   4.488   2.604   2.857
 2921TIP3    H2 8709   4.387   2.507   2.798
 2922TIP3   OH2 8710   1.708   2.608   4.969
 2922TIP3    H1 8711   1.733   2.579   5.057
 2922TIP3    H2 8712   1.618   2.576   4.958
 2923TIP3   OH2 8713   2.964   6.885   6.801
 2923TIP3    H1 8714   2.967   6.958   6.739
 2923TIP3    H2 8715   2.885   6.836   6.777
 2924TIP3   OH2 8716   3.107   6.829   0.497
 2924TIP3    H1 8717   3.113   6.901   0.435
 2924TIP3    H2 8718   3.185   6.838   0.552
 2925TIP3   OH2 8719   1.792   6.043   5.599
 2925TIP3    H1 8720   1.807   6.050   5.505
 2925TIP3    H2 8721   1.848   5.971   5.627
 2926TIP3   OH2 8722   1.920   1.256   3.271
 2926TIP3    H1 8723   1.964   1.234   3.189
 2926TIP3    H2 8724   1.987   1.298   3.325
 2927TIP3   OH2 8725   4.729   0.517   2.892
 2927TIP3    H1 8726   4.807   0.487   2.940
 2927TIP3    H2 8727   4.689   0.581   2.951
 2928TIP3   OH2 8728   3.761   5.339   6.049
 2928TIP3    H1 8729   3.753   5.254   6.093
 2928TIP3    H2 8730   3.760   5.317   5.956
 2929TIP3   OH2 8731   2.216   2.114   4.204
 2929TIP3    H1 8732   2.253   2.050   4.144
 2929TIP3    H2 8733   2.257   2.197   4.178
 2930TIP3   OH2 8734   5.439   4.803   4.298
 2930TIP3    H1 8735   5.486   4.725   4.328
 2930TIP3    H2 8736   5.499   4.845   4.237
 2931TIP3   OH2 8737   1.215   3.892   0.806
 2931TIP3    H1 8738   1.289   3.949   0.787
 2931TIP3    H2 8739   1.254   3.807   0.823
 2932TIP3   OH2 8740   8.254   1.376   1.568
 2932TIP3    H1 8741   8.216   1.302   1.521
 2932TIP3    H2 8742   8.306   1.423   1.502
 2933TIP3   OH2 8743   7.780   4.536   0.236
 2933TIP3    H1 8744   7.698   4.556   0.192
 2933TIP3    H2 8745   7.843   4.523   0.165
 2934TIP3   OH2 8746   7.568   5.796   1.806
 2934TIP3    H1 8747   7.580   5.728   1.739
 2934TIP3    H2 8748   7.656   5.809   1.843
 2935TIP3   OH2 8749   1.165   7.440   5.015
 2935TIP3    H1 8750   1.173   7.350   4.984
 2935TIP3    H2 8751   1.077   7.447   5.050
 2936TIP3   OH2 8752   4.849   6.643   4.577
 2936TIP3    H1 8753   4.929   6.671   4.621
 2936TIP3    H2 8754   4.778   6.676   4.633
 2937TIP3   OH2 8755   2.084   5.246   5.304
 2937TIP3    H1 8756   2.121   5.334   5.304
 2937TIP3    H2 8757   2.007   5.252   5.362
 2938TIP3   OH2 8758   0.361   1.031   4.061
 2938TIP3    H1 8759   0.296   1.076   4.008
 2938TIP3    H2 8760   0.442   1.035   4.008
 2939TIP3   OH2 8761   8.153   4.299   5.078
 2939TIP3    H1 8762   8.214   4.285   5.150
 2939TIP3    H2 8763   8.160   4.392   5.058
 2940TIP3   OH2 8764   1.578   1.155   6.276
 2940TIP3    H1 8765   1.544   1.187   6.193
 2940TIP3    H2 8766   1.591   1.061   6.262
 2941TIP3   OH2 8767   1.313   6.220   3.337
 2941TIP3    H1 8768   1.316   6.125   3.333
 2941TIP3    H2 8769   1.374   6.243   3.407
 2942TIP3   OH2 8770   8.161   4.530   2.651
 2942TIP3    H1 8771   8.256   4.535   2.661
 2942TIP3    H2 8772   8.147   4.540   2.557
 2943TIP3   OH2 8773   7.302   6.766   1.453
 2943TIP3    H1 8774   7.300   6.855   1.418
 2943TIP3    H2 8775   7.360   6.718   1.394
 2944TIP3   OH2 8776   2.383   6.031   3.335
 2944TIP3    H1 8777   2.354   6.015   3.425
 2944TIP3    H2 8778   2.398   5.943   3.300
 2945TIP3   OH2 8779   4.797   1.610   0.695
 2945TIP3    H1 8780   4.726   1.647   0.643
 2945TIP3    H2 8781   4.877   1.636   0.649
 2946TIP3   OH2 8782   1.114   2.599   4.402
 2946TIP3    H1 8783   1.134   2.691   4.382
 2946TIP3    H2 8784   1.198   2.562   4.428
 2947TIP3   OH2 8785   1.555   3.177   3.282
 2947TIP3    H1 8786   1.604   3.108   3.237
 2947TIP3    H2 8787   1.467   3.142   3.292
 2948TIP3   OH2 8788   3.703   2.004   1.232
 2948TIP3    H1 8789   3.707   2.091   1.193
 2948TIP3    H2 8790   3.671   1.947   1.162
 2949TIP3   OH2 8791   3.848   6.272   4.389
 2949TIP3    H1 8792   3.930   6.253   4.344
 2949TIP3    H2 8793   3.865   6.352   4.438
 2950TIP3   OH2 8794   2.532   4.404   4.052
 2950TIP3    H1 8795   2.525   4.308   4.052
 2950TIP3    H2 8796   2.589   4.424   4.127
 2951TIP3   OH2 8797   5.294   4.795   0.042
 2951TIP3    H1 8798   5.324   4.837   0.123
 2951TIP3    H2 8799   5.199   4.797   0.048
 2952TIP3   OH2 8800   2.451   7.739   6.433
 2952TIP3    H1 8801   2.379   7.716   6.375
 2952TIP3    H2 8802   2.409   7.779   6.509
 2953TIP3   OH2 8803   2.489   6.014   1.740
 2953TIP3    H1 8804   2.483   6.095   1.791
 2953TIP3    H2 8805   2.453   6.037   1.654
 2954TIP3   OH2 8806   3.607   1.301   3.820
 2954TIP3    H1 8807   3.594   1.370   3.755
 2954TIP3    H2 8808   3.609   1.347   3.904
 2955TIP3   OH2 8809   5.771   0.890   1.094
 2955TIP3    H1 8810   5.853   0.871   1.047
 2955TIP3    H2 8811   5.800   0.932   1.175
 2956TIP3   OH2 8812   7.960   4.099   2.545
 2956TIP3    H1 8813   8.032   4.047   2.510
 2956TIP3    H2 8814   7.885   4.039   2.546
 2957TIP3   OH2 8815   5.660   0.159   5.560
 2957TIP3    H1 8816   5.719   0.158   5.636
 2957TIP3    H2 8817   5.679   0.077   5.514
 2958TIP3   OH2 8818   8.142   3.589   1.293
 2958TIP3    H1 8819   8.090   3.667   1.311
 2958TIP3    H2 8820   8.226   3.622   1.261
 2959TIP3   OH2 8821   5.176   0.619   2.840
 2959TIP3    H1 8822   5.263   0.593   2.810
 2959TIP3    H2 8823   5.134   0.656   2.762
 2960TIP3   OH2 8824   4.856   2.221   0.204
 2960TIP3    H1 8825   4.933   2.164   0.210
 2960TIP3    H2 8826   4.836   2.243   0.295
 2961TIP3   OH2 8827   3.153   5.111   3.407
 2961TIP3    H1 8828   3.180   5.197   3.375
 2961TIP3    H2 8829   3.229   5.078   3.455
 2962TIP3   OH2 8830   7.080   2.411   2.258
 2962TIP3    H1 8831   7.050   2.343   2.197
 2962TIP3    H2 8832   7.175   2.409   2.250
 2963TIP3   OH2 8833   5.031   7.010   4.201
 2963TIP3    H1 8834   5.093   6.965   4.144
 2963TIP3    H2 8835   4.951   7.016   4.150
 2964TIP3   OH2 8836   4.463   6.892   6.216
 2964TIP3    H1 8837   4.536   6.914   6.274
 2964TIP3    H2 8838   4.473   6.951   6.141
 2965TIP3   OH2 8839   1.796   2.515   6.747
 2965TIP3    H1 8840   1.753   2.593   6.712
 2965TIP3    H2 8841   1.882   2.514   6.705
 2966TIP3   OH2 8842   1.432   0.731   5.675
 2966TIP3    H1 8843   1.462   0.799   5.616
 2966TIP3    H2 8844   1.503   0.667   5.677
 2967TIP3   OH2 8845   0.419   6.192   2.945
 2967TIP3    H1 8846   0.456   6.128   2.885
 2967TIP3    H2 8847   0.443   6.277   2.907
 2968TIP3   OH2 8848   2.824   3.289   0.274
 2968TIP3    H1 8849   2.810   3.196   0.290
 2968TIP3    H2 8850   2.918   3.302   0.289
 2969TIP3   OH2 8851   6.515   0.178   6.295
 2969TIP3    H1 8852   6.600   0.137   6.280
 2969TIP3    H2 8853   6.452   0.108   6.284
 2970TIP3   OH2 8854   3.372   5.579   5.108
 2970TIP3    H1 8855   3.342   5.493   5.138
 2970TIP3    H2 8856   3.438   5.604   5.172
 2971TIP3   OH2 8857   3.716   0.091   1.452
 2971TIP3    H1 8858   3.664   0.048   1.385
 2971TIP3    H2 8859   3.692   0.048   1.534
 2972TIP3   OH2 8860   6.864   2.223   3.778
 2972TIP3    H1 8861   6.935   2.206   3.840
 2972TIP3    H2 8862   6.799   2.272   3.828
 2973TIP3   OH2 8863   6.289   5.802   0.153
 2973TIP3    H1 8864   6.336   5.755   0.223
 2973TIP3    H2 8865   6.357   5.851   0.108
 2974TIP3   OH2 8866   1.647   4.712   5.366
 2974TIP3    H1 8867   1.637   4.738   5.458
 2974TIP3    H2 8868   1.712   4.772   5.330
 2975TIP3   OH2 8869   3.787   0.427   1.925
 2975TIP3    H1 8870   3.801   0.453   1.834
 2975TIP3    H2 8871   3.861   0.463   1.973
 2976TIP3   OH2 8872   3.057   5.184   6.293
 2976TIP3    H1 8873   3.147   5.166   6.321
 2976TIP3    H2 8874   3.051   5.147   6.205
 2977TIP3   OH2 8875   6.302   5.904   2.707
 2977TIP3    H1 8876   6.298   5.808   2.712
 2977TIP3    H2 8877   6.383   5.922   2.659
 2978TIP3   OH2 8878   8.096   0.783   4.114
 2978TIP3    H1 8879   8.178   0.747   4.148
 2978TIP3    H2 8880   8.038   0.788   4.190
 2979TIP3   OH2 8881   4.417   4.622   2.205
 2979TIP3    H1 8882   4.352   4.629   2.275
 2979TIP3    H2 8883   4.476   4.552   2.233
 2980TIP3   OH2 8884   7.359   2.808   6.466
 2980TIP3    H1 8885   7.355   2.714   6.483
 2980TIP3    H2 8886   7.268   2.833   6.448
 2981TIP3   OH2 8887   2.632   0.364   6.647
 2981TIP3    H1 8888   2.705   0.365   6.709
 2981TIP3    H2 8889   2.601   0.454   6.644
 2982TIP3   OH2 8890   5.636   1.402   2.927
 2982TIP3    H1 8891   5.545   1.390   2.902
 2982TIP3    H2 8892   5.635   1.398   3.023
 2983TIP3   OH2 8893   5.813   2.458   3.828
 2983TIP3    H1 8894   5.845   2.535   3.781
 2983TIP3    H2 8895   5.892   2.415   3.861
 2984TIP3   OH2 8896   7.402   5.409   3.663
 2984TIP3    H1 8897   7.411   5.372   3.750
 2984TIP3    H2 8898   7.490   5.409   3.626
 2985TIP3   OH2 8899   7.892   2.634   4.008
 2985TIP3    H1 8900   7.954   2.621   4.080
 2985TIP3    H2 8901   7.946   2.630   3.929
 2986TIP3   OH2 8902   7.781   4.330   6.301
 2986TIP3    H1 8903   7.844   4.297   6.236
 2986TIP3    H2 8904   7.775   4.424   6.282
 2987TIP3   OH2 8905   2.801   3.587   5.922
 2987TIP3    H1 8906   2.772   3.497   5.935
 2987TIP3    H2 8907   2.889   3.578   5.885
 2988TIP3   OH2 8908   7.272   4.709   0.509
 2988TIP3    H1 8909   7.311   4.622   0.520
 2988TIP3    H2 8910   7.274   4.724   0.415
 2989TIP3   OH2 8911   4.591   7.346   1.371
 2989TIP3    H1 8912   4.669   7.298   1.398
 2989TIP3    H2 8913   4.518   7.292   1.400
 2990TIP3   OH2 8914   5.271   2.112   2.222
 2990TIP3    H1 8915   5.291   2.204   2.240
 2990TIP3    H2 8916   5.216   2.114   2.144
 2991TIP3   OH2 8917   6.095   6.201   1.586
 2991TIP3    H1 8918   6.053   6.128   1.630
 2991TIP3    H2 8919   6.025   6.265   1.573
 2992TIP3   OH2 8920   2.768   3.349   0.543
 2992TIP3    H1 8921   2.733   3.314   0.461
 2992TIP3    H2 8922   2.735   3.439   0.546
 2993TIP3   OH2 8923   5.677   4.717   6.121
 2993TIP3    H1 8924   5.701   4.771   6.045
 2993TIP3    H2 8925   5.680   4.778   6.195
 2994TIP3   OH2 8926   2.020   1.078   1.359
 2994TIP3    H1 8927   2.028   1.068   1.454
 2994TIP3    H2 8928   1.952   1.016   1.333
 2995TIP3   OH2 8929   1.273   0.226   2.627
 2995TIP3    H1 8930   1.265   0.171   2.705
 2995TIP3    H2 8931   1.366   0.244   2.619
 2996TIP3   OH2 8932   1.552   1.780   0.151
 2996TIP3    H1 8933   1.464   1.745   0.165
 2996TIP3    H2 8934   1.544   1.836   0.073
 2997TIP3   OH2 8935   5.525   0.426   4.451
 2997TIP3    H1 8936   5.597   0.396   4.506
 2997TIP3    H2 8937   5.472   0.481   4.509
 2998TIP3   OH2 8938   2.035   0.874   2.895
 2998TIP3    H1 8939   1.963   0.875   2.832
 2998TIP3    H2 8940   2.108   0.914   2.849
 2999TIP3   OH2 8941   0.308   6.170   3.804
 2999TIP3    H1 8942   0.297   6.138   3.893
 2999TIP3    H2 8943   0.335   6.093   3.754
 3000TIP3   OH2 8944   2.577   1.889   0.880
 3000TIP3    H1 8945   2.631   1.917   0.954
 3000TIP3    H2 8946   2.618   1.808   0.849
 3001TIP3   OH2 8947   1.214   3.768   4.135
 3001TIP3    H1 8948   1.209   3.862   4.117
 3001TIP3    H2 8949   1.265   3.762   4.216
 3002TIP3   OH2 8950   1.747   5.543   0.927
 3002TIP3    H1 8951   1.789   5.528   0.842
 3002TIP3    H2 8952   1.818   5.569   0.985
 3003TIP3   OH2 8953   2.248   5.264   1.881
 3003TIP3    H1 8954   2.206   5.178   1.889
 3003TIP3    H2 8955   2.337   5.244   1.852
 3004TIP3   OH2 8956   3.783   5.085   6.173
 3004TIP3    H1 8957   3.732   5.083   6.254
 3004TIP3    H2 8958   3.748   5.012   6.121
 3005TIP3   OH2 8959   1.176   1.638   1.407
 3005TIP3    H1 8960   1.252   1.586   1.380
 3005TIP3    H2 8961   1.101   1.594   1.368
 3006TIP3   OH2 8962   5.097   5.805   4.157
 3006TIP3    H1 8963   5.087   5.898   4.140
 3006TIP3    H2 8964   5.170   5.799   4.219
 3007TIP3   OH2 8965   7.766   0.100   0.313
 3007TIP3    H1 8966   7.837   0.116   0.375
 3007TIP3    H2 8967   7.809   0.060   0.238
 3008TIP3   OH2 8968   1.676   4.422   2.523
 3008TIP3    H1 8969   1.742   4.484   2.552
 3008TIP3    H2 8970   1.725   4.357   2.473
 3009TIP3   OH2 8971   2.771   4.935   5.989
 3009TIP3    H1 8972   2.704   4.971   6.046
 3009TIP3    H2 8973   2.726   4.865   5.941
 3010TIP3   OH2 8974   0.033   3.151   6.103
 3010TIP3    H1 8975   0.002   3.230   6.059
 3010TIP3    H2 8976  -0.040   3.090   6.097
 3011TIP3   OH2 8977   0.928   0.740   4.816
 3011TIP3    H1 8978   0.982   0.705   4.745
 3011TIP3    H2 8979   0.906   0.663   4.869
 3012TIP3   OH2 8980   4.500   7.091   5.989
 3012TIP3    H1 8981   4.452   7.172   5.977
 3012TIP3    H2 8982   4.583   7.118   6.029
 3013TIP3   OH2 8983   1.167   4.589   1.281
 3013TIP3    H1 8984   1.215   4.521   1.233
 3013TIP3    H2 8985   1.117   4.541   1.347
 3014TIP3   OH2 8986   5.601   7.506   3.691
 3014TIP3    H1 8987   5.512   7.516   3.724
 3014TIP3    H2 8988   5.606   7.567   3.618
 3015TIP3   OH2 8989   3.882   2.072   2.922
 3015TIP3    H1 8990   3.954   2.032   2.971
 3015TIP3    H2 8991   3.907   2.062   2.831
 3016TIP3   OH2 8992   3.914   1.467   4.500
 3016TIP3    H1 8993   3.915   1.562   4.495
 3016TIP3    H2 8994   3.995   1.444   4.546
 3017TIP3   OH2 8995   2.951   4.968   3.924
 3017TIP3    H1 8996   3.045   4.957   3.935
 3017TIP3    H2 8997   2.942   5.040   3.862
 3018TIP3   OH2 8998   5.159   2.958   1.771
 3018TIP3    H1 8999   5.226   3.023   1.754
 3018TIP3    H2 9000   5.157   2.950   1.867
 3019TIP3   OH2 9001   6.896   6.448   0.041
 3019TIP3    H1 9002   6.939   6.363   0.027
 3019TIP3    H2 9003   6.806   6.425   0.066
 3020TIP3   OH2 9004   2.534   4.798   0.425
 3020TIP3    H1 9005   2.588   4.769   0.351
 3020TIP3    H2 9006   2.501   4.717   0.464
 3021TIP3   OH2 9007   6.998   7.432   5.078
 3021TIP3    H1 9008   7.036   7.345   5.074
 3021TIP3    H2 9009   7.051   7.485   5.019
 3022TIP3   OH2 9010   7.276   6.540   2.638
 3022TIP3    H1 9011   7.243   6.530   2.727
 3022TIP3    H2 9012   7.207   6.589   2.592
 3023TIP3   OH2 9013   7.799   6.304   1.123
 3023TIP3    H1 9014   7.736   6.234   1.137
 3023TIP3    H2 9015   7.804   6.348   1.208
 3024TIP3   OH2 9016   5.045   7.532   2.741
 3024TIP3    H1 9017   5.018   7.448   2.705
 3024TIP3    H2 9018   4.990   7.596   2.697
 3025TIP3   OH2 9019   1.770   4.654   4.800
 3025TIP3    H1 9020   1.825   4.722   4.761
 3025TIP3    H2 9021   1.689   4.699   4.822
 3026TIP3   OH2 9022   7.613   5.835   0.127
 3026TIP3    H1 9023   7.665   5.807   0.051
 3026TIP3    H2 9024   7.523   5.839   0.094
 3027TIP3   OH2 9025   7.539   3.252   1.491
 3027TIP3    H1 9026   7.536   3.263   1.396
 3027TIP3    H2 9027   7.588   3.171   1.504
 3028TIP3   OH2 9028   3.190   4.154   5.510
 3028TIP3    H1 9029   3.270   4.194   5.475
 3028TIP3    H2 9030   3.196   4.062   5.484
 3029TIP3   OH2 9031   0.768   5.023   0.532
 3029TIP3    H1 9032   0.806   4.994   0.448
 3029TIP3    H2 9033   0.844   5.030   0.590
 3030TIP3   OH2 9034   6.221   5.747   1.544
 3030TIP3    H1 9035   6.139   5.754   1.496
 3030TIP3    H2 9036   6.197   5.765   1.635
 3031TIP3   OH2 9037   6.414   3.705   2.269
 3031TIP3    H1 9038   6.332   3.751   2.248
 3031TIP3    H2 9039   6.385   3.618   2.298
 3032TIP3   OH2 9040   0.457   4.830   3.571
 3032TIP3    H1 9041   0.384   4.868   3.522
 3032TIP3    H2 9042   0.534   4.879   3.541
 3033TIP3   OH2 9043   6.162   3.623   3.940
 3033TIP3    H1 9044   6.101   3.644   3.869
 3033TIP3    H2 9045   6.210   3.705   3.956
 3034TIP3   OH2 9046   1.787   5.632   6.261
 3034TIP3    H1 9047   1.758   5.552   6.219
 3034TIP3    H2 9048   1.880   5.617   6.280
 3035TIP3   OH2 9049   3.495   2.768   4.373
 3035TIP3    H1 9050   3.455   2.708   4.310
 3035TIP3    H2 9051   3.538   2.834   4.320
 3036TIP3   OH2 9052   6.954   2.106   4.390
 3036TIP3    H1 9053   7.046   2.078   4.395
 3036TIP3    H2 9054   6.933   2.134   4.479
 3037TIP3   OH2 9055   7.587   2.271   1.622
 3037TIP3    H1 9056   7.674   2.265   1.662
 3037TIP3    H2 9057   7.533   2.315   1.688
 3038TIP3   OH2 9058   1.346   1.035   0.996
 3038TIP3    H1 9059   1.290   0.961   0.973
 3038TIP3    H2 9060   1.403   1.002   1.065
 3039TIP3   OH2 9061   6.992   7.639   2.083
 3039TIP3    H1 9062   6.928   7.703   2.052
 3039TIP3    H2 9063   7.076   7.683   2.073
 3040TIP3   OH2 9064   6.123   0.034   5.844
 3040TIP3    H1 9065   6.184   0.015   5.772
 3040TIP3    H2 9066   6.077  -0.048   5.858
 3041TIP3   OH2 9067   3.457   3.248   0.340
 3041TIP3    H1 9068   3.515   3.305   0.289
 3041TIP3    H2 9069   3.516   3.194   0.392
 3042TIP3   OH2 9070   2.068   3.302   1.387
 3042TIP3    H1 9071   2.015   3.267   1.316
 3042TIP3    H2 9072   2.057   3.239   1.458
 3043TIP3   OH2 9073   8.052   5.674   1.814
 3043TIP3    H1 9074   8.140   5.638   1.805
 3043TIP3    H2 9075   8.065   5.760   1.855
 3044TIP3   OH2 9076   4.115   4.018   4.160
 3044TIP3    H1 9077   4.051   3.947   4.163
 3044TIP3    H2 9078   4.076   4.083   4.101
 3045TIP3   OH2 9079   1.087   7.214   0.850
 3045TIP3    H1 9080   1.002   7.251   0.826
 3045TIP3    H2 9081   1.087   7.214   0.945
 3046TIP3   OH2 9082   0.633   4.960   2.020
 3046TIP3    H1 9083   0.582   4.884   2.048
 3046TIP3    H2 9084   0.624   5.022   2.092
 3047TIP3   OH2 9085   6.420   3.003   6.079
 3047TIP3    H1 9086   6.362   3.079   6.080
 3047TIP3    H2 9087   6.507   3.038   6.098
 3048TIP3   OH2 9088   1.705   4.190   3.481
 3048TIP3    H1 9089   1.771   4.137   3.436
 3048TIP3    H2 9090   1.626   4.180   3.428
 3049TIP3   OH2 9091   2.352   0.719   4.289
 3049TIP3    H1 9092   2.408   0.796   4.281
 3049TIP3    H2 9093   2.341   0.688   4.199
 3050TIP3   OH2 9094   0.963   5.834   4.429
 3050TIP3    H1 9095   0.909   5.862   4.504
 3050TIP3    H2 9096   1.015   5.912   4.407
 3051TIP3   OH2 9097   2.708   5.589   3.324
 3051TIP3    H1 9098   2.745   5.621   3.406
 3051TIP3    H2 9099   2.621   5.556   3.348
 3052TIP3   OH2 9100   3.043   3.461   3.267
 3052TIP3    H1 9101   3.098   3.422   3.199
 3052TIP3    H2 9102   3.026   3.388   3.328
 3053TIP3   OH2 9103   6.913   0.716   3.849
 3053TIP3    H1 9104   6.920   0.668   3.767
 3053TIP3    H2 9105   6.823   0.700   3.879
 3054TIP3   OH2 9106   6.956   5.887   4.545
 3054TIP3    H1 9107   7.024   5.821   4.527
 3054TIP3    H2 9108   6.990   5.968   4.507
 3055TIP3   OH2 9109   4.918   1.630   3.269
 3055TIP3    H1 9110   4.871   1.575   3.206
 3055TIP3    H2 9111   5.010   1.607   3.257
 3056TIP3   OH2 9112   7.300   5.059   6.592
 3056TIP3    H1 9113   7.275   4.978   6.547
 3056TIP3    H2 9114   7.232   5.071   6.659
 3057TIP3   OH2 9115   5.849   4.322   3.137
 3057TIP3    H1 9116   5.846   4.406   3.183
 3057TIP3    H2 9117   5.921   4.332   3.075
 3058TIP3   OH2 9118   0.699   5.088   3.314
 3058TIP3    H1 9119   0.780   5.070   3.266
 3058TIP3    H2 9120   0.696   5.020   3.381
 3059TIP3   OH2 9121   4.732   4.950   4.987
 3059TIP3    H1 9122   4.753   4.951   4.893
 3059TIP3    H2 9123   4.717   5.042   5.009
 3060TIP3   OH2 9124   4.877   5.069   3.323
 3060TIP3    H1 9125   4.842   4.982   3.306
 3060TIP3    H2 9126   4.927   5.090   3.244
 3061TIP3   OH2 9127   1.998   2.382   5.701
 3061TIP3    H1 9128   2.069   2.327   5.736
 3061TIP3    H2 9129   2.020   2.393   5.608
 3062TIP3   OH2 9130   7.036   0.243   6.030
 3062TIP3    H1 9131   7.080   0.160   6.046
 3062TIP3    H2 9132   7.030   0.250   5.935
 3063TIP3   OH2 9133   0.211   2.480   4.251
 3063TIP3    H1 9134   0.236   2.470   4.160
 3063TIP3    H2 9135   0.218   2.574   4.268
 3064TIP3   OH2 9136   5.684   6.637   0.394
 3064TIP3    H1 9137   5.588   6.630   0.394
 3064TIP3    H2 9138   5.713   6.567   0.336
 3065TIP3   OH2 9139   2.740   4.090   5.406
 3065TIP3    H1 9140   2.735   4.058   5.496
 3065TIP3    H2 9141   2.796   4.027   5.361
 3066TIP3   OH2 9142   6.477   1.121   3.710
 3066TIP3    H1 9143   6.384   1.123   3.729
 3066TIP3    H2 9144   6.516   1.185   3.771
 3067TIP3   OH2 9145   2.162   1.566   1.949
 3067TIP3    H1 9146   2.075   1.576   1.911
 3067TIP3    H2 9147   2.221   1.600   1.881
 3068TIP3   OH2 9148   4.127   5.893   5.526
 3068TIP3    H1 9149   4.119   5.937   5.611
 3068TIP3    H2 9150   4.037   5.877   5.498
 3069TIP3   OH2 9151   6.595   0.875   0.112
 3069TIP3    H1 9152   6.545   0.906   0.037
 3069TIP3    H2 9153   6.577   0.781   0.116
 3070TIP3   OH2 9154   4.602   0.630   4.403
 3070TIP3    H1 9155   4.545   0.624   4.479
 3070TIP3    H2 9156   4.660   0.704   4.422
 3071TIP3   OH2 9157   1.319   1.076   1.808
 3071TIP3    H1 9158   1.236   1.028   1.805
 3071TIP3    H2 9159   1.297   1.162   1.772
 3072TIP3   OH2 9160   3.694   4.277   1.973
 3072TIP3    H1 9161   3.711   4.357   1.923
 3072TIP3    H2 9162   3.627   4.231   1.922
 3073TIP3   OH2 9163   6.412   2.028   1.362
 3073TIP3    H1 9164   6.362   2.059   1.288
 3073TIP3    H2 9165   6.350   1.976   1.413
 3074TIP3   OH2 9166   4.743   3.177   5.379
 3074TIP3    H1 9167   4.827   3.136   5.400
 3074TIP3    H2 9168   4.729   3.240   5.450
 3075TIP3   OH2 9169   3.624   6.535   5.203
 3075TIP3    H1 9170   3.617   6.496   5.290
 3075TIP3    H2 9171   3.690   6.603   5.213
 3076TIP3   OH2 9172   6.554   4.279   6.702
 3076TIP3    H1 9173   6.630   4.281   6.760
 3076TIP3    H2 9174   6.585   4.314   6.619
 3077TIP3   OH2 9175   6.442   3.012   2.862
 3077TIP3    H1 9176   6.386   2.953   2.811
 3077TIP3    H2 9177   6.411   3.100   2.842
 3078TIP3   OH2 9178   2.571   2.269   4.405
 3078TIP3    H1 9179   2.613   2.310   4.481
 3078TIP3    H2 9180   2.491   2.319   4.392
 3079TIP3   OH2 9181   2.119   0.100   3.991
 3079TIP3    H1 9182   2.072   0.059   3.919
 3079TIP3    H2 9183   2.167   0.172   3.951
 3080TIP3   OH2 9184   3.024   1.801   5.415
 3080TIP3    H1 9185   2.962   1.747   5.464
 3080TIP3    H2 9186   3.075   1.846   5.482
 3081TIP3   OH2 9187   5.277   4.843   5.653
 3081TIP3    H1 9188   5.200   4.900   5.657
 3081TIP3    H2 9189   5.294   4.831   5.559
 3082TIP3   OH2 9190   0.229   7.785   1.859
 3082TIP3    H1 9191   0.258   7.872   1.888
 3082TIP3    H2 9192   0.197   7.799   1.770
 3083TIP3   OH2 9193   7.644   0.675   4.023
 3083TIP3    H1 9194   7.579   0.632   4.079
 3083TIP3    H2 9195   7.727   0.659   4.067
 3084TIP3   OH2 9196   4.182   0.285   1.123
 3084TIP3    H1 9197   4.232   0.334   1.188
 3084TIP3    H2 9198   4.135   0.218   1.174
 3085TIP3   OH2 9199   5.803   1.766   3.155
 3085TIP3    H1 9200   5.835   1.689   3.107
 3085TIP3    H2 9201   5.711   1.748   3.172
 3086TIP3   OH2 9202   1.008   3.258   6.094
 3086TIP3    H1 9203   0.948   3.197   6.051
 3086TIP3    H2 9204   1.028   3.217   6.179
 3087TIP3   OH2 9205   4.655   0.091   4.041
 3087TIP3    H1 9206   4.701   0.047   4.113
 3087TIP3    H2 9207   4.614   0.167   4.082
 3088TIP3   OH2 9208   0.897   4.073   0.842
 3088TIP3    H1 9209   0.826   4.125   0.879
 3088TIP3    H2 9210   0.957   4.057   0.915
 3089TIP3   OH2 9211   0.078   6.963   0.709
 3089TIP3    H1 9212   0.063   6.975   0.803
 3089TIP3    H2 9213   0.172   6.978   0.698
 3090TIP3   OH2 9214   2.792   1.967   4.905
 3090TIP3    H1 9215   2.766   1.885   4.865
 3090TIP3    H2 9216   2.819   2.023   4.832
 3091TIP3   OH2 9217   2.926   5.951   5.778
 3091TIP3    H1 9218   2.892   6.012   5.713
 3091TIP3    H2 9219   2.888   5.981   5.861
 3092TIP3   OH2 9220   1.932   2.078   3.297
 3092TIP3    H1 9221   1.850   2.114   3.263
 3092TIP3    H2 9222   1.920   2.077   3.392
 3093TIP3   OH2 9223   4.075   1.993   3.128
 3093TIP3    H1 9224   4.166   2.014   3.104
 3093TIP3    H2 9225   4.077   1.900   3.148
 3094TIP3   OH2 9226   7.789   0.240   3.603
 3094TIP3    H1 9227   7.879   0.226   3.573
 3094TIP3    H2 9228   7.798   0.275   3.691
 3095TIP3   OH2 9229   0.631   2.444   1.571
 3095TIP3    H1 9230   0.629   2.362   1.621
 3095TIP3    H2 9231   0.573   2.427   1.496
 3096TIP3   OH2 9232   7.633   7.544   0.993
 3096TIP3    H1 9233   7.611   7.551   0.900
 3096TIP3    H2 9234   7.690   7.466   0.998
 3097TIP3   OH2 9235   0.717   2.938   3.917
 3097TIP3    H1 9236   0.685   2.848   3.905
 3097TIP3    H2 9237   0.721   2.949   4.012
 3098TIP3   OH2 9238   2.170   6.936   2.250
 3098TIP3    H1 9239   2.239   6.972   2.194
 3098TIP3    H2 9240   2.115   6.884   2.191
 3099TIP3   OH2 9241   6.108   2.064   6.495
 3099TIP3    H1 9242   6.081   2.128   6.429
 3099TIP3    H2 9243   6.070   2.096   6.577
 3100TIP3   OH2 9244   3.447   1.690   3.751
 3100TIP3    H1 9245   3.372   1.661   3.804
 3100TIP3    H2 9246   3.479   1.610   3.709
 3101TIP3   OH2 9247   6.369   4.952   6.583
 3101TIP3    H1 9248   6.378   4.857   6.575
 3101TIP3    H2 9249   6.440   4.977   6.642
 3102TIP3   OH2 9250   6.896   5.638   3.078
 3102TIP3    H1 9251   6.977   5.642   3.028
 3102TIP3    H2 9252   6.827   5.637   3.012
 3103TIP3   OH2 9253   2.067   2.051   5.533
 3103TIP3    H1 9254   2.041   1.966   5.569
 3103TIP3    H2 9255   2.081   2.107   5.609
 3104TIP3   OH2 9256   6.952   2.997   3.287
 3104TIP3    H1 9257   7.036   2.952   3.293
 3104TIP3    H2 9258   6.927   3.012   3.378
 3105TIP3   OH2 9259   7.775   6.273   6.181
 3105TIP3    H1 9260   7.774   6.288   6.276
 3105TIP3    H2 9261   7.700   6.215   6.165
 3106TIP3   OH2 9262   5.872   7.755   1.115
 3106TIP3    H1 9263   5.957   7.735   1.156
 3106TIP3    H2 9264   5.810   7.755   1.188
 3107TIP3   OH2 9265   6.819   1.149   0.573
 3107TIP3    H1 9266   6.751   1.092   0.607
 3107TIP3    H2 9267   6.874   1.169   0.648
 3108TIP3   OH2 9268   6.140   6.101   0.566
 3108TIP3    H1 9269   6.202   6.150   0.620
 3108TIP3    H2 9270   6.191   6.072   0.491
 3109TIP3   OH2 9271   0.824   0.935   1.014
 3109TIP3    H1 9272   0.873   0.982   1.082
 3109TIP3    H2 9273   0.812   1.000   0.945
 3110TIP3   OH2 9274   5.159   5.480   2.305
 3110TIP3    H1 9275   5.137   5.560   2.258
 3110TIP3    H2 9276   5.099   5.413   2.270
 3111TIP3   OH2 9277   3.270   2.197   2.510
 3111TIP3    H1 9278   3.201   2.189   2.444
 3111TIP3    H2 9279   3.241   2.143   2.582
 3112TIP3   OH2 9280   5.742   1.887   1.310
 3112TIP3    H1 9281   5.687   1.845   1.376
 3112TIP3    H2 9282   5.827   1.898   1.352
 3113TIP3   OH2 9283   6.189   0.707   5.042
 3113TIP3    H1 9284   6.195   0.640   4.975
 3113TIP3    H2 9285   6.196   0.660   5.125
 3114TIP3   OH2 9286   4.946   1.884   3.988
 3114TIP3    H1 9287   4.910   1.888   4.076
 3114TIP3    H2 9288   4.870   1.869   3.932
 3115TIP3   OH2 9289   2.025   4.456   6.158
 3115TIP3    H1 9290   2.012   4.537   6.109
 3115TIP3    H2 9291   1.982   4.472   6.242
 3116TIP3   OH2 9292   7.785   4.152   4.905
 3116TIP3    H1 9293   7.809   4.200   4.984
 3116TIP3    H2 9294   7.781   4.220   4.837
 3117TIP3   OH2 9295   4.235   5.757   0.700
 3117TIP3    H1 9296   4.230   5.853   0.695
 3117TIP3    H2 9297   4.145   5.730   0.719
 3118TIP3   OH2 9298   2.598   0.498   0.206
 3118TIP3    H1 9299   2.693   0.492   0.214
 3118TIP3    H2 9300   2.583   0.584   0.168
 3119TIP3   OH2 9301   6.718   5.359   3.166
 3119TIP3    H1 9302   6.769   5.301   3.110
 3119TIP3    H2 9303   6.782   5.400   3.224
 3120TIP3   OH2 9304   6.070   2.619   1.652
 3120TIP3    H1 9305   6.013   2.606   1.576
 3120TIP3    H2 9306   6.055   2.710   1.677
 3121TIP3   OH2 9307   6.493   4.178   3.130
 3121TIP3    H1 9308   6.506   4.153   3.221
 3121TIP3    H2 9309   6.402   4.206   3.126
 3122TIP3   OH2 9310   0.529   5.986   1.016
 3122TIP3    H1 9311   0.462   6.036   1.063
 3122TIP3    H2 9312   0.599   5.974   1.080
 3123TIP3   OH2 9313   1.886   0.540   1.581
 3123TIP3    H1 9314   1.967   0.585   1.554
 3123TIP3    H2 9315   1.823   0.564   1.513
 3124TIP3   OH2 9316   1.106   1.920   5.808
 3124TIP3    H1 9317   1.127   1.873   5.889
 3124TIP3    H2 9318   1.067   1.853   5.752
 3125TIP3   OH2 9319   2.877   5.670   2.934
 3125TIP3    H1 9320   2.953   5.657   2.878
 3125TIP3    H2 9321   2.906   5.641   3.021
 3126TIP3   OH2 9322   5.993   1.461   4.987
 3126TIP3    H1 9323   5.904   1.492   5.001
 3126TIP3    H2 9324   6.022   1.508   4.908
 3127TIP3   OH2 9325   6.582   6.813   2.949
 3127TIP3    H1 9326   6.547   6.853   3.029
 3127TIP3    H2 9327   6.552   6.869   2.878
 3128TIP3   OH2 9328   0.207   1.668   5.062
 3128TIP3    H1 9329   0.235   1.659   4.971
 3128TIP3    H2 9330   0.283   1.702   5.108
 3129TIP3   OH2 9331   0.022   4.900   5.776
 3129TIP3    H1 9332  -0.036   4.948   5.835
 3129TIP3    H2 9333   0.090   4.964   5.751
 3130TIP3   OH2 9334   5.819   4.075   4.408
 3130TIP3    H1 9335   5.724   4.064   4.401
 3130TIP3    H2 9336   5.849   4.085   4.318
 3131TIP3   OH2 9337   1.392   2.850   5.679
 3131TIP3    H1 9338   1.412   2.758   5.699
 3131TIP3    H2 9339   1.421   2.897   5.757
 3132TIP3   OH2 9340   1.135   7.591   0.239
 3132TIP3    H1 9341   1.224   7.572   0.208
 3132TIP3    H2 9342   1.112   7.674   0.197
 3133TIP3   OH2 9343   0.600   4.499   0.613
 3133TIP3    H1 9344   0.630   4.484   0.702
 3133TIP3    H2 9345   0.511   4.534   0.624
 3134TIP3   OH2 9346   4.040   6.317   3.202
 3134TIP3    H1 9347   4.008   6.323   3.292
 3134TIP3    H2 9348   3.984   6.377   3.153
 3135TIP3   OH2 9349   0.789   7.566   6.170
 3135TIP3    H1 9350   0.866   7.575   6.113
 3135TIP3    H2 9351   0.826   7.564   6.259
 3136TIP3   OH2 9352   3.450   7.687   3.009
 3136TIP3    H1 9353   3.407   7.605   2.985
 3136TIP3    H2 9354   3.543   7.665   3.016
 3137TIP3   OH2 9355   3.644   2.058   5.574
 3137TIP3    H1 9356   3.726   2.104   5.589
 3137TIP3    H2 9357   3.671   1.967   5.558
 3138TIP3   OH2 9358   3.435   0.243   1.569
 3138TIP3    H1 9359   3.522   0.282   1.584
 3138TIP3    H2 9360   3.413   0.269   1.479
 3139TIP3   OH2 9361   7.384   2.273   2.782
 3139TIP3    H1 9362   7.424   2.193   2.747
 3139TIP3    H2 9363   7.447   2.342   2.762
 3140TIP3   OH2 9364   2.610   0.243   1.315
 3140TIP3    H1 9365   2.665   0.245   1.393
 3140TIP3    H2 9366   2.529   0.287   1.341
 3141TIP3   OH2 9367   7.135   7.613   3.266
 3141TIP3    H1 9368   7.175   7.686   3.313
 3141TIP3    H2 9369   7.205   7.581   3.209
 3142TIP3   OH2 9370   3.648   5.106   4.242
 3142TIP3    H1 9371   3.584   5.158   4.290
 3142TIP3    H2 9372   3.719   5.167   4.222
 3143TIP3   OH2 9373   7.604   1.118   0.344
 3143TIP3    H1 9374   7.556   1.066   0.408
 3143TIP3    H2 9375   7.543   1.188   0.319
 3144TIP3   OH2 9376   5.701   0.051   3.262
 3144TIP3    H1 9377   5.741   0.030   3.177
 3144TIP3    H2 9378   5.683   0.145   3.257
 3145TIP3   OH2 9379   4.017   3.741   4.438
 3145TIP3    H1 9380   4.028   3.778   4.351
 3145TIP3    H2 9381   4.049   3.651   4.430
 3146TIP3   OH2 9382   7.635   2.227   2.152
 3146TIP3    H1 9383   7.666   2.306   2.196
 3146TIP3    H2 9384   7.664   2.155   2.208
 3147TIP3   OH2 9385   3.570   5.149   3.291
 3147TIP3    H1 9386   3.628   5.148   3.215
 3147TIP3    H2 9387   3.617   5.200   3.357
 3148TIP3   OH2 9388   8.140   6.945   6.250
 3148TIP3    H1 9389   8.161   7.034   6.221
 3148TIP3    H2 9390   8.049   6.949   6.279
 3149TIP3   OH2 9391   2.398   7.336   4.378
 3149TIP3    H1 9392   2.383   7.430   4.369
 3149TIP3    H2 9393   2.474   7.319   4.322
 3150TIP3   OH2 9394   5.887   7.324   2.740
 3150TIP3    H1 9395   5.809   7.378   2.754
 3150TIP3    H2 9396   5.915   7.300   2.828
 3151TIP3   OH2 9397   6.783   1.268   1.278
 3151TIP3    H1 9398   6.772   1.345   1.221
 3151TIP3    H2 9399   6.832   1.206   1.224
 3152TIP3   OH2 9400   0.851   4.897   4.830
 3152TIP3    H1 9401   0.833   4.981   4.788
 3152TIP3    H2 9402   0.856   4.834   4.758
 3153TIP3   OH2 9403   6.240   7.329   5.448
 3153TIP3    H1 9404   6.262   7.422   5.453
 3153TIP3    H2 9405   6.168   7.319   5.511
 3154TIP3   OH2 9406   3.100   3.377   4.409
 3154TIP3    H1 9407   3.034   3.412   4.349
 3154TIP3    H2 9408   3.182   3.417   4.380
 3155TIP3   OH2 9409   8.049   6.772   6.761
 3155TIP3    H1 9410   7.979   6.716   6.729
 3155TIP3    H2 9411   8.099   6.717   6.821
 3156TIP3   OH2 9412   4.693   3.307   0.502
 3156TIP3    H1 9413   4.647   3.391   0.503
 3156TIP3    H2 9414   4.785   3.331   0.501
 3157TIP3   OH2 9415   0.381   4.092   3.473
 3157TIP3    H1 9416   0.417   4.060   3.555
 3157TIP3    H2 9417   0.456   4.098   3.414
 3158TIP3   OH2 9418   2.105   1.902   3.434
 3158TIP3    H1 9419   2.010   1.915   3.440
 3158TIP3    H2 9420   2.116   1.808   3.427
 3159TIP3   OH2 9421   2.923   6.844   1.750
 3159TIP3    H1 9422   3.017   6.830   1.751
 3159TIP3    H2 9423   2.896   6.836   1.841
 3160TIP3   OH2 9424   4.602   4.838   0.766
 3160TIP3    H1 9425   4.618   4.887   0.686
 3160TIP3    H2 9426   4.506   4.841   0.777
 3161TIP3   OH2 9427   6.501   2.997   0.676
 3161TIP3    H1 9428   6.443   2.954   0.613
 3161TIP3    H2 9429   6.584   3.008   0.630
 3162TIP3   OH2 9430   8.184   3.704   3.054
 3162TIP3    H1 9431   8.260   3.696   2.997
 3162TIP3    H2 9432   8.200   3.642   3.125
 3163TIP3   OH2 9433   7.485   7.663   2.314
 3163TIP3    H1 9434   7.476   7.748   2.271
 3163TIP3    H2 9435   7.552   7.618   2.264
 3164TIP3   OH2 9436   5.100   5.130   2.219
 3164TIP3    H1 9437   5.021   5.173   2.251
 3164TIP3    H2 9438   5.111   5.054   2.277
 3165TIP3   OH2 9439   3.802   1.244   6.028
 3165TIP3    H1 9440   3.743   1.232   6.102
 3165TIP3    H2 9441   3.865   1.173   6.036
 3166TIP3   OH2 9442   8.025   5.326   2.361
 3166TIP3    H1 9443   8.042   5.420   2.353
 3166TIP3    H2 9444   8.051   5.304   2.451
 3167TIP3   OH2 9445   6.763   4.718   0.796
 3167TIP3    H1 9446   6.829   4.749   0.859
 3167TIP3    H2 9447   6.681   4.718   0.846
 3168TIP3   OH2 9448   8.208   6.528   2.125
 3168TIP3    H1 9449   8.133   6.564   2.077
 3168TIP3    H2 9450   8.220   6.440   2.089
 3169TIP3   OH2 9451   4.409   2.377   0.250
 3169TIP3    H1 9452   4.355   2.350   0.176
 3169TIP3    H2 9453   4.481   2.314   0.251
 3170TIP3   OH2 9454   7.579   0.527   1.344
 3170TIP3    H1 9455   7.591   0.547   1.251
 3170TIP3    H2 9456   7.568   0.613   1.385
 3171TIP3   OH2 9457   7.451   4.161   2.740
 3171TIP3    H1 9458   7.443   4.247   2.698
 3171TIP3    H2 9459   7.493   4.180   2.824
 3172TIP3   OH2 9460   4.415   1.088   0.058
 3172TIP3    H1 9461   4.332   1.110   0.016
 3172TIP3    H2 9462   4.413   1.134   0.141
 3173TIP3   OH2 9463   7.901   1.101   1.542
 3173TIP3    H1 9464   7.877   1.013   1.570
 3173TIP3    H2 9465   7.970   1.128   1.602
 3174TIP3   OH2 9466   3.736   6.286   6.600
 3174TIP3    H1 9467   3.663   6.227   6.583
 3174TIP3    H2 9468   3.696   6.362   6.643
 3175TIP3   OH2 9469   1.607   6.409   1.388
 3175TIP3    H1 9470   1.657   6.420   1.469
 3175TIP3    H2 9471   1.523   6.375   1.417
 3176TIP3   OH2 9472   1.300   1.028   2.171
 3176TIP3    H1 9473   1.254   0.965   2.115
 3176TIP3    H2 9474   1.282   1.113   2.131
 3177TIP3   OH2 9475   5.573   7.072   0.870
 3177TIP3    H1 9476   5.541   6.989   0.834
 3177TIP3    H2 9477   5.626   7.046   0.946
 3178TIP3   OH2 9478   3.738   6.491   1.415
 3178TIP3    H1 9479   3.786   6.461   1.337
 3178TIP3    H2 9480   3.725   6.585   1.401
 3179TIP3   OH2 9481   5.065   7.185   4.867
 3179TIP3    H1 9482   4.991   7.158   4.812
 3179TIP3    H2 9483   5.121   7.108   4.872
 3180TIP3   OH2 9484   7.643   3.618   3.495
 3180TIP3    H1 9485   7.705   3.545   3.488
 3180TIP3    H2 9486   7.575   3.587   3.554
 3181TIP3   OH2 9487   6.427   0.897   4.064
 3181TIP3    H1 9488   6.464   0.808   4.068
 3181TIP3    H2 9489   6.338   0.884   4.030
 3182TIP3   OH2 9490   4.216   1.155   0.946
 3182TIP3    H1 9491   4.269   1.137   1.024
 3182TIP3    H2 9492   4.271   1.212   0.892
 3183TIP3   OH2 9493   1.238   0.201   4.979
 3183TIP3    H1 9494   1.222   0.153   5.060
 3183TIP3    H2 9495   1.321   0.165   4.946
 3184TIP3   OH2 9496   6.862   1.768   1.489
 3184TIP3    H1 9497   6.816   1.693   1.449
 3184TIP3    H2 9498   6.835   1.843   1.436
 3185TIP3   OH2 9499   5.938   3.968   3.616
 3185TIP3    H1 9500   5.948   4.060   3.592
 3185TIP3    H2 9501   5.996   3.921   3.556
 3186TIP3   OH2 9502   7.023   0.257   4.458
 3186TIP3    H1 9503   6.936   0.217   4.451
 3186TIP3    H2 9504   7.067   0.207   4.526
 3187TIP3   OH2 9505   0.755   5.435   1.759
 3187TIP3    H1 9506   0.823   5.463   1.821
 3187TIP3    H2 9507   0.749   5.340   1.771
 3188TIP3   OH2 9508   4.279   1.934   2.930
 3188TIP3    H1 9509   4.350   1.980   2.975
 3188TIP3    H2 9510   4.211   2.000   2.918
 3189TIP3   OH2 9511   3.086   2.195   2.277
 3189TIP3    H1 9512   3.141   2.158   2.208
 3189TIP3    H2 9513   3.054   2.118   2.325
 3190TIP3   OH2 9514   6.601   6.834   3.689
 3190TIP3    H1 9515   6.550   6.768   3.734
 3190TIP3    H2 9516   6.581   6.916   3.735
 3191TIP3   OH2 9517   5.110   3.381   4.785
 3191TIP3    H1 9518   5.103   3.328   4.864
 3191TIP3    H2 9519   5.033   3.437   4.787
 3192TIP3   OH2 9520   1.394   0.738   2.792
 3192TIP3    H1 9521   1.472   0.785   2.763
 3192TIP3    H2 9522   1.412   0.647   2.770
 3193TIP3   OH2 9523   5.435   3.201   0.090
 3193TIP3    H1 9524   5.448   3.232   0.180
 3193TIP3    H2 9525   5.475   3.114   0.089
 3194TIP3   OH2 9526   3.088   2.386   5.423
 3194TIP3    H1 9527   3.050   2.319   5.480
 3194TIP3    H2 9528   3.148   2.435   5.480
 3195TIP3   OH2 9529   1.473   6.351   5.111
 3195TIP3    H1 9530   1.380   6.351   5.091
 3195TIP3    H2 9531   1.479   6.379   5.202
 3196TIP3   OH2 9532   7.886   4.618   0.632
 3196TIP3    H1 9533   7.910   4.678   0.703
 3196TIP3    H2 9534   7.914   4.663   0.552
 3197TIP3   OH2 9535   4.884   3.184   1.887
 3197TIP3    H1 9536   4.977   3.205   1.889
 3197TIP3    H2 9537   4.860   3.186   1.795
 3198TIP3   OH2 9538   7.170   5.271   1.241
 3198TIP3    H1 9539   7.154   5.308   1.155
 3198TIP3    H2 9540   7.264   5.249   1.241
 3199TIP3   OH2 9541   2.091   3.922   1.595
 3199TIP3    H1 9542   2.162   3.859   1.605
 3199TIP3    H2 9543   2.098   3.980   1.670
 3200TIP3   OH2 9544   7.675   4.046   5.221
 3200TIP3    H1 9545   7.721   4.126   5.195
 3200TIP3    H2 9546   7.744   3.980   5.230
 3201TIP3   OH2 9547   2.498   1.510   2.526
 3201TIP3    H1 9548   2.441   1.553   2.590
 3201TIP3    H2 9549   2.547   1.581   2.485
 3202TIP3   OH2 9550   1.286   5.889   3.575
 3202TIP3    H1 9551   1.279   5.811   3.629
 3202TIP3    H2 9552   1.200   5.897   3.533
 3203TIP3   OH2 9553   7.095   0.626   3.127
 3203TIP3    H1 9554   7.064   0.716   3.132
 3203TIP3    H2 9555   7.175   0.625   3.180
 3204TIP3   OH2 9556   2.291   7.501   0.337
 3204TIP3    H1 9557   2.308   7.573   0.397
 3204TIP3    H2 9558   2.225   7.535   0.277
 3205TIP3   OH2 9559   1.700   5.281   0.048
 3205TIP3    H1 9560   1.619   5.325   0.076
 3205TIP3    H2 9561   1.770   5.327   0.095
 3206TIP3   OH2 9562   0.606   1.514   6.441
 3206TIP3    H1 9563   0.567   1.508   6.354
 3206TIP3    H2 9564   0.693   1.474   6.431
 3207TIP3   OH2 9565   6.716   1.894   2.124
 3207TIP3    H1 9566   6.715   1.977   2.076
 3207TIP3    H2 9567   6.805   1.862   2.114
 3208TIP3   OH2 9568   3.310   2.210   2.991
 3208TIP3    H1 9569   3.315   2.175   2.902
 3208TIP3    H2 9570   3.271   2.139   3.042
 3209TIP3   OH2 9571   0.162   3.343   5.198
 3209TIP3    H1 9572   0.119   3.259   5.212
 3209TIP3    H2 9573   0.105   3.390   5.138
 3210TIP3   OH2 9574   2.932   6.757   4.508
 3210TIP3    H1 9575   2.993   6.699   4.554
 3210TIP3    H2 9576   2.856   6.763   4.567
 3211TIP3   OH2 9577   5.377   1.719   0.495
 3211TIP3    H1 9578   5.367   1.672   0.412
 3211TIP3    H2 9579   5.327   1.800   0.484
 3212TIP3   OH2 9580   2.239   7.734   2.014
 3212TIP3    H1 9581   2.230   7.646   1.977
 3212TIP3    H2 9582   2.324   7.733   2.058
 3213TIP3   OH2 9583   0.126   4.013   1.816
 3213TIP3    H1 9584   0.171   4.079   1.869
 3213TIP3    H2 9585   0.115   3.938   1.875
 3214TIP3   OH2 9586   1.950   5.084   1.451
 3214TIP3    H1 9587   1.998   5.115   1.375
 3214TIP3    H2 9588   1.870   5.136   1.452
 3215TIP3   OH2 9589   8.177   7.234   1.776
 3215TIP3    H1 9590   8.238   7.174   1.817
 3215TIP3    H2 9591   8.175   7.311   1.833
 3216TIP3   OH2 9592   4.169   6.014   1.745
 3216TIP3    H1 9593   4.172   5.979   1.834
 3216TIP3    H2 9594   4.082   5.992   1.713
 3217TIP3   OH2 9595   5.350   4.529   1.434
 3217TIP3    H1 9596   5.369   4.497   1.346
 3217TIP3    H2 9597   5.278   4.591   1.422
 3218TIP3   OH2 9598   0.849   4.059   0.235
 3218TIP3    H1 9599   0.908   4.134   0.248
 3218TIP3    H2 9600   0.776   4.095   0.184
 3219TIP3   OH2 9601   4.918   0.837   2.201
 3219TIP3    H1 9602   4.918   0.748   2.236
 3219TIP3    H2 9603   5.004   0.848   2.162
 3220TIP3   OH2 9604   4.597   1.158   2.502
 3220TIP3    H1 9605   4.628   1.239   2.544
 3220TIP3    H2 9606   4.665   1.093   2.524
 3221TIP3   OH2 9607   5.912   6.249   2.838
 3221TIP3    H1 9608   5.936   6.164   2.874
 3221TIP3    H2 9609   5.878   6.229   2.750
 3222TIP3   OH2 9610   0.177   6.221   4.757
 3222TIP3    H1 9611   0.101   6.272   4.729
 3222TIP3    H2 9612   0.172   6.221   4.852
 3223TIP3   OH2 9613   0.608   0.357   5.310
 3223TIP3    H1 9614   0.696   0.322   5.320
 3223TIP3    H2 9615   0.619   0.439   5.262
 3224TIP3   OH2 9616   6.384   5.380   0.839
 3224TIP3    H1 9617   6.449   5.368   0.770
 3224TIP3    H2 9618   6.434   5.372   0.920
 3225TIP3   OH2 9619   4.068   4.556   5.708
 3225TIP3    H1 9620   4.020   4.592   5.782
 3225TIP3    H2 9621   4.000   4.529   5.647
 3226TIP3   OH2 9622   4.889   5.565   3.730
 3226TIP3    H1 9623   4.848   5.565   3.817
 3226TIP3    H2 9624   4.816   5.562   3.669
 3227TIP3   OH2 9625   6.792   0.640   3.202
 3227TIP3    H1 9626   6.867   0.588   3.230
 3227TIP3    H2 9627   6.803   0.723   3.248
 3228TIP3   OH2 9628   1.044   3.710   0.660
 3228TIP3    H1 9629   1.083   3.770   0.724
 3228TIP3    H2 9630   1.118   3.665   0.620
 3229TIP3   OH2 9631   0.847   5.878   0.908
 3229TIP3    H1 9632   0.799   5.960   0.904
 3229TIP3    H2 9633   0.815   5.834   0.987
 3230TIP3   OH2 9634   4.304   1.323   4.096
 3230TIP3    H1 9635   4.265   1.326   4.009
 3230TIP3    H2 9636   4.286   1.234   4.127
 3231TIP3   OH2 9637   0.636   7.206   4.211
 3231TIP3    H1 9638   0.592   7.121   4.210
 3231TIP3    H2 9639   0.703   7.197   4.280
 3232TIP3   OH2 9640   4.510   5.005   4.442
 3232TIP3    H1 9641   4.597   4.975   4.470
 3232TIP3    H2 9642   4.449   4.957   4.497
 3233TIP3   OH2 9643   7.143   6.552   5.172
 3233TIP3    H1 9644   7.205   6.569   5.102
 3233TIP3    H2 9645   7.106   6.638   5.193
 3234TIP3   OH2 9646   6.621   3.464   0.116
 3234TIP3    H1 9647   6.598   3.442   0.025
 3234TIP3    H2 9648   6.602   3.558   0.124
 3235TIP3   OH2 9649   1.470   5.260   3.716
 3235TIP3    H1 9650   1.378   5.262   3.692
 3235TIP3    H2 9651   1.484   5.171   3.748
 3236TIP3   OH2 9652   0.406   3.028   4.084
 3236TIP3    H1 9653   0.418   2.933   4.093
 3236TIP3    H2 9654   0.488   3.066   4.116
 3237TIP3   OH2 9655   6.459   4.824   6.257
 3237TIP3    H1 9656   6.516   4.774   6.316
 3237TIP3    H2 9657   6.502   4.908   6.247
 3238TIP3   OH2 9658   4.835   4.467   6.123
 3238TIP3    H1 9659   4.803   4.484   6.034
 3238TIP3    H2 9660   4.916   4.518   6.129
 3239TIP3   OH2 9661   6.920   3.723   2.188
 3239TIP3    H1 9662   6.888   3.755   2.103
 3239TIP3    H2 9663   6.986   3.788   2.214
 3240TIP3   OH2 9664   1.918   3.927   6.151
 3240TIP3    H1 9665   1.932   3.867   6.078
 3240TIP3    H2 9666   1.917   3.871   6.229
 3241TIP3   OH2 9667   2.021   4.301   2.783
 3241TIP3    H1 9668   1.999   4.378   2.836
 3241TIP3    H2 9669   1.981   4.319   2.698
 3242TIP3   OH2 9670   1.171   3.439   2.062
 3242TIP3    H1 9671   1.124   3.508   2.017
 3242TIP3    H2 9672   1.264   3.457   2.045
 3243TIP3   OH2 9673   2.600   4.977   5.578
 3243TIP3    H1 9674   2.572   5.056   5.533
 3243TIP3    H2 9675   2.554   4.979   5.662
 3244TIP3   OH2 9676   0.937   0.741   4.019
 3244TIP3    H1 9677   0.969   0.670   4.075
 3244TIP3    H2 9678   1.003   0.810   4.027
 3245TIP3   OH2 9679   3.084   6.756   3.464
 3245TIP3    H1 9680   3.033   6.682   3.497
 3245TIP3    H2 9681   3.019   6.824   3.449
 3246TIP3   OH2 9682   0.169   1.504   2.820
 3246TIP3    H1 9683   0.152   1.557   2.898
 3246TIP3    H2 9684   0.214   1.564   2.760
 3247TIP3   OH2 9685   0.316   2.072   1.759
 3247TIP3    H1 9686   0.292   1.981   1.741
 3247TIP3    H2 9687   0.308   2.080   1.854
 3248TIP3   OH2 9688   1.304   5.964   3.208
 3248TIP3    H1 9689   1.358   5.901   3.256
 3248TIP3    H2 9690   1.348   5.972   3.123
 3249TIP3   OH2 9691   6.693   0.217   4.778
 3249TIP3    H1 9692   6.774   0.178   4.745
 3249TIP3    H2 9693   6.712   0.310   4.788
 3250TIP3   OH2 9694   3.099   1.026   2.860
 3250TIP3    H1 9695   3.096   1.111   2.904
 3250TIP3    H2 9696   3.190   1.015   2.833
 3251TIP3   OH2 9697   0.391   6.352   3.474
 3251TIP3    H1 9698   0.315   6.379   3.423
 3251TIP3    H2 9699   0.382   6.396   3.558
 3252TIP3   OH2 9700   2.669   3.351   0.893
 3252TIP3    H1 9701   2.576   3.372   0.896
 3252TIP3    H2 9702   2.709   3.425   0.846
 3253TIP3   OH2 9703   3.588   1.329   0.358
 3253TIP3    H1 9704   3.627   1.243   0.370
 3253TIP3    H2 9705   3.548   1.326   0.271
 3254TIP3   OH2 9706   5.247   4.841   2.029
 3254TIP3    H1 9707   5.324   4.897   2.031
 3254TIP3    H2 9708   5.176   4.897   1.998
 3255TIP3   OH2 9709   8.148   0.477   4.230
 3255TIP3    H1 9710   8.159   0.418   4.304
 3255TIP3    H2 9711   8.177   0.562   4.262
 3256TIP3   OH2 9712   4.465   7.752   0.179
 3256TIP3    H1 9713   4.549   7.795   0.193
 3256TIP3    H2 9714   4.401   7.807   0.224
 3257TIP3   OH2 9715   0.037   4.841   4.408
 3257TIP3    H1 9716  -0.050   4.815   4.377
 3257TIP3    H2 9717   0.083   4.867   4.328
 3258TIP3   OH2 9718   8.204   6.776   0.423
 3258TIP3    H1 9719   8.270   6.812   0.363
 3258TIP3    H2 9720   8.253   6.750   0.500
 3259TIP3   OH2 9721   4.528   7.367   4.843
 3259TIP3    H1 9722   4.441   7.330   4.854
 3259TIP3    H2 9723   4.586   7.291   4.838
 3260TIP3   OH2 9724   2.607   4.378   3.117
 3260TIP3    H1 9725   2.611   4.295   3.069
 3260TIP3    H2 9726   2.669   4.435   3.071
 3261TIP3   OH2 9727   7.055   7.543   6.716
 3261TIP3    H1 9728   6.973   7.572   6.676
 3261TIP3    H2 9729   7.121   7.604   6.682
 3262TIP3   OH2 9730   7.401   4.988   1.422
 3262TIP3    H1 9731   7.412   4.942   1.339
 3262TIP3    H2 9732   7.307   5.006   1.427
 3263TIP3   OH2 9733   7.527   4.177   1.782
 3263TIP3    H1 9734   7.499   4.246   1.721
 3263TIP3    H2 9735   7.517   4.217   1.869
 3264TIP3   OH2 9736   4.094   6.711   5.103
 3264TIP3    H1 9737   4.173   6.683   5.148
 3264TIP3    H2 9738   4.125   6.767   5.032
 3265TIP3   OH2 9739   0.117   1.999   4.970
 3265TIP3    H1 9740   0.058   2.010   4.896
 3265TIP3    H2 9741   0.070   1.939   5.029
 3266TIP3   OH2 9742   3.285   0.732   0.685
 3266TIP3    H1 9743   3.252   0.670   0.619
 3266TIP3    H2 9744   3.365   0.691   0.718
 3267TIP3   OH2 9745   4.353   0.923   6.620
 3267TIP3    H1 9746   4.386   0.875   6.544
 3267TIP3    H2 9747   4.267   0.885   6.638
 3268TIP3   OH2 9748   5.572   3.620   4.842
 3268TIP3    H1 9749   5.576   3.692   4.904
 3268TIP3    H2 9750   5.546   3.660   4.759
 3269TIP3   OH2 9751   5.731   6.981   3.453
 3269TIP3    H1 9752   5.766   7.010   3.368
 3269TIP3    H2 9753   5.637   6.972   3.438
 3270TIP3   OH2 9754   3.865   5.722   4.212
 3270TIP3    H1 9755   3.935   5.753   4.269
 3270TIP3    H2 9756   3.844   5.635   4.245
 3271TIP3   OH2 9757   8.147   6.595   4.338
 3271TIP3    H1 9758   8.099   6.670   4.371
 3271TIP3    H2 9759   8.082   6.526   4.328
 3272TIP3   OH2 9760   1.950   3.375   5.616
 3272TIP3    H1 9761   1.866   3.341   5.586
 3272TIP3    H2 9762   1.937   3.470   5.620
 3273TIP3   OH2 9763   4.626   4.105   5.722
 3273TIP3    H1 9764   4.636   4.009   5.718
 3273TIP3    H2 9765   4.613   4.131   5.631
 3274TIP3   OH2 9766   6.991   1.500   6.398
 3274TIP3    H1 9767   6.972   1.556   6.473
 3274TIP3    H2 9768   7.042   1.428   6.434
 3275TIP3   OH2 9769   1.469   5.355   0.161
 3275TIP3    H1 9770   1.421   5.395   0.089
 3275TIP3    H2 9771   1.410   5.363   0.237
 3276TIP3   OH2 9772   2.669   1.621   5.306
 3276TIP3    H1 9773   2.678   1.631   5.401
 3276TIP3    H2 9774   2.693   1.707   5.271
 3277TIP3   OH2 9775   4.238   0.986   3.357
 3277TIP3    H1 9776   4.332   0.998   3.371
 3277TIP3    H2 9777   4.212   1.063   3.306
 3278TIP3   OH2 9778   6.361   0.569   3.058
 3278TIP3    H1 9779   6.294   0.620   3.104
 3278TIP3    H2 9780   6.327   0.561   2.969
 3279TIP3   OH2 9781   4.116   3.486   3.802
 3279TIP3    H1 9782   4.154   3.549   3.739
 3279TIP3    H2 9783   4.031   3.523   3.824
 3280TIP3   OH2 9784   4.471   7.621   2.140
 3280TIP3    H1 9785   4.477   7.672   2.059
 3280TIP3    H2 9786   4.539   7.554   2.131
 3281TIP3   OH2 9787   3.431   3.306   4.598
 3281TIP3    H1 9788   3.397   3.257   4.524
 3281TIP3    H2 9789   3.496   3.365   4.560
 3282TIP3   OH2 9790   4.188   3.261   4.924
 3282TIP3    H1 9791   4.109   3.207   4.933
 3282TIP3    H2 9792   4.167   3.322   4.854
 3283TIP3   OH2 9793   1.876   5.324   4.505
 3283TIP3    H1 9794   1.832   5.241   4.485
 3283TIP3    H2 9795   1.830   5.357   4.582
 3284TIP3   OH2 9796   0.857   0.414   2.681
 3284TIP3    H1 9797   0.783   0.400   2.740
 3284TIP3    H2 9798   0.933   0.378   2.727
 3285TIP3   OH2 9799   4.311   4.621   1.281
 3285TIP3    H1 9800   4.298   4.691   1.217
 3285TIP3    H2 9801   4.241   4.633   1.345
 3286TIP3   OH2 9802   4.076   4.228   4.713
 3286TIP3    H1 9803   4.112   4.146   4.680
 3286TIP3    H2 9804   3.981   4.217   4.707
 3287TIP3   OH2 9805   3.590   6.057   0.957
 3287TIP3    H1 9806   3.591   6.143   1.000
 3287TIP3    H2 9807   3.610   6.075   0.866
 3288TIP3   OH2 9808   5.993   1.198   6.685
 3288TIP3    H1 9809   6.086   1.218   6.694
 3288TIP3    H2 9810   5.950   1.283   6.675
 3289TIP3   OH2 9811   7.440   2.159   5.850
 3289TIP3    H1 9812   7.436   2.065   5.832
 3289TIP3    H2 9813   7.512   2.169   5.911
 3290TIP3   OH2 9814   1.837   5.403   2.111
 3290TIP3    H1 9815   1.839   5.434   2.201
 3290TIP3    H2 9816   1.914   5.442   2.070
 3291TIP3   OH2 9817   0.933   1.958   4.386
 3291TIP3    H1 9818   0.901   2.038   4.428
 3291TIP3    H2 9819   0.945   1.896   4.459
 3292TIP3   OH2 9820   4.708   2.335   2.658
 3292TIP3    H1 9821   4.770   2.320   2.587
 3292TIP3    H2 9822   4.695   2.430   2.658
 3293TIP3   OH2 9823   5.611   5.972   2.835
 3293TIP3    H1 9824   5.696   5.962   2.791
 3293TIP3    H2 9825   5.576   6.055   2.801
 3294TIP3   OH2 9826   7.949   2.035   6.133
 3294TIP3    H1 9827   7.898   2.033   6.051
 3294TIP3    H2 9828   7.985   2.123   6.137
 3295TIP3   OH2 9829   0.572   6.110   1.870
 3295TIP3    H1 9830   0.642   6.046   1.865
 3295TIP3    H2 9831   0.593   6.174   1.802
 3296TIP3   OH2 9832   5.318   6.642   6.426
 3296TIP3    H1 9833   5.403   6.676   6.453
 3296TIP3    H2 9834   5.254   6.693   6.477
 3297TIP3   OH2 9835   7.960   5.769   2.228
 3297TIP3    H1 9836   7.958   5.688   2.178
 3297TIP3    H2 9837   7.878   5.769   2.278
 3298TIP3   OH2 9838   0.060   7.651   4.628
 3298TIP3    H1 9839   0.116   7.729   4.629
 3298TIP3    H2 9840   0.110   7.584   4.674
 3299TIP3   OH2 9841   2.153   3.143   3.565
 3299TIP3    H1 9842   2.237   3.189   3.567
 3299TIP3    H2 9843   2.097   3.198   3.510
 3300TIP3   OH2 9844   4.720   7.726   2.975
 3300TIP3    H1 9845   4.678   7.812   2.982
 3300TIP3    H2 9846   4.716   7.706   2.881
 3301TIP3   OH2 9847   2.929   1.605   3.384
 3301TIP3    H1 9848   2.964   1.539   3.324
 3301TIP3    H2 9849   2.993   1.609   3.455
 3302TIP3   OH2 9850   7.242   1.104   1.019
 3302TIP3    H1 9851   7.263   1.197   1.025
 3302TIP3    H2 9852   7.259   1.082   0.927
 3303TIP3   OH2 9853   6.656   2.024   0.628
 3303TIP3    H1 9854   6.649   1.997   0.536
 3303TIP3    H2 9855   6.656   1.942   0.677
 3304TIP3   OH2 9856   3.449   7.746   2.014
 3304TIP3    H1 9857   3.516   7.678   2.020
 3304TIP3    H2 9858   3.370   7.698   1.989
 3305TIP3   OH2 9859   4.474   2.846   6.666
 3305TIP3    H1 9860   4.411   2.832   6.596
 3305TIP3    H2 9861   4.534   2.912   6.632
 3306TIP3   OH2 9862   5.742   2.586   2.239
 3306TIP3    H1 9863   5.698   2.621   2.162
 3306TIP3    H2 9864   5.670   2.567   2.300
 3307TIP3   OH2 9865   3.741   4.624   1.503
 3307TIP3    H1 9866   3.741   4.575   1.585
 3307TIP3    H2 9867   3.831   4.618   1.471
 3308TIP3   OH2 9868   8.026   0.202   4.973
 3308TIP3    H1 9869   7.941   0.209   5.018
 3308TIP3    H2 9870   8.090   0.202   5.044
 3309TIP3   OH2 9871   6.266   1.135   3.355
 3309TIP3    H1 9872   6.264   1.171   3.267
 3309TIP3    H2 9873   6.335   1.183   3.400
 3310TIP3   OH2 9874   3.004   5.440   3.126
 3310TIP3    H1 9875   2.973   5.412   3.212
 3310TIP3    H2 9876   2.940   5.404   3.064
 3311TIP3   OH2 9877   3.041   2.501   6.127
 3311TIP3    H1 9878   3.073   2.590   6.143
 3311TIP3    H2 9879   2.998   2.505   6.042
 3312TIP3   OH2 9880   2.568   6.837   4.544
 3312TIP3    H1 9881   2.616   6.802   4.619
 3312TIP3    H2 9882   2.571   6.767   4.478
 3313TIP3   OH2 9883   5.935   4.555   1.097
 3313TIP3    H1 9884   5.881   4.532   1.173
 3313TIP3    H2 9885   5.906   4.496   1.028
 3314TIP3   OH2 9886   1.238   0.065   0.756
 3314TIP3    H1 9887   1.156   0.023   0.729
 3314TIP3    H2 9888   1.222   0.095   0.845
 3315TIP3   OH2 9889   6.758   6.081   1.651
 3315TIP3    H1 9890   6.713   6.163   1.630
 3315TIP3    H2 9891   6.688   6.020   1.676
 3316TIP3   OH2 9892   1.367   3.536   3.970
 3316TIP3    H1 9893   1.308   3.500   4.037
 3316TIP3    H2 9894   1.364   3.631   3.985
 3317TIP3   OH2 9895   6.764   3.787   1.659
 3317TIP3    H1 9896   6.734   3.703   1.692
 3317TIP3    H2 9897   6.856   3.774   1.638
 3318TIP3   OH2 9898   0.916   1.688   5.165
 3318TIP3    H1 9899   0.840   1.747   5.160
 3318TIP3    H2 9900   0.922   1.649   5.078
 3319TIP3   OH2 9901   4.930   2.081   3.165
 3319TIP3    H1 9902   4.940   2.068   3.259
 3319TIP3    H2 9903   5.020   2.083   3.132
 3320TIP3   OH2 9904   2.363   1.154   6.583
 3320TIP3    H1 9905   2.425   1.210   6.538
 3320TIP3    H2 9906   2.336   1.204   6.660
 3321TIP3   OH2 9907   5.170   5.655   5.100
 3321TIP3    H1 9908   5.147   5.651   5.193
 3321TIP3    H2 9909   5.165   5.564   5.070
 3322TIP3   OH2 9910   7.699   0.235   1.539
 3322TIP3    H1 9911   7.751   0.314   1.527
 3322TIP3    H2 9912   7.747   0.184   1.604
 3323TIP3   OH2 9913   6.995   1.611   3.499
 3323TIP3    H1 9914   7.028   1.521   3.497
 3323TIP3    H2 9915   7.062   1.662   3.453
 3324TIP3   OH2 9916   1.882   4.558   2.810
 3324TIP3    H1 9917   1.907   4.576   2.720
 3324TIP3    H2 9918   1.911   4.634   2.859
 3325TIP3   OH2 9919   7.766   0.666   5.946
 3325TIP3    H1 9920   7.839   0.726   5.929
 3325TIP3    H2 9921   7.691   0.704   5.901
 3326TIP3   OH2 9922   4.594   3.578   2.880
 3326TIP3    H1 9923   4.520   3.638   2.877
 3326TIP3    H2 9924   4.671   3.634   2.878
 3327TIP3   OH2 9925   0.813   4.561   3.595
 3327TIP3    H1 9926   0.736   4.603   3.557
 3327TIP3    H2 9927   0.778   4.491   3.649
 3328TIP3   OH2 9928   5.006   6.698   0.780
 3328TIP3    H1 9929   5.033   6.761   0.713
 3328TIP3    H2 9930   5.024   6.742   0.863
 3329TIP3   OH2 9931   8.049   7.300   6.254
 3329TIP3    H1 9932   8.125   7.275   6.306
 3329TIP3    H2 9933   7.978   7.309   6.317
 3330TIP3   OH2 9934   7.759   4.760   3.569
 3330TIP3    H1 9935   7.746   4.673   3.533
 3330TIP3    H2 9936   7.832   4.751   3.630
 3331TIP3   OH2 9937   1.682   4.771   2.445
 3331TIP3    H1 9938   1.750   4.707   2.466
 3331TIP3    H2 9939   1.661   4.812   2.529
 3332TIP3   OH2 9940   1.177   1.960   4.858
 3332TIP3    H1 9941   1.237   1.922   4.794
 3332TIP3    H2 9942   1.157   2.046   4.823
 3333TIP3   OH2 9943   4.704   0.174   6.554
 3333TIP3    H1 9944   4.672   0.257   6.587
 3333TIP3    H2 9945   4.626   0.122   6.538
 3334TIP3   OH2 9946   4.256   5.026   3.448
 3334TIP3    H1 9947   4.301   5.108   3.426
 3334TIP3    H2 9948   4.209   5.046   3.529
 3335TIP3   OH2 9949   0.153   6.319   1.226
 3335TIP3    H1 9950   0.061   6.343   1.224
 3335TIP3    H2 9951   0.199   6.401   1.243
 3336TIP3   OH2 9952   2.772   6.706   1.352
 3336TIP3    H1 9953   2.781   6.617   1.320
 3336TIP3    H2 9954   2.862   6.740   1.355
 3337TIP3   OH2 9955   4.231   1.086   4.180
 3337TIP3    H1 9956   4.178   1.046   4.112
 3337TIP3    H2 9957   4.167   1.123   4.241
 3338TIP3   OH2 9958   4.352   2.138   0.892
 3338TIP3    H1 9959   4.371   2.112   0.982
 3338TIP3    H2 9960   4.376   2.063   0.839
 3339TIP3   OH2 9961   6.982   1.150   3.551
 3339TIP3    H1 9962   6.991   1.109   3.465
 3339TIP3    H2 9963   6.999   1.080   3.614
 3340TIP3   OH2 9964   2.231   7.147   3.894
 3340TIP3    H1 9965   2.296   7.217   3.895
 3340TIP3    H2 9966   2.159   7.180   3.947
 3341TIP3   OH2 9967   3.859   2.389   5.685
 3341TIP3    H1 9968   3.795   2.372   5.755
 3341TIP3    H2 9969   3.876   2.302   5.648
 3342TIP3   OH2 9970   4.756   3.285   1.121
 3342TIP3    H1 9971   4.671   3.269   1.082
 3342TIP3    H2 9972   4.767   3.216   1.186
 3343TIP3   OH2 9973   6.590   6.833   6.442
 3343TIP3    H1 9974   6.639   6.863   6.518
 3343TIP3    H2 9975   6.566   6.913   6.395
 3344TIP3   OH2 9976   3.013   0.229   2.288
 3344TIP3    H1 9977   2.975   0.315   2.271
 3344TIP3    H2 9978   3.089   0.225   2.230
 3345TIP3   OH2 9979   7.128   3.671   0.548
 3345TIP3    H1 9980   7.056   3.672   0.485
 3345TIP3    H2 9981   7.109   3.744   0.607
 3346TIP3   OH2 9982   3.810   4.813   4.904
 3346TIP3    H1 9983   3.881   4.869   4.874
 3346TIP3    H2 9984   3.755   4.871   4.956
 3347TIP3   OH2 9985   3.229   6.231   1.290
 3347TIP3    H1 9986   3.196   6.317   1.318
 3347TIP3    H2 9987   3.161   6.169   1.315
 3348TIP3   OH2 9988   3.805   2.829   2.621
 3348TIP3    H1 9989   3.726   2.811   2.571
 3348TIP3    H2 9990   3.836   2.743   2.650
 3349TIP3   OH2 9991   0.972   2.009   6.721
 3349TIP3    H1 9992   0.929   1.999   6.806
 3349TIP3    H2 9993   0.942   1.934   6.670
 3350TIP3   OH2 9994   5.897   6.549   4.145
 3350TIP3    H1 9995   5.983   6.511   4.129
 3350TIP3    H2 9996   5.895   6.564   4.240
 3351TIP3   OH2 9997   2.347   0.399   6.066
 3351TIP3    H1 9998   2.332   0.451   6.145
 3351TIP3    H2 9999   2.442   0.406   6.051
 3352TIP3   OH210000   6.987   2.219   3.053
 3352TIP3    H110001   6.954   2.305   3.027
 3352TIP3    H210002   7.000   2.226   3.148
 3353TIP3   OH210003   6.963   4.517   4.956
 3353TIP3    H110004   6.956   4.451   4.887
 3353TIP3    H210005   6.894   4.581   4.936
 3354TIP3   OH210006   5.695   7.117   0.459
 3354TIP3    H110007   5.761   7.132   0.392
 3354TIP3    H210008   5.709   7.027   0.488
 3355TIP3   OH210009   3.815   4.254   5.182
 3355TIP3    H110010   3.909   4.236   5.187
 3355TIP3    H210011   3.789   4.220   5.097
 3356TIP3   OH210012   1.890   2.596   5.821
 3356TIP3    H110013   1.928   2.524   5.771
 3356TIP3    H210014   1.851   2.555   5.897
 3357TIP3   OH210015   6.664   3.553   2.165
 3357TIP3    H110016   6.730   3.529   2.230
 3357TIP3    H210017   6.672   3.648   2.156
 3358TIP3   OH210018   7.528   5.931   1.327
 3358TIP3    H110019   7.507   5.864   1.261
 3358TIP3    H210020   7.458   5.924   1.392
 3359TIP3   OH210021   3.089   5.872   5.376
 3359TIP3    H110022   3.000   5.860   5.408
 3359TIP3    H210023   3.098   5.809   5.305
 3360TIP3   OH210024   6.726   6.257   3.258
 3360TIP3    H110025   6.760   6.234   3.345
 3360TIP3    H210026   6.799   6.240   3.199
 3361TIP3   OH210027   0.092   7.800   1.614
 3361TIP3    H110028   0.025   7.799   1.545
 3361TIP3    H210029   0.054   7.748   1.685
 3362TIP3   OH210030   7.784   2.838   3.111
 3362TIP3    H110031   7.692   2.811   3.112
 3362TIP3    H210032   7.831   2.762   3.145
 3363TIP3   OH210033   3.058   3.306   0.980
 3363TIP3    H110034   3.123   3.264   1.037
 3363TIP3    H210035   3.000   3.235   0.954
 3364TIP3   OH210036   6.144   4.584   4.584
 3364TIP3    H110037   6.167   4.676   4.592
 3364TIP3    H210038   6.160   4.563   4.492
 3365TIP3   OH210039   4.308   0.460   6.012
 3365TIP3    H110040   4.371   0.526   6.041
 3365TIP3    H210041   4.320   0.457   5.917
 3366TIP3   OH210042   4.243   7.124   6.098
 3366TIP3    H110043   4.271   7.195   6.156
 3366TIP3    H210044   4.151   7.110   6.120
 3367TIP3   OH210045   1.443   6.401   2.231
 3367TIP3    H110046   1.430   6.478   2.176
 3367TIP3    H210047   1.535   6.378   2.218
 3368TIP3   OH210048   5.219   1.031   4.170
 3368TIP3    H110049   5.233   0.940   4.197
 3368TIP3    H210050   5.304   1.059   4.137
 3369TIP3   OH210051   5.864   3.793   4.129
 3369TIP3    H110052   5.782   3.838   4.151
 3369TIP3    H210053   5.867   3.794   4.033
 3370TIP3   OH210054   3.269   5.930   5.625
 3370TIP3    H110055   3.345   5.872   5.633
 3370TIP3    H210056   3.227   5.903   5.543
 3371TIP3   OH210057   3.731   4.025   2.098
 3371TIP3    H110058   3.741   4.120   2.100
 3371TIP3    H210059   3.756   3.997   2.186
 3372TIP3   OH210060   2.356   5.257   6.377
 3372TIP3    H110061   2.351   5.196   6.450
 3372TIP3    H210062   2.290   5.226   6.315
 3373TIP3   OH210063   4.765   3.266   1.467
 3373TIP3    H110064   4.775   3.184   1.515
 3373TIP3    H210065   4.783   3.334   1.532
 3374TIP3   OH210066   0.050   4.262   5.261
 3374TIP3    H110067   0.140   4.282   5.238
 3374TIP3    H210068   0.036   4.308   5.344
 3375TIP3   OH210069   7.211   3.282   5.203
 3375TIP3    H110070   7.247   3.361   5.162
 3375TIP3    H210071   7.125   3.309   5.234
 3376TIP3   OH210072   5.638   1.775   0.729
 3376TIP3    H110073   5.583   1.852   0.743
 3376TIP3    H210074   5.586   1.701   0.761
 3377TIP3   OH210075   2.478   1.242   3.619
 3377TIP3    H110076   2.517   1.248   3.706
 3377TIP3    H210077   2.410   1.175   3.628
 3378TIP3   OH210078   5.976   7.467   1.235
 3378TIP3    H110079   6.016   7.552   1.217
 3378TIP3    H210080   5.938   7.477   1.323
 3379TIP3   OH210081   2.299   1.028   6.052
 3379TIP3    H110082   2.292   1.037   6.147
 3379TIP3    H210083   2.342   1.109   6.024
 3380TIP3   OH210084   4.954   4.618   0.605
 3380TIP3    H110085   4.942   4.713   0.594
 3380TIP3    H210086   5.049   4.605   0.602
 3381TIP3   OH210087   1.708   5.982   1.712
 3381TIP3    H110088   1.617   5.993   1.742
 3381TIP3    H210089   1.701   5.967   1.618
 3382TIP3   OH210090   2.286   0.522   3.734
 3382TIP3    H110091   2.249   0.573   3.806
 3382TIP3    H210092   2.209   0.490   3.686
 3383TIP3   OH210093   6.234   1.596   6.057
 3383TIP3    H110094   6.263   1.652   5.985
 3383TIP3    H210095   6.313   1.584   6.110
 3384TIP3   OH210096   4.353   2.228   4.533
 3384TIP3    H110097   4.416   2.177   4.482
 3384TIP3    H210098   4.303   2.163   4.583
 3385TIP3   OH210099   5.436   1.027   6.223
 3385TIP3    H110100   5.431   0.932   6.215
 3385TIP3    H210101   5.413   1.060   6.136
 3386TIP3   OH210102   6.707   5.339   5.741
 3386TIP3    H110103   6.623   5.352   5.695
 3386TIP3    H210104   6.755   5.279   5.684
 3387TIP3   OH210105   7.465   5.421   0.387
 3387TIP3    H110106   7.526   5.408   0.459
 3387TIP3    H210107   7.514   5.395   0.309
 3388TIP3   OH210108   2.146   3.977   3.922
 3388TIP3    H110109   2.182   3.889   3.913
 3388TIP3    H210110   2.095   3.974   4.003
 3389TIP3   OH210111   2.585   5.554   3.061
 3389TIP3    H110112   2.649   5.580   3.127
 3389TIP3    H210113   2.506   5.605   3.084
 3390TIP3   OH210114   1.284   7.734   1.799
 3390TIP3    H110115   1.373   7.705   1.778
 3390TIP3    H210116   1.231   7.655   1.791
 3391TIP3   OH210117   6.621   0.577   0.086
 3391TIP3    H110118   6.660   0.595   0.001
 3391TIP3    H210119   6.535   0.539   0.066
 3392TIP3   OH210120   1.170   1.269   4.236
 3392TIP3    H110121   1.112   1.345   4.237
 3392TIP3    H210122   1.161   1.231   4.323
 3393TIP3   OH210123   2.012   2.851   6.681
 3393TIP3    H110124   2.039   2.900   6.604
 3393TIP3    H210125   2.002   2.761   6.650
 3394TIP3   OH210126   6.838   3.509   1.426
 3394TIP3    H110127   6.780   3.437   1.452
 3394TIP3    H210128   6.841   3.504   1.331
 3395TIP3   OH210129   2.146   4.484   1.290
 3395TIP3    H110130   2.129   4.577   1.272
 3395TIP3    H210131   2.224   4.464   1.239
 3396TIP3   OH210132   1.597   0.766   4.555
 3396TIP3    H110133   1.574   0.680   4.590
 3396TIP3    H210134   1.692   0.767   4.552
 3397TIP3   OH210135   0.650   5.777   1.365
 3397TIP3    H110136   0.571   5.764   1.418
 3397TIP3    H210137   0.708   5.828   1.422
 3398TIP3   OH210138   3.770   2.218   3.119
 3398TIP3    H110139   3.795   2.151   3.056
 3398TIP3    H210140   3.780   2.301   3.073
 3399TIP3   OH210141   1.193   7.013   3.502
 3399TIP3    H110142   1.194   7.018   3.406
 3399TIP3    H210143   1.101   7.028   3.526
 3400TIP3   OH210144   6.168   4.530   4.329
 3400TIP3    H110145   6.125   4.445   4.320
 3400TIP3    H210146   6.256   4.517   4.293
 3401TIP3   OH210147   5.505   6.185   6.612
 3401TIP3    H110148   5.523   6.092   6.608
 3401TIP3    H210149   5.530   6.218   6.525
 3402TIP3   OH210150   3.396   0.458   4.328
 3402TIP3    H110151   3.377   0.384   4.269
 3402TIP3    H210152   3.311   0.501   4.339
 3403TIP3   OH210153   3.775   0.900   5.721
 3403TIP3    H110154   3.863   0.867   5.738
 3403TIP3    H210155   3.788   0.994   5.707
 3404TIP3   OH210156   8.112   3.516   2.824
 3404TIP3    H110157   8.115   3.428   2.862
 3404TIP3    H210158   8.204   3.538   2.807
 3405TIP3   OH210159   6.418   6.014   3.004
 3405TIP3    H110160   6.358   5.941   3.022
 3405TIP3    H210161   6.403   6.035   2.912
 3406TIP3   OH210162   1.666   2.620   0.934
 3406TIP3    H110163   1.741   2.679   0.936
 3406TIP3    H210164   1.596   2.669   0.979
 3407TIP3   OH210165   0.359   4.962   6.020
 3407TIP3    H110166   0.367   4.889   6.081
 3407TIP3    H210167   0.381   5.040   6.072
 3408TIP3   OH210168   2.462   5.268   1.426
 3408TIP3    H110169   2.472   5.175   1.405
 3408TIP3    H210170   2.547   5.306   1.405
 3409TIP3   OH210171   0.061   5.765   0.654
 3409TIP3    H110172   0.151   5.775   0.624
 3409TIP3    H210173   0.046   5.670   0.652
 3410TIP3   OH210174   3.193   1.000   4.773
 3410TIP3    H110175   3.240   1.033   4.697
 3410TIP3    H210176   3.258   1.000   4.843
 3411TIP3   OH210177   7.262   6.336   1.446
 3411TIP3    H110178   7.185   6.392   1.448
 3411TIP3    H210179   7.327   6.387   1.397
 3412TIP3   OH210180   7.036   4.077   1.073
 3412TIP3    H110181   6.949   4.116   1.086
 3412TIP3    H210182   7.070   4.120   0.995
 3413TIP3   OH210183   0.158   1.942   0.144
 3413TIP3    H110184   0.232   1.884   0.129
 3413TIP3    H210185   0.085   1.883   0.164
 3414TIP3   OH210186   7.150   5.197   2.504
 3414TIP3    H110187   7.155   5.293   2.513
 3414TIP3    H210188   7.142   5.165   2.594
 3415TIP3   OH210189   7.052   4.455   2.587
 3415TIP3    H110190   6.984   4.406   2.633
 3415TIP3    H210191   7.029   4.547   2.603
 3416TIP3   OH210192   8.034   0.973   3.404
 3416TIP3    H110193   8.084   1.038   3.452
 3416TIP3    H210194   7.994   0.918   3.472
 3417TIP3   OH210195   5.496   5.746   5.907
 3417TIP3    H110196   5.506   5.822   5.851
 3417TIP3    H210197   5.427   5.694   5.866
 3418TIP3   OH210198   8.022   2.550   2.186
 3418TIP3    H110199   8.110   2.569   2.217
 3418TIP3    H210200   8.002   2.622   2.126
 3419TIP3   OH210201   8.255   0.698   6.285
 3419TIP3    H110202   8.281   0.782   6.321
 3419TIP3    H210203   8.168   0.713   6.248
 3420TIP3   OH210204   1.720   4.206   6.450
 3420TIP3    H110205   1.653   4.161   6.501
 3420TIP3    H210206   1.794   4.145   6.449
 3421TIP3   OH210207   7.062   0.161   1.747
 3421TIP3    H110208   6.995   0.187   1.683
 3421TIP3    H210209   7.140   0.145   1.694
 3422TIP3   OH210210   7.063   1.512   3.876
 3422TIP3    H110211   7.054   1.419   3.896
 3422TIP3    H210212   7.028   1.521   3.788
 3423TIP3   OH210213   4.006   3.715   5.948
 3423TIP3    H110214   3.937   3.738   6.010
 3423TIP3    H210215   3.994   3.776   5.876
 3424TIP3   OH210216   6.556   2.948   5.463
 3424TIP3    H110217   6.534   2.868   5.415
 3424TIP3    H210218   6.572   2.918   5.553
 3425TIP3   OH210219   2.111   3.605   0.985
 3425TIP3    H110220   2.087   3.664   1.056
 3425TIP3    H210221   2.206   3.614   0.977
 3426TIP3   OH210222   7.316   1.379   1.034
 3426TIP3    H110223   7.273   1.425   0.962
 3426TIP3    H210224   7.366   1.447   1.079
 3427TIP3   OH210225   1.613   7.780   3.239
 3427TIP3    H110226   1.653   7.770   3.325
 3427TIP3    H210227   1.684   7.761   3.177
 3428TIP3   OH210228   6.143   0.341   2.004
 3428TIP3    H110229   6.139   0.290   2.085
 3428TIP3    H210230   6.217   0.305   1.955
 3429TIP3   OH210231   0.508   7.783   4.471
 3429TIP3    H110232   0.492   7.690   4.485
 3429TIP3    H210233   0.443   7.809   4.406
 3430TIP3   OH210234   3.923   2.685   3.824
 3430TIP3    H110235   4.000   2.647   3.781
 3430TIP3    H210236   3.918   2.775   3.790
 3431TIP3   OH210237   4.797   0.994   2.625
 3431TIP3    H110238   4.862   1.008   2.555
 3431TIP3    H210239   4.795   0.900   2.638
 3432TIP3   OH210240   2.061   5.632   5.141
 3432TIP3    H110241   1.995   5.659   5.205
 3432TIP3    H210242   2.012   5.619   5.060
 3433TIP3   OH210243   2.567   7.025   6.097
 3433TIP3    H110244   2.554   7.099   6.038
 3433TIP3    H210245   2.522   6.952   6.055
 3434TIP3   OH210246   8.016   4.223   6.147
 3434TIP3    H110247   8.050   4.189   6.229
 3434TIP3    H210248   8.058   4.308   6.136
 3435TIP3   OH210249   5.598   4.506   4.997
 3435TIP3    H110250   5.560   4.593   4.985
 3435TIP3    H210251   5.676   4.506   4.942
 3436TIP3   OH210252   3.929   2.655   0.201
 3436TIP3    H110253   3.971   2.739   0.185
 3436TIP3    H210254   3.852   2.655   0.144
 3437TIP3   OH210255   5.255   5.946   3.597
 3437TIP3    H110256   5.241   5.944   3.692
 3437TIP3    H210257   5.178   5.990   3.562
 3438TIP3   OH210258   8.262   1.634   5.146
 3438TIP3    H110259   8.213   1.577   5.087
 3438TIP3    H210260   8.354   1.620   5.123
 3439TIP3   OH210261   6.369   1.993   6.184
 3439TIP3    H110262   6.416   1.941   6.249
 3439TIP3    H210263   6.288   1.943   6.168
 3440TIP3   OH210264   6.524   4.448   5.272
 3440TIP3    H110265   6.434   4.456   5.303
 3440TIP3    H210266   6.547   4.356   5.285
 3441TIP3   OH210267   5.366   5.534   0.047
 3441TIP3    H110268   5.447   5.520  -0.003
 3441TIP3    H210269   5.392   5.594   0.117
 3442TIP3   OH210270   0.340   7.467   1.413
 3442TIP3    H110271   0.259   7.489   1.367
 3442TIP3    H210272   0.400   7.539   1.392
 3443TIP3   OH210273   5.956   4.992   5.775
 3443TIP3    H110274   5.999   5.072   5.803
 3443TIP3    H210275   5.959   4.995   5.680
 3444TIP3   OH210276   6.124   7.716   2.113
 3444TIP3    H110277   6.135   7.637   2.060
 3444TIP3    H210278   6.131   7.686   2.203
 3445TIP3   OH210279   1.084   7.038   4.206
 3445TIP3    H110280   1.145   7.058   4.277
 3445TIP3    H210281   1.125   6.966   4.158
 3446TIP3   OH210282   6.879   3.609   0.739
 3446TIP3    H110283   6.900   3.702   0.748
 3446TIP3    H210284   6.828   3.588   0.817
 3447TIP3   OH210285   7.008   6.270   4.626
 3447TIP3    H110286   7.035   6.312   4.545
 3447TIP3    H210287   6.917   6.243   4.610
 3448TIP3   OH210288   4.378   2.132   5.773
 3448TIP3    H110289   4.396   2.105   5.683
 3448TIP3    H210290   4.305   2.194   5.765
 3449TIP3   OH210291   4.608   6.009   1.201
 3449TIP3    H110292   4.626   6.051   1.284
 3449TIP3    H210293   4.589   5.918   1.223
 3450TIP3   OH210294   4.200   3.655   0.995
 3450TIP3    H110295   4.105   3.667   0.994
 3450TIP3    H210296   4.215   3.582   1.054
 3451TIP3   OH210297   7.987   7.363   3.148
 3451TIP3    H110298   7.953   7.337   3.233
 3451TIP3    H210299   8.066   7.413   3.168
 3452TIP3   OH210300   4.502   1.281   1.646
 3452TIP3    H110301   4.450   1.299   1.568
 3452TIP3    H210302   4.557   1.206   1.621
 3453TIP3   OH210303   4.660   2.559   0.033
 3453TIP3    H110304   4.599   2.633   0.037
 3453TIP3    H210305   4.683   2.543   0.124
 3454TIP3   OH210306   5.361   6.691   6.158
 3454TIP3    H110307   5.367   6.685   6.254
 3454TIP3    H210308   5.352   6.600   6.130
 3455TIP3   OH210309   6.047   5.937   1.699
 3455TIP3    H110310   5.957   5.903   1.694
 3455TIP3    H210311   6.061   5.951   1.793
 3456TIP3   OH210312   1.280   4.300   4.569
 3456TIP3    H110313   1.328   4.222   4.596
 3456TIP3    H210314   1.295   4.363   4.639
 3457TIP3   OH210315   7.823   6.366   4.738
 3457TIP3    H110316   7.783   6.280   4.749
 3457TIP3    H210317   7.811   6.409   4.823
 3458TIP3   OH210318   3.771   5.061   3.140
 3458TIP3    H110319   3.841   5.090   3.082
 3458TIP3    H210320   3.734   4.985   3.096
 3459TIP3   OH210321   7.453   6.131   0.130
 3459TIP3    H110322   7.389   6.074   0.174
 3459TIP3    H210323   7.499   6.175   0.202
 3460TIP3   OH210324   2.187   7.202   4.927
 3460TIP3    H110325   2.196   7.241   4.840
 3460TIP3    H210326   2.116   7.139   4.917
 3461TIP3   OH210327   6.033   2.276   6.333
 3461TIP3    H110328   6.040   2.369   6.354
 3461TIP3    H210329   6.006   2.274   6.241
 3462TIP3   OH210330   6.698   5.629   4.820
 3462TIP3    H110331   6.653   5.655   4.900
 3462TIP3    H210332   6.683   5.702   4.759
 3463TIP3   OH210333   7.003   1.965   6.285
 3463TIP3    H110334   7.028   2.052   6.314
 3463TIP3    H210335   6.972   1.977   6.195
 3464TIP3   OH210336   2.465   0.568   2.033
 3464TIP3    H110337   2.505   0.600   2.114
 3464TIP3    H210338   2.371   0.569   2.050
 3465TIP3   OH210339   3.340   1.398   1.600
 3465TIP3    H110340   3.404   1.340   1.643
 3465TIP3    H210341   3.384   1.483   1.595
 3466TIP3   OH210342   3.275   5.719   2.241
 3466TIP3    H110343   3.258   5.654   2.309
 3466TIP3    H210344   3.334   5.782   2.282
 3467TIP3   OH210345   7.256   1.910   0.084
 3467TIP3    H110346   7.263   1.985   0.144
 3467TIP3    H210347   7.214   1.842   0.136
 3468TIP3   OH210348   0.418   4.577   6.340
 3468TIP3    H110349   0.438   4.493   6.382
 3468TIP3    H210350   0.499   4.600   6.294
 3469TIP3   OH210351   8.135   0.718   0.924
 3469TIP3    H110352   8.210   0.710   0.983
 3469TIP3    H210353   8.132   0.811   0.901
 3470TIP3   OH210354   7.284   6.420   5.422
 3470TIP3    H110355   7.249   6.472   5.494
 3470TIP3    H210356   7.294   6.482   5.350
 3471TIP3   OH210357   4.847   6.048   5.588
 3471TIP3    H110358   4.786   5.974   5.587
 3471TIP3    H210359   4.902   6.033   5.665
 3472TIP3   OH210360   4.491   0.096   1.021
 3472TIP3    H110361   4.446   0.159   0.965
 3472TIP3    H210362   4.448   0.105   1.106
 3473TIP3   OH210363   6.071   5.411   6.021
 3473TIP3    H110364   6.071   5.350   5.947
 3473TIP3    H210365   6.121   5.366   6.089
 3474TIP3   OH210366   5.551   0.117   4.277
 3474TIP3    H110367   5.628   0.162   4.243
 3474TIP3    H210368   5.480   0.146   4.219
 3475TIP3   OH210369   2.168   6.652   2.868
 3475TIP3    H110370   2.165   6.745   2.892
 3475TIP3    H210371   2.100   6.611   2.922
 3476TIP3   OH210372   6.285   5.694   5.184
 3476TIP3    H110373   6.346   5.735   5.246
 3476TIP3    H210374   6.217   5.760   5.170
 3477TIP3   OH210375   5.924   5.666   6.539
 3477TIP3    H110376   5.975   5.735   6.581
 3477TIP3    H210377   5.984   5.592   6.534
 3478TIP3   OH210378   8.030   1.320   1.016
 3478TIP3    H110379   8.059   1.359   0.934
 3478TIP3    H210380   8.108   1.275   1.050
 3479TIP3   OH210381   3.879   4.629   1.165
 3479TIP3    H110382   3.886   4.694   1.095
 3479TIP3    H210383   3.951   4.651   1.225
 3480TIP3   OH210384   1.067   1.966   3.107
 3480TIP3    H110385   1.000   1.942   3.043
 3480TIP3    H210386   1.145   1.983   3.055
 3481TIP3   OH210387   2.114   1.740   2.344
 3481TIP3    H110388   2.163   1.812   2.384
 3481TIP3    H210389   2.179   1.691   2.294
 3482TIP3   OH210390   7.189   1.686   6.234
 3482TIP3    H110391   7.114   1.629   6.251
 3482TIP3    H210392   7.157   1.774   6.253
 3483TIP3   OH210393   0.088   6.706   0.631
 3483TIP3    H110394   0.083   6.791   0.675
 3483TIP3    H210395   0.076   6.642   0.701
 3484TIP3   OH210396   3.283   6.632   1.075
 3484TIP3    H110397   3.299   6.540   1.096
 3484TIP3    H210398   3.362   6.677   1.104
 3485TIP3   OH210399   0.465   6.820   0.195
 3485TIP3    H110400   0.416   6.828   0.113
 3485TIP3    H210401   0.404   6.851   0.262
 3486TIP3   OH210402   7.911   0.912   5.862
 3486TIP3    H110403   7.846   0.955   5.918
 3486TIP3    H210404   7.931   0.977   5.795
 3487TIP3   OH210405   4.848   0.554   4.334
 3487TIP3    H110406   4.848   0.475   4.279
 3487TIP3    H210407   4.763   0.551   4.379
 3488TIP3   OH210408   1.171   7.802   6.264
 3488TIP3    H110409   1.128   7.770   6.184
 3488TIP3    H210410   1.173   7.726   6.322
 3489TIP3   OH210411   2.726   7.028   5.375
 3489TIP3    H110412   2.794   6.963   5.389
 3489TIP3    H210413   2.650   6.977   5.346
 3490TIP3   OH210414   4.104   1.668   6.239
 3490TIP3    H110415   4.013   1.640   6.249
 3490TIP3    H210416   4.099   1.763   6.231
 3491TIP3   OH210417   5.961   5.250   3.213
 3491TIP3    H110418   5.883   5.215   3.169
 3491TIP3    H210419   6.027   5.181   3.202
 3492TIP3   OH210420   0.531   7.164   6.184
 3492TIP3    H110421   0.597   7.112   6.230
 3492TIP3    H210422   0.465   7.184   6.250
 3493TIP3   OH210423   0.476   5.131   3.170
 3493TIP3    H110424   0.546   5.111   3.233
 3493TIP3    H210425   0.437   5.212   3.204
 3494TIP3   OH210426   5.170   0.651   3.926
 3494TIP3    H110427   5.133   0.646   4.014
 3494TIP3    H210428   5.157   0.742   3.900
 3495TIP3   OH210429   5.724   6.167   4.368
 3495TIP3    H110430   5.711   6.134   4.457
 3495TIP3    H210431   5.652   6.227   4.353
 3496TIP3   OH210432   1.715   1.088   1.767
 3496TIP3    H110433   1.766   1.153   1.816
 3496TIP3    H210434   1.668   1.039   1.835
 3497TIP3   OH210435   5.699   0.935   2.333
 3497TIP3    H110436   5.646   0.993   2.279
 3497TIP3    H210437   5.716   0.859   2.277
 3498TIP3   OH210438   4.580   7.589   4.420
 3498TIP3    H110439   4.576   7.522   4.352
 3498TIP3    H210440   4.607   7.669   4.375
 3499TIP3   OH210441   2.974   2.917   0.581
 3499TIP3    H110442   2.955   3.007   0.610
 3499TIP3    H210443   2.954   2.863   0.658
 3500TIP3   OH210444   4.238   0.013   0.253
 3500TIP3    H110445   4.228   0.084   0.190
 3500TIP3    H210446   4.209  -0.065   0.206
 3501TIP3   OH210447   5.510   2.227   2.618
 3501TIP3    H110448   5.580   2.162   2.608
 3501TIP3    H210449   5.555   2.308   2.642
 3502TIP3   OH210450   0.079   2.794   0.276
 3502TIP3    H110451   0.170   2.766   0.268
 3502TIP3    H210452   0.081   2.866   0.339
 3503TIP3   OH210453   3.496   7.867   1.228
 3503TIP3    H110454   3.514   7.947   1.276
 3503TIP3    H210455   3.571   7.810   1.245
 3504TIP3   OH210456   3.319   5.765   1.380
 3504TIP3    H110457   3.358   5.813   1.307
 3504TIP3    H210458   3.294   5.680   1.342
 3505TIP3   OH210459   6.267   6.587   3.442
 3505TIP3    H110460   6.197   6.639   3.481
 3505TIP3    H210461   6.288   6.522   3.508
 3506TIP3   OH210462   8.194   3.979   0.784
 3506TIP3    H110463   8.263   3.946   0.841
 3506TIP3    H210464   8.143   4.038   0.839
 3507TIP3   OH210465   7.165   5.303   4.236
 3507TIP3    H110466   7.207   5.384   4.265
 3507TIP3    H210467   7.192   5.237   4.299
 3508TIP3   OH210468   5.614   0.493   2.408
 3508TIP3    H110469   5.666   0.414   2.390
 3508TIP3    H210470   5.655   0.561   2.355
 3509TIP3   OH210471   0.675   6.961   3.179
 3509TIP3    H110472   0.647   6.937   3.091
 3509TIP3    H210473   0.770   6.969   3.173
 3510TIP3   OH210474   3.963   3.015   2.111
 3510TIP3    H110475   4.046   2.982   2.145
 3510TIP3    H210476   3.921   2.940   2.071
 3511TIP3   OH210477   7.525   6.868   0.208
 3511TIP3    H110478   7.619   6.859   0.217
 3511TIP3    H210479   7.506   6.956   0.240
 3512TIP3   OH210480   0.920   4.095   2.888
 3512TIP3    H110481   1.013   4.117   2.892
 3512TIP3    H210482   0.916   4.003   2.911
 3513TIP3   OH210483   8.022   6.833   4.443
 3513TIP3    H110484   7.942   6.851   4.393
 3513TIP3    H210485   8.069   6.917   4.444
 3514TIP3   OH210486   8.014   1.581   4.313
 3514TIP3    H110487   7.955   1.656   4.319
 3514TIP3    H210488   8.041   1.579   4.221
 3515TIP3   OH210489   5.725   3.709   5.707
 3515TIP3    H110490   5.814   3.674   5.706
 3515TIP3    H210491   5.670   3.636   5.677
 3516TIP3   OH210492   4.000   4.916   0.328
 3516TIP3    H110493   3.921   4.901   0.380
 3516TIP3    H210494   4.061   4.848   0.356
 3517TIP3   OH210495   5.149   4.681   1.300
 3517TIP3    H110496   5.122   4.619   1.233
 3517TIP3    H210497   5.073   4.738   1.313
 3518TIP3   OH210498   7.719   2.036   4.428
 3518TIP3    H110499   7.711   2.036   4.333
 3518TIP3    H210500   7.736   1.944   4.451
 3519TIP3   OH210501   7.278   7.801   5.775
 3519TIP3    H110502   7.348   7.785   5.839
 3519TIP3    H210503   7.245   7.714   5.753
 3520TIP3   OH210504   2.645   7.205   2.870
 3520TIP3    H110505   2.694   7.138   2.919
 3520TIP3    H210506   2.635   7.168   2.783
 3521TIP3   OH210507   5.882   0.509   3.132
 3521TIP3    H110508   5.875   0.603   3.149
 3521TIP3    H210509   5.853   0.498   3.042
 3522TIP3   OH210510   1.295   0.337   4.423
 3522TIP3    H110511   1.332   0.295   4.345
 3522TIP3    H210512   1.223   0.279   4.450
 3523TIP3   OH210513   5.551   1.598   5.700
 3523TIP3    H110514   5.574   1.683   5.662
 3523TIP3    H210515   5.503   1.553   5.631
 3524TIP3   OH210516   4.346   5.103   4.148
 3524TIP3    H110517   4.289   5.027   4.154
 3524TIP3    H210518   4.426   5.071   4.105
 3525TIP3   OH210519   1.230   2.008   1.195
 3525TIP3    H110520   1.256   2.058   1.118
 3525TIP3    H210521   1.195   2.073   1.256
 3526TIP3   OH210522   1.128   7.443   2.840
 3526TIP3    H110523   1.039   7.424   2.869
 3526TIP3    H210524   1.125   7.432   2.745
 3527TIP3   OH210525   2.722   7.230   4.540
 3527TIP3    H110526   2.640   7.203   4.583
 3527TIP3    H210527   2.700   7.236   4.448
 3528TIP3   OH210528   1.756   2.290   3.002
 3528TIP3    H110529   1.776   2.373   3.045
 3528TIP3    H210530   1.689   2.312   2.938
 3529TIP3   OH210531   7.721   7.673   6.373
 3529TIP3    H110532   7.802   7.688   6.422
 3529TIP3    H210533   7.746   7.680   6.281
 3530TIP3   OH210534   3.023   5.458   6.273
 3530TIP3    H110535   3.011   5.365   6.290
 3530TIP3    H210536   3.106   5.479   6.317
 3531TIP3   OH210537   4.220   7.175   1.044
 3531TIP3    H110538   4.283   7.107   1.021
 3531TIP3    H210539   4.257   7.255   1.009
 3532TIP3   OH210540   6.382   6.338   3.672
 3532TIP3    H110541   6.356   6.247   3.657
 3532TIP3    H210542   6.434   6.360   3.595
 3533TIP3   OH210543   6.312   6.968   2.019
 3533TIP3    H110544   6.267   6.885   2.036
 3533TIP3    H210545   6.344   6.996   2.104
 3534TIP3   OH210546   4.844   6.518   6.490
 3534TIP3    H110547   4.797   6.439   6.518
 3534TIP3    H210548   4.931   6.487   6.465
 3535TIP3   OH210549   6.123   3.923   5.964
 3535TIP3    H110550   6.110   3.869   5.886
 3535TIP3    H210551   6.062   3.996   5.953
 3536TIP3   OH210552   3.540   3.538  -0.023
 3536TIP3    H110553   3.565   3.453   0.013
 3536TIP3    H210554   3.569   3.535  -0.114
 3537TIP3   OH210555   0.064   2.541   1.894
 3537TIP3    H110556   0.013   2.575   1.821
 3537TIP3    H210557   0.096   2.456   1.864
 3538TIP3   OH210558   0.401   0.326   5.083
 3538TIP3    H110559   0.342   0.381   5.135
 3538TIP3    H210560   0.402   0.242   5.129
 3539TIP3   OH210561   5.912   5.176   2.610
 3539TIP3    H110562   5.928   5.161   2.703
 3539TIP3    H210563   5.986   5.134   2.566
 3540TIP3   OH210564   4.200   4.385   2.311
 3540TIP3    H110565   4.258   4.394   2.235
 3540TIP3    H210566   4.235   4.446   2.376
 3541TIP3   OH210567   5.215   0.288   5.791
 3541TIP3    H110568   5.307   0.291   5.818
 3541TIP3    H210569   5.216   0.238   5.710
 3542TIP3   OH210570   7.516   3.693   1.914
 3542TIP3    H110571   7.578   3.668   1.846
 3542TIP3    H210572   7.552   3.655   1.994
 3543TIP3   OH210573   5.310   0.791   4.278
 3543TIP3    H110574   5.247   0.726   4.246
 3543TIP3    H210575   5.390   0.772   4.230
 3544TIP3   OH210576   6.073   4.012   4.224
 3544TIP3    H110577   6.152   3.959   4.217
 3544TIP3    H210578   6.001   3.952   4.204
 3545TIP3   OH210579   1.115   4.088   5.591
 3545TIP3    H110580   1.061   4.010   5.594
 3545TIP3    H210581   1.196   4.060   5.549
 3546TIP3   OH210582   3.632   5.695   2.374
 3546TIP3    H110583   3.549   5.744   2.371
 3546TIP3    H210584   3.643   5.660   2.286
 3547TIP3   OH210585   6.003   5.807   3.140
 3547TIP3    H110586   5.956   5.725   3.125
 3547TIP3    H210587   5.965   5.842   3.221
 3548TIP3   OH210588   0.764   2.402   4.030
 3548TIP3    H110589   0.833   2.370   3.972
 3548TIP3    H210590   0.685   2.401   3.977
 3549TIP3   OH210591   5.949   6.140   3.510
 3549TIP3    H110592   5.898   6.209   3.553
 3549TIP3    H210593   5.946   6.162   3.417
 3550TIP3   OH210594   3.242   6.546   6.740
 3550TIP3    H110595   3.244   6.554   6.645
 3550TIP3    H210596   3.326   6.506   6.762
 3551TIP3   OH210597   6.148   3.477   4.680
 3551TIP3    H110598   6.082   3.464   4.749
 3551TIP3    H210599   6.130   3.564   4.646
 3552TIP3   OH210600   4.676   0.276   1.856
 3552TIP3    H110601   4.638   0.228   1.931
 3552TIP3    H210602   4.769   0.257   1.862
 3553TIP3   OH210603   4.585   3.501   1.977
 3553TIP3    H110604   4.619   3.412   1.980
 3553TIP3    H210605   4.555   3.519   2.066
 3554TIP3   OH210606   7.480   5.586   4.691
 3554TIP3    H110607   7.567   5.610   4.723
 3554TIP3    H210608   7.430   5.566   4.770
 3555TIP3   OH210609   6.394   4.051   6.762
 3555TIP3    H110610   6.316   4.084   6.807
 3555TIP3    H210611   6.449   4.129   6.748
 3556TIP3   OH210612   7.905   1.021   3.740
 3556TIP3    H110613   7.852   1.083   3.790
 3556TIP3    H210614   7.967   0.986   3.805
 3557TIP3   OH210615   2.225   5.331   1.577
 3557TIP3    H110616   2.318   5.330   1.556
 3557TIP3    H210617   2.221   5.330   1.672
 3558TIP3   OH210618   2.063   6.740   5.377
 3558TIP3    H110619   2.124   6.797   5.425
 3558TIP3    H210620   2.119   6.676   5.334
 3559TIP3   OH210621   4.318   6.714   4.846
 3559TIP3    H110622   4.381   6.721   4.918
 3559TIP3    H210623   4.346   6.780   4.783
 3560TIP3   OH210624   6.592   7.893   4.839
 3560TIP3    H110625   6.632   7.950   4.905
 3560TIP3    H210626   6.657   7.824   4.824
 3561TIP3   OH210627   0.226   1.249   2.104
 3561TIP3    H110628   0.238   1.261   2.198
 3561TIP3    H210629   0.311   1.216   2.073
 3562TIP3   OH210630   3.194   6.773   0.065
 3562TIP3    H110631   3.265   6.835   0.049
 3562TIP3    H210632   3.115   6.826   0.069
 3563TIP3   OH210633   2.548   7.478   2.941
 3563TIP3    H110634   2.470   7.498   2.890
 3563TIP3    H210635   2.586   7.401   2.899
 3564TIP3   OH210636   5.429   5.352   0.493
 3564TIP3    H110637   5.376   5.432   0.488
 3564TIP3    H210638   5.396   5.297   0.422
 3565TIP3   OH210639   2.416   6.641   4.074
 3565TIP3    H110640   2.405   6.736   4.072
 3565TIP3    H210641   2.510   6.627   4.084
 3566TIP3   OH210642   5.860   4.319   2.209
 3566TIP3    H110643   5.793   4.290   2.271
 3566TIP3    H210644   5.901   4.394   2.251
 3567TIP3   OH210645   7.042   6.361   5.711
 3567TIP3    H110646   6.978   6.355   5.640
 3567TIP3    H210647   7.111   6.417   5.677
 3568TIP3   OH210648   6.851   7.579   2.350
 3568TIP3    H110649   6.899   7.586   2.267
 3568TIP3    H210650   6.831   7.485   2.357
 3569TIP3   OH210651   4.886   6.222   5.177
 3569TIP3    H110652   4.950   6.157   5.207
 3569TIP3    H210653   4.807   6.201   5.227
 3570TIP3   OH210654   7.888   2.168   3.078
 3570TIP3    H110655   7.881   2.145   3.171
 3570TIP3    H210656   7.835   2.247   3.068
 3571TIP3   OH210657   7.780   1.607   4.027
 3571TIP3    H110658   7.823   1.531   3.987
 3571TIP3    H210659   7.835   1.629   4.101
 3572TIP3   OH210660   8.259   2.674   6.509
 3572TIP3    H110661   8.234   2.586   6.482
 3572TIP3    H210662   8.177   2.724   6.507
 3573TIP3   OH210663   2.903   7.616   4.177
 3573TIP3    H110664   2.877   7.683   4.114
 3573TIP3    H210665   2.848   7.632   4.254
 3574TIP3   OH210666   3.446   3.864   4.935
 3574TIP3    H110667   3.474   3.904   4.853
 3574TIP3    H210668   3.437   3.771   4.914
 3575TIP3   OH210669   3.592   3.167   6.439
 3575TIP3    H110670   3.578   3.209   6.354
 3575TIP3    H210671   3.519   3.196   6.493
 3576TIP3   OH210672   5.200   2.664   6.328
 3576TIP3    H110673   5.281   2.711   6.312
 3576TIP3    H210674   5.170   2.695   6.413
 3577TIP3   OH210675   7.217   4.697   5.412
 3577TIP3    H110676   7.192   4.661   5.327
 3577TIP3    H210677   7.148   4.761   5.432
 3578TIP3   OH210678   6.187   2.122   1.527
 3578TIP3    H110679   6.100   2.092   1.500
 3578TIP3    H210680   6.187   2.216   1.510
 3579TIP3   OH210681   5.470   5.880   4.023
 3579TIP3    H110682   5.437   5.900   4.111
 3579TIP3    H210683   5.419   5.804   3.996
 3580TIP3   OH210684   8.114   0.527   0.481
 3580TIP3    H110685   8.082   0.450   0.528
 3580TIP3    H210686   8.204   0.505   0.457
 3581TIP3   OH210687   7.165   2.822   5.211
 3581TIP3    H110688   7.157   2.828   5.306
 3581TIP3    H210689   7.075   2.807   5.181
 3582TIP3   OH210690   0.272   2.719   2.337
 3582TIP3    H110691   0.233   2.693   2.254
 3582TIP3    H210692   0.266   2.815   2.337
 3583TIP3   OH210693   7.195   0.957   2.332
 3583TIP3    H110694   7.143   0.883   2.301
 3583TIP3    H210695   7.219   0.933   2.421
 3584TIP3   OH210696   4.862   6.085   4.938
 3584TIP3    H110697   4.895   6.130   5.016
 3584TIP3    H210698   4.800   6.020   4.972
 3585TIP3   OH210699   6.017   3.159   4.020
 3585TIP3    H110700   5.947   3.215   4.054
 3585TIP3    H210701   5.974   3.076   4.001
 3586TIP3   OH210702   1.971   3.292   3.426
 3586TIP3    H110703   1.907   3.363   3.415
 3586TIP3    H210704   1.929   3.231   3.487
 3587TIP3   OH210705   1.178   4.963   4.030
 3587TIP3    H110706   1.193   4.933   4.119
 3587TIP3    H210707   1.104   5.023   4.037
 3588TIP3   OH210708   3.059   3.702   5.136
 3588TIP3    H110709   3.145   3.677   5.171
 3588TIP3    H210710   3.019   3.619   5.111
 3589TIP3   OH210711   4.954   7.647   2.512
 3589TIP3    H110712   4.993   7.583   2.453
 3589TIP3    H210713   4.980   7.732   2.476
 3590TIP3   OH210714   4.871   0.303   5.083
 3590TIP3    H110715   4.793   0.266   5.042
 3590TIP3    H210716   4.874   0.393   5.052
 3591TIP3   OH210717   5.830   6.788   3.959
 3591TIP3    H110718   5.862   6.702   3.986
 3591TIP3    H210719   5.841   6.789   3.863
 3592TIP3   OH210720   2.956   2.628   4.987
 3592TIP3    H110721   2.883   2.687   4.968
 3592TIP3    H210722   3.025   2.686   5.019
 3593TIP3   OH210723   8.015   5.329   4.885
 3593TIP3    H110724   7.980   5.311   4.797
 3593TIP3    H210725   8.096   5.279   4.890
 3594TIP3   OH210726   7.050   7.243   5.404
 3594TIP3    H110727   7.035   7.153   5.431
 3594TIP3    H210728   7.080   7.236   5.313
 3595TIP3   OH210729   5.563   1.460   2.076
 3595TIP3    H110730   5.644   1.505   2.049
 3595TIP3    H210731   5.513   1.526   2.123
 3596TIP3   OH210732   1.020   5.609   0.264
 3596TIP3    H110733   0.995   5.522   0.296
 3596TIP3    H210734   1.108   5.597   0.228
 3597TIP3   OH210735   5.997   4.356   1.625
 3597TIP3    H110736   5.903   4.345   1.611
 3597TIP3    H210737   6.030   4.266   1.633
 3598TIP3   OH210738   3.729   3.543   5.521
 3598TIP3    H110739   3.723   3.452   5.494
 3598TIP3    H210740   3.751   3.590   5.441
 3599TIP3   OH210741   0.610   6.808   3.389
 3599TIP3    H110742   0.569   6.738   3.337
 3599TIP3    H210743   0.622   6.880   3.327
 3600TIP3   OH210744   8.241   2.258   5.937
 3600TIP3    H110745   8.321   2.257   5.884
 3600TIP3    H210746   8.235   2.348   5.970
 3601TIP3   OH210747   5.915   7.139   0.972
 3601TIP3    H110748   5.907   7.201   0.900
 3601TIP3    H210749   5.985   7.080   0.946
 3602TIP3   OH210750   5.396   7.312   5.545
 3602TIP3    H110751   5.360   7.307   5.456
 3602TIP3    H210752   5.361   7.235   5.589
 3603TIP3   OH210753   4.838   2.311   4.983
 3603TIP3    H110754   4.745   2.299   4.962
 3603TIP3    H210755   4.869   2.375   4.918
 3604TIP3   OH210756   7.125   1.502   1.228
 3604TIP3    H110757   7.204   1.527   1.180
 3604TIP3    H210758   7.081   1.585   1.245
 3605TIP3   OH210759   4.622   7.444   4.182
 3605TIP3    H110760   4.597   7.419   4.093
 3605TIP3    H210761   4.713   7.416   4.190
 3606TIP3   OH210762   5.554   4.576   5.273
 3606TIP3    H110763   5.494   4.651   5.272
 3606TIP3    H210764   5.555   4.546   5.182
 3607TIP3   OH210765   2.298   1.984   4.460
 3607TIP3    H110766   2.277   2.058   4.403
 3607TIP3    H210767   2.360   2.020   4.524
 3608TIP3   OH210768   1.321   0.802   0.375
 3608TIP3    H110769   1.371   0.858   0.435
 3608TIP3    H210770   1.239   0.849   0.362
 3609TIP3   OH210771   7.728   5.406   1.332
 3609TIP3    H110772   7.780   5.462   1.274
 3609TIP3    H210773   7.715   5.326   1.281
 3610TIP3   OH210774   7.102   7.035   3.018
 3610TIP3    H110775   7.078   7.123   3.045
 3610TIP3    H210776   7.114   7.041   2.923
 3611TIP3   OH210777   0.521   3.582   4.427
 3611TIP3    H110778   0.605   3.542   4.452
 3611TIP3    H210779   0.489   3.623   4.508
 3612TIP3   OH210780   4.616   3.837   4.849
 3612TIP3    H110781   4.577   3.863   4.765
 3612TIP3    H210782   4.568   3.758   4.874
 3613TIP3   OH210783   1.097   4.309   3.203
 3613TIP3    H110784   1.015   4.354   3.181
 3613TIP3    H210785   1.129   4.354   3.281
 3614TIP3   OH210786   3.630   5.076   6.401
 3614TIP3    H110787   3.591   4.992   6.427
 3614TIP3    H210788   3.617   5.132   6.477
 3615TIP3   OH210789   5.881   2.584   1.437
 3615TIP3    H110790   5.818   2.514   1.452
 3615TIP3    H210791   5.845   2.633   1.364
 3616TIP3   OH210792   1.092   3.088   5.759
 3616TIP3    H110793   1.006   3.072   5.799
 3616TIP3    H210794   1.154   3.053   5.822
 3617TIP3   OH210795   1.744   4.161   2.030
 3617TIP3    H110796   1.835   4.165   2.002
 3617TIP3    H210797   1.732   4.070   2.057
 3618TIP3   OH210798   2.764   3.213   4.546
 3618TIP3    H110799   2.802   3.144   4.491
 3618TIP3    H210800   2.710   3.165   4.609
 3619TIP3   OH210801   6.294   3.649   5.460
 3619TIP3    H110802   6.206   3.686   5.455
 3619TIP3    H210803   6.350   3.724   5.483
 3620TIP3   OH210804   6.316   6.222   6.579
 3620TIP3    H110805   6.293   6.312   6.603
 3620TIP3    H210806   6.301   6.218   6.485
 3621TIP3   OH210807   1.651   6.187   3.609
 3621TIP3    H110808   1.715   6.174   3.678
 3621TIP3    H210809   1.703   6.213   3.533
 3622TIP3   OH210810   0.026   6.576   0.857
 3622TIP3    H110811   0.090   6.564   0.928
 3622TIP3    H210812  -0.059   6.573   0.901
 3623TIP3   OH210813   1.894   3.396   1.007
 3623TIP3    H110814   1.971   3.452   1.012
 3623TIP3    H210815   1.912   3.325   1.069
 3624TIP3   OH210816   5.046   2.632   4.187
 3624TIP3    H110817   5.017   2.611   4.098
 3624TIP3    H210818   4.966   2.633   4.239
 3625TIP3   OH210819   2.242   5.073   3.694
 3625TIP3    H110820   2.162   5.115   3.723
 3625TIP3    H210821   2.252   4.996   3.750
 3626TIP3   OH210822   6.176   6.384   5.557
 3626TIP3    H110823   6.095   6.435   5.558
 3626TIP3    H210824   6.162   6.318   5.488
 3627TIP3   OH210825   3.144   2.814   1.304
 3627TIP3    H110826   3.150   2.833   1.398
 3627TIP3    H210827   3.103   2.727   1.300
 3628TIP3   OH210828   4.881   2.385   1.376
 3628TIP3    H110829   4.842   2.469   1.352
 3628TIP3    H210830   4.833   2.357   1.454
 3629TIP3   OH210831   1.921   6.110   3.711
 3629TIP3    H110832   1.867   6.041   3.672
 3629TIP3    H210833   1.965   6.068   3.784
 3630TIP3   OH210834   7.431   5.889   6.070
 3630TIP3    H110835   7.437   5.882   5.975
 3630TIP3    H210836   7.502   5.834   6.103
 3631TIP3   OH210837   7.020   7.436   3.584
 3631TIP3    H110838   7.050   7.523   3.556
 3631TIP3    H210839   7.099   7.394   3.619
 3632TIP3   OH210840   6.651   5.727   0.544
 3632TIP3    H110841   6.740   5.694   0.528
 3632TIP3    H210842   6.629   5.694   0.631
 3633TIP3   OH210843   2.827   2.789   3.434
 3633TIP3    H110844   2.885   2.753   3.368
 3633TIP3    H210845   2.833   2.728   3.507
 3634TIP3   OH210846   5.389   7.581   2.979
 3634TIP3    H110847   5.475   7.578   3.021
 3634TIP3    H210848   5.390   7.661   2.926
 3635TIP3   OH210849   8.182   6.098   5.405
 3635TIP3    H110850   8.198   6.021   5.351
 3635TIP3    H210851   8.117   6.148   5.356
 3636TIP3   OH210852   1.272   1.680   3.842
 3636TIP3    H110853   1.352   1.676   3.894
 3636TIP3    H210854   1.203   1.650   3.902
 3637TIP3   OH210855   3.926   6.237   0.385
 3637TIP3    H110856   3.982   6.226   0.307
 3637TIP3    H210857   3.966   6.179   0.450
 3638TIP3   OH210858   5.197   3.618   0.236
 3638TIP3    H110859   5.201   3.523   0.221
 3638TIP3    H210860   5.104   3.639   0.233
 3639TIP3   OH210861   1.610   6.011   0.622
 3639TIP3    H110862   1.559   5.943   0.665
 3639TIP3    H210863   1.545   6.072   0.587
 3640TIP3   OH210864   0.053   3.984   3.750
 3640TIP3    H110865   0.071   4.036   3.672
 3640TIP3    H210866   0.033   3.897   3.716
 3641TIP3   OH210867   5.263   4.920   4.984
 3641TIP3    H110868   5.264   4.864   4.906
 3641TIP3    H210869   5.184   4.972   4.975
 3642TIP3   OH210870   1.743   6.546   1.115
 3642TIP3    H110871   1.750   6.583   1.027
 3642TIP3    H210872   1.832   6.522   1.139
 3643TIP3   OH210873   0.870   7.238   5.018
 3643TIP3    H110874   0.787   7.282   5.038
 3643TIP3    H210875   0.894   7.196   5.100
 3644TIP3   OH210876   2.013   2.500   4.306
 3644TIP3    H110877   1.919   2.514   4.290
 3644TIP3    H210878   2.018   2.409   4.338
 3645TIP3   OH210879   4.597   5.817   4.747
 3645TIP3    H110880   4.667   5.833   4.684
 3645TIP3    H210881   4.516   5.835   4.699
 3646TIP3   OH210882   2.525   0.099   6.133
 3646TIP3    H110883   2.568   0.158   6.071
 3646TIP3    H210884   2.497   0.025   6.079
 3647TIP3   OH210885   6.140   4.608   2.131
 3647TIP3    H110886   6.226   4.652   2.128
 3647TIP3    H210887   6.156   4.521   2.094
 3648TIP3   OH210888   4.327   7.397   6.717
 3648TIP3    H110889   4.365   7.482   6.696
 3648TIP3    H210890   4.253   7.417   6.774
 3649TIP3   OH210891   2.646   7.209  -0.032
 3649TIP3    H110892   2.666   7.179   0.057
 3649TIP3    H210893   2.721   7.263  -0.057
 3650TIP3   OH210894   0.191   2.060   0.674
 3650TIP3    H110895   0.126   2.125   0.647
 3650TIP3    H210896   0.215   2.015   0.594
 3651TIP3   OH210897   0.115   2.350   6.613
 3651TIP3    H110898   0.153   2.374   6.698
 3651TIP3    H210899   0.181   2.295   6.571
 3652TIP3   OH210900   4.868   6.801   5.114
 3652TIP3    H110901   4.797   6.841   5.064
 3652TIP3    H210902   4.841   6.710   5.126
 3653TIP3   OH210903   7.196   4.341   3.058
 3653TIP3    H110904   7.201   4.435   3.038
 3653TIP3    H210905   7.181   4.337   3.153
 3654TIP3   OH210906   5.836   5.238   6.155
 3654TIP3    H110907   5.828   5.278   6.242
 3654TIP3    H210908   5.928   5.214   6.148
 3655TIP3   OH210909   7.102   6.562   1.453
 3655TIP3    H110910   7.053   6.563   1.371
 3655TIP3    H210911   7.144   6.647   1.457
 3656TIP3   OH210912   6.400   2.221   2.071
 3656TIP3    H110913   6.311   2.189   2.086
 3656TIP3    H210914   6.415   2.284   2.142
 3657TIP3   OH210915   2.703   2.428   3.963
 3657TIP3    H110916   2.712   2.358   4.027
 3657TIP3    H210917   2.784   2.480   3.972
 3658TIP3   OH210918   7.882   2.971   2.685
 3658TIP3    H110919   7.947   2.969   2.756
 3658TIP3    H210920   7.806   3.015   2.723
 3659TIP3   OH210921   0.433   7.447   0.063
 3659TIP3    H110922   0.432   7.375   0.000
 3659TIP3    H210923   0.519   7.488   0.052
 3660TIP3   OH210924   0.581   6.356   4.979
 3660TIP3    H110925   0.585   6.329   4.887
 3660TIP3    H210926   0.560   6.449   4.976
 3661TIP3   OH210927   2.386   3.388   4.440
 3661TIP3    H110928   2.299   3.382   4.402
 3661TIP3    H210929   2.377   3.452   4.511
 3662TIP3   OH210930   0.016   3.271   5.750
 3662TIP3    H110931   0.000   3.176   5.750
 3662TIP3    H210932   0.107   3.280   5.778
 3663TIP3   OH210933   2.375   4.147   3.934
 3663TIP3    H110934   2.327   4.202   3.872
 3663TIP3    H210935   2.314   4.076   3.955
 3664TIP3   OH210936   2.818   6.651   2.636
 3664TIP3    H110937   2.761   6.574   2.632
 3664TIP3    H210938   2.766   6.717   2.682
 3665TIP3   OH210939   5.984   0.113   4.474
 3665TIP3    H110940   5.904   0.092   4.521
 3665TIP3    H210941   5.999   0.039   4.416
 3666TIP3   OH210942   4.776   6.039   5.901
 3666TIP3    H110943   4.752   6.102   5.969
 3666TIP3    H210944   4.698   6.032   5.846
 3667TIP3   OH210945   0.921   1.578   1.286
 3667TIP3    H110946   0.865   1.641   1.240
 3667TIP3    H210947   0.877   1.564   1.370
 3668TIP3   OH210948   0.047   5.258   0.413
 3668TIP3    H110949   0.033   5.163   0.415
 3668TIP3    H210950   0.041   5.281   0.320
 3669TIP3   OH210951   5.258   7.675   5.132
 3669TIP3    H110952   5.346   7.645   5.155
 3669TIP3    H210953   5.241   7.749   5.192
 3670TIP3   OH210954   0.289   0.328   3.885
 3670TIP3    H110955   0.304   0.297   3.975
 3670TIP3    H210956   0.347   0.274   3.831
 3671TIP3   OH210957   7.154   2.787   0.022
 3671TIP3    H110958   7.083   2.723   0.032
 3671TIP3    H210959   7.131   2.837  -0.056
 3672TIP3   OH210960   1.734   1.198   1.098
 3672TIP3    H110961   1.692   1.194   1.012
 3672TIP3    H210962   1.822   1.164   1.083
 3673TIP3   OH210963   3.325   5.746   4.914
 3673TIP3    H110964   3.264   5.703   4.854
 3673TIP3    H210965   3.337   5.683   4.986
 3674TIP3   OH210966   4.535   3.399   6.187
 3674TIP3    H110967   4.449   3.393   6.145
 3674TIP3    H210968   4.592   3.434   6.118
 3675TIP3   OH210969   2.996   2.137   6.523
 3675TIP3    H110970   3.081   2.093   6.518
 3675TIP3    H210971   2.988   2.183   6.439
 3676TIP3   OH210972   7.192   0.312   0.113
 3676TIP3    H110973   7.143   0.392   0.092
 3676TIP3    H210974   7.200   0.314   0.209
 3677TIP3   OH210975   1.687   4.637   1.108
 3677TIP3    H110976   1.676   4.572   1.177
 3677TIP3    H210977   1.640   4.715   1.140
 3678TIP3   OH210978   5.875   4.123   1.812
 3678TIP3    H110979   5.927   4.097   1.888
 3678TIP3    H210980   5.908   4.070   1.740
 3679TIP3   OH210981   4.988   6.146   2.733
 3679TIP3    H110982   5.044   6.211   2.776
 3679TIP3    H210983   5.048   6.075   2.708
 3680TIP3   OH210984   0.702   1.648   6.174
 3680TIP3    H110985   0.762   1.670   6.245
 3680TIP3    H210986   0.631   1.712   6.182
 3681TIP3   OH210987   1.167   1.544   4.841
 3681TIP3    H110988   1.183   1.473   4.903
 3681TIP3    H210989   1.221   1.616   4.871
 3682TIP3   OH210990   6.974   3.729   6.085
 3682TIP3    H110991   7.010   3.700   6.001
 3682TIP3    H210992   7.051   3.758   6.135
 3683TIP3   OH210993   5.756   2.220   4.842
 3683TIP3    H110994   5.759   2.127   4.865
 3683TIP3    H210995   5.833   2.233   4.786
 3684TIP3   OH210996   3.934   7.055   5.452
 3684TIP3    H110997   3.961   7.047   5.361
 3684TIP3    H210998   3.959   6.971   5.492
 3685TIP3   OH210999   1.128   6.025   2.669
 3685TIP3    H111000   1.100   5.937   2.696
 3685TIP3    H211001   1.182   6.056   2.742
 3686TIP3   OH211002   7.236   1.520   2.263
 3686TIP3    H111003   7.235   1.519   2.167
 3686TIP3    H211004   7.254   1.611   2.285
 3687TIP3   OH211005   2.141   4.751   1.215
 3687TIP3    H111006   2.091   4.822   1.255
 3687TIP3    H211007   2.077   4.703   1.163
 3688TIP3   OH211008   3.991   6.107   1.309
 3688TIP3    H111009   4.066   6.121   1.367
 3688TIP3    H211010   4.009   6.023   1.267
 3689TIP3   OH211011   4.661   5.113   5.368
 3689TIP3    H111012   4.665   5.121   5.273
 3689TIP3    H211013   4.640   5.021   5.383
 3690TIP3   OH211014   5.322   7.687   3.382
 3690TIP3    H111015   5.271   7.686   3.300
 3690TIP3    H211016   5.262   7.726   3.446
 3691TIP3   OH211017   3.409   0.463   2.802
 3691TIP3    H111018   3.465   0.519   2.857
 3691TIP3    H211019   3.386   0.518   2.728
 3692TIP3   OH211020   2.166   6.783   6.777
 3692TIP3    H111021   2.102   6.796   6.707
 3692TIP3    H211022   2.112   6.764   6.854
 3693TIP3   OH211023   7.496   6.458   4.595
 3693TIP3    H111024   7.528   6.494   4.678
 3693TIP3    H211025   7.561   6.484   4.530
 3694TIP3   OH211026   7.435   5.991   4.124
 3694TIP3    H111027   7.441   5.923   4.191
 3694TIP3    H211028   7.394   6.065   4.169
 3695TIP3   OH211029   3.620   2.166   3.736
 3695TIP3    H111030   3.590   2.250   3.768
 3695TIP3    H211031   3.702   2.186   3.691
 3696TIP3   OH211032   5.092   2.980   5.629
 3696TIP3    H111033   5.068   2.890   5.649
 3696TIP3    H211034   5.118   3.017   5.714
 3697TIP3   OH211035   6.930   2.443   6.578
 3697TIP3    H111036   6.875   2.388   6.522
 3697TIP3    H211037   6.902   2.533   6.558
 3698TIP3   OH211038   2.183   7.411   2.815
 3698TIP3    H111039   2.155   7.458   2.894
 3698TIP3    H211040   2.222   7.330   2.849
 3699TIP3   OH211041   6.743   4.069   3.733
 3699TIP3    H111042   6.766   4.120   3.810
 3699TIP3    H211043   6.725   4.134   3.665
 3700TIP3   OH211044   0.818   2.034   6.113
 3700TIP3    H111045   0.760   2.031   6.037
 3700TIP3    H211046   0.901   1.998   6.081
 3701TIP3   OH211047   3.988   0.922   0.491
 3701TIP3    H111048   3.903   0.892   0.460
 3701TIP3    H211049   4.025   0.847   0.538
 3702TIP3   OH211050   5.423   7.421   3.353
 3702TIP3    H111051   5.339   7.375   3.355
 3702TIP3    H211052   5.401   7.512   3.371
 3703TIP3   OH211053   7.113   1.204   5.367
 3703TIP3    H111054   7.095   1.190   5.460
 3703TIP3    H211055   7.085   1.123   5.325
 3704TIP3   OH211056   1.117   1.061   3.160
 3704TIP3    H111057   1.094   0.978   3.202
 3704TIP3    H211058   1.098   1.047   3.068
 3705TIP3   OH211059   5.417   2.597   1.346
 3705TIP3    H111060   5.385   2.520   1.300
 3705TIP3    H211061   5.421   2.571   1.438
 3706TIP3   OH211062   1.147   5.492   0.687
 3706TIP3    H111063   1.142   5.571   0.632
 3706TIP3    H211064   1.056   5.474   0.711
 3707TIP3   OH211065   0.416   3.347   5.083
 3707TIP3    H111066   0.343   3.398   5.120
 3707TIP3    H211067   0.420   3.268   5.137
 3708TIP3   OH211068   4.343   5.704   1.015
 3708TIP3    H111069   4.265   5.684   0.963
 3708TIP3    H211070   4.348   5.633   1.079
 3709TIP3   OH211071   5.811   7.631   0.262
 3709TIP3    H111072   5.889   7.579   0.282
 3709TIP3    H211073   5.789   7.674   0.345
 3710TIP3   OH211074   5.043   3.132   2.554
 3710TIP3    H111075   5.089   3.090   2.481
 3710TIP3    H211076   5.108   3.135   2.625
 3711TIP3   OH211077   8.233   2.625   2.376
 3711TIP3    H111078   8.201   2.698   2.430
 3711TIP3    H211079   8.257   2.557   2.439
 3712TIP3   OH211080   1.965   1.435   1.321
 3712TIP3    H111081   1.892   1.385   1.286
 3712TIP3    H211082   1.958   1.521   1.279
 3713TIP3   OH211083   5.102   1.176   6.426
 3713TIP3    H111084   5.087   1.108   6.491
 3713TIP3    H211085   5.086   1.133   6.342
 3714TIP3   OH211086   1.615   1.191   6.766
 3714TIP3    H111087   1.580   1.120   6.820
 3714TIP3    H211088   1.654   1.147   6.691
 3715TIP3   OH211089   4.277   6.293   3.037
 3715TIP3    H111090   4.203   6.303   3.096
 3715TIP3    H211091   4.314   6.208   3.059
 3716TIP3   OH211092   4.140   3.856   5.424
 3716TIP3    H111093   4.133   3.773   5.377
 3716TIP3    H211094   4.071   3.911   5.387
 3717TIP3   OH211095   3.680   0.804   2.627
 3717TIP3    H111096   3.751   0.785   2.689
 3717TIP3    H211097   3.600   0.780   2.674
 3718TIP3   OH211098   8.247   1.912   3.270
 3718TIP3    H111099   8.173   1.861   3.301
 3718TIP3    H211100   8.227   2.002   3.295
 3719TIP3   OH211101   5.521   2.721   4.902
 3719TIP3    H111102   5.586   2.779   4.941
 3719TIP3    H211103   5.562   2.635   4.902
 3720TIP3   OH211104   7.849   3.596   2.783
 3720TIP3    H111105   7.801   3.558   2.857
 3720TIP3    H211106   7.939   3.564   2.793
 3721TIP3   OH211107   4.735   1.626   2.122
 3721TIP3    H111108   4.692   1.585   2.197
 3721TIP3    H211109   4.812   1.570   2.106
 3722TIP3   OH211110   6.229   2.448   1.500
 3722TIP3    H111111   6.310   2.496   1.488
 3722TIP3    H211112   6.184   2.494   1.571
 3723TIP3   OH211113   2.117   4.218   1.108
 3723TIP3    H111114   2.182   4.287   1.115
 3723TIP3    H211115   2.117   4.194   1.015
 3724TIP3   OH211116   5.375   6.430   5.518
 3724TIP3    H111117   5.448   6.398   5.465
 3724TIP3    H211118   5.340   6.351   5.560
 3725TIP3   OH211119   5.046   2.752   2.508
 3725TIP3    H111120   5.025   2.763   2.601
 3725TIP3    H211121   5.003   2.670   2.484
 3726TIP3   OH211122   4.018   0.025   3.414
 3726TIP3    H111123   4.063   0.030   3.498
 3726TIP3    H211124   4.057  -0.051   3.370
 3727TIP3   OH211125   6.133   6.020   5.991
 3727TIP3    H111126   6.087   5.944   5.956
 3727TIP3    H211127   6.186   5.986   6.063
 3728TIP3   OH211128   2.416   6.137   2.968
 3728TIP3    H111129   2.463   6.067   3.013
 3728TIP3    H211130   2.413   6.209   3.031
 3729TIP3   OH211131   2.450   3.121   4.437
 3729TIP3    H111132   2.424   3.210   4.413
 3729TIP3    H211133   2.529   3.133   4.490
 3730TIP3   OH211134   5.230   5.548   0.499
 3730TIP3    H111135   5.159   5.608   0.520
 3730TIP3    H211136   5.190   5.481   0.443
 3731TIP3   OH211137   6.198   2.713   3.264
 3731TIP3    H111138   6.212   2.717   3.358
 3731TIP3    H211139   6.132   2.644   3.253
 3732TIP3   OH211140   5.021   3.446   1.426
 3732TIP3    H111141   5.061   3.360   1.440
 3732TIP3    H211142   4.938   3.428   1.382
 3733TIP3   OH211143   6.437   2.300   3.672
 3733TIP3    H111144   6.388   2.338   3.744
 3733TIP3    H211145   6.436   2.367   3.604
 3734TIP3   OH211146   0.027   4.082   4.037
 3734TIP3    H111147   0.039   4.165   3.991
 3734TIP3    H211148   0.056   4.016   3.975
 3735TIP3   OH211149   7.424   2.575   3.675
 3735TIP3    H111150   7.460   2.586   3.764
 3735TIP3    H211151   7.500   2.587   3.617
 3736TIP3   OH211152   4.695   0.664   3.139
 3736TIP3    H111153   4.774   0.615   3.164
 3736TIP3    H211154   4.670   0.711   3.218
 3737TIP3   OH211155   6.242   1.984   5.686
 3737TIP3    H111156   6.269   2.033   5.764
 3737TIP3    H211157   6.167   1.932   5.715
 3738TIP3   OH211158   2.637   1.184   4.759
 3738TIP3    H111159   2.645   1.231   4.843
 3738TIP3    H211160   2.640   1.253   4.693
 3739TIP3   OH211161   7.111   7.381   1.755
 3739TIP3    H111162   7.118   7.470   1.722
 3739TIP3    H211163   7.084   7.391   1.846
 3740TIP3   OH211164   7.599   5.907   3.450
 3740TIP3    H111165   7.505   5.891   3.442
 3740TIP3    H211166   7.639   5.847   3.387
 3741TIP3   OH211167   1.879   1.702   4.754
 3741TIP3    H111168   1.894   1.714   4.848
 3741TIP3    H211169   1.790   1.667   4.749
 3742TIP3   OH211170   3.417   6.931   2.909
 3742TIP3    H111171   3.487   6.874   2.942
 3742TIP3    H211172   3.373   6.878   2.842
 3743TIP3   OH211173   5.186   1.959   1.625
 3743TIP3    H111174   5.105   1.929   1.583
 3743TIP3    H211175   5.164   2.045   1.660
 3744TIP3   OH211176   6.852   0.311   1.615
 3744TIP3    H111177   6.852   0.405   1.634
 3744TIP3    H211178   6.764   0.294   1.582
 3745TIP3   OH211179   3.687   7.600   1.157
 3745TIP3    H111180   3.663   7.591   1.064
 3745TIP3    H211181   3.699   7.510   1.187
 3746TIP3   OH211182   7.118   2.802   4.085
 3746TIP3    H111183   7.086   2.872   4.027
 3746TIP3    H211184   7.094   2.722   4.039
 3747TIP3   OH211185   5.212   0.448   4.970
 3747TIP3    H111186   5.262   0.525   4.995
 3747TIP3    H211187   5.243   0.427   4.882
 3748TIP3   OH211188   6.378   0.612   2.634
 3748TIP3    H111189   6.395   0.520   2.649
 3748TIP3    H211190   6.393   0.625   2.540
 3749TIP3   OH211191   0.859   4.456   3.185
 3749TIP3    H111192   0.814   4.402   3.251
 3749TIP3    H211193   0.789   4.490   3.129
 3750TIP3   OH211194   7.963   6.198   3.625
 3750TIP3    H111195   7.935   6.280   3.586
 3750TIP3    H211196   8.040   6.172   3.574
 3751TIP3   OH211197   5.253   3.806   4.530
 3751TIP3    H111198   5.246   3.736   4.465
 3751TIP3    H211199   5.260   3.761   4.614
 3752TIP3   OH211200   4.352   2.315   6.758
 3752TIP3    H111201   4.341   2.304   6.664
 3752TIP3    H211202   4.442   2.344   6.769
 3753TIP3   OH211203   4.694   3.550   6.020
 3753TIP3    H111204   4.648   3.588   5.945
 3753TIP3    H211205   4.765   3.499   5.981
 3754TIP3   OH211206   0.170   0.426   1.508
 3754TIP3    H111207   0.245   0.467   1.465
 3754TIP3    H211208   0.094   0.452   1.455
 3755TIP3   OH211209   2.180   2.956   5.552
 3755TIP3    H111210   2.133   2.873   5.554
 3755TIP3    H211211   2.174   2.985   5.461
 3756TIP3   OH211212   6.651   1.301   0.122
 3756TIP3    H111213   6.695   1.330   0.203
 3756TIP3    H211214   6.559   1.295   0.146
 3757TIP3   OH211215   3.316   7.776   5.289
 3757TIP3    H111216   3.281   7.741   5.207
 3757TIP3    H211217   3.244   7.764   5.352
 3758TIP3   OH211218   4.895   5.201   2.468
 3758TIP3    H111219   4.841   5.132   2.429
 3758TIP3    H211220   4.838   5.244   2.532
 3759TIP3   OH211221   4.554   1.084   4.638
 3759TIP3    H111222   4.637   1.092   4.591
 3759TIP3    H211223   4.488   1.119   4.579
 3760TIP3   OH211224   3.255   0.215   2.168
 3760TIP3    H111225   3.277   0.279   2.100
 3760TIP3    H211226   3.335   0.208   2.221
 3761TIP3   OH211227   7.120   7.821   2.520
 3761TIP3    H111228   7.144   7.745   2.468
 3761TIP3    H211229   7.038   7.796   2.563
 3762TIP3   OH211230   6.353   0.605   4.622
 3762TIP3    H111231   6.339   0.680   4.564
 3762TIP3    H211232   6.406   0.544   4.570
 3763TIP3   OH211233   1.060   3.564   3.908
 3763TIP3    H111234   1.123   3.608   3.851
 3763TIP3    H211235   1.066   3.610   3.991
 3764TIP3   OH211236   0.324   0.420   5.318
 3764TIP3    H111237   0.325   0.412   5.413
 3764TIP3    H211238   0.412   0.391   5.290
 3765TIP3   OH211239   4.866   4.216   1.238
 3765TIP3    H111240   4.840   4.292   1.290
 3765TIP3    H211241   4.955   4.196   1.268
 3766TIP3   OH211242   4.132   0.617   1.659
 3766TIP3    H111243   4.169   0.595   1.573
 3766TIP3    H211244   4.188   0.571   1.721
 3767TIP3   OH211245   6.549   7.685   3.985
 3767TIP3    H111246   6.462   7.689   4.026
 3767TIP3    H211247   6.609   7.711   4.055
 3768TIP3   OH211248   0.437   0.949   4.959
 3768TIP3    H111249   0.379   0.884   4.999
 3768TIP3    H211250   0.525   0.915   4.974
 3769TIP3   OH211251   6.181   0.014   3.607
 3769TIP3    H111252   6.162  -0.028   3.522
 3769TIP3    H211253   6.102  -0.002   3.659
 3770TIP3   OH211254   7.550   0.121   0.517
 3770TIP3    H111255   7.538   0.034   0.555
 3770TIP3    H211256   7.619   0.110   0.452
 3771TIP3   OH211257   5.652   3.191   0.487
 3771TIP3    H111258   5.743   3.163   0.480
 3771TIP3    H211259   5.602   3.109   0.480
 3772TIP3   OH211260   5.033   7.500   4.778
 3772TIP3    H111261   4.959   7.482   4.719
 3772TIP3    H211262   5.103   7.529   4.720
 3773TIP3   OH211263   1.226   5.989   0.786
 3773TIP3    H111264   1.220   6.069   0.838
 3773TIP3    H211265   1.156   5.933   0.820
 3774TIP3   OH211266   0.887   2.514   1.805
 3774TIP3    H111267   0.917   2.496   1.893
 3774TIP3    H211268   0.882   2.610   1.800
 3775TIP3   OH211269   5.992   4.267   1.258
 3775TIP3    H111270   5.937   4.333   1.301
 3775TIP3    H211271   5.936   4.189   1.252
 3776TIP3   OH211272   5.456   2.132   5.924
 3776TIP3    H111273   5.550   2.131   5.905
 3776TIP3    H211274   5.443   2.214   5.972
 3777TIP3   OH211275   2.334   5.507   5.831
 3777TIP3    H111276   2.413   5.519   5.778
 3777TIP3    H211277   2.346   5.421   5.872
 3778TIP3   OH211278   5.176   6.283   1.571
 3778TIP3    H111279   5.142   6.357   1.520
 3778TIP3    H211280   5.244   6.246   1.516
 3779TIP3   OH211281   1.831   7.616   6.700
 3779TIP3    H111282   1.819   7.551   6.769
 3779TIP3    H211283   1.926   7.627   6.693
 3780TIP3   OH211284   4.543   4.502   6.286
 3780TIP3    H111285   4.548   4.551   6.204
 3780TIP3    H211286   4.585   4.419   6.267
 3781TIP3   OH211287   1.550   2.382   4.078
 3781TIP3    H111288   1.501   2.320   4.133
 3781TIP3    H211289   1.635   2.390   4.121
 3782TIP3   OH211290   1.895   2.589   3.977
 3782TIP3    H111291   1.845   2.670   3.986
 3782TIP3    H211292   1.847   2.538   3.911
 3783TIP3   OH211293   3.715   2.695   5.195
 3783TIP3    H111294   3.742   2.608   5.224
 3783TIP3    H211295   3.669   2.680   5.113
 3784TIP3   OH211296   2.797   3.749   3.685
 3784TIP3    H111297   2.742   3.779   3.757
 3784TIP3    H211298   2.754   3.669   3.654
 3785TIP3   OH211299   4.730   6.224   6.115
 3785TIP3    H111300   4.645   6.269   6.114
 3785TIP3    H211301   4.738   6.189   6.203
 3786TIP3   OH211302   5.944   1.464   4.379
 3786TIP3    H111303   6.033   1.431   4.364
 3786TIP3    H211304   5.955   1.559   4.390
 3787TIP3   OH211305   6.660   2.889   2.733
 3787TIP3    H111306   6.633   2.899   2.642
 3787TIP3    H211307   6.587   2.925   2.784
 3788TIP3   OH211308   5.397   1.291   2.424
 3788TIP3    H111309   5.312   1.307   2.384
 3788TIP3    H211310   5.423   1.375   2.462
 3789TIP3   OH211311   7.400   3.839   0.202
 3789TIP3    H111312   7.399   3.823   0.296
 3789TIP3    H211313   7.338   3.911   0.189
 3790TIP3   OH211314   4.741   6.410   1.601
 3790TIP3    H111315   4.651   6.380   1.612
 3790TIP3    H211316   4.795   6.334   1.623
 3791TIP3   OH211317   0.982   5.998   1.725
 3791TIP3    H111318   1.045   5.948   1.673
 3791TIP3    H211319   0.939   5.933   1.780
 3792TIP3   OH211320   5.375   6.348   0.980
 3792TIP3    H111321   5.345   6.391   0.900
 3792TIP3    H211322   5.369   6.416   1.048
 3793TIP3   OH211323   1.748   4.539   5.611
 3793TIP3    H111324   1.803   4.571   5.539
 3793TIP3    H211325   1.755   4.444   5.605
 3794TIP3   OH211326   7.023   3.479   3.178
 3794TIP3    H111327   7.096   3.418   3.173
 3794TIP3    H211328   7.056   3.559   3.138
 3795TIP3   OH211329   5.539   0.309   1.448
 3795TIP3    H111330   5.492   0.259   1.382
 3795TIP3    H211331   5.487   0.298   1.528
 3796TIP3   OH211332   7.829   5.165   1.763
 3796TIP3    H111333   7.767   5.103   1.800
 3796TIP3    H211334   7.780   5.208   1.692
 3797TIP3   OH211335   4.649   6.842   0.874
 3797TIP3    H111336   4.624   6.828   0.782
 3797TIP3    H211337   4.695   6.762   0.898
 3798TIP3   OH211338   4.377   4.764   0.147
 3798TIP3    H111339   4.365   4.856   0.171
 3798TIP3    H211340   4.472   4.752   0.147
 3799TIP3   OH211341   1.857   7.046   1.669
 3799TIP3    H111342   1.832   6.995   1.747
 3799TIP3    H211343   1.910   7.118   1.704
 3800TIP3   OH211344   5.816   2.904   1.886
 3800TIP3    H111345   5.787   2.987   1.848
 3800TIP3    H211346   5.910   2.902   1.867
 3801TIP3   OH211347   3.386   0.929   2.804
 3801TIP3    H111348   3.455   0.948   2.868
 3801TIP3    H211349   3.395   0.998   2.739
 3802TIP3   OH211350   2.931   6.308   4.394
 3802TIP3    H111351   2.884   6.242   4.445
 3802TIP3    H211352   2.933   6.385   4.450
 3803TIP3   OH211353   0.225   4.652   3.246
 3803TIP3    H111354   0.312   4.611   3.245
 3803TIP3    H211355   0.169   4.590   3.200
 3804TIP3   OH211356   1.740   3.367   0.536
 3804TIP3    H111357   1.820   3.371   0.589
 3804TIP3    H211358   1.718   3.274   0.533
 3805TIP3   OH211359   7.816   7.799   4.394
 3805TIP3    H111360   7.851   7.809   4.306
 3805TIP3    H211361   7.892   7.778   4.448
 3806TIP3   OH211362   1.041   4.532   2.854
 3806TIP3    H111363   1.134   4.512   2.845
 3806TIP3    H211364   0.997   4.476   2.790
 3807TIP3   OH211365   4.898   4.798   1.349
 3807TIP3    H111366   4.809   4.818   1.320
 3807TIP3    H211367   4.910   4.851   1.428
 3808TIP3   OH211368   3.458   7.603   0.681
 3808TIP3    H111369   3.425   7.612   0.592
 3808TIP3    H211370   3.469   7.693   0.712
 3809TIP3   OH211371   2.161   7.020   5.201
 3809TIP3    H111372   2.179   6.964   5.277
 3809TIP3    H211373   2.120   6.961   5.138
 3810TIP3   OH211374   2.799   3.101   1.912
 3810TIP3    H111375   2.866   3.033   1.907
 3810TIP3    H211376   2.840   3.178   1.872
 3811TIP3   OH211377   4.253   0.395   3.769
 3811TIP3    H111378   4.329   0.446   3.796
 3811TIP3    H211379   4.213   0.365   3.851
 3812TIP3   OH211380   4.717   0.727   6.053
 3812TIP3    H111381   4.777   0.736   6.127
 3812TIP3    H211382   4.739   0.642   6.014
 3813TIP3   OH211383   4.404   3.089   4.241
 3813TIP3    H111384   4.321   3.054   4.211
 3813TIP3    H211385   4.444   3.127   4.162
 3814TIP3   OH211386   0.807   1.337   3.602
 3814TIP3    H111387   0.827   1.389   3.524
 3814TIP3    H211388   0.787   1.402   3.670
 3815TIP3   OH211389   5.134   7.643   4.451
 3815TIP3    H111390   5.185   7.581   4.398
 3815TIP3    H211391   5.169   7.632   4.539
 3816TIP3   OH211392   3.496   1.612   1.623
 3816TIP3    H111393   3.564   1.584   1.684
 3816TIP3    H211394   3.538   1.676   1.566
 3817TIP3   OH211395   7.794   7.318   5.540
 3817TIP3    H111396   7.859   7.310   5.610
 3817TIP3    H211397   7.793   7.412   5.519
 3818TIP3   OH211398   7.356   2.527   6.520
 3818TIP3    H111399   7.304   2.457   6.482
 3818TIP3    H211400   7.438   2.484   6.546
 3819TIP3   OH211401   5.575   1.547   1.735
 3819TIP3    H111402   5.509   1.536   1.666
 3819TIP3    H211403   5.573   1.640   1.755
 3820TIP3   OH211404   7.767   2.726   1.716
 3820TIP3    H111405   7.799   2.693   1.632
 3820TIP3    H211406   7.672   2.728   1.707
 3821TIP3   OH211407   2.174   4.081   0.524
 3821TIP3    H111408   2.199   4.157   0.471
 3821TIP3    H211409   2.241   4.077   0.593
 3822TIP3   OH211410   5.973   1.412   0.667
 3822TIP3    H111411   5.958   1.320   0.645
 3822TIP3    H211412   6.062   1.414   0.704
 3823TIP3   OH211413   1.925   3.774   1.848
 3823TIP3    H111414   1.839   3.783   1.808
 3823TIP3    H211415   1.918   3.820   1.932
 3824TIP3   OH211416   2.623   7.028   2.193
 3824TIP3    H111417   2.570   7.082   2.251
 3824TIP3    H211418   2.654   7.090   2.126
 3825TIP3   OH211419   4.654   2.090   2.017
 3825TIP3    H111420   4.695   2.045   1.944
 3825TIP3    H211421   4.693   2.050   2.095
 3826TIP3   OH211422   2.801   2.839   2.345
 3826TIP3    H111423   2.712   2.806   2.363
 3826TIP3    H211424   2.792   2.888   2.263
 3827TIP3   OH211425   5.834   5.269   6.430
 3827TIP3    H111426   5.813   5.196   6.488
 3827TIP3    H211427   5.783   5.342   6.465
 3828TIP3   OH211428   4.429   1.026   6.144
 3828TIP3    H111429   4.425   1.121   6.136
 3828TIP3    H211430   4.377   0.993   6.071
 3829TIP3   OH211431   6.573   7.427   5.867
 3829TIP3    H111432   6.638   7.372   5.911
 3829TIP3    H211433   6.621   7.507   5.844
 3830TIP3   OH211434   2.690   7.341   3.479
 3830TIP3    H111435   2.625   7.285   3.522
 3830TIP3    H211436   2.725   7.287   3.408
 3831TIP3   OH211437   4.406   2.878   5.476
 3831TIP3    H111438   4.412   2.973   5.473
 3831TIP3    H211439   4.313   2.860   5.491
 3832TIP3   OH211440   6.869   4.462   5.910
 3832TIP3    H111441   6.958   4.482   5.941
 3832TIP3    H211442   6.813   4.516   5.965
 3833TIP3   OH211443   3.148   7.088   4.325
 3833TIP3    H111444   3.187   7.019   4.378
 3833TIP3    H211445   3.054   7.069   4.327
 3834TIP3   OH211446   6.604   7.088   1.023
 3834TIP3    H111447   6.655   7.155   1.070
 3834TIP3    H211448   6.632   7.098   0.931
 3835TIP3   OH211449   5.833   7.412   2.065
 3835TIP3    H111450   5.913   7.423   2.118
 3835TIP3    H211451   5.792   7.498   2.066
 3836TIP3   OH211452   5.470   2.485   5.575
 3836TIP3    H111453   5.540   2.423   5.596
 3836TIP3    H211454   5.442   2.461   5.486
 3837TIP3   OH211455   1.409   7.435   0.271
 3837TIP3    H111456   1.391   7.510   0.328
 3837TIP3    H211457   1.500   7.448   0.243
 3838TIP3   OH211458   6.505   0.200   1.107
 3838TIP3    H111459   6.555   0.247   1.174
 3838TIP3    H211460   6.518   0.107   1.129
 3839TIP3   OH211461   0.388   4.160   1.096
 3839TIP3    H111462   0.332   4.204   1.161
 3839TIP3    H211463   0.397   4.070   1.130
 3840TIP3   OH211464   7.325   7.244   4.247
 3840TIP3    H111465   7.417   7.255   4.273
 3840TIP3    H211466   7.294   7.169   4.298
 3841TIP3   OH211467   7.841   7.547   1.512
 3841TIP3    H111468   7.779   7.476   1.527
 3841TIP3    H211469   7.791   7.614   1.465
 3842TIP3   OH211470   7.363   4.456   0.242
 3842TIP3    H111471   7.269   4.441   0.247
 3842TIP3    H211472   7.372   4.551   0.231
 3843TIP3   OH211473   1.707   6.811   6.498
 3843TIP3    H111474   1.760   6.859   6.434
 3843TIP3    H211475   1.744   6.723   6.498
 3844TIP3   OH211476   5.987   6.249   4.175
 3844TIP3    H111477   5.942   6.225   4.257
 3844TIP3    H211478   5.916   6.259   4.111
 3845TIP3   OH211479   7.649   6.777   0.903
 3845TIP3    H111480   7.564   6.804   0.937
 3845TIP3    H211481   7.654   6.684   0.923
 3846TIP3   OH211482   4.671   3.393   0.142
 3846TIP3    H111483   4.732   3.413   0.213
 3846TIP3    H211484   4.591   3.442   0.164
 3847TIP3   OH211485   3.390   5.419   5.591
 3847TIP3    H111486   3.480   5.388   5.586
 3847TIP3    H211487   3.379   5.449   5.682
 3848TIP3   OH211488   4.407   6.598   5.857
 3848TIP3    H111489   4.420   6.691   5.840
 3848TIP3    H211490   4.456   6.581   5.938
 3849TIP3   OH211491   3.959   7.628   5.547
 3849TIP3    H111492   3.886   7.679   5.582
 3849TIP3    H211493   3.997   7.585   5.625
 3850TIP3   OH211494   0.197   3.530   3.323
 3850TIP3    H111495   0.263   3.462   3.335
 3850TIP3    H211496   0.216   3.569   3.238
 3851TIP3   OH211497   5.103   1.179   5.178
 3851TIP3    H111498   5.025   1.129   5.155
 3851TIP3    H211499   5.161   1.115   5.220
 3852TIP3   OH211500   5.465   5.725   3.639
 3852TIP3    H111501   5.414   5.761   3.565
 3852TIP3    H211502   5.403   5.726   3.712
 3853TIP3   OH211503   0.836   2.857   1.169
 3853TIP3    H111504   0.846   2.921   1.099
 3853TIP3    H211505   0.795   2.906   1.241
 3854TIP3   OH211506   3.256   0.944   3.859
 3854TIP3    H111507   3.235   0.886   3.786
 3854TIP3    H211508   3.176   0.948   3.911
 3855TIP3   OH211509   6.155   0.168   2.836
 3855TIP3    H111510   6.238   0.164   2.884
 3855TIP3    H211511   6.136   0.077   2.813
 3856TIP3   OH211512   0.807   2.778   1.789
 3856TIP3    H111513   0.755   2.826   1.853
 3856TIP3    H211514   0.764   2.795   1.705
 3857TIP3   OH211515   8.088   1.870   2.552
 3857TIP3    H111516   8.030   1.795   2.540
 3857TIP3    H211517   8.154   1.840   2.613
 3858TIP3   OH211518   2.288   0.732   5.943
 3858TIP3    H111519   2.297   0.825   5.921
 3858TIP3    H211520   2.370   0.692   5.916
 3859TIP3   OH211521   5.526   3.419   3.568
 3859TIP3    H111522   5.524   3.510   3.596
 3859TIP3    H211523   5.518   3.368   3.649
 3860TIP3   OH211524   7.969   0.091   2.724
 3860TIP3    H111525   7.930   0.177   2.743
 3860TIP3    H211526   7.993   0.096   2.631
 3861TIP3   OH211527   4.494   0.063   6.107
 3861TIP3    H111528   4.561   0.058   6.176
 3861TIP3    H211529   4.411   0.048   6.153
 3862TIP3   OH211530   2.398   6.965   5.718
 3862TIP3    H111531   2.485   7.006   5.721
 3862TIP3    H211532   2.354   6.999   5.796
 3863TIP3   OH211533   0.348   4.966   1.865
 3863TIP3    H111534   0.418   4.970   1.801
 3863TIP3    H211535   0.307   4.880   1.851
 3864TIP3   OH211536   7.014   3.967   3.632
 3864TIP3    H111537   6.922   3.943   3.625
 3864TIP3    H211538   7.045   3.970   3.541
 3865TIP3   OH211539   2.038   2.309   3.032
 3865TIP3    H111540   1.949   2.292   3.003
 3865TIP3    H211541   2.093   2.266   2.967
 3866TIP3   OH211542   7.383   6.665   2.928
 3866TIP3    H111543   7.398   6.683   3.021
 3866TIP3    H211544   7.429   6.583   2.911
 3867TIP3   OH211545   0.313   0.623   5.940
 3867TIP3    H111546   0.248   0.588   6.001
 3867TIP3    H211547   0.266   0.689   5.889
 3868TIP3   OH211548   7.157   5.631   4.743
 3868TIP3    H111549   7.237   5.631   4.691
 3868TIP3    H211550   7.097   5.575   4.694
 3869TIP3   OH211551   7.820   1.238   2.717
 3869TIP3    H111552   7.875   1.295   2.662
 3869TIP3    H211553   7.815   1.156   2.669
 3870TIP3   OH211554   1.015   6.434   3.562
 3870TIP3    H111555   0.949   6.499   3.539
 3870TIP3    H211556   1.089   6.454   3.505
 3871TIP3   OH211557   1.067   3.401   5.669
 3871TIP3    H111558   0.994   3.341   5.683
 3871TIP3    H211559   1.131   3.379   5.736
 3872TIP3   OH211560   6.779   4.022   3.265
 3872TIP3    H111561   6.834   4.100   3.258
 3872TIP3    H211562   6.779   3.985   3.176
 3873TIP3   OH211563   1.473   4.369   0.954
 3873TIP3    H111564   1.481   4.292   0.899
 3873TIP3    H211565   1.446   4.439   0.894
 3874TIP3   OH211566   5.737   4.851   2.083
 3874TIP3    H111567   5.654   4.806   2.101
 3874TIP3    H211568   5.782   4.794   2.020
 3875TIP3   OH211569   4.564   7.196   1.938
 3875TIP3    H111570   4.659   7.209   1.934
 3875TIP3    H211571   4.554   7.107   1.972
 3876TIP3   OH211572   1.784   2.049   3.760
 3876TIP3    H111573   1.716   2.114   3.780
 3876TIP3    H211574   1.858   2.101   3.728
 3877TIP3   OH211575   0.098   5.585   4.589
 3877TIP3    H111576   0.011   5.604   4.555
 3877TIP3    H211577   0.090   5.496   4.626
 3878TIP3   OH211578   6.884   5.627   6.460
 3878TIP3    H111579   6.925   5.703   6.419
 3878TIP3    H211580   6.851   5.576   6.386
 3879TIP3   OH211581   1.874   3.332   3.885
 3879TIP3    H111582   1.785   3.299   3.890
 3879TIP3    H211583   1.900   3.347   3.976
 3880TIP3   OH211584   5.719   4.323   1.541
 3880TIP3    H111585   5.663   4.346   1.615
 3880TIP3    H211586   5.678   4.245   1.503
 3881TIP3   OH211587   3.881   2.478   3.277
 3881TIP3    H111588   3.816   2.448   3.340
 3881TIP3    H211589   3.936   2.401   3.262
 3882TIP3   OH211590   7.012   2.056   0.621
 3882TIP3    H111591   7.075   2.050   0.693
 3882TIP3    H211592   7.028   2.143   0.583
 3883TIP3   OH211593   7.342   0.511   5.804
 3883TIP3    H111594   7.278   0.529   5.736
 3883TIP3    H211595   7.401   0.447   5.766
 3884TIP3   OH211596   8.078   3.964   3.722
 3884TIP3    H111597   8.145   4.011   3.770
 3884TIP3    H211598   8.036   3.907   3.787
 3885TIP3   OH211599   6.199   1.579   1.839
 3885TIP3    H111600   6.161   1.629   1.767
 3885TIP3    H211601   6.181   1.488   1.818
 3886TIP3   OH211602   0.968   2.800   3.669
 3886TIP3    H111603   0.973   2.877   3.725
 3886TIP3    H211604   0.898   2.747   3.707
 3887TIP3   OH211605   3.211   2.423   3.130
 3887TIP3    H111606   3.262   2.498   3.100
 3887TIP3    H211607   3.251   2.348   3.086
 3888TIP3   OH211608   8.267   2.219   0.651
 3888TIP3    H111609   8.253   2.308   0.620
 3888TIP3    H211610   8.284   2.229   0.745
 3889TIP3   OH211611   7.358   2.966   6.249
 3889TIP3    H111612   7.267   2.937   6.259
 3889TIP3    H211613   7.406   2.918   6.317
 3890TIP3   OH211614   7.605   4.093   6.308
 3890TIP3    H111615   7.514   4.120   6.319
 3890TIP3    H211616   7.656   4.173   6.323
 3891TIP3   OH211617   6.888   6.989   5.657
 3891TIP3    H111618   6.958   6.973   5.595
 3891TIP3    H211619   6.828   7.049   5.612
 3892TIP3   OH211620   0.575   1.468   0.030
 3892TIP3    H111621   0.604   1.535   0.092
 3892TIP3    H211622   0.544   1.396   0.084
 3893TIP3   OH211623   5.179   1.996   1.221
 3893TIP3    H111624   5.169   2.081   1.263
 3893TIP3    H211625   5.267   1.997   1.184
 3894TIP3   OH211626   3.463   2.539   5.375
 3894TIP3    H111627   3.482   2.632   5.361
 3894TIP3    H211628   3.468   2.500   5.287
 3895TIP3   OH211629   7.874   6.912   0.098
 3895TIP3    H111630   7.856   6.819   0.113
 3895TIP3    H211631   7.836   6.957   0.173
 3896TIP3   OH211632   7.989   6.286   5.306
 3896TIP3    H111633   7.957   6.306   5.218
 3896TIP3    H211634   7.988   6.370   5.351
 3897TIP3   OH211635   2.259   0.650   0.784
 3897TIP3    H111636   2.227   0.653   0.694
 3897TIP3    H211637   2.348   0.684   0.778
 3898TIP3   OH211638   7.019   4.348   5.158
 3898TIP3    H111639   6.987   4.405   5.088
 3898TIP3    H211640   7.113   4.364   5.161
 3899TIP3   OH211641   4.384   2.410   4.890
 3899TIP3    H111642   4.309   2.395   4.833
 3899TIP3    H211643   4.436   2.477   4.845
 3900TIP3   OH211644   6.387   5.765   2.143
 3900TIP3    H111645   6.470   5.805   2.171
 3900TIP3    H211646   6.413   5.693   2.086
 3901TIP3   OH211647   4.061   7.639   4.023
 3901TIP3    H111648   4.022   7.552   4.023
 3901TIP3    H211649   4.000   7.694   4.072
 3902TIP3   OH211650   1.653   1.611   5.337
 3902TIP3    H111651   1.650   1.533   5.281
 3902TIP3    H211652   1.566   1.649   5.331
 3903TIP3   OH211653   4.193   4.015   1.736
 3903TIP3    H111654   4.222   4.026   1.646
 3903TIP3    H211655   4.215   4.098   1.779
 3904TIP3   OH211656   3.588   7.099   2.191
 3904TIP3    H111657   3.530   7.171   2.213
 3904TIP3    H211658   3.654   7.098   2.261
 3905TIP3   OH211659   2.503   3.301   2.578
 3905TIP3    H111660   2.454   3.351   2.514
 3905TIP3    H211661   2.594   3.306   2.548
 3906TIP3   OH211662   5.217   4.532   5.651
 3906TIP3    H111663   5.134   4.520   5.605
 3906TIP3    H211664   5.203   4.609   5.706
 3907TIP3   OH211665   1.929   1.171   6.464
 3907TIP3    H111666   1.969   1.131   6.388
 3907TIP3    H211667   1.873   1.241   6.428
 3908TIP3   OH211668   1.472   7.407   1.915
 3908TIP3    H111669   1.500   7.414   2.006
 3908TIP3    H211670   1.542   7.359   1.872
 3909TIP3   OH211671   0.921   0.582   5.762
 3909TIP3    H111672   0.952   0.561   5.850
 3909TIP3    H211673   0.858   0.653   5.775
 3910TIP3   OH211674   1.622   4.771   5.076
 3910TIP3    H111675   1.536   4.811   5.062
 3910TIP3    H211676   1.684   4.841   5.055
 3911TIP3   OH211677   6.071   1.030   5.379
 3911TIP3    H111678   6.098   0.949   5.423
 3911TIP3    H211679   6.083   1.011   5.286
 3912TIP3   OH211680   1.803   3.062   4.456
 3912TIP3    H111681   1.768   3.057   4.367
 3912TIP3    H211682   1.733   3.029   4.511
 3913TIP3   OH211683   2.315   3.918   0.265
 3913TIP3    H111684   2.234   3.963   0.288
 3913TIP3    H211685   2.376   3.988   0.243
 3914TIP3   OH211686   5.960   7.355   3.509
 3914TIP3    H111687   6.008   7.274   3.494
 3914TIP3    H211688   5.926   7.346   3.598
 3915TIP3   OH211689   4.095   7.560   3.044
 3915TIP3    H111690   4.151   7.482   3.044
 3915TIP3    H211691   4.081   7.580   3.137
 3916TIP3   OH211692   2.015   6.988   4.163
 3916TIP3    H111693   1.970   7.047   4.223
 3916TIP3    H211694   2.105   6.986   4.196
 3917TIP3   OH211695   4.064   7.476   3.324
 3917TIP3    H111696   4.045   7.550   3.381
 3917TIP3    H211697   4.120   7.419   3.376
 3918TIP3   OH211698   4.040   0.049   2.787
 3918TIP3    H111699   4.102   0.109   2.746
 3918TIP3    H211700   3.963   0.103   2.806
 3919TIP3   OH211701   7.312   5.850   3.404
 3919TIP3    H111702   7.236   5.894   3.441
 3919TIP3    H211703   7.345   5.794   3.474
 3920TIP3   OH211704   1.773   3.389   5.954
 3920TIP3    H111705   1.765   3.458   6.019
 3920TIP3    H211706   1.866   3.365   5.954
 3921TIP3   OH211707   0.280   2.357   1.827
 3921TIP3    H111708   0.322   2.321   1.905
 3921TIP3    H211709   0.245   2.280   1.781
 3922TIP3   OH211710   7.869   5.648   3.480
 3922TIP3    H111711   7.795   5.642   3.540
 3922TIP3    H211712   7.907   5.559   3.480
 3923TIP3   OH211713   7.336   5.128   0.741
 3923TIP3    H111714   7.314   5.049   0.792
 3923TIP3    H211715   7.252   5.170   0.724
 3924TIP3   OH211716   3.061   1.844   3.365
 3924TIP3    H111717   3.002   1.768   3.360
 3924TIP3    H211718   3.067   1.864   3.458
 3925TIP3   OH211719   5.326   1.961   4.580
 3925TIP3    H111720   5.375   1.980   4.500
 3925TIP3    H211721   5.394   1.953   4.648
 3926TIP3   OH211722   2.089   2.227   2.463
 3926TIP3    H111723   2.061   2.245   2.373
 3926TIP3    H211724   2.182   2.249   2.464
 3927TIP3   OH211725   0.958   3.735   1.542
 3927TIP3    H111726   0.876   3.699   1.577
 3927TIP3    H211727   0.948   3.728   1.447
 3928TIP3   OH211728   0.842   2.187   5.331
 3928TIP3    H111729   0.897   2.172   5.408
 3928TIP3    H211730   0.882   2.262   5.287
 3929TIP3   OH211731   7.681   2.206   3.365
 3929TIP3    H111732   7.755   2.149   3.343
 3929TIP3    H211733   7.670   2.196   3.459
 3930TIP3   OH211734   0.197   2.204   1.560
 3930TIP3    H111735   0.264   2.153   1.605
 3930TIP3    H211736   0.145   2.139   1.513
 3931TIP3   OH211737   2.969   4.236   2.797
 3931TIP3    H111738   3.030   4.202   2.862
 3931TIP3    H211739   2.934   4.158   2.753
 3932TIP3   OH211740   1.914   6.680   1.825
 3932TIP3    H111741   1.976   6.664   1.753
 3932TIP3    H211742   1.886   6.592   1.851
 3933TIP3   OH211743   2.873   5.139   2.032
 3933TIP3    H111744   2.817   5.071   2.069
 3933TIP3    H211745   2.943   5.092   1.988
 3934TIP3   OH211746   2.100   0.601   4.293
 3934TIP3    H111747   2.055   0.651   4.225
 3934TIP3    H211748   2.063   0.513   4.288
 3935TIP3   OH211749   3.787   0.148   2.743
 3935TIP3    H111750   3.765   0.229   2.698
 3935TIP3    H211751   3.719   0.086   2.717
 3936TIP3   OH211752   0.817   7.191   1.164
 3936TIP3    H111753   0.826   7.096   1.155
 3936TIP3    H211754   0.760   7.217   1.091
 3937TIP3   OH211755   6.423   0.613   4.008
 3937TIP3    H111756   6.395   0.612   4.099
 3937TIP3    H211757   6.343   0.599   3.957
 3938TIP3   OH211758   0.030   5.676   1.726
 3938TIP3    H111759   0.124   5.681   1.712
 3938TIP3    H211760   0.000   5.606   1.669
 3939TIP3   OH211761   0.686   6.696   5.663
 3939TIP3    H111762   0.719   6.709   5.574
 3939TIP3    H211763   0.761   6.713   5.720
 3940TIP3   OH211764   2.800   5.681   5.661
 3940TIP3    H111765   2.800   5.753   5.598
 3940TIP3    H211766   2.789   5.723   5.746
 3941TIP3   OH211767   5.142   2.921   0.968
 3941TIP3    H111768   5.187   2.851   1.015
 3941TIP3    H211769   5.059   2.882   0.939
 3942TIP3   OH211770   3.899   1.732   0.358
 3942TIP3    H111771   3.894   1.676   0.280
 3942TIP3    H211772   3.812   1.727   0.397
 3943TIP3   OH211773   7.599   6.941   4.985
 3943TIP3    H111774   7.619   7.010   4.922
 3943TIP3    H211775   7.665   6.951   5.054
 3944TIP3   OH211776   0.395   5.244   3.587
 3944TIP3    H111777   0.451   5.322   3.592
 3944TIP3    H211778   0.338   5.251   3.663
 3945TIP3   OH211779   1.194   3.585   4.451
 3945TIP3    H111780   1.208   3.651   4.519
 3945TIP3    H211781   1.111   3.544   4.474
 3946TIP3   OH211782   1.287   2.790   5.155
 3946TIP3    H111783   1.371   2.769   5.114
 3946TIP3    H211784   1.306   2.793   5.249
 3947TIP3   OH211785   3.068   2.565   1.254
 3947TIP3    H111786   3.012   2.525   1.188
 3947TIP3    H211787   3.040   2.525   1.337
 3948TIP3   OH211788   3.320   4.955   6.614
 3948TIP3    H111789   3.232   4.951   6.651
 3948TIP3    H211790   3.377   4.921   6.683
 3949TIP3   OH211791   1.048   5.459   1.883
 3949TIP3    H111792   1.018   5.385   1.936
 3949TIP3    H211793   1.094   5.419   1.809
 3950TIP3   OH211794   7.218   5.543   0.485
 3950TIP3    H111795   7.164   5.551   0.407
 3950TIP3    H211796   7.300   5.506   0.454
 3951TIP3   OH211797   7.151   5.721   5.261
 3951TIP3    H111798   7.233   5.768   5.274
 3951TIP3    H211799   7.084   5.790   5.262
 3952TIP3   OH211800   0.249   5.692   3.186
 3952TIP3    H111801   0.268   5.719   3.096
 3952TIP3    H211802   0.298   5.754   3.240
 3953TIP3   OH211803   2.334   0.451   4.456
 3953TIP3    H111804   2.281   0.374   4.433
 3953TIP3    H211805   2.420   0.415   4.480
 3954TIP3   OH211806   8.040   1.195   5.875
 3954TIP3    H111807   7.992   1.276   5.855
 3954TIP3    H211808   8.061   1.202   5.968
 3955TIP3   OH211809   0.533   4.939   2.789
 3955TIP3    H111810   0.628   4.931   2.780
 3955TIP3    H211811   0.514   4.897   2.873
 3956TIP3   OH211812   0.232   0.925   6.073
 3956TIP3    H111813   0.191   0.982   6.137
 3956TIP3    H211814   0.162   0.899   6.013
 3957TIP3   OH211815   0.288   7.253   2.927
 3957TIP3    H111816   0.309   7.225   3.016
 3957TIP3    H211817   0.299   7.348   2.928
 3958TIP3   OH211818   4.953   6.037   4.699
 3958TIP3    H111819   5.039   6.071   4.724
 3958TIP3    H211820   4.896   6.058   4.773
 3959TIP3   OH211821   1.327   4.637   3.989
 3959TIP3    H111822   1.348   4.627   3.896
 3959TIP3    H211823   1.232   4.626   3.993
 3960TIP3   OH211824   3.697   3.920   5.315
 3960TIP3    H111825   3.676   3.965   5.397
 3960TIP3    H211826   3.779   3.960   5.286
 3961TIP3   OH211827   1.221   3.430   1.065
 3961TIP3    H111828   1.150   3.375   1.099
 3961TIP3    H211829   1.297   3.408   1.119
 3962TIP3   OH211830   3.481   4.665   4.271
 3962TIP3    H111831   3.396   4.621   4.276
 3962TIP3    H211832   3.468   4.746   4.320
 3963TIP3   OH211833   0.026   3.836   6.070
 3963TIP3    H111834  -0.053   3.834   6.016
 3963TIP3    H211835   0.081   3.904   6.029
 3964TIP3   OH211836   2.300   0.770   2.764
 3964TIP3    H111837   2.248   0.716   2.824
 3964TIP3    H211838   2.300   0.857   2.803
 3965TIP3   OH211839   7.977   5.532   5.383
 3965TIP3    H111840   7.933   5.579   5.454
 3965TIP3    H211841   8.069   5.531   5.407
 3966TIP3   OH211842   4.040   4.371   1.600
 3966TIP3    H111843   4.101   4.297   1.593
 3966TIP3    H211844   4.069   4.432   1.533
 3967TIP3   OH211845   6.270   4.726   3.533
 3967TIP3    H111846   6.197   4.704   3.475
 3967TIP3    H211847   6.229   4.735   3.619
 3968TIP3   OH211848   3.026   4.276   1.276
 3968TIP3    H111849   3.034   4.371   1.281
 3968TIP3    H211850   3.093   4.243   1.336
 3969TIP3   OH211851   2.841   7.549   4.944
 3969TIP3    H111852   2.826   7.515   4.856
 3969TIP3    H211853   2.919   7.503   4.975
 3970TIP3   OH211854   1.776   1.260   2.995
 3970TIP3    H111855   1.734   1.318   2.932
 3970TIP3    H211856   1.738   1.284   3.079
 3971TIP3   OH211857   2.685   0.739   1.261
 3971TIP3    H111858   2.750   0.776   1.201
 3971TIP3    H211859   2.601   0.771   1.228
 3972TIP3   OH211860   5.088   0.586   5.907
 3972TIP3    H111861   5.119   0.623   5.825
 3972TIP3    H211862   5.003   0.546   5.885
 3973TIP3   OH211863   5.464   0.124   4.571
 3973TIP3    H111864   5.484   0.165   4.487
 3973TIP3    H211865   5.547   0.085   4.599
 3974TIP3   OH211866   3.741   1.941   3.853
 3974TIP3    H111867   3.695   1.998   3.791
 3974TIP3    H211868   3.701   1.961   3.938
 3975TIP3   OH211869   5.905   3.513   2.763
 3975TIP3    H111870   5.961   3.475   2.696
 3975TIP3    H211871   5.949   3.493   2.845
 3976TIP3   OH211872   7.893   4.504   5.414
 3976TIP3    H111873   7.853   4.589   5.430
 3976TIP3    H211874   7.956   4.519   5.343
 3977TIP3   OH211875   3.656   4.185   4.227
 3977TIP3    H111876   3.599   4.182   4.304
 3977TIP3    H211877   3.669   4.094   4.202
 3978TIP3   OH211878   8.005   3.252   1.277
 3978TIP3    H111879   7.988   3.305   1.200
 3978TIP3    H211880   7.930   3.267   1.334
 3979TIP3   OH211881   7.535   2.429   5.070
 3979TIP3    H111882   7.490   2.483   5.135
 3979TIP3    H211883   7.599   2.379   5.121
 3980TIP3   OH211884   4.745   5.357   3.379
 3980TIP3    H111885   4.824   5.338   3.328
 3980TIP3    H211886   4.707   5.271   3.396
 3981TIP3   OH211887   5.135   4.167   4.741
 3981TIP3    H111888   5.230   4.171   4.731
 3981TIP3    H211889   5.102   4.245   4.696
 3982TIP3   OH211890   5.774   2.849   1.498
 3982TIP3    H111891   5.819   2.878   1.419
 3982TIP3    H211892   5.792   2.755   1.503
 3983TIP3   OH211893   0.062   3.265   0.437
 3983TIP3    H111894   0.120   3.260   0.514
 3983TIP3    H211895   0.088   3.347   0.394
 3984TIP3   OH211896   2.378   1.405   4.876
 3984TIP3    H111897   2.304   1.433   4.823
 3984TIP3    H211898   2.339   1.359   4.950
 3985TIP3   OH211899   4.001   5.829   2.898
 3985TIP3    H111900   3.972   5.896   2.959
 3985TIP3    H211901   4.040   5.761   2.953
 3986TIP3   OH211902   4.896   1.092   0.160
 3986TIP3    H111903   4.838   1.143   0.105
 3986TIP3    H211904   4.905   1.008   0.114
 3987TIP3   OH211905   7.011   5.009   1.803
 3987TIP3    H111906   6.966   5.063   1.868
 3987TIP3    H211907   6.978   4.920   1.819
 3988TIP3   OH211908   0.714   5.903   5.206
 3988TIP3    H111909   0.712   5.994   5.176
 3988TIP3    H211910   0.635   5.894   5.259
 3989TIP3   OH211911   4.760   1.903   4.196
 3989TIP3    H111912   4.786   1.882   4.286
 3989TIP3    H211913   4.672   1.867   4.188
 3990TIP3   OH211914   1.385   2.502   2.047
 3990TIP3    H111915   1.432   2.546   1.976
 3990TIP3    H211916   1.297   2.485   2.011
 3991TIP3   OH211917   1.478   5.000   6.628
 3991TIP3    H111918   1.522   4.918   6.652
 3991TIP3    H211919   1.418   5.017   6.701
 3992TIP3   OH211920   1.314   2.459   3.513
 3992TIP3    H111921   1.271   2.512   3.579
 3992TIP3    H211922   1.269   2.481   3.431
 3993TIP3   OH211923   4.966   3.456   6.384
 3993TIP3    H111924   4.921   3.398   6.322
 3993TIP3    H211925   4.930   3.543   6.365
 3994TIP3   OH211926   1.636   4.473   3.344
 3994TIP3    H111927   1.725   4.464   3.378
 3994TIP3    H211928   1.609   4.384   3.322
 3995TIP3   OH211929   6.367   3.813   4.785
 3995TIP3    H111930   6.417   3.823   4.866
 3995TIP3    H211931   6.278   3.792   4.815
 3996TIP3   OH211932   3.864   2.244   0.211
 3996TIP3    H111933   3.903   2.299   0.143
 3996TIP3    H211934   3.918   2.165   0.213
 3997TIP3   OH211935   6.290   0.349   2.676
 3997TIP3    H111936   6.354   0.295   2.631
 3997TIP3    H211937   6.240   0.288   2.729
 3998TIP3   OH211938   7.577   7.711   5.934
 3998TIP3    H111939   7.630   7.791   5.934
 3998TIP3    H211940   7.563   7.691   6.027
 3999TIP3   OH211941   7.776   5.972   3.698
 3999TIP3    H111942   7.816   6.056   3.675
 3999TIP3    H211943   7.711   5.957   3.629
 4000TIP3   OH211944   1.518   1.854   0.940
 4000TIP3    H111945   1.435   1.846   0.894
 4000TIP3    H211946   1.548   1.763   0.951
 4001TIP3   OH211947   0.783   6.244   3.843
 4001TIP3    H111948   0.852   6.221   3.780
 4001TIP3    H211949   0.770   6.165   3.895
 4002TIP3   OH211950   3.843   5.401   3.730
 4002TIP3    H111951   3.796   5.445   3.801
 4002TIP3    H211952   3.819   5.309   3.740
 4003TIP3   OH211953   1.549   1.489   2.620
 4003TIP3    H111954   1.579   1.402   2.646
 4003TIP3    H211955   1.543   1.538   2.703
 4004TIP3   OH211956   0.002   2.748   4.124
 4004TIP3    H111957   0.074   2.757   4.188
 4004TIP3    H211958  -0.068   2.802   4.159
 4005TIP3   OH211959   2.481   2.154   0.790
 4005TIP3    H111960   2.405   2.110   0.827
 4005TIP3    H211961   2.519   2.090   0.730
 4006TIP3   OH211962   0.036   0.197   6.635
 4006TIP3    H111963  -0.038   0.137   6.645
 4006TIP3    H211964   0.006   0.279   6.677
 4007TIP3   OH211965   0.944   5.615   4.265
 4007TIP3    H111966   0.919   5.540   4.320
 4007TIP3    H211967   0.962   5.685   4.327
 4008TIP3   OH211968   5.126   7.337   6.511
 4008TIP3    H111969   5.095   7.355   6.600
 4008TIP3    H211970   5.222   7.340   6.518
 4009TIP3   OH211971   6.866   7.084   3.244
 4009TIP3    H111972   6.838   7.027   3.316
 4009TIP3    H211973   6.907   7.024   3.181
 4010TIP3   OH211974   0.901   2.076   1.229
 4010TIP3    H111975   0.977   2.067   1.287
 4010TIP3    H211976   0.833   2.112   1.285
 4011TIP3   OH211977   2.912   0.125   6.630
 4011TIP3    H111978   2.924   0.047   6.577
 4011TIP3    H211979   2.980   0.119   6.697
 4012TIP3   OH211980   6.463   1.311   4.661
 4012TIP3    H111981   6.416   1.229   4.645
 4012TIP3    H211982   6.405   1.362   4.717
 4013TIP3   OH211983   8.043   4.908   1.071
 4013TIP3    H111984   8.137   4.922   1.075
 4013TIP3    H211985   8.006   4.975   1.129
 4014TIP3   OH211986   5.800   0.974   3.831
 4014TIP3    H111987   5.771   1.052   3.878
 4014TIP3    H211988   5.805   0.906   3.898
 4015TIP3   OH211989   4.055   2.049   0.191
 4015TIP3    H111990   4.096   2.003   0.264
 4015TIP3    H211991   4.128   2.088   0.143
 4016TIP3   OH211992   7.098   3.623   5.854
 4016TIP3    H111993   7.047   3.613   5.773
 4016TIP3    H211994   7.184   3.589   5.833
 4017TIP3   OH211995   7.867   5.065   1.240
 4017TIP3    H111996   7.850   5.086   1.332
 4017TIP3    H211997   7.799   5.000   1.218
 4018TIP3   OH211998   5.931   6.203   5.024
 4018TIP3    H111999   5.922   6.297   5.006
 4018TIP3    H212000   6.023   6.184   5.007
 4019TIP3   OH212001   6.666   3.310   1.539
 4019TIP3    H112002   6.693   3.247   1.606
 4019TIP3    H212003   6.571   3.298   1.532
 4020TIP3   OH212004   3.873   5.351   2.686
 4020TIP3    H112005   3.951   5.404   2.704
 4020TIP3    H212006   3.802   5.416   2.678
 4021TIP3   OH212007   0.990   1.034   1.211
 4021TIP3    H112008   0.936   0.998   1.281
 4021TIP3    H212009   1.080   1.025   1.243
 4022TIP3   OH212010   7.764   6.596   4.168
 4022TIP3    H112011   7.834   6.539   4.200
 4022TIP3    H212012   7.692   6.537   4.147
 4023TIP3   OH212013   7.005   7.581   4.132
 4023TIP3    H112014   6.983   7.534   4.051
 4023TIP3    H212015   7.015   7.511   4.197
 4024TIP3   OH212016   4.168   2.173   4.269
 4024TIP3    H112017   4.104   2.217   4.324
 4024TIP3    H212018   4.152   2.080   4.283
 4025TIP3   OH212019   1.023   0.424   1.405
 4025TIP3    H112020   1.069   0.388   1.481
 4025TIP3    H212021   0.957   0.483   1.443
 4026TIP3   OH212022   1.405   0.289   1.053
 4026TIP3    H112023   1.462   0.349   1.004
 4026TIP3    H212024   1.341   0.259   0.989
 4027TIP3   OH212025   1.402   0.539   0.339
 4027TIP3    H112026   1.379   0.531   0.247
 4027TIP3    H212027   1.394   0.633   0.358
 4028TIP3   OH212028   3.012   5.802   2.149
 4028TIP3    H112029   2.966   5.718   2.142
 4028TIP3    H212030   3.094   5.780   2.193
 4029TIP3   OH212031   3.637   7.665   0.378
 4029TIP3    H112032   3.675   7.591   0.425
 4029TIP3    H212033   3.644   7.739   0.439
 4030TIP3   OH212034   6.667   2.323   4.906
 4030TIP3    H112035   6.589   2.339   4.960
 4030TIP3    H212036   6.632   2.283   4.827
 4031TIP3   OH212037   0.436   2.737   4.041
 4031TIP3    H112038   0.471   2.660   4.086
 4031TIP3    H212039   0.450   2.719   3.948
 4032TIP3   OH212040   0.286   2.662   5.766
 4032TIP3    H112041   0.280   2.626   5.678
 4032TIP3    H212042   0.197   2.688   5.787
 4033TIP3   OH212043   7.439   4.569   6.584
 4033TIP3    H112044   7.449   4.658   6.550
 4033TIP3    H212045   7.370   4.576   6.649
 4034TIP3   OH212046   0.964   0.541   4.529
 4034TIP3    H112047   0.880   0.519   4.489
 4034TIP3    H212048   0.996   0.458   4.566
 4035TIP3   OH212049   1.034   2.478   2.055
 4035TIP3    H112050   1.046   2.573   2.043
 4035TIP3    H212051   0.994   2.471   2.142
 4036TIP3   OH212052   2.932   3.664   4.615
 4036TIP3    H112053   2.900   3.577   4.636
 4036TIP3    H212054   2.931   3.710   4.699
 4037TIP3   OH212055   2.931   5.938   2.739
 4037TIP3    H112056   2.992   5.893   2.798
 4037TIP3    H212057   2.845   5.923   2.779
 4038TIP3   OH212058   6.726   1.576   0.067
 4038TIP3    H112059   6.659   1.597   0.133
 4038TIP3    H212060   6.803   1.626   0.094
 4039TIP3   OH212061   7.686   7.252   4.074
 4039TIP3    H112062   7.773   7.213   4.068
 4039TIP3    H212063   7.689   7.329   4.017
 4040TIP3   OH212064   4.481   5.096   6.414
 4040TIP3    H112065   4.505   5.008   6.387
 4040TIP3    H212066   4.385   5.097   6.413
 4041TIP3   OH212067   1.613   0.313   0.297
 4041TIP3    H112068   1.585   0.282   0.384
 4041TIP3    H212069   1.531   0.332   0.251
 4042TIP3   OH212070   5.617   6.204   1.689
 4042TIP3    H112071   5.579   6.147   1.622
 4042TIP3    H212072   5.692   6.245   1.646
 4043TIP3   OH212073   4.972   4.827   2.226
 4043TIP3    H112074   4.893   4.807   2.278
 4043TIP3    H212075   5.043   4.828   2.290
 4044TIP3   OH212076   2.108   2.394   3.274
 4044TIP3    H112077   2.115   2.364   3.184
 4044TIP3    H212078   2.014   2.395   3.293
 4045TIP3   OH212079   4.809   2.031   3.767
 4045TIP3    H112080   4.785   2.106   3.822
 4045TIP3    H212081   4.903   2.019   3.781
 4046TIP3   OH212082   1.618   0.173   0.542
 4046TIP3    H112083   1.712   0.156   0.555
 4046TIP3    H212084   1.593   0.226   0.618
 4047TIP3   OH212085   7.903   4.314   3.026
 4047TIP3    H112086   7.819   4.284   3.060
 4047TIP3    H212087   7.924   4.252   2.956
 4048TIP3   OH212088   8.294   0.250   2.789
 4048TIP3    H112089   8.228   0.319   2.797
 4048TIP3    H212090   8.271   0.186   2.857
 4049TIP3   OH212091   6.580   1.632   2.389
 4049TIP3    H112092   6.498   1.655   2.432
 4049TIP3    H212093   6.647   1.645   2.457
 4050TIP3   OH212094   4.886   4.786   2.678
 4050TIP3    H112095   4.870   4.826   2.763
 4050TIP3    H212096   4.959   4.725   2.693
 4051TIP3   OH212097   5.423   2.681   0.126
 4051TIP3    H112098   5.437   2.586   0.122
 4051TIP3    H212099   5.509   2.716   0.150
 4052TIP3   OH212100   1.756   2.928   3.614
 4052TIP3    H112101   1.798   2.850   3.649
 4052TIP3    H212102   1.665   2.902   3.600
 4053TIP3   OH212103   7.303   5.887   6.684
 4053TIP3    H112104   7.227   5.833   6.663
 4053TIP3    H212105   7.335   5.917   6.599
 4054TIP3   OH212106   5.405   7.746   2.753
 4054TIP3    H112107   5.331   7.806   2.743
 4054TIP3    H212108   5.476   7.787   2.704
 4055TIP3   OH212109   3.722   2.093   6.103
 4055TIP3    H112110   3.756   2.035   6.035
 4055TIP3    H212111   3.643   2.049   6.135
 4056TIP3   OH212112   2.267   0.123   1.530
 4056TIP3    H112113   2.234   0.073   1.456
 4056TIP3    H212114   2.246   0.214   1.509
 4057TIP3   OH212115   0.024   6.512   6.635
 4057TIP3    H112116   0.051   6.470   6.717
 4057TIP3    H212117   0.024   6.606   6.655
 4058TIP3   OH212118   3.652   3.078   4.321
 4058TIP3    H112119   3.567   3.100   4.359
 4058TIP3    H212120   3.634   3.005   4.262
 4059TIP3   OH212121   3.306   2.095   2.156
 4059TIP3    H112122   3.288   2.010   2.116
 4059TIP3    H212123   3.379   2.078   2.215
 4060TIP3   OH212124   0.310   2.073   3.675
 4060TIP3    H112125   0.383   2.048   3.732
 4060TIP3    H212126   0.244   2.106   3.736
 4061TIP3   OH212127   3.694   1.921   6.584
 4061TIP3    H112128   3.676   2.008   6.549
 4061TIP3    H212129   3.770   1.933   6.641
 4062TIP3   OH212130   1.363   0.982   5.460
 4062TIP3    H112131   1.287   1.040   5.464
 4062TIP3    H212132   1.346   0.924   5.386
 4063TIP3   OH212133   3.999   6.053   3.051
 4063TIP3    H112134   3.937   6.109   3.004
 4063TIP3    H212135   4.012   6.097   3.135
 4064TIP3   OH212136   0.999   2.731   5.632
 4064TIP3    H112137   1.023   2.728   5.725
 4064TIP3    H212138   1.070   2.683   5.588
 4065TIP3   OH212139   4.236   2.477   1.701
 4065TIP3    H112140   4.323   2.489   1.740
 4065TIP3    H212141   4.245   2.509   1.611
 4066TIP3   OH212142   1.735   2.064   4.816
 4066TIP3    H112143   1.802   2.009   4.855
 4066TIP3    H212144   1.711   2.019   4.735
 4067TIP3   OH212145   0.799   2.043   4.096
 4067TIP3    H112146   0.849   2.050   4.015
 4067TIP3    H212147   0.751   2.126   4.102
 4068TIP3   OH212148   4.525   2.001   4.697
 4068TIP3    H112149   4.529   1.933   4.765
 4068TIP3    H212150   4.568   2.076   4.737
 4069TIP3   OH212151   6.485   3.589   0.763
 4069TIP3    H112152   6.521   3.504   0.739
 4069TIP3    H212153   6.480   3.587   0.858
 4070TIP3   OH212154   7.897   1.121   5.614
 4070TIP3    H112155   7.932   1.174   5.543
 4070TIP3    H212156   7.926   1.165   5.694
 4071TIP3   OH212157   0.897   3.132   1.404
 4071TIP3    H112158   0.869   3.064   1.465
 4071TIP3    H212159   0.829   3.199   1.411
 4072TIP3   OH212160   0.922   6.494   3.905
 4072TIP3    H112161   1.011   6.470   3.931
 4072TIP3    H212162   0.876   6.411   3.896
 4073TIP3   OH212163   5.320   0.612   5.446
 4073TIP3    H112164   5.385   0.555   5.489
 4073TIP3    H212165   5.276   0.555   5.383
 4074TIP3   OH212166   7.286   7.600   6.030
 4074TIP3    H112167   7.300   7.529   6.093
 4074TIP3    H212168   7.277   7.555   5.946
 4075TIP3   OH212169   0.068   2.633   4.952
 4075TIP3    H112170   0.118   2.561   4.915
 4075TIP3    H212171   0.125   2.709   4.943
 4076TIP3   OH212172   5.447   7.250   2.828
 4076TIP3    H112173   5.382   7.302   2.782
 4076TIP3    H212174   5.503   7.314   2.871
 4077TIP3   OH212175   8.267   6.714   6.345
 4077TIP3    H112176   8.235   6.792   6.299
 4077TIP3    H212177   8.214   6.642   6.311
 4078TIP3   OH212178   1.811   1.326   4.694
 4078TIP3    H112179   1.758   1.276   4.632
 4078TIP3    H212180   1.899   1.325   4.658
 4079TIP3   OH212181   0.318   2.714   0.872
 4079TIP3    H112182   0.295   2.673   0.788
 4079TIP3    H212183   0.324   2.642   0.934
 4080TIP3   OH212184   1.296   3.099   5.583
 4080TIP3    H112185   1.328   3.008   5.578
 4080TIP3    H212186   1.227   3.096   5.649
 4081TIP3   OH212187   3.578   5.019   5.847
 4081TIP3    H112188   3.520   5.044   5.919
 4081TIP3    H212189   3.634   5.096   5.833
 4082TIP3   OH212190   0.501   7.743   2.895
 4082TIP3    H112191   0.525   7.708   2.980
 4082TIP3    H212192   0.536   7.832   2.895
 4083TIP3   OH212193   2.927   3.850   0.779
 4083TIP3    H112194   2.922   3.766   0.732
 4083TIP3    H212195   3.021   3.864   0.791
 4084TIP3   OH212196   3.340   4.217   3.622
 4084TIP3    H112197   3.384   4.295   3.589
 4084TIP3    H212198   3.312   4.170   3.543
 4085TIP3   OH212199   7.769   6.921   0.361
 4085TIP3    H112200   7.824   6.850   0.393
 4085TIP3    H212201   7.700   6.930   0.427
 4086TIP3   OH212202   2.596   3.794   1.824
 4086TIP3    H112203   2.635   3.708   1.840
 4086TIP3    H212204   2.502   3.777   1.815
 4087TIP3   OH212205   2.544   5.038   6.114
 4087TIP3    H112206   2.566   5.039   6.207
 4087TIP3    H212207   2.451   5.057   6.110
 4088TIP3   OH212208   3.229   3.175   1.636
 4088TIP3    H112209   3.306   3.124   1.661
 4088TIP3    H212210   3.217   3.238   1.707
 4089TIP3   OH212211   4.388   6.763   0.437
 4089TIP3    H112212   4.399   6.685   0.384
 4089TIP3    H212213   4.328   6.818   0.386
 4090TIP3   OH212214   3.986   3.827   5.702
 4090TIP3    H112215   3.931   3.892   5.658
 4090TIP3    H212216   4.006   3.763   5.634
 4091TIP3   OH212217   7.830   4.463   1.381
 4091TIP3    H112218   7.859   4.372   1.380
 4091TIP3    H212219   7.752   4.464   1.325
 4092TIP3   OH212220   6.337   3.034   1.868
 4092TIP3    H112221   6.321   2.957   1.923
 4092TIP3    H212222   6.409   3.008   1.811
 4093TIP3   OH212223   5.293   4.651   4.504
 4093TIP3    H112224   5.372   4.705   4.502
 4093TIP3    H212225   5.225   4.707   4.468
 4094TIP3   OH212226   3.764   7.131   2.380
 4094TIP3    H112227   3.828   7.061   2.386
 4094TIP3    H212228   3.704   7.115   2.453
 4095TIP3   OH212229   3.154   0.416   5.078
 4095TIP3    H112230   3.225   0.355   5.060
 4095TIP3    H212231   3.100   0.415   4.999
 4096TIP3   OH212232   6.300   0.605   1.934
 4096TIP3    H112233   6.232   0.545   1.966
 4096TIP3    H212234   6.277   0.620   1.842
 4097TIP3   OH212235   4.600   5.123   3.415
 4097TIP3    H112236   4.688   5.088   3.427
 4097TIP3    H212237   4.553   5.053   3.369
 4098TIP3   OH212238   6.088   3.825   0.382
 4098TIP3    H112239   6.165   3.769   0.392
 4098TIP3    H212240   6.116   3.910   0.416
 4099TIP3   OH212241   3.410   7.306   0.271
 4099TIP3    H112242   3.402   7.401   0.275
 4099TIP3    H212243   3.387   7.276   0.360
 4100TIP3   OH212244   2.747   5.372   4.319
 4100TIP3    H112245   2.663   5.415   4.300
 4100TIP3    H212246   2.740   5.286   4.278
 4101TIP3   OH212247   0.314   6.110   6.226
 4101TIP3    H112248   0.393   6.082   6.179
 4101TIP3    H212249   0.291   6.194   6.187
 4102TIP3   OH212250   6.269   3.803   6.689
 4102TIP3    H112251   6.271   3.794   6.594
 4102TIP3    H212252   6.315   3.885   6.706
 4103TIP3   OH212253   4.774   4.774   4.288
 4103TIP3    H112254   4.738   4.688   4.266
 4103TIP3    H212255   4.869   4.763   4.282
 4104TIP3   OH212256   3.396   2.425   3.533
 4104TIP3    H112257   3.348   2.497   3.575
 4104TIP3    H212258   3.368   2.347   3.580
 4105TIP3   OH212259   3.502   0.905   5.636
 4105TIP3    H112260   3.593   0.895   5.664
 4105TIP3    H212261   3.451   0.885   5.714
 4106TIP3   OH212262   7.967   3.779   3.513
 4106TIP3    H112263   8.051   3.752   3.476
 4106TIP3    H212264   7.983   3.866   3.549
 4107TIP3   OH212265   4.084   2.545   2.137
 4107TIP3    H112266   4.083   2.524   2.044
 4107TIP3    H212267   4.143   2.481   2.176
 4108TIP3   OH212268   2.454   6.245   2.488
 4108TIP3    H112269   2.419   6.169   2.534
 4108TIP3    H212270   2.384   6.311   2.494
 4109TIP3   OH212271   4.080   0.596   6.178
 4109TIP3    H112272   4.081   0.537   6.103
 4109TIP3    H212273   4.167   0.587   6.217
 4110TIP3   OH212274   0.330   2.141   4.822
 4110TIP3    H112275   0.251   2.112   4.869
 4110TIP3    H212276   0.388   2.065   4.823
 4111TIP3   OH212277   1.711   0.733   0.406
 4111TIP3    H112278   1.701   0.798   0.337
 4111TIP3    H212279   1.786   0.680   0.380
 4112TIP3   OH212280   5.327   3.269   0.813
 4112TIP3    H112281   5.256   3.283   0.875
 4112TIP3    H212282   5.357   3.180   0.832
 4113TIP3   OH212283   4.603   7.020   2.831
 4113TIP3    H112284   4.525   7.029   2.885
 4113TIP3    H212285   4.608   6.927   2.810
 4114TIP3   OH212286   7.383   3.137   6.752
 4114TIP3    H112287   7.335   3.166   6.674
 4114TIP3    H212288   7.316   3.095   6.807
 4115TIP3   OH212289   7.912   6.619   6.363
 4115TIP3    H112290   7.988   6.566   6.388
 4115TIP3    H212291   7.935   6.654   6.277
 4116TIP3   OH212292   7.602   1.154   0.752
 4116TIP3    H112293   7.626   1.245   0.739
 4116TIP3    H212294   7.684   1.112   0.781
 4117TIP3   OH212295   7.880   4.342   4.157
 4117TIP3    H112296   7.837   4.352   4.072
 4117TIP3    H212297   7.972   4.327   4.137
 4118TIP3   OH212298   7.670   5.564   6.453
 4118TIP3    H112299   7.720   5.637   6.417
 4118TIP3    H212300   7.727   5.525   6.519
 4119TIP3   OH212301   3.838   5.315   4.191
 4119TIP3    H112302   3.864   5.344   4.103
 4119TIP3    H212303   3.916   5.271   4.225
 4120TIP3   OH212304   2.636   4.256   0.665
 4120TIP3    H112305   2.670   4.323   0.724
 4120TIP3    H212306   2.685   4.177   0.687
 4121TIP3   OH212307   2.097   0.500   5.930
 4121TIP3    H112308   2.171   0.465   5.980
 4121TIP3    H212309   2.133   0.576   5.885
 4122TIP3   OH212310   5.822   0.059   2.979
 4122TIP3    H112311   5.807   0.154   2.982
 4122TIP3    H212312   5.822   0.037   2.886
 4123TIP3   OH212313   0.229   1.625   0.259
 4123TIP3    H112314   0.297   1.692   0.263
 4123TIP3    H212315   0.175   1.640   0.337
 4124TIP3   OH212316   3.872   0.272   2.194
 4124TIP3    H112317   3.784   0.276   2.157
 4124TIP3    H212318   3.906   0.361   2.183
 4125TIP3   OH212319   6.835   5.158   5.407
 4125TIP3    H112320   6.811   5.098   5.478
 4125TIP3    H212321   6.846   5.243   5.450
 4126TIP3   OH212322   6.929   7.567   1.540
 4126TIP3    H112323   6.893   7.540   1.456
 4126TIP3    H212324   6.854   7.606   1.586
 4127TIP3   OH212325   7.498   4.796   6.428
 4127TIP3    H112326   7.549   4.864   6.472
 4127TIP3    H212327   7.409   4.831   6.427
 4128TIP3   OH212328   4.893   6.371   1.286
 4128TIP3    H112329   4.983   6.402   1.292
 4128TIP3    H212330   4.900   6.284   1.244
 4129TIP3   OH212331   5.806   2.728   4.158
 4129TIP3    H112332   5.737   2.665   4.139
 4129TIP3    H212333   5.765   2.791   4.217
 4130TIP3   OH212334   0.713   0.163   3.389
 4130TIP3    H112335   0.688   0.075   3.417
 4130TIP3    H212336   0.713   0.158   3.293
 4131TIP3   OH212337   0.052   3.719   1.188
 4131TIP3    H112338   0.011   3.677   1.112
 4131TIP3    H212339  -0.002   3.796   1.204
 4132TIP3   OH212340   0.315   0.245   1.769
 4132TIP3    H112341   0.318   0.149   1.764
 4132TIP3    H212342   0.302   0.273   1.678
 4133TIP3   OH212343   5.436   3.275   3.230
 4133TIP3    H112344   5.501   3.263   3.299
 4133TIP3    H212345   5.442   3.197   3.176
 4134TIP3   OH212346   4.533   7.689   1.887
 4134TIP3    H112347   4.592   7.637   1.832
 4134TIP3    H212348   4.524   7.772   1.841
 4135TIP3   OH212349   4.114   0.730   4.033
 4135TIP3    H112350   4.129   0.819   4.002
 4135TIP3    H212351   4.164   0.724   4.115
 4136TIP3   OH212352   2.590   4.701   2.169
 4136TIP3    H112353   2.501   4.704   2.206
 4136TIP3    H212354   2.613   4.608   2.170
 4137TIP3   OH212355   5.571   0.288   6.705
 4137TIP3    H112356   5.549   0.318   6.793
 4137TIP3    H212357   5.550   0.362   6.648
 4138TIP3   OH212358   7.452   1.583   1.152
 4138TIP3    H112359   7.466   1.677   1.166
 4138TIP3    H212360   7.525   1.541   1.197
 4139TIP3   OH212361   3.864   4.301   4.372
 4139TIP3    H112362   3.821   4.240   4.311
 4139TIP3    H212363   3.811   4.380   4.367
 4140TIP3   OH212364   5.189   4.503   2.978
 4140TIP3    H112365   5.257   4.555   3.021
 4140TIP3    H212366   5.197   4.416   3.016
 4141TIP3   OH212367   3.105   7.432   0.316
 4141TIP3    H112368   3.077   7.388   0.396
 4141TIP3    H212369   3.032   7.420   0.255
 4142TIP3   OH212370   7.828   1.599   2.899
 4142TIP3    H112371   7.799   1.540   2.969
 4142TIP3    H212372   7.778   1.679   2.913
 4143TIP3   OH212373   5.758   7.091   0.030
 4143TIP3    H112374   5.756   7.010   0.081
 4143TIP3    H212375   5.818   7.148   0.077
 4144TIP3   OH212376   3.917   0.176   5.745
 4144TIP3    H112377   3.975   0.251   5.737
 4144TIP3    H212378   3.934   0.141   5.833
 4145TIP3   OH212379   3.059   0.834   4.635
 4145TIP3    H112380   3.149   0.806   4.616
 4145TIP3    H212381   3.069   0.909   4.694
 4146TIP3   OH212382   3.588   1.324   1.776
 4146TIP3    H112383   3.610   1.411   1.812
 4146TIP3    H212384   3.672   1.288   1.749
 4147TIP3   OH212385   5.768   4.949   6.274
 4147TIP3    H112386   5.723   4.945   6.359
 4147TIP3    H212387   5.759   5.041   6.248
 4148TIP3   OH212388   4.259   7.090   1.670
 4148TIP3    H112389   4.266   7.055   1.759
 4148TIP3    H212390   4.250   7.012   1.615
 4149TIP3   OH212391   3.310   2.524   1.099
 4149TIP3    H112392   3.391   2.558   1.139
 4149TIP3    H212393   3.241   2.551   1.160
 4150TIP3   OH212394   7.942   4.376   0.767
 4150TIP3    H112395   7.931   4.462   0.726
 4150TIP3    H212396   7.992   4.325   0.703
 4151TIP3   OH212397   6.790   4.190   2.002
 4151TIP3    H112398   6.834   4.271   1.975
 4151TIP3    H212399   6.722   4.218   2.062
 4152TIP3   OH212400   3.765   1.503   2.685
 4152TIP3    H112401   3.801   1.565   2.749
 4152TIP3    H212402   3.793   1.417   2.716
 4153TIP3   OH212403   0.455   5.433   6.104
 4153TIP3    H112404   0.545   5.416   6.133
 4153TIP3    H212405   0.431   5.514   6.148
 4154TIP3   OH212406   3.601   6.549   6.501
 4154TIP3    H112407   3.563   6.479   6.448
 4154TIP3    H212408   3.553   6.627   6.475
 4155TIP3   OH212409   7.898   3.219   1.613
 4155TIP3    H112410   7.982   3.188   1.579
 4155TIP3    H212411   7.840   3.143   1.609
 4156TIP3   OH212412   0.808   7.219   0.816
 4156TIP3    H112413   0.717   7.218   0.847
 4156TIP3    H212414   0.811   7.290   0.752
 4157TIP3   OH212415   1.486   4.249   1.929
 4157TIP3    H112416   1.487   4.324   1.989
 4157TIP3    H212417   1.574   4.212   1.937
 4158TIP3   OH212418   6.817   7.245   2.174
 4158TIP3    H112419   6.893   7.190   2.195
 4158TIP3    H212420   6.792   7.284   2.258
 4159TIP3   OH212421   2.560   6.065   0.847
 4159TIP3    H112422   2.475   6.046   0.808
 4159TIP3    H212423   2.581   6.153   0.817
 4160TIP3   OH212424   6.518   3.043   4.215
 4160TIP3    H112425   6.434   3.069   4.254
 4160TIP3    H212426   6.533   3.106   4.145
 4161TIP3   OH212427   7.351   1.946   1.156
 4161TIP3    H112428   7.278   1.973   1.212
 4161TIP3    H212429   7.427   1.993   1.191
 4162TIP3   OH212430   5.478   0.453   3.734
 4162TIP3    H112431   5.563   0.414   3.711
 4162TIP3    H212432   5.458   0.416   3.820
 4163TIP3   OH212433   4.250   4.427   6.000
 4163TIP3    H112434   4.289   4.514   5.998
 4163TIP3    H212435   4.160   4.442   6.030
 4164TIP3   OH212436   1.034   2.686   2.399
 4164TIP3    H112437   0.973   2.689   2.473
 4164TIP3    H212438   0.992   2.626   2.337
 4165TIP3   OH212439   2.298   2.592   3.649
 4165TIP3    H112440   2.364   2.617   3.713
 4165TIP3    H212441   2.273   2.674   3.606
 4166TIP3   OH212442   7.976   3.834   1.351
 4166TIP3    H112443   7.964   3.886   1.271
 4166TIP3    H212444   7.998   3.898   1.418
 4167TIP3   OH212445   4.535   5.617   2.410
 4167TIP3    H112446   4.456   5.667   2.431
 4167TIP3    H212447   4.532   5.608   2.315
 4168TIP3   OH212448   1.192   2.629   3.694
 4168TIP3    H112449   1.201   2.632   3.790
 4168TIP3    H212450   1.098   2.640   3.679
 4169TIP3   OH212451   0.657   6.833   0.466
 4169TIP3    H112452   0.597   6.761   0.449
 4169TIP3    H212453   0.633   6.901   0.403
 4170TIP3   OH212454   3.189   5.047   1.153
 4170TIP3    H112455   3.134   5.050   1.074
 4170TIP3    H212456   3.275   5.019   1.121
 4171TIP3   OH212457   7.154   4.329   5.719
 4171TIP3    H112458   7.200   4.245   5.723
 4171TIP3    H212459   7.062   4.306   5.713
 4172TIP3   OH212460   2.675   2.327   2.345
 4172TIP3    H112461   2.628   2.254   2.385
 4172TIP3    H212462   2.745   2.347   2.407
 4173TIP3   OH212463   1.231   5.710   3.760
 4173TIP3    H112464   1.267   5.738   3.844
 4173TIP3    H212465   1.160   5.650   3.783
 4174TIP3   OH212466   4.960   3.299   6.632
 4174TIP3    H112467   4.961   3.381   6.582
 4174TIP3    H212468   4.939   3.327   6.722
 4175TIP3   OH212469   4.496   2.667   2.064
 4175TIP3    H112470   4.492   2.632   1.974
 4175TIP3    H212471   4.588   2.662   2.088
 4176TIP3   OH212472   0.321   1.429   4.357
 4176TIP3    H112473   0.356   1.500   4.303
 4176TIP3    H212474   0.237   1.406   4.317
 4177TIP3   OH212475   6.862   2.716   5.365
 4177TIP3    H112476   6.778   2.751   5.395
 4177TIP3    H212477   6.841   2.668   5.285
 4178TIP3   OH212478   1.472   5.558   0.824
 4178TIP3    H112479   1.415   5.593   0.893
 4178TIP3    H212480   1.559   5.553   0.865
 4179TIP3   OH212481   4.804   3.146   5.924
 4179TIP3    H112482   4.777   3.108   5.841
 4179TIP3    H212483   4.842   3.073   5.973
 4180TIP3   OH212484   5.626   6.669   3.249
 4180TIP3    H112485   5.561   6.601   3.234
 4180TIP3    H212486   5.576   6.742   3.287
 4181TIP3   OH212487   4.200   4.152   1.488
 4181TIP3    H112488   4.293   4.155   1.511
 4181TIP3    H212489   4.198   4.128   1.396
 4182TIP3   OH212490   2.392   2.573   6.026
 4182TIP3    H112491   2.474   2.563   6.074
 4182TIP3    H212492   2.392   2.665   5.997
 4183TIP3   OH212493   1.883   4.819   3.366
 4183TIP3    H112494   1.810   4.827   3.428
 4183TIP3    H212495   1.841   4.794   3.283
 4184TIP3   OH212496   5.441   0.053   6.729
 4184TIP3    H112497   5.507   0.004   6.780
 4184TIP3    H212498   5.467   0.145   6.739
 4185TIP3   OH212499   2.939   2.132   3.281
 4185TIP3    H112500   2.968   2.045   3.252
 4185TIP3    H212501   2.943   2.128   3.376
 4186TIP3   OH212502   3.886   2.369   6.464
 4186TIP3    H112503   3.911   2.444   6.518
 4186TIP3    H212504   3.837   2.407   6.391
 4187TIP3   OH212505   1.496   2.164   4.881
 4187TIP3    H112506   1.466   2.097   4.943
 4187TIP3    H212507   1.591   2.152   4.878
 4188TIP3   OH212508   4.243   4.733   4.797
 4188TIP3    H112509   4.233   4.780   4.714
 4188TIP3    H212510   4.198   4.649   4.783
 4189TIP3   OH212511   5.514   6.000   5.324
 4189TIP3    H112512   5.596   5.958   5.350
 4189TIP3    H212513   5.447   5.958   5.377
 4190TIP3   OH212514   5.801   4.133   4.972
 4190TIP3    H112515   5.867   4.136   4.903
 4190TIP3    H212516   5.815   4.049   5.015
 4191TIP3   OH212517   4.945   4.094   2.243
 4191TIP3    H112518   4.907   4.111   2.157
 4191TIP3    H212519   4.879   4.043   2.290
 4192TIP3   OH212520   6.593   0.319   1.525
 4192TIP3    H112521   6.592   0.392   1.586
 4192TIP3    H212522   6.508   0.276   1.537
 4193TIP3   OH212523   6.725   2.675   1.131
 4193TIP3    H112524   6.817   2.652   1.143
 4193TIP3    H212525   6.683   2.594   1.102
 4194TIP3   OH212526   4.557   6.359   1.010
 4194TIP3    H112527   4.493   6.321   0.949
 4194TIP3    H212528   4.631   6.299   1.007
 4195TIP3   OH212529   4.028   7.211   0.609
 4195TIP3    H112530   3.983   7.249   0.684
 4195TIP3    H212531   3.966   7.218   0.537
 4196TIP3   OH212532   0.841   6.466   5.188
 4196TIP3    H112533   0.851   6.556   5.220
 4196TIP3    H212534   0.785   6.423   5.252
 4197TIP3   OH212535   3.529   5.718   3.926
 4197TIP3    H112536   3.511   5.803   3.887
 4197TIP3    H212537   3.564   5.738   4.013
 4198TIP3   OH212538   4.740   7.297   1.013
 4198TIP3    H112539   4.780   7.229   1.067
 4198TIP3    H212540   4.705   7.250   0.937
 4199TIP3   OH212541   6.783   3.017   2.132
 4199TIP3    H112542   6.852   2.969   2.086
 4199TIP3    H212543   6.810   3.014   2.224
 4200TIP3   OH212544   7.572   6.317   5.289
 4200TIP3    H112545   7.479   6.325   5.266
 4200TIP3    H212546   7.572   6.259   5.366
 4201TIP3   OH212547   5.363   4.985   4.559
 4201TIP3    H112548   5.451   5.010   4.530
 4201TIP3    H212549   5.378   4.928   4.634
 4202TIP3   OH212550   4.801   3.530   3.144
 4202TIP3    H112551   4.714   3.543   3.182
 4202TIP3    H212552   4.862   3.550   3.215
 4203TIP3   OH212553   3.150   2.608   5.243
 4203TIP3    H112554   3.148   2.522   5.284
 4203TIP3    H212555   3.201   2.596   5.163
 4204TIP3   OH212556   1.671   3.561   0.961
 4204TIP3    H112557   1.752   3.514   0.982
 4204TIP3    H212558   1.636   3.516   0.884
 4205TIP3   OH212559   4.409   6.746   2.330
 4205TIP3    H112560   4.380   6.681   2.395
 4205TIP3    H212561   4.371   6.715   2.248
 4206TIP3   OH212562   6.893   2.522   5.562
 4206TIP3    H112563   6.876   2.591   5.498
 4206TIP3    H212564   6.892   2.566   5.647
 4207TIP3   OH212565   6.877   6.060   2.525
 4207TIP3    H112566   6.790   6.083   2.494
 4207TIP3    H212567   6.932   6.135   2.501
 4208TIP3   OH212568   7.205   0.162   6.334
 4208TIP3    H112569   7.264   0.114   6.276
 4208TIP3    H212570   7.133   0.102   6.351
 4209TIP3   OH212571   7.322   6.524   6.467
 4209TIP3    H112572   7.414   6.507   6.485
 4209TIP3    H212573   7.279   6.438   6.475
 4210TIP3   OH212574   5.132   3.312   1.935
 4210TIP3    H112575   5.153   3.403   1.917
 4210TIP3    H212576   5.109   3.310   2.028
 4211TIP3   OH212577   3.115   5.522   1.777
 4211TIP3    H112578   3.138   5.577   1.852
 4211TIP3    H212579   3.133   5.433   1.807
 4212TIP3   OH212580   2.482   7.084   0.975
 4212TIP3    H112581   2.416   7.146   1.006
 4212TIP3    H212582   2.564   7.114   1.014
 4213TIP3   OH212583   4.130   6.669   5.774
 4213TIP3    H112584   4.095   6.716   5.850
 4213TIP3    H212585   4.221   6.648   5.798
 4214TIP3   OH212586   4.235   4.231   5.438
 4214TIP3    H112587   4.162   4.288   5.464
 4214TIP3    H212588   4.253   4.178   5.516
 4215TIP3   OH212589   1.439   1.134   5.786
 4215TIP3    H112590   1.348   1.105   5.799
 4215TIP3    H212591   1.489   1.053   5.782
 4216TIP3   OH212592   5.121   0.811   1.244
 4216TIP3    H112593   5.202   0.851   1.211
 4216TIP3    H212594   5.147   0.770   1.327
 4217TIP3   OH212595   0.904   1.328   0.521
 4217TIP3    H112596   0.865   1.254   0.566
 4217TIP3    H212597   0.830   1.377   0.486
 4218TIP3   OH212598   0.634   0.395   3.612
 4218TIP3    H112599   0.685   0.352   3.544
 4218TIP3    H212600   0.615   0.482   3.576
 4219TIP3   OH212601   2.941   0.712   5.087
 4219TIP3    H112602   2.916   0.748   5.172
 4219TIP3    H212603   2.864   0.726   5.031
 4220TIP3   OH212604   1.144   6.839   6.629
 4220TIP3    H112605   1.144   6.924   6.673
 4220TIP3    H212606   1.228   6.800   6.653
 4221TIP3   OH212607   4.419   1.316   0.289
 4221TIP3    H112608   4.452   1.377   0.223
 4221TIP3    H212609   4.481   1.322   0.361
 4222TIP3   OH212610   0.823   1.317   4.986
 4222TIP3    H112611   0.779   1.238   4.956
 4222TIP3    H212612   0.755   1.368   5.030
 4223TIP3   OH212613   1.398   3.076   0.841
 4223TIP3    H112614   1.309   3.050   0.863
 4223TIP3    H212615   1.437   3.102   0.925
 4224TIP3   OH212616   6.818   1.558   6.748
 4224TIP3    H112617   6.776   1.513   6.675
 4224TIP3    H212618   6.888   1.610   6.708
 4225TIP3   OH212619   3.811   4.431   6.715
 4225TIP3    H112620   3.765   4.443   6.632
 4225TIP3    H212621   3.821   4.519   6.750
 4226TIP3   OH212622   6.818   3.959   5.100
 4226TIP3    H112623   6.791   4.037   5.052
 4226TIP3    H212624   6.842   3.896   5.033
 4227TIP3   OH212625   5.557   6.281   5.386
 4227TIP3    H112626   5.518   6.197   5.363
 4227TIP3    H212627   5.650   6.270   5.366
 4228TIP3   OH212628   7.047   0.891   4.873
 4228TIP3    H112629   6.971   0.847   4.835
 4228TIP3    H212630   7.098   0.920   4.798
 4229TIP3   OH212631   3.785   6.722   2.042
 4229TIP3    H112632   3.742   6.643   2.009
 4229TIP3    H212633   3.853   6.740   1.976
 4230TIP3   OH212634   3.073   6.347   4.801
 4230TIP3    H112635   3.026   6.288   4.860
 4230TIP3    H212636   3.162   6.314   4.801
 4231TIP3   OH212637   6.791   0.070   4.443
 4231TIP3    H112638   6.709   0.087   4.490
 4231TIP3    H212639   6.771   0.087   4.351
 4232TIP3   OH212640   6.980   4.012   0.342
 4232TIP3    H112641   6.906   4.059   0.303
 4232TIP3    H212642   6.945   3.925   0.363
 4233TIP3   OH212643   1.451   7.053   0.907
 4233TIP3    H112644   1.502   7.010   0.976
 4233TIP3    H212645   1.448   7.145   0.933
 4234TIP3   OH212646   4.481   0.679   1.144
 4234TIP3    H112647   4.388   0.690   1.127
 4234TIP3    H212648   4.498   0.586   1.127
 4235TIP3   OH212649   7.573   1.599   1.808
 4235TIP3    H112650   7.619   1.667   1.760
 4235TIP3    H212651   7.483   1.631   1.814
 4236TIP3   OH212652   1.553   2.737   3.920
 4236TIP3    H112653   1.609   2.806   3.955
 4236TIP3    H212654   1.510   2.700   3.997
 4237TIP3   OH212655   5.771   3.331   5.760
 4237TIP3    H112656   5.708   3.358   5.693
 4237TIP3    H212657   5.811   3.252   5.724
 4238TIP3   OH212658   4.381   6.869   5.863
 4238TIP3    H112659   4.405   6.887   5.773
 4238TIP3    H212660   4.425   6.937   5.915
 4239TIP3   OH212661   3.417   3.596   4.729
 4239TIP3    H112662   3.411   3.530   4.798
 4239TIP3    H212663   3.380   3.552   4.652
 4240TIP3   OH212664   5.941   4.525   2.362
 4240TIP3    H112665   6.033   4.544   2.383
 4240TIP3    H212666   5.897   4.610   2.363
 4241TIP3   OH212667   2.895   1.100   1.248
 4241TIP3    H112668   2.988   1.120   1.240
 4241TIP3    H212669   2.863   1.161   1.314
 4242TIP3   OH212670   4.761   2.940   3.999
 4242TIP3    H112671   4.824   2.912   4.065
 4242TIP3    H212672   4.804   2.922   3.916
 4243TIP3   OH212673   0.725   2.882   2.684
 4243TIP3    H112674   0.798   2.821   2.684
 4243TIP3    H212675   0.765   2.967   2.705
 4244TIP3   OH212676   5.050   7.527   2.266
 4244TIP3    H112677   5.035   7.432   2.266
 4244TIP3    H212678   5.041   7.552   2.174
 4245TIP3   OH212679   6.549   6.486   5.000
 4245TIP3    H112680   6.593   6.509   5.082
 4245TIP3    H212681   6.537   6.570   4.956
 4246TIP3   OH212682   1.324   2.161   3.518
 4246TIP3    H112683   1.320   2.254   3.495
 4246TIP3    H212684   1.328   2.160   3.614
 4247TIP3   OH212685   0.930   0.571   0.349
 4247TIP3    H112686   0.981   0.496   0.318
 4247TIP3    H212687   0.964   0.589   0.437
 4248TIP3   OH212688   4.698   3.009   5.714
 4248TIP3    H112689   4.748   2.929   5.730
 4248TIP3    H212690   4.613   2.993   5.757
 4249TIP3   OH212691   2.423   2.121   4.843
 4249TIP3    H112692   2.460   2.097   4.758
 4249TIP3    H212693   2.417   2.217   4.839
 4250TIP3   OH212694   1.703   4.583   6.058
 4250TIP3    H112695   1.641   4.523   6.099
 4250TIP3    H212696   1.672   4.592   5.968
 4251TIP3   OH212697   4.800   0.687   2.654
 4251TIP3    H112698   4.800   0.637   2.736
 4251TIP3    H212699   4.741   0.638   2.596
 4252TIP3   OH212700   7.248   4.184   1.418
 4252TIP3    H112701   7.163   4.150   1.447
 4252TIP3    H212702   7.231   4.275   1.396
 4253TIP3   OH212703   5.840   5.332   2.336
 4253TIP3    H112704   5.840   5.418   2.296
 4253TIP3    H212705   5.856   5.271   2.263
 4254TIP3   OH212706   1.326   2.030   5.106
 4254TIP3    H112707   1.240   2.039   5.066
 4254TIP3    H212708   1.321   2.082   5.186
 4255TIP3   OH212709   5.658   7.288   5.927
 4255TIP3    H112710   5.575   7.243   5.944
 4255TIP3    H212711   5.633   7.380   5.914
 4256TIP3   OH212712   2.860   7.603   5.206
 4256TIP3    H112713   2.778   7.556   5.221
 4256TIP3    H212714   2.855   7.631   5.115
 4257TIP3   OH212715   2.852   2.454   5.885
 4257TIP3    H112716   2.766   2.495   5.881
 4257TIP3    H212717   2.850   2.386   5.817
 4258TIP3   OH212718   5.420   4.077   5.890
 4258TIP3    H112719   5.442   3.984   5.899
 4258TIP3    H212720   5.481   4.110   5.824
 4259TIP3   OH212721   7.818   6.353   3.425
 4259TIP3    H112722   7.748   6.405   3.463
 4259TIP3    H212723   7.773   6.279   3.383
 4260TIP3   OH212724   7.644   1.430   0.689
 4260TIP3    H112725   7.603   1.430   0.603
 4260TIP3    H212726   7.591   1.491   0.741
 4261TIP3   OH212727   4.347   5.782   3.139
 4261TIP3    H112728   4.440   5.789   3.161
 4261TIP3    H212729   4.343   5.713   3.072
 4262TIP3   OH212730   1.730   3.637   3.144
 4262TIP3    H112731   1.672   3.567   3.113
 4262TIP3    H212732   1.695   3.661   3.230
 4263TIP3   OH212733   6.500   7.718   4.590
 4263TIP3    H112734   6.518   7.809   4.569
 4263TIP3    H212735   6.575   7.670   4.555
 4264TIP3   OH212736   2.763   6.500   1.593
 4264TIP3    H112737   2.761   6.435   1.522
 4264TIP3    H212738   2.774   6.584   1.548
 4265TIP3   OH212739   5.425   0.031   0.578
 4265TIP3    H112740   5.342  -0.016   0.580
 4265TIP3    H212741   5.482  -0.020   0.636
 4266TIP3   OH212742   0.869   4.864   6.718
 4266TIP3    H112743   0.882   4.918   6.641
 4266TIP3    H212744   0.785   4.821   6.705
 4267TIP3   OH212745   8.012   0.503   2.243
 4267TIP3    H112746   8.059   0.577   2.281
 4267TIP3    H212747   8.081   0.443   2.214
 4268TIP3   OH212748   2.935   2.634   2.118
 4268TIP3    H112749   2.999   2.679   2.174
 4268TIP3    H212750   2.966   2.544   2.112
 4269TIP3   OH212751   1.194   4.318   5.373
 4269TIP3    H112752   1.214   4.266   5.451
 4269TIP3    H212753   1.140   4.390   5.405
 4270TIP3   OH212754   1.985   2.027   6.254
 4270TIP3    H112755   2.016   2.108   6.294
 4270TIP3    H212756   1.948   2.055   6.170
 4271TIP3   OH212757   0.296   2.119   3.378
 4271TIP3    H112758   0.368   2.058   3.362
 4271TIP3    H212759   0.290   2.124   3.473
 4272TIP3   OH212760   3.509   3.564   0.480
 4272TIP3    H112761   3.440   3.544   0.418
 4272TIP3    H212762   3.498   3.500   0.550
 4273TIP3   OH212763   7.826   4.091   6.536
 4273TIP3    H112764   7.860   4.119   6.451
 4273TIP3    H212765   7.871   4.009   6.555
 4274TIP3   OH212766   2.701   4.344   1.143
 4274TIP3    H112767   2.659   4.311   1.064
 4274TIP3    H212768   2.750   4.421   1.114
 4275TIP3   OH212769   3.409   3.368   4.096
 4275TIP3    H112770   3.496   3.329   4.095
 4275TIP3    H212771   3.419   3.452   4.050
 4276TIP3   OH212772   0.725   1.101   0.562
 4276TIP3    H112773   0.631   1.101   0.578
 4276TIP3    H212774   0.764   1.114   0.649
 4277TIP3   OH212775   7.967   7.794   4.942
 4277TIP3    H112776   8.012   7.834   4.868
 4277TIP3    H212777   8.038   7.760   4.997
 4278TIP3   OH212778   6.091   0.268   1.615
 4278TIP3    H112779   6.058   0.179   1.607
 4278TIP3    H212780   6.049   0.316   1.544
 4279TIP3   OH212781   3.666   6.440   3.631
 4279TIP3    H112782   3.741   6.461   3.687
 4279TIP3    H212783   3.694   6.464   3.542
 4280TIP3   OH212784   2.725   4.133   3.445
 4280TIP3    H112785   2.800   4.175   3.488
 4280TIP3    H212786   2.726   4.043   3.478
 4281TIP3   OH212787   1.575   7.724   1.916
 4281TIP3    H112788   1.610   7.713   1.828
 4281TIP3    H212789   1.533   7.641   1.936
 4282TIP3   OH212790   8.278   4.562   5.818
 4282TIP3    H112791   8.314   4.650   5.806
 4282TIP3    H212792   8.183   4.575   5.814
 4283TIP3   OH212793   4.372   3.802   2.155
 4283TIP3    H112794   4.343   3.710   2.154
 4283TIP3    H212795   4.360   3.832   2.065
 4284TIP3   OH212796   0.310   0.979   1.330
 4284TIP3    H112797   0.253   1.054   1.348
 4284TIP3    H212798   0.399   1.013   1.345
 4285TIP3   OH212799   3.855   5.979   5.857
 4285TIP3    H112800   3.949   5.969   5.873
 4285TIP3    H212801   3.814   5.912   5.912
 4286TIP3   OH212802   4.384   0.500   5.477
 4286TIP3    H112803   4.331   0.422   5.494
 4286TIP3    H212804   4.366   0.523   5.386
 4287TIP3   OH212805   3.140   7.606   5.952
 4287TIP3    H112806   3.122   7.574   6.040
 4287TIP3    H212807   3.053   7.617   5.913
 4288TIP3   OH212808   6.755   5.018   4.651
 4288TIP3    H112809   6.754   5.081   4.722
 4288TIP3    H212810   6.812   4.947   4.682
 4289TIP3   OH212811   2.701   2.241   0.980
 4289TIP3    H112812   2.633   2.188   0.939
 4289TIP3    H212813   2.726   2.305   0.913
 4290TIP3   OH212814   5.532   3.603   5.123
 4290TIP3    H112815   5.450   3.642   5.094
 4290TIP3    H212816   5.515   3.509   5.121
 4291TIP3   OH212817   6.480   5.374   5.284
 4291TIP3    H112818   6.397   5.354   5.241
 4291TIP3    H212819   6.478   5.323   5.365
 4292TIP3   OH212820   5.471   7.542   5.669
 4292TIP3    H112821   5.424   7.498   5.598
 4292TIP3    H212822   5.425   7.515   5.748
 4293TIP3   OH212823   7.984   2.098   2.652
 4293TIP3    H112824   7.941   2.092   2.737
 4293TIP3    H212825   7.992   2.008   2.623
 4294TIP3   OH212826   4.148   5.011   3.858
 4294TIP3    H112827   4.208   4.955   3.907
 4294TIP3    H212828   4.206   5.061   3.800
 4295TIP3   OH212829   6.584   3.208   5.460
 4295TIP3    H112830   6.584   3.114   5.441
 4295TIP3    H212831   6.541   3.248   5.384
 4296TIP3   OH212832   0.099   3.251   1.855
 4296TIP3    H112833   0.107   3.167   1.809
 4296TIP3    H212834   0.021   3.241   1.909
 4297TIP3   OH212835   3.652   3.037   3.145
 4297TIP3    H112836   3.719   2.975   3.175
 4297TIP3    H212837   3.693   3.123   3.154
 4298TIP3   OH212838   5.924   6.598   3.670
 4298TIP3    H112839   5.995   6.661   3.687
 4298TIP3    H212840   5.918   6.595   3.574
 4299TIP3   OH212841   7.299   1.288   6.280
 4299TIP3    H112842   7.240   1.294   6.356
 4299TIP3    H212843   7.354   1.366   6.287
 4300TIP3   OH212844   4.784   7.409   4.601
 4300TIP3    H112845   4.711   7.443   4.652
 4300TIP3    H212846   4.800   7.476   4.534
 4301TIP3   OH212847   3.354   1.760   2.322
 4301TIP3    H112848   3.320   1.729   2.238
 4301TIP3    H212849   3.449   1.767   2.309
 4302TIP3   OH212850   3.177   4.690   1.948
 4302TIP3    H112851   3.194   4.778   1.914
 4302TIP3    H212852   3.096   4.663   1.906
 4303TIP3   OH212853   4.614   1.971   3.360
 4303TIP3    H112854   4.662   1.902   3.407
 4303TIP3    H212855   4.556   2.008   3.426
 4304TIP3   OH212856   6.938   4.885   0.364
 4304TIP3    H112857   7.026   4.920   0.383
 4304TIP3    H212858   6.931   4.806   0.417
 4305TIP3   OH212859   4.694   4.730   1.165
 4305TIP3    H112860   4.749   4.736   1.088
 4305TIP3    H212861   4.606   4.749   1.133
 4306TIP3   OH212862   4.612   6.025   0.082
 4306TIP3    H112863   4.671   6.016   0.156
 4306TIP3    H212864   4.669   6.049   0.009
 4307TIP3   OH212865   5.390   5.562   1.623
 4307TIP3    H112866   5.416   5.653   1.631
 4307TIP3    H212867   5.399   5.542   1.530
 4308TIP3   OH212868   4.028   6.721   2.230
 4308TIP3    H112869   4.088   6.701   2.159
 4308TIP3    H212870   3.942   6.694   2.198
 4309TIP3   OH212871   4.892   7.048   4.630
 4309TIP3    H112872   4.954   6.996   4.579
 4309TIP3    H212873   4.875   7.125   4.576
 4310TIP3   OH212874   2.421   3.873   5.677
 4310TIP3    H112875   2.443   3.966   5.687
 4310TIP3    H212876   2.442   3.852   5.586
 4311TIP3   OH212877   7.546   0.888   3.929
 4311TIP3    H112878   7.591   0.811   3.964
 4311TIP3    H212879   7.589   0.905   3.845
 4312TIP3   OH212880   5.504   3.337   4.763
 4312TIP3    H112881   5.486   3.427   4.789
 4312TIP3    H212882   5.587   3.342   4.716
 4313TIP3   OH212883   1.191   3.743   4.689
 4313TIP3    H112884   1.213   3.792   4.768
 4313TIP3    H212885   1.095   3.740   4.689
 4314TIP3   OH212886   1.358   6.234   4.685
 4314TIP3    H112887   1.432   6.283   4.650
 4314TIP3    H212888   1.288   6.299   4.694
 4315TIP3   OH212889   4.885   4.966   1.760
 4315TIP3    H112890   4.858   4.876   1.772
 4315TIP3    H212891   4.954   4.980   1.825
 4316TIP3   OH212892   7.721   7.323   3.604
 4316TIP3    H112893   7.661   7.250   3.588
 4316TIP3    H212894   7.667   7.389   3.647
 4317TIP3   OH212895   4.183   7.120   2.874
 4317TIP3    H112896   4.129   7.125   2.795
 4317TIP3    H212897   4.141   7.052   2.927
 4318TIP3   OH212898   3.944   1.397   5.222
 4318TIP3    H112899   3.965   1.341   5.148
 4318TIP3    H212900   4.014   1.381   5.285
 4319TIP3   OH212901   1.702   2.566   2.294
 4319TIP3    H112902   1.757   2.605   2.362
 4319TIP3    H212903   1.632   2.630   2.281
 4320TIP3   OH212904   4.120   7.411   3.821
 4320TIP3    H112905   4.112   7.485   3.761
 4320TIP3    H212906   4.035   7.406   3.865
 4321TIP3   OH212907   2.945   1.008   6.538
 4321TIP3    H112908   3.008   0.967   6.478
 4321TIP3    H212909   2.894   0.935   6.572
 4322TIP3   OH212910   2.989   0.309   3.602
 4322TIP3    H112911   2.955   0.297   3.513
 4322TIP3    H212912   2.976   0.224   3.643
 4323TIP3   OH212913   5.487   5.875   0.123
 4323TIP3    H112914   5.545   5.849   0.051
 4323TIP3    H212915   5.482   5.798   0.180
 4324TIP3   OH212916   3.190   0.337   5.769
 4324TIP3    H112917   3.122   0.350   5.704
 4324TIP3    H212918   3.151   0.279   5.834
 4325TIP3   OH212919   5.986   6.264   6.552
 4325TIP3    H112920   5.958   6.286   6.641
 4325TIP3    H212921   6.077   6.236   6.563
 4326TIP3   OH212922   2.764   3.325   5.966
 4326TIP3    H112923   2.850   3.299   5.934
 4326TIP3    H212924   2.766   3.306   6.059
 4327TIP3   OH212925   0.974   4.266   1.943
 4327TIP3    H112926   1.049   4.208   1.929
 4327TIP3    H212927   0.982   4.333   1.875
 4328TIP3   OH212928   4.036   5.827   4.927
 4328TIP3    H112929   4.098   5.756   4.911
 4328TIP3    H212930   3.989   5.838   4.844
 4329TIP3   OH212931   4.750   6.056   2.858
 4329TIP3    H112932   4.709   6.007   2.787
 4329TIP3    H212933   4.833   6.087   2.822
 4330TIP3   OH212934   4.400   7.431   3.632
 4330TIP3    H112935   4.327   7.489   3.655
 4330TIP3    H212936   4.471   7.490   3.608
 4331TIP3   OH212937   0.698   6.706   1.170
 4331TIP3    H112938   0.644   6.711   1.249
 4331TIP3    H212939   0.738   6.619   1.174
 4332TIP3   OH212940   1.585   1.625   4.819
 4332TIP3    H112941   1.516   1.664   4.873
 4332TIP3    H212942   1.542   1.552   4.773
 4333TIP3   OH212943   2.897   5.165   3.749
 4333TIP3    H112944   2.902   5.149   3.655
 4333TIP3    H212945   2.932   5.253   3.761
 4334TIP3   OH212946   4.077   1.182   6.641
 4334TIP3    H112947   3.984   1.199   6.655
 4334TIP3    H212948   4.117   1.192   6.727
 4335TIP3   OH212949   1.205   2.697   0.012
 4335TIP3    H112950   1.235   2.769   0.068
 4335TIP3    H212951   1.258   2.623   0.039
 4336TIP3   OH212952   0.029   4.068   4.724
 4336TIP3    H112953  -0.053   4.058   4.771
 4336TIP3    H212954   0.029   4.159   4.694
 4337TIP3   OH212955   4.219   1.510   5.863
 4337TIP3    H112956   4.150   1.503   5.930
 4337TIP3    H212957   4.194   1.586   5.812
 4338TIP3   OH212958   0.675   6.315   3.509
 4338TIP3    H112959   0.587   6.337   3.479
 4338TIP3    H212960   0.716   6.400   3.525
 4339TIP3   OH212961   1.001   4.053   3.259
 4339TIP3    H112962   0.906   4.065   3.249
 4339TIP3    H212963   1.037   4.141   3.250
 4340TIP3   OH212964   2.895   5.440   4.616
 4340TIP3    H112965   2.845   5.428   4.536
 4340TIP3    H212966   2.945   5.360   4.626
 4341TIP3   OH212967   4.058   3.930   4.944
 4341TIP3    H112968   4.061   3.861   4.877
 4341TIP3    H212969   4.148   3.937   4.975
 4342TIP3   OH212970   3.783   1.817   5.115
 4342TIP3    H112971   3.755   1.739   5.163
 4342TIP3    H212972   3.768   1.795   5.023
 4343TIP3   OH212973   1.228   4.821   3.794
 4343TIP3    H112974   1.308   4.864   3.763
 4343TIP3    H212975   1.207   4.865   3.877
 4344TIP3   OH212976   7.101   1.927   3.661
 4344TIP3    H112977   7.111   1.967   3.574
 4344TIP3    H212978   7.007   1.908   3.667
 4345TIP3   OH212979   8.009   5.967   1.827
 4345TIP3    H112980   8.098   5.943   1.803
 4345TIP3    H212981   7.998   6.056   1.791
 4346TIP3   OH212982   5.194   5.954   3.025
 4346TIP3    H112983   5.200   6.011   3.102
 4346TIP3    H212984   5.177   5.867   3.062
 4347TIP3   OH212985   1.128   2.384   6.243
 4347TIP3    H112986   1.135   2.340   6.328
 4347TIP3    H212987   1.062   2.334   6.196
 4348TIP3   OH212988   6.537   5.351   1.085
 4348TIP3    H112989   6.562   5.434   1.126
 4348TIP3    H212990   6.506   5.297   1.157
 4349TIP3   OH212991   4.465   4.038   5.913
 4349TIP3    H112992   4.546   4.080   5.883
 4349TIP3    H212993   4.412   4.029   5.834
 4350TIP3   OH212994   4.747   7.796   1.566
 4350TIP3    H112995   4.704   7.847   1.497
 4350TIP3    H212996   4.696   7.816   1.645
 4351TIP3   OH212997   6.507   3.158   3.499
 4351TIP3    H112998   6.414   3.136   3.500
 4351TIP3    H212999   6.546   3.097   3.437
 4352TIP3   OH213000   4.468   0.672   2.972
 4352TIP3    H113001   4.516   0.659   3.054
 4352TIP3    H213002   4.377   0.651   2.994
 4353TIP3   OH213003   7.210   5.576   3.388
 4353TIP3    H113004   7.288   5.523   3.401
 4353TIP3    H213005   7.178   5.595   3.476
 4354TIP3   OH213006   7.353   1.313   4.772
 4354TIP3    H113007   7.376   1.228   4.734
 4354TIP3    H213008   7.258   1.309   4.782
 4355TIP3   OH213009   6.837   7.525   6.381
 4355TIP3    H113010   6.817   7.598   6.440
 4355TIP3    H213011   6.768   7.527   6.316
 4356TIP3   OH213012   4.309   0.624   5.756
 4356TIP3    H113013   4.347   0.707   5.782
 4356TIP3    H213014   4.308   0.627   5.660
 4357TIP3   OH213015   3.838   6.521   0.735
 4357TIP3    H113016   3.808   6.488   0.650
 4357TIP3    H213017   3.885   6.448   0.774
 4358TIP3   OH213018   8.309   5.251   2.815
 4358TIP3    H113019   8.261   5.197   2.879
 4358TIP3    H213020   8.383   5.286   2.865
 4359TIP3   OH213021   3.990   6.039   0.583
 4359TIP3    H113022   3.968   5.946   0.577
 4359TIP3    H213023   4.061   6.043   0.647
 4360TIP3   OH213024   7.788   4.438   0.998
 4360TIP3    H113025   7.838   4.519   0.999
 4360TIP3    H213026   7.824   4.388   0.925
 4361TIP3   OH213027   1.418   6.333   3.574
 4361TIP3    H113028   1.503   6.307   3.611
 4361TIP3    H213029   1.382   6.394   3.638
 4362TIP3   OH213030   5.511   0.322   5.026
 4362TIP3    H113031   5.535   0.408   5.060
 4362TIP3    H213032   5.582   0.299   4.966
 4363TIP3   OH213033   5.075   3.188   0.920
 4363TIP3    H113034   5.007   3.176   0.853
 4363TIP3    H213035   5.106   3.099   0.939
 4364TIP3   OH213036   0.145   4.863   3.114
 4364TIP3    H113037   0.054   4.867   3.143
 4364TIP3    H213038   0.189   4.807   3.178
 4365TIP3   OH213039   4.055   7.311   1.672
 4365TIP3    H113040   4.137   7.268   1.650
 4365TIP3    H213041   4.079   7.402   1.688
 4366TIP3   OH213042   6.183   0.330   0.037
 4366TIP3    H113043   6.092   0.357   0.051
 4366TIP3    H213044   6.181   0.277  -0.043
 4367TIP3   OH213045   7.208   5.830   2.861
 4367TIP3    H113046   7.286   5.781   2.834
 4367TIP3    H213047   7.208   5.825   2.957
 4368TIP3   OH213048   2.068   1.150   2.339
 4368TIP3    H113049   2.049   1.070   2.289
 4368TIP3    H213050   2.107   1.209   2.274
 4369TIP3   OH213051   2.759   0.498   6.310
 4369TIP3    H113052   2.791   0.566   6.369
 4369TIP3    H213053   2.833   0.440   6.297
 4370TIP3   OH213054   6.632   5.423   4.174
 4370TIP3    H113055   6.568   5.471   4.226
 4370TIP3    H213056   6.581   5.354   4.130
 4371TIP3   OH213057   0.143   3.426   2.659
 4371TIP3    H113058   0.108   3.340   2.683
 4371TIP3    H213059   0.131   3.479   2.738
 4372TIP3   OH213060   7.913   7.129   4.019
 4372TIP3    H113061   7.963   7.164   3.945
 4372TIP3    H213062   7.881   7.044   3.989
 4373TIP3   OH213063   7.881   3.031   3.262
 4373TIP3    H113064   7.896   2.997   3.350
 4373TIP3    H213065   7.838   2.960   3.216
 4374TIP3   OH213066   6.318   1.000   1.354
 4374TIP3    H113067   6.247   1.057   1.323
 4374TIP3    H213068   6.396   1.033   1.309
 4375TIP3   OH213069   7.745   1.822   0.478
 4375TIP3    H113070   7.784   1.735   0.474
 4375TIP3    H213071   7.689   1.820   0.555
 4376TIP3   OH213072   2.759   1.913   4.519
 4376TIP3    H113073   2.687   1.883   4.464
 4376TIP3    H213074   2.799   1.832   4.551
 4377TIP3   OH213075   5.148   3.332   0.257
 4377TIP3    H113076   5.066   3.359   0.296
 4377TIP3    H213077   5.202   3.304   0.331
 4378TIP3   OH213078   5.629   0.322   1.711
 4378TIP3    H113079   5.636   0.251   1.647
 4378TIP3    H213080   5.717   0.327   1.749
 4379TIP3   OH213081   6.532   6.277   1.847
 4379TIP3    H113082   6.454   6.301   1.797
 4379TIP3    H213083   6.600   6.334   1.813
 4380TIP3   OH213084   7.717   0.975   1.815
 4380TIP3    H113085   7.710   0.907   1.882
 4380TIP3    H213086   7.780   1.038   1.851
 4381TIP3   OH213087   0.979   1.304   1.106
 4381TIP3    H113088   0.965   1.387   1.152
 4381TIP3    H213089   0.925   1.242   1.153
 4382TIP3   OH213090  -0.004   1.148   4.996
 4382TIP3    H113091   0.079   1.137   4.949
 4382TIP3    H213092  -0.071   1.124   4.932
 4383TIP3   OH213093   4.652   7.255   3.447
 4383TIP3    H113094   4.699   7.199   3.386
 4383TIP3    H213095   4.569   7.275   3.403
 4384TIP3   OH213096   7.339   1.336   4.164
 4384TIP3    H113097   7.409   1.398   4.143
 4384TIP3    H213098   7.269   1.390   4.200
 4385TIP3   OH213099   5.810   0.195   4.227
 4385TIP3    H113100   5.826   0.122   4.167
 4385TIP3    H213101   5.896   0.216   4.263
 4386TIP3   OH213102   7.681   2.959   0.887
 4386TIP3    H113103   7.741   3.000   0.825
 4386TIP3    H213104   7.737   2.911   0.947
 4387TIP3   OH213105   7.908   7.173   2.963
 4387TIP3    H113106   7.939   7.226   3.036
 4387TIP3    H213107   7.815   7.160   2.981
 4388TIP3   OH213108   2.835   0.622   3.064
 4388TIP3    H113109   2.880   0.652   3.143
 4388TIP3    H213110   2.873   0.674   2.994
 4389TIP3   OH213111   3.771   2.725   4.036
 4389TIP3    H113112   3.843   2.723   3.972
 4389TIP3    H213113   3.755   2.633   4.057
 4390TIP3   OH213114   7.535   1.187   6.713
 4390TIP3    H113115   7.496   1.100   6.708
 4390TIP3    H213116   7.506   1.232   6.633
 4391TIP3   OH213117   7.714   2.936   3.797
 4391TIP3    H113118   7.762   2.876   3.854
 4391TIP3    H213119   7.681   3.004   3.857
 4392TIP3   OH213120   5.007   1.730   3.737
 4392TIP3    H113121   5.058   1.698   3.663
 4392TIP3    H213122   5.072   1.748   3.805
 4393TIP3   OH213123   7.085   2.014   3.401
 4393TIP3    H113124   7.103   1.930   3.358
 4393TIP3    H213125   7.162   2.068   3.381
 4394TIP3   OH213126   7.359   5.551   3.041
 4394TIP3    H113127   7.316   5.634   3.060
 4394TIP3    H213128   7.306   5.512   2.971
 4395TIP3   OH213129   2.002   6.684   6.600
 4395TIP3    H113130   1.939   6.635   6.653
 4395TIP3    H213131   2.020   6.627   6.525
 4396TIP3   OH213132   4.470   5.342   4.255
 4396TIP3    H113133   4.440   5.382   4.336
 4396TIP3    H213134   4.426   5.257   4.252
 4397TIP3   OH213135   3.832   1.725   0.024
 4397TIP3    H113136   3.786   1.654   0.068
 4397TIP3    H213137   3.907   1.682  -0.018
 4398TIP3   OH213138   5.043   5.748   3.324
 4398TIP3    H113139   5.114   5.720   3.382
 4398TIP3    H213140   4.982   5.795   3.382
 4399TIP3   OH213141   2.595   3.036   4.677
 4399TIP3    H113142   2.559   2.947   4.666
 4399TIP3    H213143   2.560   3.066   4.761
 4400TIP3   OH213144   2.050   7.268   2.140
 4400TIP3    H113145   2.085   7.337   2.196
 4400TIP3    H213146   2.119   7.253   2.075
 4401TIP3   OH213147   3.391   4.311   5.304
 4401TIP3    H113148   3.471   4.330   5.254
 4401TIP3    H213149   3.359   4.397   5.331
 4402TIP3   OH213150   5.949   3.193   4.703
 4402TIP3    H113151   5.940   3.180   4.798
 4402TIP3    H213152   5.977   3.108   4.670
 4403TIP3   OH213153   2.366   1.966   0.229
 4403TIP3    H113154   2.451   1.971   0.272
 4403TIP3    H213155   2.364   1.880   0.188
 4404TIP3   OH213156   3.500   7.066   4.012
 4404TIP3    H113157   3.528   7.002   4.077
 4404TIP3    H213158   3.408   7.046   3.995
 4405TIP3   OH213159   0.769   7.480   3.024
 4405TIP3    H113160   0.735   7.462   3.111
 4405TIP3    H213161   0.693   7.507   2.973
 4406TIP3   OH213162   4.384   0.305   2.071
 4406TIP3    H113163   4.457   0.244   2.056
 4406TIP3    H213164   4.312   0.268   2.019
 4407TIP3   OH213165   3.057   0.733   6.718
 4407TIP3    H113166   3.098   0.804   6.769
 4407TIP3    H213167   3.085   0.653   6.762
 4408TIP3   OH213168   0.656   2.038   0.917
 4408TIP3    H113169   0.743   2.077   0.924
 4408TIP3    H213170   0.631   2.017   1.007
 4409TIP3   OH213171   1.158   0.804   3.238
 4409TIP3    H113172   1.193   0.726   3.281
 4409TIP3    H213173   1.232   0.840   3.189
 4410TIP3   OH213174   0.422   3.857   5.922
 4410TIP3    H113175   0.480   3.869   5.847
 4410TIP3    H213176   0.350   3.803   5.889
 4411TIP3   OH213177   3.731   3.789   6.056
 4411TIP3    H113178   3.673   3.788   5.979
 4411TIP3    H213179   3.740   3.881   6.078
 4412TIP3   OH213180   1.014   1.307   6.134
 4412TIP3    H113181   0.922   1.289   6.154
 4412TIP3    H213182   1.061   1.230   6.166
 4413TIP3   OH213183   1.771   5.769   4.987
 4413TIP3    H113184   1.800   5.856   5.012
 4413TIP3    H213185   1.836   5.738   4.924
 4414TIP3   OH213186   8.231   5.464   1.553
 4414TIP3    H113187   8.139   5.448   1.533
 4414TIP3    H213188   8.262   5.381   1.591
 4415TIP3   OH213189   5.477   5.803   3.087
 4415TIP3    H113190   5.396   5.753   3.079
 4415TIP3    H213191   5.458   5.887   3.045
 4416TIP3   OH213192   4.705   6.304   3.829
 4416TIP3    H113193   4.747   6.390   3.839
 4416TIP3    H213194   4.695   6.272   3.919
 4417TIP3   OH213195   6.447   7.356   5.175
 4417TIP3    H113196   6.501   7.283   5.146
 4417TIP3    H213197   6.460   7.359   5.270
 4418TIP3   OH213198   5.356   0.525   6.041
 4418TIP3    H113199   5.260   0.531   6.034
 4418TIP3    H213200   5.373   0.433   6.061
 4419TIP3   OH213201   3.940   0.008   3.830
 4419TIP3    H113202   3.899   0.079   3.781
 4419TIP3    H213203   3.929   0.033   3.921
 4420TIP3   OH213204   5.311   3.377   1.503
 4420TIP3    H113205   5.362   3.430   1.442
 4420TIP3    H213206   5.257   3.321   1.446
 4421TIP3   OH213207   2.708   4.289   0.378
 4421TIP3    H113208   2.660   4.323   0.454
 4421TIP3    H213209   2.799   4.311   0.395
 4422TIP3   OH213210   2.056   2.815   5.872
 4422TIP3    H113211   2.132   2.774   5.831
 4422TIP3    H213212   1.984   2.755   5.853
 4423TIP3   OH213213   5.558   3.463   1.090
 4423TIP3    H113214   5.539   3.556   1.105
 4423TIP3    H213215   5.630   3.464   1.027
 4424TIP3   OH213216   8.002   0.386   5.439
 4424TIP3    H113217   8.081   0.339   5.467
 4424TIP3    H213218   7.930   0.337   5.479
 4425TIP3   OH213219   0.589   1.312   2.116
 4425TIP3    H113220   0.530   1.240   2.093
 4425TIP3    H213221   0.667   1.269   2.151
 4426TIP3   OH213222   5.492   4.954   5.823
 4426TIP3    H113223   5.437   5.019   5.867
 4426TIP3    H213224   5.431   4.906   5.767
 4427TIP3   OH213225   0.568   3.737   4.671
 4427TIP3    H113226   0.484   3.696   4.694
 4427TIP3    H213227   0.632   3.694   4.728
 4428TIP3   OH213228   6.414   7.037   1.777
 4428TIP3    H113229   6.508   7.025   1.794
 4428TIP3    H213230   6.371   7.004   1.856
 4429TIP3   OH213231   4.146   5.597   0.057
 4429TIP3    H113232   4.111   5.586   0.145
 4429TIP3    H213233   4.221   5.538   0.054
 4430TIP3   OH213234   0.411   0.520   0.611
 4430TIP3    H113235   0.469   0.576   0.559
 4430TIP3    H213236   0.464   0.494   0.686
 4431TIP3   OH213237   4.492   4.552   6.561
 4431TIP3    H113238   4.397   4.553   6.571
 4431TIP3    H213239   4.507   4.512   6.475
 4432TIP3   OH213240   2.093   4.423   3.059
 4432TIP3    H113241   2.105   4.337   3.098
 4432TIP3    H213242   2.174   4.439   3.011
 4433TIP3   OH213243   4.508   5.646   5.695
 4433TIP3    H113244   4.413   5.644   5.683
 4433TIP3    H213245   4.538   5.560   5.667
 4434TIP3   OH213246   2.207   3.306   4.222
 4434TIP3    H113247   2.233   3.255   4.145
 4434TIP3    H213248   2.125   3.266   4.251
 4435TIP3   OH213249   2.585   6.562   0.118
 4435TIP3    H113250   2.654   6.534   0.179
 4435TIP3    H213251   2.506   6.566   0.172
 4436TIP3   OH213252   7.596   1.784   0.699
 4436TIP3    H113253   7.508   1.810   0.670
 4436TIP3    H213254   7.581   1.716   0.765
 4437TIP3   OH213255   5.258   0.109   4.145
 4437TIP3    H113256   5.336   0.117   4.089
 4437TIP3    H213257   5.249   0.195   4.186
 4438TIP3   OH213258   4.876   4.901   5.602
 4438TIP3    H113259   4.805   4.855   5.557
 4438TIP3    H213260   4.844   4.912   5.691
 4439TIP3   OH213261   3.906   5.798   1.385
 4439TIP3    H113262   3.851   5.833   1.315
 4439TIP3    H213263   3.978   5.755   1.339
 4440TIP3   OH213264   4.564   2.944   0.467
 4440TIP3    H113265   4.572   3.018   0.407
 4440TIP3    H213266   4.472   2.919   0.463
 4441TIP3   OH213267   6.650   1.565   3.874
 4441TIP3    H113268   6.655   1.660   3.891
 4441TIP3    H213269   6.713   1.527   3.936
 4442TIP3   OH213270   1.497   6.944   3.464
 4442TIP3    H113271   1.425   6.987   3.509
 4442TIP3    H213272   1.473   6.948   3.371
 4443TIP3   OH213273   7.067   1.752   5.028
 4443TIP3    H113274   7.107   1.669   5.001
 4443TIP3    H213275   7.021   1.731   5.110
 4444TIP3   OH213276   2.533   0.588   2.749
 4444TIP3    H113277   2.486   0.530   2.689
 4444TIP3    H213278   2.481   0.669   2.749
 4445TIP3   OH213279   2.354   4.891   5.336
 4445TIP3    H113280   2.414   4.888   5.262
 4445TIP3    H213281   2.329   4.800   5.350
 4446TIP3   OH213282   5.147   6.910   5.785
 4446TIP3    H113283   5.122   6.937   5.873
 4446TIP3    H213284   5.135   6.815   5.785
 4447TIP3   OH213285   6.269   4.309   1.678
 4447TIP3    H113286   6.261   4.261   1.596
 4447TIP3    H213287   6.225   4.392   1.662
 4448TIP3   OH213288   3.849   4.363   4.003
 4448TIP3    H113289   3.776   4.341   4.061
 4448TIP3    H213290   3.877   4.450   4.031
 4449TIP3   OH213291   3.295   5.843   3.138
 4449TIP3    H113292   3.334   5.853   3.051
 4449TIP3    H213293   3.361   5.878   3.198
 4450TIP3   OH213294   4.113   0.569   2.623
 4450TIP3    H113295   4.102   0.545   2.715
 4450TIP3    H213296   4.182   0.635   2.623
 4451TIP3   OH213297   4.897   5.793   3.576
 4451TIP3    H113298   4.905   5.748   3.660
 4451TIP3    H213299   4.900   5.886   3.599
 4452TIP3   OH213300   8.162   1.439   6.092
 4452TIP3    H113301   8.227   1.370   6.078
 4452TIP3    H213302   8.206   1.502   6.149
 4453TIP3   OH213303   1.071   5.026   1.230
 4453TIP3    H113304   1.014   4.951   1.215
 4453TIP3    H213305   1.113   5.042   1.145
 4454TIP3   OH213306   7.341   6.982   5.052
 4454TIP3    H113307   7.431   6.951   5.057
 4454TIP3    H213308   7.339   7.040   4.976
 4455TIP3   OH213309   7.603   7.483   5.761
 4455TIP3    H113310   7.556   7.496   5.678
 4455TIP3    H213311   7.581   7.559   5.814
 4456TIP3   OH213312   4.158   6.490   1.587
 4456TIP3    H113313   4.185   6.482   1.495
 4456TIP3    H213314   4.121   6.405   1.609
 4457TIP3   OH213315   7.554   7.796   1.041
 4457TIP3    H113316   7.553   7.824   0.950
 4457TIP3    H213317   7.595   7.709   1.038
 4458TIP3   OH213318   4.326   1.348   2.675
 4458TIP3    H113319   4.283   1.346   2.590
 4458TIP3    H213320   4.324   1.440   2.701
 4459TIP3   OH213321   7.886   7.326   4.920
 4459TIP3    H113322   7.886   7.396   4.855
 4459TIP3    H213323   7.979   7.311   4.938
 4460TIP3   OH213324   1.761   6.531   3.766
 4460TIP3    H113325   1.841   6.480   3.763
 4460TIP3    H213326   1.789   6.622   3.751
 4461TIP3   OH213327   2.338   7.539   4.721
 4461TIP3    H113328   2.431   7.561   4.721
 4461TIP3    H213329   2.336   7.444   4.705
 4462TIP3   OH213330   8.202   2.311   4.541
 4462TIP3    H113331   8.249   2.237   4.503
 4462TIP3    H213332   8.118   2.276   4.568
 4463TIP3   OH213333   1.048   1.414   3.884
 4463TIP3    H113334   1.026   1.422   3.977
 4463TIP3    H213335   1.141   1.394   3.883
 4464TIP3   OH213336   0.506   3.327   2.014
 4464TIP3    H113337   0.417   3.323   1.981
 4464TIP3    H213338   0.499   3.305   2.107
 4465TIP3   OH213339   7.489   3.118   5.318
 4465TIP3    H113340   7.493   3.026   5.345
 4465TIP3    H213341   7.426   3.119   5.246
 4466TIP3   OH213342   3.559   5.731   4.490
 4466TIP3    H113343   3.591   5.808   4.537
 4466TIP3    H213344   3.603   5.657   4.531
 4467TIP3   OH213345   5.763   7.010   3.162
 4467TIP3    H113346   5.741   6.984   3.073
 4467TIP3    H213347   5.859   7.010   3.164
 4468TIP3   OH213348   4.823   5.421   6.311
 4468TIP3    H113349   4.813   5.441   6.218
 4468TIP3    H213350   4.826   5.326   6.315
 4469TIP3   OH213351   4.503   4.336   0.855
 4469TIP3    H113352   4.563   4.404   0.887
 4469TIP3    H213353   4.555   4.256   0.858
 4470TIP3   OH213354   1.135   0.041   4.268
 4470TIP3    H113355   1.107   0.083   4.349
 4470TIP3    H213356   1.205   0.098   4.235
 4471TIP3   OH213357   1.074   7.306   1.120
 4471TIP3    H113358   0.983   7.275   1.118
 4471TIP3    H213359   1.112   7.266   1.197
 4472TIP3   OH213360   7.339   1.268   0.260
 4472TIP3    H113361   7.411   1.321   0.225
 4472TIP3    H213362   7.317   1.208   0.189
 4473TIP3   OH213363   1.083   0.349   0.723
 4473TIP3    H113364   1.172   0.316   0.734
 4473TIP3    H213365   1.093   0.430   0.673
 4474TIP3   OH213366   0.055   4.887   2.604
 4474TIP3    H113367   0.132   4.868   2.658
 4474TIP3    H213368   0.090   4.891   2.514
 4475TIP3   OH213369   3.272   1.084   3.112
 4475TIP3    H113370   3.227   1.166   3.132
 4475TIP3    H213371   3.323   1.103   3.033
 4476TIP3   OH213372   1.411   4.177   5.839
 4476TIP3    H113373   1.328   4.170   5.885
 4476TIP3    H213374   1.424   4.271   5.826
 4477TIP3   OH213375   5.982   4.783   6.218
 4477TIP3    H113376   5.910   4.846   6.224
 4477TIP3    H213377   6.053   4.824   6.268
 4478TIP3   OH213378   8.211   2.889   6.032
 4478TIP3    H113379   8.281   2.914   6.091
 4478TIP3    H213380   8.135   2.873   6.089
 4479TIP3   OH213381   7.911   3.335   5.617
 4479TIP3    H113382   7.845   3.402   5.632
 4479TIP3    H213383   7.868   3.269   5.562
 4480TIP3   OH213384   7.858   1.979   2.882
 4480TIP3    H113385   7.857   2.042   2.954
 4480TIP3    H213386   7.822   1.899   2.920
 4481TIP3   OH213387   3.047   4.751   1.620
 4481TIP3    H113388   3.029   4.687   1.551
 4481TIP3    H213389   3.003   4.717   1.697
 4482TIP3   OH213390   6.384   6.956   3.076
 4482TIP3    H113391   6.442   7.005   3.134
 4482TIP3    H213392   6.296   6.975   3.109
 4483TIP3   OH213393   6.671   6.910   3.414
 4483TIP3    H113394   6.702   6.848   3.481
 4483TIP3    H213395   6.591   6.871   3.381
 4484TIP3   OH213396   5.105   5.347   5.698
 4484TIP3    H113397   5.028   5.401   5.686
 4484TIP3    H213398   5.110   5.333   5.793
 4485TIP3   OH213399   6.372   7.107   1.514
 4485TIP3    H113400   6.371   7.090   1.608
 4485TIP3    H213401   6.302   7.171   1.500
 4486TIP3   OH213402   0.513   3.025   1.049
 4486TIP3    H113403   0.421   3.018   1.073
 4486TIP3    H213404   0.518   2.988   0.961
 4487TIP3   OH213405   2.329   0.460   5.677
 4487TIP3    H113406   2.394   0.490   5.740
 4487TIP3    H213407   2.298   0.377   5.712
 4488TIP3   OH213408   0.824   2.596   2.204
 4488TIP3    H113409   0.773   2.554   2.274
 4488TIP3    H213410   0.759   2.619   2.138
 4489TIP3   OH213411   0.176   2.555   0.663
 4489TIP3    H113412   0.166   2.617   0.591
 4489TIP3    H213413   0.086   2.542   0.696
 4490TIP3   OH213414   3.910   0.157   1.741
 4490TIP3    H113415   3.922   0.208   1.822
 4490TIP3    H213416   3.933   0.068   1.766
 4491TIP3   OH213417   4.529   4.333   6.055
 4491TIP3    H113418   4.438   4.363   6.055
 4491TIP3    H213419   4.523   4.242   6.024
 4492TIP3   OH213420   7.431   6.611   1.989
 4492TIP3    H113421   7.363   6.673   1.963
 4492TIP3    H213422   7.463   6.645   2.073
 4493TIP3   OH213423   6.562   5.822   5.986
 4493TIP3    H113424   6.607   5.770   5.920
 4493TIP3    H213425   6.473   5.834   5.951
 4494TIP3   OH213426   5.325   4.963   3.490
 4494TIP3    H113427   5.359   4.934   3.575
 4494TIP3    H213428   5.279   5.044   3.508
 4495TIP3   OH213429   0.818   2.889   6.695
 4495TIP3    H113430   0.912   2.870   6.691
 4495TIP3    H213431   0.802   2.948   6.622
 4496TIP3   OH213432   2.058   4.110   3.681
 4496TIP3    H113433   1.966   4.085   3.679
 4496TIP3    H213434   2.098   4.047   3.741
 4497TIP3   OH213435   6.311   3.210   0.973
 4497TIP3    H113436   6.293   3.244   1.060
 4497TIP3    H213437   6.253   3.134   0.964
 4498TIP3   OH213438   1.947   4.439   0.810
 4498TIP3    H113439   1.914   4.528   0.801
 4498TIP3    H213440   1.868   4.385   0.820
 4499TIP3   OH213441   4.067   3.340   6.581
 4499TIP3    H113442   4.001   3.270   6.586
 4499TIP3    H213443   4.131   3.307   6.518
 4500TIP3   OH213444   6.090   4.641   3.291
 4500TIP3    H113445   6.169   4.656   3.240
 4500TIP3    H213446   6.019   4.640   3.226
 4501TIP3   OH213447   7.822   1.868   3.567
 4501TIP3    H113448   7.895   1.833   3.618
 4501TIP3    H213449   7.792   1.793   3.515
 4502TIP3   OH213450   3.824   6.330   2.402
 4502TIP3    H113451   3.782   6.381   2.333
 4502TIP3    H213452   3.812   6.383   2.481
 4503TIP3   OH213453   2.011   3.701   3.067
 4503TIP3    H113454   1.924   3.690   3.108
 4503TIP3    H213455   2.023   3.623   3.014
 4504TIP3   OH213456   3.908   3.268   5.840
 4504TIP3    H113457   3.941   3.181   5.864
 4504TIP3    H213458   3.919   3.272   5.745
 4505TIP3   OH213459   1.033   6.695   6.386
 4505TIP3    H113460   1.120   6.702   6.424
 4505TIP3    H213461   1.017   6.779   6.345
 4506TIP3   OH213462   4.226   6.467   4.267
 4506TIP3    H113463   4.238   6.403   4.196
 4506TIP3    H213464   4.277   6.432   4.340
 4507TIP3   OH213465   6.992   2.968   0.858
 4507TIP3    H113466   7.019   2.990   0.769
 4507TIP3    H213467   6.959   2.878   0.852
 4508TIP3   OH213468   6.630   5.984   4.436
 4508TIP3    H113469   6.674   6.058   4.395
 4508TIP3    H213470   6.553   5.968   4.381
 4509TIP3   OH213471   0.951   3.557   1.288
 4509TIP3    H113472   0.899   3.531   1.212
 4509TIP3    H213473   1.021   3.612   1.252
 4510TIP3   OH213474   5.573   3.614   4.363
 4510TIP3    H113475   5.637   3.574   4.304
 4510TIP3    H213476   5.543   3.541   4.417
 4511TIP3   OH213477   7.281   3.243   3.812
 4511TIP3    H113478   7.213   3.196   3.860
 4511TIP3    H213479   7.238   3.323   3.782
 4512TIP3   OH213480   5.117   6.566   5.493
 4512TIP3    H113481   5.060   6.643   5.501
 4512TIP3    H213482   5.111   6.523   5.578
 4513TIP3   OH213483   6.118   5.276   0.345
 4513TIP3    H113484   6.037   5.231   0.367
 4513TIP3    H213485   6.180   5.248   0.413
 4514TIP3   OH213486   5.041   6.165   5.818
 4514TIP3    H113487   5.073   6.079   5.790
 4514TIP3    H213488   4.949   6.150   5.840
 4515TIP3   OH213489   4.810   3.052   3.304
 4515TIP3    H113490   4.778   3.131   3.346
 4515TIP3    H213491   4.752   3.038   3.229
 4516TIP3   OH213492   3.611   6.978   0.321
 4516TIP3    H113493   3.581   7.038   0.252
 4516TIP3    H213494   3.651   6.905   0.274
 4517TIP3   OH213495   7.885   6.465   2.535
 4517TIP3    H113496   7.909   6.498   2.622
 4517TIP3    H213497   7.887   6.370   2.544
 4518TIP3   OH213498   7.028   0.351   5.725
 4518TIP3    H113499   7.075   0.423   5.767
 4518TIP3    H213500   7.065   0.346   5.637
 4519TIP3   OH213501   5.941   4.707   3.089
 4519TIP3    H113502   5.861   4.681   3.134
 4519TIP3    H213503   5.964   4.792   3.126
 4520TIP3   OH213504   8.079   1.200   3.061
 4520TIP3    H113505   8.090   1.181   2.968
 4520TIP3    H213506   8.168   1.208   3.095
 4521TIP3   OH213507   2.805   6.437   1.233
 4521TIP3    H113508   2.816   6.343   1.243
 4521TIP3    H213509   2.858   6.460   1.156
 4522TIP3   OH213510   1.257   2.069   2.551
 4522TIP3    H113511   1.166   2.091   2.532
 4522TIP3    H213512   1.308   2.135   2.502
 4523TIP3   OH213513   2.304   5.169   4.073
 4523TIP3    H113514   2.323   5.177   3.979
 4523TIP3    H213515   2.363   5.232   4.115
 4524TIP3   OH213516   5.451   7.652   1.037
 4524TIP3    H113517   5.383   7.720   1.027
 4524TIP3    H213518   5.425   7.604   1.115
 4525TIP3   OH213519   6.168   3.598   4.321
 4525TIP3    H113520   6.208   3.649   4.250
 4525TIP3    H213521   6.140   3.517   4.279
 4526TIP3   OH213522   1.180   6.334   1.852
 4526TIP3    H113523   1.089   6.344   1.824
 4526TIP3    H213524   1.186   6.243   1.882
 4527TIP3   OH213525   5.380   2.331   5.335
 4527TIP3    H113526   5.397   2.272   5.262
 4527TIP3    H213527   5.286   2.349   5.332
 4528TIP3   OH213528   6.561   1.831   4.626
 4528TIP3    H113529   6.540   1.861   4.537
 4528TIP3    H213530   6.641   1.780   4.615
 4529TIP3   OH213531   8.123   4.510   4.298
 4529TIP3    H113532   8.191   4.445   4.282
 4529TIP3    H213533   8.060   4.466   4.355
 4530TIP3   OH213534   5.475   0.159   4.007
 4530TIP3    H113535   5.529   0.088   3.974
 4530TIP3    H213536   5.519   0.239   3.978
 4531TIP3   OH213537   7.817   7.456   4.605
 4531TIP3    H113538   7.889   7.508   4.569
 4531TIP3    H213539   7.767   7.520   4.656
 4532TIP3   OH213540   5.984   3.363   1.328
 4532TIP3    H113541   5.998   3.386   1.236
 4532TIP3    H213542   6.048   3.294   1.345
 4533TIP3   OH213543   6.878   6.117   6.253
 4533TIP3    H113544   6.924   6.044   6.295
 4533TIP3    H213545   6.852   6.174   6.326
 4534TIP3   OH213546   6.159   5.320   1.814
 4534TIP3    H113547   6.169   5.229   1.785
 4534TIP3    H213548   6.172   5.317   1.909
 4535TIP3   OH213549   0.054   7.116   5.024
 4535TIP3    H113550  -0.008   7.134   5.094
 4535TIP3    H213551   0.032   7.028   4.995
 4536TIP3   OH213552   7.460   0.196   0.257
 4536TIP3    H113553   7.435   0.250   0.182
 4536TIP3    H213554   7.540   0.235   0.290
 4537TIP3   OH213555   6.055   5.956   6.722
 4537TIP3    H113556   6.146   5.984   6.724
 4537TIP3    H213557   6.058   5.863   6.745
 4538TIP3   OH213558   3.081   1.330   6.589
 4538TIP3    H113559   2.991   1.355   6.607
 4538TIP3    H213560   3.074   1.261   6.523
 4539TIP3   OH213561   5.229   4.740   6.592
 4539TIP3    H113562   5.234   4.655   6.548
 4539TIP3    H213563   5.240   4.804   6.522
 4540TIP3   OH213564   5.334   7.485   0.136
 4540TIP3    H113565   5.416   7.440   0.156
 4540TIP3    H213566   5.352   7.533   0.055
 4541TIP3   OH213567   8.055   0.747   6.129
 4541TIP3    H113568   8.101   0.798   6.061
 4541TIP3    H213569   7.975   0.797   6.146
 4542TIP3   OH213570   4.635   4.169   6.358
 4542TIP3    H113571   4.555   4.211   6.390
 4542TIP3    H213572   4.606   4.114   6.285
 4543TIP3   OH213573   0.476   1.238   4.671
 4543TIP3    H113574   0.546   1.197   4.722
 4543TIP3    H213575   0.515   1.254   4.585
 4544TIP3   OH213576   3.902   0.903   1.745
 4544TIP3    H113577   3.997   0.913   1.741
 4544TIP3    H213578   3.874   0.902   1.653
 4545TIP3   OH213579   0.219   2.241   5.799
 4545TIP3    H113580   0.249   2.315   5.852
 4545TIP3    H213581   0.202   2.280   5.713
 4546TIP3   OH213582   0.360   0.416   4.785
 4546TIP3    H113583   0.380   0.348   4.721
 4546TIP3    H213584   0.359   0.370   4.869
 4547TIP3   OH213585   3.176   6.539   3.730
 4547TIP3    H113586   3.205   6.626   3.701
 4547TIP3    H213587   3.132   6.502   3.654
 4548TIP3   OH213588   7.481   0.255   1.278
 4548TIP3    H113589   7.571   0.224   1.284
 4548TIP3    H213590   7.479   0.332   1.336
 4549TIP3   OH213591   5.503   4.032   0.514
 4549TIP3    H113592   5.425   4.006   0.465
 4549TIP3    H213593   5.553   4.086   0.452
 4550TIP3   OH213594   1.302   3.283   4.118
 4550TIP3    H113595   1.252   3.269   4.037
 4550TIP3    H213596   1.264   3.222   4.181
 4551TIP3   OH213597   0.932   6.883   5.584
 4551TIP3    H113598   0.983   6.830   5.523
 4551TIP3    H213599   0.994   6.909   5.651
 4552TIP3   OH213600   6.836   5.545   0.259
 4552TIP3    H113601   6.850   5.639   0.273
 4552TIP3    H213602   6.833   5.535   0.164
 4553TIP3   OH213603   0.883   0.580   2.930
 4553TIP3    H113604   0.974   0.602   2.910
 4553TIP3    H213605   0.887   0.491   2.967
 4554TIP3   OH213606   3.939   5.658   6.426
 4554TIP3    H113607   4.009   5.616   6.376
 4554TIP3    H213608   3.869   5.592   6.428
 4555TIP3   OH213609   4.850   3.917   6.123
 4555TIP3    H113610   4.850   4.008   6.151
 4555TIP3    H213611   4.908   3.915   6.046
 4556TIP3   OH213612   1.835   6.267   5.097
 4556TIP3    H113613   1.769   6.299   5.157
 4556TIP3    H213614   1.913   6.318   5.117
 4557TIP3   OH213615   4.713   4.543   4.989
 4557TIP3    H113616   4.660   4.586   4.922
 4557TIP3    H213617   4.656   4.476   5.026
 4558TIP3   OH213618   3.648   3.481   5.832
 4558TIP3    H113619   3.696   3.419   5.886
 4558TIP3    H213620   3.635   3.435   5.749
 4559TIP3   OH213621   5.605   5.005   6.476
 4559TIP3    H113622   5.560   4.921   6.470
 4559TIP3    H213623   5.540   5.069   6.447
 4560TIP3   OH213624   3.607   3.467   1.086
 4560TIP3    H113625   3.560   3.506   1.159
 4560TIP3    H213626   3.550   3.481   1.010
 4561TIP3   OH213627   3.660   6.126   0.361
 4561TIP3    H113628   3.740   6.170   0.391
 4561TIP3    H213629   3.662   6.040   0.403
 4562TIP3   OH213630   2.393   2.826   2.977
 4562TIP3    H113631   2.403   2.870   3.061
 4562TIP3    H213632   2.300   2.804   2.972
 4563TIP3   OH213633   7.954   6.255   5.020
 4563TIP3    H113634   8.027   6.299   4.978
 4563TIP3    H213635   7.961   6.164   4.992
 4564TIP3   OH213636   5.633   2.928   3.403
 4564TIP3    H113637   5.720   2.963   3.384
 4564TIP3    H213638   5.648   2.864   3.473
 4565TIP3   OH213639   3.725   4.839   6.093
 4565TIP3    H113640   3.694   4.782   6.164
 4565TIP3    H213641   3.680   4.807   6.015
 4566TIP3   OH213642   0.638   7.193   2.948
 4566TIP3    H113643   0.546   7.206   2.970
 4566TIP3    H213644   0.651   7.098   2.953
 4567TIP3   OH213645   1.571   7.225   4.886
 4567TIP3    H113646   1.486   7.264   4.862
 4567TIP3    H213647   1.550   7.136   4.912
 4568TIP3   OH213648   2.158   4.676   4.557
 4568TIP3    H113649   2.234   4.732   4.572
 4568TIP3    H213650   2.106   4.722   4.492
 4569TIP3   OH213651   4.204   5.046   6.464
 4569TIP3    H113652   4.150   5.004   6.396
 4569TIP3    H213653   4.157   5.028   6.546
 4570TIP3   OH213654   1.942   6.293   0.541
 4570TIP3    H113655   1.864   6.331   0.501
 4570TIP3    H213656   1.946   6.332   0.629
 4571TIP3   OH213657   7.984   5.776   6.836
 4571TIP3    H113658   8.050   5.819   6.781
 4571TIP3    H213659   7.925   5.734   6.774
 4572TIP3   OH213660   2.646   2.863   1.937
 4572TIP3    H113661   2.672   2.955   1.939
 4572TIP3    H213662   2.727   2.816   1.918
 4573TIP3   OH213663   2.515   5.705   6.147
 4573TIP3    H113664   2.508   5.782   6.203
 4573TIP3    H213665   2.558   5.737   6.068
 4574TIP3   OH213666   0.234   4.350   2.331
 4574TIP3    H113667   0.171   4.329   2.400
 4574TIP3    H213668   0.271   4.434   2.359
 4575TIP3   OH213669   5.020   2.701   3.603
 4575TIP3    H113670   5.026   2.620   3.654
 4575TIP3    H213671   4.952   2.684   3.539
 4576TIP3   OH213672   5.379   4.740   2.798
 4576TIP3    H113673   5.427   4.701   2.725
 4576TIP3    H213674   5.307   4.678   2.814
 4577TIP3   OH213675   4.877   1.586   4.027
 4577TIP3    H113676   4.802   1.618   3.977
 4577TIP3    H213677   4.952   1.605   3.972
 4578TIP3   OH213678   5.107   4.434   6.596
 4578TIP3    H113679   5.162   4.374   6.647
 4578TIP3    H213680   5.083   4.383   6.518
 4579TIP3   OH213681   3.826   1.453   1.592
 4579TIP3    H113682   3.880   1.375   1.600
 4579TIP3    H213683   3.886   1.526   1.609
 4580TIP3   OH213684   0.976   6.658   6.101
 4580TIP3    H113685   0.956   6.653   6.194
 4580TIP3    H213686   0.944   6.744   6.074
 4581TIP3   OH213687   7.271   0.270   4.927
 4581TIP3    H113688   7.305   0.196   4.877
 4581TIP3    H213689   7.177   0.254   4.933
 4582TIP3   OH213690   0.814   1.297   1.379
 4582TIP3    H113691   0.803   1.376   1.432
 4582TIP3    H213692   0.889   1.252   1.418
 4583TIP3   OH213693   4.468   2.933   5.865
 4583TIP3    H113694   4.423   2.991   5.926
 4583TIP3    H213695   4.438   2.845   5.889
 4584TIP3   OH213696   1.097   2.587   2.989
 4584TIP3    H113697   1.025   2.625   2.939
 4584TIP3    H213698   1.054   2.534   3.057
 4585TIP3   OH213699   5.755   1.663   6.198
 4585TIP3    H113700   5.705   1.741   6.221
 4585TIP3    H213701   5.703   1.619   6.131
 4586TIP3   OH213702   7.501   6.144   5.510
 4586TIP3    H113703   7.518   6.109   5.598
 4586TIP3    H213704   7.406   6.140   5.501
 4587TIP3   OH213705   6.216   7.237   3.477
 4587TIP3    H113706   6.175   7.230   3.563
 4587TIP3    H213707   6.307   7.259   3.495
 4588TIP3   OH213708   0.800   2.084   3.288
 4588TIP3    H113709   0.892   2.081   3.313
 4588TIP3    H213710   0.766   1.998   3.311
 4589TIP3   OH213711   4.610   4.625   2.718
 4589TIP3    H113712   4.675   4.656   2.655
 4589TIP3    H213713   4.593   4.534   2.692
 4590TIP3   OH213714   6.952   5.795   5.535
 4590TIP3    H113715   6.881   5.854   5.562
 4590TIP3    H213716   6.971   5.821   5.445
 4591TIP3   OH213717   4.686   2.604   2.547
 4591TIP3    H113718   4.766   2.607   2.494
 4591TIP3    H213719   4.615   2.601   2.483
 4592TIP3   OH213720   0.765   6.264   1.360
 4592TIP3    H113721   0.774   6.255   1.266
 4592TIP3    H213722   0.690   6.209   1.382
 4593TIP3   OH213723   7.384   2.833   5.850
 4593TIP3    H113724   7.302   2.792   5.877
 4593TIP3    H213725   7.368   2.862   5.761
 4594TIP3   OH213726   0.876   5.014   3.016
 4594TIP3    H113727   0.922   4.945   2.968
 4594TIP3    H213728   0.933   5.033   3.090
 4595TIP3   OH213729   1.554   6.820   4.986
 4595TIP3    H113730   1.497   6.896   4.999
 4595TIP3    H213731   1.510   6.767   4.920
 4596TIP3   OH213732   2.516   7.090   1.651
 4596TIP3    H113733   2.586   7.070   1.589
 4596TIP3    H213734   2.436   7.087   1.597
 4597TIP3   OH213735   6.734   3.774   6.212
 4597TIP3    H113736   6.811   3.759   6.157
 4597TIP3    H213737   6.661   3.741   6.160
 4598TIP3   OH213738   2.724   6.676   0.706
 4598TIP3    H113739   2.730   6.641   0.617
 4598TIP3    H213740   2.642   6.641   0.741
 4599TIP3   OH213741   6.977   2.577   0.091
 4599TIP3    H113742   6.985   2.489   0.054
 4599TIP3    H213743   6.887   2.582   0.123
 4600TIP3   OH213744   7.476   2.698   4.073
 4600TIP3    H113745   7.483   2.787   4.038
 4600TIP3    H213746   7.419   2.707   4.149
 4601TIP3   OH213747   3.460   5.213   6.030
 4601TIP3    H113748   3.409   5.220   5.950
 4601TIP3    H213749   3.429   5.285   6.085
 4602TIP3   OH213750   1.931   6.664   0.942
 4602TIP3    H113751   1.876   6.719   0.887
 4602TIP3    H213752   1.991   6.725   0.985
 4603TIP3   OH213753   3.413   1.903   1.367
 4603TIP3    H113754   3.362   1.823   1.382
 4603TIP3    H213755   3.415   1.913   1.272
 4604TIP3   OH213756   2.903   4.981   5.341
 4604TIP3    H113757   2.930   4.987   5.433
 4604TIP3    H213758   2.820   5.027   5.337
 4605TIP3   OH213759   6.519   7.153   0.434
 4605TIP3    H113760   6.527   7.231   0.380
 4605TIP3    H213761   6.538   7.182   0.523
 4606TIP3   OH213762   7.305   6.350   2.036
 4606TIP3    H113763   7.319   6.445   2.029
 4606TIP3    H213764   7.326   6.316   1.949
 4607TIP3   OH213765   2.836   7.687   2.885
 4607TIP3    H113766   2.779   7.762   2.866
 4607TIP3    H213767   2.803   7.652   2.967
 4608TIP3   OH213768   4.678   3.527   1.488
 4608TIP3    H113769   4.646   3.489   1.407
 4608TIP3    H213770   4.699   3.618   1.465
 4609TIP3   OH213771   2.020   4.046   2.947
 4609TIP3    H113772   1.965   4.114   2.987
 4609TIP3    H213773   2.082   4.023   3.016
 4610TIP3   OH213774   3.355   3.556   0.230
 4610TIP3    H113775   3.407   3.576   0.153
 4610TIP3    H213776   3.292   3.490   0.200
 4611TIP3   OH213777   4.645   6.735   4.740
 4611TIP3    H113778   4.642   6.793   4.816
 4611TIP3    H213779   4.584   6.665   4.760
 4612TIP3   OH213780   7.870   2.034   3.309
 4612TIP3    H113781   7.838   1.987   3.386
 4612TIP3    H213782   7.911   1.966   3.255
 4613TIP3   OH213783   5.975   5.166   0.767
 4613TIP3    H113784   5.904   5.229   0.752
 4613TIP3    H213785   6.028   5.207   0.835
 4614TIP3   OH213786   0.478   5.317   5.006
 4614TIP3    H113787   0.526   5.300   5.088
 4614TIP3    H213788   0.393   5.349   5.035
 4615TIP3   OH213789   1.764   5.231   0.581
 4615TIP3    H113790   1.699   5.207   0.647
 4615TIP3    H213791   1.814   5.151   0.567
 4616TIP3   OH213792   1.498   0.920   5.181
 4616TIP3    H113793   1.447   0.839   5.178
 4616TIP3    H213794   1.589   0.892   5.173
 4617TIP3   OH213795   3.383   0.412   5.945
 4617TIP3    H113796   3.306   0.386   5.893
 4617TIP3    H213797   3.455   0.410   5.882
 4618TIP3   OH213798   6.340   4.924   2.414
 4618TIP3    H113799   6.406   4.993   2.401
 4618TIP3    H213800   6.391   4.846   2.436
 4619TIP3   OH213801   2.335   2.375   2.464
 4619TIP3    H113802   2.306   2.426   2.389
 4619TIP3    H213803   2.346   2.440   2.534
 4620TIP3   OH213804   2.643   0.212   5.771
 4620TIP3    H113805   2.694   0.192   5.692
 4620TIP3    H213806   2.677   0.296   5.800
 4621TIP3   OH213807   1.094   7.718   4.838
 4621TIP3    H113808   1.176   7.711   4.789
 4621TIP3    H213809   1.094   7.641   4.895
 4622TIP3   OH213810   2.408   6.015   1.456
 4622TIP3    H113811   2.375   5.925   1.462
 4622TIP3    H213812   2.390   6.042   1.366
 4623TIP3   OH213813   3.046   3.887   4.334
 4623TIP3    H113814   3.031   3.816   4.397
 4623TIP3    H213815   2.963   3.935   4.332
 4624TIP3   OH213816   5.437   0.899   3.867
 4624TIP3    H113817   5.456   0.989   3.894
 4624TIP3    H213818   5.464   0.845   3.942
 4625TIP3   OH213819   7.982   2.120   5.127
 4625TIP3    H113820   8.014   2.031   5.117
 4625TIP3    H213821   8.059   2.175   5.115
 4626TIP3   OH213822   1.671   4.158   1.143
 4626TIP3    H113823   1.727   4.084   1.118
 4626TIP3    H213824   1.615   4.172   1.066
 4627TIP3   OH213825   6.805   5.782   4.244
 4627TIP3    H113826   6.819   5.796   4.338
 4627TIP3    H213827   6.882   5.734   4.215
 4628TIP3   OH213828   5.451   0.784   5.251
 4628TIP3    H113829   5.437   0.745   5.338
 4628TIP3    H213830   5.543   0.810   5.251
 4629TIP3   OH213831   5.569   7.266   2.091
 4629TIP3    H113832   5.661   7.282   2.073
 4629TIP3    H213833   5.553   7.308   2.175
 4630TIP3   OH213834   0.207   5.981   6.460
 4630TIP3    H113835   0.134   5.928   6.426
 4630TIP3    H213836   0.220   6.048   6.393
 4631TIP3   OH213837   0.740   4.632   0.055
 4631TIP3    H113838   0.761   4.576  -0.020
 4631TIP3    H213839   0.816   4.689   0.064
 4632TIP3   OH213840   5.064   4.585   2.728
 4632TIP3    H113841   5.083   4.521   2.797
 4632TIP3    H213842   5.128   4.566   2.659
 4633TIP3   OH213843   5.199   7.769   3.950
 4633TIP3    H113844   5.192   7.793   4.043
 4633TIP3    H213845   5.109   7.769   3.918
 4634TIP3   OH213846   2.191   4.004   5.239
 4634TIP3    H113847   2.275   3.965   5.262
 4634TIP3    H213848   2.206   4.042   5.152
 4635TIP3   OH213849   5.457   6.506   1.222
 4635TIP3    H113850   5.414   6.542   1.300
 4635TIP3    H213851   5.508   6.579   1.188
 4636TIP3   OH213852   7.530   2.624   2.176
 4636TIP3    H113853   7.572   2.556   2.122
 4636TIP3    H213854   7.553   2.706   2.133
 4637TIP3   OH213855   0.648   3.719   4.104
 4637TIP3    H113856   0.654   3.748   4.195
 4637TIP3    H213857   0.715   3.770   4.058
 4638TIP3   OH213858   6.982   4.495   6.259
 4638TIP3    H113859   6.891   4.508   6.232
 4638TIP3    H213860   7.030   4.484   6.177
 4639TIP3   OH213861   2.224   2.486   0.762
 4639TIP3    H113862   2.312   2.491   0.799
 4639TIP3    H213863   2.167   2.468   0.837
 4640TIP3   OH213864   2.415   5.733   4.897
 4640TIP3    H113865   2.347   5.702   4.837
 4640TIP3    H213866   2.491   5.751   4.842
 4641TIP3   OH213867   6.408   7.190   3.679
 4641TIP3    H113868   6.314   7.208   3.690
 4641TIP3    H213869   6.448   7.227   3.758
 4642TIP3   OH213870   0.279   5.359   0.606
 4642TIP3    H113871   0.305   5.451   0.606
 4642TIP3    H213872   0.221   5.350   0.530
 4643TIP3   OH213873   2.553   7.613   6.771
 4643TIP3    H113874   2.461   7.617   6.794
 4643TIP3    H213875   2.577   7.704   6.752
 4644TIP3   OH213876   3.015   1.273   4.795
 4644TIP3    H113877   3.040   1.292   4.704
 4644TIP3    H213878   2.996   1.179   4.794
 4645TIP3   OH213879   6.910   6.337   2.955
 4645TIP3    H113880   6.898   6.242   2.962
 4645TIP3    H213881   6.842   6.365   2.894
 4646TIP3   OH213882   5.591   1.262   0.839
 4646TIP3    H113883   5.652   1.334   0.823
 4646TIP3    H213884   5.515   1.282   0.784
 4647TIP3   OH213885   4.317   1.534   1.101
 4647TIP3    H113886   4.390   1.480   1.071
 4647TIP3    H213887   4.294   1.498   1.187
 4648TIP3   OH213888   5.554   5.890   5.664
 4648TIP3    H113889   5.610   5.967   5.674
 4648TIP3    H213890   5.615   5.818   5.649
 4649TIP3   OH213891   4.132   7.115   3.269
 4649TIP3    H113892   4.117   7.132   3.362
 4649TIP3    H213893   4.184   7.035   3.267
 4650TIP3   OH213894   0.772   4.070   1.238
 4650TIP3    H113895   0.819   4.102   1.314
 4650TIP3    H213896   0.714   4.002   1.273
 4651TIP3   OH213897   4.406   5.577   6.510
 4651TIP3    H113898   4.397   5.503   6.569
 4651TIP3    H213899   4.499   5.580   6.488
 4652TIP3   OH213900   5.237   5.697   3.123
 4652TIP3    H113901   5.165   5.680   3.184
 4652TIP3    H213902   5.232   5.626   3.060
 4653TIP3   OH213903   5.448   3.999   6.158
 4653TIP3    H113904   5.404   4.080   6.184
 4653TIP3    H213905   5.533   4.027   6.124
 4654TIP3   OH213906   6.768   1.123   3.184
 4654TIP3    H113907   6.860   1.126   3.160
 4654TIP3    H213908   6.722   1.159   3.108
 4655TIP3   OH213909   3.260   2.202   5.287
 4655TIP3    H113910   3.229   2.148   5.360
 4655TIP3    H213911   3.192   2.268   5.275
 4656TIP3   OH213912   8.269   2.031   4.722
 4656TIP3    H113913   8.191   1.976   4.734
 4656TIP3    H213914   8.260   2.066   4.634
 4657TIP3   OH213915   2.456   1.365   5.726
 4657TIP3    H113916   2.431   1.347   5.635
 4657TIP3    H213917   2.545   1.400   5.720
 4658TIP3   OH213918   2.943   4.425   3.039
 4658TIP3    H113919   2.996   4.386   3.108
 4658TIP3    H213920   2.968   4.379   2.959
 4659TIP3   OH213921   3.337   6.251   4.793
 4659TIP3    H113922   3.419   6.301   4.785
 4659TIP3    H213923   3.363   6.160   4.781
 4660TIP3   OH213924   7.985   4.335   4.497
 4660TIP3    H113925   8.044   4.271   4.457
 4660TIP3    H213926   7.972   4.301   4.586
 4661TIP3   OH213927   3.867   7.649   4.635
 4661TIP3    H113928   3.859   7.555   4.618
 4661TIP3    H213929   3.865   7.656   4.731
 4662TIP3   OH213930   5.998   6.988   2.888
 4662TIP3    H113931   6.086   6.956   2.867
 4662TIP3    H213932   5.948   6.976   2.807
 4663TIP3   OH213933   5.459   5.654   0.270
 4663TIP3    H113934   5.543   5.621   0.305
 4663TIP3    H213935   5.393   5.610   0.324
 4664TIP3   OH213936   7.518   0.129   4.434
 4664TIP3    H113937   7.508   0.046   4.480
 4664TIP3    H213938   7.476   0.194   4.491
 4665TIP3   OH213939   2.144   1.293   0.997
 4665TIP3    H113940   2.177   1.331   1.079
 4665TIP3    H213941   2.059   1.256   1.020
 4666TIP3   OH213942   3.747   3.568   6.206
 4666TIP3    H113943   3.732   3.595   6.297
 4666TIP3    H213944   3.744   3.649   6.156
 4667TIP3   OH213945   8.222   0.086   5.398
 4667TIP3    H113946   8.128   0.099   5.385
 4667TIP3    H213947   8.248   0.156   5.459
 4668TIP3   OH213948   5.243   7.831   3.046
 4668TIP3    H113949   5.218   7.837   2.954
 4668TIP3    H213950   5.172   7.781   3.087
 4669TIP3   OH213951   4.041   2.216   6.214
 4669TIP3    H113952   4.112   2.259   6.262
 4669TIP3    H213953   3.978   2.191   6.282
 4670TIP3   OH213954   5.793   4.269   6.359
 4670TIP3    H113955   5.867   4.323   6.331
 4670TIP3    H213956   5.773   4.299   6.448
 4671TIP3   OH213957   6.563   4.849   4.881
 4671TIP3    H113958   6.583   4.917   4.818
 4671TIP3    H213959   6.482   4.878   4.923
 4672TIP3   OH213960   6.679   0.723   5.388
 4672TIP3    H113961   6.601   0.670   5.404
 4672TIP3    H213962   6.655   0.778   5.313
 4673TIP3   OH213963   1.736   5.071   3.069
 4673TIP3    H113964   1.709   5.139   3.008
 4673TIP3    H213965   1.830   5.060   3.054
 4674TIP3   OH213966   3.778   6.215   1.540
 4674TIP3    H113967   3.870   6.213   1.567
 4674TIP3    H213968   3.759   6.308   1.525
 4675TIP3   OH213969   1.945   7.354   1.643
 4675TIP3    H113970   1.871   7.351   1.582
 4675TIP3    H213971   1.995   7.431   1.617
 4676TIP3   OH213972   1.592   1.400   1.179
 4676TIP3    H113973   1.657   1.344   1.136
 4676TIP3    H213974   1.606   1.385   1.272
 4677TIP3   OH213975   3.496   3.050   1.531
 4677TIP3    H113976   3.482   3.053   1.625
 4677TIP3    H213977   3.529   3.137   1.508
 4678TIP3   OH213978   1.095   1.198   5.604
 4678TIP3    H113979   1.154   1.258   5.650
 4678TIP3    H213980   1.008   1.220   5.637
 4679TIP3   OH213981   2.779   3.512   3.562
 4679TIP3    H113982   2.726   3.464   3.625
 4679TIP3    H213983   2.780   3.457   3.484
 4680TIP3   OH213984   6.364   0.849   6.356
 4680TIP3    H113985   6.340   0.915   6.292
 4680TIP3    H213986   6.333   0.767   6.319
 4681TIP3   OH213987   0.355   5.233   2.303
 4681TIP3    H113988   0.348   5.213   2.209
 4681TIP3    H213989   0.271   5.272   2.325
 4682TIP3   OH213990   1.456   4.019   3.432
 4682TIP3    H113991   1.375   4.001   3.384
 4682TIP3    H213992   1.513   3.945   3.411
 4683TIP3   OH213993   7.311   7.107   3.736
 4683TIP3    H113994   7.323   7.037   3.672
 4683TIP3    H213995   7.390   7.103   3.790
 4684TIP3   OH213996   4.690   1.555   5.319
 4684TIP3    H113997   4.664   1.464   5.330
 4684TIP3    H213998   4.620   1.606   5.359
 4685TIP3   OH213999   7.299   0.994   6.483
 4685TIP3    H114000   7.308   1.014   6.577
 4685TIP3    H214001   7.207   0.971   6.472
 4686TIP3   OH214002   1.962   7.751   4.497
 4686TIP3    H114003   2.003   7.750   4.410
 4686TIP3    H214004   2.003   7.677   4.543
 4687TIP3   OH214005   0.856   6.520   6.799
 4687TIP3    H114006   0.853   6.588   6.731
 4687TIP3    H214007   0.937   6.473   6.781
 4688TIP3   OH214008   6.630   7.699   0.434
 4688TIP3    H114009   6.566   7.691   0.362
 4688TIP3    H214010   6.583   7.747   0.502
 4689TIP3   OH214011   1.134   2.553   3.318
 4689TIP3    H114012   1.105   2.634   3.361
 4689TIP3    H214013   1.061   2.530   3.260
 4690TIP3   OH214014   6.857   0.236   2.923
 4690TIP3    H114015   6.785   0.207   2.868
 4690TIP3    H214016   6.913   0.286   2.863
 4691TIP3   OH214017   2.315   2.380   4.372
 4691TIP3    H114018   2.241   2.348   4.423
 4691TIP3    H214019   2.277   2.400   4.286
 4692TIP3   OH214020   2.955   6.619   4.949
 4692TIP3    H114021   3.021   6.551   4.961
 4692TIP3    H214022   2.885   6.595   5.009
 4693TIP3   OH214023   8.158   5.570   2.422
 4693TIP3    H114024   8.109   5.615   2.491
 4693TIP3    H214025   8.248   5.603   2.431
 4694TIP3   OH214026   6.301   4.885   1.262
 4694TIP3    H114027   6.214   4.850   1.243
 4694TIP3    H214028   6.327   4.929   1.182
 4695TIP3   OH214029   3.624   0.993   1.040
 4695TIP3    H114030   3.563   1.062   1.068
 4695TIP3    H214031   3.684   1.037   0.980
 4696TIP3   OH214032   0.659   0.543   5.099
 4696TIP3    H114033   0.637   0.508   5.013
 4696TIP3    H214034   0.754   0.547   5.100
 4697TIP3   OH214035   4.506   2.443   4.617
 4697TIP3    H114036   4.448   2.371   4.592
 4697TIP3    H214037   4.566   2.451   4.542
 4698TIP3   OH214038   4.004   1.692   1.622
 4698TIP3    H114039   4.082   1.654   1.662
 4698TIP3    H214040   3.999   1.781   1.656
 4699TIP3   OH214041   7.946   6.135   6.637
 4699TIP3    H114042   7.879   6.073   6.665
 4699TIP3    H214043   8.018   6.081   6.606
 4700TIP3   OH214044   6.751   4.964   4.068
 4700TIP3    H114045   6.831   4.936   4.024
 4700TIP3    H214046   6.757   5.059   4.070
 4701TIP3   OH214047   3.044   4.128   4.972
 4701TIP3    H114048   3.075   4.037   4.979
 4701TIP3    H214049   3.114   4.179   5.013
 4702TIP3   OH214050   0.621   6.227   0.562
 4702TIP3    H114051   0.557   6.182   0.617
 4702TIP3    H214052   0.580   6.231   0.475
 4703TIP3   OH214053   4.389   3.040   2.135
 4703TIP3    H114054   4.440   3.010   2.210
 4703TIP3    H214055   4.338   2.964   2.108
 4704TIP3   OH214056   3.802   2.447   5.261
 4704TIP3    H114057   3.869   2.397   5.214
 4704TIP3    H214058   3.733   2.384   5.279
 4705TIP3   OH214059   2.984   2.721   5.792
 4705TIP3    H114060   3.029   2.736   5.709
 4705TIP3    H214061   2.992   2.627   5.808
 4706TIP3   OH214062   5.493   2.642   6.255
 4706TIP3    H114063   5.522   2.722   6.300
 4706TIP3    H214064   5.500   2.663   6.162
 4707TIP3   OH214065   1.623   0.542   4.293
 4707TIP3    H114066   1.553   0.607   4.299
 4707TIP3    H214067   1.699   0.585   4.331
 4708TIP3   OH214068   7.085   5.137   4.003
 4708TIP3    H114069   6.996   5.172   4.007
 4708TIP3    H214070   7.125   5.162   4.086
 4709TIP3   OH214071   2.433   7.790   5.596
 4709TIP3    H114072   2.352   7.827   5.631
 4709TIP3    H214073   2.473   7.862   5.548
 4710TIP3   OH214074   7.515   7.140   0.352
 4710TIP3    H114075   7.426   7.154   0.383
 4710TIP3    H214076   7.570   7.162   0.427
 4711TIP3   OH214077   5.965   5.247   6.703
 4711TIP3    H114078   6.013   5.295   6.635
 4711TIP3    H214079   5.950   5.312   6.771
 4712TIP3   OH214080   3.285   6.973   0.700
 4712TIP3    H114081   3.318   6.896   0.746
 4712TIP3    H214082   3.211   7.002   0.754
 4713TIP3   OH214083   7.774   5.241   0.797
 4713TIP3    H114084   7.855   5.290   0.788
 4713TIP3    H214085   7.801   5.150   0.803
 4714TIP3   OH214086   3.661   0.731   4.776
 4714TIP3    H114087   3.737   0.673   4.765
 4714TIP3    H214088   3.586   0.672   4.781
 4715TIP3   OH214089   7.407   7.588   4.102
 4715TIP3    H114090   7.473   7.603   4.170
 4715TIP3    H214091   7.344   7.529   4.143
 4716TIP3   OH214092   7.477   0.032   5.853
 4716TIP3    H114093   7.505   0.063   5.767
 4716TIP3    H214094   7.470  -0.063   5.843
 4717TIP3   OH214095   1.992   3.612   4.627
 4717TIP3    H114096   1.953   3.526   4.638
 4717TIP3    H214097   1.994   3.650   4.715
 4718TIP3   OH214098   4.444   1.575   0.538
 4718TIP3    H114099   4.505   1.644   0.563
 4718TIP3    H214100   4.497   1.496   0.533
 4719TIP3   OH214101   0.994   2.825   4.628
 4719TIP3    H114102   1.025   2.779   4.706
 4719TIP3    H214103   0.976   2.914   4.659
 4720TIP3   OH214104   5.894   2.179   3.506
 4720TIP3    H114105   5.899   2.107   3.443
 4720TIP3    H214106   5.904   2.137   3.592
 4721TIP3   OH214107   2.474   5.689   1.224
 4721TIP3    H114108   2.448   5.760   1.166
 4721TIP3    H214109   2.542   5.641   1.175
 4722TIP3   OH214110   0.944   2.621   6.589
 4722TIP3    H114111   1.003   2.679   6.638
 4722TIP3    H214112   0.982   2.617   6.501
 4723TIP3   OH214113   3.305   1.463   5.157
 4723TIP3    H114114   3.339   1.374   5.150
 4723TIP3    H214115   3.260   1.478   5.074
 4724TIP3   OH214116   0.205   4.006   4.959
 4724TIP3    H114117   0.296   4.016   4.933
 4724TIP3    H214118   0.155   4.031   4.881
 4725TIP3   OH214119   4.139   0.290   0.370
 4725TIP3    H114120   4.186   0.280   0.287
 4725TIP3    H214121   4.058   0.240   0.357
 4726TIP3   OH214122   2.376   6.078   2.705
 4726TIP3    H114123   2.284   6.051   2.699
 4726TIP3    H214124   2.387   6.104   2.797
 4727TIP3   OH214125   3.919   1.513   1.962
 4727TIP3    H114126   3.945   1.432   1.917
 4727TIP3    H214127   3.957   1.504   2.050
 4728TIP3   OH214128   0.121   6.890   4.398
 4728TIP3    H114129   0.053   6.946   4.435
 4728TIP3    H214130   0.185   6.880   4.468
 4729TIP3   OH214131   7.717   6.791   1.389
 4729TIP3    H114132   7.687   6.745   1.468
 4729TIP3    H214133   7.718   6.884   1.414
 4730TIP3   OH214134   3.451   2.268   5.918
 4730TIP3    H114135   3.374   2.278   5.863
 4730TIP3    H214136   3.421   2.293   6.006
 4731TIP3   OH214137   1.912   2.455   1.633
 4731TIP3    H114138   1.936   2.442   1.541
 4731TIP3    H214139   1.899   2.550   1.641
 4732TIP3   OH214140   3.750   2.412   1.548
 4732TIP3    H114141   3.790   2.363   1.620
 4732TIP3    H214142   3.792   2.377   1.469
 4733TIP3   OH214143   7.782   0.720   6.653
 4733TIP3    H114144   7.749   0.786   6.593
 4733TIP3    H214145   7.847   0.671   6.603
 4734TIP3   OH214146   3.386   5.115   2.840
 4734TIP3    H114147   3.469   5.144   2.878
 4734TIP3    H214148   3.329   5.102   2.915
 4735TIP3   OH214149   1.987   5.916   4.233
 4735TIP3    H114150   1.963   5.931   4.141
 4735TIP3    H214151   1.911   5.873   4.271
 4736TIP3   OH214152   6.136   6.997   0.844
 4736TIP3    H114153   6.211   6.973   0.898
 4736TIP3    H214154   6.175   7.035   0.765
 4737TIP3   OH214155   8.026   7.370   5.690
 4737TIP3    H114156   8.114   7.339   5.671
 4737TIP3    H214157   8.016   7.356   5.784
 4738TIP3   OH214158   6.190   0.826   3.932
 4738TIP3    H114159   6.111   0.821   3.986
 4738TIP3    H214160   6.193   0.743   3.884
 4739TIP3   OH214161   7.410   0.627   2.415
 4739TIP3    H114162   7.389   0.682   2.340
 4739TIP3    H214163   7.325   0.594   2.445
 4740TIP3   OH214164   1.586   5.233   1.870
 4740TIP3    H114165   1.530   5.306   1.844
 4740TIP3    H214166   1.621   5.198   1.788
 4741TIP3   OH214167   7.615   2.895   4.737
 4741TIP3    H114168   7.597   2.890   4.643
 4741TIP3    H214169   7.531   2.919   4.776
 4742TIP3   OH214170   7.894   3.825   2.387
 4742TIP3    H114171   7.812   3.780   2.365
 4742TIP3    H214172   7.902   3.894   2.320
 4743TIP3   OH214173   6.499   1.016   2.053
 4743TIP3    H114174   6.493   1.107   2.021
 4743TIP3    H214175   6.417   0.976   2.025
 4744TIP3   OH214176   7.051   5.884   2.014
 4744TIP3    H114177   7.146   5.895   2.017
 4744TIP3    H214178   7.039   5.796   1.978
 4745TIP3   OH214179   1.878   7.574   0.589
 4745TIP3    H114180   1.813   7.518   0.546
 4745TIP3    H214181   1.912   7.630   0.518
 4746TIP3   OH214182   8.190   3.371   5.980
 4746TIP3    H114183   8.237   3.311   5.922
 4746TIP3    H214184   8.186   3.454   5.933
 4747TIP3   OH214185   5.711   5.512   6.482
 4747TIP3    H114186   5.772   5.579   6.513
 4747TIP3    H214187   5.691   5.538   6.391
 4748TIP3   OH214188   0.737   1.368   6.219
 4748TIP3    H114189   0.718   1.459   6.195
 4748TIP3    H214190   0.654   1.323   6.209
 4749TIP3   OH214191   1.437   2.528   6.728
 4749TIP3    H114192   1.462   2.577   6.806
 4749TIP3    H214193   1.342   2.529   6.728
 4750TIP3   OH214194   7.612   0.827   5.590
 4750TIP3    H114195   7.682   0.799   5.531
 4750TIP3    H214196   7.607   0.922   5.577
 4751TIP3   OH214197   4.511   4.778   3.530
 4751TIP3    H114198   4.568   4.845   3.567
 4751TIP3    H214199   4.489   4.811   3.443
 4752TIP3   OH214200   7.064   5.712   2.590
 4752TIP3    H114201   6.979   5.712   2.546
 4752TIP3    H214202   7.066   5.630   2.639
 4753TIP3   OH214203   5.413   4.888   0.286
 4753TIP3    H114204   5.458   4.803   0.286
 4753TIP3    H214205   5.479   4.950   0.257
 4754TIP3   OH214206   2.095   3.518   5.879
 4754TIP3    H114207   2.052   3.447   5.927
 4754TIP3    H214208   2.181   3.482   5.855
 4755TIP3   OH214209   5.259   1.712   4.196
 4755TIP3    H114210   5.347   1.730   4.162
 4755TIP3    H214211   5.241   1.785   4.255
 4756TIP3   OH214212   2.926   1.847   0.240
 4756TIP3    H114213   2.931   1.800   0.157
 4756TIP3    H214214   2.962   1.786   0.305
 4757TIP3   OH214215   4.280   3.274   6.431
 4757TIP3    H114216   4.347   3.238   6.489
 4757TIP3    H214217   4.309   3.364   6.413
 4758TIP3   OH214218   2.602   5.918   3.055
 4758TIP3    H114219   2.673   5.858   3.031
 4758TIP3    H214220   2.538   5.862   3.099
 4759TIP3   OH214221   3.784   5.592   0.741
 4759TIP3    H114222   3.767   5.525   0.807
 4759TIP3    H214223   3.697   5.614   0.707
 4760TIP3   OH214224   0.150   4.991   4.048
 4760TIP3    H114225   0.233   4.943   4.058
 4760TIP3    H214226   0.170   5.078   4.081
 4761TIP3   OH214227   3.457   7.460   4.972
 4761TIP3    H114228   3.548   7.444   4.998
 4761TIP3    H214229   3.443   7.403   4.896
 4762TIP3   OH214230   5.818   5.739   1.158
 4762TIP3    H114231   5.741   5.795   1.161
 4762TIP3    H214232   5.798   5.672   1.092
 4763TIP3   OH214233   5.272   0.582   1.384
 4763TIP3    H114234   5.349   0.637   1.371
 4763TIP3    H214235   5.261   0.577   1.479
 4764TIP3   OH214236   4.112   4.520   4.449
 4764TIP3    H114237   4.104   4.533   4.544
 4764TIP3    H214238   4.056   4.445   4.430
 4765TIP3   OH214239   7.436   5.501   6.155
 4765TIP3    H114240   7.428   5.512   6.250
 4765TIP3    H214241   7.473   5.584   6.124
 4766TIP3   OH214242   0.466   2.936   2.615
 4766TIP3    H114243   0.477   3.013   2.559
 4766TIP3    H214244   0.554   2.899   2.622
 4767TIP3   OH214245   7.788   1.431   1.086
 4767TIP3    H114246   7.725   1.359   1.093
 4767TIP3    H214247   7.871   1.387   1.065
 4768TIP3   OH214248   5.986   5.310   4.661
 4768TIP3    H114249   6.075   5.345   4.660
 4768TIP3    H214250   5.933   5.378   4.620
 4769TIP3   OH214251   0.537   6.937   4.181
 4769TIP3    H114252   0.510   6.886   4.104
 4769TIP3    H214253   0.596   6.879   4.229
 4770TIP3   OH214254   2.008   3.572   5.273
 4770TIP3    H114255   2.003   3.578   5.178
 4770TIP3    H214256   1.917   3.580   5.303
 4771TIP3   OH214257   4.708   4.383   0.622
 4771TIP3    H114258   4.639   4.317   0.631
 4771TIP3    H214259   4.726   4.410   0.712
 4772TIP3   OH214260  -0.057   1.435   1.961
 4772TIP3    H114261   0.013   1.387   1.918
 4772TIP3    H214262  -0.095   1.371   2.022
 4773TIP3   OH214263   3.572   4.983   4.676
 4773TIP3    H114264   3.579   5.061   4.730
 4773TIP3    H214265   3.564   4.911   4.738
 4774TIP3   OH214266   3.113   5.318   2.202
 4774TIP3    H114267   3.168   5.240   2.209
 4774TIP3    H214268   3.058   5.315   2.280
 4775TIP3   OH214269   1.799   5.292   4.113
 4775TIP3    H114270   1.822   5.201   4.094
 4775TIP3    H214271   1.710   5.301   4.079
 4776TIP3   OH214272   3.960   3.838   6.535
 4776TIP3    H114273   4.020   3.764   6.540
 4776TIP3    H214274   3.896   3.822   6.604
 4777TIP3   OH214275   1.775   5.888   2.877
 4777TIP3    H114276   1.702   5.921   2.930
 4777TIP3    H214277   1.803   5.963   2.825
 4778TIP3   OH214278   5.531   0.573   5.770
 4778TIP3    H114279   5.495   0.530   5.848
 4778TIP3    H214280   5.508   0.516   5.698
 4779TIP3   OH214281   0.929   7.672   2.173
 4779TIP3    H114282   1.002   7.730   2.154
 4779TIP3    H214283   0.855   7.731   2.187
 4780TIP3   OH214284   5.568   0.891   6.602
 4780TIP3    H114285   5.553   0.824   6.669
 4780TIP3    H214286   5.648   0.935   6.630
 4781TIP3   OH214287   1.431   6.314   2.767
 4781TIP3    H114288   1.427   6.223   2.738
 4781TIP3    H214289   1.416   6.365   2.688
 4782TIP3   OH214290   2.103   6.562   0.160
 4782TIP3    H114291   2.012   6.581   0.182
 4782TIP3    H214292   2.128   6.492   0.220
 4783TIP3   OH214293   2.973   3.534   5.420
 4783TIP3    H114294   2.883   3.514   5.446
 4783TIP3    H214295   2.994   3.466   5.356
 4784TIP3   OH214296   4.182   7.756   5.824
 4784TIP3    H114297   4.124   7.685   5.797
 4784TIP3    H214298   4.147   7.833   5.777
 4785TIP3   OH214299   6.431   4.434   4.222
 4785TIP3    H114300   6.422   4.424   4.317
 4785TIP3    H214301   6.519   4.402   4.203
 4786TIP3   OH214302   6.909   1.104   5.986
 4786TIP3    H114303   6.887   1.107   6.079
 4786TIP3    H214304   6.972   1.032   5.978
 4787TIP3   OH214305   1.705   5.580   1.987
 4787TIP3    H114306   1.763   5.600   1.914
 4787TIP3    H214307   1.738   5.497   2.022
 4788TIP3   OH214308   5.838   4.597   5.199
 4788TIP3    H114309   5.868   4.506   5.197
 4788TIP3    H214310   5.751   4.592   5.239
 4789TIP3   OH214311   6.694   2.350   3.438
 4789TIP3    H114312   6.718   2.403   3.362
 4789TIP3    H214313   6.739   2.266   3.423
 4790TIP3   OH214314   0.942   0.289   4.113
 4790TIP3    H114315   0.982   0.364   4.070
 4790TIP3    H214316   1.010   0.256   4.172
 4791TIP3   OH214317   3.317   3.592   6.740
 4791TIP3    H114318   3.287   3.670   6.786
 4791TIP3    H214319   3.329   3.620   6.649
 4792TIP3   OH214320   3.557   4.388   5.115
 4792TIP3    H114321   3.642   4.428   5.132
 4792TIP3    H214322   3.565   4.350   5.028
 4793TIP3   OH214323   5.093   6.417   2.009
 4793TIP3    H114324   5.011   6.454   2.042
 4793TIP3    H214325   5.067   6.333   1.970
 4794TIP3   OH214326   1.395   3.472   6.041
 4794TIP3    H114327   1.354   3.420   5.972
 4794TIP3    H214328   1.365   3.431   6.122
 4795TIP3   OH214329   4.282   0.367   4.235
 4795TIP3    H114330   4.265   0.461   4.224
 4795TIP3    H214331   4.247   0.327   4.156
 4796TIP3   OH214332   2.772   4.331   5.249
 4796TIP3    H114333   2.779   4.254   5.304
 4796TIP3    H214334   2.783   4.298   5.159
 4797TIP3   OH214335   6.469   5.490   2.732
 4797TIP3    H114336   6.483   5.445   2.649
 4797TIP3    H214337   6.395   5.549   2.715
 4798TIP3   OH214338   3.986   1.842   3.381
 4798TIP3    H114339   4.013   1.780   3.313
 4798TIP3    H214340   4.064   1.853   3.436
 4799TIP3   OH214341   4.948   6.864   0.125
 4799TIP3    H114342   4.950   6.908   0.040
 4799TIP3    H214343   4.876   6.801   0.118
 4800TIP3   OH214344   3.717   0.865   0.439
 4800TIP3    H114345   3.653   0.924   0.480
 4800TIP3    H214346   3.716   0.787   0.493
 4801TIP3   OH214347   5.363   4.091   2.083
 4801TIP3    H114348   5.416   4.015   2.060
 4801TIP3    H214349   5.285   4.055   2.124
 4802TIP3   OH214350   1.296   2.482   0.767
 4802TIP3    H114351   1.361   2.412   0.774
 4802TIP3    H214352   1.336   2.546   0.709
 4803TIP3   OH214353   5.244   5.062   6.675
 4803TIP3    H114354   5.157   5.092   6.702
 4803TIP3    H214355   5.232   5.032   6.585
 4804TIP3   OH214356   7.031   0.387   2.778
 4804TIP3    H114357   7.046   0.371   2.685
 4804TIP3    H214358   7.117   0.379   2.818
 4805TIP3   OH214359   1.013   0.543   5.460
 4805TIP3    H114360   1.086   0.548   5.523
 4805TIP3    H214361   0.952   0.610   5.489
 4806TIP3   OH214362   7.282   3.734   6.721
 4806TIP3    H114363   7.255   3.657   6.671
 4806TIP3    H214364   7.376   3.742   6.703
 4807TIP3   OH214365   7.361   7.055   5.992
 4807TIP3    H114366   7.404   6.970   5.993
 4807TIP3    H214367   7.366   7.086   6.082
 4808TIP3   OH214368   4.548   5.973   5.796
 4808TIP3    H114369   4.580   5.899   5.744
 4808TIP3    H214370   4.485   6.017   5.739
 4809TIP3   OH214371   5.229   3.798   6.184
 4809TIP3    H114372   5.282   3.865   6.142
 4809TIP3    H214373   5.256   3.801   6.276
 4810TIP3   OH214374   1.234   6.235   0.939
 4810TIP3    H114375   1.248   6.222   1.033
 4810TIP3    H214376   1.312   6.281   0.909
 4811TIP3   OH214377   4.574   0.526   2.100
 4811TIP3    H114378   4.496   0.471   2.100
 4811TIP3    H214379   4.561   0.587   2.028
 4812TIP3   OH214380   6.448   6.821   4.309
 4812TIP3    H114381   6.529   6.807   4.260
 4812TIP3    H214382   6.476   6.845   4.397
 4813TIP3   OH214383   5.948   1.954   4.613
 4813TIP3    H114384   5.946   2.049   4.604
 4813TIP3    H214385   6.014   1.938   4.681
 4814TIP3   OH214386   2.751   2.486   3.290
 4814TIP3    H114387   2.742   2.476   3.385
 4814TIP3    H214388   2.676   2.540   3.264
 4815TIP3   OH214389   0.677   2.420   6.263
 4815TIP3    H114390   0.601   2.362   6.256
 4815TIP3    H214391   0.647   2.492   6.319
 4816TIP3   OH214392   1.712   7.382   2.790
 4816TIP3    H114393   1.634   7.345   2.831
 4816TIP3    H214394   1.751   7.436   2.859
 4817TIP3   OH214395   0.631   0.340   2.803
 4817TIP3    H114396   0.633   0.302   2.891
 4817TIP3    H214397   0.579   0.419   2.812
 4818TIP3   OH214398   3.220   7.041   4.046
 4818TIP3    H114399   3.185   7.073   4.129
 4818TIP3    H214400   3.165   6.965   4.024
 4819TIP3   OH214401   0.522   0.752   0.122
 4819TIP3    H114402   0.457   0.810   0.162
 4819TIP3    H214403   0.513   0.670   0.171
 4820TIP3   OH214404   7.693   6.024   6.396
 4820TIP3    H114405   7.645   6.061   6.470
 4820TIP3    H214406   7.649   6.058   6.318
 4821TIP3   OH214407   4.666   4.478   5.862
 4821TIP3    H114408   4.618   4.418   5.919
 4821TIP3    H214409   4.728   4.422   5.815
 4822TIP3   OH214410   5.495   0.281   6.099
 4822TIP3    H114411   5.488   0.233   6.016
 4822TIP3    H214412   5.457   0.222   6.164
 4823TIP3   OH214413   5.677   2.754   3.609
 4823TIP3    H114414   5.766   2.720   3.617
 4823TIP3    H214415   5.645   2.758   3.699
 4824TIP3   OH214416   2.679   4.686   0.220
 4824TIP3    H114417   2.669   4.592   0.203
 4824TIP3    H214418   2.769   4.705   0.196
 4825TIP3   OH214419   2.684   3.037   3.168
 4825TIP3    H114420   2.673   3.025   3.073
 4825TIP3    H214421   2.774   3.011   3.185
 4826TIP3   OH214422   0.994   0.114   3.772
 4826TIP3    H114423   1.006   0.023   3.801
 4826TIP3    H214424   0.976   0.163   3.853
 4827TIP3   OH214425   4.995   5.945   2.271
 4827TIP3    H114426   4.931   6.017   2.274
 4827TIP3    H214427   4.993   5.908   2.359
 4828TIP3   OH214428   5.770   2.238   3.136
 4828TIP3    H114429   5.735   2.306   3.194
 4828TIP3    H214430   5.821   2.181   3.194
 4829TIP3   OH214431   7.810   0.623   0.348
 4829TIP3    H114432   7.871   0.551   0.361
 4829TIP3    H214433   7.857   0.683   0.290
 4830TIP3   OH214434   3.932   0.954   3.743
 4830TIP3    H114435   3.850   0.907   3.761
 4830TIP3    H214436   3.951   0.934   3.652
 4831TIP3   OH214437   4.731   5.483   2.192
 4831TIP3    H114438   4.751   5.403   2.144
 4831TIP3    H214439   4.639   5.501   2.172
 4832TIP3   OH214440   4.483   6.865   1.810
 4832TIP3    H114441   4.545   6.935   1.792
 4832TIP3    H214442   4.479   6.815   1.728
 4833TIP3   OH214443   3.536   4.159   2.529
 4833TIP3    H114444   3.619   4.198   2.501
 4833TIP3    H214445   3.469   4.207   2.480
 4834TIP3   OH214446   6.908   7.587   1.013
 4834TIP3    H114447   6.961   7.609   0.937
 4834TIP3    H214448   6.905   7.668   1.065
 4835TIP3   OH214449   7.701   1.216   2.150
 4835TIP3    H114450   7.645   1.272   2.096
 4835TIP3    H214451   7.778   1.199   2.095
 4836TIP3   OH214452   7.681   2.475   4.055
 4836TIP3    H114453   7.616   2.545   4.060
 4836TIP3    H214454   7.765   2.521   4.048
 4837TIP3   OH214455   6.639   4.993   6.719
 4837TIP3    H114456   6.703   4.946   6.666
 4837TIP3    H214457   6.663   4.974   6.809
 4838TIP3   OH214458   5.864   1.686   5.623
 4838TIP3    H114459   5.879   1.623   5.553
 4838TIP3    H214460   5.827   1.634   5.694
 4839TIP3   OH214461   1.748   6.522   1.618
 4839TIP3    H114462   1.717   6.611   1.634
 4839TIP3    H214463   1.745   6.480   1.705
 4840TIP3   OH214464   2.086   1.341   6.204
 4840TIP3    H114465   2.011   1.372   6.254
 4840TIP3    H214466   2.076   1.246   6.200
 4841TIP3   OH214467   3.522   5.289   0.982
 4841TIP3    H114468   3.586   5.283   0.911
 4841TIP3    H214469   3.445   5.329   0.942
 4842TIP3   OH214470   3.128   1.938   3.130
 4842TIP3    H114471   3.223   1.940   3.129
 4842TIP3    H214472   3.106   1.897   3.214
 4843TIP3   OH214473   1.002   6.686   2.552
 4843TIP3    H114474   0.959   6.664   2.469
 4843TIP3    H214475   1.012   6.602   2.597
 4844TIP3   OH214476   4.595   1.743   0.176
 4844TIP3    H114477   4.630   1.796   0.248
 4844TIP3    H214478   4.655   1.760   0.103
 4845TIP3   OH214479   8.164   1.287   5.191
 4845TIP3    H114480   8.222   1.242   5.129
 4845TIP3    H214481   8.099   1.330   5.136
 4846TIP3   OH214482   6.897   4.416   1.870
 4846TIP3    H114483   6.957   4.434   1.798
 4846TIP3    H214484   6.812   4.403   1.828
 4847TIP3   OH214485   5.181   4.625   0.819
 4847TIP3    H114486   5.112   4.683   0.851
 4847TIP3    H214487   5.142   4.538   0.821
 4848TIP3   OH214488   4.022   2.744   5.242
 4848TIP3    H114489   4.055   2.796   5.169
 4848TIP3    H214490   3.928   2.762   5.244
 4849TIP3   OH214491   4.339   2.816   6.421
 4849TIP3    H114492   4.434   2.810   6.410
 4849TIP3    H214493   4.306   2.735   6.383
 4850TIP3   OH214494   6.895   1.729   3.147
 4850TIP3    H114495   6.877   1.656   3.207
 4850TIP3    H214496   6.817   1.732   3.091
 4851TIP3   OH214497   3.487   4.497   2.397
 4851TIP3    H114498   3.563   4.450   2.363
 4851TIP3    H214499   3.444   4.434   2.456
 4852TIP3   OH214500   6.122   1.668   0.902
 4852TIP3    H114501   6.027   1.666   0.890
 4852TIP3    H214502   6.143   1.761   0.913
 4853TIP3   OH214503   1.079   2.867   6.651
 4853TIP3    H114504   1.120   2.888   6.567
 4853TIP3    H214505   1.088   2.946   6.703
 4854TIP3   OH214506   5.182   0.231   3.056
 4854TIP3    H114507   5.108   0.176   3.084
 4854TIP3    H214508   5.228   0.179   2.990
 4855TIP3   OH214509   6.246   3.047   3.532
 4855TIP3    H114510   6.166   3.043   3.583
 4855TIP3    H214511   6.216   3.049   3.441
 4856TIP3   OH214512   8.148   3.131   2.665
 4856TIP3    H114513   8.114   3.063   2.607
 4856TIP3    H214514   8.200   3.084   2.730
 4857TIP3   OH214515   1.978   1.774   4.507
 4857TIP3    H114516   2.065   1.809   4.526
 4857TIP3    H214517   1.943   1.747   4.592
 4858TIP3   OH214518   0.574   2.451   5.319
 4858TIP3    H114519   0.651   2.439   5.375
 4858TIP3    H214520   0.501   2.418   5.372
 4859TIP3   OH214521   4.659   6.524   4.386
 4859TIP3    H114522   4.615   6.559   4.463
 4859TIP3    H214523   4.705   6.447   4.418
 4860TIP3   OH214524   1.221   6.056   1.917
 4860TIP3    H114525   1.153   5.989   1.917
 4860TIP3    H214526   1.262   6.049   2.003
 4861TIP3   OH214527   4.568   0.986   0.977
 4861TIP3    H114528   4.654   0.974   0.936
 4861TIP3    H214529   4.505   0.967   0.907
 4862TIP3   OH214530   0.809   5.556   1.526
 4862TIP3    H114531   0.856   5.479   1.493
 4862TIP3    H214532   0.768   5.525   1.607
 4863TIP3   OH214533   6.027   5.832   5.604
 4863TIP3    H114534   6.002   5.820   5.696
 4863TIP3    H214535   6.062   5.921   5.600
 4864TIP3   OH214536   3.240   2.585   3.704
 4864TIP3    H114537   3.210   2.532   3.779
 4864TIP3    H214538   3.327   2.616   3.730
 4865TIP3   OH214539   2.297   7.820   4.867
 4865TIP3    H114540   2.218   7.847   4.820
 4865TIP3    H214541   2.335   7.751   4.813
 4866TIP3   OH214542   6.068   6.148   4.669
 4866TIP3    H114543   6.128   6.133   4.742
 4866TIP3    H214544   6.104   6.224   4.623
 4867TIP3   OH214545   1.797   4.257   5.600
 4867TIP3    H114546   1.765   4.181   5.649
 4867TIP3    H214547   1.750   4.253   5.517
 4868TIP3   OH214548   1.641   1.204   0.113
 4868TIP3    H114549   1.711   1.197   0.048
 4868TIP3    H214550   1.560   1.187   0.064
 4869TIP3   OH214551   3.785   2.438   4.964
 4869TIP3    H114552   3.811   2.350   4.992
 4869TIP3    H214553   3.691   2.430   4.945
 4870TIP3   OH214554   4.929   1.491   3.536
 4870TIP3    H114555   4.903   1.413   3.487
 4870TIP3    H214556   4.899   1.564   3.483
 4871TIP3   OH214557   4.133   7.793   2.167
 4871TIP3    H114558   4.112   7.774   2.076
 4871TIP3    H214559   4.079   7.869   2.188
 4872TIP3   OH214560   5.369   5.271   1.209
 4872TIP3    H114561   5.324   5.231   1.284
 4872TIP3    H214562   5.412   5.197   1.166
 4873TIP3   OH214563   2.517   3.476   0.290
 4873TIP3    H114564   2.443   3.532   0.265
 4873TIP3    H214565   2.587   3.538   0.313
 4874TIP3   OH214566   2.830   0.501   0.451
 4874TIP3    H114567   2.813   0.410   0.425
 4874TIP3    H214568   2.844   0.497   0.545
 4875TIP3   OH214569   6.935   4.676   2.162
 4875TIP3    H114570   7.025   4.705   2.151
 4875TIP3    H214571   6.888   4.754   2.193
 4876TIP3   OH214572   7.304   3.980   5.247
 4876TIP3    H114573   7.296   4.061   5.297
 4876TIP3    H214574   7.229   3.981   5.188
 4877TIP3   OH214575   1.716   2.114   5.526
 4877TIP3    H114576   1.789   2.104   5.587
 4877TIP3    H214577   1.681   2.025   5.516
 4878TIP3   OH214578   6.322   2.812   5.738
 4878TIP3    H114579   6.356   2.744   5.680
 4878TIP3    H214580   6.391   2.824   5.804
 4879TIP3   OH214581   7.564   6.236   5.012
 4879TIP3    H114582   7.617   6.161   5.039
 4879TIP3    H214583   7.612   6.312   5.045
 4880TIP3   OH214584   3.047   1.700   6.081
 4880TIP3    H114585   3.079   1.790   6.087
 4880TIP3    H214586   2.965   1.707   6.032
 4881TIP3   OH214587   7.349   7.539   3.105
 4881TIP3    H114588   7.376   7.486   3.030
 4881TIP3    H214589   7.430   7.552   3.155
 4882TIP3   OH214590   1.022   2.521   0.232
 4882TIP3    H114591   0.987   2.557   0.151
 4882TIP3    H214592   0.962   2.551   0.301
 4883TIP3   OH214593   3.229   2.448   3.926
 4883TIP3    H114594   3.149   2.471   3.973
 4883TIP3    H214595   3.299   2.460   3.990
 4884TIP3   OH214596   1.267   0.883   3.561
 4884TIP3    H114597   1.310   0.964   3.536
 4884TIP3    H214598   1.320   0.814   3.521
 4885TIP3   OH214599   6.729   3.178   0.183
 4885TIP3    H114600   6.735   3.263   0.228
 4885TIP3    H214601   6.810   3.133   0.205
 4886TIP3   OH214602   7.447   0.774   0.296
 4886TIP3    H114603   7.401   0.798   0.376
 4886TIP3    H214604   7.483   0.687   0.314
 4887TIP3   OH214605   6.560   4.366   2.071
 4887TIP3    H114606   6.521   4.327   1.992
 4887TIP3    H214607   6.485   4.382   2.129
 4888TIP3   OH214608   3.533   3.865   2.712
 4888TIP3    H114609   3.544   3.775   2.743
 4888TIP3    H214610   3.556   3.920   2.787
 4889TIP3   OH214611   7.735   7.348   6.324
 4889TIP3    H114612   7.798   7.379   6.389
 4889TIP3    H214613   7.697   7.428   6.288
 4890TIP3   OH214614   6.794   7.681   6.122
 4890TIP3    H114615   6.811   7.760   6.072
 4890TIP3    H214616   6.701   7.686   6.143
 4891TIP3   OH214617   3.440   6.777   6.438
 4891TIP3    H114618   3.479   6.811   6.357
 4891TIP3    H214619   3.351   6.754   6.414
 4892TIP3   OH214620   7.839   0.830   1.600
 4892TIP3    H114621   7.911   0.789   1.648
 4892TIP3    H214622   7.783   0.868   1.668
 4893TIP3   OH214623   1.752   0.066   2.770
 4893TIP3    H114624   1.679   0.093   2.825
 4893TIP3    H214625   1.719   0.071   2.681
 4894TIP3   OH214626   6.388   0.522   1.438
 4894TIP3    H114627   6.395   0.566   1.523
 4894TIP3    H214628   6.416   0.588   1.374
 4895TIP3   OH214629   0.786   7.146   0.112
 4895TIP3    H114630   0.694   7.148   0.140
 4895TIP3    H214631   0.833   7.111   0.188
 4896TIP3   OH214632   2.186   7.015   3.589
 4896TIP3    H114633   2.210   7.092   3.537
 4896TIP3    H214634   2.245   7.017   3.665
 4897TIP3   OH214635   6.181   1.710   2.740
 4897TIP3    H114636   6.120   1.637   2.746
 4897TIP3    H214637   6.126   1.788   2.742
 4898TIP3   OH214638   1.614   7.654   1.280
 4898TIP3    H114639   1.633   7.629   1.189
 4898TIP3    H214640   1.522   7.634   1.292
 4899TIP3   OH214641   6.970   3.584   6.667
 4899TIP3    H114642   6.952   3.665   6.619
 4899TIP3    H214643   7.058   3.559   6.638
 4900TIP3   OH214644   1.047   2.111   3.374
 4900TIP3    H114645   1.103   2.056   3.319
 4900TIP3    H214646   1.074   2.092   3.464
 4901TIP3   OH214647   5.278   3.129   2.884
 4901TIP3    H114648   5.199   3.178   2.909
 4901TIP3    H214649   5.350   3.190   2.899
 4902TIP3   OH214650   6.259   5.217   5.140
 4902TIP3    H114651   6.214   5.301   5.148
 4902TIP3    H214652   6.214   5.160   5.202
 4903TIP3   OH214653   6.124   2.076   4.116
 4903TIP3    H114654   6.133   2.038   4.029
 4903TIP3    H214655   6.057   2.023   4.160
 4904TIP3   OH214656   3.623   1.431   6.530
 4904TIP3    H114657   3.646   1.514   6.570
 4904TIP3    H214658   3.549   1.451   6.473
 4905TIP3   OH214659   6.429   5.279   5.879
 4905TIP3    H114660   6.447   5.286   5.785
 4905TIP3    H214661   6.398   5.190   5.891
 4906TIP3   OH214662   4.189   0.306   4.500
 4906TIP3    H114663   4.251   0.365   4.545
 4906TIP3    H214664   4.212   0.312   4.408
 4907TIP3   OH214665   6.209   4.318   0.666
 4907TIP3    H114666   6.133   4.324   0.724
 4907TIP3    H214667   6.172   4.312   0.578
 4908TIP3   OH214668   3.897   0.847   4.282
 4908TIP3    H114669   3.841   0.912   4.323
 4908TIP3    H214670   3.969   0.835   4.344
 4909TIP3   OH214671   5.750   7.642   4.175
 4909TIP3    H114672   5.725   7.647   4.083
 4909TIP3    H214673   5.667   7.646   4.222
 4910TIP3   OH214674   2.577   2.764   1.612
 4910TIP3    H114675   2.554   2.674   1.636
 4910TIP3    H214676   2.629   2.796   1.686
 4911TIP3   OH214677   4.922   6.871   1.196
 4911TIP3    H114678   4.875   6.791   1.218
 4911TIP3    H214679   5.014   6.847   1.204
 4912TIP3   OH214680   4.905   0.487   4.612
 4912TIP3    H114681   4.934   0.454   4.697
 4912TIP3    H214682   4.942   0.575   4.607
 4913TIP3   OH214683   3.535   5.504   1.229
 4913TIP3    H114684   3.558   5.511   1.321
 4913TIP3    H214685   3.469   5.435   1.225
 4914TIP3   OH214686   3.537   6.466   0.549
 4914TIP3    H114687   3.631   6.486   0.548
 4914TIP3    H214688   3.532   6.373   0.525
 4915TIP3   OH214689   6.042   4.630   5.374
 4915TIP3    H114690   6.012   4.564   5.436
 4915TIP3    H214691   5.974   4.634   5.307
 4916TIP3   OH214692   5.628   3.705   2.610
 4916TIP3    H114693   5.646   3.624   2.562
 4916TIP3    H214694   5.593   3.676   2.694
 4917TIP3   OH214695   0.873   3.419   4.395
 4917TIP3    H114696   0.794   3.403   4.342
 4917TIP3    H214697   0.848   3.392   4.483
 4918TIP3   OH214698   4.632   5.819   0.876
 4918TIP3    H114699   4.655   5.884   0.809
 4918TIP3    H214700   4.713   5.807   0.925
 4919TIP3   OH214701   3.018   4.471   0.069
 4919TIP3    H114702   3.039   4.482   0.162
 4919TIP3    H214703   3.083   4.525   0.023
 4920TIP3   OH214704   0.407   6.083   3.543
 4920TIP3    H114705   0.489   6.107   3.587
 4920TIP3    H214706   0.377   6.164   3.502
 4921TIP3   OH214707   4.162   3.460   1.175
 4921TIP3    H114708   4.111   3.420   1.245
 4921TIP3    H214709   4.207   3.386   1.134
 4922TIP3   OH214710   6.024   4.823   5.570
 4922TIP3    H114711   6.104   4.871   5.547
 4922TIP3    H214712   6.009   4.765   5.495
 4923TIP3   OH214713   0.129   6.138   0.351
 4923TIP3    H114714   0.170   6.191   0.420
 4923TIP3    H214715   0.107   6.202   0.283
 4924TIP3   OH214716   3.048   6.720   3.043
 4924TIP3    H114717   3.085   6.803   3.073
 4924TIP3    H214718   3.094   6.653   3.093
 4925TIP3   OH214719   6.049   5.126   2.879
 4925TIP3    H114720   6.124   5.135   2.820
 4925TIP3    H214721   6.057   5.038   2.915
 4926TIP3   OH214722   7.203   0.491   6.636
 4926TIP3    H114723   7.252   0.513   6.557
 4926TIP3    H214724   7.198   0.573   6.685
 4927TIP3   OH214725   7.077   4.045   5.100
 4927TIP3    H114726   7.006   3.988   5.129
 4927TIP3    H214727   7.034   4.128   5.079
 4928TIP3   OH214728   3.169   7.621   1.046
 4928TIP3    H114729   3.251   7.668   1.028
 4928TIP3    H214730   3.101   7.677   1.009
 4929TIP3   OH214731   4.949   2.179   5.766
 4929TIP3    H114732   4.985   2.169   5.678
 4929TIP3    H214733   4.987   2.260   5.799
 4930TIP3   OH214734   3.775   5.454   4.869
 4930TIP3    H114735   3.725   5.404   4.933
 4930TIP3    H214736   3.735   5.541   4.871
 4931TIP3   OH214737   2.518   3.543   6.052
 4931TIP3    H114738   2.604   3.586   6.051
 4931TIP3    H214739   2.478   3.567   5.968
 4932TIP3   OH214740   5.647   0.162   3.679
 4932TIP3    H114741   5.675   0.108   3.605
 4932TIP3    H214742   5.559   0.132   3.699
 4933TIP3   OH214743   2.567   6.970   3.817
 4933TIP3    H114744   2.637   7.035   3.812
 4933TIP3    H214745   2.576   6.932   3.904
 4934TIP3   OH214746   4.601   6.018   0.628
 4934TIP3    H114747   4.623   5.936   0.584
 4934TIP3    H214748   4.512   6.038   0.600
 4935TIP3   OH214749   1.758   2.954   0.088
 4935TIP3    H114750   1.770   2.918   0.000
 4935TIP3    H214751   1.809   3.035   0.088
 4936TIP3   OH214752   1.574   3.716   2.084
 4936TIP3    H114753   1.592   3.688   2.174
 4936TIP3    H214754   1.654   3.761   2.057
 4937TIP3   OH214755   0.592   6.630   5.309
 4937TIP3    H114756   0.674   6.680   5.303
 4937TIP3    H214757   0.611   6.560   5.371
 4938TIP3   OH214758   6.869   2.974   5.638
 4938TIP3    H114759   6.877   3.004   5.728
 4938TIP3    H214760   6.836   3.050   5.590
 4939TIP3   OH214761   2.555   4.216   4.972
 4939TIP3    H114762   2.643   4.209   5.009
 4939TIP3    H214763   2.568   4.220   4.877
 4940TIP3   OH214764   7.360   2.163   5.373
 4940TIP3    H114765   7.409   2.244   5.387
 4940TIP3    H214766   7.274   2.193   5.343
 4941TIP3   OH214767   4.652   2.995   4.723
 4941TIP3    H114768   4.606   2.938   4.784
 4941TIP3    H214769   4.738   3.009   4.764
 4942TIP3   OH214770   7.820   6.445   1.649
 4942TIP3    H114771   7.897   6.500   1.665
 4942TIP3    H214772   7.754   6.477   1.710
 4943TIP3   OH214773   0.110   6.653   2.760
 4943TIP3    H114774   0.170   6.628   2.830
 4943TIP3    H214775   0.035   6.594   2.769
 4944TIP3   OH214776   8.083   6.672   1.035
 4944TIP3    H114777   8.126   6.747   1.076
 4944TIP3    H214778   7.990   6.685   1.051
 4945TIP3   OH214779   4.226   0.037   1.480
 4945TIP3    H114780   4.201   0.074   1.565
 4945TIP3    H214781   4.216   0.109   1.418
 4946TIP3   OH214782   7.819   2.512   5.025
 4946TIP3    H114783   7.807   2.426   4.984
 4946TIP3    H214784   7.740   2.561   5.003
 4947TIP3   OH214785   2.712   5.949   0.092
 4947TIP3    H114786   2.709   5.997   0.175
 4947TIP3    H214787   2.800   5.967   0.057
 4948TIP3   OH214788   3.140   5.241   1.817
 4948TIP3    H114789   3.072   5.194   1.769
 4948TIP3    H214790   3.168   5.180   1.885
 4949TIP3   OH214791   1.200   5.273   3.642
 4949TIP3    H114792   1.108   5.256   3.661
 4949TIP3    H214793   1.198   5.345   3.579
 4950TIP3   OH214794   3.517   0.306   3.148
 4950TIP3    H114795   3.487   0.397   3.147
 4950TIP3    H214796   3.549   0.290   3.060
 4951TIP3   OH214797   5.271   0.595   1.648
 4951TIP3    H114798   5.339   0.558   1.704
 4951TIP3    H214799   5.211   0.638   1.709
 4952TIP3   OH214800   4.996   5.088   0.448
 4952TIP3    H114801   4.940   5.112   0.522
 4952TIP3    H214802   4.943   5.104   0.370
 4953TIP3   OH214803   0.236   3.218   0.178
 4953TIP3    H114804   0.188   3.146   0.217
 4953TIP3    H214805   0.304   3.175   0.125
 4954TIP3   OH214806   7.150   0.995   3.341
 4954TIP3    H114807   7.202   0.954   3.410
 4954TIP3    H214808   7.121   0.922   3.287
 4955TIP3   OH214809   2.342   1.123   2.594
 4955TIP3    H114810   2.333   1.079   2.509
 4955TIP3    H214811   2.276   1.192   2.592
 4956TIP3   OH214812   3.751   6.847   6.580
 4956TIP3    H114813   3.658   6.842   6.561
 4956TIP3    H214814   3.787   6.763   6.550
 4957TIP3   OH214815   0.578   0.448   1.049
 4957TIP3    H114816   0.673   0.457   1.038
 4957TIP3    H214817   0.567   0.411   1.136
 4958TIP3   OH214818   4.108   2.328   0.957
 4958TIP3    H114819   4.108   2.236   0.983
 4958TIP3    H214820   4.109   2.377   1.039
 4959TIP3   OH214821   4.392   5.482   1.157
 4959TIP3    H114822   4.356   5.408   1.207
 4959TIP3    H214823   4.440   5.440   1.085
 4960TIP3   OH214824   1.422   2.241   0.794
 4960TIP3    H114825   1.349   2.199   0.750
 4960TIP3    H214826   1.499   2.218   0.741
 4961TIP3   OH214827   6.310   7.353   5.982
 4961TIP3    H114828   6.392   7.402   5.986
 4961TIP3    H214829   6.243   7.418   6.003
 4962TIP3   OH214830   1.291   1.840   0.758
 4962TIP3    H114831   1.247   1.926   0.756
 4962TIP3    H214832   1.220   1.778   0.772
 4963TIP3   OH214833   6.203   5.988   3.315
 4963TIP3    H114834   6.162   5.928   3.252
 4963TIP3    H214835   6.297   5.982   3.295
 4964TIP3   OH214836   8.089   1.932   6.548
 4964TIP3    H114837   8.042   2.015   6.540
 4964TIP3    H214838   8.150   1.947   6.621
 4965TIP3   OH214839   5.556   3.385   1.872
 4965TIP3    H114840   5.505   3.358   1.948
 4965TIP3    H214841   5.612   3.310   1.852
 4966TIP3   OH214842   4.320   1.141   2.396
 4966TIP3    H114843   4.319   1.064   2.340
 4966TIP3    H214844   4.411   1.151   2.423
 4967TIP3   OH214845   4.869   0.586   3.738
 4967TIP3    H114846   4.776   0.592   3.716
 4967TIP3    H214847   4.908   0.666   3.702
 4968TIP3   OH214848   6.082   7.159   6.624
 4968TIP3    H114849   6.140   7.097   6.581
 4968TIP3    H214850   6.059   7.223   6.556
 4969TIP3   OH214851   7.927   0.449   5.181
 4969TIP3    H114852   7.835   0.475   5.178
 4969TIP3    H214853   7.945   0.435   5.274
 4970TIP3   OH214854   1.042   0.324   0.117
 4970TIP3    H114855   1.068   0.405   0.071
 4970TIP3    H214856   1.026   0.261   0.047
 4971TIP3   OH214857   4.815   0.987   0.517
 4971TIP3    H114858   4.779   0.935   0.589
 4971TIP3    H214859   4.902   0.949   0.501
 4972TIP3   OH214860   3.873   4.975   2.187
 4972TIP3    H114861   3.809   5.040   2.216
 4972TIP3    H214862   3.839   4.943   2.103
 4973TIP3   OH214863   0.667   7.531   1.634
 4973TIP3    H114864   0.620   7.568   1.559
 4973TIP3    H214865   0.710   7.453   1.599
 4974TIP3   OH214866   0.721   1.776   1.216
 4974TIP3    H114867   0.754   1.866   1.222
 4974TIP3    H214868   0.629   1.783   1.241
 4975TIP3   OH214869   3.576   5.456   3.922
 4975TIP3    H114870   3.532   5.431   3.841
 4975TIP3    H214871   3.560   5.550   3.930
 4976TIP3   OH214872   6.794   6.129   5.277
 4976TIP3    H114873   6.716   6.128   5.221
 4976TIP3    H214874   6.849   6.198   5.240
 4977TIP3   OH214875   1.722   7.542   5.174
 4977TIP3    H114876   1.762   7.611   5.121
 4977TIP3    H214877   1.636   7.576   5.196
 4978TIP3   OH214878   5.504   4.643   1.609
 4978TIP3    H114879   5.582   4.604   1.570
 4978TIP3    H214880   5.431   4.598   1.568
 4979TIP3   OH214881   7.231   6.147   0.741
 4979TIP3    H114882   7.279   6.171   0.820
 4979TIP3    H214883   7.161   6.212   0.735
 4980TIP3   OH214884   4.866   7.273   2.322
 4980TIP3    H114885   4.834   7.185   2.301
 4980TIP3    H214886   4.792   7.315   2.367
 4981TIP3   OH214887   2.055   5.999   6.464
 4981TIP3    H114888   2.145   5.969   6.447
 4981TIP3    H214889   2.025   5.945   6.538
 4982TIP3   OH214890   7.731   6.115   1.441
 4982TIP3    H114891   7.671   6.056   1.395
 4982TIP3    H214892   7.787   6.056   1.492
 4983TIP3   OH214893   0.882   3.481   6.205
 4983TIP3    H114894   0.808   3.439   6.249
 4983TIP3    H214895   0.922   3.412   6.152
 4984TIP3   OH214896   5.623   1.177   6.383
 4984TIP3    H114897   5.562   1.106   6.362
 4984TIP3    H214898   5.607   1.243   6.315
 4985TIP3   OH214899   0.482   3.860   6.367
 4985TIP3    H114900   0.407   3.807   6.338
 4985TIP3    H214901   0.541   3.861   6.292
 4986TIP3   OH214902   8.102   3.185   4.317
 4986TIP3    H114903   8.094   3.127   4.393
 4986TIP3    H214904   8.015   3.187   4.279
 4987TIP3   OH214905   1.078   2.993   0.790
 4987TIP3    H114906   1.019   2.919   0.777
 4987TIP3    H214907   1.099   2.990   0.883
 4988TIP3   OH214908   7.800   3.456   0.874
 4988TIP3    H114909   7.797   3.548   0.848
 4988TIP3    H214910   7.732   3.414   0.821
 4989TIP3   OH214911   1.041   6.974   1.321
 4989TIP3    H114912   1.122   7.019   1.343
 4989TIP3    H214913   0.975   7.012   1.379
 4990TIP3   OH214914   1.359   2.136   6.226
 4990TIP3    H114915   1.344   2.062   6.168
 4990TIP3    H214916   1.441   2.175   6.194
 4991TIP3   OH214917   3.104   1.641   6.685
 4991TIP3    H114918   3.143   1.574   6.629
 4991TIP3    H214919   3.169   1.655   6.754
 4992TIP3   OH214920   6.858   6.725   5.444
 4992TIP3    H114921   6.909   6.678   5.509
 4992TIP3    H214922   6.904   6.808   5.432
 4993TIP3   OH214923   5.097  -0.034   4.292
 4993TIP3    H114924   5.138   0.004   4.214
 4993TIP3    H214925   5.142   0.008   4.366
 4994TIP3   OH214926   1.617   1.979   4.557
 4994TIP3    H114927   1.606   1.891   4.520
 4994TIP3    H214928   1.624   2.037   4.481
 4995TIP3   OH214929   8.066   1.714   5.999
 4995TIP3    H114930   8.105   1.760   6.074
 4995TIP3    H214931   8.121   1.637   5.988
 4996TIP3   OH214932   6.481   0.747   1.641
 4996TIP3    H114933   6.560   0.781   1.601
 4996TIP3    H214934   6.411   0.806   1.613
 4997TIP3   OH214935   1.695   1.074   3.535
 4997TIP3    H114936   1.723   1.019   3.462
 4997TIP3    H214937   1.777   1.103   3.575
 4998TIP3   OH214938   2.488   1.688   1.111
 4998TIP3    H114939   2.504   1.657   1.022
 4998TIP3    H214940   2.511   1.781   1.109
 4999TIP3   OH214941   6.314   2.549   4.117
 4999TIP3    H114942   6.345   2.625   4.067
 4999TIP3    H214943   6.352   2.561   4.204
 5000TIP3   OH214944   5.890   0.719   4.678
 5000TIP3    H114945   5.880   0.725   4.773
 5000TIP3    H214946   5.874   0.809   4.648
 5001TIP3   OH214947   0.518   5.268   5.277
 5001TIP3    H114948   0.550   5.345   5.326
 5001TIP3    H214949   0.519   5.198   5.342
 5002TIP3   OH214950   0.162   1.036   0.779
 5002TIP3    H114951   0.113   1.076   0.851
 5002TIP3    H214952   0.164   1.103   0.711
 5003TIP3   OH214953   8.034   1.075   0.383
 5003TIP3    H114954   8.128   1.084   0.396
 5003TIP3    H214955   8.020   0.982   0.367
 5004TIP3   OH214956   2.716   6.691   6.249
 5004TIP3    H114957   2.708   6.786   6.254
 5004TIP3    H214958   2.807   6.674   6.273
 5005TIP3   OH214959   2.235   0.958   0.988
 5005TIP3    H114960   2.301   0.963   0.919
 5005TIP3    H214961   2.260   1.026   1.050
 5006TIP3   OH214962   3.176   1.456   0.443
 5006TIP3    H114963   3.164   1.378   0.498
 5006TIP3    H214964   3.269   1.477   0.451
 5007TIP3   OH214965   1.144   4.286   5.104
 5007TIP3    H114966   1.210   4.343   5.065
 5007TIP3    H214967   1.169   4.280   5.196
 5008TIP3   OH214968   3.402   2.025   4.037
 5008TIP3    H114969   3.363   2.016   4.124
 5008TIP3    H214970   3.495   2.038   4.053
 5009TIP3   OH214971   2.669   3.337   3.795
 5009TIP3    H114972   2.623   3.417   3.818
 5009TIP3    H214973   2.602   3.269   3.795
 5010TIP3   OH214974   8.140   6.704   4.694
 5010TIP3    H114975   8.103   6.736   4.611
 5010TIP3    H214976   8.076   6.731   4.760
 5011TIP3   OH214977   6.331   3.249   4.994
 5011TIP3    H114978   6.380   3.198   4.930
 5011TIP3    H214979   6.263   3.292   4.943
 5012TIP3   OH214980   7.386   0.363   1.056
 5012TIP3    H114981   7.416   0.287   1.005
 5012TIP3    H214982   7.435   0.357   1.138
 5013TIP3   OH214983   3.853   3.022   1.348
 5013TIP3    H114984   3.837   3.097   1.290
 5013TIP3    H214985   3.881   3.061   1.431
 5014TIP3   OH214986   2.952   5.851   4.187
 5014TIP3    H114987   2.933   5.758   4.196
 5014TIP3    H214988   2.880   5.895   4.233
 5015TIP3   OH214989   1.491   7.271   5.175
 5015TIP3    H114990   1.586   7.270   5.164
 5015TIP3    H214991   1.466   7.362   5.158
 5016TIP3   OH214992   2.804   1.242   6.540
 5016TIP3    H114993   2.852   1.171   6.583
 5016TIP3    H214994   2.775   1.204   6.457
 5017TIP3   OH214995   5.602   6.687   2.839
 5017TIP3    H114996   5.618   6.593   2.846
 5017TIP3    H214997   5.516   6.700   2.878
 5018TIP3   OH214998   4.594   4.109   5.413
 5018TIP3    H114999   4.508   4.076   5.441
 5018TIP3    H215000   4.651   4.032   5.416
 5019TIP3   OH215001   7.270   2.546   3.422
 5019TIP3    H115002   7.232   2.544   3.509
 5019TIP3    H215003   7.198   2.575   3.365
 5020TIP3   OH215004   1.949   4.618   1.049
 5020TIP3    H115005   1.963   4.524   1.059
 5020TIP3    H215006   1.861   4.633   1.083
 5021TIP3   OH215007   6.338   4.691   3.138
 5021TIP3    H115008   6.404   4.744   3.182
 5021TIP3    H215009   6.385   4.611   3.112
 5022TIP3   OH215010   3.452   0.213   3.558
 5022TIP3    H115011   3.523   0.169   3.511
 5022TIP3    H215012   3.497   0.279   3.611
 5023TIP3   OH215013   7.629   6.678   1.623
 5023TIP3    H115014   7.542   6.654   1.657
 5023TIP3    H215015   7.666   6.734   1.691
 5024TIP3   OH215016   7.593   1.580   3.145
 5024TIP3    H115017   7.579   1.541   3.231
 5024TIP3    H215018   7.556   1.516   3.084
 5025TIP3   OH215019   1.987   2.554   0.915
 5025TIP3    H115020   1.971   2.648   0.919
 5025TIP3    H215021   1.937   2.524   0.840
 5026TIP3   OH215022   7.456   2.523   3.090
 5026TIP3    H115023   7.490   2.571   3.015
 5026TIP3    H215024   7.381   2.576   3.120
 5027TIP3   OH215025   1.881   4.421   4.240
 5027TIP3    H115026   1.811   4.482   4.214
 5027TIP3    H215027   1.927   4.401   4.159
 5028TIP3   OH215028   3.813   4.197   4.653
 5028TIP3    H115029   3.811   4.241   4.568
 5028TIP3    H215030   3.787   4.107   4.634
 5029TIP3   OH215031   2.766   3.389   2.573
 5029TIP3    H115032   2.788   3.296   2.568
 5029TIP3    H215033   2.850   3.435   2.563
 5030TIP3   OH215034   7.287   6.089   5.174
 5030TIP3    H115035   7.333   6.047   5.101
 5030TIP3    H215036   7.210   6.131   5.133
 5031TIP3   OH215037   6.412   2.431   3.259
 5031TIP3    H115038   6.457   2.506   3.219
 5031TIP3    H215039   6.410   2.365   3.190
 5032TIP3   OH215040   3.490   7.498   3.541
 5032TIP3    H115041   3.457   7.504   3.630
 5032TIP3    H215042   3.442   7.566   3.492
 5033TIP3   OH215043   2.411   4.807   1.133
 5033TIP3    H115044   2.471   4.826   1.205
 5033TIP3    H215045   2.324   4.808   1.173
 5034TIP3   OH215046   1.322   2.508   1.760
 5034TIP3    H115047   1.260   2.442   1.793
 5034TIP3    H215048   1.318   2.499   1.665
 5035TIP3   OH215049   0.124   6.468   3.478
 5035TIP3    H115050   0.152   6.399   3.538
 5035TIP3    H215051   0.049   6.431   3.432
 5036TIP3   OH215052   1.793   2.968   6.360
 5036TIP3    H115053   1.816   3.008   6.444
 5036TIP3    H215054   1.722   3.023   6.326
 5037TIP3   OH215055   2.883   2.508   4.727
 5037TIP3    H115056   2.856   2.600   4.720
 5037TIP3    H215057   2.953   2.509   4.792
 5038TIP3   OH215058   5.444   1.566   0.715
 5038TIP3    H115059   5.421   1.477   0.686
 5038TIP3    H215060   5.408   1.622   0.647
 5039TIP3   OH215061   0.680   2.704   0.920
 5039TIP3    H115062   0.650   2.641   0.854
 5039TIP3    H215063   0.602   2.722   0.973
 5040TIP3   OH215064   2.403   5.846   4.531
 5040TIP3    H115065   2.436   5.915   4.589
 5040TIP3    H215066   2.471   5.835   4.465
 5041TIP3   OH215067   0.342   1.268   3.479
 5041TIP3    H115068   0.363   1.321   3.402
 5041TIP3    H215069   0.295   1.328   3.537
 5042TIP3   OH215070   3.270   2.897   3.231
 5042TIP3    H115071   3.295   2.897   3.324
 5042TIP3    H215072   3.176   2.916   3.232
 5043TIP3   OH215073   5.926   6.897   2.381
 5043TIP3    H115074   5.921   6.955   2.305
 5043TIP3    H215075   5.862   6.934   2.443
 5044TIP3   OH215076   7.842   0.931   0.698
 5044TIP3    H115077   7.865   0.854   0.750
 5044TIP3    H215078   7.794   0.897   0.623
 5045TIP3   OH215079   7.308   1.084   3.604
 5045TIP3    H115080   7.400   1.110   3.594
 5045TIP3    H215081   7.262   1.165   3.625
 5046TIP3   OH215082   7.500   6.656   1.266
 5046TIP3    H115083   7.485   6.562   1.274
 5046TIP3    H215084   7.591   6.668   1.295
 5047TIP3   OH215085   0.174   7.070   1.153
 5047TIP3    H115086   0.123   7.111   1.084
 5047TIP3    H215087   0.164   6.976   1.137
 5048TIP3   OH215088   2.201   3.174   4.755
 5048TIP3    H115089   2.291   3.203   4.744
 5048TIP3    H215090   2.147   3.247   4.723
 5049TIP3   OH215091   4.126   2.703   1.845
 5049TIP3    H115092   4.091   2.727   1.759
 5049TIP3    H215093   4.161   2.614   1.832
 5050TIP3   OH215094   2.018   4.100   4.172
 5050TIP3    H115095   2.065   4.081   4.253
 5050TIP3    H215096   2.033   4.193   4.157
 5051TIP3   OH215097   6.884   5.738   1.318
 5051TIP3    H115098   6.874   5.645   1.298
 5051TIP3    H215099   6.941   5.771   1.249
 5052TIP3   OH215100   1.423   7.640   1.082
 5052TIP3    H115101   1.353   7.702   1.064
 5052TIP3    H215102   1.384   7.554   1.068
 5053TIP3   OH215103   2.331   5.060   6.568
 5053TIP3    H115104   2.330   4.966   6.547
 5053TIP3    H215105   2.361   5.064   6.659
 5054TIP3   OH215106   4.693   3.907   1.716
 5054TIP3    H115107   4.743   3.878   1.792
 5054TIP3    H215108   4.733   3.862   1.641
 5055TIP3   OH215109   7.285   5.770   2.445
 5055TIP3    H115110   7.204   5.765   2.497
 5055TIP3    H215111   7.283   5.692   2.391
 5056TIP3   OH215112   0.349   1.131   3.010
 5056TIP3    H115113   0.317   1.044   2.988
 5056TIP3    H215114   0.389   1.121   3.097
 5057TIP3   OH215115   2.882   0.229   4.933
 5057TIP3    H115116   2.920   0.181   5.007
 5057TIP3    H215117   2.956   0.244   4.874
 5058TIP3   OH215118   6.349   1.627   4.999
 5058TIP3    H115119   6.355   1.568   4.924
 5058TIP3    H215120   6.264   1.608   5.038
 5059TIP3   OH215121   7.939   4.119   0.087
 5059TIP3    H115122   7.925   4.076   0.171
 5059TIP3    H215123   7.957   4.047   0.026
 5060TIP3   OH215124   7.490   1.731   4.864
 5060TIP3    H115125   7.517   1.651   4.908
 5060TIP3    H215126   7.466   1.703   4.776
 5061TIP3   OH215127   5.175   4.448   5.299
 5061TIP3    H115128   5.226   4.528   5.294
 5061TIP3    H215129   5.240   4.378   5.298
 5062TIP3   OH215130   4.450   5.128   5.711
 5062TIP3    H115131   4.419   5.097   5.626
 5062TIP3    H215132   4.473   5.049   5.759
 5063TIP3   OH215133   6.700   5.784   1.900
 5063TIP3    H115134   6.779   5.739   1.929
 5063TIP3    H215135   6.717   5.876   1.917
 5064TIP3   OH215136   0.286   0.720   6.558
 5064TIP3    H115137   0.212   0.778   6.576
 5064TIP3    H215138   0.350   0.740   6.626
 5065TIP3   OH215139   1.821   6.782   5.205
 5065TIP3    H115140   1.804   6.767   5.298
 5065TIP3    H215141   1.778   6.866   5.187
 5066TIP3   OH215142   6.747   4.968   3.139
 5066TIP3    H115143   6.816   5.010   3.190
 5066TIP3    H215144   6.793   4.911   3.077
 5067TIP3   OH215145   1.194   2.946   4.951
 5067TIP3    H115146   1.160   3.026   4.991
 5067TIP3    H215147   1.194   2.881   5.022
 5068TIP3   OH215148   6.392   7.226   4.697
 5068TIP3    H115149   6.344   7.211   4.779
 5068TIP3    H215150   6.472   7.174   4.707
 5069TIP3   OH215151   1.874   4.261   0.329
 5069TIP3    H115152   1.917   4.282   0.412
 5069TIP3    H215153   1.941   4.214   0.279
 5070TIP3   OH215154   7.618   7.018   1.541
 5070TIP3    H115155   7.540   6.988   1.587
 5070TIP3    H215156   7.619   7.113   1.555
 5071TIP3   OH215157   2.490   2.262   5.898
 5071TIP3    H115158   2.505   2.191   5.837
 5071TIP3    H215159   2.521   2.228   5.982
 5072TIP3   OH215160   5.289   4.165   0.938
 5072TIP3    H115161   5.228   4.238   0.942
 5072TIP3    H215162   5.273   4.124   0.852
 5073TIP3   OH215163   2.180   4.267   0.830
 5073TIP3    H115164   2.108   4.329   0.823
 5073TIP3    H215165   2.258   4.317   0.806
 5074TIP3   OH215166   3.217   5.068   4.779
 5074TIP3    H115167   3.230   4.983   4.737
 5074TIP3    H215168   3.235   5.132   4.710
 5075TIP3   OH215169   0.873   6.448   4.861
 5075TIP3    H115170   0.839   6.451   4.950
 5075TIP3    H215171   0.902   6.358   4.849
 5076TIP3   OH215172   3.639   2.161   6.487
 5076TIP3    H115173   3.568   2.209   6.445
 5076TIP3    H215174   3.697   2.136   6.415
 5077TIP3   OH215175   1.064   7.805   0.762
 5077TIP3    H115176   1.157   7.825   0.747
 5077TIP3    H215177   1.021   7.832   0.681
 5078TIP3   OH215178   2.071   1.115   3.901
 5078TIP3    H115179   2.058   1.047   3.966
 5078TIP3    H215180   2.156   1.153   3.921
 5079TIP3   OH215181   3.757   1.370   2.265
 5079TIP3    H115182   3.749   1.445   2.324
 5079TIP3    H215183   3.668   1.352   2.236
 5080TIP3   OH215184   7.682   3.894   4.798
 5080TIP3    H115185   7.616   3.886   4.866
 5080TIP3    H215186   7.737   3.967   4.826
 5081TIP3   OH215187   5.247   4.013   0.716
 5081TIP3    H115188   5.289   3.942   0.765
 5081TIP3    H215189   5.177   3.970   0.667
 5082TIP3   OH215190   2.909   7.027   5.857
 5082TIP3    H115191   2.970   6.989   5.795
 5082TIP3    H215192   2.923   7.122   5.850
 5083TIP3   OH215193   5.058   5.945   4.460
 5083TIP3    H115194   5.094   6.015   4.406
 5083TIP3    H215195   5.020   5.990   4.536
 5084TIP3   OH215196   5.184   2.702   4.710
 5084TIP3    H115197   5.095   2.689   4.743
 5084TIP3    H215198   5.174   2.703   4.615
 5085TIP3   OH215199   0.565   5.725   1.905
 5085TIP3    H115200   0.496   5.736   1.972
 5085TIP3    H215201   0.633   5.674   1.950
 5086TIP3   OH215202   6.805   6.264   6.467
 5086TIP3    H115203   6.766   6.179   6.490
 5086TIP3    H215204   6.748   6.328   6.509
 5087TIP3   OH215205   1.409   5.919   5.207
 5087TIP3    H115206   1.446   5.953   5.125
 5087TIP3    H215207   1.425   5.825   5.204
 5088TIP3   OH215208   0.390   5.532   2.529
 5088TIP3    H115209   0.326   5.589   2.571
 5088TIP3    H215210   0.461   5.591   2.503
 5089TIP3   OH215211   8.158   0.015   1.948
 5089TIP3    H115212   8.179  -0.028   1.865
 5089TIP3    H215213   8.216   0.091   1.951
 5090TIP3   OH215214   0.452   5.317   1.836
 5090TIP3    H115215   0.528   5.304   1.892
 5090TIP3    H215216   0.487   5.319   1.747
 5091TIP3   OH215217   5.424   1.928   2.417
 5091TIP3    H115218   5.397   1.975   2.496
 5091TIP3    H215219   5.389   1.981   2.345
 5092TIP3   OH215220  -0.012   7.626   2.507
 5092TIP3    H115221   0.075   7.590   2.489
 5092TIP3    H215222  -0.011   7.713   2.468
 5093TIP3   OH215223   2.359   3.601   1.814
 5093TIP3    H115224   2.339   3.604   1.720
 5093TIP3    H215225   2.440   3.551   1.820
 5094TIP3   OH215226   7.018   1.805   2.604
 5094TIP3    H115227   7.047   1.717   2.628
 5094TIP3    H215228   7.083   1.862   2.645
 5095TIP3   OH215229   4.410   2.347   0.717
 5095TIP3    H115230   4.404   2.427   0.769
 5095TIP3    H215231   4.376   2.278   0.775
 5096TIP3   OH215232   0.179   6.683   2.453
 5096TIP3    H115233   0.210   6.610   2.507
 5096TIP3    H215234   0.111   6.725   2.506
 5097TIP3   OH215235   4.447   0.043   5.503
 5097TIP3    H115236   4.380   0.069   5.566
 5097TIP3    H215237   4.498   0.122   5.488
 5098TIP3   OH215238   4.785   6.129   6.348
 5098TIP3    H115239   4.872   6.156   6.376
 5098TIP3    H215240   4.726   6.193   6.389
 5099TIP3   OH215241   0.483   1.687   2.498
 5099TIP3    H115242   0.567   1.705   2.455
 5099TIP3    H215243   0.450   1.608   2.456
 5100TIP3   OH215244   3.098   7.289   4.511
 5100TIP3    H115245   3.065   7.249   4.592
 5100TIP3    H215246   3.152   7.221   4.471
 5101TIP3   OH215247   3.210   5.766   1.630
 5101TIP3    H115248   3.222   5.768   1.535
 5101TIP3    H215249   3.217   5.673   1.654
 5102TIP3   OH215250   3.387   2.113   3.442
 5102TIP3    H115251   3.442   2.163   3.381
 5102TIP3    H215252   3.299   2.149   3.429
 5103TIP3   OH215253   6.704   2.678   6.046
 5103TIP3    H115254   6.779   2.733   6.070
 5103TIP3    H215255   6.742   2.606   5.997
 5104TIP3   OH215256   5.751   6.203   6.430
 5104TIP3    H115257   5.749   6.133   6.495
 5104TIP3    H215258   5.819   6.263   6.463
 5105TIP3   OH215259   0.811   1.080   6.402
 5105TIP3    H115260   0.830   1.007   6.461
 5105TIP3    H215261   0.715   1.087   6.404
 5106TIP3   OH215262   0.290   4.123   2.018
 5106TIP3    H115263   0.354   4.053   2.029
 5106TIP3    H215264   0.340   4.204   2.024
 5107TIP3   OH215265   0.325   2.766   0.185
 5107TIP3    H115266   0.291   2.837   0.131
 5107TIP3    H215267   0.358   2.702   0.122
 5108TIP3   OH215268   2.651   4.722   1.734
 5108TIP3    H115269   2.601   4.642   1.716
 5108TIP3    H215270   2.585   4.785   1.762
 5109TIP3   OH215271   3.612   4.248   4.856
 5109TIP3    H115272   3.537   4.219   4.804
 5109TIP3    H215273   3.686   4.241   4.795
 5110TIP3   OH215274   7.733   3.981   2.684
 5110TIP3    H115275   7.664   4.003   2.747
 5110TIP3    H215276   7.806   3.950   2.738
 5111TIP3   OH215277   2.143   6.101   2.439
 5111TIP3    H115278   2.186   6.028   2.395
 5111TIP3    H215279   2.109   6.155   2.368
 5112TIP3   OH215280   7.166   5.021   0.419
 5112TIP3    H115281   7.146   5.081   0.490
 5112TIP3    H215282   7.226   5.070   0.362
 5113TIP3   OH215283   6.133   1.865   5.249
 5113TIP3    H115284   6.104   1.831   5.165
 5113TIP3    H215285   6.180   1.792   5.290
 5114TIP3   OH215286   7.331   1.174   0.755
 5114TIP3    H115287   7.295   1.182   0.667
 5114TIP3    H215288   7.420   1.142   0.741
 5115TIP3   OH215289   6.565   1.876   4.343
 5115TIP3    H115290   6.582   1.936   4.271
 5115TIP3    H215291   6.620   1.800   4.325
 5116TIP3   OH215292   1.358   2.750   5.421
 5116TIP3    H115293   1.385   2.803   5.496
 5116TIP3    H215294   1.314   2.674   5.459
 5117TIP3   OH215295   0.087   3.604   2.878
 5117TIP3    H115296   0.143   3.572   2.948
 5117TIP3    H215297   0.105   3.698   2.873
 5118TIP3   OH215298   8.145   2.491   3.517
 5118TIP3    H115299   8.218   2.440   3.480
 5118TIP3    H215300   8.186   2.545   3.585
 5119TIP3   OH215301   1.308   4.949   6.152
 5119TIP3    H115302   1.297   4.991   6.237
 5119TIP3    H215303   1.331   5.020   6.093
 5120TIP3   OH215304   6.740   7.457   5.083
 5120TIP3    H115305   6.835   7.447   5.077
 5120TIP3    H215306   6.717   7.430   5.172
 5121TIP3   OH215307   5.225   7.249   3.758
 5121TIP3    H115308   5.316   7.239   3.784
 5121TIP3    H215309   5.216   7.342   3.737
 5122TIP3   OH215310   6.390   0.329   3.328
 5122TIP3    H115311   6.447   0.302   3.256
 5122TIP3    H215312   6.309   0.356   3.285
 5123TIP3   OH215313   3.658   7.681   2.635
 5123TIP3    H115314   3.575   7.722   2.614
 5123TIP3    H215315   3.638   7.620   2.706
 5124TIP3   OH215316   5.784   1.049   1.771
 5124TIP3    H115317   5.756   1.092   1.852
 5124TIP3    H215318   5.880   1.056   1.772
 5125TIP3   OH215319   7.254   4.150   0.559
 5125TIP3    H115320   7.217   4.074   0.514
 5125TIP3    H215321   7.177   4.202   0.584
 5126TIP3   OH215322   0.863   7.758   2.635
 5126TIP3    H115323   0.876   7.665   2.616
 5126TIP3    H215324   0.776   7.777   2.599
 5127TIP3   OH215325   1.076   1.733   0.419
 5127TIP3    H115326   1.014   1.750   0.490
 5127TIP3    H215327   1.048   1.791   0.349
 5128TIP3   OH215328   6.576   5.838   0.068
 5128TIP3    H115329   6.664   5.869   0.047
 5128TIP3    H215330   6.586   5.793   0.152
 5129TIP3   OH215331   6.559   0.949   3.136
 5129TIP3    H115332   6.526   1.037   3.120
 5129TIP3    H215333   6.651   0.952   3.113
 5130TIP3   OH215334   0.452   7.113   4.831
 5130TIP3    H115335   0.538   7.121   4.789
 5130TIP3    H215336   0.445   7.019   4.852
 5131TIP3   OH215337   3.611   1.153   3.134
 5131TIP3    H115338   3.620   1.097   3.211
 5131TIP3    H215339   3.623   1.094   3.059
 5132TIP3   OH215340   5.068   0.986   0.768
 5132TIP3    H115341   5.160   1.006   0.784
 5132TIP3    H215342   5.068   0.937   0.685
 5133TIP3   OH215343   3.629   1.760   0.352
 5133TIP3    H115344   3.610   1.828   0.289
 5133TIP3    H215345   3.650   1.683   0.299
 5134TIP3   OH215346   4.816   5.602   2.413
 5134TIP3    H115347   4.844   5.549   2.338
 5134TIP3    H215348   4.721   5.609   2.402
 5135TIP3   OH215349   3.971   2.898   4.738
 5135TIP3    H115350   3.973   2.921   4.645
 5135TIP3    H215351   4.008   2.810   4.742
 5136TIP3   OH215352   8.305   2.292   0.919
 5136TIP3    H115353   8.244   2.365   0.933
 5136TIP3    H215354   8.338   2.272   1.007
 5137TIP3   OH215355   7.372   6.659   3.202
 5137TIP3    H115356   7.338   6.616   3.280
 5137TIP3    H215357   7.331   6.746   3.202
 5138TIP3   OH215358   4.958   2.919   3.772
 5138TIP3    H115359   5.029   2.954   3.826
 5138TIP3    H215360   4.999   2.848   3.722
 5139TIP3   OH215361   7.692   1.810   4.623
 5139TIP3    H115362   7.603   1.822   4.590
 5139TIP3    H215363   7.700   1.873   4.694
 5140TIP3   OH215364   1.928   7.111   6.739
 5140TIP3    H115365   1.981   7.130   6.661
 5140TIP3    H215366   1.986   7.130   6.812
 5141TIP3   OH215367   7.814   1.982   4.809
 5141TIP3    H115368   7.885   1.918   4.807
 5141TIP3    H215369   7.856   2.065   4.788
 5142TIP3   OH215370   2.079   1.687   0.617
 5142TIP3    H115371   2.099   1.609   0.669
 5142TIP3    H215372   2.078   1.759   0.681
 5143TIP3   OH215373   1.706   3.241   5.494
 5143TIP3    H115374   1.615   3.267   5.506
 5143TIP3    H215375   1.702   3.153   5.457
 5144TIP3   OH215376   0.606   5.996   2.808
 5144TIP3    H115377   0.668   6.055   2.766
 5144TIP3    H215378   0.655   5.960   2.882
 5145TIP3   OH215379   6.966   7.293   0.758
 5145TIP3    H115380   6.995   7.240   0.684
 5145TIP3    H215381   6.906   7.237   0.807
 5146TIP3   OH215382   2.517   6.487   0.499
 5146TIP3    H115383   2.476   6.545   0.435
 5146TIP3    H215384   2.445   6.458   0.555
 5147TIP3   OH215385   3.022   2.070   1.484
 5147TIP3    H115386   3.077   2.004   1.526
 5147TIP3    H215387   3.080   2.111   1.419
 5148TIP3   OH215388   0.799   4.247   0.627
 5148TIP3    H115389   0.729   4.298   0.667
 5148TIP3    H215390   0.857   4.313   0.587
 5149TIP3   OH215391   3.351   6.633   0.622
 5149TIP3    H115392   3.420   6.567   0.612
 5149TIP3    H215393   3.362   6.691   0.547
 5150TIP3   OH215394   1.364   6.435   2.505
 5150TIP3    H115395   1.389   6.520   2.469
 5150TIP3    H215396   1.401   6.371   2.444
 5151TIP3   OH215397   0.995   4.623   4.949
 5151TIP3    H115398   1.033   4.628   4.861
 5151TIP3    H215399   0.924   4.687   4.948
 5152TIP3   OH215400   5.884   4.002   3.025
 5152TIP3    H115401   5.790   3.988   3.013
 5152TIP3    H215402   5.911   4.051   2.947
 5153TIP3   OH215403   1.773   7.169   1.433
 5153TIP3    H115404   1.798   7.112   1.506
 5153TIP3    H215405   1.849   7.225   1.419
 5154TIP3   OH215406   4.393   3.954   2.873
 5154TIP3    H115407   4.436   3.933   2.956
 5154TIP3    H215408   4.402   3.875   2.820
 5155TIP3   OH215409   3.631   1.111   3.629
 5155TIP3    H115410   3.542   1.105   3.663
 5155TIP3    H215411   3.674   1.176   3.685
 5156TIP3   OH215412   4.986   5.314   3.661
 5156TIP3    H115413   4.963   5.336   3.571
 5156TIP3    H215414   4.946   5.383   3.714
 5157TIP3   OH215415   3.651   0.593   5.221
 5157TIP3    H115416   3.681   0.657   5.157
 5157TIP3    H215417   3.563   0.569   5.191
 5158TIP3   OH215418   4.866   0.471   6.089
 5158TIP3    H115419   4.910   0.396   6.049
 5158TIP3    H215420   4.937   0.520   6.131
 5159TIP3   OH215421   1.691   3.694   1.495
 5159TIP3    H115422   1.751   3.760   1.459
 5159TIP3    H215423   1.747   3.619   1.515
 5160TIP3   OH215424   0.754   1.830   3.568
 5160TIP3    H115425   0.710   1.762   3.618
 5160TIP3    H215426   0.753   1.907   3.625
 5161TIP3   OH215427   0.585   6.731   2.386
 5161TIP3    H115428   0.549   6.643   2.369
 5161TIP3    H215429   0.512   6.790   2.367
 5162TIP3   OH215430   2.826   7.579   5.556
 5162TIP3    H115431   2.785   7.496   5.529
 5162TIP3    H215432   2.761   7.621   5.612
 5163TIP3   OH215433   2.944   3.685   1.304
 5163TIP3    H115434   3.007   3.719   1.241
 5163TIP3    H215435   2.980   3.600   1.330
 5164TIP3   OH215436   4.763   1.501   6.501
 5164TIP3    H115437   4.724   1.545   6.576
 5164TIP3    H215438   4.822   1.565   6.462
 5165TIP3   OH215439   6.991   7.521   5.459
 5165TIP3    H115440   7.072   7.564   5.434
 5165TIP3    H215441   7.013   7.428   5.462
 5166TIP3   OH215442   6.820   2.073   6.104
 5166TIP3    H115443   6.792   2.133   6.174
 5166TIP3    H215444   6.899   2.113   6.068
 5167TIP3   OH215445   1.031   6.094   0.311
 5167TIP3    H115446   1.030   6.022   0.374
 5167TIP3    H215447   0.938   6.107   0.290
 5168TIP3   OH215448   0.897   3.611   5.870
 5168TIP3    H115449   0.874   3.549   5.800
 5168TIP3    H215450   0.968   3.568   5.917
 5169TIP3   OH215451   2.864   4.107   4.328
 5169TIP3    H115452   2.786   4.071   4.371
 5169TIP3    H215453   2.903   4.164   4.394
 5170TIP3   OH215454   3.861   1.098   4.749
 5170TIP3    H115455   3.942   1.073   4.704
 5170TIP3    H215456   3.889   1.164   4.813
 5171TIP3   OH215457   6.383   1.901   0.520
 5171TIP3    H115458   6.461   1.921   0.468
 5171TIP3    H215459   6.370   1.807   0.507
 5172TIP3   OH215460   4.652   5.808   3.394
 5172TIP3    H115461   4.724   5.818   3.457
 5172TIP3    H215462   4.667   5.722   3.354
 5173TIP3   OH215463   4.061   2.738   3.578
 5173TIP3    H115464   4.103   2.823   3.593
 5173TIP3    H215465   4.054   2.730   3.483
 5174TIP3   OH215466   2.584   6.406   6.401
 5174TIP3    H115467   2.540   6.473   6.349
 5174TIP3    H215468   2.636   6.456   6.465
 5175TIP3   OH215469   3.358   0.664   4.694
 5175TIP3    H115470   3.289   0.622   4.643
 5175TIP3    H215471   3.424   0.689   4.629
 5176TIP3   OH215472   6.547   5.955   6.286
 5176TIP3    H115473   6.529   6.011   6.211
 5176TIP3    H215474   6.467   5.904   6.298
 5177TIP3   OH215475   1.896   0.609   6.090
 5177TIP3    H115476   1.972   0.566   6.051
 5177TIP3    H215477   1.851   0.539   6.138
 5178TIP3   OH215478   0.893   3.728   6.412
 5178TIP3    H115479   0.981   3.698   6.436
 5178TIP3    H215480   0.886   3.709   6.318
 5179TIP3   OH215481   0.843   4.150   2.500
 5179TIP3    H115482   0.807   4.114   2.418
 5179TIP3    H215483   0.930   4.111   2.506
 5180TIP3   OH215484   0.414   5.359   4.191
 5180TIP3    H115485   0.374   5.364   4.278
 5180TIP3    H215486   0.468   5.280   4.193
 5181TIP3   OH215487   7.928   1.470   3.614
 5181TIP3    H115488   7.971   1.542   3.659
 5181TIP3    H215489   7.856   1.510   3.566
 5182TIP3   OH215490   2.716   2.981   5.672
 5182TIP3    H115491   2.684   2.924   5.603
 5182TIP3    H215492   2.637   3.024   5.706
 5183TIP3   OH215493   3.732   2.649   0.025
 5183TIP3    H115494   3.701   2.559   0.015
 5183TIP3    H215495   3.789   2.662  -0.051
 5184TIP3   OH215496   5.881   4.593   5.820
 5184TIP3    H115497   5.921   4.536   5.885
 5184TIP3    H215498   5.844   4.666   5.870
 5185TIP3   OH215499   1.530   3.585   2.345
 5185TIP3    H115500   1.567   3.573   2.433
 5185TIP3    H215501   1.503   3.677   2.344
 5186TIP3   OH215502   4.730   4.506   0.903
 5186TIP3    H115503   4.779   4.437   0.947
 5186TIP3    H215504   4.780   4.586   0.919
 5187TIP3   OH215505   6.957   0.840   1.663
 5187TIP3    H115506   6.977   0.908   1.727
 5187TIP3    H215507   7.030   0.843   1.601
 5188TIP3   OH215508   4.284   3.862   0.228
 5188TIP3    H115509   4.307   3.794   0.165
 5188TIP3    H215510   4.359   3.866   0.287
 5189TIP3   OH215511   4.797   0.602   2.289
 5189TIP3    H115512   4.744   0.568   2.361
 5189TIP3    H215513   4.747   0.580   2.211
 5190TIP3   OH215514   8.030   1.989   0.171
 5190TIP3    H115515   8.090   1.936   0.223
 5190TIP3    H215516   8.038   1.956   0.082
 5191TIP3   OH215517   5.746   0.246   1.085
 5191TIP3    H115518   5.826   0.204   1.116
 5191TIP3    H215519   5.727   0.201   1.002
 5192TIP3   OH215520   6.934   7.720   2.880
 5192TIP3    H115521   6.901   7.656   2.818
 5192TIP3    H215522   6.926   7.676   2.965
 5193TIP3   OH215523   3.600   2.696   5.747
 5193TIP3    H115524   3.591   2.601   5.749
 5193TIP3    H215525   3.630   2.716   5.659
 5194TIP3   OH215526   5.205   6.909   0.229
 5194TIP3    H115527   5.111   6.895   0.214
 5194TIP3    H215528   5.237   6.942   0.144
 5195TIP3   OH215529   5.458   2.434   1.594
 5195TIP3    H115530   5.506   2.443   1.677
 5195TIP3    H215531   5.526   2.445   1.527
 5196TIP3   OH215532   3.214   4.022   3.830
 5196TIP3    H115533   3.183   3.972   3.754
 5196TIP3    H215534   3.270   4.090   3.792
 5197TIP3   OH215535   7.073   5.399   3.009
 5197TIP3    H115536   7.024   5.347   3.073
 5197TIP3    H215537   7.086   5.340   2.935
 5198TIP3   OH215538   1.316   2.049   5.668
 5198TIP3    H115539   1.350   1.967   5.632
 5198TIP3    H215540   1.235   2.024   5.712
 5199TIP3   OH215541   7.532   6.152   1.119
 5199TIP3    H115542   7.443   6.147   1.083
 5199TIP3    H215543   7.541   6.073   1.172
 5200TIP3   OH215544   0.637   5.338   2.047
 5200TIP3    H115545   0.694   5.314   2.120
 5200TIP3    H215546   0.583   5.409   2.081
 5201TIP3   OH215547   0.123   6.593   4.377
 5201TIP3    H115548   0.028   6.589   4.365
 5201TIP3    H215549   0.148   6.679   4.342
 5202TIP3   OH215550   7.886   1.258   1.313
 5202TIP3    H115551   7.867   1.229   1.402
 5202TIP3    H215552   7.879   1.353   1.316
 5203TIP3   OH215553   0.536   2.244   3.606
 5203TIP3    H115554   0.470   2.176   3.592
 5203TIP3    H215555   0.563   2.269   3.518
 5204TIP3   OH215556   3.119   1.985   3.616
 5204TIP3    H115557   3.093   2.076   3.629
 5204TIP3    H215558   3.199   1.976   3.668
 5205TIP3   OH215559   6.326   2.397   3.902
 5205TIP3    H115560   6.233   2.394   3.881
 5205TIP3    H215561   6.332   2.456   3.978
 5206TIP3   OH215562   8.272   4.208   3.024
 5206TIP3    H115563   8.249   4.174   2.937
 5206TIP3    H215564   8.221   4.154   3.085
 5207TIP3   OH215565   1.484   4.533   5.137
 5207TIP3    H115566   1.504   4.547   5.230
 5207TIP3    H215567   1.523   4.608   5.092
 5208TIP3   OH215568   6.399   3.314   1.501
 5208TIP3    H115569   6.371   3.224   1.486
 5208TIP3    H215570   6.360   3.338   1.585
 5209TIP3   OH215571   3.762   6.197   0.628
 5209TIP3    H115572   3.814   6.121   0.601
 5209TIP3    H215573   3.822   6.250   0.680
 5210TIP3   OH215574   5.123   6.961   6.254
 5210TIP3    H115575   5.079   6.997   6.331
 5210TIP3    H215576   5.110   6.867   6.261
 5211TIP3   OH215577   7.522   6.869   3.109
 5211TIP3    H115578   7.597   6.811   3.118
 5211TIP3    H215579   7.500   6.895   3.199
 5212TIP3   OH215580   6.200   6.417   4.576
 5212TIP3    H115581   6.183   6.442   4.667
 5212TIP3    H215582   6.224   6.499   4.533
 5213TIP3   OH215583   3.386   2.194   0.403
 5213TIP3    H115584   3.447   2.263   0.377
 5213TIP3    H215585   3.433   2.113   0.383
 5214TIP3   OH215586   6.285   1.150   4.799
 5214TIP3    H115587   6.196   1.116   4.803
 5214TIP3    H215588   6.325   1.106   4.725
 5215TIP3   OH215589   2.722   4.009   0.703
 5215TIP3    H115590   2.802   3.956   0.713
 5215TIP3    H215591   2.682   3.976   0.623
 5216TIP3   OH215592   5.045   1.034   6.077
 5216TIP3    H115593   5.039   0.990   6.162
 5216TIP3    H215594   5.036   1.127   6.098
 5217TIP3   OH215595   2.625   4.604   6.098
 5217TIP3    H115596   2.667   4.663   6.161
 5217TIP3    H215597   2.629   4.651   6.015
 5218TIP3   OH215598   7.906   3.695   4.778
 5218TIP3    H115599   7.925   3.760   4.846
 5218TIP3    H215600   7.817   3.665   4.796
 5219TIP3   OH215601   7.337   0.271   2.408
 5219TIP3    H115602   7.343   0.200   2.344
 5219TIP3    H215603   7.259   0.250   2.460
 5220TIP3   OH215604   6.430   2.194   0.428
 5220TIP3    H115605   6.488   2.131   0.386
 5220TIP3    H215606   6.471   2.213   0.512
 5221TIP3   OH215607   6.280   1.660   0.365
 5221TIP3    H115608   6.356   1.615   0.403
 5221TIP3    H215609   6.222   1.589   0.339
 5222TIP3   OH215610   6.940   1.023   1.862
 5222TIP3    H115611   6.947   1.034   1.956
 5222TIP3    H215612   6.934   1.112   1.827
 5223TIP3   OH215613   1.822   1.230   5.924
 5223TIP3    H115614   1.908   1.273   5.920
 5223TIP3    H215615   1.759   1.302   5.925
 5224TIP3   OH215616   1.888   6.654   2.452
 5224TIP3    H115617   1.814   6.654   2.513
 5224TIP3    H215618   1.966   6.655   2.508
 5225TIP3   OH215619   2.632   1.075   2.966
 5225TIP3    H115620   2.564   1.136   2.938
 5225TIP3    H215621   2.585   1.004   3.010
 5226TIP3   OH215622   7.703   0.420   1.906
 5226TIP3    H115623   7.719   0.476   1.982
 5226TIP3    H215624   7.681   0.335   1.943
 5227TIP3   OH215625   4.783   5.875   4.072
 5227TIP3    H115626   4.805   5.904   3.984
 5227TIP3    H215627   4.703   5.822   4.061
 5228TIP3   OH215628   1.919   3.154   1.184
 5228TIP3    H115629   1.960   3.101   1.116
 5228TIP3    H215630   1.837   3.108   1.203
 5229TIP3   OH215631   7.332   0.700   3.272
 5229TIP3    H115632   7.393   0.635   3.237
 5229TIP3    H215633   7.329   0.684   3.366
 5230TIP3   OH215634   7.921   6.677   0.409
 5230TIP3    H115635   7.998   6.733   0.407
 5230TIP3    H215636   7.942   6.609   0.473
 5231TIP3   OH215637   2.449   7.544   3.209
 5231TIP3    H115638   2.414   7.468   3.255
 5231TIP3    H215639   2.451   7.517   3.117
 5232TIP3   OH215640   1.057   5.917   4.907
 5232TIP3    H115641   1.054   5.875   4.821
 5232TIP3    H215642   0.983   5.879   4.955
 5233TIP3   OH215643   0.716   3.605   1.608
 5233TIP3    H115644   0.687   3.544   1.675
 5233TIP3    H215645   0.646   3.671   1.604
 5234TIP3   OH215646   3.739   3.435   4.545
 5234TIP3    H115647   3.769   3.403   4.461
 5234TIP3    H215648   3.728   3.356   4.599
 5235TIP3   OH215649   1.424   1.177   4.209
 5235TIP3    H115650   1.443   1.110   4.274
 5235TIP3    H215651   1.329   1.183   4.207
 5236TIP3   OH215652   4.987   1.763   6.703
 5236TIP3    H115653   4.928   1.706   6.752
 5236TIP3    H215654   4.955   1.759   6.612
 5237TIP3   OH215655   1.959   2.625   6.513
 5237TIP3    H115656   2.030   2.590   6.459
 5237TIP3    H215657   1.916   2.689   6.457
 5238TIP3   OH215658   2.388   2.845   5.944
 5238TIP3    H115659   2.348   2.931   5.930
 5238TIP3    H215660   2.408   2.813   5.856
 5239TIP3   OH215661   3.968   3.975   5.248
 5239TIP3    H115662   3.961   3.951   5.156
 5239TIP3    H215663   3.996   4.067   5.246
 5240TIP3   OH215664   5.171   5.766   0.814
 5240TIP3    H115665   5.148   5.852   0.781
 5240TIP3    H215666   5.242   5.736   0.757
 5241TIP3   OH215667   5.041   5.875   2.549
 5241TIP3    H115668   5.124   5.832   2.564
 5241TIP3    H215669   4.975   5.812   2.577
 5242TIP3   OH215670   3.994   5.933   0.259
 5242TIP3    H115671   3.989   5.898   0.171
 5242TIP3    H215672   4.087   5.951   0.273
 5243TIP3   OH215673   1.381   7.314   0.994
 5243TIP3    H115674   1.297   7.358   1.010
 5243TIP3    H215675   1.407   7.281   1.080
 5244TIP3   OH215676   7.402   1.448   5.892
 5244TIP3    H115677   7.382   1.462   5.799
 5244TIP3    H215678   7.497   1.450   5.896
 5245TIP3   OH215679   8.129   1.022   2.373
 5245TIP3    H115680   8.119   1.114   2.351
 5245TIP3    H215681   8.180   0.984   2.301
 5246TIP3   OH215682   2.916   4.371   2.431
 5246TIP3    H115683   2.922   4.407   2.343
 5246TIP3    H215684   2.865   4.290   2.420
 5247TIP3   OH215685   4.218   1.019   1.365
 5247TIP3    H115686   4.195   1.108   1.391
 5247TIP3    H215687   4.282   1.029   1.295
 5248TIP3   OH215688   1.303   1.389   3.986
 5248TIP3    H115689   1.391   1.383   4.022
 5248TIP3    H215690   1.271   1.299   3.985
 5249TIP3   OH215691   2.597   0.095   6.694
 5249TIP3    H115692   2.602   0.183   6.656
 5249TIP3    H215693   2.686   0.060   6.688
 5250TIP3   OH215694   7.214   6.150   5.453
 5250TIP3    H115695   7.209   6.111   5.366
 5250TIP3    H215696   7.227   6.244   5.437
 5251TIP3   OH215697   5.949   3.389   6.445
 5251TIP3    H115698   5.925   3.470   6.489
 5251TIP3    H215699   5.874   3.331   6.456
 5252TIP3   OH215700   5.654   5.683   4.313
 5252TIP3    H115701   5.638   5.623   4.385
 5252TIP3    H215702   5.712   5.635   4.254
 5253TIP3   OH215703   1.368   3.575   1.692
 5253TIP3    H115704   1.363   3.583   1.597
 5253TIP3    H215705   1.279   3.594   1.722
 5254TIP3   OH215706   2.964   1.004   3.372
 5254TIP3    H115707   2.942   0.999   3.465
 5254TIP3    H215708   2.902   0.945   3.329
 5255TIP3   OH215709   4.774   2.177   1.546
 5255TIP3    H115710   4.739   2.176   1.635
 5255TIP3    H215711   4.698   2.200   1.491
 5256TIP3   OH215712   2.953   3.343   1.791
 5256TIP3    H115713   2.904   3.425   1.784
 5256TIP3    H215714   2.997   3.349   1.876
 5257TIP3   OH215715   2.974   5.429   5.860
 5257TIP3    H115716   2.919   5.373   5.804
 5257TIP3    H215717   2.997   5.373   5.934
 5258TIP3   OH215718   6.276   5.644   0.803
 5258TIP3    H115719   6.282   5.549   0.804
 5258TIP3    H215720   6.290   5.670   0.894
 5259TIP3   OH215721   7.413   2.567   1.042
 5259TIP3    H115722   7.507   2.548   1.043
 5259TIP3    H215723   7.394   2.600   1.129
 5260TIP3   OH215724   5.357   2.795   5.686
 5260TIP3    H115725   5.374   2.705   5.657
 5260TIP3    H215726   5.303   2.833   5.618
 5261TIP3   OH215727   4.636   7.511   1.157
 5261TIP3    H115728   4.589   7.450   1.214
 5261TIP3    H215729   4.659   7.459   1.080
 5262TIP3   OH215730   4.361   5.607   4.871
 5262TIP3    H115731   4.360   5.671   4.799
 5262TIP3    H215732   4.332   5.656   4.947
 5263TIP3   OH215733   1.443   6.037   0.299
 5263TIP3    H115734   1.408   6.042   0.387
 5263TIP3    H215735   1.433   6.125   0.264
 5264TIP3   OH215736   3.403   0.599   3.828
 5264TIP3    H115737   3.363   0.685   3.840
 5264TIP3    H215738   3.329   0.538   3.828
 5265TIP3   OH215739   0.309   3.689   1.392
 5265TIP3    H115740   0.250   3.721   1.324
 5265TIP3    H215741   0.349   3.610   1.353
 5266TIP3   OH215742   4.837   5.665   2.684
 5266TIP3    H115743   4.745   5.643   2.697
 5266TIP3    H215744   4.851   5.656   2.590
 5267TIP3   OH215745   4.210   6.560   3.734
 5267TIP3    H115746   4.255   6.639   3.765
 5267TIP3    H215747   4.277   6.491   3.738
 5268TIP3   OH215748   8.299   4.457   5.438
 5268TIP3    H115749   8.259   4.542   5.422
 5268TIP3    H215750   8.362   4.472   5.508
 5269TIP3   OH215751   6.341   7.624   3.069
 5269TIP3    H115752   6.359   7.701   3.015
 5269TIP3    H215753   6.307   7.660   3.151
 5270TIP3   OH215754   1.702   5.872   6.147
 5270TIP3    H115755   1.711   5.787   6.189
 5270TIP3    H215756   1.702   5.935   6.220
 5271TIP3   OH215757   8.112   1.595   4.060
 5271TIP3    H115758   8.115   1.682   4.019
 5271TIP3    H215759   8.146   1.536   3.992
 5272TIP3   OH215760   6.365   3.861   3.177
 5272TIP3    H115761   6.311   3.813   3.114
 5272TIP3    H215762   6.398   3.936   3.128
 5273TIP3   OH215763   4.187   3.413   5.596
 5273TIP3    H115764   4.120   3.475   5.567
 5273TIP3    H215765   4.183   3.415   5.691
 5274TIP3   OH215766   6.953   5.928   2.773
 5274TIP3    H115767   6.943   5.957   2.683
 5274TIP3    H215768   7.027   5.868   2.772
 5275TIP3   OH215769   3.613   1.728   0.759
 5275TIP3    H115770   3.574   1.804   0.716
 5275TIP3    H215771   3.683   1.700   0.700
 5276TIP3   OH215772   0.726   1.786   6.711
 5276TIP3    H115773   0.752   1.853   6.775
 5276TIP3    H215774   0.805   1.769   6.660
 5277TIP3   OH215775   4.776   0.648   6.754
 5277TIP3    H115776   4.834   0.718   6.780
 5277TIP3    H215777   4.696   0.692   6.726
 5278TIP3   OH215778   4.682   0.166   2.971
 5278TIP3    H115779   4.602   0.114   2.970
 5278TIP3    H215780   4.720   0.154   2.884
 5279TIP3   OH215781   5.094   1.811   6.218
 5279TIP3    H115782   5.070   1.772   6.134
 5279TIP3    H215783   5.173   1.861   6.200
 5280TIP3   OH215784   4.834   7.250   1.843
 5280TIP3    H115785   4.881   7.166   1.851
 5280TIP3    H215786   4.820   7.261   1.749
 5281TIP3   OH215787   5.648   3.237   1.212
 5281TIP3    H115788   5.609   3.317   1.177
 5281TIP3    H215789   5.617   3.232   1.302
 5282TIP3   OH215790   8.279   7.611   1.779
 5282TIP3    H115791   8.360   7.560   1.777
 5282TIP3    H215792   8.231   7.582   1.702
 5283TIP3   OH215793   1.642   3.148   3.931
 5283TIP3    H115794   1.569   3.207   3.945
 5283TIP3    H215795   1.609   3.083   3.868
 5284TIP3   OH215796   7.906   3.584   3.706
 5284TIP3    H115797   7.831   3.542   3.665
 5284TIP3    H215798   7.932   3.653   3.645
 5285TIP3   OH215799   3.423   3.320   6.637
 5285TIP3    H115800   3.336   3.322   6.598
 5285TIP3    H215801   3.408   3.328   6.731
 5286TIP3   OH215802   0.122   0.524   6.098
 5286TIP3    H115803   0.053   0.567   6.149
 5286TIP3    H215804   0.108   0.430   6.114
 5287TIP3   OH215805   6.796   6.281   3.521
 5287TIP3    H115806   6.796   6.185   3.526
 5287TIP3    H215807   6.773   6.309   3.610
 5288TIP3   OH215808   2.014   4.799   4.128
 5288TIP3    H115809   2.044   4.797   4.219
 5288TIP3    H215810   2.025   4.891   4.102
 5289TIP3   OH215811   7.148   0.511   2.209
 5289TIP3    H115812   7.222   0.531   2.152
 5289TIP3    H215813   7.084   0.470   2.152
 5290TIP3   OH215814   4.643   4.121   3.055
 5290TIP3    H115815   4.620   4.209   3.086
 5290TIP3    H215816   4.572   4.065   3.085
 5291TIP3   OH215817   7.487   3.326   3.988
 5291TIP3    H115818   7.566   3.287   3.949
 5291TIP3    H215819   7.421   3.319   3.919
 5292TIP3   OH215820   4.309   2.291   6.261
 5292TIP3    H115821   4.286   2.351   6.191
 5292TIP3    H215822   4.363   2.224   6.219
 5293TIP3   OH215823   7.197   5.391   6.595
 5293TIP3    H115824   7.249   5.471   6.588
 5293TIP3    H215825   7.248   5.325   6.549
 5294TIP3   OH215826   6.628   5.452   0.424
 5294TIP3    H115827   6.581   5.427   0.345
 5294TIP3    H215828   6.716   5.474   0.394
 5295TIP3   OH215829   5.233   1.715   3.250
 5295TIP3    H115830   5.246   1.806   3.280
 5295TIP3    H215831   5.193   1.724   3.164
 5296TIP3   OH215832   1.171   5.145   5.150
 5296TIP3    H115833   1.209   5.057   5.149
 5296TIP3    H215834   1.120   5.151   5.069
 5297TIP3   OH215835   6.743   0.744   4.969
 5297TIP3    H115836   6.661   0.705   4.999
 5297TIP3    H215837   6.807   0.674   4.977
 5298TIP3   OH215838   3.294   1.833   1.966
 5298TIP3    H115839   3.246   1.750   1.966
 5298TIP3    H215840   3.385   1.808   1.976
 5299TIP3   OH215841   4.163   2.958   4.188
 5299TIP3    H115842   4.165   2.948   4.283
 5299TIP3    H215843   4.197   2.876   4.154
 5300TIP3   OH215844   4.856   5.239   5.507
 5300TIP3    H115845   4.926   5.196   5.459
 5300TIP3    H215846   4.775   5.200   5.472
 5301TIP3   OH215847   4.241   2.841   4.411
 5301TIP3    H115848   4.336   2.834   4.422
 5301TIP3    H215849   4.205   2.773   4.468
 5302TIP3   OH215850   7.673   7.834   1.290
 5302TIP3    H115851   7.609   7.887   1.338
 5302TIP3    H215852   7.636   7.824   1.203
 5303TIP3   OH215853   6.186   3.001   3.007
 5303TIP3    H115854   6.172   2.966   2.919
 5303TIP3    H215855   6.150   3.090   3.003
 5304TIP3   OH215856   1.466   5.798   0.720
 5304TIP3    H115857   1.454   5.705   0.738
 5304TIP3    H215858   1.377   5.835   0.726
 5305TIP3   OH215859   4.072   0.673   3.778
 5305TIP3    H115860   4.094   0.702   3.867
 5305TIP3    H215861   4.152   0.632   3.746
 5306TIP3   OH215862   4.252   5.096   2.384
 5306TIP3    H115863   4.210   5.019   2.345
 5306TIP3    H215864   4.206   5.109   2.467
 5307TIP3   OH215865   0.220   3.340   6.153
 5307TIP3    H115866   0.191   3.407   6.215
 5307TIP3    H215867   0.166   3.264   6.174
 5308TIP3   OH215868   2.513   2.061   5.227
 5308TIP3    H115869   2.477   2.100   5.306
 5308TIP3    H215870   2.513   2.132   5.162
 5309TIP3   OH215871   2.707   7.657   3.122
 5309TIP3    H115872   2.638   7.606   3.080
 5309TIP3    H215873   2.682   7.661   3.214
 5310TIP3   OH215874   1.700   6.961   3.959
 5310TIP3    H115875   1.641   6.989   3.889
 5310TIP3    H215876   1.770   6.914   3.913
 5311TIP3   OH215877   4.986   5.971   1.077
 5311TIP3    H115878   5.048   6.037   1.047
 5311TIP3    H215879   5.007   5.959   1.170
 5312TIP3   OH215880   1.205   6.112   6.577
 5312TIP3    H115881   1.289   6.150   6.552
 5312TIP3    H215882   1.186   6.048   6.508
 5313TIP3   OH215883   3.987   1.503   4.109
 5313TIP3    H115884   4.033   1.432   4.155
 5313TIP3    H215885   4.055   1.569   4.094
 5314TIP3   OH215886   0.990   7.677   3.422
 5314TIP3    H115887   0.985   7.657   3.329
 5314TIP3    H215888   1.042   7.758   3.426
 5315TIP3   OH215889   1.660   4.003   1.608
 5315TIP3    H115890   1.608   3.926   1.631
 5315TIP3    H215891   1.742   3.967   1.574
 5316TIP3   OH215892   5.577   5.126   4.425
 5316TIP3    H115893   5.621   5.062   4.481
 5316TIP3    H215894   5.642   5.194   4.409
 5317TIP3   OH215895   0.805   6.589   3.473
 5317TIP3    H115896   0.785   6.683   3.476
 5317TIP3    H215897   0.748   6.555   3.404
 5318TIP3   OH215898   1.031   0.008   3.233
 5318TIP3    H115899   0.981   0.047   3.161
 5318TIP3    H215900   1.102  -0.040   3.191
 5319TIP3   OH215901   5.422   3.585   1.331
 5319TIP3    H115902   5.345   3.637   1.355
 5319TIP3    H215903   5.467   3.637   1.265
 5320TIP3   OH215904   4.096   3.993   0.438
 5320TIP3    H115905   4.115   3.924   0.375
 5320TIP3    H215906   4.179   4.008   0.484
 5321TIP3   OH215907   7.063   1.263   2.842
 5321TIP3    H115908   7.003   1.236   2.773
 5321TIP3    H215909   7.150   1.238   2.809
 5322TIP3   OH215910   2.769   5.980   6.056
 5322TIP3    H115911   2.854   6.005   6.093
 5322TIP3    H215912   2.708   6.046   6.090
 5323TIP3   OH215913   4.019   5.566   0.996
 5323TIP3    H115914   4.039   5.537   0.907
 5323TIP3    H215915   3.924   5.573   0.998
 5324TIP3   OH215916   3.368   2.490   5.091
 5324TIP3    H115917   3.436   2.427   5.115
 5324TIP3    H215918   3.399   2.527   5.008
 5325TIP3   OH215919   0.578   4.218   2.641
 5325TIP3    H115920   0.582   4.127   2.612
 5325TIP3    H215921   0.649   4.261   2.594
 5326TIP3   OH215922   1.468   0.533   2.074
 5326TIP3    H115923   1.563   0.519   2.076
 5326TIP3    H215924   1.450   0.577   2.157
 5327TIP3   OH215925   4.729   2.072   5.367
 5327TIP3    H115926   4.738   1.983   5.334
 5327TIP3    H215927   4.636   2.081   5.387
 5328TIP3   OH215928   2.541   0.235   2.197
 5328TIP3    H115929   2.503   0.295   2.262
 5328TIP3    H215930   2.567   0.158   2.248
 5329TIP3   OH215931   5.565   2.372   6.780
 5329TIP3    H115932   5.626   2.412   6.718
 5329TIP3    H215933   5.572   2.427   6.858
 5330TIP3   OH215934   2.614   4.411   0.141
 5330TIP3    H115935   2.530   4.448   0.170
 5330TIP3    H215936   2.645   4.361   0.216
 5331TIP3   OH215937   2.529   4.126   2.458
 5331TIP3    H115938   2.612   4.080   2.455
 5331TIP3    H215939   2.468   4.070   2.409
 5332TIP3   OH215940   1.411   6.519   2.946
 5332TIP3    H115941   1.319   6.495   2.946
 5332TIP3    H215942   1.457   6.443   2.911
 5333TIP3   OH215943   6.975   3.772   1.100
 5333TIP3    H115944   6.970   3.796   1.193
 5333TIP3    H215945   6.973   3.856   1.054
 5334TIP3   OH215946   0.222   1.227   3.888
 5334TIP3    H115947   0.255   1.279   3.814
 5334TIP3    H215948   0.241   1.280   3.965
 5335TIP3   OH215949   6.860   1.997   5.755
 5335TIP3    H115950   6.931   2.058   5.775
 5335TIP3    H215951   6.903   1.914   5.739
 5336TIP3   OH215952   1.349   1.892   6.079
 5336TIP3    H115953   1.363   1.845   5.997
 5336TIP3    H215954   1.433   1.887   6.124
 5337TIP3   OH215955   2.407   7.123   2.598
 5337TIP3    H115956   2.417   7.167   2.682
 5337TIP3    H215957   2.419   7.030   2.618
 5338TIP3   OH215958   5.698   5.704   4.667
 5338TIP3    H115959   5.731   5.777   4.720
 5338TIP3    H215960   5.647   5.652   4.729
 5339TIP3   OH215961   6.958   1.290   2.066
 5339TIP3    H115962   6.913   1.367   2.102
 5339TIP3    H215963   6.933   1.289   1.973
 5340TIP3   OH215964   6.073   2.762   5.844
 5340TIP3    H115965   6.163   2.761   5.810
 5340TIP3    H215966   6.018   2.771   5.766
 5341TIP3   OH215967   3.784   7.130   4.216
 5341TIP3    H115968   3.716   7.063   4.218
 5341TIP3    H215969   3.862   7.084   4.185
 5342TIP3   OH215970   6.518   6.068   3.295
 5342TIP3    H115971   6.570   6.147   3.279
 5342TIP3    H215972   6.560   6.000   3.243
 5343TIP3   OH215973   7.433   6.523   3.748
 5343TIP3    H115974   7.489   6.514   3.825
 5343TIP3    H215975   7.344   6.507   3.782
 5344TIP3   OH215976   0.807   5.259   2.696
 5344TIP3    H115977   0.732   5.317   2.682
 5344TIP3    H215978   0.883   5.315   2.683
 5345TIP3   OH215979   0.505   1.425   4.877
 5345TIP3    H115980   0.486   1.367   4.803
 5345TIP3    H215981   0.508   1.367   4.953
 5346TIP3   OH215982   4.989   5.679   0.540
 5346TIP3    H115983   4.923   5.641   0.597
 5346TIP3    H215984   4.939   5.726   0.473
 5347TIP3   OH215985   2.631   5.258   4.960
 5347TIP3    H115986   2.620   5.170   4.923
 5347TIP3    H215987   2.543   5.282   4.991
 5348TIP3   OH215988   7.933   3.305   3.789
 5348TIP3    H115989   7.924   3.393   3.753
 5348TIP3    H215990   8.025   3.300   3.817
 5349TIP3   OH215991   5.743   4.741   2.679
 5349TIP3    H115992   5.683   4.703   2.616
 5349TIP3    H215993   5.788   4.810   2.631
 5350TIP3   OH215994   7.674   4.294   1.228
 5350TIP3    H115995   7.728   4.314   1.152
 5350TIP3    H215996   7.645   4.204   1.215
 5351TIP3   OH215997   2.818   2.491   1.120
 5351TIP3    H115998   2.763   2.520   1.192
 5351TIP3    H215999   2.777   2.527   1.042
 5352TIP3   OH216000   7.318   1.636   3.851
 5352TIP3    H116001   7.224   1.619   3.855
 5352TIP3    H216002   7.342   1.613   3.761
 5353TIP3   OH216003   6.740   7.504   5.348
 5353TIP3    H116004   6.664   7.511   5.405
 5353TIP3    H216005   6.810   7.471   5.405
 5354TIP3   OH216006   8.141   4.651   4.614
 5354TIP3    H116007   8.170   4.566   4.646
 5354TIP3    H216008   8.124   4.638   4.521
 5355TIP3   OH216009   4.420   7.684   1.166
 5355TIP3    H116010   4.498   7.633   1.146
 5355TIP3    H216011   4.446   7.742   1.237
 5356TIP3   OH216012   1.688   1.368   6.401
 5356TIP3    H116013   1.606   1.402   6.436
 5356TIP3    H216014   1.665   1.282   6.365
 5357TIP3   OH216015   1.373   4.571   2.371
 5357TIP3    H116016   1.442   4.605   2.314
 5357TIP3    H216017   1.409   4.488   2.404
 5358TIP3   OH216018   0.145   0.984   3.763
 5358TIP3    H116019   0.120   0.932   3.840
 5358TIP3    H216020   0.154   1.073   3.797
 5359TIP3   OH216021   2.481   0.303   4.143
 5359TIP3    H116022   2.551   0.267   4.197
 5359TIP3    H216023   2.440   0.226   4.102
 5360TIP3   OH216024   4.904   6.683   6.203
 5360TIP3    H116025   4.859   6.700   6.121
 5360TIP3    H216026   4.918   6.589   6.205
 5361TIP3   OH216027   0.197   2.233   3.154
 5361TIP3    H116028   0.115   2.245   3.201
 5361TIP3    H216029   0.254   2.186   3.215
 5362TIP3   OH216030   7.224   1.888   4.098
 5362TIP3    H116031   7.182   1.803   4.110
 5362TIP3    H216032   7.286   1.874   4.026
 5363TIP3   OH216033   0.241   4.052   6.148
 5363TIP3    H116034   0.244   4.147   6.161
 5363TIP3    H216035   0.327   4.030   6.112
 5364TIP3   OH216036   0.649   3.109   5.660
 5364TIP3    H116037   0.586   3.045   5.627
 5364TIP3    H216038   0.722   3.057   5.693
 5365TIP3   OH216039   3.745   3.123   0.792
 5365TIP3    H116040   3.801   3.200   0.795
 5365TIP3    H216041   3.672   3.145   0.850
 5366TIP3   OH216042   6.859   2.059   1.410
 5366TIP3    H116043   6.793   2.116   1.370
 5366TIP3    H216044   6.835   2.056   1.503
 5367TIP3   OH216045   5.891   0.265   5.376
 5367TIP3    H116046   5.832   0.271   5.451
 5367TIP3    H216047   5.842   0.215   5.311
 5368TIP3   OH216048   4.432   4.653   5.582
 5368TIP3    H116049   4.471   4.567   5.595
 5368TIP3    H216050   4.342   4.634   5.552
 5369TIP3   OH216051   4.999   5.358   3.246
 5369TIP3    H116052   4.989   5.264   3.228
 5369TIP3    H216053   5.090   5.377   3.223
 5370TIP3   OH216054   0.803   0.375   3.830
 5370TIP3    H116055   0.893   0.389   3.799
 5370TIP3    H216056   0.752   0.358   3.751
 5371TIP3   OH216057   6.078   3.902   5.184
 5371TIP3    H116058   5.986   3.897   5.157
 5371TIP3    H216059   6.091   3.825   5.239
 5372TIP3   OH216060   7.080   4.973   5.433
 5372TIP3    H116061   7.019   5.034   5.474
 5372TIP3    H216062   7.024   4.913   5.383
 5373TIP3   OH216063   4.025   5.030   4.799
 5373TIP3    H116064   4.059   5.120   4.799
 5373TIP3    H216065   4.100   4.975   4.817
 5374TIP3   OH216066   1.625   1.377   1.459
 5374TIP3    H116067   1.707   1.412   1.494
 5374TIP3    H216068   1.578   1.344   1.535
 5375TIP3   OH216069   2.205   5.268   3.220
 5375TIP3    H116070   2.260   5.345   3.220
 5375TIP3    H216071   2.174   5.260   3.310
 5376TIP3   OH216072   1.232   5.788   0.193
 5376TIP3    H116073   1.166   5.790   0.125
 5376TIP3    H216074   1.188   5.750   0.269
 5377TIP3   OH216075   1.502   1.626   0.407
 5377TIP3    H116076   1.597   1.623   0.411
 5377TIP3    H216077   1.474   1.542   0.445
 5378TIP3   OH216078   3.487   7.232   4.778
 5378TIP3    H116079   3.483   7.138   4.794
 5378TIP3    H216080   3.509   7.240   4.685
 5379TIP3   OH216081   0.964   3.078   3.263
 5379TIP3    H116082   1.008   3.151   3.307
 5379TIP3    H216083   1.030   3.009   3.260
 5380TIP3   OH216084   5.175   3.295   5.965
 5380TIP3    H116085   5.225   3.214   5.972
 5380TIP3    H216086   5.098   3.280   6.020
 5381TIP3   OH216087   0.718   2.345   1.993
 5381TIP3    H116088   0.712   2.440   2.005
 5381TIP3    H216089   0.760   2.335   1.908
 5382TIP3   OH216090   7.962   2.177   6.593
 5382TIP3    H116091   7.876   2.184   6.636
 5382TIP3    H216092   8.022   2.222   6.652
 5383TIP3   OH216093   3.028   5.193   4.594
 5383TIP3    H116094   3.000   5.135   4.523
 5383TIP3    H216095   2.972   5.170   4.668
 5384TIP3   OH216096   5.958   7.211   0.309
 5384TIP3    H116097   5.995   7.227   0.395
 5384TIP3    H216098   6.010   7.266   0.250
 5385TIP3   OH216099   1.576   0.346   0.839
 5385TIP3    H116100   1.616   0.289   0.905
 5385TIP3    H216101   1.605   0.434   0.862
 5386TIP3   OH216102   3.806   0.339   6.228
 5386TIP3    H116103   3.831   0.251   6.259
 5386TIP3    H216104   3.741   0.322   6.159
 5387TIP3   OH216105   1.028   3.907   2.198
 5387TIP3    H116106   1.115   3.876   2.174
 5387TIP3    H216107   1.010   3.979   2.138
 5388TIP3   OH216108   6.001   4.911   0.544
 5388TIP3    H116109   5.949   4.951   0.614
 5388TIP3    H216110   6.019   4.984   0.483
 5389TIP3   OH216111   3.742   1.253   3.418
 5389TIP3    H116112   3.824   1.243   3.467
 5389TIP3    H216113   3.677   1.207   3.472
 5390TIP3   OH216114   6.337   4.456   1.306
 5390TIP3    H116115   6.339   4.545   1.341
 5390TIP3    H216116   6.282   4.463   1.228
 5391TIP3   OH216117   6.752   1.629   2.639
 5391TIP3    H116118   6.729   1.685   2.713
 5391TIP3    H216119   6.845   1.609   2.652
 5392TIP3   OH216120   5.603   2.341   2.050
 5392TIP3    H116121   5.558   2.303   2.125
 5392TIP3    H216122   5.696   2.329   2.069
 5393TIP3   OH216123   0.867   6.264   3.240
 5393TIP3    H116124   0.817   6.343   3.222
 5393TIP3    H216125   0.922   6.287   3.315
 5394TIP3   OH216126   2.425   0.368   5.434
 5394TIP3    H116127   2.347   0.318   5.410
 5394TIP3    H216128   2.402   0.409   5.518
 5395TIP3   OH216129   6.424   3.457   5.141
 5395TIP3    H116130   6.369   3.380   5.124
 5395TIP3    H216131   6.511   3.431   5.112
 5396TIP3   OH216132   0.990   5.113   6.489
 5396TIP3    H116133   1.064   5.154   6.533
 5396TIP3    H216134   0.930   5.186   6.470
 5397TIP3   OH216135   5.701   4.866   0.809
 5397TIP3    H116136   5.710   4.909   0.894
 5397TIP3    H216137   5.612   4.831   0.810
 5398TIP3   OH216138   5.905   2.324   2.547
 5398TIP3    H116139   5.959   2.359   2.618
 5398TIP3    H216140   5.816   2.352   2.568
 5399TIP3   OH216141   3.364   2.170   5.610
 5399TIP3    H116142   3.307   2.094   5.598
 5399TIP3    H216143   3.447   2.145   5.570
 5400TIP3   OH216144   2.536   3.199   1.707
 5400TIP3    H116145   2.547   3.290   1.733
 5400TIP3    H216146   2.487   3.159   1.779
 5401TIP3   OH216147   0.100   7.532   1.260
 5401TIP3    H116148   0.058   7.527   1.175
 5401TIP3    H216149   0.122   7.625   1.271
 5402TIP3   OH216150   1.431   3.507   1.982
 5402TIP3    H116151   1.485   3.575   2.021
 5402TIP3    H216152   1.420   3.534   1.891
 5403TIP3   OH216153   1.494   6.982   3.180
 5403TIP3    H116154   1.474   6.897   3.141
 5403TIP3    H216155   1.589   6.983   3.187
 5404TIP3   OH216156   0.113   4.035   0.968
 5404TIP3    H116157   0.079   4.124   0.966
 5404TIP3    H216158   0.200   4.042   0.927
 5405TIP3   OH216159   1.212   0.363   1.702
 5405TIP3    H116160   1.197   0.455   1.681
 5405TIP3    H216161   1.306   0.351   1.693
 5406TIP3   OH216162   3.872   3.172   6.218
 5406TIP3    H116163   3.793   3.222   6.199
 5406TIP3    H216164   3.940   3.238   6.233
 5407TIP3   OH216165   6.482   5.332   0.203
 5407TIP3    H116166   6.477   5.400   0.135
 5407TIP3    H216167   6.425   5.263   0.172
 5408TIP3   OH216168   8.211   4.609   3.325
 5408TIP3    H116169   8.263   4.656   3.260
 5408TIP3    H216170   8.131   4.584   3.278
 5409TIP3   OH216171   1.349   6.066   2.150
 5409TIP3    H116172   1.382   6.154   2.132
 5409TIP3    H216173   1.345   6.061   2.246
 5410TIP3   OH216174   6.206   7.480   1.031
 5410TIP3    H116175   6.264   7.477   1.107
 5410TIP3    H216176   6.148   7.404   1.042
 5411TIP3   OH216177   1.672   1.230   2.621
 5411TIP3    H116178   1.654   1.137   2.609
 5411TIP3    H216179   1.749   1.246   2.567
 5412TIP3   OH216180   6.788   1.291   3.405
 5412TIP3    H116181   6.769   1.240   3.326
 5412TIP3    H216182   6.850   1.237   3.454
 5413TIP3   OH216183   2.912   0.289   1.692
 5413TIP3    H116184   2.831   0.295   1.743
 5413TIP3    H216185   2.982   0.293   1.756
 5414TIP3   OH216186   0.621   4.512   4.879
 5414TIP3    H116187   0.660   4.460   4.809
 5414TIP3    H216188   0.588   4.448   4.942
 5415TIP3   OH216189   0.120   4.021   2.502
 5415TIP3    H116190   0.199   4.034   2.450
 5415TIP3    H216191   0.137   4.067   2.584
 5416TIP3   OH216192   1.088   7.360   3.556
 5416TIP3    H116193   1.138   7.401   3.626
 5416TIP3    H216194   1.054   7.279   3.594
 5417TIP3   OH216195   1.906   4.877   5.458
 5417TIP3    H116196   1.966   4.904   5.389
 5417TIP3    H216197   1.936   4.789   5.484
 5418TIP3   OH216198   6.556   3.317   0.795
 5418TIP3    H116199   6.651   3.310   0.793
 5418TIP3    H216200   6.530   3.276   0.877
 5419TIP3   OH216201   4.884   7.401   4.217
 5419TIP3    H116202   4.961   7.363   4.173
 5419TIP3    H216203   4.861   7.337   4.284
 5420TIP3   OH216204   4.044   2.456   3.671
 5420TIP3    H116205   4.101   2.509   3.616
 5420TIP3    H216206   3.981   2.417   3.610
 5421TIP3   OH216207   1.593   1.591   3.717
 5421TIP3    H116208   1.559   1.679   3.733
 5421TIP3    H216209   1.563   1.569   3.628
 5422TIP3   OH216210   8.180   6.443   5.682
 5422TIP3    H116211   8.228   6.379   5.629
 5422TIP3    H216212   8.093   6.404   5.695
 5423TIP3   OH216213   8.326   6.479   4.632
 5423TIP3    H116214   8.273   6.447   4.559
 5423TIP3    H216215   8.311   6.573   4.635
 5424TIP3   OH216216   6.369   2.941   1.133
 5424TIP3    H116217   6.295   2.881   1.130
 5424TIP3    H216218   6.408   2.936   1.046
 5425TIP3   OH216219   6.443   3.569   3.091
 5425TIP3    H116220   6.526   3.543   3.130
 5425TIP3    H216221   6.462   3.653   3.050
 5426TIP3   OH216222   2.140   6.120   4.065
 5426TIP3    H116223   2.085   6.194   4.089
 5426TIP3    H216224   2.153   6.072   4.147
 5427TIP3   OH216225   0.427   1.749   5.785
 5427TIP3    H116226   0.423   1.743   5.689
 5427TIP3    H216227   0.368   1.821   5.807
 5428TIP3   OH216228   3.188   6.351   3.423
 5428TIP3    H116229   3.270   6.313   3.452
 5428TIP3    H216230   3.153   6.289   3.359
 5429TIP3   OH216231   0.778   5.737   0.195
 5429TIP3    H116232   0.866   5.712   0.226
 5429TIP3    H216233   0.731   5.762   0.275
 5430TIP3   OH216234   1.740   1.984   1.590
 5430TIP3    H116235   1.767   2.023   1.507
 5430TIP3    H216236   1.644   1.980   1.585
 5431TIP3   OH216237   7.407   6.095   2.167
 5431TIP3    H116238   7.449   6.069   2.085
 5431TIP3    H216239   7.385   6.187   2.155
 5432TIP3   OH216240   5.525   4.694   5.618
 5432TIP3    H116241   5.454   4.734   5.567
 5432TIP3    H216242   5.480   4.640   5.683
 5433TIP3   OH216243   7.065   7.712   3.598
 5433TIP3    H116244   7.020   7.761   3.667
 5433TIP3    H216245   7.101   7.778   3.540
 5434TIP3   OH216246   0.504   2.206   4.102
 5434TIP3    H116247   0.451   2.266   4.155
 5434TIP3    H216248   0.507   2.247   4.016
 5435TIP3   OH216249   2.708   3.480   4.527
 5435TIP3    H116250   2.733   3.482   4.434
 5435TIP3    H216251   2.724   3.390   4.554
 5436TIP3   OH216252   2.223   4.977   2.856
 5436TIP3    H116253   2.310   4.983   2.896
 5436TIP3    H216254   2.231   5.023   2.773
 5437TIP3   OH216255   7.531   1.313   6.473
 5437TIP3    H116256   7.496   1.356   6.395
 5437TIP3    H216257   7.618   1.283   6.447
 5438TIP3   OH216258   1.704   6.840   2.161
 5438TIP3    H116259   1.618   6.882   2.163
 5438TIP3    H216260   1.765   6.913   2.151
 5439TIP3   OH216261   8.209   2.600   5.175
 5439TIP3    H116262   8.254   2.626   5.095
 5439TIP3    H216263   8.273   2.546   5.222
 5440TIP3   OH216264   2.128   7.225   0.886
 5440TIP3    H116265   2.117   7.152   0.825
 5440TIP3    H216266   2.166   7.295   0.833
 5441TIP3   OH216267   5.398   1.704   6.197
 5441TIP3    H116268   5.320   1.650   6.206
 5441TIP3    H216269   5.461   1.648   6.152
 5442TIP3   OH216270   1.962   1.489   3.686
 5442TIP3    H116271   1.893   1.460   3.626
 5442TIP3    H216272   1.923   1.563   3.733
 5443TIP3   OH216273   7.391  -0.026   4.224
 5443TIP3    H116274   7.399   0.047   4.286
 5443TIP3    H216275   7.312  -0.006   4.174
 5444TIP3   OH216276   6.269   3.152   0.262
 5444TIP3    H116277   6.363   3.135   0.263
 5444TIP3    H216278   6.238   3.125   0.348
 5445TIP3   OH216279   5.217   1.737   3.934
 5445TIP3    H116280   5.184   1.735   4.024
 5445TIP3    H216281   5.306   1.773   3.942
 5446TIP3   OH216282   4.822   3.046   1.244
 5446TIP3    H116283   4.866   2.997   1.174
 5446TIP3    H216284   4.886   3.113   1.268
 5447TIP3   OH216285   0.413   1.237   1.534
 5447TIP3    H116286   0.448   1.150   1.517
 5447TIP3    H216287   0.349   1.251   1.464
 5448TIP3   OH216288   5.983   3.954   6.258
 5448TIP3    H116289   6.053   4.017   6.269
 5448TIP3    H216290   5.928   3.990   6.189
 5449TIP3   OH216291   1.434   0.505   1.476
 5449TIP3    H116292   1.375   0.558   1.531
 5449TIP3    H216293   1.385   0.492   1.395
 5450TIP3   OH216294   5.575   1.553   6.706
 5450TIP3    H116295   5.481   1.559   6.720
 5450TIP3    H216296   5.588   1.576   6.614
 5451TIP3   OH216297   1.009   5.193   2.336
 5451TIP3    H116298   1.100   5.221   2.325
 5451TIP3    H216299   1.014   5.121   2.399
 5452TIP3   OH216300   8.057   4.151   5.316
 5452TIP3    H116301   8.150   4.142   5.340
 5452TIP3    H216302   8.010   4.109   5.387
 5453TIP3   OH216303   7.908   7.259   2.095
 5453TIP3    H116304   7.865   7.242   2.011
 5453TIP3    H216305   7.844   7.233   2.161
 5454TIP3   OH216306   6.175   0.526   1.687
 5454TIP3    H116307   6.155   0.432   1.678
 5454TIP3    H216308   6.095   0.570   1.658
 5455TIP3   OH216309   4.347   0.073   4.616
 5455TIP3    H116310   4.286   0.145   4.596
 5455TIP3    H216311   4.427   0.097   4.569
 5456TIP3   OH216312   6.427   0.220   0.129
 5456TIP3    H116313   6.355   0.267   0.087
 5456TIP3    H216314   6.419   0.130   0.097
 5457TIP3   OH216315   6.590   7.458   6.780
 5457TIP3    H116316   6.531   7.501   6.718
 5457TIP3    H216317   6.550   7.372   6.795
 5458TIP3   OH216318   6.972   7.448   3.905
 5458TIP3    H116319   6.963   7.449   3.810
 5458TIP3    H216320   7.040   7.383   3.923
 5459TIP3   OH216321   1.266   7.528   3.731
 5459TIP3    H116322   1.282   7.550   3.640
 5459TIP3    H216323   1.343   7.479   3.759
 5460TIP3   OH216324   1.736   5.838   0.851
 5460TIP3    H116325   1.741   5.744   0.840
 5460TIP3    H216326   1.704   5.871   0.766
 5461TIP3   OH216327   3.067   1.553   2.783
 5461TIP3    H116328   3.130   1.552   2.712
 5461TIP3    H216329   3.120   1.545   2.863
 5462TIP3   OH216330   5.577   3.353   0.717
 5462TIP3    H116331   5.596   3.301   0.638
 5462TIP3    H216332   5.501   3.310   0.756
 5463TIP3   OH216333   4.602   0.287   5.461
 5463TIP3    H116334   4.662   0.327   5.398
 5463TIP3    H216335   4.575   0.360   5.518
 5464TIP3   OH216336   1.025   6.235   4.730
 5464TIP3    H116337   0.996   6.164   4.672
 5464TIP3    H216338   1.066   6.298   4.672
 5465TIP3   OH216339   7.444   2.307   6.375
 5465TIP3    H116340   7.533   2.322   6.344
 5465TIP3    H216341   7.443   2.215   6.403
 5466TIP3   OH216342   0.345   3.565   6.032
 5466TIP3    H116343   0.439   3.555   6.014
 5466TIP3    H216344   0.320   3.481   6.072
 5467TIP3   OH216345   8.297   5.257   1.705
 5467TIP3    H116346   8.353   5.302   1.769
 5467TIP3    H216347   8.231   5.214   1.759
 5468TIP3   OH216348   7.002   7.138   1.701
 5468TIP3    H116349   7.005   7.100   1.613
 5468TIP3    H216350   7.053   7.219   1.694
 5469TIP3   OH216351   0.607   5.285   3.943
 5469TIP3    H116352   0.572   5.373   3.960
 5469TIP3    H216353   0.622   5.248   4.030
 5470TIP3   OH216354   4.881   2.564   2.353
 5470TIP3    H116355   4.863   2.547   2.260
 5470TIP3    H216356   4.894   2.478   2.392
 5471TIP3   OH216357   6.340   2.822   0.219
 5471TIP3    H116358   6.390   2.763   0.163
 5471TIP3    H216359   6.404   2.888   0.247
 5472TIP3   OH216360   0.213   6.009   2.772
 5472TIP3    H116361   0.181   6.092   2.806
 5472TIP3    H216362   0.178   6.004   2.683
 5473TIP3   OH216363   2.535   2.639   3.236
 5473TIP3    H116364   2.465   2.575   3.237
 5473TIP3    H216365   2.491   2.723   3.229
 5474TIP3   OH216366   7.239   1.868   6.530
 5474TIP3    H116367   7.281   1.847   6.614
 5474TIP3    H216368   7.284   1.946   6.499
 5475TIP3   OH216369   7.953   3.506   6.403
 5475TIP3    H116370   7.932   3.554   6.323
 5475TIP3    H216371   7.887   3.437   6.408
 5476TIP3   OH216372   1.578   2.890   0.728
 5476TIP3    H116373   1.532   2.951   0.785
 5476TIP3    H216374   1.554   2.803   0.761
 5477TIP3   OH216375   4.646   4.690   0.090
 5477TIP3    H116376   4.689   4.736   0.162
 5477TIP3    H216377   4.703   4.616   0.072
 5478TIP3   OH216378   1.310   6.840   0.158
 5478TIP3    H116379   1.247   6.884   0.100
 5478TIP3    H216380   1.296   6.747   0.143
 5479TIP3   OH216381   5.173   4.120   3.410
 5479TIP3    H116382   5.122   4.197   3.386
 5479TIP3    H216383   5.109   4.050   3.416
 5480TIP3   OH216384   7.087   6.988   4.263
 5480TIP3    H116385   7.015   6.941   4.305
 5480TIP3    H216386   7.068   6.982   4.169
 5481TIP3   OH216387   1.964   3.341   4.712
 5481TIP3    H116388   1.980   3.405   4.781
 5481TIP3    H216389   1.912   3.273   4.754
 5482TIP3   OH216390   3.659   5.894   6.024
 5482TIP3    H116391   3.616   5.898   6.109
 5482TIP3    H216392   3.596   5.935   5.964
 5483TIP3   OH216393   1.885   7.837   0.719
 5483TIP3    H116394   1.886   7.830   0.815
 5483TIP3    H216395   1.866   7.748   0.689
 5484TIP3   OH216396   6.059   0.752   3.026
 5484TIP3    H116397   6.091   0.719   2.942
 5484TIP3    H216398   6.137   0.779   3.073
 5485TIP3   OH216399   5.465   5.092   5.060
 5485TIP3    H116400   5.417   5.013   5.035
 5485TIP3    H216401   5.481   5.082   5.153
 5486TIP3   OH216402   5.481   5.045   1.077
 5486TIP3    H116403   5.538   5.036   1.153
 5486TIP3    H216404   5.433   4.961   1.073
 5487TIP3   OH216405   1.895   1.110   6.191
 5487TIP3    H116406   1.844   1.029   6.191
 5487TIP3    H216407   1.880   1.147   6.103
 5488TIP3   OH216408   0.141   2.275   2.535
 5488TIP3    H116409   0.214   2.244   2.482
 5488TIP3    H216410   0.078   2.203   2.534
 5489TIP3   OH216411   2.136   5.772   2.250
 5489TIP3    H116412   2.048   5.794   2.220
 5489TIP3    H216413   2.193   5.795   2.177
 5490TIP3   OH216414   1.211   5.128   1.480
 5490TIP3    H116415   1.191   5.134   1.386
 5490TIP3    H216416   1.190   5.037   1.503
 5491TIP3   OH216417   4.986   6.751   3.380
 5491TIP3    H116418   4.927   6.687   3.420
 5491TIP3    H216419   4.949   6.836   3.404
 5492TIP3   OH216420   7.681   0.038   1.339
 5492TIP3    H116421   7.771   0.008   1.348
 5492TIP3    H216422   7.664   0.089   1.418
 5493TIP3   OH216423   0.524   3.669   1.910
 5493TIP3    H116424   0.457   3.704   1.969
 5493TIP3    H216425   0.483   3.672   1.823
 5494TIP3   OH216426   0.295   3.576   2.264
 5494TIP3    H116427   0.290   3.502   2.204
 5494TIP3    H216428   0.307   3.537   2.351
 5495TIP3   OH216429   5.554   4.141   5.171
 5495TIP3    H116430   5.551   4.046   5.176
 5495TIP3    H216431   5.643   4.162   5.143
 5496TIP3   OH216432   7.571   7.506   6.164
 5496TIP3    H116433   7.514   7.435   6.135
 5496TIP3    H216434   7.634   7.516   6.092
 5497TIP3   OH216435   2.044   2.412   1.887
 5497TIP3    H116436   2.046   2.479   1.955
 5497TIP3    H216437   1.987   2.448   1.819
 5498TIP3   OH216438   5.735   1.888   5.198
 5498TIP3    H116439   5.773   1.938   5.271
 5498TIP3    H216440   5.670   1.831   5.240
 5499TIP3   OH216441   2.404   4.821   4.892
 5499TIP3    H116442   2.410   4.731   4.859
 5499TIP3    H216443   2.318   4.825   4.934
 5500TIP3   OH216444   4.040   0.324   5.147
 5500TIP3    H116445   4.082   0.299   5.229
 5500TIP3    H216446   3.987   0.248   5.123
 5501TIP3   OH216447   7.093   0.574   1.138
 5501TIP3    H116448   7.178   0.586   1.178
 5501TIP3    H216449   7.069   0.484   1.160
 5502TIP3   OH216450   4.619   3.863   5.144
 5502TIP3    H116451   4.549   3.822   5.195
 5502TIP3    H216452   4.580   3.876   5.057
 5503TIP3   OH216453   5.533   7.661   6.734
 5503TIP3    H116454   5.455   7.651   6.790
 5503TIP3    H216455   5.505   7.724   6.667
 5504TIP3   OH216456   6.192   6.545   2.024
 5504TIP3    H116457   6.143   6.468   1.995
 5504TIP3    H216458   6.277   6.537   1.979
 5505TIP3   OH216459   5.849   3.200   4.978
 5505TIP3    H116460   5.910   3.207   5.051
 5505TIP3    H216461   5.791   3.277   4.987
 5506TIP3   OH216462   2.887   4.694   5.465
 5506TIP3    H116463   2.928   4.698   5.379
 5506TIP3    H216464   2.805   4.743   5.456
 5507TIP3   OH216465   2.963   4.698   0.282
 5507TIP3    H116466   2.946   4.626   0.342
 5507TIP3    H216467   3.058   4.710   0.285
 5508TIP3   OH216468   0.539   2.764   4.925
 5508TIP3    H116469   0.473   2.698   4.945
 5508TIP3    H216470   0.563   2.747   4.834
 5509TIP3   OH216471   0.176   5.277   3.751
 5509TIP3    H116472   0.110   5.238   3.808
 5509TIP3    H216473   0.210   5.350   3.802
 5510TIP3   OH216474   7.736   3.186   3.945
 5510TIP3    H116475   7.802   3.235   3.897
 5510TIP3    H216476   7.785   3.134   4.009
 5511TIP3   OH216477   6.279   6.085   0.010
 5511TIP3    H116478   6.249   6.170   0.045
 5511TIP3    H216479   6.361   6.106  -0.034
 5512TIP3   OH216480   6.317   0.493   1.121
 5512TIP3    H116481   6.396   0.520   1.076
 5512TIP3    H216482   6.347   0.461   1.206
 5513TIP3   OH216483   3.751   3.352   2.596
 5513TIP3    H116484   3.843   3.375   2.581
 5513TIP3    H216485   3.753   3.297   2.674
 5514TIP3   OH216486   0.506   1.312   5.813
 5514TIP3    H116487   0.553   1.383   5.855
 5514TIP3    H216488   0.471   1.350   5.733
 5515TIP3   OH216489   2.073   7.594   0.902
 5515TIP3    H116490   2.049   7.686   0.916
 5515TIP3    H216491   1.994   7.545   0.925
 5516TIP3   OH216492   1.708   2.556   3.016
 5516TIP3    H116493   1.707   2.594   2.928
 5516TIP3    H216494   1.761   2.616   3.068
 5517TIP3   OH216495   7.882   2.026   0.948
 5517TIP3    H116496   7.792   1.995   0.946
 5517TIP3    H216497   7.897   2.065   0.862
 5518TIP3   OH216498   6.697   5.696   5.769
 5518TIP3    H116499   6.703   5.663   5.679
 5518TIP3    H216500   6.757   5.771   5.771
 5519TIP3   OH216501   6.267   0.498   3.515
 5519TIP3    H116502   6.276   0.419   3.462
 5519TIP3    H216503   6.355   0.536   3.518
 5520TIP3   OH216504   6.088   5.007   5.276
 5520TIP3    H116505   5.994   4.996   5.284
 5520TIP3    H216506   6.117   4.930   5.227
 5521TIP3   OH216507   3.269   2.576   4.811
 5521TIP3    H116508   3.313   2.566   4.727
 5521TIP3    H216509   3.232   2.664   4.809
 5522TIP3   OH216510   8.061   0.157   3.810
 5522TIP3    H116511   8.032   0.082   3.861
 5522TIP3    H216512   8.040   0.233   3.865
 5523TIP3   OH216513   4.138   5.017   2.815
 5523TIP3    H116514   4.207   4.970   2.769
 5523TIP3    H216515   4.183   5.068   2.882
 5524TIP3   OH216516   0.081   2.286   3.541
 5524TIP3    H116517   0.170   2.323   3.542
 5524TIP3    H216518   0.061   2.275   3.448
 5525TIP3   OH216519   0.570   4.220   1.502
 5525TIP3    H116520   0.537   4.268   1.578
 5525TIP3    H216521   0.515   4.142   1.497
 5526TIP3   OH216522   5.175   6.043   6.081
 5526TIP3    H116523   5.180   6.137   6.097
 5526TIP3    H216524   5.216   6.003   6.158
 5527TIP3   OH216525   7.963   4.512   3.232
 5527TIP3    H116526   7.990   4.460   3.157
 5527TIP3    H216527   7.936   4.447   3.297
 5528TIP3   OH216528   3.588   6.536   4.522
 5528TIP3    H116529   3.512   6.569   4.569
 5528TIP3    H216530   3.599   6.446   4.555
 5529TIP3   OH216531   3.349   5.944   1.121
 5529TIP3    H116532   3.294   6.018   1.146
 5529TIP3    H216533   3.411   5.981   1.058
 5530TIP3   OH216534   3.535   1.120   1.474
 5530TIP3    H116535   3.458   1.170   1.450
 5530TIP3    H216536   3.512   1.029   1.455
 5531TIP3   OH216537   0.155   6.697   5.731
 5531TIP3    H116538   0.092   6.762   5.761
 5531TIP3    H216539   0.220   6.748   5.683
 5532TIP3   OH216540   5.817   6.575   0.990
 5532TIP3    H116541   5.845   6.650   0.937
 5532TIP3    H216542   5.723   6.590   1.003
 5533TIP3   OH216543   7.141   5.441   5.184
 5533TIP3    H116544   7.235   5.436   5.202
 5533TIP3    H216545   7.112   5.520   5.230
 5534TIP3   OH216546   7.126   6.467   3.049
 5534TIP3    H116547   7.103   6.558   3.033
 5534TIP3    H216548   7.053   6.416   3.013
 5535TIP3   OH216549   1.540   7.474   3.780
 5535TIP3    H116550   1.522   7.562   3.812
 5535TIP3    H216551   1.635   7.465   3.789
 5536TIP3   OH216552   3.803   0.901   1.476
 5536TIP3    H116553   3.856   0.911   1.398
 5536TIP3    H216554   3.738   0.834   1.454
 5537TIP3   OH216555   0.241   6.956   1.420
 5537TIP3    H116556   0.293   6.958   1.340
 5537TIP3    H216557   0.165   7.010   1.401
 5538TIP3   OH216558   1.301   0.189   1.399
 5538TIP3    H116559   1.253   0.232   1.469
 5538TIP3    H216560   1.393   0.204   1.420
 5539TIP3   OH216561   6.653   4.007   4.688
 5539TIP3    H116562   6.688   4.092   4.659
 5539TIP3    H216563   6.569   4.028   4.729
 5540TIP3   OH216564   3.620   7.137   5.154
 5540TIP3    H116565   3.576   7.057   5.127
 5540TIP3    H216566   3.573   7.165   5.232
 5541TIP3   OH216567   2.898   7.047   2.996
 5541TIP3    H116568   2.990   7.024   2.984
 5541TIP3    H216569   2.899   7.123   3.053
 5542TIP3   OH216570   8.086   1.792   4.793
 5542TIP3    H116571   8.154   1.729   4.768
 5542TIP3    H216572   8.011   1.738   4.818
 5543TIP3   OH216573   2.603   6.241   0.221
 5543TIP3    H116574   2.591   6.254   0.127
 5543TIP3    H216575   2.663   6.311   0.248
 5544TIP3   OH216576   7.339   1.745   1.744
 5544TIP3    H116577   7.366   1.834   1.724
 5544TIP3    H216578   7.271   1.725   1.679
 5545TIP3   OH216579   0.470   4.683   1.805
 5545TIP3    H116580   0.523   4.705   1.882
 5545TIP3    H216581   0.380   4.682   1.838
 5546TIP3   OH216582   5.499   1.254   3.824
 5546TIP3    H116583   5.456   1.233   3.741
 5546TIP3    H216584   5.435   1.229   3.891
 5547TIP3   OH216585   2.687   6.865   6.714
 5547TIP3    H116586   2.697   6.945   6.663
 5547TIP3    H216587   2.620   6.886   6.779
 5548TIP3   OH216588   6.211   2.743   3.553
 5548TIP3    H116589   6.180   2.709   3.637
 5548TIP3    H216590   6.211   2.838   3.563
 5549TIP3   OH216591   2.568   3.173   5.207
 5549TIP3    H116592   2.493   3.193   5.264
 5549TIP3    H216593   2.565   3.078   5.198
 5550TIP3   OH216594   1.069   5.135   5.754
 5550TIP3    H116595   1.152   5.127   5.800
 5550TIP3    H216596   1.021   5.202   5.803
 5551TIP3   OH216597   0.657   5.958   3.605
 5551TIP3    H116598   0.679   5.953   3.512
 5551TIP3    H216599   0.741   5.976   3.648
 5552TIP3   OH216600   1.551   2.204   3.836
 5552TIP3    H116601   1.546   2.271   3.768
 5552TIP3    H216602   1.506   2.241   3.911
 5553TIP3   OH216603   0.302   4.654   5.647
 5553TIP3    H116604   0.262   4.738   5.670
 5553TIP3    H216605   0.391   4.676   5.621
 5554TIP3   OH216606   2.033   4.650   1.627
 5554TIP3    H116607   1.999   4.570   1.665
 5554TIP3    H216608   1.975   4.668   1.553
 5555TIP3   OH216609   4.120   7.234   1.368
 5555TIP3    H116610   4.055   7.196   1.427
 5555TIP3    H216611   4.082   7.225   1.281
 5556TIP3   OH216612   2.573   1.953   1.355
 5556TIP3    H116613   2.655   1.958   1.306
 5556TIP3    H216614   2.570   2.035   1.405
 5557TIP3   OH216615   2.648   1.063   1.425
 5557TIP3    H116616   2.626   1.073   1.333
 5557TIP3    H216617   2.673   0.971   1.435
 5558TIP3   OH216618   2.555   2.386   0.025
 5558TIP3    H116619   2.634   2.361  -0.023
 5558TIP3    H216620   2.491   2.318   0.003
 5559TIP3   OH216621   0.156   0.547   4.657
 5559TIP3    H116622   0.151   0.533   4.563
 5559TIP3    H216623   0.218   0.480   4.688
 5560TIP3   OH216624   8.225   7.054   4.447
 5560TIP3    H116625   8.197   7.096   4.528
 5560TIP3    H216626   8.180   7.103   4.378
 5561TIP3   OH216627   3.671   2.858   4.590
 5561TIP3    H116628   3.726   2.786   4.620
 5561TIP3    H216629   3.617   2.820   4.521
 5562TIP3   OH216630   2.703   5.403   2.524
 5562TIP3    H116631   2.655   5.477   2.559
 5562TIP3    H216632   2.739   5.359   2.601
 5563TIP3   OH216633   8.169   1.887   6.193
 5563TIP3    H116634   8.080   1.910   6.166
 5563TIP3    H216635   8.207   1.969   6.222
 5564TIP3   OH216636   6.643   0.441   4.058
 5564TIP3    H116637   6.629   0.362   4.110
 5564TIP3    H216638   6.555   0.473   4.039
 5565TIP3   OH216639   7.877   2.081   0.426
 5565TIP3    H116640   7.932   2.069   0.350
 5565TIP3    H216641   7.791   2.103   0.390
 5566TIP3   OH216642   0.218   2.604   3.686
 5566TIP3    H116643   0.258   2.678   3.731
 5566TIP3    H216644   0.291   2.556   3.648
 5567TIP3   OH216645   0.922   4.243   3.561
 5567TIP3    H116646   0.933   4.195   3.644
 5567TIP3    H216647   1.009   4.274   3.539
 5568TIP3   OH216648   2.329   3.418   1.335
 5568TIP3    H116649   2.238   3.389   1.331
 5568TIP3    H216650   2.379   3.338   1.352
 5569TIP3   OH216651   5.362   1.426   2.919
 5569TIP3    H116652   5.288   1.448   2.975
 5569TIP3    H216653   5.339   1.341   2.880
 5570TIP3   OH216654   5.738   0.986   0.289
 5570TIP3    H116655   5.772   1.071   0.316
 5570TIP3    H216656   5.803   0.923   0.321
 5571TIP3   OH216657   2.112   6.686   4.663
 5571TIP3    H116658   2.057   6.633   4.722
 5571TIP3    H216659   2.157   6.747   4.721
 5572TIP3   OH216660   4.549   2.042   3.089
 5572TIP3    H116661   4.578   2.011   3.175
 5572TIP3    H216662   4.626   2.087   3.052
 5573TIP3   OH216663   7.824   1.459   2.400
 5573TIP3    H116664   7.851   1.543   2.437
 5573TIP3    H216665   7.805   1.479   2.308
 5574TIP3   OH216666   0.362   6.966   2.820
 5574TIP3    H116667   0.311   6.942   2.743
 5574TIP3    H216668   0.297   6.998   2.883
 5575TIP3   OH216669   4.512   1.523   4.597
 5575TIP3    H116670   4.566   1.450   4.625
 5575TIP3    H216671   4.574   1.589   4.567
 5576TIP3   OH216672   1.155   2.698   1.952
 5576TIP3    H116673   1.172   2.654   1.869
 5576TIP3    H216674   1.159   2.792   1.931
 5577TIP3   OH216675   1.755   1.205   4.318
 5577TIP3    H116676   1.707   1.145   4.375
 5577TIP3    H216677   1.732   1.177   4.229
 5578TIP3   OH216678   2.610   2.539   2.597
 5578TIP3    H116679   2.641   2.606   2.658
 5578TIP3    H216680   2.688   2.487   2.577
 5579TIP3   OH216681   7.966   6.112   0.922
 5579TIP3    H116682   8.023   6.181   0.957
 5579TIP3    H216683   7.901   6.159   0.870
 5580TIP3   OH216684   5.951   6.132   0.252
 5580TIP3    H116685   5.954   6.038   0.267
 5580TIP3    H216686   5.978   6.144   0.162
 5581TIP3   OH216687   3.758   6.739   4.463
 5581TIP3    H116688   3.702   6.676   4.509
 5581TIP3    H216689   3.741   6.723   4.370
 5582TIP3   OH216690   5.929   6.691   6.558
 5582TIP3    H116691   5.946   6.732   6.473
 5582TIP3    H216692   5.935   6.763   6.620
 5583TIP3   OH216693   4.049   2.422   0.708
 5583TIP3    H116694   4.019   2.512   0.696
 5583TIP3    H216695   4.092   2.422   0.793
 5584TIP3   OH216696   3.662   5.314   5.568
 5584TIP3    H116697   3.712   5.276   5.640
 5584TIP3    H216698   3.726   5.367   5.520
 5585TIP3   OH216699   4.928   3.569   4.437
 5585TIP3    H116700   4.912   3.558   4.531
 5585TIP3    H216701   5.002   3.631   4.432
 5586TIP3   OH216702   5.126   5.268   4.114
 5586TIP3    H116703   5.034   5.256   4.134
 5586TIP3    H216704   5.167   5.184   4.135
 5587TIP3   OH216705   1.350   7.614   6.129
 5587TIP3    H116706   1.441   7.627   6.156
 5587TIP3    H216707   1.299   7.640   6.206
 5588TIP3   OH216708   7.768   5.117   0.144
 5588TIP3    H116709   7.791   5.031   0.110
 5588TIP3    H216710   7.765   5.174   0.067
 5589TIP3   OH216711   6.609   2.639   3.085
 5589TIP3    H116712   6.624   2.662   3.176
 5589TIP3    H216713   6.526   2.682   3.063
 5590TIP3   OH216714   0.213   5.959   4.671
 5590TIP3    H116715   0.158   5.915   4.735
 5590TIP3    H216716   0.213   6.051   4.698
 5591TIP3   OH216717   6.393   3.803   6.417
 5591TIP3    H116718   6.332   3.730   6.421
 5591TIP3    H216719   6.379   3.843   6.332
 5592TIP3   OH216720   2.463   1.031   0.543
 5592TIP3    H116721   2.388   1.071   0.588
 5592TIP3    H216722   2.537   1.088   0.565
 5593TIP3   OH216723   7.933   5.799   5.214
 5593TIP3    H116724   8.025   5.798   5.241
 5593TIP3    H216725   7.885   5.776   5.293
 5594TIP3   OH216726   6.958   2.648   2.184
 5594TIP3    H116727   6.999   2.562   2.196
 5594TIP3    H216728   6.882   2.647   2.243
 5595TIP3   OH216729   6.075   1.649   4.790
 5595TIP3    H116730   6.142   1.661   4.723
 5595TIP3    H216731   6.000   1.612   4.743
 5596TIP3   OH216732   1.148   6.785   4.157
 5596TIP3    H116733   1.081   6.719   4.179
 5596TIP3    H216734   1.230   6.747   4.189
 5597TIP3   OH216735   5.773   5.929   5.468
 5597TIP3    H116736   5.791   5.923   5.374
 5597TIP3    H216737   5.830   5.863   5.508
 5598TIP3   OH216738   4.922   2.108   4.389
 5598TIP3    H116739   4.870   2.165   4.333
 5598TIP3    H216740   4.985   2.166   4.432
 5599TIP3   OH216741   5.564   3.857   4.127
 5599TIP3    H116742   5.485   3.896   4.091
 5599TIP3    H216743   5.549   3.853   4.222
 5600TIP3   OH216744   2.689   0.336   5.376
 5600TIP3    H116745   2.595   0.342   5.394
 5600TIP3    H216746   2.694   0.313   5.283
 5601TIP3   OH216747   2.112   4.403   5.059
 5601TIP3    H116748   2.192   4.365   5.096
 5601TIP3    H216749   2.139   4.438   4.974
 5602TIP3   OH216750   2.143   6.248   3.257
 5602TIP3    H116751   2.143   6.156   3.229
 5602TIP3    H216752   2.186   6.246   3.343
 5603TIP3   OH216753   4.673   1.402   6.269
 5603TIP3    H116754   4.615   1.338   6.310
 5603TIP3    H216755   4.732   1.429   6.339
 5604TIP3   OH216756   0.210   5.627   5.525
 5604TIP3    H116757   0.259   5.545   5.527
 5604TIP3    H216758   0.275   5.695   5.542
 5605TIP3   OH216759   3.198   2.750   6.248
 5605TIP3    H116760   3.132   2.807   6.209
 5605TIP3    H216761   3.185   2.759   6.343
 5606TIP3   OH216762   6.014   1.843   4.992
 5606TIP3    H116763   6.072   1.915   4.968
 5606TIP3    H216764   6.024   1.779   4.922
 5607TIP3   OH216765   0.106   3.275   5.464
 5607TIP3    H116766   0.117   3.341   5.395
 5607TIP3    H216767   0.083   3.325   5.542
 5608TIP3   OH216768   7.528   7.748   2.698
 5608TIP3    H116769   7.455   7.803   2.725
 5608TIP3    H216770   7.552   7.700   2.777
 5609TIP3   OH216771   0.644   2.554   3.439
 5609TIP3    H116772   0.564   2.570   3.389
 5609TIP3    H216773   0.654   2.459   3.440
 5610TIP3   OH216774   5.353   6.233   0.656
 5610TIP3    H116775   5.333   6.277   0.573
 5610TIP3    H216776   5.448   6.228   0.658
 5611TIP3   OH216777   0.458   4.704   3.030
 5611TIP3    H116778   0.363   4.709   3.020
 5611TIP3    H216779   0.483   4.790   3.064
 5612TIP3   OH216780   6.545   0.094   4.538
 5612TIP3    H116781   6.510   0.145   4.612
 5612TIP3    H216782   6.555   0.005   4.573
 5613TIP3   OH216783   1.161   4.143   6.825
 5613TIP3    H116784   1.066   4.142   6.827
 5613TIP3    H216785   1.183   4.234   6.803
 5614TIP3   OH216786   4.509   6.250   5.859
 5614TIP3    H116787   4.460   6.269   5.939
 5614TIP3    H216788   4.502   6.155   5.848
 5615TIP3   OH216789   5.258   1.003   1.026
 5615TIP3    H116790   5.331   1.011   1.087
 5615TIP3    H216791   5.210   1.086   1.036
 5616TIP3   OH216792   6.648   0.564   2.980
 5616TIP3    H116793   6.561   0.556   3.020
 5616TIP3    H216794   6.702   0.604   3.048
 5617TIP3   OH216795   3.522   2.940   6.240
 5617TIP3    H116796   3.482   2.889   6.310
 5617TIP3    H216797   3.447   2.977   6.193
 5618TIP3   OH216798   5.199   1.973   0.786
 5618TIP3    H116799   5.134   2.039   0.809
 5618TIP3    H216800   5.234   2.002   0.701
 5619TIP3   OH216801   6.134   1.466   0.264
 5619TIP3    H116802   6.060   1.497   0.316
 5619TIP3    H216803   6.095   1.407   0.199
 5620TIP3   OH216804   5.842   5.187   4.877
 5620TIP3    H116805   5.751   5.207   4.854
 5620TIP3    H216806   5.894   5.229   4.808
 5621TIP3   OH216807   2.492   2.148   2.469
 5621TIP3    H116808   2.477   2.111   2.382
 5621TIP3    H216809   2.437   2.227   2.472
 5622TIP3   OH216810   5.386   3.043   3.478
 5622TIP3    H116811   5.334   2.964   3.493
 5622TIP3    H216812   5.462   3.013   3.429
 5623TIP3   OH216813   5.458   7.551   1.298
 5623TIP3    H116814   5.440   7.612   1.370
 5623TIP3    H216815   5.553   7.552   1.289
 5624TIP3   OH216816   3.933   2.548   5.485
 5624TIP3    H116817   3.872   2.529   5.413
 5624TIP3    H216818   3.904   2.492   5.557
 5625TIP3   OH216819   3.235   5.538   1.261
 5625TIP3    H116820   3.277   5.452   1.272
 5625TIP3    H216821   3.171   5.524   1.191
 5626TIP3   OH216822   2.537   4.997   4.280
 5626TIP3    H116823   2.509   4.960   4.196
 5626TIP3    H216824   2.503   5.086   4.279
 5627TIP3   OH216825   5.971   4.038   2.067
 5627TIP3    H116826   5.943   4.118   2.113
 5627TIP3    H216827   6.065   4.033   2.083
 5628TIP3   OH216828   6.034   5.895   1.054
 5628TIP3    H116829   5.949   5.864   1.086
 5628TIP3    H216830   6.065   5.956   1.122
 5629TIP3   OH216831   8.252   3.475   0.697
 5629TIP3    H116832   8.271   3.385   0.721
 5629TIP3    H216833   8.329   3.525   0.726
 5630TIP3   OH216834   8.166   5.311   5.206
 5630TIP3    H116835   8.081   5.290   5.244
 5630TIP3    H216836   8.203   5.378   5.264
 5631TIP3   OH216837   0.571   4.709   5.498
 5631TIP3    H116838   0.633   4.659   5.551
 5631TIP3    H216839   0.589   4.801   5.519
 5632TIP3   OH216840   4.266   2.718   4.065
 5632TIP3    H116841   4.247   2.716   3.971
 5632TIP3    H216842   4.360   2.704   4.071
 5633TIP3   OH216843   2.076   6.988   4.523
 5633TIP3    H116844   2.055   6.899   4.492
 5633TIP3    H216845   2.115   7.031   4.447
 5634TIP3   OH216846   5.901   5.559   4.556
 5634TIP3    H116847   5.814   5.598   4.566
 5634TIP3    H216848   5.955   5.604   4.621
 5635TIP3   OH216849   3.465   2.787   6.471
 5635TIP3    H116850   3.489   2.792   6.563
 5635TIP3    H216851   3.382   2.739   6.471
 5636TIP3   OH216852   0.817   4.751   2.801
 5636TIP3    H116853   0.906   4.764   2.835
 5636TIP3    H216854   0.824   4.673   2.746
 5637TIP3   OH216855   2.142   4.667   3.326
 5637TIP3    H116856   2.121   4.695   3.237
 5637TIP3    H216857   2.071   4.702   3.380
 5638TIP3   OH216858   0.093   4.708   0.529
 5638TIP3    H116859   0.051   4.736   0.610
 5638TIP3    H216860   0.122   4.790   0.488
 5639TIP3   OH216861   7.549   0.535   0.312
 5639TIP3    H116862   7.633   0.557   0.352
 5639TIP3    H216863   7.572   0.492   0.230
 5640TIP3   OH216864   0.282   1.603   4.801
 5640TIP3    H116865   0.279   1.645   4.715
 5640TIP3    H216866   0.374   1.577   4.812
 5641TIP3   OH216867   4.791   0.360   3.458
 5641TIP3    H116868   4.715   0.415   3.477
 5641TIP3    H216869   4.860   0.422   3.436
 5642TIP3   OH216870   7.554   0.207   5.324
 5642TIP3    H116871   7.507   0.280   5.285
 5642TIP3    H216872   7.513   0.129   5.287
 5643TIP3   OH216873   4.708   5.144   1.632
 5643TIP3    H116874   4.654   5.084   1.580
 5643TIP3    H216875   4.769   5.087   1.679
 5644TIP3   OH216876   6.820   2.090   3.397
 5644TIP3    H116877   6.785   2.072   3.310
 5644TIP3    H216878   6.908   2.051   3.396
 5645TIP3   OH216879   4.959   5.088   3.062
 5645TIP3    H116880   4.871   5.080   3.026
 5645TIP3    H216881   5.011   5.025   3.011
 5646TIP3   OH216882   6.719   2.587   2.328
 5646TIP3    H116883   6.685   2.614   2.243
 5646TIP3    H216884   6.648   2.605   2.389
 5647TIP3   OH216885   0.521   1.851   3.024
 5647TIP3    H116886   0.445   1.889   2.979
 5647TIP3    H216887   0.510   1.757   3.014
 5648TIP3   OH216888   1.814   0.606   2.943
 5648TIP3    H116889   1.795   0.621   3.036
 5648TIP3    H216890   1.775   0.520   2.925
 5649TIP3   OH216891   1.451   1.834   1.997
 5649TIP3    H116892   1.500   1.809   1.919
 5649TIP3    H216893   1.359   1.829   1.971
 5650TIP3   OH216894   7.976   3.607   4.316
 5650TIP3    H116895   7.932   3.596   4.231
 5650TIP3    H216896   7.905   3.608   4.380
 5651TIP3   OH216897   5.724   1.991   4.455
 5651TIP3    H116898   5.748   2.083   4.442
 5651TIP3    H216899   5.802   1.951   4.495
 5652TIP3   OH216900   5.334   2.201   0.653
 5652TIP3    H116901   5.271   2.269   0.632
 5652TIP3    H216902   5.405   2.213   0.590
 5653TIP3   OH216903   2.272   6.629   1.986
 5653TIP3    H116904   2.319   6.580   2.054
 5653TIP3    H216905   2.266   6.569   1.913
 5654TIP3   OH216906   4.713   4.191   2.124
 5654TIP3    H116907   4.620   4.181   2.146
 5654TIP3    H216908   4.722   4.154   2.036
 5655TIP3   OH216909   6.479   3.195   5.717
 5655TIP3    H116910   6.459   3.267   5.777
 5655TIP3    H216911   6.533   3.234   5.649
 5656TIP3   OH216912   7.978   7.116   1.319
 5656TIP3    H116913   7.969   7.206   1.351
 5656TIP3    H216914   8.050   7.080   1.370
 5657TIP3   OH216915   4.191   2.920   3.270
 5657TIP3    H116916   4.211   2.826   3.270
 5657TIP3    H216917   4.277   2.962   3.265
 5658TIP3   OH216918   7.792   3.755   3.279
 5658TIP3    H116919   7.870   3.704   3.255
 5658TIP3    H216920   7.767   3.720   3.365
 5659TIP3   OH216921   4.908   1.936   2.834
 5659TIP3    H116922   4.875   1.901   2.917
 5659TIP3    H216923   4.842   2.000   2.807
 5660TIP3   OH216924   0.214   6.944   6.669
 5660TIP3    H116925   0.303   6.917   6.691
 5660TIP3    H216926   0.168   6.944   6.752
 5661TIP3   OH216927   6.270   7.591   5.522
 5661TIP3    H116928   6.255   7.685   5.523
 5661TIP3    H216929   6.366   7.582   5.523
 5662TIP3   OH216930   7.887   2.262   1.119
 5662TIP3    H116931   7.888   2.225   1.208
 5662TIP3    H216932   7.896   2.186   1.062
 5663TIP3   OH216933   4.024   6.206   2.620
 5663TIP3    H116934   4.079   6.248   2.685
 5663TIP3    H216935   4.026   6.265   2.544
 5664TIP3   OH216936   6.711   4.951   2.654
 5664TIP3    H116937   6.802   4.952   2.622
 5664TIP3    H216938   6.706   4.874   2.710
 5665TIP3   OH216939   6.398   0.672   0.509
 5665TIP3    H116940   6.481   0.720   0.501
 5665TIP3    H216941   6.361   0.675   0.420
 5666TIP3   OH216942   6.278   6.912   2.831
 5666TIP3    H116943   6.340   6.944   2.897
 5666TIP3    H216944   6.287   6.817   2.833
 5667TIP3   OH216945   2.320   2.782   2.324
 5667TIP3    H116946   2.291   2.814   2.409
 5667TIP3    H216947   2.239   2.770   2.274
 5668TIP3   OH216948   2.104   1.730   0.325
 5668TIP3    H116949   2.127   1.702   0.414
 5668TIP3    H216950   2.061   1.815   0.337
 5669TIP3   OH216951   8.147   3.137   1.554
 5669TIP3    H116952   8.171   3.223   1.519
 5669TIP3    H216953   8.231   3.095   1.573
 5670TIP3   OH216954   5.158   2.364   0.521
 5670TIP3    H116955   5.108   2.436   0.558
 5670TIP3    H216956   5.094   2.293   0.509
 5671TIP3   OH216957   0.267   6.349   4.414
 5671TIP3    H116958   0.321   6.360   4.336
 5671TIP3    H216959   0.213   6.428   4.417
 5672TIP3   OH216960   4.341   7.008   6.594
 5672TIP3    H116961   4.386   7.029   6.676
 5672TIP3    H216962   4.396   6.942   6.553
 5673TIP3   OH216963   1.216   4.713   4.762
 5673TIP3    H116964   1.206   4.805   4.786
 5673TIP3    H216965   1.251   4.714   4.673
 5674TIP3   OH216966   5.844   2.069   2.211
 5674TIP3    H116967   5.793   2.009   2.157
 5674TIP3    H216968   5.843   2.152   2.162
 5675TIP3   OH216969   4.757   1.732   3.467
 5675TIP3    H116970   4.766   1.687   3.383
 5675TIP3    H216971   4.700   1.676   3.519
 5676TIP3   OH216972   0.529   7.428   3.813
 5676TIP3    H116973   0.443   7.386   3.812
 5676TIP3    H216974   0.545   7.453   3.722
 5677TIP3   OH216975   7.984   2.511   1.195
 5677TIP3    H116976   7.932   2.570   1.140
 5677TIP3    H216977   7.984   2.428   1.146
 5678TIP3   OH216978   5.368   3.811   0.866
 5678TIP3    H116979   5.423   3.735   0.850
 5678TIP3    H216980   5.293   3.777   0.914
 5679TIP3   OH216981   5.387   1.455   3.292
 5679TIP3    H116982   5.440   1.532   3.274
 5679TIP3    H216983   5.406   1.434   3.383
 5680TIP3   OH216984   6.701   4.642   2.384
 5680TIP3    H116985   6.768   4.653   2.451
 5680TIP3    H216986   6.724   4.706   2.317
 5681TIP3   OH216987   4.683   5.874   2.232
 5681TIP3    H116988   4.753   5.822   2.270
 5681TIP3    H216989   4.709   5.887   2.141
 5682TIP3   OH216990   6.637   6.489   0.890
 5682TIP3    H116991   6.646   6.584   0.885
 5682TIP3    H216992   6.717   6.459   0.932
 5683TIP3   OH216993   3.270   3.234   3.723
 5683TIP3    H116994   3.250   3.310   3.668
 5683TIP3    H216995   3.366   3.228   3.722
 5684TIP3   OH216996   6.740   2.513   3.644
 5684TIP3    H116997   6.705   2.442   3.591
 5684TIP3    H216998   6.663   2.555   3.682
 5685TIP3   OH216999   7.653   5.932   2.572
 5685TIP3    H117000   7.566   5.936   2.611
 5685TIP3    H217001   7.710   5.905   2.643
 5686TIP3   OH217002   3.583   3.100   0.556
 5686TIP3    H117003   3.556   3.008   0.550
 5686TIP3    H217004   3.637   3.104   0.635
 5687TIP3   OH217005   0.666   3.301   5.979
 5687TIP3    H117006   0.596   3.269   6.036
 5687TIP3    H217007   0.659   3.396   5.985
 5688TIP3   OH217008   5.817   3.045   6.788
 5688TIP3    H117009   5.837   3.100   6.712
 5688TIP3    H217010   5.735   3.080   6.823
 5689TIP3   OH217011   1.858   4.539   2.029
 5689TIP3    H117012   1.873   4.471   1.963
 5689TIP3    H217013   1.914   4.513   2.102
 5690TIP3   OH217014   4.580   1.780   6.119
 5690TIP3    H117015   4.633   1.701   6.113
 5690TIP3    H217016   4.528   1.780   6.039
 5691TIP3   OH217017   6.575   2.555   6.270
 5691TIP3    H117018   6.549   2.617   6.201
 5691TIP3    H217019   6.497   2.502   6.285
 5692TIP3   OH217020   1.029   7.706   4.111
 5692TIP3    H117021   0.946   7.663   4.127
 5692TIP3    H217022   1.065   7.663   4.033
 5693TIP3   OH217023   6.313   6.362   2.332
 5693TIP3    H117024   6.265   6.280   2.319
 5693TIP3    H217025   6.305   6.408   2.248
 5694TIP3   OH217026   6.742   0.739   1.316
 5694TIP3    H117027   6.748   0.784   1.400
 5694TIP3    H217028   6.818   0.770   1.266
 5695TIP3   OH217029   7.355   7.415   5.102
 5695TIP3    H117030   7.449   7.401   5.106
 5695TIP3    H217031   7.345   7.510   5.099
 5696TIP3   OH217032   6.937   5.645   1.951
 5696TIP3    H117033   6.980   5.600   2.024
 5696TIP3    H217034   6.933   5.580   1.881
 5697TIP3   OH217035   3.747   1.549   0.219
 5697TIP3    H117036   3.808   1.495   0.170
 5697TIP3    H217037   3.689   1.487   0.263
 5698TIP3   OH217038   2.565   0.206   3.745
 5698TIP3    H117039   2.474   0.188   3.770
 5698TIP3    H217040   2.570   0.302   3.743
 5699TIP3   OH217041   7.455   3.225   4.956
 5699TIP3    H117042   7.449   3.287   5.028
 5699TIP3    H217043   7.402   3.150   4.985
 5700TIP3   OH217044   7.364   3.753   1.261
 5700TIP3    H117045   7.336   3.842   1.244
 5700TIP3    H217046   7.401   3.756   1.349
 5701TIP3   OH217047   2.296   5.001   6.092
 5701TIP3    H117048   2.204   4.992   6.065
 5701TIP3    H217049   2.329   4.911   6.093
 5702TIP3   OH217050   6.413   4.099   2.688
 5702TIP3    H117051   6.506   4.080   2.671
 5702TIP3    H217052   6.370   4.014   2.677
 5703TIP3   OH217053   6.644   6.179   2.442
 5703TIP3    H117054   6.624   6.242   2.373
 5703TIP3    H217055   6.571   6.186   2.503
 5704TIP3   OH217056   0.602   6.566   1.409
 5704TIP3    H117057   0.573   6.483   1.447
 5704TIP3    H217058   0.621   6.622   1.484
 5705TIP3   OH217059   3.289   6.627   1.933
 5705TIP3    H117060   3.330   6.542   1.949
 5705TIP3    H217061   3.359   6.690   1.948
 5706TIP3   OH217062   6.887   4.222   2.633
 5706TIP3    H117063   6.970   4.176   2.646
 5706TIP3    H217064   6.831   4.159   2.588
 5707TIP3   OH217065   7.716   5.994   5.044
 5707TIP3    H117066   7.692   5.902   5.028
 5707TIP3    H217067   7.719   6.002   5.139
 5708TIP3   OH217068   2.501   6.472   3.305
 5708TIP3    H117069   2.590   6.441   3.316
 5708TIP3    H217070   2.464   6.473   3.393
 5709TIP3   OH217071   5.317   4.355   2.069
 5709TIP3    H117072   5.232   4.366   2.027
 5709TIP3    H217073   5.339   4.263   2.055
 5710TIP3   OH217074   1.030   2.967   2.699
 5710TIP3    H117075   1.080   2.945   2.777
 5710TIP3    H217076   1.095   2.973   2.629
 5711TIP3   OH217077   5.241   4.709   5.161
 5711TIP3    H117078   5.217   4.791   5.119
 5711TIP3    H217079   5.217   4.641   5.098
 5712TIP3   OH217080   7.537   0.294   6.339
 5712TIP3    H117081   7.498   0.283   6.425
 5712TIP3    H217082   7.573   0.207   6.317
 5713TIP3   OH217083   4.172   6.419   6.530
 5713TIP3    H117084   4.186   6.512   6.510
 5713TIP3    H217085   4.086   6.400   6.492
 5714TIP3   OH217086   1.427   2.742   0.255
 5714TIP3    H117087   1.509   2.755   0.304
 5714TIP3    H217088   1.360   2.785   0.308
 5715TIP3   OH217089   4.860   2.637   0.528
 5715TIP3    H117090   4.779   2.597   0.560
 5715TIP3    H217091   4.832   2.692   0.455
 5716TIP3   OH217092   4.775   6.514   2.767
 5716TIP3    H117093   4.828   6.566   2.706
 5716TIP3    H217094   4.821   6.519   2.850
 5717TIP3   OH217095   6.870   4.782   4.723
 5717TIP3    H117096   6.913   4.780   4.809
 5717TIP3    H217097   6.796   4.722   4.732
 5718TIP3   OH217098   4.019   5.340   5.862
 5718TIP3    H117099   4.114   5.329   5.859
 5718TIP3    H217100   4.005   5.433   5.843
 5719TIP3   OH217101   2.053   1.267   1.766
 5719TIP3    H117102   1.978   1.298   1.817
 5719TIP3    H217103   2.058   1.326   1.691
 5720TIP3   OH217104   1.137   1.738   1.143
 5720TIP3    H117105   1.113   1.687   1.220
 5720TIP3    H217106   1.166   1.822   1.179
 5721TIP3   OH217107   4.965   7.132   5.703
 5721TIP3    H117108   4.953   7.098   5.614
 5721TIP3    H217109   5.025   7.069   5.744
 5722TIP3   OH217110   5.817   2.784   6.615
 5722TIP3    H117111   5.822   2.828   6.530
 5722TIP3    H217112   5.879   2.833   6.670
 5723TIP3   OH217113   4.628   1.300   4.341
 5723TIP3    H117114   4.710   1.350   4.348
 5723TIP3    H217115   4.656   1.210   4.325
 5724TIP3   OH217116   7.353   6.468   0.636
 5724TIP3    H117117   7.384   6.394   0.584
 5724TIP3    H217118   7.359   6.543   0.577
 5725TIP3   OH217119   5.815   0.246   2.080
 5725TIP3    H117120   5.826   0.279   1.991
 5725TIP3    H217121   5.892   0.192   2.096
 5726TIP3   OH217122   0.473   0.769   3.808
 5726TIP3    H117123   0.502   0.690   3.853
 5726TIP3    H217124   0.495   0.754   3.716
 5727TIP3   OH217125   2.749   6.367   3.332
 5727TIP3    H117126   2.795   6.422   3.269
 5727TIP3    H217127   2.746   6.281   3.290
 5728TIP3   OH217128   4.656   0.920   2.998
 5728TIP3    H117129   4.596   0.900   2.926
 5728TIP3    H217130   4.656   0.841   3.052
 5729TIP3   OH217131   4.128   1.816   1.211
 5729TIP3    H117132   4.117   1.738   1.266
 5729TIP3    H217133   4.055   1.873   1.237
 5730TIP3   OH217134   1.548   4.874   3.947
 5730TIP3    H117135   1.531   4.835   3.862
 5730TIP3    H217136   1.491   4.826   4.007
 5731TIP3   OH217137   1.580   4.807   1.960
 5731TIP3    H117138   1.647   4.751   2.000
 5731TIP3    H217139   1.500   4.754   1.963
 5732TIP3   OH217140   7.384   7.785   1.543
 5732TIP3    H117141   7.399   7.696   1.512
 5732TIP3    H217142   7.360   7.835   1.464
 5733TIP3   OH217143   0.692   3.329   0.655
 5733TIP3    H117144   0.598   3.350   0.653
 5733TIP3    H217145   0.731   3.388   0.591
 5734TIP3   OH217146   6.802   2.203   4.202
 5734TIP3    H117147   6.861   2.155   4.260
 5734TIP3    H217148   6.723   2.149   4.198
 5735TIP3   OH217149   4.335   7.450   4.360
 5735TIP3    H117150   4.390   7.458   4.283
 5735TIP3    H217151   4.390   7.406   4.425
 5736TIP3   OH217152   3.631   0.946   2.948
 5736TIP3    H117153   3.670   0.900   2.874
 5736TIP3    H217154   3.611   0.877   3.011
 5737TIP3   OH217155   1.203   2.110   2.829
 5737TIP3    H117156   1.186   2.193   2.874
 5737TIP3    H217157   1.232   2.136   2.742
 5738TIP3   OH217158   2.163   7.275   0.412
 5738TIP3    H117159   2.190   7.196   0.365
 5738TIP3    H217160   2.212   7.346   0.369
 5739TIP3   OH217161   5.283   7.352   1.319
 5739TIP3    H117162   5.310   7.281   1.261
 5739TIP3    H217163   5.363   7.402   1.335
 5740TIP3   OH217164   0.415   3.637   1.658
 5740TIP3    H117165   0.374   3.669   1.578
 5740TIP3    H217166   0.402   3.542   1.656
 5741TIP3   OH217167   0.283   0.841   1.559
 5741TIP3    H117168   0.365   0.793   1.552
 5741TIP3    H217169   0.290   0.910   1.493
 5742TIP3   OH217170   6.487   2.701   5.336
 5742TIP3    H117171   6.507   2.615   5.372
 5742TIP3    H217172   6.401   2.690   5.295
 5743TIP3   OH217173   1.575   6.544   0.664
 5743TIP3    H117174   1.650   6.569   0.609
 5743TIP3    H217175   1.504   6.600   0.633
 5744TIP3   OH217176   3.296   4.409   0.461
 5744TIP3    H117177   3.316   4.320   0.433
 5744TIP3    H217178   3.201   4.412   0.467
 5745TIP3   OH217179   6.229   0.921   2.048
 5745TIP3    H117180   6.193   0.894   2.133
 5745TIP3    H217181   6.248   0.839   2.003
 5746TIP3   OH217182   4.672   7.383   2.535
 5746TIP3    H117183   4.616   7.305   2.536
 5746TIP3    H217184   4.756   7.351   2.567
 5747TIP3   OH217185   2.033   0.259   2.265
 5747TIP3    H117186   2.054   0.311   2.343
 5747TIP3    H217187   2.118   0.224   2.237
 5748TIP3   OH217188   3.024   3.160   5.080
 5748TIP3    H117189   3.053   3.221   5.014
 5748TIP3    H217190   2.969   3.212   5.139
 5749TIP3   OH217191   6.032   2.530   0.585
 5749TIP3    H117192   5.974   2.602   0.559
 5749TIP3    H217193   6.091   2.518   0.511
 5750TIP3   OH217194   6.283   2.225   0.906
 5750TIP3    H117195   6.357   2.286   0.912
 5750TIP3    H217196   6.209   2.281   0.879
 5751TIP3   OH217197   6.385   7.189   6.756
 5751TIP3    H117198   6.435   7.117   6.796
 5751TIP3    H217199   6.345   7.150   6.678
 5752TIP3   OH217200   5.268   4.634   4.169
 5752TIP3    H117201   5.235   4.713   4.212
 5752TIP3    H217202   5.363   4.639   4.179
 5753TIP3   OH217203   5.801   1.531   5.375
 5753TIP3    H117204   5.846   1.456   5.414
 5753TIP3    H217205   5.812   1.518   5.281
 5754TIP3   OH217206   0.048   4.307   1.616
 5754TIP3    H117207   0.111   4.326   1.685
 5754TIP3    H217208  -0.037   4.313   1.660
 5755TIP3   OH217209   1.527   7.637   2.315
 5755TIP3    H117210   1.447   7.591   2.340
 5755TIP3    H217211   1.591   7.614   2.382
 5756TIP3   OH217212   8.049   6.773   0.731
 5756TIP3    H117213   8.141   6.775   0.758
 5756TIP3    H217214   8.008   6.844   0.780
 5757TIP3   OH217215   7.949   7.505   0.045
 5757TIP3    H117216   7.993   7.498  -0.039
 5757TIP3    H217217   8.010   7.554   0.100
 5758TIP3   OH217218   5.498   6.040   1.496
 5758TIP3    H117219   5.540   5.988   1.427
 5758TIP3    H217220   5.485   6.126   1.456
 5759TIP3   OH217221   0.342   1.654   6.471
 5759TIP3    H117222   0.311   1.612   6.391
 5759TIP3    H217223   0.428   1.690   6.447
 5760TIP3   OH217224   4.734   6.309   4.759
 5760TIP3    H117225   4.722   6.232   4.814
 5760TIP3    H217226   4.801   6.360   4.804
 5761TIP3   OH217227   5.507   4.744   6.437
 5761TIP3    H117228   5.479   4.666   6.389
 5761TIP3    H217229   5.560   4.710   6.510
 5762TIP3   OH217230   3.802   7.381   4.673
 5762TIP3    H117231   3.763   7.424   4.749
 5762TIP3    H217232   3.732   7.326   4.638
 5763TIP3   OH217233   2.603   5.470   5.407
 5763TIP3    H117234   2.573   5.484   5.318
 5763TIP3    H217235   2.573   5.546   5.456
 5764TIP3   OH217236   1.177   0.373   3.964
 5764TIP3    H117237   1.196   0.467   3.973
 5764TIP3    H217238   1.254   0.336   3.922
 5765TIP3   OH217239   7.695   4.476   0.487
 5765TIP3    H117240   7.743   4.537   0.543
 5765TIP3    H217241   7.716   4.504   0.398
 5766TIP3   OH217242   7.581   3.178   6.257
 5766TIP3    H117243   7.621   3.201   6.173
 5766TIP3    H217244   7.509   3.118   6.234
 5767TIP3   OH217245   0.591   0.771   2.302
 5767TIP3    H117246   0.524   0.722   2.350
 5767TIP3    H217247   0.660   0.787   2.366
 5768TIP3   OH217248   3.318   6.667   0.303
 5768TIP3    H117249   3.339   6.755   0.336
 5768TIP3    H217250   3.277   6.683   0.217
 5769TIP3   OH217251   0.484   1.819   6.171
 5769TIP3    H117252   0.492   1.835   6.266
 5769TIP3    H217253   0.390   1.816   6.155
 5770TIP3   OH217254   5.789   7.026   6.472
 5770TIP3    H117255   5.874   7.055   6.505
 5770TIP3    H217256   5.726   7.078   6.522
 5771TIP3   OH217257   3.722   3.440   1.939
 5771TIP3    H117258   3.704   3.515   1.996
 5771TIP3    H217259   3.786   3.388   1.987
 5772TIP3   OH217260   3.767   4.485   5.651
 5772TIP3    H117261   3.747   4.395   5.623
 5772TIP3    H217262   3.773   4.535   5.569
 5773TIP3   OH217263   7.439   7.525   3.538
 5773TIP3    H117264   7.450   7.460   3.468
 5773TIP3    H217265   7.377   7.484   3.598
 5774TIP3   OH217266   6.148   2.147   5.219
 5774TIP3    H117267   6.135   2.053   5.235
 5774TIP3    H217268   6.242   2.161   5.233
 5775TIP3   OH217269   3.216   0.548   5.348
 5775TIP3    H117270   3.247   0.631   5.312
 5775TIP3    H217271   3.123   0.545   5.326
 5776TIP3   OH217272   1.154   3.672   3.669
 5776TIP3    H117273   1.065   3.638   3.670
 5776TIP3    H217274   1.147   3.757   3.624
 5777TIP3   OH217275   3.172   1.206   1.091
 5777TIP3    H117276   3.135   1.294   1.085
 5777TIP3    H217277   3.220   1.194   1.009
 5778TIP3   OH217278   5.890   3.622   5.430
 5778TIP3    H117279   5.903   3.603   5.523
 5778TIP3    H217280   5.844   3.706   5.430
 5779TIP3   OH217281   7.137   2.837   0.378
 5779TIP3    H117282   7.138   2.745   0.405
 5779TIP3    H217283   7.176   2.837   0.291
 5780TIP3   OH217284   6.495   6.725   3.326
 5780TIP3    H117285   6.511   6.678   3.244
 5780TIP3    H217286   6.431   6.671   3.372
 5781TIP3   OH217287   4.986   2.496   2.899
 5781TIP3    H117288   5.002   2.406   2.870
 5781TIP3    H217289   4.896   2.495   2.930
 5782TIP3   OH217290   7.290   0.144   3.021
 5782TIP3    H117291   7.213   0.099   2.987
 5782TIP3    H217292   7.324   0.086   3.089
 5783TIP3   OH217293   1.477   1.668   2.861
 5783TIP3    H117294   1.488   1.763   2.872
 5783TIP3    H217295   1.390   1.650   2.898
 5784TIP3   OH217296   1.939   1.133   0.289
 5784TIP3    H117297   1.955   1.094   0.203
 5784TIP3    H217298   2.009   1.099   0.344
 5785TIP3   OH217299   3.887   5.566   2.249
 5785TIP3    H117300   3.958   5.628   2.229
 5785TIP3    H217301   3.931   5.490   2.285
 5786TIP3   OH217302   0.704   7.401   4.655
 5786TIP3    H117303   0.726   7.428   4.744
 5786TIP3    H217304   0.661   7.316   4.665
 5787TIP3   OH217305   6.416   6.183   3.970
 5787TIP3    H117306   6.360   6.172   4.046
 5787TIP3    H217307   6.365   6.236   3.909
 5788TIP3   OH217308   6.222   3.418   5.649
 5788TIP3    H117309   6.296   3.422   5.709
 5788TIP3    H217310   6.189   3.508   5.646
 5789TIP3   OH217311   5.599   7.156   6.633
 5789TIP3    H117312   5.648   7.234   6.609
 5789TIP3    H217313   5.532   7.187   6.694
 5790TIP3   OH217314   6.274   5.202   3.803
 5790TIP3    H117315   6.261   5.226   3.711
 5790TIP3    H217316   6.198   5.238   3.848
 5791TIP3   OH217317   2.485   1.628   4.688
 5791TIP3    H117318   2.497   1.547   4.738
 5791TIP3    H217319   2.563   1.679   4.706
 5792TIP3   OH217320   2.590   5.025   3.595
 5792TIP3    H117321   2.595   5.078   3.675
 5792TIP3    H217322   2.674   5.037   3.552
 5793TIP3   OH217323   8.295   0.045   3.326
 5793TIP3    H117324   8.214  -0.007   3.326
 5793TIP3    H217325   8.268   0.132   3.297
 5794TIP3   OH217326   7.143   0.645   1.793
 5794TIP3    H117327   7.078   0.697   1.747
 5794TIP3    H217328   7.146   0.562   1.745
 5795TIP3   OH217329   3.259   1.212   0.537
 5795TIP3    H117330   3.290   1.187   0.451
 5795TIP3    H217331   3.189   1.150   0.556
 5796TIP3   OH217332   2.900   1.049   0.851
 5796TIP3    H117333   2.806   1.062   0.842
 5796TIP3    H217334   2.937   1.137   0.849
 5797TIP3   OH217335   1.318   7.139   5.652
 5797TIP3    H117336   1.342   7.148   5.560
 5797TIP3    H217337   1.400   7.147   5.700
 5798TIP3   OH217338   7.758   5.049   1.491
 5798TIP3    H117339   7.747   4.963   1.451
 5798TIP3    H217340   7.835   5.039   1.547
 5799TIP3   OH217341   0.287   3.516   3.061
 5799TIP3    H117342   0.285   3.444   2.999
 5799TIP3    H217343   0.380   3.532   3.077
 5800TIP3   OH217344   4.673   4.372   5.357
 5800TIP3    H117345   4.639   4.289   5.389
 5800TIP3    H217346   4.615   4.395   5.285
 5801TIP3   OH217347   0.069   5.879   4.424
 5801TIP3    H117348  -0.010   5.844   4.464
 5801TIP3    H217349   0.124   5.904   4.498
 5802TIP3   OH217350   5.469   6.860   3.408
 5802TIP3    H117351   5.426   6.941   3.384
 5802TIP3    H217352   5.416   6.824   3.478
 5803TIP3   OH217353   1.558   0.043   5.978
 5803TIP3    H117354   1.467   0.068   5.961
 5803TIP3    H217355   1.600   0.043   5.892
 5804TIP3   OH217356   4.002   3.096   5.058
 5804TIP3    H117357   3.935   3.033   5.029
 5804TIP3    H217358   4.067   3.042   5.103
 5805TIP3   OH217359   0.405   0.269   2.258
 5805TIP3    H117360   0.468   0.336   2.230
 5805TIP3    H217361   0.321   0.315   2.259
 5806TIP3   OH217362   3.491   5.441   2.787
 5806TIP3    H117363   3.402   5.461   2.818
 5806TIP3    H217364   3.510   5.510   2.724
 5807TIP3   OH217365   4.017   0.847   1.283
 5807TIP3    H117366   4.097   0.894   1.305
 5807TIP3    H217367   4.001   0.867   1.191
 5808TIP3   OH217368   5.346   0.429   3.991
 5808TIP3    H117369   5.329   0.392   4.078
 5808TIP3    H217370   5.308   0.517   3.995
 5809TIP3   OH217371   0.753   1.751   3.297
 5809TIP3    H117372   0.731   1.658   3.291
 5809TIP3    H217373   0.733   1.775   3.387
 5810TIP3   OH217374   3.666   5.157   2.371
 5810TIP3    H117375   3.651   5.251   2.379
 5810TIP3    H217376   3.616   5.118   2.443
 5811TIP3   OH217377   7.559   0.473   0.583
 5811TIP3    H117378   7.475   0.459   0.628
 5811TIP3    H217379   7.543   0.444   0.493
 5812TIP3   OH217380  -0.019   1.567   0.850
 5812TIP3    H117381   0.050   1.559   0.784
 5812TIP3    H217382  -0.026   1.661   0.866
 5813TIP3   OH217383   2.531   1.100   6.262
 5813TIP3    H117384   2.589   1.045   6.314
 5813TIP3    H217385   2.443   1.081   6.297
 5814TIP3   OH217386   6.923   3.305   6.703
 5814TIP3    H117387   6.938   3.399   6.693
 5814TIP3    H217388   6.940   3.288   6.796
 5815TIP3   OH217389   5.906   6.454   5.056
 5815TIP3    H117390   5.866   6.541   5.062
 5815TIP3    H217391   5.987   6.462   5.106
 5816TIP3   OH217392   1.189   7.024   5.260
 5816TIP3    H117393   1.177   6.954   5.195
 5816TIP3    H217394   1.101   7.057   5.278
 5817TIP3   OH217395   1.868   6.009   0.498
 5817TIP3    H117396   1.785   6.003   0.545
 5817TIP3    H217397   1.909   6.089   0.532
 5818TIP3   OH217398   4.539   1.538   3.903
 5818TIP3    H117399   4.543   1.533   3.999
 5818TIP3    H217400   4.599   1.609   3.880
 5819TIP3   OH217401   5.570   6.440   1.813
 5819TIP3    H117402   5.580   6.357   1.767
 5819TIP3    H217403   5.505   6.422   1.881
 5820TIP3   OH217404   4.347   0.301   3.535
 5820TIP3    H117405   4.366   0.208   3.553
 5820TIP3    H217406   4.313   0.335   3.618
 5821TIP3   OH217407   3.532   1.912   0.549
 5821TIP3    H117408   3.565   1.859   0.477
 5821TIP3    H217409   3.441   1.886   0.559
 5822TIP3   OH217410   5.962   6.309   6.262
 5822TIP3    H117411   5.988   6.285   6.351
 5822TIP3    H217412   6.016   6.385   6.241
 5823TIP3   OH217413   3.249   2.192   6.764
 5823TIP3    H117414   3.332   2.147   6.747
 5823TIP3    H217415   3.192   2.165   6.693
 5824TIP3   OH217416   3.856   1.351   6.312
 5824TIP3    H117417   3.923   1.285   6.293
 5824TIP3    H217418   3.774   1.301   6.314
 5825TIP3   OH217419   5.277   0.344   1.254
 5825TIP3    H117420   5.303   0.427   1.294
 5825TIP3    H217421   5.354   0.315   1.206
 5826TIP3   OH217422   2.754   4.388   3.347
 5826TIP3    H117423   2.702   4.329   3.401
 5826TIP3    H217424   2.734   4.363   3.257
 5827TIP3   OH217425   3.808   0.333   2.477
 5827TIP3    H117426   3.785   0.423   2.454
 5827TIP3    H217427   3.854   0.300   2.399
 5828TIP3   OH217428   1.166   1.561   2.367
 5828TIP3    H117429   1.219   1.593   2.294
 5828TIP3    H217430   1.224   1.500   2.413
 5829TIP3   OH217431   6.253   5.656   2.776
 5829TIP3    H117432   6.228   5.578   2.826
 5829TIP3    H217433   6.315   5.702   2.832
 5830TIP3   OH217434   2.602   0.658   0.487
 5830TIP3    H117435   2.690   0.622   0.476
 5830TIP3    H217436   2.552   0.624   0.413
 5831TIP3   OH217437   8.001   2.856   1.521
 5831TIP3    H117438   7.929   2.907   1.558
 5831TIP3    H217439   8.072   2.919   1.510
 5832TIP3   OH217440   3.765   7.385   0.258
 5832TIP3    H117441   3.804   7.298   0.248
 5832TIP3    H217442   3.780   7.407   0.350
 5833TIP3   OH217443   2.864   1.391   5.496
 5833TIP3    H117444   2.877   1.297   5.505
 5833TIP3    H217445   2.937   1.420   5.442
 5834TIP3   OH217446   1.324   4.456   4.815
 5834TIP3    H117447   1.273   4.536   4.821
 5834TIP3    H217448   1.403   4.481   4.767
 5835TIP3   OH217449   1.690   1.469   5.876
 5835TIP3    H117450   1.643   1.442   5.797
 5835TIP3    H217451   1.624   1.514   5.929
 5836TIP3   OH217452   5.983   0.560   5.690
 5836TIP3    H117453   6.027   0.622   5.631
 5836TIP3    H217454   6.051   0.498   5.714
 5837TIP3   OH217455   4.091   4.497   4.732
 5837TIP3    H117456   4.029   4.509   4.804
 5837TIP3    H217457   4.097   4.402   4.722
 5838TIP3   OH217458   4.522   1.743   1.149
 5838TIP3    H117459   4.573   1.700   1.080
 5838TIP3    H217460   4.431   1.724   1.126
 5839TIP3   OH217461   1.086   1.010   4.717
 5839TIP3    H117462   1.088   0.927   4.670
 5839TIP3    H217463   1.042   0.990   4.800
 5840TIP3   OH217464   7.049   5.438   4.583
 5840TIP3    H117465   6.994   5.421   4.659
 5840TIP3    H217466   7.058   5.354   4.540
 5841TIP3   OH217467   3.250   2.444   1.578
 5841TIP3    H117468   3.277   2.370   1.524
 5841TIP3    H217469   3.327   2.465   1.631
 5842TIP3   OH217470   5.831   7.405   5.184
 5842TIP3    H117471   5.769   7.382   5.253
 5842TIP3    H217472   5.888   7.470   5.225
 5843TIP3   OH217473   5.628   4.445   3.583
 5843TIP3    H117474   5.708   4.447   3.635
 5843TIP3    H217475   5.616   4.353   3.560
 5844TIP3   OH217476   2.610   5.309   0.067
 5844TIP3    H117477   2.605   5.287  -0.026
 5844TIP3    H217478   2.601   5.404   0.070
 5845TIP3   OH217479   1.502   6.607   1.839
 5845TIP3    H117480   1.593   6.579   1.843
 5845TIP3    H217481   1.456   6.536   1.795
 5846TIP3   OH217482   4.466   3.449   5.193
 5846TIP3    H117483   4.439   3.489   5.276
 5846TIP3    H217484   4.426   3.362   5.196
 5847TIP3   OH217485   8.137   5.165   2.601
 5847TIP3    H117486   8.111   5.248   2.640
 5847TIP3    H217487   8.209   5.134   2.657
 5848TIP3   OH217488   4.340   0.751   1.406
 5848TIP3    H117489   4.343   0.833   1.356
 5848TIP3    H217490   4.427   0.744   1.447
 5849TIP3   OH217491   5.808   0.138   5.783
 5849TIP3    H117492   5.862   0.207   5.821
 5849TIP3    H217493   5.854   0.057   5.803
 5850TIP3   OH217494   3.244   5.096   4.209
 5850TIP3    H117495   3.310   5.166   4.217
 5850TIP3    H217496   3.208   5.107   4.121
 5851TIP3   OH217497   5.808   4.134   4.137
 5851TIP3    H117498   5.732   4.102   4.089
 5851TIP3    H217499   5.876   4.144   4.071
 5852TIP3   OH217500   0.147   5.106   5.346
 5852TIP3    H117501   0.236   5.097   5.381
 5852TIP3    H217502   0.131   5.024   5.300
 5853TIP3   OH217503   4.190   3.924   3.099
 5853TIP3    H117504   4.215   4.003   3.147
 5853TIP3    H217505   4.220   3.940   3.009
 5854TIP3   OH217506   3.288   1.484   6.543
 5854TIP3    H117507   3.222   1.417   6.557
 5854TIP3    H217508   3.347   1.476   6.619
 5855TIP3   OH217509   0.309   6.691   0.487
 5855TIP3    H117510   0.316   6.781   0.456
 5855TIP3    H217511   0.223   6.686   0.529
 5856TIP3   OH217512   1.577   5.347   3.979
 5856TIP3    H117513   1.601   5.335   3.887
 5856TIP3    H217514   1.520   5.273   3.999
 5857TIP3   OH217515   3.368   7.178   0.528
 5857TIP3    H117516   3.314   7.100   0.536
 5857TIP3    H217517   3.358   7.223   0.612
 5858TIP3   OH217518   2.570   2.684   2.345
 5858TIP3    H117519   2.560   2.618   2.414
 5858TIP3    H217520   2.482   2.721   2.335
 5859TIP3   OH217521   3.455   6.933   4.792
 5859TIP3    H117522   3.550   6.919   4.795
 5859TIP3    H217523   3.422   6.891   4.872
 5860TIP3   OH217524   5.444   2.734   5.999
 5860TIP3    H117525   5.417   2.654   5.953
 5860TIP3    H217526   5.537   2.743   5.980
 5861TIP3   OH217527   4.266   6.982   1.937
 5861TIP3    H117528   4.349   6.942   1.912
 5861TIP3    H217529   4.269   6.985   2.033
 5862TIP3   OH217530   0.015   0.767   1.595
 5862TIP3    H117531  -0.006   0.822   1.671
 5862TIP3    H217532   0.106   0.790   1.575
 5863TIP3   OH217533   2.232   5.401   2.716
 5863TIP3    H117534   2.256   5.326   2.662
 5863TIP3    H217535   2.277   5.386   2.799
 5864TIP3   OH217536   2.056   7.222   0.038
 5864TIP3    H117537   1.998   7.149   0.013
 5864TIP3    H217538   2.005   7.274   0.099
 5865TIP3   OH217539   3.818   4.695   4.515
 5865TIP3    H117540   3.876   4.768   4.493
 5865TIP3    H217541   3.748   4.735   4.567
 5866TIP3   OH217542   0.361   0.847   0.748
 5866TIP3    H117543   0.326   0.774   0.799
 5866TIP3    H217544   0.303   0.920   0.769
 5867TIP3   OH217545   0.087   3.574   5.496
 5867TIP3    H117546   0.006   3.528   5.520
 5867TIP3    H217547   0.155   3.533   5.549
 5868TIP3   OH217548   5.365   0.994   4.484
 5868TIP3    H117549   5.295   1.059   4.486
 5868TIP3    H217550   5.336   0.930   4.418
 5869TIP3   OH217551   2.397   4.400   1.884
 5869TIP3    H117552   2.452   4.425   1.809
 5869TIP3    H217553   2.365   4.312   1.862
 5870TIP3   OH217554   8.007   2.801   6.458
 5870TIP3    H117555   8.027   2.891   6.433
 5870TIP3    H217556   7.917   2.805   6.491
 5871TIP3   OH217557   2.890   7.746   3.558
 5871TIP3    H117558   2.950   7.777   3.490
 5871TIP3    H217559   2.924   7.660   3.583
 5872TIP3   OH217560   0.568   5.751   3.381
 5872TIP3    H117561   0.587   5.844   3.368
 5872TIP3    H217562   0.473   5.747   3.392
 5873TIP3   OH217563   2.651   2.746   3.901
 5873TIP3    H117564   2.700   2.734   3.982
 5873TIP3    H217565   2.578   2.684   3.907
 5874TIP3   OH217566   7.717   3.019   1.525
 5874TIP3    H117567   7.657   2.951   1.556
 5874TIP3    H217568   7.755   2.982   1.445
 5875TIP3   OH217569   1.037   7.651   6.083
 5875TIP3    H117570   1.063   7.559   6.079
 5875TIP3    H217571   1.004   7.670   5.995
 5876TIP3   OH217572   2.455   5.013   2.165
 5876TIP3    H117573   2.415   4.940   2.118
 5876TIP3    H217574   2.549   4.998   2.158
 5877TIP3   OH217575   6.089   1.678   4.107
 5877TIP3    H117576   6.132   1.732   4.174
 5877TIP3    H217577   6.158   1.662   4.042
 5878TIP3   OH217578   7.136   0.693   0.855
 5878TIP3    H117579   7.139   0.640   0.934
 5878TIP3    H217580   7.172   0.636   0.787
 5879TIP3   OH217581   4.638   3.858   0.098
 5879TIP3    H117582   4.729   3.833   0.084
 5879TIP3    H217583   4.618   3.825   0.186
 5880TIP3   OH217584   7.530   6.955   2.213
 5880TIP3    H117585   7.545   7.047   2.231
 5880TIP3    H217586   7.614   6.913   2.232
 5881TIP3   OH217587   6.480   7.650   6.063
 5881TIP3    H117588   6.413   7.709   6.028
 5881TIP3    H217589   6.536   7.629   5.988
 5882TIP3   OH217590   0.463   1.484   2.316
 5882TIP3    H117591   0.388   1.428   2.332
 5882TIP3    H217592   0.497   1.455   2.232
 5883TIP3   OH217593   6.051   0.104   2.111
 5883TIP3    H117594   6.113   0.058   2.053
 5883TIP3    H217595   6.061   0.061   2.196
 5884TIP3   OH217596   5.024   2.881   1.509
 5884TIP3    H117597   5.057   2.858   1.596
 5884TIP3    H217598   4.982   2.801   1.478
 5885TIP3   OH217599   7.122   2.148   5.703
 5885TIP3    H117600   7.197   2.099   5.669
 5885TIP3    H217601   7.054   2.136   5.637
 5886TIP3   OH217602   2.760   5.409   0.341
 5886TIP3    H117603   2.849   5.392   0.310
 5886TIP3    H217604   2.744   5.341   0.406
 5887TIP3   OH217605   7.414   3.914   2.033
 5887TIP3    H117606   7.442   3.852   1.966
 5887TIP3    H217607   7.493   3.933   2.083
 5888TIP3   OH217608   7.393   2.238   3.340
 5888TIP3    H117609   7.361   2.327   3.358
 5888TIP3    H217610   7.486   2.250   3.320
 5889TIP3   OH217611   1.667   3.863   4.661
 5889TIP3    H117612   1.634   3.808   4.590
 5889TIP3    H217613   1.740   3.912   4.622
 5890TIP3   OH217614   4.678   0.699   6.404
 5890TIP3    H117615   4.770   0.676   6.419
 5890TIP3    H217616   4.630   0.619   6.426
 5891TIP3   OH217617   2.790   4.113   5.064
 5891TIP3    H117618   2.764   4.042   5.123
 5891TIP3    H217619   2.885   4.102   5.054
 5892TIP3   OH217620   0.741   1.545   1.481
 5892TIP3    H117621   0.647   1.531   1.482
 5892TIP3    H217622   0.758   1.607   1.552
 5893TIP3   OH217623   7.377   2.199   0.618
 5893TIP3    H117624   7.421   2.128   0.667
 5893TIP3    H217625   7.412   2.279   0.656
 5894TIP3   OH217626   0.053   0.372   1.132
 5894TIP3    H117627   0.054   0.454   1.182
 5894TIP3    H217628   0.130   0.325   1.164
 5895TIP3   OH217629   0.238   6.319   0.532
 5895TIP3    H117630   0.303   6.346   0.597
 5895TIP3    H217631   0.154   6.328   0.577
 5896TIP3   OH217632   6.728   6.656   5.825
 5896TIP3    H117633   6.666   6.711   5.778
 5896TIP3    H217634   6.726   6.573   5.779
 5897TIP3   OH217635   7.756   4.874   2.435
 5897TIP3    H117636   7.736   4.922   2.516
 5897TIP3    H217637   7.848   4.894   2.417
 5898TIP3   OH217638   0.344   2.428   3.468
 5898TIP3    H117639   0.372   2.476   3.390
 5898TIP3    H217640   0.366   2.337   3.449
 5899TIP3   OH217641   2.165   4.974   6.378
 5899TIP3    H117642   2.243   4.942   6.332
 5899TIP3    H217643   2.198   5.009   6.461
 5900TIP3   OH217644   7.193   1.602   0.107
 5900TIP3    H117645   7.283   1.581   0.134
 5900TIP3    H217646   7.194   1.592   0.012
 5901TIP3   OH217647   5.762   3.988   6.090
 5901TIP3    H117648   5.813   4.042   6.030
 5901TIP3    H217649   5.748   3.906   6.043
 5902TIP3   OH217650   7.223   2.989   2.651
 5902TIP3    H117651   7.227   3.011   2.744
 5902TIP3    H217652   7.184   2.902   2.648
 5903TIP3   OH217653   5.049   5.784   6.072
 5903TIP3    H117654   4.953   5.777   6.068
 5903TIP3    H217655   5.066   5.877   6.058
 5904TIP3   OH217656   7.291   3.135   3.305
 5904TIP3    H117657   7.332   3.220   3.292
 5904TIP3    H217658   7.283   3.127   3.400
 5905TIP3   OH217659   0.678   1.688   5.562
 5905TIP3    H117660   0.691   1.729   5.648
 5905TIP3    H217661   0.619   1.747   5.516
 5906TIP3   OH217662   7.843   5.791   6.414
 5906TIP3    H117663   7.935   5.819   6.420
 5906TIP3    H217664   7.795   5.872   6.398
 5907TIP3   OH217665   0.120   7.206   3.707
 5907TIP3    H117666   0.051   7.172   3.764
 5907TIP3    H217667   0.114   7.152   3.628
 5908TIP3   OH217668   3.614   0.605   2.981
 5908TIP3    H117669   3.699   0.563   2.968
 5908TIP3    H217670   3.623   0.654   3.063
 5909TIP3   OH217671   5.790   2.167   1.901
 5909TIP3    H117672   5.848   2.233   1.864
 5909TIP3    H217673   5.702   2.199   1.882
 5910TIP3   OH217674   4.168   3.363   1.881
 5910TIP3    H117675   4.117   3.282   1.875
 5910TIP3    H217676   4.255   3.335   1.907
 5911TIP3   OH217677   0.299   3.654   4.679
 5911TIP3    H117678   0.231   3.699   4.630
 5911TIP3    H217679   0.260   3.570   4.704
 5912TIP3   OH217680   6.985   2.654   3.436
 5912TIP3    H117681   7.067   2.702   3.424
 5912TIP3    H217682   6.958   2.629   3.348
 5913TIP3   OH217683   4.875   7.201   4.402
 5913TIP3    H117684   4.955   7.160   4.369
 5913TIP3    H217685   4.806   7.138   4.383
 5914TIP3   OH217686   6.351   3.637   1.430
 5914TIP3    H117687   6.282   3.621   1.495
 5914TIP3    H217688   6.416   3.569   1.447
 5915TIP3   OH217689   2.903   6.212   4.996
 5915TIP3    H117690   2.935   6.226   5.085
 5915TIP3    H217691   2.855   6.129   5.001
 5916TIP3   OH217692   2.009   5.937   3.895
 5916TIP3    H117693   2.044   5.848   3.898
 5916TIP3    H217694   2.073   5.989   3.943
 5917TIP3   OH217695   1.247   1.292   2.155
 5917TIP3    H117696   1.165   1.331   2.124
 5917TIP3    H217697   1.253   1.318   2.247
 5918TIP3   OH217698   7.271   4.722   0.968
 5918TIP3    H117699   7.234   4.781   0.903
 5918TIP3    H217700   7.341   4.676   0.921
 5919TIP3   OH217701   6.014   3.291   0.145
 5919TIP3    H117702   6.093   3.323   0.189
 5919TIP3    H217703   5.942   3.330   0.194
 5920TIP3   OH217704   3.457   2.228   1.964
 5920TIP3    H117705   3.408   2.181   1.896
 5920TIP3    H217706   3.424   2.191   2.046
 5921TIP3   OH217707   6.198   7.203   3.197
 5921TIP3    H117708   6.264   7.269   3.177
 5921TIP3    H217709   6.207   7.187   3.290
 5922TIP3   OH217710   3.703   0.571   2.402
 5922TIP3    H117711   3.613   0.604   2.404
 5922TIP3    H217712   3.755   0.646   2.374
 5923TIP3   OH217713   3.123   7.501   6.760
 5923TIP3    H117714   3.177   7.504   6.839
 5923TIP3    H217715   3.186   7.512   6.688
 5924TIP3   OH217716   7.766   1.338   3.119
 5924TIP3    H117717   7.728   1.354   3.206
 5924TIP3    H217718   7.699   1.370   3.058
 5925TIP3   OH217719   1.933   7.667   2.740
 5925TIP3    H117720   1.955   7.579   2.711
 5925TIP3    H217721   1.965   7.724   2.670
 5926TIP3   OH217722   3.655   6.272   6.102
 5926TIP3    H117723   3.722   6.340   6.093
 5926TIP3    H217724   3.687   6.217   6.173
 5927TIP3   OH217725   4.553   3.115   4.024
 5927TIP3    H117726   4.620   3.069   3.974
 5927TIP3    H217727   4.543   3.199   3.979
 5928TIP3   OH217728   0.885   6.125   0.590
 5928TIP3    H117729   0.947   6.197   0.602
 5928TIP3    H217730   0.800   6.168   0.577
 5929TIP3   OH217731   3.857   2.874   4.981
 5929TIP3    H117732   3.889   2.784   4.989
 5929TIP3    H217733   3.868   2.895   4.888
 5930TIP3   OH217734   7.195   0.099   5.330
 5930TIP3    H117735   7.131   0.062   5.268
 5930TIP3    H217736   7.244   0.023   5.362
 5931TIP3   OH217737   4.176   1.944   3.893
 5931TIP3    H117738   4.110   2.012   3.909
 5931TIP3    H217739   4.167   1.924   3.799
 5932TIP3   OH217740   3.898   6.058   2.387
 5932TIP3    H117741   3.962   6.041   2.457
 5932TIP3    H217742   3.870   6.148   2.402
 5933TIP3   OH217743   6.039   3.985   4.561
 5933TIP3    H117744   5.961   4.018   4.517
 5933TIP3    H217745   6.105   4.053   4.546
 5934TIP3   OH217746   2.394   3.385   4.837
 5934TIP3    H117747   2.347   3.451   4.785
 5934TIP3    H217748   2.340   3.373   4.915
 5935TIP3   OH217749   5.087   1.793   0.304
 5935TIP3    H117750   5.163   1.831   0.259
 5935TIP3    H217751   5.029   1.766   0.233
 5936TIP3   OH217752   3.840   0.184   3.007
 5936TIP3    H117753   3.826   0.171   2.913
 5936TIP3    H217754   3.830   0.096   3.044
 5937TIP3   OH217755   0.746   5.573   6.367
 5937TIP3    H117756   0.777   5.661   6.347
 5937TIP3    H217757   0.662   5.566   6.322
 5938TIP3   OH217758   0.972   4.942   0.797
 5938TIP3    H117759   1.060   4.977   0.790
 5938TIP3    H217760   0.982   4.847   0.788
 5939TIP3   OH217761   5.070   4.265   3.942
 5939TIP3    H117762   5.110   4.346   3.908
 5939TIP3    H217763   5.143   4.204   3.950
 5940TIP3   OH217764   3.337   4.280   4.764
 5940TIP3    H117765   3.281   4.240   4.830
 5940TIP3    H217766   3.305   4.370   4.756
 5941TIP3   OH217767   0.432   5.809   6.545
 5941TIP3    H117768   0.519   5.848   6.554
 5941TIP3    H217769   0.374   5.884   6.533
 5942TIP3   OH217770   5.203   0.351   3.462
 5942TIP3    H117771   5.211   0.417   3.531
 5942TIP3    H217772   5.293   0.325   3.443
 5943TIP3   OH217773   5.032   6.530  -0.029
 5943TIP3    H117774   5.028   6.570   0.058
 5943TIP3    H217775   5.105   6.468  -0.024
 5944TIP3   OH217776   6.965   4.359   2.327
 5944TIP3    H117777   6.991   4.421   2.395
 5944TIP3    H217778   7.016   4.386   2.250
 5945TIP3   OH217779   0.141   6.243   2.877
 5945TIP3    H117780   0.230   6.264   2.905
 5945TIP3    H217781   0.088   6.317   2.907
 5946TIP3   OH217782   2.401   6.499   6.644
 5946TIP3    H117783   2.428   6.552   6.720
 5946TIP3    H217784   2.366   6.562   6.582
 5947TIP3   OH217785   4.131   3.061   3.836
 5947TIP3    H117786   4.107   3.030   3.748
 5947TIP3    H217787   4.219   3.098   3.825
 5948TIP3   OH217788   6.015   7.701   3.083
 5948TIP3    H117789   5.938   7.758   3.092
 5948TIP3    H217790   6.050   7.721   2.996
 5949TIP3   OH217791   4.913   7.283   2.648
 5949TIP3    H117792   4.853   7.276   2.723
 5949TIP3    H217793   4.911   7.196   2.609
 5950TIP3   OH217794   7.934   2.080   2.160
 5950TIP3    H117795   8.009   2.022   2.166
 5950TIP3    H217796   7.961   2.149   2.099
 5951TIP3   OH217797   4.421   0.359   6.262
 5951TIP3    H117798   4.514   0.378   6.251
 5951TIP3    H217799   4.383   0.373   6.176
 5952TIP3   OH217800   5.496   6.920   2.217
 5952TIP3    H117801   5.568   6.927   2.154
 5952TIP3    H217802   5.446   6.844   2.187
 5953TIP3   OH217803   4.977   4.000   1.751
 5953TIP3    H117804   4.987   3.907   1.735
 5953TIP3    H217805   5.066   4.035   1.747
 5954TIP3   OH217806   4.467   4.195   3.395
 5954TIP3    H117807   4.502   4.281   3.420
 5954TIP3    H217808   4.529   4.132   3.431
 5955TIP3   OH217809   7.834   0.317   2.356
 5955TIP3    H117810   7.746   0.353   2.349
 5955TIP3    H217811   7.891   0.388   2.327
 5956TIP3   OH217812   0.993   3.840   5.470
 5956TIP3    H117813   0.980   3.745   5.462
 5956TIP3    H217814   1.072   3.857   5.419
 5957TIP3   OH217815   7.084   3.364   5.614
 5957TIP3    H117816   7.118   3.290   5.564
 5957TIP3    H217817   6.990   3.348   5.620
 5958TIP3   OH217818   7.246   5.453   2.449
 5958TIP3    H117819   7.318   5.397   2.418
 5958TIP3    H217820   7.290   5.530   2.486
 5959TIP3   OH217821   1.305   3.113   3.373
 5959TIP3    H117822   1.254   3.147   3.446
 5959TIP3    H217823   1.270   3.158   3.296
 5960TIP3   OH217824   3.082   6.289   2.230
 5960TIP3    H117825   3.172   6.263   2.249
 5960TIP3    H217826   3.036   6.207   2.214
 5961TIP3   OH217827   3.729   4.311   1.335
 5961TIP3    H117828   3.706   4.383   1.394
 5961TIP3    H217829   3.682   4.235   1.371
 5962TIP3   OH217830   5.216   1.937   3.626
 5962TIP3    H117831   5.206   1.945   3.531
 5962TIP3    H217832   5.174   1.854   3.648
 5963TIP3   OH217833   0.135   1.076   4.285
 5963TIP3    H117834   0.180   1.124   4.354
 5963TIP3    H217835   0.204   1.057   4.221
 5964TIP3   OH217836   1.737   0.377   6.391
 5964TIP3    H117837   1.718   0.459   6.346
 5964TIP3    H217838   1.665   0.318   6.366
 5965TIP3   OH217839   7.660   3.286   0.130
 5965TIP3    H117840   7.743   3.313   0.092
 5965TIP3    H217841   7.679   3.268   0.222
 5966TIP3   OH217842   7.273   1.714   6.751
 5966TIP3    H117843   7.262   1.717   6.846
 5966TIP3    H217844   7.325   1.634   6.736
 5967TIP3   OH217845   4.423   3.680   4.556
 5967TIP3    H117846   4.349   3.722   4.599
 5967TIP3    H217847   4.467   3.751   4.508
 5968TIP3   OH217848   4.013   3.135   0.372
 5968TIP3    H117849   4.089   3.192   0.370
 5968TIP3    H217850   4.010   3.103   0.463
 5969TIP3   OH217851   4.038   5.329   1.953
 5969TIP3    H117852   4.034   5.319   1.858
 5969TIP3    H217853   4.054   5.422   1.966
 5970TIP3   OH217854   7.094   2.807   2.373
 5970TIP3    H117855   7.076   2.734   2.314
 5970TIP3    H217856   7.170   2.778   2.423
 5971TIP3   OH217857   2.948   7.749   1.638
 5971TIP3    H117858   2.968   7.838   1.608
 5971TIP3    H217859   3.025   7.723   1.689
 5972TIP3   OH217860   5.997   6.715   1.336
 5972TIP3    H117861   6.029   6.634   1.378
 5972TIP3    H217862   6.036   6.713   1.248
 5973TIP3   OH217863   2.806   5.197   6.458
 5973TIP3    H117864   2.745   5.262   6.422
 5973TIP3    H217865   2.877   5.192   6.395
 5974TIP3   OH217866   0.481   6.859   3.653
 5974TIP3    H117867   0.389   6.842   3.670
 5974TIP3    H217868   0.490   6.850   3.558
 5975TIP3   OH217869   6.552   2.106   2.849
 5975TIP3    H117870   6.646   2.114   2.834
 5975TIP3    H217871   6.525   2.034   2.792
 5976TIP3   OH217872   6.596   0.213   0.727
 5976TIP3    H117873   6.515   0.263   0.731
 5976TIP3    H217874   6.660   0.274   0.691
 5977TIP3   OH217875   6.847   3.310   2.955
 5977TIP3    H117876   6.771   3.260   2.986
 5977TIP3    H217877   6.897   3.328   3.034
 5978TIP3   OH217878   6.388   1.611   6.787
 5978TIP3    H117879   6.375   1.670   6.862
 5978TIP3    H217880   6.416   1.668   6.716
 5979TIP3   OH217881   3.498   7.304   2.556
 5979TIP3    H117882   3.478   7.359   2.632
 5979TIP3    H217883   3.527   7.221   2.595
 5980TIP3   OH217884   5.150   7.770   4.215
 5980TIP3    H117885   5.145   7.727   4.300
 5980TIP3    H217886   5.089   7.843   4.220
 5981TIP3   OH217887   0.984   7.218   2.217
 5981TIP3    H117888   0.939   7.144   2.259
 5981TIP3    H217889   0.950   7.295   2.262
 5982TIP3   OH217890   6.352   3.256   0.612
 5982TIP3    H117891   6.435   3.226   0.575
 5982TIP3    H217892   6.352   3.221   0.701
 5983TIP3   OH217893   1.286   2.303   1.060
 5983TIP3    H117894   1.294   2.305   0.964
 5983TIP3    H217895   1.341   2.229   1.087
 5984TIP3   OH217896   4.412   2.042   5.508
 5984TIP3    H117897   4.424   1.966   5.451
 5984TIP3    H217898   4.351   2.098   5.460
 5985TIP3   OH217899   0.274   3.711   4.931
 5985TIP3    H117900   0.235   3.793   4.962
 5985TIP3    H217901   0.294   3.727   4.839
 5986TIP3   OH217902   6.538   7.695   2.462
 5986TIP3    H117903   6.548   7.726   2.373
 5986TIP3    H217904   6.626   7.695   2.498
 5987TIP3   OH217905   5.564   6.821   0.703
 5987TIP3    H117906   5.648   6.839   0.660
 5987TIP3    H217907   5.500   6.872   0.654
 5988TIP3   OH217908   7.204   7.076   0.685
 5988TIP3    H117909   7.277   7.137   0.684
 5988TIP3    H217910   7.232   7.005   0.743
 5989TIP3   OH217911   5.074   3.244   5.005
 5989TIP3    H117912   5.002   3.183   5.019
 5989TIP3    H217913   5.080   3.293   5.087
 5990TIP3   OH217914   3.941   4.538   0.634
 5990TIP3    H117915   4.017   4.593   0.654
 5990TIP3    H217916   3.978   4.458   0.597
 5991TIP3   OH217917   0.519   1.177   3.260
 5991TIP3    H117918   0.521   1.084   3.240
 5991TIP3    H217919   0.481   1.182   3.348
 5992TIP3   OH217920   4.398   7.436   5.927
 5992TIP3    H117921   4.313   7.464   5.961
 5992TIP3    H217922   4.378   7.392   5.845
 5993TIP3   OH217923   0.394   4.259   4.058
 5993TIP3    H117924   0.347   4.268   4.140
 5993TIP3    H217925   0.439   4.175   4.065
 5994TIP3   OH217926   1.990   3.380   0.671
 5994TIP3    H117927   1.975   3.412   0.760
 5994TIP3    H217928   2.026   3.292   0.682
 5995TIP3   OH217929   6.678   6.854   4.163
 5995TIP3    H117930   6.714   6.940   4.140
 5995TIP3    H217931   6.739   6.791   4.125
 5996TIP3   OH217932   7.219   2.993   1.023
 5996TIP3    H117933   7.293   2.999   0.963
 5996TIP3    H217934   7.142   2.994   0.966
 5997TIP3   OH217935   5.440   2.137   0.141
 5997TIP3    H117936   5.427   2.148   0.047
 5997TIP3    H217937   5.401   2.215   0.180
 5998TIP3   OH217938   3.292   6.052   0.792
 5998TIP3    H117939   3.353   6.012   0.730
 5998TIP3    H217940   3.300   6.146   0.776
 5999TIP3   OH217941   7.306   7.235   1.606
 5999TIP3    H117942   7.261   7.302   1.658
 5999TIP3    H217943   7.369   7.197   1.667
 6000TIP3   OH217944   6.868   4.792   5.344
 6000TIP3    H117945   6.799   4.756   5.288
 6000TIP3    H217946   6.825   4.808   5.427
 6001TIP3   OH217947   6.482   3.978   5.004
 6001TIP3    H117948   6.545   4.050   5.002
 6001TIP3    H217949   6.397   4.020   4.999
 6002TIP3   OH217950   4.612   1.540   1.792
 6002TIP3    H117951   4.698   1.505   1.771
 6002TIP3    H217952   4.551   1.481   1.747
 6003TIP3   OH217953   3.950   0.149   1.237
 6003TIP3    H117954   3.919   0.089   1.304
 6003TIP3    H217955   3.955   0.096   1.157
 6004TIP3   OH217956   0.934   4.488   0.984
 6004TIP3    H117957   0.990   4.423   1.025
 6004TIP3    H217958   0.928   4.559   1.049
 6005TIP3   OH217959   6.292   2.053   0.088
 6005TIP3    H117960   6.231   2.026   0.156
 6005TIP3    H217961   6.296   2.149   0.097
 6006TIP3   OH217962   2.296   3.094   5.912
 6006TIP3    H117963   2.321   3.162   5.975
 6006TIP3    H217964   2.202   3.107   5.899
 6007TIP3   OH217965   5.810   2.818   6.323
 6007TIP3    H117966   5.717   2.843   6.325
 6007TIP3    H217967   5.840   2.844   6.236
 6008TIP3   OH217968   1.907   7.314   1.025
 6008TIP3    H117969   1.992   7.295   0.987
 6008TIP3    H217970   1.860   7.362   0.957
 6009TIP3   OH217971   8.302   4.385   6.026
 6009TIP3    H117972   8.293   4.447   5.953
 6009TIP3    H217973   8.302   4.441   6.104
 6010TIP3   OH217974   4.712   5.021   6.771
 6010TIP3    H117975   4.674   5.106   6.749
 6010TIP3    H217976   4.701   4.969   6.691
 6011TIP3   OH217977   7.614   7.504   2.533
 6011TIP3    H117978   7.598   7.556   2.611
 6011TIP3    H217979   7.540   7.522   2.475
 6012TIP3   OH217980   6.435   7.773   2.752
 6012TIP3    H117981   6.355   7.825   2.740
 6012TIP3    H217982   6.431   7.706   2.684
 6013TIP3   OH217983   4.625   6.803   2.592
 6013TIP3    H117984   4.633   6.720   2.544
 6013TIP3    H217985   4.555   6.787   2.655
 6014TIP3   OH217986   2.600   5.007   1.464
 6014TIP3    H117987   2.536   4.938   1.446
 6014TIP3    H217988   2.676   4.961   1.499
 6015TIP3   OH217989   1.950   3.655   2.504
 6015TIP3    H117990   1.965   3.561   2.496
 6015TIP3    H217991   2.002   3.693   2.433
 6016TIP3   OH217992   0.719   7.682   0.186
 6016TIP3    H117993   0.749   7.595   0.211
 6016TIP3    H217994   0.726   7.683   0.090
 6017TIP3   OH217995   0.981   6.430   2.728
 6017TIP3    H117996   1.039   6.438   2.804
 6017TIP3    H217997   1.021   6.362   2.674
 6018TIP3   OH217998   4.746   6.301   0.137
 6018TIP3    H117999   4.686   6.335   0.070
 6018TIP3    H218000   4.703   6.319   0.220
 6019TIP3   OH218001   0.656   5.267   4.571
 6019TIP3    H118002   0.747   5.237   4.577
 6019TIP3    H218003   0.618   5.217   4.499
 6020TIP3   OH218004   7.916   2.227   4.792
 6020TIP3    H118005   7.840   2.286   4.796
 6020TIP3    H218006   7.991   2.283   4.812
 6021TIP3   OH218007   6.770   0.476   4.713
 6021TIP3    H118008   6.694   0.534   4.717
 6021TIP3    H218009   6.831   0.521   4.655
 6022TIP3   OH218010   0.798   1.184   2.930
 6022TIP3    H118011   0.878   1.225   2.896
 6022TIP3    H218012   0.758   1.251   2.985
 6023TIP3   OH218013   4.612   7.680   3.897
 6023TIP3    H118014   4.570   7.734   3.964
 6023TIP3    H218015   4.620   7.594   3.938
 6024TIP3   OH218016   5.052   7.697   4.962
 6024TIP3    H118017   5.123   7.674   5.022
 6024TIP3    H218018   5.047   7.622   4.902
 6025TIP3   OH218019   1.562   4.401   6.216
 6025TIP3    H118020   1.519   4.477   6.255
 6025TIP3    H218021   1.536   4.328   6.272
 6026TIP3   OH218022   5.519   2.743   5.205
 6026TIP3    H118023   5.559   2.656   5.205
 6026TIP3    H218024   5.435   2.730   5.161
 6027TIP3   OH218025   1.818   2.204   5.093
 6027TIP3    H118026   1.879   2.188   5.020
 6027TIP3    H218027   1.861   2.164   5.169
 6028TIP3   OH218028   0.297   6.410   3.206
 6028TIP3    H118029   0.225   6.353   3.232
 6028TIP3    H218030   0.376   6.356   3.218
 6029TIP3   OH218031   1.833   5.520   1.345
 6029TIP3    H118032   1.923   5.503   1.371
 6029TIP3    H218033   1.840   5.574   1.267
 6030TIP3   OH218034   2.834   7.293   4.044
 6030TIP3    H118035   2.881   7.353   4.102
 6030TIP3    H218036   2.744   7.294   4.075
 6031TIP3   OH218037   4.565   4.984   1.477
 6031TIP3    H118038   4.470   4.979   1.481
 6031TIP3    H218039   4.583   5.040   1.401
 6032TIP3   OH218040   1.999   0.497   4.546
 6032TIP3    H118041   1.932   0.506   4.614
 6032TIP3    H218042   2.026   0.586   4.527
 6033TIP3   OH218043   2.696   6.118   3.210
 6033TIP3    H118044   2.607   6.091   3.232
 6033TIP3    H218045   2.724   6.057   3.143
 6034TIP3   OH218046   3.802   2.584   4.393
 6034TIP3    H118047   3.833   2.673   4.377
 6034TIP3    H218048   3.708   2.588   4.377
 6035TIP3   OH218049   5.193   5.168   5.250
 6035TIP3    H118050   5.155   5.113   5.181
 6035TIP3    H218051   5.177   5.119   5.331
 6036TIP3   OH218052   6.693   2.057   5.365
 6036TIP3    H118053   6.726   1.986   5.420
 6036TIP3    H218054   6.741   2.135   5.394
 6037TIP3   OH218055   7.724   6.979   3.284
 6037TIP3    H118056   7.753   6.895   3.319
 6037TIP3    H218057   7.758   6.982   3.195
 6038TIP3   OH218058   0.748   0.221   6.326
 6038TIP3    H118059   0.659   0.256   6.316
 6038TIP3    H218060   0.801   0.276   6.269
 6039TIP3   OH218061   3.024   3.912   1.939
 6039TIP3    H118062   2.929   3.921   1.952
 6039TIP3    H218063   3.035   3.821   1.911
 6040TIP3   OH218064   0.483   2.570   1.778
 6040TIP3    H118065   0.549   2.522   1.728
 6040TIP3    H218066   0.410   2.509   1.786
 6041TIP3   OH218067   5.318   5.394   3.197
 6041TIP3    H118068   5.402   5.431   3.171
 6041TIP3    H218069   5.326   5.301   3.176
 6042TIP3   OH218070   7.828   1.271   0.386
 6042TIP3    H118071   7.901   1.209   0.387
 6042TIP3    H218072   7.752   1.219   0.361
 6043TIP3   OH218073   5.745   4.294   2.862
 6043TIP3    H118074   5.718   4.238   2.935
 6043TIP3    H218075   5.725   4.383   2.892
 6044TIP3   OH218076   7.185   0.958   2.622
 6044TIP3    H118077   7.126   1.031   2.639
 6044TIP3    H218078   7.146   0.885   2.672
 6045TIP3   OH218079   5.305   3.912   4.902
 6045TIP3    H118080   5.264   3.886   4.820
 6045TIP3    H218081   5.390   3.947   4.876
 6046TIP3   OH218082   1.699   5.054   1.001
 6046TIP3    H118083   1.693   5.140   1.041
 6046TIP3    H218084   1.661   4.995   1.066
 6047TIP3   OH218085   6.756   1.957   0.003
 6047TIP3    H118086   6.731   1.942   0.094
 6047TIP3    H218087   6.747   2.052  -0.009
 6048TIP3   OH218088   8.257   7.782   3.087
 6048TIP3    H118089   8.334   7.831   3.058
 6048TIP3    H218090   8.248   7.712   3.022
 6049TIP3   OH218091   7.861   4.054   5.513
 6049TIP3    H118092   7.802   4.130   5.513
 6049TIP3    H218093   7.900   4.053   5.600
 6050TIP3   OH218094   2.235   3.904   1.961
 6050TIP3    H118095   2.268   3.824   2.000
 6050TIP3    H218096   2.152   3.878   1.920
 6051TIP3   OH218097   2.794   1.789   1.092
 6051TIP3    H118098   2.872   1.798   1.036
 6051TIP3    H218099   2.791   1.871   1.141
 6052TIP3   OH218100   7.316   6.812   5.685
 6052TIP3    H118101   7.377   6.885   5.677
 6052TIP3    H218102   7.232   6.846   5.654
 6053TIP3   OH218103   1.044   3.575   4.196
 6053TIP3    H118104   0.993   3.560   4.276
 6053TIP3    H218105   1.115   3.632   4.224
 6054TIP3   OH218106   2.251   1.924   5.281
 6054TIP3    H118107   2.273   1.984   5.353
 6054TIP3    H218108   2.336   1.898   5.245
 6055TIP3   OH218109   4.023   2.217   1.237
 6055TIP3    H118110   4.020   2.133   1.283
 6055TIP3    H218111   3.980   2.200   1.154
 6056TIP3   OH218112   6.494   7.424   0.337
 6056TIP3    H118113   6.448   7.453   0.259
 6056TIP3    H218114   6.465   7.485   0.406
 6057TIP3   OH218115   7.666   6.946   3.757
 6057TIP3    H118116   7.653   6.980   3.668
 6057TIP3    H218117   7.585   6.899   3.777
 6058TIP3   OH218118   3.197   1.440   6.074
 6058TIP3    H118119   3.166   1.530   6.084
 6058TIP3    H218120   3.138   1.388   6.128
 6059TIP3   OH218121   7.648   7.292   1.584
 6059TIP3    H118122   7.552   7.286   1.589
 6059TIP3    H218123   7.670   7.371   1.633
 6060TIP3   OH218124   2.505   7.485   0.034
 6060TIP3    H118125   2.518   7.482   0.129
 6060TIP3    H218126   2.532   7.399   0.003
 6061TIP3   OH218127   5.263   6.566   0.848
 6061TIP3    H118128   5.228   6.649   0.881
 6061TIP3    H218129   5.194   6.532   0.791
 6062TIP3   OH218130   7.044   2.537   3.967
 6062TIP3    H118131   6.997   2.478   4.025
 6062TIP3    H218132   7.129   2.495   3.953
 6063TIP3   OH218133   7.806   4.832   4.587
 6063TIP3    H118134   7.721   4.826   4.630
 6063TIP3    H218135   7.816   4.749   4.541
 6064TIP3   OH218136   1.343   0.702   5.122
 6064TIP3    H118137   1.266   0.684   5.069
 6064TIP3    H218138   1.349   0.628   5.182
 6065TIP3   OH218139   3.460   6.989   3.368
 6065TIP3    H118140   3.439   7.083   3.370
 6065TIP3    H218141   3.495   6.974   3.280
 6066TIP3   OH218142   3.411   1.673   0.986
 6066TIP3    H118143   3.470   1.694   0.913
 6066TIP3    H218144   3.329   1.718   0.964
 6067TIP3   OH218145   7.280   3.884   0.900
 6067TIP3    H118146   7.325   3.899   0.817
 6067TIP3    H218147   7.280   3.969   0.944
 6068TIP3   OH218148   6.152   6.534   6.587
 6068TIP3    H118149   6.212   6.608   6.595
 6068TIP3    H218150   6.069   6.573   6.562
 6069TIP3   OH218151   6.176   4.229   6.632
 6069TIP3    H118152   6.234   4.228   6.707
 6069TIP3    H218153   6.089   4.245   6.668
 6070TIP3   OH218154   6.724   7.128   0.801
 6070TIP3    H118155   6.745   7.055   0.743
 6070TIP3    H218156   6.667   7.185   0.749
 6071TIP3   OH218157   4.718   6.247   3.071
 6071TIP3    H118158   4.751   6.184   3.007
 6071TIP3    H218159   4.680   6.192   3.140
 6072TIP3   OH218160   7.524   2.167   1.182
 6072TIP3    H118161   7.503   2.222   1.107
 6072TIP3    H218162   7.609   2.199   1.212
 6073TIP3   OH218163   3.336   1.691   0.288
 6073TIP3    H118164   3.283   1.771   0.290
 6073TIP3    H218165   3.391   1.696   0.366
 6074TIP3   OH218166   7.136   6.835   3.202
 6074TIP3    H118167   7.096   6.763   3.153
 6074TIP3    H218168   7.121   6.913   3.149
 6075TIP3   OH218169   2.150   6.296   2.015
 6075TIP3    H118170   2.147   6.350   1.936
 6075TIP3    H218171   2.219   6.336   2.068
 6076TIP3   OH218172   4.046   2.930   0.162
 6076TIP3    H118173   4.013   2.983   0.235
 6076TIP3    H218174   4.130   2.969   0.139
 6077TIP3   OH218175   2.893   0.928   6.247
 6077TIP3    H118176   2.948   0.851   6.259
 6077TIP3    H218177   2.805   0.899   6.271
 6078TIP3   OH218178   0.482   6.079   5.007
 6078TIP3    H118179   0.524   6.057   5.090
 6078TIP3    H218180   0.535   6.151   4.972
 6079TIP3   OH218181   4.861   6.943   0.640
 6079TIP3    H118182   4.848   7.007   0.570
 6079TIP3    H218183   4.777   6.898   0.647
 6080TIP3   OH218184   2.236   5.622   6.420
 6080TIP3    H118185   2.231   5.688   6.490
 6080TIP3    H218186   2.314   5.571   6.440
 6081TIP3   OH218187   6.975   6.221   3.948
 6081TIP3    H118188   6.881   6.205   3.939
 6081TIP3    H218189   7.000   6.263   3.866
 6082TIP3   OH218190   1.443   3.354   5.565
 6082TIP3    H118191   1.472   3.388   5.650
 6082TIP3    H218192   1.400   3.271   5.585
 6083TIP3   OH218193   2.264   1.100   1.947
 6083TIP3    H118194   2.238   1.164   1.882
 6083TIP3    H218195   2.339   1.139   1.991
 6084TIP3   OH218196   5.499   0.235   1.171
 6084TIP3    H118197   5.492   0.140   1.162
 6084TIP3    H218198   5.590   0.255   1.147
 6085TIP3   OH218199   4.259   7.761   5.135
 6085TIP3    H118200   4.220   7.711   5.206
 6085TIP3    H218201   4.260   7.700   5.061
 6086TIP3   OH218202   3.784   4.341   2.891
 6086TIP3    H118203   3.819   4.403   2.827
 6086TIP3    H218204   3.698   4.318   2.856
 6087TIP3   OH218205   5.953   2.310   6.062
 6087TIP3    H118206   6.014   2.294   5.990
 6087TIP3    H218207   5.943   2.405   6.065
 6088TIP3   OH218208   3.397   4.108   2.178
 6088TIP3    H118209   3.323   4.165   2.159
 6088TIP3    H218210   3.403   4.051   2.102
 6089TIP3   OH218211   1.200   6.862   4.768
 6089TIP3    H118212   1.199   6.795   4.837
 6089TIP3    H218213   1.275   6.839   4.713
 6090TIP3   OH218214   7.699   6.539   1.880
 6090TIP3    H118215   7.616   6.536   1.929
 6090TIP3    H218216   7.728   6.630   1.888
 6091TIP3   OH218217   3.624   0.204   6.653
 6091TIP3    H118218   3.718   0.183   6.660
 6091TIP3    H218219   3.582   0.142   6.712
 6092TIP3   OH218220   1.778   2.982   2.767
 6092TIP3    H118221   1.813   2.951   2.684
 6092TIP3    H218222   1.765   3.076   2.754
 6093TIP3   OH218223   2.910   2.209   6.034
 6093TIP3    H118224   2.851   2.136   6.056
 6093TIP3    H218225   2.854   2.287   6.041
 6094TIP3   OH218226   2.324   3.903   6.466
 6094TIP3    H118227   2.324   3.996   6.441
 6094TIP3    H218228   2.354   3.857   6.387
 6095TIP3   OH218229   4.903   2.564   6.379
 6095TIP3    H118230   4.870   2.547   6.467
 6095TIP3    H218231   4.883   2.656   6.363
 6096TIP3   OH218232   1.436   6.020   1.730
 6096TIP3    H118233   1.374   6.058   1.792
 6096TIP3    H218234   1.430   5.926   1.745
 6097TIP3   OH218235   5.663   6.881   1.571
 6097TIP3    H118236   5.718   6.886   1.649
 6097TIP3    H218237   5.624   6.794   1.574
 6098TIP3   OH218238   2.280   4.320   0.435
 6098TIP3    H118239   2.282   4.305   0.340
 6098TIP3    H218240   2.328   4.402   0.448
 6099TIP3   OH218241   7.953   1.354   3.319
 6099TIP3    H118242   7.920   1.333   3.407
 6099TIP3    H218243   8.040   1.390   3.334
 6100TIP3   OH218244   3.599   1.627   3.980
 6100TIP3    H118245   3.554   1.673   3.909
 6100TIP3    H218246   3.562   1.665   4.060
 6101TIP3   OH218247   1.178   7.440   2.179
 6101TIP3    H118248   1.232   7.511   2.212
 6101TIP3    H218249   1.109   7.430   2.244
 6102TIP3   OH218250   5.651   7.651   3.047
 6102TIP3    H118251   5.739   7.646   3.012
 6102TIP3    H218252   5.659   7.707   3.125
 6103TIP3   OH218253   3.822   5.818   1.916
 6103TIP3    H118254   3.733   5.843   1.892
 6103TIP3    H218255   3.877   5.850   1.844
 6104TIP3   OH218256   7.293   6.676   4.732
 6104TIP3    H118257   7.360   6.739   4.707
 6104TIP3    H218258   7.213   6.708   4.688
 6105TIP3   OH218259   6.657   4.852   1.622
 6105TIP3    H118260   6.742   4.821   1.655
 6105TIP3    H218261   6.593   4.790   1.658
 6106TIP3   OH218262   4.191   1.154   1.711
 6106TIP3    H118263   4.143   1.071   1.705
 6106TIP3    H218264   4.188   1.190   1.622
 6107TIP3   OH218265   7.329   0.828   3.675
 6107TIP3    H118266   7.358   0.828   3.766
 6107TIP3    H218267   7.350   0.916   3.643
 6108TIP3   OH218268   5.828   7.373   4.067
 6108TIP3    H118269   5.837   7.464   4.095
 6108TIP3    H218270   5.780   7.331   4.138
 6109TIP3   OH218271   7.861   3.255   4.640
 6109TIP3    H118272   7.947   3.296   4.651
 6109TIP3    H218273   7.871   3.169   4.680
 6110TIP3   OH218274   5.689   6.565   5.472
 6110TIP3    H118275   5.636   6.543   5.548
 6110TIP3    H218276   5.667   6.655   5.452
 6111TIP3   OH218277   0.280   4.947   0.442
 6111TIP3    H118278   0.253   5.018   0.501
 6111TIP3    H218279   0.363   4.915   0.478
 6112TIP3   OH218280   1.396   5.056   0.253
 6112TIP3    H118281   1.366   5.033   0.341
 6112TIP3    H218282   1.406   5.151   0.255
 6113TIP3   OH218283   2.364   4.786   6.527
 6113TIP3    H118284   2.374   4.777   6.432
 6113TIP3    H218285   2.370   4.696   6.560
 6114TIP3   OH218286   4.280   5.534   5.419
 6114TIP3    H118287   4.332   5.584   5.482
 6114TIP3    H218288   4.191   5.537   5.454
 6115TIP3   OH218289   0.639   2.158   5.724
 6115TIP3    H118290   0.599   2.209   5.795
 6115TIP3    H218291   0.717   2.208   5.699
 6116TIP3   OH218292   5.511   3.715   3.892
 6116TIP3    H118293   5.555   3.630   3.885
 6116TIP3    H218294   5.559   3.761   3.962
 6117TIP3   OH218295   2.970   5.763   0.602
 6117TIP3    H118296   3.027   5.687   0.590
 6117TIP3    H218297   2.895   5.745   0.546
 6118TIP3   OH218298   4.905   4.536   4.801
 6118TIP3    H118299   4.882   4.446   4.780
 6118TIP3    H218300   4.845   4.560   4.873
 6119TIP3   OH218301   5.668   4.389   2.606
 6119TIP3    H118302   5.739   4.359   2.550
 6119TIP3    H218303   5.695   4.364   2.695
 6120TIP3   OH218304   5.688   6.340   0.940
 6120TIP3    H118305   5.606   6.363   0.984
 6120TIP3    H218306   5.742   6.418   0.946
 6121TIP3   OH218307   4.574   6.602   6.389
 6121TIP3    H118308   4.537   6.519   6.418
 6121TIP3    H218309   4.669   6.591   6.398
 6122TIP3   OH218310   1.022   3.238   1.187
 6122TIP3    H118311   0.989   3.158   1.147
 6122TIP3    H218312   0.997   3.232   1.279
 6123TIP3   OH218313   7.504   1.541   4.065
 6123TIP3    H118314   7.442   1.564   3.995
 6123TIP3    H218315   7.587   1.580   4.038
 6124TIP3   OH218316   1.911   2.592   1.374
 6124TIP3    H118317   1.931   2.668   1.320
 6124TIP3    H218318   1.926   2.517   1.316
 6125TIP3   OH218319   4.355   6.196   4.357
 6125TIP3    H118320   4.386   6.204   4.447
 6125TIP3    H218321   4.435   6.180   4.306
 6126TIP3   OH218322   2.863   1.911   5.696
 6126TIP3    H118323   2.907   1.990   5.665
 6126TIP3    H218324   2.774   1.939   5.717
 6127TIP3   OH218325   2.275   2.307   0.561
 6127TIP3    H118326   2.275   2.217   0.592
 6127TIP3    H218327   2.273   2.360   0.640
 6128TIP3   OH218328   6.654   6.058   2.787
 6128TIP3    H118329   6.723   6.024   2.730
 6128TIP3    H218330   6.573   6.021   2.750
 6129TIP3   OH218331   1.889   5.808   2.138
 6129TIP3    H118332   1.834   5.729   2.142
 6129TIP3    H218333   1.886   5.835   2.047
 6130TIP3   OH218334   4.382   3.969   5.527
 6130TIP3    H118335   4.335   3.988   5.608
 6130TIP3    H218336   4.314   3.935   5.468
 6131TIP3   OH218337   2.787   7.822   2.346
 6131TIP3    H118338   2.784   7.830   2.442
 6131TIP3    H218339   2.786   7.913   2.315
 6132TIP3   OH218340   5.345   7.161   5.907
 6132TIP3    H118341   5.322   7.083   5.957
 6132TIP3    H218342   5.281   7.164   5.836
 6133TIP3   OH218343   5.818   1.771   6.712
 6133TIP3    H118344   5.816   1.746   6.804
 6133TIP3    H218345   5.728   1.796   6.692
 6134TIP3   OH218346   2.636   2.671   0.778
 6134TIP3    H118347   2.593   2.676   0.693
 6134TIP3    H218348   2.700   2.742   0.778
 6135TIP3   OH218349   7.662   2.347   4.817
 6135TIP3    H118350   7.595   2.370   4.881
 6135TIP3    H218351   7.614   2.315   4.741
 6136TIP3   OH218352   0.766   4.836   2.493
 6136TIP3    H118353   0.858   4.862   2.491
 6136TIP3    H218354   0.759   4.776   2.567
 6137TIP3   OH218355   6.703   4.097   1.585
 6137TIP3    H118356   6.623   4.086   1.532
 6137TIP3    H218357   6.699   4.025   1.648
 6138TIP3   OH218358   1.232   4.145   1.890
 6138TIP3    H118359   1.257   4.053   1.880
 6138TIP3    H218360   1.315   4.191   1.900
 6139TIP3   OH218361   3.514   2.281   1.292
 6139TIP3    H118362   3.549   2.368   1.274
 6139TIP3    H218363   3.546   2.227   1.220
 6140TIP3   OH218364   8.058   3.269   2.892
 6140TIP3    H118365   8.081   3.188   2.846
 6140TIP3    H218366   7.989   3.243   2.952
 6141TIP3   OH218367   4.783   4.430   0.037
 6141TIP3    H118368   4.876   4.442   0.021
 6141TIP3    H218369   4.766   4.339   0.011
 6142TIP3   OH218370   5.394   6.558   3.270
 6142TIP3    H118371   5.357   6.540   3.356
 6142TIP3    H218372   5.347   6.636   3.239
 6143TIP3   OH218373   0.747   0.056   6.072
 6143TIP3    H118374   0.663   0.022   6.041
 6143TIP3    H218375   0.740   0.053   6.168
 6144TIP3   OH218376   7.028   5.878   1.120
 6144TIP3    H118377   7.046   5.967   1.152
 6144TIP3    H218378   7.018   5.889   1.025
 6145TIP3   OH218379   3.114   6.475   0.604
 6145TIP3    H118380   3.105   6.436   0.691
 6145TIP3    H218381   3.189   6.534   0.612
 6146TIP3   OH218382   2.240   6.630   5.178
 6146TIP3    H118383   2.291   6.688   5.235
 6146TIP3    H218384   2.306   6.586   5.124
 6147TIP3   OH218385   2.072   6.040   4.857
 6147TIP3    H118386   2.150   5.993   4.888
 6147TIP3    H218387   2.057   6.006   4.769
 6148TIP3   OH218388   1.458   5.511   1.213
 6148TIP3    H118389   1.501   5.580   1.264
 6148TIP3    H218390   1.410   5.460   1.278
 6149TIP3   OH218391   1.138   4.226   5.993
 6149TIP3    H118392   1.131   4.163   6.064
 6149TIP3    H218393   1.176   4.304   6.034
 6150TIP3   OH218394   5.985   0.574   0.834
 6150TIP3    H118395   5.983   0.479   0.827
 6150TIP3    H218396   6.043   0.602   0.764
 6151TIP3   OH218397   6.550   0.501   0.975
 6151TIP3    H118398   6.588   0.418   1.003
 6151TIP3    H218399   6.573   0.508   0.882
 6152TIP3   OH218400   7.338   5.913   0.960
 6152TIP3    H118401   7.430   5.884   0.963
 6152TIP3    H218402   7.293   5.842   0.915
 6153TIP3   OH218403   3.187   4.852   6.251
 6153TIP3    H118404   3.196   4.934   6.204
 6153TIP3    H218405   3.226   4.786   6.192
 6154TIP3   OH218406   7.528   5.666   6.737
 6154TIP3    H118407   7.598   5.722   6.705
 6154TIP3    H218408   7.456   5.680   6.675
 6155TIP3   OH218409   0.914   6.336   5.708
 6155TIP3    H118410   0.979   6.371   5.770
 6155TIP3    H218411   0.959   6.335   5.624
 6156TIP3   OH218412   6.809   7.519   1.303
 6156TIP3    H118413   6.881   7.519   1.241
 6156TIP3    H218414   6.733   7.547   1.251
 6157TIP3   OH218415   8.021   7.685   1.870
 6157TIP3    H118416   8.101   7.638   1.849
 6157TIP3    H218417   8.051   7.770   1.904
 6158TIP3   OH218418   5.748   5.648   0.914
 6158TIP3    H118419   5.683   5.637   0.845
 6158TIP3    H218420   5.824   5.598   0.883
 6159TIP3   OH218421   0.509   1.649   1.918
 6159TIP3    H118422   0.596   1.615   1.940
 6159TIP3    H218423   0.452   1.573   1.928
 6160TIP3   OH218424   4.462   7.863   0.731
 6160TIP3    H118425   4.458   7.768   0.739
 6160TIP3    H218426   4.491   7.894   0.817
 6161TIP3   OH218427   6.309   4.077   3.584
 6161TIP3    H118428   6.294   3.992   3.543
 6161TIP3    H218429   6.389   4.110   3.542
 6162TIP3   OH218430   0.277   1.995   2.897
 6162TIP3    H118431   0.264   1.982   2.803
 6162TIP3    H218432   0.254   2.086   2.913
 6163TIP3   OH218433   0.322   1.433   3.061
 6163TIP3    H118434   0.315   1.338   3.055
 6163TIP3    H218435   0.295   1.464   2.974
 6164TIP3   OH218436   2.585   4.339   6.107
 6164TIP3    H118437   2.572   4.430   6.082
 6164TIP3    H218438   2.670   4.315   6.069
 6165TIP3   OH218439   5.944   3.228   1.695
 6165TIP3    H118440   6.036   3.225   1.669
 6165TIP3    H218441   5.904   3.286   1.631
 6166TIP3   OH218442   0.112   0.557   1.768
 6166TIP3    H118443   0.164   0.512   1.701
 6166TIP3    H218444   0.072   0.630   1.721
 6167TIP3   OH218445   7.398   3.581   6.319
 6167TIP3    H118446   7.483   3.543   6.339
 6167TIP3    H218447   7.418   3.668   6.284
 6168TIP3   OH218448   3.188   7.776   5.584
 6168TIP3    H118449   3.115   7.779   5.522
 6168TIP3    H218450   3.230   7.692   5.569
 6169TIP3   OH218451   8.050   0.749   2.382
 6169TIP3    H118452   8.071   0.840   2.403
 6169TIP3    H218453   8.009   0.715   2.461
 6170TIP3   OH218454   5.124   6.875   0.598
 6170TIP3    H118455   5.200   6.933   0.588
 6170TIP3    H218456   5.048   6.933   0.590
 6171TIP3   OH218457   0.427   5.373   4.758
 6171TIP3    H118458   0.434   5.355   4.852
 6171TIP3    H218459   0.335   5.355   4.737
 6172TIP3   OH218460   0.841   5.278   5.052
 6172TIP3    H118461   0.818   5.185   5.060
 6172TIP3    H218462   0.879   5.300   5.137
 6173TIP3   OH218463   6.531   6.822   5.164
 6173TIP3    H118464   6.614   6.777   5.182
 6173TIP3    H218465   6.509   6.795   5.075
 6174TIP3   OH218466   4.227   0.173   1.772
 6174TIP3    H118467   4.167   0.178   1.846
 6174TIP3    H218468   4.279   0.094   1.788
 6175TIP3   OH218469   5.743   0.372   0.623
 6175TIP3    H118470   5.693   0.333   0.552
 6175TIP3    H218471   5.722   0.466   0.619
 6176TIP3   OH218472   0.626   5.698   3.740
 6176TIP3    H118473   0.535   5.677   3.763
 6176TIP3    H218474   0.619   5.773   3.682
 6177TIP3   OH218475   4.238   2.432   4.392
 6177TIP3    H118476   4.269   2.347   4.424
 6177TIP3    H218477   4.226   2.485   4.471
 6178TIP3   OH218478   3.646   0.107   1.914
 6178TIP3    H118479   3.635   0.078   1.823
 6178TIP3    H218480   3.734   0.077   1.938
 6179TIP3   OH218481   4.374   1.649   0.289
 6179TIP3    H118482   4.457   1.682   0.255
 6179TIP3    H218483   4.398   1.600   0.367
 6180TIP3   OH218484   1.659   3.733   1.755
 6180TIP3    H118485   1.694   3.743   1.666
 6180TIP3    H218486   1.649   3.639   1.767
 6181TIP3   OH218487   5.438   5.831   1.671
 6181TIP3    H118488   5.461   5.900   1.609
 6181TIP3    H218489   5.425   5.877   1.754
 6182TIP3   OH218490   3.693   5.956   2.955
 6182TIP3    H118491   3.706   5.962   3.049
 6182TIP3    H218492   3.729   6.037   2.920
 6183TIP3   OH218493   3.091   1.706   3.617
 6183TIP3    H118494   3.099   1.801   3.629
 6183TIP3    H218495   3.148   1.669   3.685
 6184TIP3   OH218496   6.892   0.560   6.596
 6184TIP3    H118497   6.856   0.648   6.608
 6184TIP3    H218498   6.983   0.567   6.624
 6185TIP3   OH218499   6.468   6.448   0.702
 6185TIP3    H118500   6.514   6.489   0.775
 6185TIP3    H218501   6.416   6.379   0.741
 6186TIP3   OH218502   8.062   3.441   4.635
 6186TIP3    H118503   8.025   3.500   4.701
 6186TIP3    H218504   8.095   3.499   4.567
 6187TIP3   OH218505   6.550   5.565   2.016
 6187TIP3    H118506   6.608   5.629   1.974
 6187TIP3    H218507   6.601   5.530   2.088
 6188TIP3   OH218508   5.670   6.378   3.425
 6188TIP3    H118509   5.606   6.365   3.495
 6188TIP3    H218510   5.713   6.461   3.446
 6189TIP3   OH218511   5.670   6.935   2.019
 6189TIP3    H118512   5.710   7.000   1.961
 6189TIP3    H218513   5.689   6.851   1.977
 6190TIP3   OH218514   4.816   5.230   5.051
 6190TIP3    H118515   4.725   5.238   5.079
 6190TIP3    H218516   4.865   5.284   5.112
 6191TIP3   OH218517   3.027   7.635   1.309
 6191TIP3    H118518   3.092   7.705   1.310
 6191TIP3    H218519   3.069   7.564   1.261
 6192TIP3   OH218520   7.725   6.418   2.939
 6192TIP3    H118521   7.682   6.450   3.018
 6192TIP3    H218522   7.656   6.371   2.891
 6193TIP3   OH218523   4.565   1.628   3.281
 6193TIP3    H118524   4.601   1.546   3.315
 6193TIP3    H218525   4.591   1.629   3.189
 6194TIP3   OH218526   4.578   0.152   4.471
 6194TIP3    H118527   4.633   0.194   4.538
 6194TIP3    H218528   4.622   0.069   4.454
 6195TIP3   OH218529   3.314   7.681   4.129
 6195TIP3    H118530   3.309   7.601   4.077
 6195TIP3    H218531   3.239   7.677   4.187
 6196TIP3   OH218532   6.683   4.116   5.750
 6196TIP3    H118533   6.714   4.061   5.822
 6196TIP3    H218534   6.763   4.156   5.715
 6197TIP3   OH218535   2.706   0.746   1.970
 6197TIP3    H118536   2.776   0.789   1.921
 6197TIP3    H218537   2.625   0.780   1.932
 6198TIP3   OH218538   5.767   6.432   0.207
 6198TIP3    H118539   5.715   6.354   0.223
 6198TIP3    H218540   5.730   6.469   0.126
 6199TIP3   OH218541   7.347   0.964   5.594
 6199TIP3    H118542   7.414   1.030   5.610
 6199TIP3    H218543   7.354   0.944   5.501
 6200TIP3   OH218544   6.294   3.342   3.256
 6200TIP3    H118545   6.292   3.246   3.249
 6200TIP3    H218546   6.301   3.372   3.165
 6201TIP3   OH218547   7.615   6.840   4.265
 6201TIP3    H118548   7.690   6.896   4.287
 6201TIP3    H218549   7.654   6.757   4.240
 6202TIP3   OH218550   0.662   6.932   5.514
 6202TIP3    H118551   0.755   6.931   5.536
 6202TIP3    H218552   0.618   6.950   5.597
 6203TIP3   OH218553   0.908   1.830   0.610
 6203TIP3    H118554   0.923   1.923   0.595
 6203TIP3    H218555   0.915   1.820   0.705
 6204TIP3   OH218556   4.052   6.723   4.575
 6204TIP3    H118557   4.122   6.741   4.512
 6204TIP3    H218558   3.971   6.728   4.524
 6205TIP3   OH218559   7.635   6.579   3.480
 6205TIP3    H118560   7.564   6.637   3.452
 6205TIP3    H218561   7.592   6.517   3.539
 6206TIP3   OH218562   6.549   0.754   2.405
 6206TIP3    H118563   6.525   0.662   2.394
 6206TIP3    H218564   6.632   0.752   2.452
 6207TIP3   OH218565   3.818   7.344   5.845
 6207TIP3    H118566   3.834   7.257   5.881
 6207TIP3    H218567   3.854   7.340   5.757
 6208TIP3   OH218568   4.229   7.398   0.838
 6208TIP3    H118569   4.139   7.368   0.824
 6208TIP3    H218570   4.242   7.463   0.769
 6209TIP3   OH218571   7.142   1.406   0.759
 6209TIP3    H118572   7.231   1.371   0.760
 6209TIP3    H218573   7.086   1.329   0.761
 6210TIP3   OH218574   0.277   7.253   5.139
 6210TIP3    H118575   0.316   7.295   5.062
 6210TIP3    H218576   0.197   7.213   5.105
 6211TIP3   OH218577   8.197   1.398   3.909
 6211TIP3    H118578   8.283   1.410   3.868
 6211TIP3    H218579   8.205   1.316   3.957
 6212TIP3   OH218580   8.223   7.501   2.970
 6212TIP3    H118581   8.219   7.486   3.064
 6212TIP3    H218582   8.261   7.421   2.935
 6213TIP3   OH218583   0.426   0.104   0.590
 6213TIP3    H118584   0.367   0.046   0.540
 6213TIP3    H218585   0.370   0.177   0.617
 6214TIP3   OH218586   1.639   1.075   2.365
 6214TIP3    H118587   1.600   1.156   2.334
 6214TIP3    H218588   1.568   1.030   2.411
 6215TIP3   OH218589   4.617   3.375   6.631
 6215TIP3    H118590   4.602   3.458   6.586
 6215TIP3    H218591   4.626   3.399   6.723
 6216TIP3   OH218592   5.584   7.238   3.553
 6216TIP3    H118593   5.614   7.153   3.586
 6216TIP3    H218594   5.566   7.289   3.632
 6217TIP3   OH218595   8.228   6.315   2.619
 6217TIP3    H118596   8.162   6.268   2.568
 6217TIP3    H218597   8.312   6.281   2.587
 6218TIP3   OH218598   5.151   7.728   5.641
 6218TIP3    H118599   5.065   7.692   5.618
 6218TIP3    H218600   5.213   7.673   5.594
 6219TIP3   OH218601   4.016   6.826   0.484
 6219TIP3    H118602   3.995   6.810   0.576
 6219TIP3    H218603   3.986   6.748   0.438
 6220TIP3   OH218604   5.623   7.227   3.238
 6220TIP3    H118605   5.551   7.200   3.180
 6220TIP3    H218606   5.692   7.162   3.223
 6221TIP3   OH218607   3.202   2.756   2.874
 6221TIP3    H118608   3.204   2.847   2.845
 6221TIP3    H218609   3.179   2.707   2.795
 6222TIP3   OH218610   4.818   1.112   2.221
 6222TIP3    H118611   4.768   1.031   2.221
 6222TIP3    H218612   4.862   1.113   2.136
 6223TIP3   OH218613  -0.005   1.587   5.726
 6223TIP3    H118614  -0.069   1.522   5.697
 6223TIP3    H218615   0.074   1.568   5.677
 6224TIP3   OH218616   3.228   1.897   6.004
 6224TIP3    H118617   3.195   1.835   5.940
 6224TIP3    H218618   3.305   1.936   5.963
 6225TIP3   OH218619   8.299   2.468   2.664
 6225TIP3    H118620   8.352   2.405   2.615
 6225TIP3    H218621   8.348   2.481   2.745
 6226TIP3   OH218622   6.239   4.370   2.613
 6226TIP3    H118623   6.300   4.352   2.685
 6226TIP3    H218624   6.159   4.399   2.657
 6227TIP3   OH218625   3.003   2.021   2.488
 6227TIP3    H118626   2.925   2.044   2.538
 6227TIP3    H218627   3.008   1.925   2.494
 6228TIP3   OH218628   7.260   2.710   2.174
 6228TIP3    H118629   7.347   2.671   2.177
 6228TIP3    H218630   7.276   2.805   2.173
 6229TIP3   OH218631   6.611   6.622   5.503
 6229TIP3    H118632   6.684   6.683   5.508
 6229TIP3    H218633   6.544   6.660   5.559
 6230TIP3   OH218634   3.939   5.942   6.438
 6230TIP3    H118635   3.920   5.945   6.531
 6230TIP3    H218636   3.935   5.849   6.415
 6231TIP3   OH218637   6.214   1.354   4.320
 6231TIP3    H118638   6.296   1.386   4.357
 6231TIP3    H218639   6.233   1.342   4.227
 6232TIP3   OH218640   4.304   5.840   2.325
 6232TIP3    H118641   4.232   5.781   2.305
 6232TIP3    H218642   4.297   5.857   2.419
 6233TIP3   OH218643   2.998   7.374   1.433
 6233TIP3    H118644   2.950   7.392   1.514
 6233TIP3    H218645   3.010   7.460   1.393
 6234TIP3   OH218646   1.272   5.361   1.048
 6234TIP3    H118647   1.207   5.400   1.105
 6234TIP3    H218648   1.356   5.388   1.085
 6235TIP3   OH218649   3.622   2.510   1.234
 6235TIP3    H118650   3.710   2.477   1.219
 6235TIP3    H218651   3.635   2.593   1.282
 6236TIP3   OH218652   8.032   2.610   4.236
 6236TIP3    H118653   7.987   2.552   4.297
 6236TIP3    H218654   8.125   2.593   4.250
 6237TIP3   OH218655   1.969   1.092   1.028
 6237TIP3    H118656   1.960   1.129   0.940
 6237TIP3    H218657   2.042   1.031   1.021
 6238TIP3   OH218658   3.537   2.538   4.877
 6238TIP3    H118659   3.510   2.623   4.841
 6238TIP3    H218660   3.559   2.486   4.800
 6239TIP3   OH218661   4.827   5.225   2.156
 6239TIP3    H118662   4.792   5.166   2.223
 6239TIP3    H218663   4.776   5.204   2.077
 6240TIP3   OH218664   4.697   1.328   4.657
 6240TIP3    H118665   4.722   1.245   4.616
 6240TIP3    H218666   4.780   1.364   4.691
 6241TIP3   OH218667  -0.025   2.739   2.987
 6241TIP3    H118668  -0.080   2.665   3.012
 6241TIP3    H218669   0.044   2.741   3.053
 6242TIP3   OH218670   5.550   3.160   2.282
 6242TIP3    H118671   5.514   3.227   2.223
 6242TIP3    H218672   5.509   3.178   2.366
 6243TIP3   OH218673   2.959   2.311   6.316
 6243TIP3    H118674   2.998   2.357   6.242
 6243TIP3    H218675   2.883   2.267   6.280
 6244TIP3   OH218676   3.722   3.560   4.173
 6244TIP3    H118677   3.729   3.471   4.209
 6244TIP3    H218678   3.807   3.576   4.132
 6245TIP3   OH218679   0.477   2.484   2.606
 6245TIP3    H118680   0.417   2.484   2.532
 6245TIP3    H218681   0.488   2.391   2.628
 6246TIP3   OH218682   1.205   2.272   0.080
 6246TIP3    H118683   1.275   2.262   0.016
 6246TIP3    H218684   1.218   2.359   0.118
 6247TIP3   OH218685   4.239   3.473   2.873
 6247TIP3    H118686   4.144   3.477   2.885
 6247TIP3    H218687   4.276   3.491   2.959
 6248TIP3   OH218688   8.047   3.807   0.259
 6248TIP3    H118689   8.099   3.881   0.288
 6248TIP3    H218690   8.103   3.730   0.273
 6249TIP3   OH218691   7.332   1.630   5.354
 6249TIP3    H118692   7.345   1.693   5.283
 6249TIP3    H218693   7.317   1.546   5.310
 6250TIP3   OH218694   5.621   1.572   0.474
 6250TIP3    H118695   5.569   1.495   0.454
 6250TIP3    H218696   5.557   1.642   0.488
 6251TIP3   OH218697   3.654   3.453   1.682
 6251TIP3    H118698   3.690   3.425   1.767
 6251TIP3    H218699   3.721   3.512   1.647
 6252TIP3   OH218700   0.577   3.942   2.067
 6252TIP3    H118701   0.567   4.014   2.130
 6252TIP3    H218702   0.625   3.980   1.994
 6253TIP3   OH218703   4.229   5.668   5.662
 6253TIP3    H118704   4.164   5.622   5.716
 6253TIP3    H218705   4.184   5.748   5.635
 6254TIP3   OH218706   5.719   2.124   1.509
 6254TIP3    H118707   5.670   2.088   1.583
 6254TIP3    H218708   5.664   2.106   1.433
 6255TIP3   OH218709   1.163   4.756   2.388
 6255TIP3    H118710   1.239   4.697   2.394
 6255TIP3    H218711   1.180   4.809   2.310
 6256TIP3   OH218712   4.185   2.756   3.025
 6256TIP3    H118713   4.232   2.838   3.015
 6256TIP3    H218714   4.151   2.737   2.937
 6257TIP3   OH218715   4.321   1.177   5.022
 6257TIP3    H118716   4.312   1.098   5.076
 6257TIP3    H218717   4.405   1.167   4.978
 6258TIP3   OH218718   2.266   5.778   6.648
 6258TIP3    H118719   2.353   5.742   6.629
 6258TIP3    H218720   2.282   5.871   6.667
 6259TIP3   OH218721   0.773   3.435   1.130
 6259TIP3    H118722   0.795   3.438   1.037
 6259TIP3    H218723   0.694   3.381   1.134
 6260TIP3   OH218724   6.574   5.239   6.465
 6260TIP3    H118725   6.520   5.233   6.544
 6260TIP3    H218726   6.574   5.333   6.444
 6261TIP3   OH218727   3.132   2.918   5.026
 6261TIP3    H118728   3.065   2.985   5.041
 6261TIP3    H218729   3.194   2.928   5.098
 6262TIP3   OH218730   1.920   7.590   6.221
 6262TIP3    H118731   1.945   7.543   6.301
 6262TIP3    H218732   1.921   7.682   6.246
 6263TIP3   OH218733   0.104   6.108   2.173
 6263TIP3    H118734   0.166   6.181   2.186
 6263TIP3    H218735   0.152   6.031   2.203
 6264TIP3   OH218736   6.951   7.202   6.220
 6264TIP3    H118737   6.892   7.126   6.229
 6264TIP3    H218738   6.992   7.191   6.135
 6265TIP3   OH218739   2.788   0.987   3.594
 6265TIP3    H118740   2.829   0.924   3.653
 6265TIP3    H218741   2.697   0.958   3.589
 6266TIP3   OH218742   5.931   1.169   2.128
 6266TIP3    H118743   5.988   1.094   2.146
 6266TIP3    H218744   5.992   1.243   2.116
 6267TIP3   OH218745   7.606   7.700   3.612
 6267TIP3    H118746   7.580   7.702   3.704
 6267TIP3    H218747   7.550   7.632   3.573
 6268TIP3   OH218748   2.660   1.099   3.325
 6268TIP3    H118749   2.665   1.017   3.275
 6268TIP3    H218750   2.700   1.077   3.409
 6269TIP3   OH218751   1.170   0.814   2.617
 6269TIP3    H118752   1.229   0.797   2.690
 6269TIP3    H218753   1.114   0.737   2.612
 6270TIP3   OH218754   6.131   0.214   5.527
 6270TIP3    H118755   6.182   0.150   5.478
 6270TIP3    H218756   6.042   0.204   5.493
 6271TIP3   OH218757   8.109   2.529   5.757
 6271TIP3    H118758   8.047   2.506   5.688
 6271TIP3    H218759   8.060   2.515   5.838
 6272TIP3   OH218760   2.276   6.442   1.431
 6272TIP3    H118761   2.328   6.522   1.437
 6272TIP3    H218762   2.192   6.464   1.470
 6273TIP3   OH218763   5.735   0.283   4.877
 6273TIP3    H118764   5.763   0.193   4.862
 6273TIP3    H218765   5.813   0.327   4.911
 6274TIP3   OH218766   0.475   2.623   3.793
 6274TIP3    H118767   0.550   2.565   3.800
 6274TIP3    H218768   0.506   2.697   3.741
 6275TIP3   OH218769   2.901   0.012   1.254
 6275TIP3    H118770   2.888   0.084   1.317
 6275TIP3    H218771   2.844   0.035   1.180
 6276TIP3   OH218772   1.290   5.284   0.785
 6276TIP3    H118773   1.247   5.349   0.730
 6276TIP3    H218774   1.290   5.322   0.872
 6277TIP3   OH218775   6.826   2.921   3.048
 6277TIP3    H118776   6.863   2.843   3.007
 6277TIP3    H218777   6.893   2.950   3.110
 6278TIP3   OH218778   0.525   1.486   5.591
 6278TIP3    H118779   0.582   1.563   5.595
 6278TIP3    H218780   0.545   1.446   5.507
 6279TIP3   OH218781   0.368   0.217   4.582
 6279TIP3    H118782   0.401   0.152   4.520
 6279TIP3    H218783   0.280   0.187   4.604
 6280TIP3   OH218784   5.869   1.383   1.810
 6280TIP3    H118785   5.819   1.440   1.751
 6280TIP3    H218786   5.954   1.371   1.766
 6281TIP3   OH218787   7.467   4.706   0.262
 6281TIP3    H118788   7.554   4.712   0.301
 6281TIP3    H218789   7.460   4.784   0.207
 6282TIP3   OH218790   8.252   7.447   0.159
 6282TIP3    H118791   8.192   7.458   0.233
 6282TIP3    H218792   8.196   7.456   0.082
 6283TIP3   OH218793   5.808   7.469   4.922
 6283TIP3    H118794   5.814   7.462   5.017
 6283TIP3    H218795   5.898   7.463   4.891
 6284TIP3   OH218796   5.844   7.041   6.208
 6284TIP3    H118797   5.751   7.063   6.196
 6284TIP3    H218798   5.850   7.014   6.300
 6285TIP3   OH218799   6.003   7.598   5.257
 6285TIP3    H118800   6.080   7.560   5.214
 6285TIP3    H218801   6.030   7.687   5.279
 6286TIP3   OH218802   2.832   1.031   2.359
 6286TIP3    H118803   2.746   1.045   2.399
 6286TIP3    H218804   2.834   1.093   2.286
 6287TIP3   OH218805   0.181   2.481   6.272
 6287TIP3    H118806   0.219   2.399   6.303
 6287TIP3    H218807   0.238   2.549   6.308
 6288TIP3   OH218808   2.762   0.191   1.103
 6288TIP3    H118809   2.676   0.178   1.062
 6288TIP3    H218810   2.743   0.238   1.185
 6289TIP3   OH218811   1.816   6.870   4.877
 6289TIP3    H118812   1.733   6.863   4.923
 6289TIP3    H218813   1.841   6.780   4.857
 6290TIP3   OH218814   3.861   3.673   0.571
 6290TIP3    H118815   3.939   3.678   0.516
 6290TIP3    H218816   3.877   3.597   0.628
 6291TIP3   OH218817   1.259   1.364   2.724
 6291TIP3    H118818   1.219   1.385   2.809
 6291TIP3    H218819   1.344   1.406   2.726
 6292TIP3   OH218820   3.633   7.017   1.576
 6292TIP3    H118821   3.714   6.967   1.583
 6292TIP3    H218822   3.635   7.076   1.652
 6293TIP3   OH218823   3.905   3.917   1.246
 6293TIP3    H118824   3.913   3.928   1.340
 6293TIP3    H218825   3.900   4.006   1.211
 6294TIP3   OH218826   1.603   7.505   6.250
 6294TIP3    H118827   1.537   7.459   6.301
 6294TIP3    H218828   1.634   7.575   6.307
 6295TIP3   OH218829   4.929   7.337   6.737
 6295TIP3    H118830   4.878   7.390   6.798
 6295TIP3    H218831   4.865   7.306   6.673
 6296TIP3   OH218832   4.386   3.839   1.568
 6296TIP3    H118833   4.415   3.781   1.638
 6296TIP3    H218834   4.425   3.924   1.590
 6297TIP3   OH218835   6.814   3.431   2.349
 6297TIP3    H118836   6.793   3.338   2.361
 6297TIP3    H218837   6.905   3.431   2.321
 6298TIP3   OH218838   7.956   0.751   4.780
 6298TIP3    H118839   7.893   0.679   4.787
 6298TIP3    H218840   8.033   0.721   4.828
 6299TIP3   OH218841   5.629   5.144   3.550
 6299TIP3    H118842   5.715   5.104   3.561
 6299TIP3    H218843   5.607   5.130   3.458
 6300TIP3   OH218844   8.045   5.750   2.590
 6300TIP3    H118845   8.058   5.837   2.551
 6300TIP3    H218846   8.019   5.768   2.680
 6301TIP3   OH218847   2.402   3.806   2.518
 6301TIP3    H118848   2.312   3.822   2.490
 6301TIP3    H218849   2.408   3.846   2.605
 6302TIP3   OH218850   5.081   0.391   4.389
 6302TIP3    H118851   5.038   0.458   4.442
 6302TIP3    H218852   5.037   0.309   4.412
 6303TIP3   OH218853   3.974   2.268   5.091
 6303TIP3    H118854   3.948   2.211   5.019
 6303TIP3    H218855   4.059   2.233   5.120
 6304TIP3   OH218856   3.037   2.967   1.843
 6304TIP3    H118857   2.989   2.886   1.856
 6304TIP3    H218858   3.062   2.966   1.751
 6305TIP3   OH218859   0.052   0.428   2.460
 6305TIP3    H118860   0.079   0.337   2.469
 6305TIP3    H218861  -0.044   0.424   2.460
 6306TIP3   OH218862   6.779   6.693   2.159
 6306TIP3    H118863   6.778   6.601   2.134
 6306TIP3    H218864   6.835   6.735   2.093
 6307TIP3   OH218865   4.000   1.037   2.341
 6307TIP3    H118866   4.033   1.013   2.428
 6307TIP3    H218867   3.972   1.128   2.350
 6308TIP3   OH218868   6.229   6.321   0.149
 6308TIP3    H118869   6.264   6.408   0.129
 6308TIP3    H218870   6.153   6.338   0.205
 6309TIP3   OH218871   7.266   4.472   3.996
 6309TIP3    H118872   7.196   4.532   4.022
 6309TIP3    H218873   7.221   4.389   3.982
 6310TIP3   OH218874   7.605   5.047   4.577
 6310TIP3    H118875   7.591   5.044   4.671
 6310TIP3    H218876   7.599   5.140   4.554
 6311TIP3   OH218877   7.014   6.783   2.596
 6311TIP3    H118878   6.967   6.701   2.580
 6311TIP3    H218879   6.945   6.844   2.624
 6312TIP3   OH218880   5.938   1.443   4.653
 6312TIP3    H118881   5.904   1.365   4.697
 6312TIP3    H218882   5.938   1.421   4.560
 6313TIP3   OH218883   1.857   2.075   2.892
 6313TIP3    H118884   1.828   2.151   2.943
 6313TIP3    H218885   1.918   2.111   2.827
 6314TIP3   OH218886   5.227   3.316   6.805
 6314TIP3    H118887   5.204   3.405   6.828
 6314TIP3    H218888   5.155   3.287   6.747
 6315TIP3   OH218889   0.044   7.415   3.506
 6315TIP3    H118890   0.076   7.325   3.512
 6315TIP3    H218891   0.123   7.468   3.495
 6316TIP3   OH218892   6.342   0.334   0.669
 6316TIP3    H118893   6.319   0.313   0.579
 6316TIP3    H218894   6.265   0.379   0.703
 6317TIP3   OH218895   6.758   2.349   6.185
 6317TIP3    H118896   6.694   2.420   6.193
 6317TIP3    H218897   6.825   2.383   6.126
 6318TIP3   OH218898   7.443   0.343   1.581
 6318TIP3    H118899   7.518   0.302   1.537
 6318TIP3    H218900   7.465   0.436   1.585
 6319TIP3   OH218901   7.227   3.353   4.794
 6319TIP3    H118902   7.312   3.309   4.796
 6319TIP3    H218903   7.231   3.415   4.868
 6320TIP3   OH218904   2.053   2.028   0.643
 6320TIP3    H118905   2.066   1.990   0.730
 6320TIP3    H218906   2.140   2.059   0.617
 6321TIP3   OH218907   0.502   5.197   0.465
 6321TIP3    H118908   0.496   5.207   0.560
 6321TIP3    H218909   0.571   5.133   0.452
 6322TIP3   OH218910   1.699   4.673   6.318
 6322TIP3    H118911   1.746   4.756   6.311
 6322TIP3    H218912   1.676   4.650   6.228
 6323TIP3   OH218913   6.434   3.113   3.764
 6323TIP3    H118914   6.363   3.049   3.764
 6323TIP3    H218915   6.459   3.122   3.672
 6324TIP3   OH218916   5.901   5.911   0.499
 6324TIP3    H118917   5.963   5.981   0.517
 6324TIP3    H218918   5.941   5.860   0.429
 6325TIP3   OH218919   3.817   7.300   5.471
 6325TIP3    H118920   3.843   7.360   5.401
 6325TIP3    H218921   3.869   7.222   5.456
 6326TIP3   OH218922   4.584   4.851   6.287
 6326TIP3    H118923   4.644   4.828   6.216
 6326TIP3    H218924   4.514   4.786   6.282
 6327TIP3   OH218925   6.805   6.507   4.198
 6327TIP3    H118926   6.858   6.475   4.271
 6327TIP3    H218927   6.715   6.483   4.221
 6328TIP3   OH218928   4.482   1.025   1.225
 6328TIP3    H118929   4.535   0.974   1.164
 6328TIP3    H218930   4.545   1.059   1.288
 6329TIP3   OH218931   8.084   0.869   0.024
 6329TIP3    H118932   7.995   0.873  -0.012
 6329TIP3    H218933   8.087   0.783   0.067
 6330TIP3   OH218934   5.510   3.765   1.140
 6330TIP3    H118935   5.502   3.789   1.047
 6330TIP3    H218936   5.471   3.839   1.187
 6331TIP3   OH218937   8.109   6.080   4.829
 6331TIP3    H118938   8.048   6.006   4.831
 6331TIP3    H218939   8.178   6.056   4.891
 6332TIP3   OH218940   0.515   1.143   2.542
 6332TIP3    H118941   0.549   1.085   2.474
 6332TIP3    H218942   0.566   1.223   2.532
 6333TIP3   OH218943   7.579   3.429   0.698
 6333TIP3    H118944   7.548   3.342   0.722
 6333TIP3    H218945   7.503   3.486   0.711
 6334TIP3   OH218946   3.380   3.812   0.429
 6334TIP3    H118947   3.431   3.735   0.455
 6334TIP3    H218948   3.367   3.802   0.335
 6335TIP3   OH218949   1.454   6.719   6.114
 6335TIP3    H118950   1.445   6.756   6.026
 6335TIP3    H218951   1.452   6.624   6.100
 6336TIP3   OH218952   5.341   7.452   5.875
 6336TIP3    H118953   5.255   7.450   5.832
 6336TIP3    H218954   5.363   7.361   5.890
 6337TIP3   OH218955   5.926   6.534   4.425
 6337TIP3    H118956   5.957   6.556   4.513
 6337TIP3    H218957   5.944   6.441   4.415
 6338TIP3   OH218958   7.587   3.259   1.229
 6338TIP3    H118959   7.557   3.215   1.150
 6338TIP3    H218960   7.621   3.343   1.199
 6339TIP3   OH218961   2.117   6.341   5.486
 6339TIP3    H118962   2.134   6.250   5.511
 6339TIP3    H218963   2.198   6.387   5.507
 6340TIP3   OH218964   0.260   2.806   1.527
 6340TIP3    H118965   0.250   2.792   1.433
 6340TIP3    H218966   0.293   2.723   1.561
 6341TIP3   OH218967   1.878   0.830   1.696
 6341TIP3    H118968   1.870   0.739   1.668
 6341TIP3    H218969   1.791   0.867   1.681
 6342TIP3   OH218970   6.486   5.713   0.325
 6342TIP3    H118971   6.418   5.663   0.370
 6342TIP3    H218972   6.555   5.725   0.391
 6343TIP3   OH218973   6.321   3.234   2.726
 6343TIP3    H118974   6.362   3.181   2.657
 6343TIP3    H218975   6.238   3.263   2.688
 6344TIP3   OH218976   4.231   4.068   0.940
 6344TIP3    H118977   4.197   4.144   0.894
 6344TIP3    H218978   4.195   4.074   1.028
 6345TIP3   OH218979   6.522   2.899   2.234
 6345TIP3    H118980   6.596   2.959   2.222
 6345TIP3    H218981   6.499   2.908   2.326
 6346TIP3   OH218982   5.262   7.527   2.438
 6346TIP3    H118983   5.263   7.622   2.442
 6346TIP3    H218984   5.186   7.506   2.382
 6347TIP3   OH218985   5.995   6.907   6.726
 6347TIP3    H118986   5.950   6.927   6.808
 6347TIP3    H218987   6.029   6.992   6.697
 6348TIP3   OH218988   0.446   1.468   3.303
 6348TIP3    H118989   0.422   1.472   3.211
 6348TIP3    H218990   0.409   1.547   3.341
 6349TIP3   OH218991   1.486   2.729   1.858
 6349TIP3    H118992   1.447   2.662   1.802
 6349TIP3    H218993   1.428   2.805   1.850
 6350TIP3   OH218994   1.257   5.256   2.236
 6350TIP3    H118995   1.345   5.260   2.198
 6350TIP3    H218996   1.223   5.345   2.227
 6351TIP3   OH218997   2.173   0.109   4.756
 6351TIP3    H118998   2.195   0.199   4.734
 6351TIP3    H218999   2.099   0.116   4.816
 6352TIP3   OH219000   2.190   4.663   5.611
 6352TIP3    H119001   2.170   4.631   5.523
 6352TIP3    H219002   2.235   4.590   5.654
 6353TIP3   OH219003   2.933   6.600   4.291
 6353TIP3    H119004   2.931   6.637   4.380
 6353TIP3    H219005   3.026   6.587   4.274
 6354TIP3   OH219006   3.841   3.188   6.570
 6354TIP3    H119007   3.889   3.109   6.543
 6354TIP3    H219008   3.752   3.175   6.536
 6355TIP3   OH219009   7.589   2.598   0.203
 6355TIP3    H119010   7.570   2.692   0.195
 6355TIP3    H219011   7.604   2.569   0.113
 6356TIP3   OH219012   7.862   2.644   5.585
 6356TIP3    H119013   7.902   2.561   5.555
 6356TIP3    H219014   7.816   2.677   5.508
 6357TIP3   OH219015   3.116   0.537   2.291
 6357TIP3    H119016   3.071   0.608   2.245
 6357TIP3    H219017   3.190   0.515   2.234
 6358TIP3   OH219018   5.848   7.253   2.424
 6358TIP3    H119019   5.810   7.340   2.435
 6358TIP3    H219020   5.906   7.261   2.349
 6359TIP3   OH219021   5.714   0.886   4.274
 6359TIP3    H119022   5.660   0.838   4.336
 6359TIP3    H219023   5.733   0.969   4.317
 6360TIP3   OH219024   0.514   2.903   3.354
 6360TIP3    H119025   0.452   2.959   3.401
 6360TIP3    H219026   0.466   2.823   3.337
 6361TIP3   OH219027   4.691   0.374   6.774
 6361TIP3    H119028   4.705   0.462   6.737
 6361TIP3    H219029   4.725   0.381   6.864
 6362TIP3   OH219030   8.025   5.396   4.295
 6362TIP3    H119031   8.063   5.469   4.245
 6362TIP3    H219032   8.101   5.351   4.331
 6363TIP3   OH219033   4.856   4.292   0.980
 6363TIP3    H119034   4.862   4.256   1.068
 6363TIP3    H219035   4.805   4.228   0.931
 6364TIP3   OH219036   7.697   5.065   3.902
 6364TIP3    H119037   7.788   5.069   3.872
 6364TIP3    H219038   7.685   4.974   3.930
 6365TIP3   OH219039   4.431   0.323   6.704
 6365TIP3    H119040   4.521   0.326   6.737
 6365TIP3    H219041   4.377   0.349   6.778
 6366TIP3   OH219042   8.305   1.634   6.223
 6366TIP3    H119043   8.253   1.713   6.234
 6366TIP3    H219044   8.294   1.586   6.305
 6367TIP3   OH219045   7.771   1.897   3.882
 6367TIP3    H119046   7.859   1.868   3.861
 6367TIP3    H219047   7.732   1.825   3.932
 6368TIP3   OH219048   2.189   0.202   5.376
 6368TIP3    H119049   2.173   0.163   5.290
 6368TIP3    H219050   2.130   0.156   5.435
 6369TIP3   OH219051   4.065   0.882   6.671
 6369TIP3    H119052   4.048   0.966   6.630
 6369TIP3    H219053   4.005   0.878   6.745
 6370TIP3   OH219054   6.803   5.795   5.116
 6370TIP3    H119055   6.737   5.726   5.116
 6370TIP3    H219056   6.868   5.767   5.053
 6371TIP3   OH219057   7.904   2.167   1.481
 6371TIP3    H119058   7.981   2.184   1.535
 6371TIP3    H219059   7.854   2.101   1.529
 6372TIP3   OH219060   4.866   3.815   3.844
 6372TIP3    H119061   4.919   3.755   3.896
 6372TIP3    H219062   4.896   3.804   3.754
 6373TIP3   OH219063   0.105   2.599   3.419
 6373TIP3    H119064   0.124   2.579   3.511
 6373TIP3    H219065   0.182   2.567   3.371
 6374TIP3   OH219066   3.734   6.202   3.396
 6374TIP3    H119067   3.709   6.275   3.338
 6374TIP3    H219068   3.707   6.123   3.348
 6375TIP3   OH219069   0.630   7.103   0.347
 6375TIP3    H119070   0.556   7.144   0.302
 6375TIP3    H219071   0.655   7.166   0.414
 6376TIP3   OH219072   7.259   4.183   0.926
 6376TIP3    H119073   7.282   4.203   1.017
 6376TIP3    H219074   7.286   4.261   0.878
 6377TIP3   OH219075   5.120   1.959   5.903
 6377TIP3    H119076   5.055   1.889   5.911
 6377TIP3    H219077   5.198   1.915   5.867
 6378TIP3   OH219078   3.846   7.348   0.770
 6378TIP3    H119079   3.804   7.265   0.794
 6378TIP3    H219080   3.795   7.415   0.815
 6379TIP3   OH219081   6.348   5.470   4.122
 6379TIP3    H119082   6.354   5.471   4.218
 6379TIP3    H219083   6.396   5.391   4.096
 6380TIP3   OH219084   5.734   0.706   3.953
 6380TIP3    H119085   5.772   0.664   3.875
 6380TIP3    H219086   5.644   0.675   3.955
 6381TIP3   OH219087   6.622   0.293   6.665
 6381TIP3    H119088   6.660   0.332   6.743
 6381TIP3    H219089   6.695   0.285   6.604
 6382TIP3   OH219090   7.429   5.066   6.046
 6382TIP3    H119091   7.439   5.050   5.952
 6382TIP3    H219092   7.349   5.020   6.069
 6383TIP3   OH219093   2.084   4.994   0.877
 6383TIP3    H119094   2.049   4.996   0.966
 6383TIP3    H219095   2.167   4.947   0.884
 6384TIP3   OH219096   1.411   5.802   2.543
 6384TIP3    H119097   1.343   5.789   2.477
 6384TIP3    H219098   1.363   5.798   2.627
 6385TIP3   OH219099   1.992   0.057   0.126
 6385TIP3    H119100   2.032  -0.008   0.068
 6385TIP3    H219101   2.065   0.110   0.157
 6386TIP3   OH219102   3.227   4.267   4.327
 6386TIP3    H119103   3.148   4.297   4.371
 6386TIP3    H219104   3.298   4.292   4.386
 6387TIP3   OH219105   1.014   3.281   4.135
 6387TIP3    H119106   0.965   3.229   4.199
 6387TIP3    H219107   1.004   3.371   4.163
 6388TIP3   OH219108   5.831   5.236   4.395
 6388TIP3    H119109   5.887   5.203   4.466
 6388TIP3    H219110   5.891   5.254   4.323
 6389TIP3   OH219111   4.191   5.621   2.462
 6389TIP3    H119112   4.223   5.554   2.401
 6389TIP3    H219113   4.235   5.601   2.544
 6390TIP3   OH219114   2.782   2.303   5.657
 6390TIP3    H119115   2.742   2.360   5.591
 6390TIP3    H219116   2.720   2.231   5.667
 6391TIP3   OH219117   6.377   7.289   0.936
 6391TIP3    H119118   6.385   7.370   0.985
 6391TIP3    H219119   6.378   7.220   1.002
 6392TIP3   OH219120   5.855   7.473   5.811
 6392TIP3    H119121   5.881   7.384   5.835
 6392TIP3    H219122   5.935   7.525   5.821
 6393TIP3   OH219123   0.511   2.040   3.838
 6393TIP3    H119124   0.473   2.008   3.920
 6393TIP3    H219125   0.605   2.031   3.850
 6394TIP3   OH219126   5.045   5.389   0.705
 6394TIP3    H119127   4.977   5.444   0.745
 6394TIP3    H219128   5.120   5.448   0.695
 6395TIP3   OH219129   0.649   0.018   5.266
 6395TIP3    H119130   0.653   0.092   5.205
 6395TIP3    H219131   0.739   0.003   5.292
 6396TIP3   OH219132   4.903   5.539   1.913
 6396TIP3    H119133   4.943   5.606   1.857
 6396TIP3    H219134   4.867   5.589   1.986
 6397TIP3   OH219135   1.544   0.279   4.695
 6397TIP3    H119136   1.537   0.204   4.753
 6397TIP3    H219137   1.471   0.336   4.720
 6398TIP3   OH219138   4.040   7.175   4.772
 6398TIP3    H119139   3.964   7.229   4.794
 6398TIP3    H219140   4.020   7.088   4.807
 6399TIP3   OH219141   0.125   6.197   3.240
 6399TIP3    H119142   0.128   6.106   3.213
 6399TIP3    H219143   0.039   6.228   3.212
 6400TIP3   OH219144   3.502   5.889   1.603
 6400TIP3    H119145   3.433   5.905   1.668
 6400TIP3    H219146   3.462   5.829   1.540
 6401TIP3   OH219147   0.213   5.596   2.026
 6401TIP3    H119148   0.233   5.688   2.010
 6401TIP3    H219149   0.145   5.597   2.094
 6402TIP3   OH219150   4.392   2.456   2.618
 6402TIP3    H119151   4.314   2.490   2.574
 6402TIP3    H219152   4.447   2.422   2.548
 6403TIP3   OH219153   1.893   6.957   3.538
 6403TIP3    H119154   1.819   7.008   3.507
 6403TIP3    H219155   1.970   7.010   3.516
 6404TIP3   OH219156   1.827   0.981   3.302
 6404TIP3    H119157   1.839   0.965   3.209
 6404TIP3    H219158   1.853   1.072   3.315
 6405TIP3   OH219159   7.661   1.819   1.147
 6405TIP3    H119160   7.750   1.802   1.116
 6405TIP3    H219161   7.618   1.861   1.072
 6406TIP3   OH219162   7.764   6.881   2.352
 6406TIP3    H119163   7.791   6.789   2.343
 6406TIP3    H219164   7.846   6.930   2.351
 6407TIP3   OH219165   5.228   5.517   2.880
 6407TIP3    H119166   5.146   5.470   2.890
 6407TIP3    H219167   5.286   5.456   2.835
 6408TIP3   OH219168   0.284   7.592   5.926
 6408TIP3    H119169   0.310   7.502   5.944
 6408TIP3    H219170   0.264   7.628   6.013
 6409TIP3   OH219171   6.724   6.871   4.625
 6409TIP3    H119172   6.755   6.847   4.712
 6409TIP3    H219173   6.681   6.956   4.638
 6410TIP3   OH219174   6.547   4.660   4.537
 6410TIP3    H119175   6.532   4.753   4.520
 6410TIP3    H219176   6.636   4.644   4.505
 6411TIP3   OH219177   3.987   0.978   2.064
 6411TIP3    H119178   3.968   1.010   2.152
 6411TIP3    H219179   3.954   1.047   2.006
 6412TIP3   OH219180   0.973   2.121   0.974
 6412TIP3    H119181   1.016   2.206   0.978
 6412TIP3    H219182   0.930   2.112   1.059
 6413TIP3   OH219183   6.469   0.083   0.513
 6413TIP3    H119184   6.539   0.098   0.577
 6413TIP3    H219185   6.476   0.156   0.452
 6414TIP3   OH219186   5.176   4.487   6.066
 6414TIP3    H119187   5.220   4.410   6.104
 6414TIP3    H219188   5.247   4.543   6.035
 6415TIP3   OH219189   7.950   4.047   1.962
 6415TIP3    H119190   7.875   4.002   1.925
 6415TIP3    H219191   8.005   4.069   1.887
 6416TIP3   OH219192   2.840   4.932   2.421
 6416TIP3    H119193   2.871   4.995   2.356
 6416TIP3    H219194   2.916   4.913   2.475
 6417TIP3   OH219195   2.400   0.781   1.236
 6417TIP3    H119196   2.349   0.726   1.178
 6417TIP3    H219197   2.338   0.809   1.304
 6418TIP3   OH219198   2.989   4.768   3.418
 6418TIP3    H119199   2.984   4.688   3.366
 6418TIP3    H219200   2.902   4.807   3.411
 6419TIP3   OH219201   3.473   1.991   5.931
 6419TIP3    H119202   3.559   1.963   5.901
 6419TIP3    H219203   3.473   2.086   5.920
 6420TIP3   OH219204   5.912   1.646   1.172
 6420TIP3    H119205   5.970   1.650   1.248
 6420TIP3    H219206   5.835   1.598   1.203
 6421TIP3   OH219207   4.648   6.600   2.364
 6421TIP3    H119208   4.593   6.522   2.373
 6421TIP3    H219209   4.590   6.665   2.324
 6422TIP3   OH219210   0.309   6.531   5.331
 6422TIP3    H119211   0.380   6.523   5.394
 6422TIP3    H219212   0.321   6.457   5.271
 6423TIP3   OH219213   1.158   4.065   2.551
 6423TIP3    H119214   1.156   4.092   2.643
 6423TIP3    H219215   1.125   4.142   2.503
 6424TIP3   OH219216   3.730   6.430   4.953
 6424TIP3    H119217   3.677   6.459   5.028
 6424TIP3    H219218   3.768   6.511   4.918
 6425TIP3   OH219219   2.908   4.608   1.817
 6425TIP3    H119220   2.821   4.635   1.789
 6425TIP3    H219221   2.912   4.515   1.796
 6426TIP3   OH219222   3.211   6.067   4.496
 6426TIP3    H119223   3.275   6.070   4.567
 6426TIP3    H219224   3.139   6.016   4.531
 6427TIP3   OH219225   6.239   6.241   6.332
 6427TIP3    H119226   6.299   6.295   6.280
 6427TIP3    H219227   6.195   6.185   6.269
 6428TIP3   OH219228   2.344   3.788   4.207
 6428TIP3    H119229   2.278   3.719   4.206
 6428TIP3    H219230   2.428   3.741   4.213
 6429TIP3   OH219231   4.438   3.496   0.241
 6429TIP3    H119232   4.471   3.585   0.251
 6429TIP3    H219233   4.355   3.506   0.194
 6430TIP3   OH219234   0.162   1.224   1.357
 6430TIP3    H119235   0.186   1.304   1.311
 6430TIP3    H219236   0.066   1.223   1.356
 6431TIP3   OH219237   2.883   0.247   3.344
 6431TIP3    H119238   2.959   0.266   3.289
 6431TIP3    H219239   2.869   0.153   3.334
 6432TIP3   OH219240   7.207   7.190   2.638
 6432TIP3    H119241   7.298   7.179   2.612
 6432TIP3    H219242   7.174   7.259   2.580
 6433TIP3   OH219243   7.708   7.051   2.559
 6433TIP3    H119244   7.703   6.983   2.492
 6433TIP3    H219245   7.802   7.061   2.576
 6434TIP3   OH219246   5.805   5.935   4.238
 6434TIP3    H119247   5.784   6.010   4.293
 6434TIP3    H219248   5.758   5.861   4.277
 6435TIP3   OH219249   1.020   1.000   0.446
 6435TIP3    H119250   0.961   1.063   0.406
 6435TIP3    H219251   1.017   0.924   0.388
 6436TIP3   OH219252   4.934   1.461   2.012
 6436TIP3    H119253   4.884   1.386   1.983
 6436TIP3    H219254   5.023   1.445   1.980
 6437TIP3   OH219255   1.203   3.938   6.219
 6437TIP3    H119256   1.223   3.845   6.209
 6437TIP3    H219257   1.287   3.977   6.245
 6438TIP3   OH219258   7.060   1.660   4.106
 6438TIP3    H119259   7.006   1.737   4.088
 6438TIP3    H219260   7.049   1.604   4.030
 6439TIP3   OH219261   5.732   2.388   4.095
 6439TIP3    H119262   5.766   2.438   4.020
 6439TIP3    H219263   5.725   2.298   4.062
 6440TIP3   OH219264   6.840   4.849   6.550
 6440TIP3    H119265   6.777   4.819   6.485
 6440TIP3    H219266   6.880   4.769   6.584
 6441TIP3   OH219267   0.791   7.107   3.969
 6441TIP3    H119268   0.741   7.030   3.943
 6441TIP3    H219269   0.739   7.148   4.038
 6442TIP3   OH219270   0.433   1.983   2.556
 6442TIP3    H119271   0.356   1.955   2.606
 6442TIP3    H219272   0.462   1.904   2.510
 6443TIP3   OH219273   3.214   5.071   6.098
 6443TIP3    H119274   3.229   5.118   6.016
 6443TIP3    H219275   3.292   5.090   6.151
 6444TIP3   OH219276   6.413   6.536   0.158
 6444TIP3    H119277   6.487   6.509   0.104
 6444TIP3    H219278   6.432   6.500   0.245
 6445TIP3   OH219279   3.517   1.094   0.046
 6445TIP3    H119280   3.547   1.185   0.038
 6445TIP3    H219281   3.524   1.059  -0.043
 6446TIP3   OH219282   6.415   5.746   4.501
 6446TIP3    H119283   6.349   5.794   4.551
 6446TIP3    H219284   6.438   5.805   4.429
 6447TIP3   OH219285   2.921   4.210   0.779
 6447TIP3    H119286   2.859   4.136   0.784
 6447TIP3    H219287   2.962   4.200   0.693
 6448TIP3   OH219288   7.332   6.343   4.067
 6448TIP3    H119289   7.387   6.349   4.144
 6448TIP3    H219290   7.243   6.339   4.101
 6449TIP3   OH219291   4.980   6.269   0.537
 6449TIP3    H119292   5.047   6.218   0.493
 6449TIP3    H219293   4.944   6.325   0.468
 6450TIP3   OH219294   3.309   1.113   3.417
 6450TIP3    H119295   3.249   1.107   3.342
 6450TIP3    H219296   3.345   1.202   3.411
 6451TIP3   OH219297   0.321   4.503   6.666
 6451TIP3    H119298   0.385   4.451   6.619
 6451TIP3    H219299   0.317   4.464   6.753
 6452TIP3   OH219300   3.559   0.582   2.063
 6452TIP3    H119301   3.645   0.617   2.040
 6452TIP3    H219302   3.500   0.618   1.997
 6453TIP3   OH219303   3.452   0.280   0.127
 6453TIP3    H119304   3.357   0.279   0.124
 6453TIP3    H219305   3.474   0.238   0.210
 6454TIP3   OH219306   5.099   4.008   6.608
 6454TIP3    H119307   5.122   4.086   6.658
 6454TIP3    H219308   5.009   4.023   6.581
 6455TIP3   OH219309   2.223   1.066   6.337
 6455TIP3    H119310   2.170   0.988   6.353
 6455TIP3    H219311   2.258   1.090   6.423
 6456TIP3   OH219312   0.466   1.508   1.541
 6456TIP3    H119313   0.451   1.413   1.540
 6456TIP3    H219314   0.379   1.547   1.542
 6457TIP3   OH219315   2.860   1.142   0.309
 6457TIP3    H119316   2.920   1.068   0.321
 6457TIP3    H219317   2.823   1.128   0.222
 6458TIP3   OH219318   3.697   1.715   4.382
 6458TIP3    H119319   3.777   1.754   4.347
 6458TIP3    H219320   3.632   1.728   4.313
 6459TIP3   OH219321   2.490   7.097   4.660
 6459TIP3    H119322   2.521   7.017   4.617
 6459TIP3    H219323   2.512   7.084   4.752
 6460TIP3   OH219324   4.449   5.515   2.158
 6460TIP3    H119325   4.447   5.450   2.088
 6460TIP3    H219326   4.378   5.489   2.217
 6461TIP3   OH219327   3.931   1.652   5.396
 6461TIP3    H119328   3.856   1.646   5.337
 6461TIP3    H219329   3.908   1.596   5.470
 6462TIP3   OH219330   5.120   6.451   6.410
 6462TIP3    H119331   5.113   6.492   6.324
 6462TIP3    H219332   5.203   6.484   6.445
 6463TIP3   OH219333   3.902   7.087   6.654
 6463TIP3    H119334   3.840   7.137   6.707
 6463TIP3    H219335   3.849   7.018   6.614
 6464TIP3   OH219336   5.487   2.268   0.429
 6464TIP3    H119337   5.550   2.339   0.419
 6464TIP3    H219338   5.426   2.279   0.356
 6465TIP3   OH219339   5.012   1.379   6.703
 6465TIP3    H119340   4.962   1.386   6.621
 6465TIP3    H219341   5.093   1.428   6.686
 6466TIP3   OH219342   3.435   7.317   2.206
 6466TIP3    H119343   3.450   7.310   2.112
 6466TIP3    H219344   3.350   7.276   2.220
 6467TIP3   OH219345   3.931   6.369   6.418
 6467TIP3    H119346   3.878   6.347   6.495
 6467TIP3    H219347   3.899   6.311   6.349
 6468TIP3   OH219348   6.204   1.093   3.786
 6468TIP3    H119349   6.155   1.015   3.809
 6468TIP3    H219350   6.223   1.136   3.870
 6469TIP3   OH219351   6.764   6.429   4.548
 6469TIP3    H119352   6.709   6.370   4.601
 6469TIP3    H219353   6.744   6.516   4.581
 6470TIP3   OH219354   6.406   6.418   1.411
 6470TIP3    H119355   6.442   6.418   1.323
 6470TIP3    H219356   6.402   6.325   1.435
 6471TIP3   OH219357   4.168   1.371   4.545
 6471TIP3    H119358   4.158   1.312   4.619
 6471TIP3    H219359   4.215   1.447   4.581
 6472TIP3   OH219360   1.922   2.291   6.034
 6472TIP3    H119361   1.891   2.369   5.987
 6472TIP3    H219362   2.018   2.301   6.035
 6473TIP3   OH219363   5.482   5.840   2.508
 6473TIP3    H119364   5.455   5.817   2.597
 6473TIP3    H219365   5.410   5.893   2.474
 6474TIP3   OH219366   5.625   5.439   1.720
 6474TIP3    H119367   5.618   5.361   1.774
 6474TIP3    H219368   5.535   5.456   1.691
 6475TIP3   OH219369   3.004   4.985   1.357
 6475TIP3    H119370   3.076   4.992   1.295
 6475TIP3    H219371   2.942   5.053   1.330
 6476TIP3   OH219372   5.717   3.671   2.219
 6476TIP3    H119373   5.628   3.704   2.234
 6476TIP3    H219374   5.752   3.726   2.149
 6477TIP3   OH219375   7.396   2.817   6.759
 6477TIP3    H119376   7.445   2.896   6.782
 6477TIP3    H219377   7.372   2.830   6.667
 6478TIP3   OH219378   5.311   5.481   3.473
 6478TIP3    H119379   5.314   5.452   3.382
 6478TIP3    H219380   5.317   5.577   3.467
 6479TIP3   OH219381   3.858   6.203   5.419
 6479TIP3    H119382   3.826   6.287   5.453
 6479TIP3    H219383   3.794   6.178   5.352
 6480TIP3   OH219384   2.072   2.255   2.176
 6480TIP3    H119385   2.153   2.230   2.132
 6480TIP3    H219386   2.014   2.285   2.106
 6481TIP3   OH219387   3.075   1.888   1.230
 6481TIP3    H119388   3.110   1.907   1.143
 6481TIP3    H219389   3.078   1.971   1.276
 6482TIP3   OH219390   6.854   2.454   4.172
 6482TIP3    H119391   6.845   2.361   4.152
 6482TIP3    H219392   6.782   2.473   4.232
 6483TIP3   OH219393   3.464   6.397   6.803
 6483TIP3    H119394   3.474   6.358   6.716
 6483TIP3    H219395   3.537   6.458   6.811
 6484TIP3   OH219396   6.643   3.904   6.446
 6484TIP3    H119397   6.674   3.903   6.356
 6484TIP3    H219398   6.556   3.866   6.442
 6485TIP3   OH219399   2.374   5.296   3.584
 6485TIP3    H119400   2.327   5.221   3.621
 6485TIP3    H219401   2.369   5.363   3.652
 6486TIP3   OH219402   4.627   6.044   3.266
 6486TIP3    H119403   4.553   6.086   3.311
 6486TIP3    H219404   4.629   5.956   3.302
 6487TIP3   OH219405   1.752   0.709   5.271
 6487TIP3    H119406   1.740   0.751   5.356
 6487TIP3    H219407   1.753   0.615   5.291
 6488TIP3   OH219408   4.977   1.302   6.128
 6488TIP3    H119409   4.973   1.349   6.044
 6488TIP3    H219410   4.895   1.326   6.172
 6489TIP3   OH219411   4.525   4.690   3.947
 6489TIP3    H119412   4.583   4.766   3.942
 6489TIP3    H219413   4.561   4.638   4.019
 6490TIP3   OH219414   1.999   5.287   5.884
 6490TIP3    H119415   2.011   5.247   5.798
 6490TIP3    H219416   2.088   5.291   5.921
 6491TIP3   OH219417   1.955   0.629   0.327
 6491TIP3    H119418   1.962   0.691   0.254
 6491TIP3    H219419   1.953   0.543   0.285
 6492TIP3   OH219420   3.327   3.736   6.493
 6492TIP3    H119421   3.235   3.753   6.474
 6492TIP3    H219422   3.375   3.801   6.443
 6493TIP3   OH219423   1.456   7.036   6.249
 6493TIP3    H119424   1.534   7.089   6.231
 6493TIP3    H219425   1.436   6.994   6.165
 6494TIP3   OH219426   8.184   4.212   5.646
 6494TIP3    H119427   8.130   4.291   5.641
 6494TIP3    H219428   8.258   4.237   5.701
 6495TIP3   OH219429   7.489   7.187   2.650
 6495TIP3    H119430   7.567   7.153   2.606
 6495TIP3    H219431   7.464   7.118   2.712
 6496TIP3   OH219432   8.134   0.808   5.042
 6496TIP3    H119433   8.168   0.829   5.129
 6496TIP3    H219434   8.052   0.856   5.036
 6497TIP3   OH219435   4.259   7.060   4.460
 6497TIP3    H119436   4.336   7.071   4.404
 6497TIP3    H219437   4.195   7.123   4.426
 6498TIP3   OH219438   0.523   3.482   5.448
 6498TIP3    H119439   0.506   3.398   5.491
 6498TIP3    H219440   0.618   3.489   5.447
 6499TIP3   OH219441   0.126   4.227   6.477
 6499TIP3    H119442   0.205   4.243   6.530
 6499TIP3    H219443   0.159   4.219   6.388
 6500TIP3   OH219444   4.940   7.099   5.426
 6500TIP3    H119445   4.854   7.118   5.390
 6500TIP3    H219446   4.998   7.093   5.349
 6501TIP3   OH219447   4.990   4.353   3.356
 6501TIP3    H119448   4.910   4.306   3.334
 6501TIP3    H219449   5.004   4.412   3.283
 6502TIP3   OH219450   1.752   0.568   3.740
 6502TIP3    H119451   1.785   0.648   3.781
 6502TIP3    H219452   1.682   0.538   3.799
 6503TIP3   OH219453   4.700   2.667   1.659
 6503TIP3    H119454   4.721   2.751   1.618
 6503TIP3    H219455   4.615   2.643   1.622
 6504TIP3   OH219456   2.609   4.135   2.976
 6504TIP3    H119457   2.565   4.053   2.956
 6504TIP3    H219458   2.641   4.167   2.892
 6505TIP3   OH219459   3.285   3.853   1.328
 6505TIP3    H119460   3.373   3.889   1.322
 6505TIP3    H219461   3.271   3.839   1.422
 6506TIP3   OH219462   8.016   7.626   2.814
 6506TIP3    H119463   8.086   7.571   2.848
 6506TIP3    H219464   8.005   7.599   2.723
 6507TIP3   OH219465   2.599   4.986   6.372
 6507TIP3    H119466   2.636   5.051   6.432
 6507TIP3    H219467   2.606   4.903   6.419
 6508TIP3   OH219468   3.202   1.892   0.951
 6508TIP3    H119469   3.223   1.984   0.934
 6508TIP3    H219470   3.111   1.884   0.925
 6509TIP3   OH219471   2.761   0.134   5.546
 6509TIP3    H119472   2.713   0.194   5.489
 6509TIP3    H219473   2.746   0.047   5.509
 6510TIP3   OH219474   6.059   2.560   6.026
 6510TIP3    H119475   6.129   2.576   6.089
 6510TIP3    H219476   6.066   2.633   5.964
 6511TIP3   OH219477   4.128   1.663   5.062
 6511TIP3    H119478   4.133   1.571   5.087
 6511TIP3    H219479   4.035   1.686   5.073
 6512TIP3   OH219480   6.057   3.259   5.128
 6512TIP3    H119481   6.130   3.202   5.104
 6512TIP3    H219482   6.087   3.305   5.206
 6513TIP3   OH219483   4.418   5.474   1.460
 6513TIP3    H119484   4.362   5.541   1.422
 6513TIP3    H219485   4.505   5.514   1.464
 6514TIP3   OH219486   1.021   0.335   4.717
 6514TIP3    H119487   1.008   0.400   4.785
 6514TIP3    H219488   0.939   0.285   4.715
 6515TIP3   OH219489   4.384   3.363   1.458
 6515TIP3    H119490   4.429   3.371   1.542
 6515TIP3    H219491   4.319   3.433   1.458
 6516TIP3   OH219492   4.188   1.712   4.029
 6516TIP3    H119493   4.238   1.676   3.956
 6516TIP3    H219494   4.157   1.797   3.997
 6517TIP3   OH219495   2.146   2.716   4.643
 6517TIP3    H119496   2.177   2.798   4.604
 6517TIP3    H219497   2.058   2.705   4.609
 6518TIP3   OH219498   0.899   1.425   2.730
 6518TIP3    H119499   0.805   1.420   2.746
 6518TIP3    H219500   0.928   1.501   2.781
 6519TIP3   OH219501   0.013   7.225   1.014
 6519TIP3    H119502  -0.077   7.223   1.048
 6519TIP3    H219503   0.012   7.294   0.948
 6520TIP3   OH219504   1.189   2.539   5.466
 6520TIP3    H119505   1.222   2.464   5.516
 6520TIP3    H219506   1.106   2.508   5.428
 6521TIP3   OH219507   5.690   2.765   0.024
 6521TIP3    H119508   5.744   2.764  -0.055
 6521TIP3    H219509   5.733   2.703   0.083
 6522TIP3   OH219510   6.192   7.807   4.203
 6522TIP3    H119511   6.203   7.889   4.154
 6522TIP3    H219512   6.226   7.740   4.145
 6523TIP3   OH219513   2.289   3.653   2.071
 6523TIP3    H119514   2.314   3.578   2.126
 6523TIP3    H219515   2.307   3.624   1.982
 6524TIP3   OH219516   6.652   5.005   1.416
 6524TIP3    H119517   6.643   5.094   1.449
 6524TIP3    H219518   6.627   4.949   1.490
 6525TIP3   OH219519   4.347   5.892   2.625
 6525TIP3    H119520   4.316   5.808   2.661
 6525TIP3    H219521   4.272   5.951   2.634
 6526TIP3   OH219522   4.158   2.828   1.447
 6526TIP3    H119523   4.137   2.830   1.354
 6526TIP3    H219524   4.161   2.921   1.473
 6527TIP3   OH219525   0.239   3.793   3.390
 6527TIP3    H119526   0.254   3.810   3.482
 6527TIP3    H219527   0.232   3.697   3.384
 6528TIP3   OH219528   7.040   7.062   5.965
 6528TIP3    H119529   7.128   7.027   5.949
 6528TIP3    H219530   7.010   7.091   5.879
 6529TIP3   OH219531   5.546   4.054   1.050
 6529TIP3    H119532   5.468   4.110   1.040
 6529TIP3    H219533   5.586   4.054   0.964
 6530TIP3   OH219534   4.672   1.467   0.160
 6530TIP3    H119535   4.655   1.559   0.181
 6530TIP3    H219536   4.748   1.444   0.214
 6531TIP3   OH219537   4.254   3.281   0.374
 6531TIP3    H119538   4.287   3.290   0.463
 6531TIP3    H219539   4.312   3.336   0.321
 6532TIP3   OH219540   1.984  -0.010   1.797
 6532TIP3    H119541   1.933  -0.038   1.721
 6532TIP3    H219542   2.075  -0.025   1.771
 6533TIP3   OH219543   7.762   3.403   5.357
 6533TIP3    H119544   7.753   3.453   5.276
 6533TIP3    H219545   7.839   3.440   5.400
 6534TIP3   OH219546   8.172   0.781   3.230
 6534TIP3    H119547   8.136   0.798   3.317
 6534TIP3    H219548   8.131   0.846   3.173
 6535TIP3   OH219549   1.434   0.619   0.039
 6535TIP3    H119550   1.518   0.654   0.069
 6535TIP3    H219551   1.455   0.533   0.003
 6536TIP3   OH219552   2.216   4.169   6.686
 6536TIP3    H119553   2.290   4.174   6.626
 6536TIP3    H219554   2.224   4.083   6.727
 6537TIP3   OH219555   2.109   1.464   0.197
 6537TIP3    H119556   2.072   1.422   0.119
 6537TIP3    H219557   2.079   1.555   0.191
 6538TIP3   OH219558   2.682   2.422   5.409
 6538TIP3    H119559   2.668   2.458   5.322
 6538TIP3    H219560   2.776   2.426   5.423
 6539TIP3   OH219561   3.515   5.206   6.701
 6539TIP3    H119562   3.474   5.120   6.704
 6539TIP3    H219563   3.454   5.264   6.746
 6540TIP3   OH219564   5.285   2.392   1.178
 6540TIP3    H119565   5.276   2.347   1.094
 6540TIP3    H219566   5.238   2.337   1.240
 6541TIP3   OH219567   0.848   6.473   1.101
 6541TIP3    H119568   0.925   6.487   1.045
 6541TIP3    H219569   0.836   6.379   1.101
 6542TIP3   OH219570   0.048   0.165   1.473
 6542TIP3    H119571   0.065   0.129   1.560
 6542TIP3    H219572   0.083   0.254   1.476
 6543TIP3   OH219573   0.604   6.160   4.048
 6543TIP3    H119574   0.518   6.155   4.006
 6543TIP3    H219575   0.651   6.083   4.016
 6544TIP3   OH219576   0.610   6.977   1.567
 6544TIP3    H119577   0.574   7.029   1.638
 6544TIP3    H219578   0.627   6.891   1.606
 6545TIP3   OH219579   0.415   6.852   4.980
 6545TIP3    H119580   0.476   6.892   5.042
 6545TIP3    H219581   0.446   6.762   4.972
 6546TIP3   OH219582   6.605   1.118   2.352
 6546TIP3    H119583   6.618   1.211   2.335
 6546TIP3    H219584   6.656   1.074   2.283
 6547TIP3   OH219585   3.560   1.070   6.651
 6547TIP3    H119586   3.512   1.101   6.574
 6547TIP3    H219587   3.557   0.975   6.645
 6548TIP3   OH219588   7.220   1.455   3.388
 6548TIP3    H119589   7.245   1.406   3.309
 6548TIP3    H219590   7.205   1.544   3.356
 6549TIP3   OH219591   3.291   5.350   6.506
 6549TIP3    H119592   3.343   5.424   6.535
 6549TIP3    H219593   3.208   5.357   6.554
 6550TIP3   OH219594   2.439   6.801   2.819
 6550TIP3    H119595   2.370   6.786   2.885
 6550TIP3    H219596   2.518   6.818   2.871
 6551TIP3   OH219597   3.595   3.280   5.133
 6551TIP3    H119598   3.618   3.188   5.122
 6551TIP3    H219599   3.556   3.305   5.049
 6552TIP3   OH219600   0.671   7.367   5.937
 6552TIP3    H119601   0.734   7.425   5.979
 6552TIP3    H219602   0.620   7.425   5.880
 6553TIP3   OH219603   1.457   5.777   5.811
 6553TIP3    H119604   1.496   5.724   5.880
 6553TIP3    H219605   1.528   5.835   5.783
 6554TIP3   OH219606   2.551   5.089   5.833
 6554TIP3    H119607   2.610   5.164   5.830
 6554TIP3    H219608   2.511   5.094   5.919
 6555TIP3   OH219609  -0.038   5.943   1.758
 6555TIP3    H119610   0.035   6.000   1.783
 6555TIP3    H219611   0.004   5.859   1.736
 6556TIP3   OH219612   6.001   7.841   4.418
 6556TIP3    H119613   6.050   7.827   4.337
 6556TIP3    H219614   5.953   7.760   4.431
 6557TIP3   OH219615   5.073   7.275   0.770
 6557TIP3    H119616   5.130   7.345   0.803
 6557TIP3    H219617   5.042   7.231   0.849
 6558TIP3   OH219618   5.167   1.171   4.512
 6558TIP3    H119619   5.171   1.254   4.463
 6558TIP3    H219620   5.077   1.167   4.544
 6559TIP3   OH219621   3.358   2.910   1.132
 6559TIP3    H119622   3.440   2.894   1.180
 6559TIP3    H219623   3.293   2.859   1.179
 6560TIP3   OH219624   5.416   5.159   2.855
 6560TIP3    H119625   5.485   5.203   2.906
 6560TIP3    H219626   5.407   5.213   2.777
 6561TIP3   OH219627   4.885   2.250   3.488
 6561TIP3    H119628   4.858   2.174   3.540
 6561TIP3    H219629   4.974   2.232   3.461
 6562TIP3   OH219630   3.753   4.297   1.628
 6562TIP3    H119631   3.743   4.202   1.622
 6562TIP3    H219632   3.841   4.314   1.596
 6563TIP3   OH219633   6.500   0.403   4.492
 6563TIP3    H119634   6.494   0.336   4.560
 6563TIP3    H219635   6.490   0.356   4.410
 6564TIP3   OH219636   5.460   1.043   2.484
 6564TIP3    H119637   5.434   1.129   2.450
 6564TIP3    H219638   5.509   1.003   2.412
 6565TIP3   OH219639   3.735   1.202   2.521
 6565TIP3    H119640   3.711   1.120   2.478
 6565TIP3    H219641   3.743   1.265   2.450
 6566TIP3   OH219642   7.529   2.641   6.078
 6566TIP3    H119643   7.501   2.656   5.988
 6566TIP3    H219644   7.625   2.643   6.074
 6567TIP3   OH219645   2.775   3.870   3.441
 6567TIP3    H119646   2.848   3.835   3.390
 6567TIP3    H219647   2.775   3.818   3.521
 6568TIP3   OH219648   0.546   6.280   6.716
 6568TIP3    H119649   0.524   6.301   6.625
 6568TIP3    H219650   0.493   6.341   6.767
 6569TIP3   OH219651   1.271   5.835   5.559
 6569TIP3    H119652   1.330   5.853   5.632
 6569TIP3    H219653   1.260   5.739   5.560
 6570TIP3   OH219654   4.625   1.016   0.309
 6570TIP3    H119655   4.645   1.099   0.267
 6570TIP3    H219656   4.678   1.014   0.388
 6571TIP3   OH219657   4.638   5.902   2.662
 6571TIP3    H119658   4.543   5.890   2.653
 6571TIP3    H219659   4.664   5.945   2.581
 6572TIP3   OH219660   4.636   1.952   0.861
 6572TIP3    H119661   4.644   1.938   0.956
 6572TIP3    H219662   4.575   1.884   0.832
 6573TIP3   OH219663   5.487   2.383   6.054
 6573TIP3    H119664   5.400   2.395   6.093
 6573TIP3    H219665   5.485   2.437   5.975
 6574TIP3   OH219666   1.021   2.200   3.909
 6574TIP3    H119667   1.087   2.143   3.870
 6574TIP3    H219668   1.040   2.197   4.003
 6575TIP3   OH219669   5.343   6.163   5.599
 6575TIP3    H119670   5.311   6.153   5.688
 6575TIP3    H219671   5.275   6.124   5.544
 6576TIP3   OH219672   3.184   3.047   2.847
 6576TIP3    H119673   3.267   3.071   2.888
 6576TIP3    H219674   3.119   3.059   2.917
 6577TIP3   OH219675   4.450   3.824   1.317
 6577TIP3    H119676   4.455   3.813   1.412
 6577TIP3    H219677   4.435   3.917   1.305
 6578TIP3   OH219678   7.036   5.349   5.952
 6578TIP3    H119679   7.089   5.288   5.901
 6578TIP3    H219680   6.986   5.294   6.011
 6579TIP3   OH219681   2.260   0.177   5.783
 6579TIP3    H119682   2.254   0.160   5.877
 6579TIP3    H219683   2.332   0.121   5.753
 6580TIP3   OH219684   3.888   2.687   1.680
 6580TIP3    H119685   3.829   2.751   1.640
 6580TIP3    H219686   3.834   2.610   1.696
 6581TIP3   OH219687   3.207   2.448   6.676
 6581TIP3    H119688   3.197   2.367   6.726
 6581TIP3    H219689   3.118   2.479   6.662
 6582TIP3   OH219690   5.813   1.322   1.257
 6582TIP3    H119691   5.868   1.295   1.183
 6582TIP3    H219692   5.724   1.319   1.222
 6583TIP3   OH219693   4.478   6.327   1.668
 6583TIP3    H119694   4.453   6.309   1.759
 6583TIP3    H219695   4.456   6.419   1.655
 6584TIP3   OH219696   6.395   4.475   0.190
 6584TIP3    H119697   6.431   4.389   0.213
 6584TIP3    H219698   6.353   4.461   0.105
 6585TIP3   OH219699   3.022   3.389   6.176
 6585TIP3    H119700   3.055   3.302   6.154
 6585TIP3    H219701   2.927   3.377   6.182
 6586TIP3   OH219702   3.874   1.631   0.664
 6586TIP3    H119703   3.912   1.718   0.651
 6586TIP3    H219704   3.935   1.571   0.621
 6587TIP3   OH219705   6.102   4.817   2.311
 6587TIP3    H119706   6.116   4.751   2.242
 6587TIP3    H219707   6.191   4.845   2.336
 6588TIP3   OH219708   2.041   2.786   2.881
 6588TIP3    H119709   1.984   2.774   2.956
 6588TIP3    H219710   2.027   2.877   2.854
 6589TIP3   OH219711   1.903   7.700   5.703
 6589TIP3    H119712   1.924   7.665   5.790
 6589TIP3    H219713   1.811   7.725   5.709
 6590TIP3   OH219714   2.882   3.498   5.097
 6590TIP3    H119715   2.816   3.544   5.046
 6590TIP3    H219716   2.841   3.414   5.118
 6591TIP3   OH219717   1.735   6.295   5.699
 6591TIP3    H119718   1.640   6.286   5.691
 6591TIP3    H219719   1.771   6.213   5.665
 6592TIP3   OH219720   4.472   1.735   0.799
 6592TIP3    H119721   4.540   1.671   0.821
 6592TIP3    H219722   4.399   1.683   0.767
 6593TIP3   OH219723   4.822   3.135   2.903
 6593TIP3    H119724   4.769   3.176   2.971
 6593TIP3    H219725   4.872   3.207   2.864
 6594TIP3   OH219726   0.589   2.180   1.674
 6594TIP3    H119727   0.600   2.157   1.766
 6594TIP3    H219728   0.495   2.170   1.658
 6595TIP3   OH219729   5.988   0.017   1.290
 6595TIP3    H119730   6.038  -0.021   1.362
 6595TIP3    H219731   6.051   0.025   1.218
 6596TIP3   OH219732   7.373   2.098   5.039
 6596TIP3    H119733   7.465   2.082   5.018
 6596TIP3    H219734   7.361   2.057   5.126
 6597TIP3   OH219735   5.403   0.080   6.274
 6597TIP3    H119736   5.362   0.069   6.360
 6597TIP3    H219737   5.346   0.031   6.214
 6598TIP3   OH219738   5.433   7.104   3.057
 6598TIP3    H119739   5.501   7.053   3.014
 6598TIP3    H219740   5.382   7.142   2.986
 6599TIP3   OH219741   3.152   2.493   5.815
 6599TIP3    H119742   3.217   2.524   5.752
 6599TIP3    H219743   3.161   2.397   5.815
 6600TIP3   OH219744   2.545   6.491   1.137
 6600TIP3    H119745   2.632   6.526   1.156
 6600TIP3    H219746   2.558   6.397   1.131
 6601TIP3   OH219747   5.371   4.027   4.030
 6601TIP3    H119748   5.306   3.997   4.094
 6601TIP3    H219749   5.404   4.109   4.067
 6602TIP3   OH219750   4.203   2.325   2.260
 6602TIP3    H119751   4.277   2.265   2.254
 6602TIP3    H219752   4.127   2.271   2.238
 6603TIP3   OH219753   0.751   0.873   3.457
 6603TIP3    H119754   0.787   0.847   3.372
 6603TIP3    H219755   0.755   0.969   3.456
 6604TIP3   OH219756   6.288   2.523   5.044
 6604TIP3    H119757   6.220   2.494   4.984
 6604TIP3    H219758   6.242   2.572   5.112
 6605TIP3   OH219759   5.749   2.395   1.127
 6605TIP3    H119760   5.814   2.356   1.070
 6605TIP3    H219761   5.668   2.392   1.077
 6606TIP3   OH219762   1.188   4.346   1.696
 6606TIP3    H119763   1.208   4.269   1.748
 6606TIP3    H219764   1.261   4.353   1.634
 6607TIP3   OH219765   7.073   1.267   5.063
 6607TIP3    H119766   6.990   1.224   5.042
 6607TIP3    H219767   7.138   1.197   5.060
 6608TIP3   OH219768   4.092   0.464   0.931
 6608TIP3    H119769   4.088   0.394   0.996
 6608TIP3    H219770   4.148   0.531   0.970
 6609TIP3   OH219771   5.823   5.141   5.157
 6609TIP3    H119772   5.786   5.064   5.201
 6609TIP3    H219773   5.824   5.117   5.065
 6610TIP3   OH219774   7.933   7.443   1.131
 6610TIP3    H119775   7.963   7.511   1.070
 6610TIP3    H219776   7.872   7.489   1.189
 6611TIP3   OH219777   1.694   5.058   6.408
 6611TIP3    H119778   1.716   5.076   6.499
 6611TIP3    H219779   1.619   4.998   6.413
 6612TIP3   OH219780   7.295   5.796   1.879
 6612TIP3    H119781   7.387   5.805   1.854
 6612TIP3    H219782   7.272   5.707   1.854
 6613TIP3   OH219783   5.416   1.022   5.059
 6613TIP3    H119784   5.507   1.051   5.060
 6613TIP3    H219785   5.413   0.951   5.124
 6614TIP3   OH219786   7.762   0.810   2.038
 6614TIP3    H119787   7.855   0.797   2.057
 6614TIP3    H219788   7.722   0.724   2.054
 6615TIP3   OH219789   5.305   5.648   1.881
 6615TIP3    H119790   5.345   5.655   1.795
 6615TIP3    H219791   5.298   5.553   1.896
 6616TIP3   OH219792   1.449   6.291   0.186
 6616TIP3    H119793   1.355   6.290   0.168
 6616TIP3    H219794   1.470   6.383   0.202
 6617TIP3   OH219795   5.303   6.763   5.125
 6617TIP3    H119796   5.326   6.832   5.186
 6617TIP3    H219797   5.271   6.691   5.180
 6618TIP3   OH219798   6.229   1.744   4.314
 6618TIP3    H119799   6.246   1.813   4.378
 6618TIP3    H219800   6.315   1.711   4.291
 6619TIP3   OH219801   2.615   4.751   5.855
 6619TIP3    H119802   2.540   4.805   5.829
 6619TIP3    H219803   2.598   4.666   5.814
 6620TIP3   OH219804   5.716   4.068   2.444
 6620TIP3    H119805   5.749   3.988   2.485
 6620TIP3    H219806   5.790   4.129   2.450
 6621TIP3   OH219807   4.052   2.893   6.093
 6621TIP3    H119808   4.026   2.915   6.004
 6621TIP3    H219809   4.072   2.977   6.134
 6622TIP3   OH219810   4.219   0.103   5.637
 6622TIP3    H119811   4.226   0.145   5.722
 6622TIP3    H219812   4.156   0.032   5.649
 6623TIP3   OH219813   4.183   3.700   6.178
 6623TIP3    H119814   4.126   3.764   6.222
 6623TIP3    H219815   4.133   3.673   6.101
 6624TIP3   OH219816   2.967   3.239   2.966
 6624TIP3    H119817   3.040   3.281   3.011
 6624TIP3    H219818   2.896   3.303   2.972
 6625TIP3   OH219819   2.920   7.379   4.312
 6625TIP3    H119820   2.993   7.355   4.368
 6625TIP3    H219821   2.933   7.473   4.295
 6626TIP3   OH219822   3.313   2.749   1.906
 6626TIP3    H119823   3.395   2.716   1.942
 6626TIP3    H219824   3.273   2.672   1.864
 6627TIP3   OH219825   3.736  -0.009   0.187
 6627TIP3    H119826   3.663  -0.056   0.228
 6627TIP3    H219827   3.694   0.045   0.120
 6628TIP3   OH219828   6.408   2.658   2.766
 6628TIP3    H119829   6.421   2.563   2.758
 6628TIP3    H219830   6.396   2.673   2.859
 6629TIP3   OH219831   4.573   2.284   1.721
 6629TIP3    H119832   4.566   2.281   1.625
 6629TIP3    H219833   4.522   2.209   1.751
 6630TIP3   OH219834   7.583   0.424   0.075
 6630TIP3    H119835   7.543   0.470   0.000
 6630TIP3    H219836   7.632   0.352   0.035
 6631TIP3   OH219837   3.947   2.199   5.947
 6631TIP3    H119838   3.996   2.193   6.029
 6631TIP3    H219839   3.871   2.252   5.968
 6632TIP3   OH219840   0.308   6.450   2.560
 6632TIP3    H119841   0.371   6.442   2.489
 6632TIP3    H219842   0.243   6.383   2.542
 6633TIP3   OH219843   3.083   7.304   6.009
 6633TIP3    H119844   3.034   7.359   6.069
 6633TIP3    H219845   3.026   7.295   5.932
 6634TIP3   OH219846   6.894   4.227   6.048
 6634TIP3    H119847   6.909   4.151   5.992
 6634TIP3    H219848   6.874   4.298   5.988
 6635TIP3   OH219849   2.129   0.956   2.135
 6635TIP3    H119850   2.166   1.016   2.070
 6635TIP3    H219851   2.059   0.910   2.089
 6636TIP3   OH219852   4.099   1.579   6.508
 6636TIP3    H119853   4.163   1.593   6.439
 6636TIP3    H219854   4.035   1.519   6.470
 6637TIP3   OH219855   1.972   5.141   2.636
 6637TIP3    H119856   1.996   5.050   2.656
 6637TIP3    H219857   2.052   5.181   2.602
 6638TIP3   OH219858   5.023   1.137   1.827
 6638TIP3    H119859   4.936   1.113   1.858
 6638TIP3    H219860   5.009   1.173   1.740
 6639TIP3   OH219861   4.338   5.246   0.372
 6639TIP3    H119862   4.248   5.214   0.381
 6639TIP3    H219863   4.331   5.341   0.380
 6640TIP3   OH219864   2.794   7.424   0.844
 6640TIP3    H119865   2.736   7.476   0.898
 6640TIP3    H219866   2.751   7.421   0.758
 6641TIP3   OH219867   7.493   7.221   6.316
 6641TIP3    H119868   7.451   7.184   6.394
 6641TIP3    H219869   7.574   7.259   6.349
 6642TIP3   OH219870   5.137   1.233   1.085
 6642TIP3    H119871   5.059   1.266   1.040
 6642TIP3    H219872   5.199   1.306   1.083
 6643TIP3   OH219873   4.895   7.120   1.296
 6643TIP3    H119874   4.927   7.031   1.282
 6643TIP3    H219875   4.801   7.109   1.311
 6644TIP3   OH219876   5.739   1.633   4.293
 6644TIP3    H119877   5.803   1.690   4.335
 6644TIP3    H219878   5.755   1.643   4.200
 6645TIP3   OH219879   2.386   0.441   2.568
 6645TIP3    H119880   2.371   0.469   2.478
 6645TIP3    H219881   2.300   0.409   2.598
 6646TIP3   OH219882   3.631   7.369   4.231
 6646TIP3    H119883   3.683   7.288   4.231
 6646TIP3    H219884   3.576   7.362   4.153
 6647TIP3   OH219885   3.938   1.664   2.874
 6647TIP3    H119886   3.979   1.578   2.880
 6647TIP3    H219887   3.946   1.700   2.962
 6648TIP3   OH219888   0.314   2.258   4.407
 6648TIP3    H119889   0.246   2.190   4.417
 6648TIP3    H219890   0.276   2.322   4.348
 6649TIP3   OH219891   4.744   7.616   2.292
 6649TIP3    H119892   4.829   7.617   2.336
 6649TIP3    H219893   4.748   7.539   2.234
 6650TIP3   OH219894   7.942   4.701   4.835
 6650TIP3    H119895   7.891   4.760   4.780
 6650TIP3    H219896   8.022   4.684   4.784
 6651TIP3   OH219897   2.860   7.110   1.273
 6651TIP3    H119898   2.837   7.087   1.183
 6651TIP3    H219899   2.955   7.121   1.271
 6652TIP3   OH219900   5.981   1.948   1.874
 6652TIP3    H119901   6.050   2.001   1.833
 6652TIP3    H219902   5.903   2.005   1.872
 6653TIP3   OH219903  -0.049   3.261   3.436
 6653TIP3    H119904   0.000   3.184   3.408
 6653TIP3    H219905   0.015   3.315   3.482
 6654TIP3   OH219906   3.113   4.210   0.234
 6654TIP3    H119907   3.170   4.236   0.162
 6654TIP3    H219908   3.082   4.293   0.271
 6655TIP3   OH219909   5.230   5.962   0.101
 6655TIP3    H119910   5.221   6.004   0.015
 6655TIP3    H219911   5.320   5.929   0.102
 6656TIP3   OH219912   2.275   5.299   5.542
 6656TIP3    H119913   2.189   5.272   5.510
 6656TIP3    H219914   2.277   5.394   5.526
 6657TIP3   OH219915   0.434   7.764   2.260
 6657TIP3    H119916   0.395   7.834   2.208
 6657TIP3    H219917   0.499   7.723   2.203
 6658TIP3   OH219918   5.083   2.981   6.287
 6658TIP3    H119919   5.163   2.948   6.246
 6658TIP3    H219920   5.114   3.030   6.363
 6659TIP3   OH219921   5.177   4.793   0.535
 6659TIP3    H119922   5.266   4.756   0.537
 6659TIP3    H219923   5.185   4.876   0.582
 6660TIP3   OH219924   1.810   3.114   6.579
 6660TIP3    H119925   1.777   3.202   6.596
 6660TIP3    H219926   1.898   3.113   6.619
 6661TIP3   OH219927   4.586   3.559   0.538
 6661TIP3    H119928   4.604   3.602   0.621
 6661TIP3    H219929   4.586   3.629   0.473
 6662TIP3   OH219930   3.835   4.153   1.115
 6662TIP3    H119931   3.770   4.210   1.154
 6662TIP3    H219932   3.820   4.161   1.021
 6663TIP3   OH219933   1.698   1.889   0.403
 6663TIP3    H119934   1.606   1.877   0.428
 6663TIP3    H219935   1.701   1.869   0.310
 6664TIP3   OH219936   1.223   1.519   5.426
 6664TIP3    H119937   1.311   1.484   5.408
 6664TIP3    H219938   1.215   1.595   5.368
 6665TIP3   OH219939   7.818   5.311   5.074
 6665TIP3    H119940   7.839   5.400   5.102
 6665TIP3    H219941   7.893   5.284   5.021
 6666TIP3   OH219942   2.889   4.697   0.724
 6666TIP3    H119943   2.970   4.646   0.727
 6666TIP3    H219944   2.836   4.653   0.658
 6667TIP3   OH219945   0.906   6.748   3.102
 6667TIP3    H119946   0.913   6.816   3.035
 6667TIP3    H219947   0.825   6.768   3.148
 6668TIP3   OH219948   6.583   0.378   1.972
 6668TIP3    H119949   6.584   0.414   1.884
 6668TIP3    H219950   6.574   0.454   2.030
 6669TIP3   OH219951   0.625   1.948   4.555
 6669TIP3    H119952   0.663   2.035   4.544
 6669TIP3    H219953   0.590   1.926   4.469
 6670TIP3   OH219954   3.339   0.378   4.733
 6670TIP3    H119955   3.409   0.353   4.672
 6670TIP3    H219956   3.370   0.459   4.773
 6671TIP3   OH219957   6.990   3.211   2.578
 6671TIP3    H119958   7.010   3.130   2.625
 6671TIP3    H219959   6.969   3.274   2.647
 6672TIP3   OH219960   7.863   4.521   2.319
 6672TIP3    H119961   7.854   4.590   2.253
 6672TIP3    H219962   7.940   4.546   2.370
 6673TIP3   OH219963   4.807   3.318   5.145
 6673TIP3    H119964   4.896   3.344   5.165
 6673TIP3    H219965   4.775   3.275   5.224
 6674TIP3   OH219966   2.846   6.460   0.807
 6674TIP3    H119967   2.940   6.461   0.825
 6674TIP3    H219968   2.827   6.547   0.773
 6675TIP3   OH219969   3.870   6.527   3.145
 6675TIP3    H119970   3.837   6.493   3.062
 6675TIP3    H219971   3.906   6.613   3.124
 6676TIP3   OH219972   1.734   5.641   0.552
 6676TIP3    H119973   1.651   5.623   0.507
 6676TIP3    H219974   1.775   5.555   0.562
 6677TIP3   OH219975   5.463   0.940   1.950
 6677TIP3    H119976   5.536   0.977   2.001
 6677TIP3    H219977   5.461   0.992   1.870
 6678TIP3   OH219978   0.716   0.145   4.478
 6678TIP3    H119979   0.635   0.100   4.455
 6678TIP3    H219980   0.732   0.121   4.570
 6679TIP3   OH219981   7.967   3.578   3.152
 6679TIP3    H119982   7.995   3.647   3.092
 6679TIP3    H219983   8.042   3.519   3.158
 6680TIP3   OH219984   6.058   1.791   5.794
 6680TIP3    H119985   6.009   1.822   5.870
 6680TIP3    H219986   5.994   1.740   5.743
 6681TIP3   OH219987   5.998   3.431   3.624
 6681TIP3    H119988   6.083   3.473   3.617
 6681TIP3    H219989   5.936   3.504   3.629
 6682TIP3   OH219990   7.312   2.772   4.271
 6682TIP3    H119991   7.257   2.741   4.343
 6682TIP3    H219992   7.252   2.784   4.198
 6683TIP3   OH219993   8.223   3.434   3.821
 6683TIP3    H119994   8.265   3.451   3.737
 6683TIP3    H219995   8.295   3.425   3.883
 6684TIP3   OH219996   5.034   5.484   6.464
 6684TIP3    H119997   5.022   5.579   6.469
 6684TIP3    H219998   4.953   5.453   6.422
 6685TIP3   OH219999   2.976   3.989   0.260
 6685TIP3    H120000   3.019   4.062   0.217
 6685TIP3    H220001   3.024   3.911   0.229
 6686TIP3   OH220002   7.007   6.877   0.965
 6686TIP3    H120003   6.946   6.877   0.891
 6686TIP3    H220004   7.094   6.885   0.925
 6687TIP3   OH220005   5.735   4.627   1.916
 6687TIP3    H120006   5.732   4.535   1.940
 6687TIP3    H220007   5.648   4.647   1.882
 6688TIP3   OH220008   3.274   2.149   0.858
 6688TIP3    H120009   3.333   2.223   0.867
 6688TIP3    H220010   3.264   2.137   0.763
 6689TIP3   OH220011   7.500   1.527   6.676
 6689TIP3    H120012   7.477   1.468   6.605
 6689TIP3    H220013   7.480   1.615   6.642
 6690TIP3   OH220014   4.305   6.877   1.487
 6690TIP3    H120015   4.364   6.803   1.498
 6690TIP3    H220016   4.291   6.883   1.392
 6691TIP3   OH220017   0.932   1.902   2.432
 6691TIP3    H120018   1.005   1.860   2.476
 6691TIP3    H220019   0.949   1.996   2.441
 6692TIP3   OH220020   5.078   0.681   4.198
 6692TIP3    H120021   5.041   0.757   4.243
 6692TIP3    H220022   5.039   0.605   4.242
 6693TIP3   OH220023   5.915   5.158   3.585
 6693TIP3    H120024   5.955   5.239   3.616
 6693TIP3    H220025   5.975   5.089   3.614
 6694TIP3   OH220026   1.069   2.361   0.868
 6694TIP3    H120027   1.128   2.427   0.903
 6694TIP3    H220028   1.076   2.370   0.773
 6695TIP3   OH220029   2.779   2.262   4.174
 6695TIP3    H120030   2.699   2.246   4.224
 6695TIP3    H220031   2.839   2.300   4.238
 6696TIP3   OH220032   3.060   6.507   6.093
 6696TIP3    H120033   3.092   6.582   6.042
 6696TIP3    H220034   3.103   6.432   6.053
 6697TIP3   OH220035   0.941   1.661   3.871
 6697TIP3    H120036   0.847   1.647   3.858
 6697TIP3    H220037   0.982   1.585   3.828
 6698TIP3   OH220038   2.975   6.364   5.528
 6698TIP3    H120039   2.973   6.378   5.622
 6698TIP3    H220040   3.037   6.292   5.515
 6699TIP3   OH220041   1.904   5.288   5.497
 6699TIP3    H120042   1.809   5.291   5.503
 6699TIP3    H220043   1.935   5.352   5.561
 6700TIP3   OH220044   3.415   7.633   6.078
 6700TIP3    H120045   3.475   7.605   6.009
 6700TIP3    H220046   3.328   7.617   6.042
 6701TIP3   OH220047   0.627   4.923   4.040
 6701TIP3    H120048   0.685   4.984   4.086
 6701TIP3    H220049   0.669   4.909   3.955
 6702TIP3   OH220050   4.889   5.432   6.030
 6702TIP3    H120051   4.856   5.437   5.940
 6702TIP3    H220052   4.979   5.463   6.025
 6703TIP3   OH220053   5.254   7.466   0.826
 6703TIP3    H120054   5.255   7.470   0.922
 6703TIP3    H220055   5.344   7.442   0.802
 6704TIP3   OH220056   4.795   2.802   0.318
 6704TIP3    H120057   4.859   2.869   0.292
 6704TIP3    H220058   4.718   2.852   0.346
 6705TIP3   OH220059   5.889   5.684   4.945
 6705TIP3    H120060   5.931   5.769   4.955
 6705TIP3    H220061   5.962   5.623   4.930
 6706TIP3   OH220062   7.568   2.814   2.603
 6706TIP3    H120063   7.663   2.811   2.594
 6706TIP3    H220064   7.548   2.907   2.617
 6707TIP3   OH220065   5.479   5.196   6.696
 6707TIP3    H120066   5.499   5.225   6.607
 6707TIP3    H220067   5.386   5.176   6.695
 6708TIP3   OH220068   2.454   0.081   5.625
 6708TIP3    H120069   2.497   0.128   5.696
 6708TIP3    H220070   2.515   0.012   5.600
 6709TIP3   OH220071   4.959   4.170   0.130
 6709TIP3    H120072   4.988   4.083   0.157
 6709TIP3    H220073   4.923   4.157   0.042
 6710TIP3   OH220074   6.291   0.846   3.172
 6710TIP3    H120075   6.381   0.869   3.151
 6710TIP3    H220076   6.278   0.879   3.262
 6711TIP3   OH220077   4.204   1.304   3.453
 6711TIP3    H120078   4.267   1.374   3.471
 6711TIP3    H220079   4.230   1.269   3.368
 6712TIP3   OH220080   3.187   1.515   2.143
 6712TIP3    H120081   3.186   1.482   2.233
 6712TIP3    H220082   3.137   1.449   2.093
 6713TIP3   OH220083   0.985   0.499   6.046
 6713TIP3    H120084   1.072   0.524   6.077
 6713TIP3    H220085   0.983   0.404   6.055
 6714TIP3   OH220086   3.979   7.181   6.409
 6714TIP3    H120087   3.963   7.137   6.492
 6714TIP3    H220088   4.066   7.221   6.419
 6715TIP3   OH220089   5.440   7.229   0.550
 6715TIP3    H120090   5.436   7.309   0.603
 6715TIP3    H220091   5.533   7.216   0.533
 6716TIP3   OH220092   5.974   2.921   2.828
 6716TIP3    H120093   5.939   2.915   2.917
 6716TIP3    H220094   5.920   2.861   2.777
 6717TIP3   OH220095   6.488   1.269   3.449
 6717TIP3    H120096   6.511   1.242   3.538
 6717TIP3    H220097   6.568   1.309   3.415
 6718TIP3   OH220098   1.449   2.503   4.853
 6718TIP3    H120099   1.432   2.422   4.806
 6718TIP3    H220100   1.412   2.572   4.798
 6719TIP3   OH220101   0.087   0.171   2.342
 6719TIP3    H120102   0.056   0.088   2.305
 6719TIP3    H220103   0.152   0.145   2.407
 6720TIP3   OH220104   7.953   3.215   6.513
 6720TIP3    H120105   8.027   3.213   6.574
 6720TIP3    H220106   7.992   3.192   6.428
 6721TIP3   OH220107   2.015   0.884   5.388
 6721TIP3    H120108   2.033   0.798   5.351
 6721TIP3    H220109   1.962   0.866   5.465
 6722TIP3   OH220110   5.459   3.073   4.850
 6722TIP3    H120111   5.471   3.167   4.847
 6722TIP3    H220112   5.521   3.042   4.915
 6723TIP3   OH220113   4.346   5.615   2.686
 6723TIP3    H120114   4.431   5.651   2.712
 6723TIP3    H220115   4.349   5.523   2.714
 6724TIP3   OH220116   2.882   6.683   5.888
 6724TIP3    H120117   2.810   6.620   5.896
 6724TIP3    H220118   2.862   6.751   5.951
 6725TIP3   OH220119   2.913   6.463   2.331
 6725TIP3    H120120   2.983   6.401   2.312
 6725TIP3    H220121   2.832   6.413   2.321
 6726TIP3   OH220122   0.028   6.144   4.336
 6726TIP3    H120123   0.077   6.063   4.341
 6726TIP3    H220124   0.088   6.211   4.368
 6727TIP3   OH220125   6.931   7.478   4.589
 6727TIP3    H120126   7.013   7.481   4.538
 6727TIP3    H220127   6.954   7.431   4.669
 6728TIP3   OH220128   4.555   7.440   6.150
 6728TIP3    H120129   4.495   7.425   6.077
 6728TIP3    H220130   4.502   7.423   6.228
 6729TIP3   OH220131   6.176   6.090   3.660
 6729TIP3    H120132   6.097   6.105   3.608
 6729TIP3    H220133   6.246   6.082   3.596
 6730TIP3   OH220134   4.598   6.317   6.443
 6730TIP3    H120135   4.596   6.315   6.538
 6730TIP3    H220136   4.517   6.275   6.415
 6731TIP3   OH220137   0.611   5.115   0.992
 6731TIP3    H120138   0.583   5.093   1.081
 6731TIP3    H220139   0.706   5.121   0.998
 6732TIP3   OH220140   5.717   2.103   6.613
 6732TIP3    H120141   5.714   2.197   6.591
 6732TIP3    H220142   5.679   2.060   6.536
 6733TIP3   OH220143   3.166   5.992   4.121
 6733TIP3    H120144   3.217   5.974   4.200
 6733TIP3    H220145   3.086   5.940   4.131
 6734TIP3   OH220146   1.670   1.630   1.032
 6734TIP3    H120147   1.617   1.574   1.089
 6734TIP3    H220148   1.672   1.584   0.948
 6735TIP3   OH220149   6.130   5.633   1.072
 6735TIP3    H120150   6.074   5.708   1.053
 6735TIP3    H220151   6.192   5.665   1.137
 6736TIP3   OH220152   5.584   0.744   0.107
 6736TIP3    H120153   5.541   0.775   0.187
 6736TIP3    H220154   5.532   0.669   0.079
 6737TIP3   OH220155   0.859   3.868   3.452
 6737TIP3    H120156   0.863   3.914   3.368
 6737TIP3    H220157   0.942   3.890   3.494
 6738TIP3   OH220158   6.497   5.384   4.958
 6738TIP3    H120159   6.528   5.469   4.925
 6738TIP3    H220160   6.540   5.374   5.043
 6739TIP3   OH220161   1.877   2.747   3.137
 6739TIP3    H120162   1.941   2.785   3.197
 6739TIP3    H220163   1.796   2.795   3.155
 6740TIP3   OH220164   4.315   3.071   4.651
 6740TIP3    H120165   4.296   3.071   4.557
 6740TIP3    H220166   4.373   3.146   4.664
 6741TIP3   OH220167   0.324   2.172   2.382
 6741TIP3    H120168   0.308   2.126   2.300
 6741TIP3    H220169   0.380   2.113   2.432
 6742TIP3   OH220170   2.672   0.656   4.138
 6742TIP3    H120171   2.652   0.693   4.052
 6742TIP3    H220172   2.746   0.707   4.169
 6743TIP3   OH220173   1.706   2.178   6.188
 6743TIP3    H120174   1.718   2.242   6.258
 6743TIP3    H220175   1.784   2.189   6.133
 6744TIP3   OH220176   8.024   0.571   1.288
 6744TIP3    H120177   7.967   0.648   1.295
 6744TIP3    H220178   8.000   0.532   1.204
 6745TIP3   OH220179   0.834   2.495   5.946
 6745TIP3    H120180   0.855   2.431   6.014
 6745TIP3    H220181   0.745   2.523   5.967
 6746TIP3   OH220182   4.081   2.116   1.860
 6746TIP3    H120183   4.120   2.052   1.800
 6746TIP3    H220184   4.099   2.081   1.948
 6747TIP3   OH220185   5.802   5.266   5.857
 6747TIP3    H120186   5.803   5.250   5.951
 6747TIP3    H220187   5.867   5.336   5.845
 6748TIP3   OH220188   6.639   2.445   5.750
 6748TIP3    H120189   6.549   2.425   5.776
 6748TIP3    H220190   6.631   2.516   5.686
 6749TIP3   OH220191   5.898   2.997   3.376
 6749TIP3    H120192   5.922   3.087   3.352
 6749TIP3    H220193   5.980   2.947   3.366
 6750TIP3   OH220194   5.034   2.576   3.180
 6750TIP3    H120195   5.004   2.541   3.096
 6750TIP3    H220196   4.960   2.628   3.212
 6751TIP3   OH220197   4.166   6.284   2.298
 6751TIP3    H120198   4.229   6.222   2.259
 6751TIP3    H220199   4.086   6.271   2.247
 6752TIP3   OH220200   5.097   1.599   0.879
 6752TIP3    H120201   5.039   1.571   0.809
 6752TIP3    H220202   5.160   1.528   0.889
 6753TIP3   OH220203   2.243   3.729   0.491
 6753TIP3    H120204   2.308   3.743   0.560
 6753TIP3    H220205   2.277   3.779   0.417
 6754TIP3   OH220206   4.982   4.126   5.387
 6754TIP3    H120207   4.893   4.105   5.417
 6754TIP3    H220208   5.027   4.042   5.386
 6755TIP3   OH220209   0.691   0.102   0.504
 6755TIP3    H120210   0.706   0.147   0.420
 6755TIP3    H220211   0.603   0.128   0.529
 6756TIP3   OH220212   7.003   2.494   2.889
 6756TIP3    H120213   6.923   2.540   2.916
 6756TIP3    H220214   7.031   2.538   2.809
 6757TIP3   OH220215   6.584   6.130   2.089
 6757TIP3    H120216   6.578   6.194   2.018
 6757TIP3    H220217   6.639   6.173   2.155
 6758TIP3   OH220218   4.830   0.274   4.176
 6758TIP3    H120219   4.868   0.285   4.089
 6758TIP3    H220220   4.746   0.319   4.172
 6759TIP3   OH220221   1.804   6.069   5.957
 6759TIP3    H120222   1.764   5.997   6.006
 6759TIP3    H220223   1.837   6.028   5.877
 6760TIP3   OH220224   4.923   3.593   3.984
 6760TIP3    H120225   4.830   3.586   4.003
 6760TIP3    H220226   4.945   3.511   3.939
 6761TIP3   OH220227   4.127   3.291   4.018
 6761TIP3    H120228   4.146   3.203   3.984
 6761TIP3    H220229   4.145   3.349   3.944
 6762TIP3   OH220230   0.567   4.163   0.366
 6762TIP3    H120231   0.490   4.197   0.411
 6762TIP3    H220232   0.611   4.241   0.331
 6763TIP3   OH220233   6.560   4.660   0.496
 6763TIP3    H120234   6.523   4.735   0.542
 6763TIP3    H220235   6.556   4.684   0.403
 6764TIP3   OH220236   1.952   0.446   4.006
 6764TIP3    H120237   1.915   0.412   4.088
 6764TIP3    H220238   1.919   0.386   3.939
 6765TIP3   OH220239   0.960   2.424   1.296
 6765TIP3    H120240   0.962   2.493   1.362
 6765TIP3    H220241   0.887   2.446   1.239
 6766TIP3   OH220242   1.108   0.138   2.386
 6766TIP3    H120243   1.144   0.054   2.357
 6766TIP3    H220244   1.141   0.148   2.475
 6767TIP3   OH220245   0.548   3.932   2.581
 6767TIP3    H120246   0.496   3.884   2.645
 6767TIP3    H220247   0.608   3.866   2.545
 6768TIP3   OH220248   2.791   2.365   0.515
 6768TIP3    H120249   2.705   2.393   0.483
 6768TIP3    H220250   2.807   2.281   0.471
 6769TIP3   OH220251   6.969   6.571   0.947
 6769TIP3    H120252   6.923   6.638   0.897
 6769TIP3    H220253   7.029   6.620   1.003
 6770TIP3   OH220254   1.056   2.916   1.718
 6770TIP3    H120255   0.978   2.863   1.731
 6770TIP3    H220256   1.083   2.899   1.628
 6771TIP3   OH220257   6.662   4.294   0.622
 6771TIP3    H120258   6.728   4.334   0.679
 6771TIP3    H220259   6.579   4.322   0.659
 6772TIP3   OH220260   3.035   0.326   0.279
 6772TIP3    H120261   2.987   0.404   0.248
 6772TIP3    H220262   3.098   0.308   0.209
 6773TIP3   OH220263   4.549   2.710   4.650
 6773TIP3    H120264   4.525   2.618   4.641
 6773TIP3    H220265   4.545   2.745   4.561
 6774TIP3   OH220266   2.802   4.862   1.552
 6774TIP3    H120267   2.894   4.888   1.553
 6774TIP3    H220268   2.787   4.826   1.640
 6775TIP3   OH220269   2.842   5.614   3.582
 6775TIP3    H120270   2.873   5.695   3.623
 6775TIP3    H220271   2.847   5.548   3.651
 6776TIP3   OH220272   3.627   3.747   0.755
 6776TIP3    H120273   3.672   3.704   0.683
 6776TIP3    H220274   3.605   3.676   0.815
 6777TIP3   OH220275   0.504   6.188   4.291
 6777TIP3    H120276   0.473   6.103   4.320
 6777TIP3    H220277   0.528   6.175   4.199
 6778TIP3   OH220278   6.496   7.100   5.116
 6778TIP3    H120279   6.400   7.098   5.121
 6778TIP3    H220280   6.524   7.019   5.158
 6779TIP3   OH220281   0.637   1.476   0.374
 6779TIP3    H120282   0.557   1.423   0.371
 6779TIP3    H220283   0.615   1.554   0.323
 6780TIP3   OH220284   6.702   7.739   3.552
 6780TIP3    H120285   6.702   7.647   3.579
 6780TIP3    H220286   6.629   7.746   3.492
 6781TIP3   OH220287   4.249   5.403   2.304
 6781TIP3    H120288   4.285   5.320   2.334
 6781TIP3    H220289   4.155   5.386   2.294
 6782TIP3   OH220290   4.488   6.147   1.905
 6782TIP3    H120291   4.453   6.059   1.916
 6782TIP3    H220292   4.582   6.133   1.889
 6783TIP3   OH220293   3.568   1.810   2.008
 6783TIP3    H120294   3.641   1.871   2.008
 6783TIP3    H220295   3.570   1.770   2.096
 6784TIP3   OH220296   7.339   7.457   4.749
 6784TIP3    H120297   7.396   7.426   4.679
 6784TIP3    H220298   7.330   7.551   4.733
 6785TIP3   OH220299   7.079   2.486   1.873
 6785TIP3    H120300   7.137   2.517   1.803
 6785TIP3    H220301   7.138   2.462   1.944
 6786TIP3   OH220302   2.484   3.660   4.567
 6786TIP3    H120303   2.552   3.593   4.564
 6786TIP3    H220304   2.497   3.710   4.487
 6787TIP3   OH220305   8.106   5.620   4.938
 6787TIP3    H120306   8.081   5.527   4.939
 6787TIP3    H220307   8.188   5.623   4.987
 6788TIP3   OH220308   7.747   5.757   3.270
 6788TIP3    H120309   7.803   5.815   3.219
 6788TIP3    H220310   7.803   5.728   3.343
 6789TIP3   OH220311   3.618   5.455   1.505
 6789TIP3    H120312   3.566   5.516   1.557
 6789TIP3    H220313   3.652   5.392   1.569
 6790TIP3   OH220314   0.321   4.436   4.297
 6790TIP3    H120315   0.370   4.456   4.377
 6790TIP3    H220316   0.372   4.478   4.227
 6791TIP3   OH220317   4.555   7.050   5.296
 6791TIP3    H120318   4.594   7.050   5.208
 6791TIP3    H220319   4.576   6.965   5.332
 6792TIP3   OH220320   1.021   1.557   6.025
 6792TIP3    H120321   0.984   1.555   5.937
 6792TIP3    H220322   1.010   1.467   6.057
 6793TIP3   OH220323   3.392   5.075   3.555
 6793TIP3    H120324   3.453   5.145   3.578
 6793TIP3    H220325   3.445   4.995   3.557
 6794TIP3   OH220326   4.398   1.846   2.174
 6794TIP3    H120327   4.342   1.774   2.203
 6794TIP3    H220328   4.456   1.807   2.108
 6795TIP3   OH220329   0.900   4.301   0.047
 6795TIP3    H120330   0.944   4.257  -0.025
 6795TIP3    H220331   0.969   4.352   0.090
 6796TIP3   OH220332   0.114   4.420   3.138
 6796TIP3    H120333   0.076   4.342   3.098
 6796TIP3    H220334   0.205   4.395   3.157
 6797TIP3   OH220335   3.770   3.314   5.354
 6797TIP3    H120336   3.846   3.320   5.296
 6797TIP3    H220337   3.695   3.310   5.295
 6798TIP3   OH220338   2.789   0.828   0.722
 6798TIP3    H120339   2.763   0.866   0.639
 6798TIP3    H220340   2.852   0.890   0.759
 6799TIP3   OH220341   3.326   6.729   3.916
 6799TIP3    H120342   3.244   6.769   3.886
 6799TIP3    H220343   3.299   6.646   3.954
 6800TIP3   OH220344   0.598   2.552   4.191
 6800TIP3    H120345   0.688   2.522   4.178
 6800TIP3    H220346   0.568   2.507   4.270
 6801TIP3   OH220347   3.934   7.083   1.793
 6801TIP3    H120348   3.969   7.168   1.768
 6801TIP3    H220349   3.949   7.027   1.717
 6802TIP3   OH220350   1.044   5.419   6.133
 6802TIP3    H120351   1.129   5.462   6.119
 6802TIP3    H220352   1.015   5.449   6.218
 6803TIP3   OH220353   0.952   6.804   0.135
 6803TIP3    H120354   0.871   6.758   0.156
 6803TIP3    H220355   0.949   6.884   0.188
 6804TIP3   OH220356   5.297   5.634   5.721
 6804TIP3    H120357   5.260   5.547   5.709
 6804TIP3    H220358   5.277   5.680   5.639
 6805TIP3   OH220359   6.413   6.860   5.428
 6805TIP3    H120360   6.430   6.951   5.454
 6805TIP3    H220361   6.460   6.850   5.345
 6806TIP3   OH220362   6.112   3.381   0.532
 6806TIP3    H120363   6.185   3.326   0.560
 6806TIP3    H220364   6.056   3.388   0.609
 6807TIP3   OH220365   1.448   4.431   4.126
 6807TIP3    H120366   1.393   4.401   4.198
 6807TIP3    H220367   1.402   4.508   4.092
 6808TIP3   OH220368   2.640   6.272   4.916
 6808TIP3    H120369   2.731   6.254   4.939
 6808TIP3    H220370   2.591   6.199   4.955
 6809TIP3   OH220371   7.963   1.453  -0.011
 6809TIP3    H120372   7.970   1.358   0.003
 6809TIP3    H220373   7.885   1.478   0.039
 6810TIP3   OH220374   1.248   2.234   4.758
 6810TIP3    H120375   1.209   2.313   4.794
 6810TIP3    H220376   1.321   2.214   4.816
 6811TIP3   OH220377   6.032   3.634   5.978
 6811TIP3    H120378   6.123   3.623   6.008
 6811TIP3    H220379   5.987   3.674   6.052
 6812TIP3   OH220380   4.249   7.855   2.995
 6812TIP3    H120381   4.182   7.924   2.992
 6812TIP3    H220382   4.218   7.794   3.062
 6813TIP3   OH220383   2.194   1.351   1.464
 6813TIP3    H120384   2.220   1.440   1.488
 6813TIP3    H220385   2.134   1.363   1.390
 6814TIP3   OH220386   1.093   0.240   1.899
 6814TIP3    H120387   1.148   0.265   1.974
 6814TIP3    H220388   1.117   0.303   1.831
 6815TIP3   OH220389   8.116   1.658   2.033
 6815TIP3    H120390   8.154   1.577   2.000
 6815TIP3    H220391   8.090   1.706   1.954
 6816TIP3   OH220392   1.573   2.809   2.184
 6816TIP3    H120393   1.555   2.849   2.269
 6816TIP3    H220394   1.488   2.784   2.150
 6817TIP3   OH220395   1.319   4.421   2.870
 6817TIP3    H120396   1.385   4.442   2.936
 6817TIP3    H220397   1.370   4.395   2.793
 6818TIP3   OH220398   7.432   4.451   0.545
 6818TIP3    H120399   7.521   4.459   0.510
 6818TIP3    H220400   7.396   4.374   0.501
 6819TIP3   OH220401   4.317   4.604   2.681
 6819TIP3    H120402   4.269   4.622   2.600
 6819TIP3    H220403   4.398   4.654   2.673
 6820TIP3   OH220404   7.833   6.000   1.136
 6820TIP3    H120405   7.902   6.009   1.070
 6820TIP3    H220406   7.752   5.994   1.086
 6821TIP3   OH220407   0.461   5.245   5.841
 6821TIP3    H120408   0.529   5.180   5.824
 6821TIP3    H220409   0.439   5.235   5.933
 6822TIP3   OH220410   3.487   5.601   1.660
 6822TIP3    H120411   3.500   5.677   1.718
 6822TIP3    H220412   3.438   5.538   1.714
 6823TIP3   OH220413   3.736   4.505   1.803
 6823TIP3    H120414   3.742   4.438   1.735
 6823TIP3    H220415   3.815   4.494   1.855
 6824TIP3   OH220416   4.145   5.253   5.496
 6824TIP3    H120417   4.228   5.244   5.543
 6824TIP3    H220418   4.163   5.220   5.408
 6825TIP3   OH220419   6.150   1.327   6.273
 6825TIP3    H120420   6.099   1.396   6.317
 6825TIP3    H220421   6.117   1.326   6.183
 6826TIP3   OH220422   1.852   1.993   0.099
 6826TIP3    H120423   1.928   2.035   0.140
 6826TIP3    H220424   1.886   1.954   0.018
 6827TIP3   OH220425   0.250   5.145   2.045
 6827TIP3    H120426   0.312   5.110   1.981
 6827TIP3    H220427   0.215   5.224   2.003
 6828TIP3   OH220428   7.874   4.534   6.043
 6828TIP3    H120429   7.864   4.561   6.134
 6828TIP3    H220430   7.930   4.602   6.004
 6829TIP3   OH220431   0.532   1.874   1.764
 6829TIP3    H120432   0.602   1.926   1.804
 6829TIP3    H220433   0.531   1.793   1.815
 6830TIP3   OH220434   0.837   0.103   3.038
 6830TIP3    H120435   0.892   0.160   2.984
 6830TIP3    H220436   0.756   0.153   3.050
 6831TIP3   OH220437   2.875   5.084   3.466
 6831TIP3    H120438   2.836   5.133   3.393
 6831TIP3    H220439   2.968   5.082   3.446
 6832TIP3   OH220440   3.726   5.578   2.600
 6832TIP3    H120441   3.698   5.621   2.519
 6832TIP3    H220442   3.739   5.649   2.662
 6833TIP3   OH220443   4.957   2.663   0.122
 6833TIP3    H120444   5.028   2.675   0.186
 6833TIP3    H220445   4.889   2.725   0.150
 6834TIP3   OH220446   7.058   6.659   6.610
 6834TIP3    H120447   7.104   6.619   6.537
 6834TIP3    H220448   7.126   6.674   6.676
 6835TIP3   OH220449   3.783   7.502   5.221
 6835TIP3    H120450   3.811   7.594   5.218
 6835TIP3    H220451   3.696   7.505   5.260
 6836TIP3   OH220452   2.952   5.695   0.911
 6836TIP3    H120453   2.994   5.710   0.826
 6836TIP3    H220454   2.881   5.758   0.914
 6837TIP3   OH220455   1.260   6.062   2.426
 6837TIP3    H120456   1.200   6.120   2.380
 6837TIP3    H220457   1.206   6.024   2.496
 6838TIP3   OH220458   0.355   4.436   2.054
 6838TIP3    H120459   0.409   4.419   2.131
 6838TIP3    H220460   0.378   4.526   2.028
 6839TIP3   OH220461   1.389   1.903   4.014
 6839TIP3    H120462   1.362   1.953   4.090
 6839TIP3    H220463   1.417   1.818   4.049
 6840TIP3   OH220464   6.224   1.299   1.188
 6840TIP3    H120465   6.144   1.270   1.145
 6840TIP3    H220466   6.196   1.366   1.251
 6841TIP3   OH220467   0.904   4.411   5.094
 6841TIP3    H120468   0.906   4.484   5.032
 6841TIP3    H220469   0.986   4.363   5.077
 6842TIP3   OH220470   1.414   0.320   3.683
 6842TIP3    H120471   1.496   0.302   3.636
 6842TIP3    H220472   1.436   0.390   3.745
 6843TIP3   OH220473   2.064   5.468   1.943
 6843TIP3    H120474   2.089   5.415   1.867
 6843TIP3    H220475   2.147   5.494   1.983
 6844TIP3   OH220476   6.689   2.236   0.113
 6844TIP3    H120477   6.598   2.266   0.105
 6844TIP3    H220478   6.685   2.164   0.177
 6845TIP3   OH220479   2.274   4.073   6.076
 6845TIP3    H120480   2.227   4.029   6.005
 6845TIP3    H220481   2.358   4.027   6.081
 6846TIP3   OH220482   3.892   7.605   5.997
 6846TIP3    H120483   3.812   7.555   5.980
 6846TIP3    H220484   3.871   7.695   5.972
 6847TIP3   OH220485   3.086   6.168   2.875
 6847TIP3    H120486   3.061   6.099   2.937
 6847TIP3    H220487   3.010   6.227   2.873
 6848TIP3   OH220488   4.003   2.978   0.602
 6848TIP3    H120489   3.997   2.986   0.697
 6848TIP3    H220490   3.922   2.935   0.576
 6849TIP3   OH220491   5.837   2.113   0.499
 6849TIP3    H120492   5.811   2.023   0.481
 6849TIP3    H220493   5.878   2.143   0.418
 6850TIP3   OH220494   7.816   6.812   5.409
 6850TIP3    H120495   7.776   6.875   5.470
 6850TIP3    H220496   7.897   6.854   5.381
 6851TIP3   OH220497   6.147   5.592   2.537
 6851TIP3    H120498   6.139   5.497   2.531
 6851TIP3    H220499   6.190   5.607   2.622
 6852TIP3   OH220500   1.581   1.141   0.890
 6852TIP3    H120501   1.489   1.118   0.898
 6852TIP3    H220502   1.606   1.111   0.803
 6853TIP3   OH220503   3.401   0.177   2.841
 6853TIP3    H120504   3.393   0.269   2.819
 6853TIP3    H220505   3.409   0.132   2.757
 6854TIP3   OH220506   6.983   5.945   5.255
 6854TIP3    H120507   6.910   5.903   5.210
 6854TIP3    H220508   6.964   6.039   5.252
 6855TIP3   OH220509   1.469   3.410   0.785
 6855TIP3    H120510   1.457   3.392   0.691
 6855TIP3    H220511   1.517   3.334   0.818
 6856TIP3   OH220512   1.530   7.625   5.389
 6856TIP3    H120513   1.585   7.563   5.437
 6856TIP3    H220514   1.553   7.710   5.426
 6857TIP3   OH220515   2.317   4.371   2.643
 6857TIP3    H120516   2.271   4.294   2.675
 6857TIP3    H220517   2.374   4.397   2.716
 6858TIP3   OH220518   2.569   4.024  -0.019
 6858TIP3    H120519   2.529   3.938  -0.007
 6858TIP3    H220520   2.638   4.028   0.046
 6859TIP3   OH220521   0.826   1.096   4.024
 6859TIP3    H120522   0.785   1.060   3.946
 6859TIP3    H220523   0.786   1.183   4.034
 6860TIP3   OH220524   1.280   2.071   3.790
 6860TIP3    H120525   1.331   2.040   3.865
 6860TIP3    H220526   1.216   2.001   3.774
 6861TIP3   OH220527   0.674   4.774   0.675
 6861TIP3    H120528   0.669   4.705   0.610
 6861TIP3    H220529   0.723   4.844   0.632
 6862TIP3   OH220530   3.578   7.733   1.579
 6862TIP3    H120531   3.666   7.745   1.545
 6862TIP3    H220532   3.590   7.677   1.656
 6863TIP3   OH220533   6.548   3.320   6.113
 6863TIP3    H120534   6.489   3.376   6.163
 6863TIP3    H220535   6.531   3.344   6.021
 6864TIP3   OH220536   7.893   3.929   4.467
 6864TIP3    H120537   7.826   3.972   4.520
 6864TIP3    H220538   7.845   3.890   4.394
 6865TIP3   OH220539   6.524   2.959   1.689
 6865TIP3    H120540   6.595   3.003   1.735
 6865TIP3    H220541   6.561   2.874   1.665
 6866TIP3   OH220542   6.711   4.899   5.545
 6866TIP3    H120543   6.675   4.937   5.465
 6866TIP3    H220544   6.649   4.830   5.568
 6867TIP3   OH220545   3.313   5.924   1.838
 6867TIP3    H120546   3.303   5.988   1.908
 6867TIP3    H220547   3.230   5.928   1.791
 6868TIP3   OH220548   1.481   1.649   4.070
 6868TIP3    H120549   1.564   1.694   4.054
 6868TIP3    H220550   1.506   1.570   4.118
 6869TIP3   OH220551   4.050   0.741   3.512
 6869TIP3    H120552   4.009   0.692   3.440
 6869TIP3    H220553   4.011   0.704   3.591
 6870TIP3   OH220554   7.225   2.290   4.592
 6870TIP3    H120555   7.242   2.216   4.648
 6870TIP3    H220556   7.299   2.293   4.531
 6871TIP3   OH220557   4.849   2.441   1.741
 6871TIP3    H120558   4.781   2.499   1.708
 6871TIP3    H220559   4.915   2.499   1.779
 6872TIP3   OH220560   2.303   7.189   0.164
 6872TIP3    H120561   2.234   7.213   0.102
 6872TIP3    H220562   2.353   7.121   0.118
 6873TIP3   OH220563   4.247   4.231   2.050
 6873TIP3    H120564   4.330   4.185   2.059
 6873TIP3    H220565   4.268   4.310   2.000
 6874TIP3   OH220566   5.904   7.325   0.062
 6874TIP3    H120567   5.971   7.391   0.044
 6874TIP3    H220568   5.881   7.291  -0.025
 6875TIP3   OH220569   2.392   0.944   5.705
 6875TIP3    H120570   2.372   0.852   5.688
 6875TIP3    H220571   2.474   0.942   5.755
 6876TIP3   OH220572   0.053   6.572   5.208
 6876TIP3    H120573   0.091   6.601   5.291
 6876TIP3    H220574   0.081   6.637   5.144
 6877TIP3   OH220575   3.926   6.647   1.584
 6877TIP3    H120576   4.009   6.614   1.619
 6877TIP3    H220577   3.916   6.601   1.500
 6878TIP3   OH220578   4.287   0.582   1.925
 6878TIP3    H120579   4.359   0.644   1.912
 6878TIP3    H220580   4.231   0.625   1.990
 6879TIP3   OH220581   1.469   2.711   6.282
 6879TIP3    H120582   1.537   2.698   6.217
 6879TIP3    H220583   1.482   2.640   6.346
 6880TIP3   OH220584   0.984   7.515   0.453
 6880TIP3    H120585   1.019   7.562   0.378
 6880TIP3    H220586   0.987   7.423   0.428
 6881TIP3   OH220587   8.171   0.101   4.353
 6881TIP3    H120588   8.218   0.163   4.408
 6881TIP3    H220589   8.100   0.069   4.408
 6882TIP3   OH220590   5.580   1.267   6.674
 6882TIP3    H120591   5.562   1.250   6.581
 6882TIP3    H220592   5.582   1.363   6.681
 6883TIP3   OH220593   6.474   4.689   1.777
 6883TIP3    H120594   6.516   4.648   1.853
 6883TIP3    H220595   6.380   4.680   1.794
 6884TIP3   OH220596   3.034   0.981   2.547
 6884TIP3    H120597   2.983   0.995   2.467
 6884TIP3    H220598   2.978   1.013   2.618
 6885TIP3   OH220599   5.878   5.648   0.604
 6885TIP3    H120600   5.944   5.631   0.537
 6885TIP3    H220601   5.861   5.742   0.599
 6886TIP3   OH220602   1.557   1.400   2.922
 6886TIP3    H120603   1.561   1.495   2.914
 6886TIP3    H220604   1.557   1.383   3.016
 6887TIP3   OH220605   3.396   4.444   3.804
 6887TIP3    H120606   3.417   4.384   3.875
 6887TIP3    H220607   3.315   4.410   3.767
 6888TIP3   OH220608   3.639   4.929   5.086
 6888TIP3    H120609   3.701   5.001   5.078
 6888TIP3    H220610   3.553   4.969   5.070
 6889TIP3   OH220611   0.817   5.639   2.606
 6889TIP3    H120612   0.739   5.614   2.557
 6889TIP3    H220613   0.875   5.564   2.599
 6890TIP3   OH220614   5.658   2.004   2.771
 6890TIP3    H120615   5.747   1.971   2.786
 6890TIP3    H220616   5.643   1.992   2.678
 6891TIP3   OH220617   1.289   0.417   5.178
 6891TIP3    H120618   1.289   0.364   5.258
 6891TIP3    H220619   1.264   0.355   5.109
 6892TIP3   OH220620   2.151   0.227   0.265
 6892TIP3    H120621   2.110   0.306   0.229
 6892TIP3    H220622   2.154   0.243   0.359
 6893TIP3   OH220623   4.879   0.977   2.892
 6893TIP3    H120624   4.829   1.017   2.821
 6893TIP3    H220625   4.814   0.934   2.947
 6894TIP3   OH220626   5.547   1.716   3.234
 6894TIP3    H120627   5.557   1.784   3.301
 6894TIP3    H220628   5.457   1.725   3.204
 6895TIP3   OH220629   0.724   5.622   5.195
 6895TIP3    H120630   0.815   5.645   5.174
 6895TIP3    H220631   0.680   5.706   5.205
 6896TIP3   OH220632   5.014   7.068   6.479
 6896TIP3    H120633   4.926   7.099   6.498
 6896TIP3    H220634   5.070   7.145   6.494
 6897TIP3   OH220635   1.305   3.591   0.619
 6897TIP3    H120636   1.305   3.607   0.713
 6897TIP3    H220637   1.359   3.514   0.607
 6898TIP3   OH220638   5.367   1.859   5.833
 6898TIP3    H120639   5.405   1.867   5.745
 6898TIP3    H220640   5.396   1.936   5.880
 6899TIP3   OH220641   8.107   1.277   6.367
 6899TIP3    H120642   8.078   1.262   6.457
 6899TIP3    H220643   8.189   1.325   6.376
 6900TIP3   OH220644   7.666   3.573   4.813
 6900TIP3    H120645   7.682   3.479   4.819
 6900TIP3    H220646   7.608   3.592   4.887
 6901TIP3   OH220647   1.320   2.470   6.009
 6901TIP3    H120648   1.272   2.434   6.084
 6901TIP3    H220649   1.405   2.427   6.014
 6902TIP3   OH220650   8.113   5.581   4.648
 6902TIP3    H120651   8.110   5.487   4.663
 6902TIP3    H220652   8.109   5.619   4.736
 6903TIP3   OH220653   3.841   3.224   4.830
 6903TIP3    H120654   3.914   3.163   4.821
 6903TIP3    H220655   3.770   3.185   4.780
 6904TIP3   OH220656   3.768   5.886   2.205
 6904TIP3    H120657   3.719   5.949   2.153
 6904TIP3    H220658   3.806   5.826   2.141
 6905TIP3   OH220659   0.539   1.912   5.394
 6905TIP3    H120660   0.572   1.966   5.322
 6905TIP3    H220661   0.495   1.973   5.453
 6906TIP3   OH220662   0.072   2.966   0.484
 6906TIP3    H120663   0.026   3.049   0.474
 6906TIP3    H220664   0.156   2.989   0.523
 6907TIP3   OH220665   8.039   6.387   3.994
 6907TIP3    H120666   8.132   6.408   4.000
 6907TIP3    H220667   8.012   6.422   3.909
 6908TIP3   OH220668   8.054   3.825   5.840
 6908TIP3    H120669   8.004   3.902   5.868
 6908TIP3    H220670   8.103   3.854   5.763
 6909TIP3   OH220671   5.400   0.666   5.026
 6909TIP3    H120672   5.422   0.710   5.108
 6909TIP3    H220673   5.484   0.651   4.983
 6910TIP3   OH220674   1.040   4.708   0.138
 6910TIP3    H120675   1.049   4.734   0.229
 6910TIP3    H220676   1.046   4.790   0.089
 6911TIP3   OH220677   1.007   4.465   0.523
 6911TIP3    H120678   1.024   4.539   0.580
 6911TIP3    H220679   0.935   4.494   0.466
 6912TIP3   OH220680   5.909   1.145   2.400
 6912TIP3    H120681   5.882   1.060   2.436
 6912TIP3    H220682   5.886   1.140   2.307
 6913TIP3   OH220683   2.941   6.308   0.139
 6913TIP3    H120684   2.981   6.254   0.208
 6913TIP3    H220685   2.870   6.355   0.184
 6914TIP3   OH220686   7.157   2.362   5.443
 6914TIP3    H120687   7.074   2.341   5.400
 6914TIP3    H220688   7.132   2.382   5.533
 6915TIP3   OH220689   0.335   4.427   5.912
 6915TIP3    H120690   0.274   4.413   5.839
 6915TIP3    H220691   0.341   4.522   5.919
 6916TIP3   OH220692   2.078   3.567   1.761
 6916TIP3    H120693   2.011   3.633   1.778
 6916TIP3    H220694   2.158   3.603   1.799
 6917TIP3   OH220695   2.168   2.196   5.117
 6917TIP3    H120696   2.241   2.141   5.087
 6917TIP3    H220697   2.116   2.138   5.172
 6918TIP3   OH220698   4.219   2.181   2.532
 6918TIP3    H120699   4.136   2.228   2.523
 6918TIP3    H220700   4.267   2.229   2.599
 6919TIP3   OH220701   7.620   0.223   6.019
 6919TIP3    H120702   7.557   0.172   5.967
 6919TIP3    H220703   7.662   0.159   6.075
 6920TIP3   OH220704   6.190   6.996   1.192
 6920TIP3    H120705   6.123   7.061   1.210
 6920TIP3    H220706   6.142   6.920   1.158
 6921TIP3   OH220707   3.979   5.605   5.266
 6921TIP3    H120708   3.915   5.669   5.235
 6921TIP3    H220709   4.063   5.650   5.259
 6922TIP3   OH220710   1.082   6.437   4.458
 6922TIP3    H120711   0.991   6.460   4.439
 6922TIP3    H220712   1.114   6.396   4.377
 6923TIP3   OH220713   5.151   3.916   2.121
 6923TIP3    H120714   5.132   3.952   2.207
 6923TIP3    H220715   5.066   3.894   2.084
 6924TIP3   OH220716   0.183   1.633   3.624
 6924TIP3    H120717   0.160   1.720   3.658
 6924TIP3    H220718   0.105   1.580   3.643
 6925TIP3   OH220719   5.848   6.592   6.119
 6925TIP3    H120720   5.769   6.623   6.074
 6925TIP3    H220721   5.821   6.512   6.162
 6926TIP3   OH220722   7.072   3.683   2.724
 6926TIP3    H120723   7.038   3.769   2.748
 6926TIP3    H220724   7.065   3.680   2.628
 6927TIP3   OH220725   4.094   1.469   0.283
 6927TIP3    H120726   4.027   1.412   0.246
 6927TIP3    H220727   4.176   1.439   0.243
 6928TIP3   OH220728   1.360   4.194   3.900
 6928TIP3    H120729   1.421   4.167   3.831
 6928TIP3    H220730   1.307   4.263   3.859
 6929TIP3   OH220731   6.687   0.897   2.205
 6929TIP3    H120732   6.627   0.848   2.262
 6929TIP3    H220733   6.629   0.952   2.152
 6930TIP3   OH220734   7.318   6.337   3.221
 6930TIP3    H120735   7.247   6.368   3.165
 6930TIP3    H220736   7.314   6.393   3.299
 6931TIP3   OH220737   0.878   5.650   6.073
 6931TIP3    H120738   0.788   5.618   6.069
 6931TIP3    H220739   0.932   5.571   6.062
 6932TIP3   OH220740   0.457   4.541   1.136
 6932TIP3    H120741   0.503   4.468   1.179
 6932TIP3    H220742   0.365   4.523   1.151
 6933TIP3   OH220743   7.984   3.026   4.017
 6933TIP3    H120744   8.053   3.049   3.954
 6933TIP3    H220745   8.033   3.000   4.096
 6934TIP3   OH220746   1.440   6.461   5.628
 6934TIP3    H120747   1.345   6.478   5.635
 6934TIP3    H220748   1.480   6.531   5.680
 6935TIP3   OH220749   4.058   4.901   1.070
 6935TIP3    H120750   4.047   4.877   1.162
 6935TIP3    H220751   4.140   4.950   1.068
 6936TIP3   OH220752   1.891   3.024   3.302
 6936TIP3    H120753   1.870   2.994   3.391
 6936TIP3    H220754   1.986   3.034   3.302
 6937TIP3   OH220755   3.829   6.182   1.843
 6937TIP3    H120756   3.735   6.173   1.859
 6937TIP3    H220757   3.848   6.114   1.778
 6938TIP3   OH220758   4.541   2.212   3.841
 6938TIP3    H120759   4.588   2.248   3.916
 6938TIP3    H220760   4.494   2.287   3.804
 6939TIP3   OH220761   3.038   6.114   0.914
 6939TIP3    H120762   3.121   6.070   0.898
 6939TIP3    H220763   2.975   6.067   0.859
 6940TIP3   OH220764   0.879   6.720   5.255
 6940TIP3    H120765   0.893   6.792   5.194
 6940TIP3    H220766   0.956   6.721   5.312
 6941TIP3   OH220767   2.896   4.645   3.660
 6941TIP3    H120768   2.811   4.637   3.615
 6941TIP3    H220769   2.953   4.687   3.596
 6942TIP3   OH220770   6.538   4.216   1.210
 6942TIP3    H120771   6.491   4.290   1.248
 6942TIP3    H220772   6.469   4.157   1.178
 6943TIP3   OH220773   2.068   7.529   4.651
 6943TIP3    H120774   2.017   7.566   4.723
 6943TIP3    H220775   2.158   7.528   4.683
 6944TIP3   OH220776   5.837   0.330   3.769
 6944TIP3    H120777   5.797   0.342   3.855
 6944TIP3    H220778   5.784   0.262   3.727
 6945TIP3   OH220779   0.999   4.126   4.924
 6945TIP3    H120780   1.060   4.190   4.961
 6945TIP3    H220781   0.996   4.147   4.831
 6946TIP3   OH220782   8.269   0.167   5.111
 6946TIP3    H120783   8.264   0.148   5.205
 6946TIP3    H220784   8.344   0.116   5.080
 6947TIP3   OH220785   4.724   5.368   1.123
 6947TIP3    H120786   4.718   5.277   1.093
 6947TIP3    H220787   4.671   5.417   1.060
 6948TIP3   OH220788   0.083   1.807   4.121
 6948TIP3    H120789   0.002   1.780   4.078
 6948TIP3    H220790   0.063   1.803   4.215
 6949TIP3   OH220791   0.223   7.094   2.366
 6949TIP3    H120792   0.263   7.161   2.310
 6949TIP3    H220793   0.261   7.109   2.452
 6950TIP3   OH220794   5.398   3.750   0.094
 6950TIP3    H120795   5.394   3.846   0.102
 6950TIP3    H220796   5.324   3.719   0.147
 6951TIP3   OH220797   6.149   6.726   2.210
 6951TIP3    H120798   6.062   6.703   2.241
 6951TIP3    H220799   6.177   6.650   2.158
 6952TIP3   OH220800   6.319   3.874   2.555
 6952TIP3    H120801   6.302   3.836   2.468
 6952TIP3    H220802   6.367   3.806   2.602
 6953TIP3   OH220803   1.703   5.184   2.678
 6953TIP3    H120804   1.790   5.148   2.694
 6953TIP3    H220805   1.673   5.213   2.764
 6954TIP3   OH220806   2.521   0.679   4.630
 6954TIP3    H120807   2.548   0.643   4.714
 6954TIP3    H220808   2.427   0.693   4.638
 6955TIP3   OH220809   6.410   6.388   6.186
 6955TIP3    H120810   6.387   6.449   6.115
 6955TIP3    H220811   6.472   6.437   6.240
 6956TIP3   OH220812   6.994   5.121   6.346
 6956TIP3    H120813   7.073   5.102   6.397
 6956TIP3    H220814   6.948   5.187   6.397
 6957TIP3   OH220815   7.146   5.515   0.732
 6957TIP3    H120816   7.213   5.555   0.786
 6957TIP3    H220817   7.167   5.544   0.643
 6958TIP3   OH220818   2.706   7.631   6.457
 6958TIP3    H120819   2.769   7.697   6.485
 6958TIP3    H220820   2.621   7.673   6.465
 6959TIP3   OH220821   3.207   1.166   6.800
 6959TIP3    H120822   3.215   1.232   6.868
 6959TIP3    H220823   3.185   1.215   6.721
 6960TIP3   OH220824   6.440   4.369   3.498
 6960TIP3    H120825   6.347   4.377   3.477
 6960TIP3    H220826   6.460   4.276   3.487
 6961TIP3   OH220827   1.267   7.081   4.417
 6961TIP3    H120828   1.314   7.004   4.450
 6961TIP3    H220829   1.221   7.116   4.493
 6962TIP3   OH220830   7.277   5.271   0.277
 6962TIP3    H120831   7.270   5.297   0.186
 6962TIP3    H220832   7.295   5.353   0.324
 6963TIP3   OH220833   5.599   2.146   1.249
 6963TIP3    H120834   5.556   2.084   1.190
 6963TIP3    H220835   5.614   2.224   1.195
 6964TIP3   OH220836   1.186   4.858   1.493
 6964TIP3    H120837   1.097   4.826   1.476
 6964TIP3    H220838   1.242   4.805   1.436
 6965TIP3   OH220839   2.542   6.094   4.648
 6965TIP3    H120840   2.520   6.108   4.740
 6965TIP3    H220841   2.460   6.113   4.601
 6966TIP3   OH220842   6.492   1.057   4.315
 6966TIP3    H120843   6.542   1.133   4.284
 6966TIP3    H220844   6.469   1.009   4.235
 6967TIP3   OH220845   7.670   3.720   4.557
 6967TIP3    H120846   7.669   3.668   4.637
 6967TIP3    H220847   7.712   3.802   4.582
 6968TIP3   OH220848   1.274   1.681   0.247
 6968TIP3    H120849   1.341   1.653   0.310
 6968TIP3    H220850   1.193   1.683   0.298
 6969TIP3   OH220851   4.246   1.050   0.583
 6969TIP3    H120852   4.167   1.032   0.531
 6969TIP3    H220853   4.224   1.130   0.631
 6970TIP3   OH220854   6.184   5.413   3.419
 6970TIP3    H120855   6.231   5.338   3.384
 6970TIP3    H220856   6.092   5.395   3.400
 6971TIP3   OH220857   5.569   7.071   4.027
 6971TIP3    H120858   5.650   7.061   3.977
 6971TIP3    H220859   5.594   7.121   4.104
 6972TIP3   OH220860   2.190   3.915   3.113
 6972TIP3    H120861   2.132   3.841   3.131
 6972TIP3    H220862   2.270   3.875   3.078
 6973TIP3   OH220863   2.234   2.490   1.541
 6973TIP3    H120864   2.191   2.420   1.591
 6973TIP3    H220865   2.263   2.552   1.607
 6974TIP3   OH220866   7.697   3.119   2.884
 6974TIP3    H120867   7.625   3.182   2.880
 6974TIP3    H220868   7.754   3.153   2.953
 6975TIP3   OH220869   0.552   3.596   3.151
 6975TIP3    H120870   0.621   3.571   3.090
 6975TIP3    H220871   0.590   3.579   3.238
 6976TIP3   OH220872   1.961   0.342   2.019
 6976TIP3    H120873   1.955   0.305   2.107
 6976TIP3    H220874   1.910   0.283   1.964
 6977TIP3   OH220875   0.593   0.222   6.687
 6977TIP3    H120876   0.640   0.257   6.611
 6977TIP3    H220877   0.501   0.224   6.661
 6978TIP3   OH220878   5.289   7.078   4.003
 6978TIP3    H120879   5.276   6.992   4.044
 6978TIP3    H220880   5.382   7.096   4.014
 6979TIP3   OH220881   7.806   1.117   0.965
 6979TIP3    H120882   7.857   1.198   0.963
 6979TIP3    H220883   7.727   1.140   1.014
 6980TIP3   OH220884   3.333   5.421   2.088
 6980TIP3    H120885   3.375   5.342   2.121
 6980TIP3    H220886   3.246   5.421   2.129
 6981TIP3   OH220887   4.979   1.361   4.786
 6981TIP3    H120888   5.037   1.343   4.713
 6981TIP3    H220889   4.958   1.275   4.822
 6982TIP3   OH220890   4.654   1.423   2.942
 6982TIP3    H120891   4.719   1.368   2.985
 6982TIP3    H220892   4.586   1.363   2.914
 6983TIP3   OH220893   3.632   5.229   2.916
 6983TIP3    H120894   3.663   5.289   2.983
 6983TIP3    H220895   3.609   5.285   2.842
 6984TIP3   OH220896   0.865   0.805   6.491
 6984TIP3    H120897   0.947   0.809   6.541
 6984TIP3    H220898   0.890   0.824   6.401
 6985TIP3   OH220899   3.832   0.527   3.735
 6985TIP3    H120900   3.791   0.517   3.821
 6985TIP3    H220901   3.910   0.579   3.752
 6986TIP3   OH220902   1.193   5.581   1.527
 6986TIP3    H120903   1.145   5.507   1.565
 6986TIP3    H220904   1.132   5.620   1.464
 6987TIP3   OH220905   4.588   7.183   0.393
 6987TIP3    H120906   4.681   7.162   0.400
 6987TIP3    H220907   4.586   7.278   0.377
 6988TIP3   OH220908   0.931   7.053   3.236
 6988TIP3    H120909   0.988   7.126   3.260
 6988TIP3    H220910   0.963   7.026   3.150
 6989TIP3   OH220911   2.684   6.936   0.774
 6989TIP3    H120912   2.720   6.872   0.713
 6989TIP3    H220913   2.692   6.894   0.860
 6990TIP3   OH220914   7.661   3.108   1.911
 6990TIP3    H120915   7.689   3.168   1.979
 6990TIP3    H220916   7.578   3.143   1.880
 6991TIP3   OH220917   3.957   6.516   4.214
 6991TIP3    H120918   4.045   6.524   4.250
 6991TIP3    H220919   3.952   6.426   4.183
 6992TIP3   OH220920   2.754   5.715   4.972
 6992TIP3    H120921   2.781   5.650   5.037
 6992TIP3    H220922   2.760   5.669   4.888
 6993TIP3   OH220923   2.556   1.202   4.223
 6993TIP3    H120924   2.617   1.226   4.153
 6993TIP3    H220925   2.479   1.257   4.209
 6994TIP3   OH220926   2.665   7.072   5.693
 6994TIP3    H120927   2.733   7.086   5.759
 6994TIP3    H220928   2.714   7.052   5.613
 6995TIP3   OH220929   0.253   4.909   5.125
 6995TIP3    H120930   0.318   4.975   5.102
 6995TIP3    H220931   0.287   4.828   5.088
 6996TIP3   OH220932   0.108   0.556   3.876
 6996TIP3    H120933   0.100   0.551   3.781
 6996TIP3    H220934   0.164   0.482   3.900
 6997TIP3   OH220935   7.952   3.303   5.120
 6997TIP3    H120936   7.894   3.379   5.108
 6997TIP3    H220937   8.014   3.331   5.188
 6998TIP3   OH220938   3.887   4.135   4.941
 6998TIP3    H120939   3.953   4.066   4.949
 6998TIP3    H220940   3.816   4.094   4.891
 6999TIP3   OH220941   2.508   5.733   6.536
 6999TIP3    H120942   2.579   5.748   6.598
 6999TIP3    H220943   2.491   5.639   6.541
 7000TIP3   OH220944   1.767   5.988   2.307
 7000TIP3    H120945   1.818   5.933   2.248
 7000TIP3    H220946   1.780   6.077   2.274
 7001TIP3   OH220947   4.106   5.476   3.644
 7001TIP3    H120948   4.105   5.561   3.689
 7001TIP3    H220949   4.024   5.434   3.671
 7002TIP3   OH220950   1.424   1.843   5.552
 7002TIP3    H120951   1.520   1.842   5.550
 7002TIP3    H220952   1.399   1.831   5.460
 7003TIP3   OH220953   0.855   3.496   2.121
 7003TIP3    H120954   0.812   3.498   2.207
 7003TIP3    H220955   0.827   3.412   2.083
 7004TIP3   OH220956   2.771   4.690   6.635
 7004TIP3    H120957   2.689   4.684   6.683
 7004TIP3    H220958   2.801   4.780   6.649
 7005TIP3   OH220959   6.561   6.537   2.443
 7005TIP3    H120960   6.518   6.489   2.513
 7005TIP3    H220961   6.559   6.629   2.471
 7006TIP3   OH220962   7.768   6.426   1.360
 7006TIP3    H120963   7.793   6.477   1.437
 7006TIP3    H220964   7.756   6.337   1.393
 7007TIP3   OH220965   1.018   1.563   3.527
 7007TIP3    H120966   0.956   1.631   3.553
 7007TIP3    H220967   1.061   1.598   3.449
 7008TIP3   OH220968   1.787   6.172   0.777
 7008TIP3    H120969   1.785   6.121   0.858
 7008TIP3    H220970   1.708   6.145   0.729
 7009TIP3   OH220971   8.252   6.873   4.188
 7009TIP3    H120972   8.190   6.805   4.214
 7009TIP3    H220973   8.319   6.872   4.256
 7010TIP3   OH220974   2.528   4.499   1.671
 7010TIP3    H120975   2.566   4.413   1.652
 7010TIP3    H220976   2.465   4.513   1.600
 7011TIP3   OH220977   6.271   0.052   4.676
 7011TIP3    H120978   6.322   0.133   4.667
 7011TIP3    H220979   6.241   0.032   4.587
 7012TIP3   OH220980   2.238   2.735   1.419
 7012TIP3    H120981   2.208   2.648   1.446
 7012TIP3    H220982   2.200   2.749   1.333
 7013TIP3   OH220983   4.935   3.468   0.589
 7013TIP3    H120984   4.889   3.465   0.673
 7013TIP3    H220985   5.026   3.451   0.610
 7014TIP3   OH220986   1.314   0.616   5.896
 7014TIP3    H120987   1.390   0.569   5.931
 7014TIP3    H220988   1.342   0.647   5.810
 7015TIP3   OH220989   6.946   6.007   6.677
 7015TIP3    H120990   6.884   6.004   6.604
 7015TIP3    H220991   6.978   5.917   6.686
 7016TIP3   OH220992   7.490   0.775   4.316
 7016TIP3    H120993   7.407   0.755   4.359
 7016TIP3    H220994   7.536   0.691   4.312
 7017TIP3   OH220995   4.277   4.582   3.423
 7017TIP3    H120996   4.340   4.518   3.389
 7017TIP3    H220997   4.310   4.604   3.510
 7018TIP3   OH220998   2.226   1.617   3.675
 7018TIP3    H120999   2.135   1.588   3.671
 7018TIP3    H221000   2.276   1.548   3.632
 7019TIP3   OH221001   0.922   4.122   3.831
 7019TIP3    H121002   0.998   4.116   3.889
 7019TIP3    H221003   0.897   4.031   3.814
 7020TIP3   OH221004   2.380   1.958   2.682
 7020TIP3    H121005   2.387   2.020   2.610
 7020TIP3    H221006   2.436   1.885   2.657
 7021TIP3   OH221007   6.547   1.104   4.927
 7021TIP3    H121008   6.482   1.119   4.858
 7021TIP3    H221009   6.558   1.189   4.968
 7022TIP3   OH221010   2.125   6.809   1.475
 7022TIP3    H121011   2.128   6.889   1.423
 7022TIP3    H221012   2.144   6.839   1.565
 7023TIP3   OH221013   5.926   1.709   3.777
 7023TIP3    H121014   5.872   1.643   3.735
 7023TIP3    H221015   6.015   1.672   3.776
 7024TIP3   OH221016   1.363   7.108   6.640
 7024TIP3    H121017   1.279   7.150   6.656
 7024TIP3    H221018   1.427   7.165   6.684
 7025TIP3   OH221019   1.889   2.821   5.327
 7025TIP3    H121020   1.881   2.870   5.245
 7025TIP3    H221021   1.862   2.733   5.304
 7026TIP3   OH221022   4.921   2.715   0.979
 7026TIP3    H121023   4.849   2.765   0.941
 7026TIP3    H221024   4.926   2.635   0.927
 7027TIP3   OH221025   1.431   6.961   0.649
 7027TIP3    H121026   1.432   6.978   0.743
 7027TIP3    H221027   1.395   6.872   0.641
 7028TIP3   OH221028   4.686   2.088   2.757
 7028TIP3    H121029   4.695   2.181   2.737
 7028TIP3    H221030   4.601   2.063   2.721
 7029TIP3   OH221031   2.006   6.389   3.742
 7029TIP3    H121032   2.052   6.419   3.663
 7029TIP3    H221033   1.990   6.296   3.726
 7030TIP3   OH221034   5.583   6.080   1.096
 7030TIP3    H121035   5.531   6.057   1.019
 7030TIP3    H221036   5.631   6.159   1.069
 7031TIP3   OH221037   5.336   1.700   1.792
 7031TIP3    H121038   5.325   1.691   1.697
 7031TIP3    H221039   5.276   1.771   1.816
 7032TIP3   OH221040   0.330   7.466   6.475
 7032TIP3    H121041   0.358   7.426   6.557
 7032TIP3    H221042   0.400   7.446   6.413
 7033TIP3   OH221043   3.370   6.870   0.482
 7033TIP3    H121044   3.458   6.899   0.456
 7033TIP3    H221045   3.359   6.906   0.570
 7034TIP3   OH221046   3.448   3.955   5.197
 7034TIP3    H121047   3.535   3.933   5.231
 7034TIP3    H221048   3.455   3.939   5.103
 7035TIP3   OH221049   3.619   3.909   4.115
 7035TIP3    H121050   3.618   3.934   4.023
 7035TIP3    H221051   3.543   3.852   4.126
 7036TIP3   OH221052   1.993   0.867   4.072
 7036TIP3    H121053   1.913   0.840   4.118
 7036TIP3    H221054   2.043   0.915   4.138
 7037TIP3   OH221055   5.862   1.849   0.882
 7037TIP3    H121056   5.889   1.932   0.841
 7037TIP3    H221057   5.786   1.821   0.832
 7038TIP3   OH221058   4.789   4.381   2.849
 7038TIP3    H121059   4.819   4.467   2.881
 7038TIP3    H221060   4.748   4.400   2.765
 7039TIP3   OH221061   1.878   7.525   4.262
 7039TIP3    H121062   1.823   7.579   4.319
 7039TIP3    H221063   1.938   7.481   4.323
 7040TIP3   OH221064   2.104   2.634   2.241
 7040TIP3    H121065   2.017   2.617   2.203
 7040TIP3    H221066   2.158   2.561   2.210
 7041TIP3   OH221067   5.275   3.633   4.767
 7041TIP3    H121068   5.205   3.568   4.777
 7041TIP3    H221069   5.296   3.659   4.857
 7042TIP3   OH221070   4.862   2.343   2.123
 7042TIP3    H121071   4.884   2.266   2.071
 7042TIP3    H221072   4.769   2.357   2.106
 7043TIP3   OH221073   0.148   6.145   1.820
 7043TIP3    H121074   0.214   6.076   1.810
 7043TIP3    H221075   0.195   6.217   1.862
 7044TIP3   OH221076   4.209   4.333   4.946
 7044TIP3    H121077   4.304   4.333   4.939
 7044TIP3    H221078   4.180   4.273   4.878
 7045TIP3   OH221079   1.456   6.219   4.283
 7045TIP3    H121080   1.418   6.131   4.287
 7045TIP3    H221081   1.525   6.219   4.350
 7046TIP3   OH221082   0.435   5.810   5.305
 7046TIP3    H121083   0.439   5.773   5.393
 7046TIP3    H221084   0.443   5.735   5.247
 7047TIP3   OH221085  -0.006   1.483   1.339
 7047TIP3    H121086  -0.070   1.550   1.361
 7047TIP3    H221087  -0.031   1.454   1.251
 7048TIP3   OH221088   3.648   4.044   6.002
 7048TIP3    H121089   3.556   4.044   5.977
 7048TIP3    H221090   3.695   4.071   5.923
 7049TIP3   OH221091   0.405   3.422   6.390
 7049TIP3    H121092   0.475   3.463   6.440
 7049TIP3    H221093   0.358   3.369   6.455
 7050TIP3   OH221094   0.396   6.415   4.139
 7050TIP3    H121095   0.310   6.418   4.098
 7050TIP3    H221096   0.458   6.419   4.066
 7051TIP3   OH221097   5.468   5.067   5.344
 7051TIP3    H121098   5.416   5.132   5.393
 7051TIP3    H221099   5.555   5.073   5.382
 7052TIP3   OH221100   6.486   2.265   3.043
 7052TIP3    H121101   6.460   2.188   3.093
 7052TIP3    H221102   6.497   2.232   2.954
 7053TIP3   OH221103   0.319   2.272   6.426
 7053TIP3    H121104   0.398   2.320   6.452
 7053TIP3    H221105   0.346   2.180   6.427
 7054TIP3   OH221106   0.631   3.176   3.621
 7054TIP3    H121107   0.599   3.091   3.649
 7054TIP3    H221108   0.639   3.169   3.526
 7055TIP3   OH221109   6.956   1.199   0.123
 7055TIP3    H121110   6.893   1.155   0.180
 7055TIP3    H221111   6.968   1.285   0.162
 7056TIP3   OH221112   1.192   2.736   0.571
 7056TIP3    H121113   1.161   2.740   0.481
 7056TIP3    H221114   1.233   2.821   0.586
 7057TIP3   OH221115   5.355   1.282   1.321
 7057TIP3    H121116   5.433   1.273   1.267
 7057TIP3    H221117   5.305   1.352   1.280
 7058TIP3   OH221118   1.067   7.106   4.652
 7058TIP3    H121119   0.975   7.081   4.661
 7058TIP3    H221120   1.116   7.027   4.674
 7059TIP3   OH221121   0.988   5.048   2.563
 7059TIP3    H121122   0.923   5.090   2.619
 7059TIP3    H221123   1.044   5.000   2.623
 7060TIP3   OH221124   3.628   4.176   0.314
 7060TIP3    H121125   3.678   4.180   0.232
 7060TIP3    H221126   3.539   4.156   0.287
 7061TIP3   OH221127   7.341   3.597   0.726
 7061TIP3    H121128   7.264   3.620   0.674
 7061TIP3    H221129   7.305   3.562   0.808
 7062TIP3   OH221130   4.946   1.087   4.842
 7062TIP3    H121131   4.938   1.096   4.747
 7062TIP3    H221132   5.037   1.060   4.857
 7063TIP3   OH221133   0.067   1.424   5.436
 7063TIP3    H121134   0.018   1.354   5.477
 7063TIP3    H221135   0.083   1.394   5.347
 7064TIP3   OH221136   3.048   4.607   5.219
 7064TIP3    H121137   3.111   4.675   5.243
 7064TIP3    H221138   3.069   4.534   5.277
 7065TIP3   OH221139   3.373   5.124   0.545
 7065TIP3    H121140   3.279   5.132   0.562
 7065TIP3    H221141   3.388   5.180   0.469
 7066TIP3   OH221142   5.575   2.682   0.406
 7066TIP3    H121143   5.613   2.595   0.395
 7066TIP3    H221144   5.480   2.667   0.404
 7067TIP3   OH221145   6.730   4.276   4.557
 7067TIP3    H121146   6.743   4.371   4.558
 7067TIP3    H221147   6.639   4.265   4.527
 7068TIP3   OH221148   2.057   6.590   5.834
 7068TIP3    H121149   1.972   6.617   5.800
 7068TIP3    H221150   2.118   6.607   5.762
 7069TIP3   OH221151   1.893   1.587   3.114
 7069TIP3    H121152   1.824   1.549   3.169
 7069TIP3    H221153   1.865   1.677   3.100
 7070TIP3   OH221154   7.710   3.906   5.941
 7070TIP3    H121155   7.796   3.946   5.923
 7070TIP3    H221156   7.731   3.818   5.973
 7071TIP3   OH221157   7.303   2.494   1.444
 7071TIP3    H121158   7.221   2.543   1.453
 7071TIP3    H221159   7.369   2.560   1.423
 7072TIP3   OH221160   7.968   4.921   0.547
 7072TIP3    H121161   7.930   5.001   0.509
 7072TIP3    H221162   7.974   4.860   0.474
 7073TIP3   OH221163   7.593   6.081   5.762
 7073TIP3    H121164   7.543   6.002   5.783
 7073TIP3    H221165   7.683   6.060   5.787
 7074TIP3   OH221166   4.994   5.115   6.754
 7074TIP3    H121167   4.928   5.164   6.705
 7074TIP3    H221168   4.944   5.065   6.818
 7075TIP3   OH221169   7.212   5.983   0.508
 7075TIP3    H121170   7.224   6.058   0.566
 7075TIP3    H221171   7.123   5.953   0.524
 7076TIP3   OH221172   2.280   4.766   0.118
 7076TIP3    H121173   2.274   4.758   0.023
 7076TIP3    H221174   2.276   4.861   0.134
 7077TIP3   OH221175   3.757   5.592   1.058
 7077TIP3    H121176   3.707   5.543   1.123
 7077TIP3    H221177   3.712   5.676   1.051
 7078TIP3   OH221178   2.737   6.108   2.129
 7078TIP3    H121179   2.816   6.077   2.173
 7078TIP3    H221180   2.737   6.063   2.045
 7079TIP3   OH221181   0.060   0.075   0.971
 7079TIP3    H121182   0.016   0.139   0.914
 7079TIP3    H221183   0.037  -0.010   0.933
 7080TIP3   OH221184   2.394   5.152   5.130
 7080TIP3    H121185   2.457   5.082   5.117
 7080TIP3    H221186   2.326   5.137   5.064
 7081TIP3   OH221187   4.860   4.342   1.488
 7081TIP3    H121188   4.814   4.406   1.434
 7081TIP3    H221189   4.859   4.379   1.576
 7082TIP3   OH221190   1.744   0.863   2.208
 7082TIP3    H121191   1.762   0.856   2.115
 7082TIP3    H221192   1.708   0.951   2.219
 7083TIP3   OH221193   4.724   3.792   2.232
 7083TIP3    H121194   4.733   3.792   2.327
 7083TIP3    H221195   4.632   3.772   2.217
 7084TIP3   OH221196   5.855   6.667   5.772
 7084TIP3    H121197   5.932   6.629   5.813
 7084TIP3    H221198   5.855   6.759   5.799
 7085TIP3   OH221199   2.128   5.957   3.130
 7085TIP3    H121200   2.201   5.895   3.127
 7085TIP3    H221201   2.063   5.915   3.186
 7086TIP3   OH221202   2.994   6.062   6.715
 7086TIP3    H121203   2.951   6.016   6.788
 7086TIP3    H221204   2.944   6.142   6.704
 7087TIP3   OH221205   7.357   2.520   5.613
 7087TIP3    H121206   7.432   2.464   5.634
 7087TIP3    H221207   7.320   2.482   5.533
 7088TIP3   OH221208   5.550   2.453   0.669
 7088TIP3    H121209   5.608   2.527   0.686
 7088TIP3    H221210   5.608   2.383   0.639
 7089TIP3   OH221211   1.813   3.634   6.089
 7089TIP3    H121212   1.755   3.707   6.066
 7089TIP3    H221213   1.864   3.666   6.163
 7090TIP3   OH221214   4.386   4.446   3.185
 7090TIP3    H121215   4.437   4.459   3.105
 7090TIP3    H221216   4.295   4.446   3.156
 7091TIP3   OH221217   2.352   0.702   6.429
 7091TIP3    H121218   2.312   0.667   6.349
 7091TIP3    H221219   2.278   0.731   6.482
 7092TIP3   OH221220   6.738   4.383   2.830
 7092TIP3    H121221   6.805   4.350   2.770
 7092TIP3    H221222   6.723   4.310   2.891
 7093TIP3   OH221223   3.006   2.150   5.588
 7093TIP3    H121224   2.917   2.184   5.578
 7093TIP3    H221225   3.034   2.178   5.675
 7094TIP3   OH221226   0.621   1.462   2.752
 7094TIP3    H121227   0.610   1.458   2.657
 7094TIP3    H221228   0.555   1.403   2.787
 7095TIP3   OH221229   0.466   4.537   5.316
 7095TIP3    H121230   0.469   4.599   5.389
 7095TIP3    H221231   0.556   4.504   5.309
 7096TIP3   OH221232   2.847   2.588   6.783
 7096TIP3    H121233   2.864   2.658   6.721
 7096TIP3    H221234   2.754   2.596   6.805
 7097TIP3   OH221235   1.163   2.800   3.164
 7097TIP3    H121236   1.073   2.807   3.196
 7097TIP3    H221237   1.164   2.719   3.114
 7098TIP3   OH221238   7.282   3.938   3.617
 7098TIP3    H121239   7.305   3.962   3.707
 7098TIP3    H221240   7.186   3.939   3.615
 7099TIP3   OH221241   2.201   3.870   5.871
 7099TIP3    H121242   2.293   3.871   5.844
 7099TIP3    H221243   2.153   3.902   5.795
 7100TIP3   OH221244   7.629   3.875   3.679
 7100TIP3    H121245   7.642   3.819   3.602
 7100TIP3    H221246   7.654   3.962   3.649
 7101TIP3   OH221247   6.638   2.663   3.361
 7101TIP3    H121248   6.671   2.744   3.400
 7101TIP3    H221249   6.577   2.628   3.426
 7102TIP3   OH221250   2.351   5.332   2.950
 7102TIP3    H121251   2.410   5.257   2.947
 7102TIP3    H221252   2.408   5.408   2.964
 7103TIP3   OH221253   0.838   1.517   5.398
 7103TIP3    H121254   0.795   1.569   5.467
 7103TIP3    H221255   0.897   1.579   5.355
 7104TIP3   OH221256   1.764   5.190   6.646
 7104TIP3    H121257   1.854   5.211   6.671
 7104TIP3    H221258   1.725   5.274   6.623
 7105TIP3   OH221259   6.976   7.831   4.358
 7105TIP3    H121260   6.961   7.774   4.283
 7105TIP3    H221261   6.900   7.889   4.359
 7106TIP3   OH221262   0.951   1.582   2.945
 7106TIP3    H121263   0.915   1.667   2.970
 7106TIP3    H221264   0.954   1.532   3.026
 7107TIP3   OH221265   2.966   2.042   5.276
 7107TIP3    H121266   2.982   1.968   5.335
 7107TIP3    H221267   2.882   2.078   5.304
 7108TIP3   OH221268   0.382   2.609   2.867
 7108TIP3    H121269   0.409   2.591   2.777
 7108TIP3    H221270   0.297   2.566   2.876
 7109TIP3   OH221271   3.048   7.468   6.483
 7109TIP3    H121272   3.076   7.544   6.533
 7109TIP3    H221273   2.959   7.449   6.515
 7110TIP3   OH221274   0.893   6.165   3.577
 7110TIP3    H121275   0.963   6.230   3.587
 7110TIP3    H221276   0.814   6.217   3.560
 7111TIP3   OH221277   0.963   2.446   5.296
 7111TIP3    H121278   1.025   2.386   5.256
 7111TIP3    H221279   0.915   2.484   5.222
 7112TIP3   OH221280   4.136   2.321   5.785
 7112TIP3    H121281   4.074   2.259   5.824
 7112TIP3    H221282   4.081   2.390   5.749
 7113TIP3   OH221283   1.332   2.122   5.365
 7113TIP3    H121284   1.311   2.083   5.450
 7113TIP3    H221285   1.391   2.194   5.385
 7114TIP3   OH221286   0.296   4.537   0.795
 7114TIP3    H121287   0.281   4.561   0.704
 7114TIP3    H221288   0.357   4.603   0.828
 7115TIP3   OH221289   4.936   0.002   5.736
 7115TIP3    H121290   4.854  -0.048   5.733
 7115TIP3    H221291   4.909   0.093   5.742
 7116TIP3   OH221292   0.635   1.325   3.911
 7116TIP3    H121293   0.648   1.390   3.842
 7116TIP3    H221294   0.552   1.284   3.890
 7117TIP3   OH221295   0.414   7.380   4.929
 7117TIP3    H121296   0.402   7.458   4.875
 7117TIP3    H221297   0.427   7.309   4.865
 7118TIP3   OH221298   1.544   6.519   0.309
 7118TIP3    H121299   1.482   6.555   0.372
 7118TIP3    H221300   1.609   6.589   0.298
 7119TIP3   OH221301   0.297   3.042   6.614
 7119TIP3    H121302   0.269   3.034   6.523
 7119TIP3    H221303   0.389   3.014   6.614
 7120TIP3   OH221304   4.540   6.817   6.558
 7120TIP3    H121305   4.564   6.760   6.484
 7120TIP3    H221306   4.613   6.880   6.564
 7121TIP3   OH221307   5.789   3.476   3.296
 7121TIP3    H121308   5.875   3.441   3.317
 7121TIP3    H221309   5.728   3.406   3.318
 7122TIP3   OH221310   6.824   1.087   6.267
 7122TIP3    H121311   6.823   1.140   6.347
 7122TIP3    H221312   6.743   1.036   6.270
 7123TIP3   OH221313   4.372   6.430   5.640
 7123TIP3    H121314   4.360   6.349   5.689
 7123TIP3    H221315   4.375   6.498   5.707
 7124TIP3   OH221316   5.128   1.556   5.690
 7124TIP3    H121317   5.052   1.574   5.635
 7124TIP3    H221318   5.202   1.560   5.629
 7125TIP3   OH221319   0.738   7.379   1.414
 7125TIP3    H121320   0.792   7.322   1.359
 7125TIP3    H221321   0.659   7.327   1.431
 7126TIP3   OH221322   5.608   4.355   0.032
 7126TIP3    H121323   5.679   4.418   0.028
 7126TIP3    H221324   5.621   4.309   0.115
 7127TIP3   OH221325   1.817   3.970   3.777
 7127TIP3    H121326   1.822   3.968   3.872
 7127TIP3    H221327   1.810   3.878   3.752
 7128TIP3   OH221328   0.741   4.125   1.899
 7128TIP3    H121329   0.818   4.178   1.915
 7128TIP3    H221330   0.769   4.060   1.835
 7129TIP3   OH221331   7.450   3.602   3.279
 7129TIP3    H121332   7.389   3.639   3.342
 7129TIP3    H221333   7.536   3.610   3.321
 7130TIP3   OH221334   3.324   2.995   5.215
 7130TIP3    H121335   3.384   2.920   5.215
 7130TIP3    H221336   3.324   3.025   5.305
 7131TIP3   OH221337   2.734   1.133   2.081
 7131TIP3    H121338   2.661   1.079   2.110
 7131TIP3    H221339   2.744   1.112   1.988
 7132TIP3   OH221340   6.351   4.414   6.519
 7132TIP3    H121341   6.420   4.393   6.581
 7132TIP3    H221342   6.274   4.366   6.551
 7133TIP3   OH221343   2.341   4.630   2.281
 7133TIP3    H121344   2.343   4.683   2.361
 7133TIP3    H221345   2.395   4.554   2.301
 7134TIP3   OH221346   3.945   0.280   3.339
 7134TIP3    H121347   3.983   0.194   3.323
 7134TIP3    H221348   3.956   0.295   3.433
 7135TIP3   OH221349   5.776   2.858   2.426
 7135TIP3    H121350   5.684   2.835   2.412
 7135TIP3    H221351   5.821   2.828   2.347
 7136TIP3   OH221352   3.232   4.695   0.351
 7136TIP3    H121353   3.318   4.718   0.387
 7136TIP3    H221354   3.223   4.601   0.366
 7137TIP3   OH221355   2.363   3.912   2.759
 7137TIP3    H121356   2.382   3.892   2.851
 7137TIP3    H221357   2.304   3.988   2.763
 7138TIP3   OH221358   4.902   3.394   5.903
 7138TIP3    H121359   4.995   3.374   5.916
 7138TIP3    H221360   4.857   3.310   5.912
 7139TIP3   OH221361   0.418   6.227   5.785
 7139TIP3    H121362   0.503   6.256   5.752
 7139TIP3    H221363   0.393   6.294   5.849
 7140TIP3   OH221364   8.229   0.720   6.643
 7140TIP3    H121365   8.249   0.630   6.667
 7140TIP3    H221366   8.142   0.714   6.602
 7141TIP3   OH221367   5.669   1.539   1.038
 7141TIP3    H121368   5.641   1.630   1.029
 7141TIP3    H221369   5.718   1.521   0.959
 7142TIP3   OH221370   1.032   2.165   5.542
 7142TIP3    H121371   0.968   2.171   5.613
 7142TIP3    H221372   1.104   2.223   5.570
 7143TIP3   OH221373   6.343   2.083   5.918
 7143TIP3    H121374   6.357   2.085   6.012
 7143TIP3    H221375   6.430   2.070   5.880
 7144TIP3   OH221376   4.972   3.665   2.296
 7144TIP3    H121377   4.922   3.630   2.223
 7144TIP3    H221378   4.907   3.684   2.364
 7145TIP3   OH221379   7.378   7.600   6.419
 7145TIP3    H121380   7.451   7.593   6.358
 7145TIP3    H221381   7.301   7.576   6.367
 7146TIP3   OH221382   2.758   2.696   2.828
 7146TIP3    H121383   2.741   2.768   2.767
 7146TIP3    H221384   2.802   2.738   2.902
 7147TIP3   OH221385   3.141   0.110   2.544
 7147TIP3    H121386   3.130   0.092   2.451
 7147TIP3    H221387   3.134   0.205   2.551
 7148TIP3   OH221388   0.056   5.498   4.179
 7148TIP3    H121389   0.130   5.557   4.166
 7148TIP3    H221390  -0.018   5.555   4.199
 7149TIP3   OH221391   1.669   7.470   4.073
 7149TIP3    H121392   1.667   7.374   4.065
 7149TIP3    H221393   1.752   7.489   4.117
 7150TIP3   OH221394   2.604   1.503   3.343
 7150TIP3    H121395   2.576   1.526   3.255
 7150TIP3    H221396   2.619   1.587   3.386
 7151TIP3   OH221397   5.574   1.103   1.400
 7151TIP3    H121398   5.628   1.162   1.452
 7151TIP3    H221399   5.484   1.122   1.428
 7152TIP3   OH221400   0.313   3.407   0.970
 7152TIP3    H121401   0.266   3.362   0.900
 7152TIP3    H221402   0.252   3.405   1.044
 7153TIP3   OH221403   7.176   5.916   6.167
 7153TIP3    H121404   7.161   6.010   6.158
 7153TIP3    H221405   7.266   5.903   6.135
 7154TIP3   OH221406   1.667   4.472   1.331
 7154TIP3    H121407   1.754   4.475   1.290
 7154TIP3    H221408   1.660   4.383   1.367
 7155TIP3   OH221409   2.083   6.829   5.037
 7155TIP3    H121410   1.989   6.839   5.051
 7155TIP3    H221411   2.101   6.738   5.062
 7156TIP3   OH221412   1.942   5.798   3.234
 7156TIP3    H121413   1.852   5.792   3.203
 7156TIP3    H221414   1.962   5.709   3.265
 7157TIP3   OH221415   2.141   0.500   4.969
 7157TIP3    H121416   2.078   0.557   5.013
 7157TIP3    H221417   2.221   0.509   5.020
 7158TIP3   OH221418   7.795   7.090   1.121
 7158TIP3    H121419   7.867   7.085   1.184
 7158TIP3    H221420   7.716   7.089   1.175
 7159TIP3   OH221421   4.944   1.712   6.014
 7159TIP3    H121422   4.867   1.748   5.970
 7159TIP3    H221423   4.933   1.618   6.010
 7160TIP3   OH221424   6.722   7.515   0.613
 7160TIP3    H121425   6.815   7.537   0.619
 7160TIP3    H221426   6.683   7.583   0.559
 7161TIP3   OH221427   7.950   1.490   6.456
 7161TIP3    H121428   8.015   1.551   6.422
 7161TIP3    H221429   7.962   1.410   6.405
 7162TIP3   OH221430   6.002   4.938   4.910
 7162TIP3    H121431   6.017   5.032   4.897
 7162TIP3    H221432   6.007   4.925   5.004
 7163TIP3   OH221433   6.631   5.914   6.739
 7163TIP3    H121434   6.622   5.821   6.759
 7163TIP3    H221435   6.685   5.949   6.810
 7164TIP3   OH221436   7.435   4.725   6.032
 7164TIP3    H121437   7.470   4.791   6.092
 7164TIP3    H221438   7.362   4.768   5.988
 7165TIP3   OH221439   1.284   3.883   3.818
 7165TIP3    H121440   1.371   3.880   3.780
 7165TIP3    H221441   1.225   3.873   3.743
 7166TIP3   OH221442   6.125   7.708   6.667
 7166TIP3    H121443   6.188   7.716   6.738
 7166TIP3    H221444   6.164   7.758   6.595
 7167TIP3   OH221445   4.617   1.004   1.603
 7167TIP3    H121446   4.647   0.915   1.624
 7167TIP3    H221447   4.669   1.029   1.527
 7168TIP3   OH221448   6.091   4.993   2.512
 7168TIP3    H121449   6.049   4.933   2.451
 7168TIP3    H221450   6.185   4.985   2.494
 7169TIP3   OH221451   5.201   5.196   3.551
 7169TIP3    H121452   5.134   5.195   3.620
 7169TIP3    H221453   5.226   5.288   3.544
 7170TIP3   OH221454   4.353   4.744   3.082
 7170TIP3    H121455   4.264   4.733   3.114
 7170TIP3    H221456   4.373   4.663   3.035
 7171TIP3   OH221457   6.730   1.801   6.164
 7171TIP3    H121458   6.797   1.759   6.110
 7171TIP3    H221459   6.739   1.894   6.145
 7172TIP3   OH221460   3.236   3.725   2.886
 7172TIP3    H121461   3.156   3.674   2.872
 7172TIP3    H221462   3.210   3.796   2.945
 7173TIP3   OH221463   1.840   3.899   5.624
 7173TIP3    H121464   1.893   3.863   5.695
 7173TIP3    H221465   1.787   3.967   5.666
 7174TIP3   OH221466   3.964   5.931   5.169
 7174TIP3    H121467   3.870   5.947   5.155
 7174TIP3    H221468   3.997   5.905   5.083
 7175TIP3   OH221469   1.974   0.449   0.668
 7175TIP3    H121470   1.940   0.383   0.607
 7175TIP3    H221471   2.000   0.522   0.613
 7176TIP3   OH221472   1.689   7.432   5.521
 7176TIP3    H121473   1.738   7.377   5.461
 7176TIP3    H221474   1.678   7.378   5.600
 7177TIP3   OH221475   2.950   0.807   1.856
 7177TIP3    H121476   3.004   0.747   1.804
 7177TIP3    H221477   2.889   0.845   1.792
 7178TIP3   OH221478   4.975   0.611   5.094
 7178TIP3    H121479   5.051   0.557   5.074
 7178TIP3    H221480   5.002   0.700   5.073
 7179TIP3   OH221481   1.865   4.838   2.077
 7179TIP3    H121482   1.837   4.746   2.085
 7179TIP3    H221483   1.913   4.841   1.994
 7180TIP3   OH221484   0.065   0.825   2.847
 7180TIP3    H121485  -0.007   0.886   2.860
 7180TIP3    H221486   0.038   0.772   2.772
 7181TIP3   OH221487   7.992   0.269   6.136
 7181TIP3    H121488   7.944   0.241   6.058
 7181TIP3    H221489   8.078   0.229   6.127
 7182TIP3   OH221490   6.204   6.647   2.805
 7182TIP3    H121491   6.156   6.673   2.726
 7182TIP3    H221492   6.143   6.592   2.853
 7183TIP3   OH221493   3.804   7.079   2.797
 7183TIP3    H121494   3.869   7.058   2.730
 7183TIP3    H221495   3.821   7.171   2.819
 7184TIP3   OH221496   2.654   2.528   1.943
 7184TIP3    H121497   2.693   2.453   1.989
 7184TIP3    H221498   2.618   2.582   2.013
 7185TIP3   OH221499   1.965   7.703   2.420
 7185TIP3    H121500   1.948   7.620   2.466
 7185TIP3    H221501   1.930   7.770   2.479
 7186TIP3   OH221502   3.233   0.390   3.658
 7186TIP3    H121503   3.142   0.364   3.649
 7186TIP3    H221504   3.283   0.312   3.634
 7187TIP3   OH221505   6.669   2.671   0.825
 7187TIP3    H121506   6.756   2.681   0.788
 7187TIP3    H221507   6.678   2.698   0.916
 7188TIP3   OH221508   1.689   5.497   5.013
 7188TIP3    H121509   1.705   5.591   5.001
 7188TIP3    H221510   1.597   5.486   4.989
 7189TIP3   OH221511   7.937   4.633   1.101
 7189TIP3    H121512   7.978   4.714   1.133
 7189TIP3    H221513   7.956   4.568   1.168
 7190TIP3   OH221514   2.576   3.559   2.710
 7190TIP3    H121515   2.595   3.470   2.679
 7190TIP3    H221516   2.489   3.554   2.748
 7191TIP3   OH221517   5.724   7.579   6.413
 7191TIP3    H121518   5.775   7.660   6.407
 7191TIP3    H221519   5.736   7.537   6.328
 7192TIP3   OH221520   7.002   6.530   4.011
 7192TIP3    H121521   6.926   6.538   4.069
 7192TIP3    H221522   7.012   6.436   3.997
 7193TIP3   OH221523   3.404   5.953   5.086
 7193TIP3    H121524   3.379   5.880   5.029
 7193TIP3    H221525   3.483   5.989   5.046
 7194TIP3   OH221526   1.018   6.510   1.613
 7194TIP3    H121527   0.991   6.499   1.522
 7194TIP3    H221528   1.105   6.550   1.607
 7195TIP3   OH221529   2.857   2.583   2.458
 7195TIP3    H121530   2.792   2.604   2.391
 7195TIP3    H221531   2.857   2.659   2.516
 7196TIP3   OH221532   2.934   5.557   2.082
 7196TIP3    H121533   2.984   5.488   2.125
 7196TIP3    H221534   2.872   5.511   2.025
 7197TIP3   OH221535   4.949   7.765   6.049
 7197TIP3    H121536   4.915   7.778   6.138
 7197TIP3    H221537   4.919   7.677   6.025
 7198TIP3   OH221538   5.837   4.480   0.188
 7198TIP3    H121539   5.902   4.492   0.257
 7198TIP3    H221540   5.860   4.396   0.148
 7199TIP3   OH221541   0.581   5.063   3.736
 7199TIP3    H121542   0.493   5.099   3.726
 7199TIP3    H221543   0.628   5.128   3.789
 7200TIP3   OH221544   4.861   1.221   0.375
 7200TIP3    H121545   4.864   1.173   0.292
 7200TIP3    H221546   4.863   1.152   0.442
 7201TIP3   OH221547   0.567   7.155   2.241
 7201TIP3    H121548   0.500   7.194   2.297
 7201TIP3    H221549   0.597   7.227   2.185
 7202TIP3   OH221550   1.181   2.321   1.873
 7202TIP3    H121551   1.233   2.260   1.926
 7202TIP3    H221552   1.124   2.364   1.936
 7203TIP3   OH221553   3.403   7.249   1.662
 7203TIP3    H121554   3.347   7.192   1.609
 7203TIP3    H221555   3.418   7.199   1.742
 7204TIP3   OH221556   3.853   1.638   1.157
 7204TIP3    H121557   3.789   1.632   1.228
 7204TIP3    H221558   3.934   1.605   1.194
 7205TIP3   OH221559   7.656   4.986   6.552
 7205TIP3    H121560   7.659   5.037   6.471
 7205TIP3    H221561   7.726   5.024   6.606
 7206TIP3   OH221562   2.155   3.238   5.572
 7206TIP3    H121563   2.065   3.269   5.589
 7206TIP3    H221564   2.146   3.144   5.562
 7207TIP3   OH221565   7.263   4.088   5.734
 7207TIP3    H121566   7.307   4.060   5.654
 7207TIP3    H221567   7.268   4.012   5.792
 7208TIP3   OH221568   5.004   5.715   2.904
 7208TIP3    H121569   4.938   5.718   2.835
 7208TIP3    H221570   5.080   5.675   2.862
 7209TIP3   OH221571   3.819   2.620   4.704
 7209TIP3    H121572   3.836   2.579   4.789
 7209TIP3    H221573   3.842   2.554   4.640
 7210TIP3   OH221574   4.423   3.971   1.928
 7210TIP3    H121575   4.468   3.910   1.870
 7210TIP3    H221576   4.421   4.054   1.880
 7211TIP3   OH221577   0.158   2.189   3.881
 7211TIP3    H121578   0.127   2.152   3.964
 7211TIP3    H221579   0.084   2.180   3.821
 7212TIP3   OH221580   2.836   3.578   0.305
 7212TIP3    H121581   2.776   3.607   0.375
 7212TIP3    H221582   2.821   3.484   0.299
 7213TIP3   OH221583   0.019   2.025   5.310
 7213TIP3    H121584   0.111   2.004   5.299
 7213TIP3    H221585   0.018   2.105   5.362
 7214TIP3   OH221586   3.358   5.586   2.538
 7214TIP3    H121587   3.357   5.663   2.595
 7214TIP3    H221588   3.302   5.522   2.583
 7215TIP3   OH221589   6.546   5.807   1.655
 7215TIP3    H121590   6.563   5.796   1.748
 7215TIP3    H221591   6.487   5.882   1.650
 7216TIP3   OH221592   0.748   1.888   5.085
 7216TIP3    H121593   0.684   1.949   5.122
 7216TIP3    H221594   0.757   1.916   4.994
 7217TIP3   OH221595   0.568   2.678   5.803
 7217TIP3    H121596   0.475   2.695   5.816
 7217TIP3    H221597   0.603   2.664   5.891
 7218TIP3   OH221598   0.657   1.471   4.158
 7218TIP3    H121599   0.643   1.459   4.064
 7218TIP3    H221600   0.635   1.385   4.196
 7219TIP3   OH221601   6.465   1.621   6.212
 7219TIP3    H121602   6.552   1.656   6.194
 7219TIP3    H221603   6.456   1.625   6.307
 7220TIP3   OH221604   8.295   2.980   5.203
 7220TIP3    H121605   8.269   2.990   5.111
 7220TIP3    H221606   8.245   2.904   5.233
 7221TIP3   OH221607   0.122   5.425   2.638
 7221TIP3    H121608   0.058   5.372   2.684
 7221TIP3    H221609   0.202   5.373   2.639
 7222TIP3   OH221610   1.323   7.676   5.648
 7222TIP3    H121611   1.276   7.650   5.728
 7222TIP3    H221612   1.311   7.602   5.589
 7223TIP3   OH221613   4.713   0.798   3.394
 7223TIP3    H121614   4.722   0.891   3.412
 7223TIP3    H221615   4.663   0.764   3.468
 7224TIP3   OH221616   1.032   3.096   4.630
 7224TIP3    H121617   1.124   3.111   4.610
 7224TIP3    H221618   1.019   3.135   4.716
 7225TIP3   OH221619   6.001   1.054   6.065
 7225TIP3    H121620   5.990   0.965   6.031
 7225TIP3    H221621   6.028   1.041   6.156
 7226TIP3   OH221622   2.462   6.433   4.763
 7226TIP3    H121623   2.496   6.513   4.805
 7226TIP3    H221624   2.499   6.361   4.815
 7227TIP3   OH221625   7.780   0.362   3.853
 7227TIP3    H121626   7.837   0.428   3.890
 7227TIP3    H221627   7.696   0.407   3.841
 7228TIP3   OH221628   4.696   1.953   6.647
 7228TIP3    H121629   4.733   1.912   6.569
 7228TIP3    H221630   4.716   2.046   6.637
 7229TIP3   OH221631   4.768   3.670   6.739
 7229TIP3    H121632   4.835   3.728   6.775
 7229TIP3    H221633   4.715   3.726   6.682
 7230TIP3   OH221634   4.263   3.598   3.143
 7230TIP3    H121635   4.272   3.690   3.115
 7230TIP3    H221636   4.190   3.599   3.205
 7231TIP3   OH221637   0.145   3.437   0.051
 7231TIP3    H121638   0.173   3.346   0.042
 7231TIP3    H221639   0.224   3.488   0.032
 7232TIP3   OH221640   4.110   7.531   6.125
 7232TIP3    H121641   4.061   7.572   6.054
 7232TIP3    H221642   4.045   7.480   6.173
 7233TIP3   OH221643   4.351   6.800   2.724
 7233TIP3    H121644   4.402   6.745   2.783
 7233TIP3    H221645   4.263   6.763   2.727
 7234TIP3   OH221646   6.178   4.616   5.700
 7234TIP3    H121647   6.152   4.708   5.697
 7234TIP3    H221648   6.101   4.568   5.671
 7235TIP3   OH221649   7.526   4.637   3.731
 7235TIP3    H121650   7.542   4.596   3.816
 7235TIP3    H221651   7.570   4.722   3.738
 7236TIP3   OH221652   6.771   4.908   2.301
 7236TIP3    H121653   6.718   4.976   2.341
 7236TIP3    H221654   6.861   4.927   2.329
 7237TIP3   OH221655   3.879   4.954   0.816
 7237TIP3    H121656   3.829   4.943   0.896
 7237TIP3    H221657   3.970   4.941   0.842
 7238TIP3   OH221658   3.633   0.466   6.432
 7238TIP3    H121659   3.722   0.450   6.402
 7238TIP3    H221660   3.609   0.550   6.393
 7239TIP3   OH221661   3.671   3.681   4.686
 7239TIP3    H121662   3.583   3.657   4.716
 7239TIP3    H221663   3.688   3.622   4.613
 7240TIP3   OH221664   8.006   3.510   5.378
 7240TIP3    H121665   8.060   3.588   5.388
 7240TIP3    H221666   8.069   3.437   5.382
 7241TIP3   OH221667   4.747   5.868   6.278
 7241TIP3    H121668   4.756   5.943   6.337
 7241TIP3    H221669   4.666   5.886   6.230
 7242TIP3   OH221670   5.216   4.086   2.344
 7242TIP3    H121671   5.247   4.156   2.402
 7242TIP3    H221672   5.132   4.119   2.311
 7243TIP3   OH221673   5.174   2.003   6.550
 7243TIP3    H121674   5.167   2.038   6.461
 7243TIP3    H221675   5.103   1.939   6.556
 7244TIP3   OH221676   5.127   1.605   4.677
 7244TIP3    H121677   5.111   1.695   4.704
 7244TIP3    H221678   5.196   1.611   4.611
 7245TIP3   OH221679   8.241   7.165   6.411
 7245TIP3    H121680   8.305   7.098   6.389
 7245TIP3    H221681   8.191   7.128   6.484
 7246TIP3   OH221682   0.095   0.664   3.317
 7246TIP3    H121683   0.037   0.724   3.269
 7246TIP3    H221684   0.116   0.595   3.255
 7247TIP3   OH221685   6.837   7.237   4.438
 7247TIP3    H121686   6.854   7.260   4.529
 7247TIP3    H221687   6.773   7.166   4.443
 7248TIP3   OH221688   0.803   5.669   3.509
 7248TIP3    H121689   0.724   5.690   3.459
 7248TIP3    H221690   0.776   5.674   3.601
 7249TIP3   OH221691   2.282   3.669   0.165
 7249TIP3    H121692   2.260   3.758   0.190
 7249TIP3    H221693   2.202   3.635   0.124
 7250TIP3   OH221694   7.490   3.938   5.039
 7250TIP3    H121695   7.427   3.920   5.108
 7250TIP3    H221696   7.560   3.987   5.082
 7251TIP3   OH221697   4.387   3.498   5.899
 7251TIP3    H121698   4.402   3.572   5.957
 7251TIP3    H221699   4.296   3.506   5.871
 7252TIP3   OH221700   6.163   7.811   3.817
 7252TIP3    H121701   6.208   7.850   3.892
 7252TIP3    H221702   6.233   7.770   3.766
 7253TIP3   OH221703   1.004   0.282   2.905
 7253TIP3    H121704   1.072   0.325   2.956
 7253TIP3    H221705   1.043   0.198   2.879
 7254TIP3   OH221706   1.561   0.167   3.157
 7254TIP3    H121707   1.628   0.098   3.159
 7254TIP3    H221708   1.511   0.154   3.238
 7255TIP3   OH221709   7.853   2.600   1.451
 7255TIP3    H121710   7.876   2.691   1.435
 7255TIP3    H221711   7.912   2.550   1.394
 7256TIP3   OH221712   5.408   1.873   5.163
 7256TIP3    H121713   5.328   1.892   5.211
 7256TIP3    H221714   5.430   1.955   5.119
 7257TIP3   OH221715   6.445   4.474   0.718
 7257TIP3    H121716   6.444   4.514   0.631
 7257TIP3    H221717   6.369   4.415   0.717
 7258TIP3   OH221718   6.518   7.042   2.724
 7258TIP3    H121719   6.552   7.131   2.733
 7258TIP3    H221720   6.428   7.054   2.692
 7259TIP3   OH221721   3.087   3.456   1.359
 7259TIP3    H121722   3.175   3.421   1.372
 7259TIP3    H221723   3.029   3.388   1.392
 7260TIP3   OH221724   5.962   4.945   3.359
 7260TIP3    H121725   6.021   4.932   3.433
 7260TIP3    H221726   6.018   4.984   3.291
 7261TIP3   OH221727   7.257   4.942   4.643
 7261TIP3    H121728   7.207   4.864   4.618
 7261TIP3    H221729   7.300   4.970   4.562
 7262TIP3   OH221730   3.225   6.118   5.851
 7262TIP3    H121731   3.164   6.186   5.821
 7262TIP3    H221732   3.201   6.040   5.801
 7263TIP3   OH221733   2.754   6.444   0.322
 7263TIP3    H121734   2.691   6.445   0.394
 7263TIP3    H221735   2.828   6.496   0.354
 7264TIP3   OH221736   0.574   7.363   2.530
 7264TIP3    H121737   0.620   7.324   2.604
 7264TIP3    H221738   0.608   7.452   2.525
 7265TIP3   OH221739   2.044   1.515   5.404
 7265TIP3    H121740   1.976   1.496   5.469
 7265TIP3    H221741   2.003   1.495   5.320
 7266TIP3   OH221742   7.621   4.823   2.932
 7266TIP3    H121743   7.692   4.796   2.991
 7266TIP3    H221744   7.553   4.857   2.991
 7267TIP3   OH221745   5.054   3.787   0.615
 7267TIP3    H121746   4.998   3.778   0.692
 7267TIP3    H221747   5.118   3.716   0.624
 7268TIP3   OH221748   1.410   5.861   1.121
 7268TIP3    H121749   1.437   5.840   1.210
 7268TIP3    H221750   1.367   5.782   1.090
 7269TIP3   OH221751   4.113   4.277   3.702
 7269TIP3    H121752   4.082   4.367   3.709
 7269TIP3    H221753   4.194   4.276   3.753
 7270TIP3   OH221754   5.770   6.416   1.375
 7270TIP3    H121755   5.838   6.400   1.309
 7270TIP3    H221756   5.694   6.369   1.342
 7271TIP3   OH221757   0.888   6.619   1.853
 7271TIP3    H121758   0.858   6.551   1.913
 7271TIP3    H221759   0.932   6.571   1.783
 7272TIP3   OH221760   1.226   0.162   6.273
 7272TIP3    H121761   1.199   0.254   6.273
 7272TIP3    H221762   1.213   0.133   6.182
 7273TIP3   OH221763   0.277   5.489   4.387
 7273TIP3    H121764   0.225   5.543   4.447
 7273TIP3    H221765   0.282   5.541   4.306
 7274TIP3   OH221766   6.470   3.972   1.484
 7274TIP3    H121767   6.454   3.931   1.569
 7274TIP3    H221768   6.384   4.004   1.457
 7275TIP3   OH221769   8.219   3.602   0.982
 7275TIP3    H121770   8.203   3.599   0.887
 7275TIP3    H221771   8.171   3.527   1.017
 7276TIP3   OH221772   1.726   7.102   2.964
 7276TIP3    H121773   1.812   7.118   3.004
 7276TIP3    H221774   1.736   7.019   2.917
 7277TIP3   OH221775   7.530   4.849   2.012
 7277TIP3    H121776   7.534   4.851   1.917
 7277TIP3    H221777   7.466   4.780   2.032
 7278TIP3   OH221778   4.942   6.945   2.338
 7278TIP3    H121779   4.962   6.965   2.246
 7278TIP3    H221780   4.850   6.920   2.337
 7279TIP3   OH221781   1.661   5.574   1.574
 7279TIP3    H121782   1.721   5.545   1.505
 7279TIP3    H221783   1.715   5.578   1.653
 7280TIP3   OH221784   7.246   4.798   2.511
 7280TIP3    H121785   7.250   4.744   2.590
 7280TIP3    H221786   7.325   4.852   2.515
 7281TIP3   OH221787   4.970   3.386   3.823
 7281TIP3    H121788   5.018   3.376   3.740
 7281TIP3    H221789   4.982   3.302   3.868
 7282TIP3   OH221790   3.654   2.437   2.670
 7282TIP3    H121791   3.574   2.396   2.637
 7282TIP3    H221792   3.624   2.517   2.713
 7283TIP3   OH221793   7.214   0.185   3.787
 7283TIP3    H121794   7.134   0.236   3.790
 7283TIP3    H221795   7.243   0.190   3.695
 7284TIP3   OH221796   0.641   1.385   2.489
 7284TIP3    H121797   0.736   1.389   2.482
 7284TIP3    H221798   0.609   1.438   2.416
 7285TIP3   OH221799   6.466   7.843   0.614
 7285TIP3    H121800   6.396   7.882   0.562
 7285TIP3    H221801   6.423   7.807   0.691
 7286TIP3   OH221802   2.029   5.600   3.448
 7286TIP3    H121803   1.934   5.598   3.435
 7286TIP3    H221804   2.052   5.510   3.470
 7287TIP3   OH221805   6.580   5.060   6.226
 7287TIP3    H121806   6.568   5.124   6.297
 7287TIP3    H221807   6.579   5.113   6.146
 7288TIP3   OH221808   5.245   5.509   4.548
 7288TIP3    H121809   5.274   5.425   4.513
 7288TIP3    H221810   5.152   5.497   4.566
 7289TIP3   OH221811   2.199   6.600   6.077
 7289TIP3    H121812   2.144   6.614   5.999
 7289TIP3    H221813   2.136   6.588   6.148
 7290TIP3   OH221814   2.548   5.625   5.168
 7290TIP3    H121815   2.460   5.593   5.146
 7290TIP3    H221816   2.588   5.644   5.084
 7291TIP3   OH221817   1.153   3.931   3.555
 7291TIP3    H121818   1.159   4.026   3.556
 7291TIP3    H221819   1.207   3.904   3.481
 7292TIP3   OH221820   6.030   6.482   2.919
 7292TIP3    H121821   5.961   6.532   2.963
 7292TIP3    H221822   5.990   6.396   2.903
 7293TIP3   OH221823   2.515   1.609   0.831
 7293TIP3    H121824   2.554   1.524   0.846
 7293TIP3    H221825   2.499   1.612   0.737
 7294TIP3   OH221826   3.027   4.975   2.635
 7294TIP3    H121827   3.061   4.898   2.681
 7294TIP3    H221828   3.103   5.013   2.592
 7295TIP3   OH221829   6.161   1.051   6.289
 7295TIP3    H121830   6.171   1.146   6.292
 7295TIP3    H221831   6.085   1.034   6.346
 7296TIP3   OH221832   6.873   6.956   0.642
 7296TIP3    H121833   6.838   6.871   0.614
 7296TIP3    H221834   6.900   7.000   0.561
 7297TIP3   OH221835   7.840   1.894   6.422
 7297TIP3    H121836   7.780   1.836   6.469
 7297TIP3    H221837   7.927   1.860   6.443
 7298TIP3   OH221838   6.309   7.083   5.904
 7298TIP3    H121839   6.263   7.136   5.969
 7298TIP3    H221840   6.343   7.146   5.841
 7299TIP3   OH221841   8.240   6.606   3.954
 7299TIP3    H121842   8.163   6.645   3.993
 7299TIP3    H221843   8.228   6.617   3.859
 7300TIP3   OH221844   6.028   5.869   0.247
 7300TIP3    H121845   5.952   5.825   0.209
 7300TIP3    H221846   6.103   5.832   0.200
 7301TIP3   OH221847   1.701   0.507   2.261
 7301TIP3    H121848   1.694   0.421   2.302
 7301TIP3    H221849   1.645   0.564   2.313
 7302TIP3   OH221850   3.170   7.081   1.523
 7302TIP3    H121851   3.084   7.122   1.508
 7302TIP3    H221852   3.154   7.020   1.596
 7303TIP3   OH221853   0.726   5.975   3.334
 7303TIP3    H121854   0.767   5.932   3.259
 7303TIP3    H221855   0.781   6.052   3.350
 7304TIP3   OH221856   7.328   2.475   6.202
 7304TIP3    H121857   7.402   2.518   6.160
 7304TIP3    H221858   7.367   2.401   6.249
 7305TIP3   OH221859   0.681   5.297   0.151
 7305TIP3    H121860   0.731   5.233   0.099
 7305TIP3    H221861   0.740   5.319   0.224
 7306TIP3   OH221862   4.810   6.655   5.910
 7306TIP3    H121863   4.786   6.695   5.826
 7306TIP3    H221864   4.832   6.565   5.889
 7307TIP3   OH221865   5.621   4.014   2.989
 7307TIP3    H121866   5.575   4.043   3.067
 7307TIP3    H221867   5.560   3.956   2.944
 7308TIP3   OH221868   7.302   3.292   1.138
 7308TIP3    H121869   7.298   3.357   1.067
 7308TIP3    H221870   7.341   3.215   1.096
 7309TIP3   OH221871   5.110   7.655   0.623
 7309TIP3    H121872   5.119   7.747   0.649
 7309TIP3    H221873   5.164   7.607   0.686
 7310TIP3   OH221874   7.464   0.590   5.470
 7310TIP3    H121875   7.467   0.645   5.549
 7310TIP3    H221876   7.555   0.571   5.451
 7311TIP3   OH221877   6.819   4.204   3.961
 7311TIP3    H121878   6.730   4.220   3.995
 7311TIP3    H221879   6.870   4.278   3.994
 7312TIP3   OH221880   7.348   6.920   1.672
 7312TIP3    H121881   7.308   6.872   1.600
 7312TIP3    H221882   7.299   6.893   1.749
 7313TIP3   OH221883   0.856   6.897   4.674
 7313TIP3    H121884   0.906   6.860   4.601
 7313TIP3    H221885   0.820   6.821   4.719
 7314TIP3   OH221886   3.346   5.901   4.313
 7314TIP3    H121887   3.394   5.826   4.348
 7314TIP3    H221888   3.303   5.940   4.390
 7315TIP3   OH221889   7.469   3.486   5.467
 7315TIP3    H121890   7.454   3.577   5.441
 7315TIP3    H221891   7.563   3.473   5.456
 7316TIP3   OH221892   2.537   5.717   0.190
 7316TIP3    H121893   2.564   5.699   0.100
 7316TIP3    H221894   2.578   5.801   0.212
 7317TIP3   OH221895   3.220   7.164   5.737
 7317TIP3    H121896   3.294   7.117   5.698
 7317TIP3    H221897   3.179   7.209   5.663
 7318TIP3   OH221898   4.802   7.129   5.128
 7318TIP3    H121899   4.739   7.071   5.086
 7318TIP3    H221900   4.883   7.077   5.133
 7319TIP3   OH221901   8.106   5.029   4.922
 7319TIP3    H121902   8.030   5.016   4.977
 7319TIP3    H221903   8.080   4.998   4.836
 7320TIP3   OH221904   2.576   5.847   5.344
 7320TIP3    H121905   2.570   5.800   5.261
 7320TIP3    H221906   2.540   5.934   5.326
 7321TIP3   OH221907   3.357   6.253   1.697
 7321TIP3    H121908   3.281   6.218   1.651
 7321TIP3    H221909   3.332   6.342   1.721
 7322TIP3   OH221910   7.715   5.139   5.437
 7322TIP3    H121911   7.629   5.176   5.421
 7322TIP3    H221912   7.724   5.070   5.371
 7323TIP3   OH221913   2.140   6.060   5.602
 7323TIP3    H121914   2.070   6.001   5.630
 7323TIP3    H221915   2.172   6.023   5.519
 7324TIP3   OH221916   2.902   1.348   0.090
 7324TIP3    H121917   2.922   1.266   0.135
 7324TIP3    H221918   2.830   1.327   0.031
 7325TIP3   OH221919   0.514   3.690   5.066
 7325TIP3    H121920   0.439   3.710   5.010
 7325TIP3    H221921   0.480   3.696   5.155
 7326TIP3   OH221922   7.263   1.121   4.039
 7326TIP3    H121923   7.221   1.140   3.955
 7326TIP3    H221924   7.261   1.204   4.086
 7327TIP3   OH221925   4.321   5.381   6.702
 7327TIP3    H121926   4.264   5.379   6.779
 7327TIP3    H221927   4.262   5.404   6.630
 7328TIP3   OH221928   6.475   2.416   6.765
 7328TIP3    H121929   6.383   2.417   6.794
 7328TIP3    H221930   6.478   2.480   6.694
 7329TIP3   OH221931   0.904   5.642   1.252
 7329TIP3    H121932   0.839   5.627   1.183
 7329TIP3    H221933   0.853   5.677   1.325
 7330TIP3   OH221934   6.011   3.385   6.173
 7330TIP3    H121935   6.035   3.472   6.142
 7330TIP3    H221936   6.017   3.391   6.269
 7331TIP3   OH221937   7.542   0.107   3.454
 7331TIP3    H121938   7.550   0.013   3.439
 7331TIP3    H221939   7.560   0.118   3.547
 7332TIP3   OH221940   5.552   1.713   5.337
 7332TIP3    H121941   5.506   1.746   5.259
 7332TIP3    H221942   5.543   1.618   5.332
 7333TIP3   OH221943   6.993   5.112   6.072
 7333TIP3    H121944   7.007   5.100   6.166
 7333TIP3    H221945   6.898   5.105   6.061
 7334TIP3   OH221946   3.012   1.100   5.170
 7334TIP3    H121947   3.078   1.111   5.238
 7334TIP3    H221948   3.061   1.069   5.094
 7335TIP3   OH221949   4.062   5.965   4.461
 7335TIP3    H121950   4.034   6.036   4.404
 7335TIP3    H221951   4.116   6.007   4.527
 7336TIP3   OH221952   7.808   2.522   4.361
 7336TIP3    H121953   7.819   2.529   4.456
 7336TIP3    H221954   7.755   2.444   4.349
 7337TIP3   OH221955   7.115   1.909   5.975
 7337TIP3    H121956   7.192   1.861   6.005
 7337TIP3    H221957   7.092   1.868   5.892
 7338TIP3   OH221958   6.813   5.426   6.270
 7338TIP3    H121959   6.875   5.357   6.247
 7338TIP3    H221960   6.750   5.426   6.199
 7339TIP3   OH221961   2.891   3.175   1.259
 7339TIP3    H121962   2.874   3.265   1.233
 7339TIP3    H221963   2.984   3.162   1.243
 7340TIP3   OH221964   6.310   3.895   6.144
 7340TIP3    H121965   6.253   3.823   6.171
 7340TIP3    H221966   6.265   3.933   6.068
 7341TIP3   OH221967   4.845   7.621   6.397
 7341TIP3    H121968   4.752   7.608   6.413
 7341TIP3    H221969   4.874   7.542   6.353
 7342TIP3   OH221970   6.652   4.824   4.270
 7342TIP3    H121971   6.697   4.880   4.207
 7342TIP3    H221972   6.701   4.742   4.269
 7343TIP3   OH221973   5.850   5.095   1.809
 7343TIP3    H121974   5.900   5.136   1.739
 7343TIP3    H221975   5.842   5.003   1.782
 7344TIP3   OH221976   3.025   0.913   0.437
 7344TIP3    H121977   3.025   0.817   0.434
 7344TIP3    H221978   3.051   0.934   0.527
 7345TIP3   OH221979   5.451   2.700   0.880
 7345TIP3    H121980   5.484   2.630   0.936
 7345TIP3    H221981   5.370   2.664   0.842
 7346TIP3   OH221982   3.027   5.626   2.614
 7346TIP3    H121983   3.086   5.668   2.678
 7346TIP3    H221984   3.066   5.540   2.598
 7347TIP3   OH221985   8.338   2.696   5.870
 7347TIP3    H121986   8.289   2.774   5.897
 7347TIP3    H221987   8.285   2.623   5.901
 7348TIP3   OH221988   3.195   5.619   3.557
 7348TIP3    H121989   3.109   5.660   3.566
 7348TIP3    H221990   3.199   5.592   3.465
 7349TIP3   OH221991   8.294   4.535   1.918
 7349TIP3    H121992   8.302   4.533   2.014
 7349TIP3    H221993   8.266   4.446   1.895
 7350TIP3   OH221994   4.574   4.589   0.465
 7350TIP3    H121995   4.656   4.546   0.489
 7350TIP3    H221996   4.511   4.517   0.456
 7351TIP3   OH221997   1.701   7.583   5.983
 7351TIP3    H121998   1.792   7.570   5.958
 7351TIP3    H221999   1.699   7.568   6.078
 7352TIP3   OH222000   8.063   2.318   2.021
 7352TIP3    H122001   8.157   2.301   2.027
 7352TIP3    H222002   8.050   2.397   2.074
 7353TIP3   OH222003   5.754   1.645   2.828
 7353TIP3    H122004   5.827   1.637   2.889
 7353TIP3    H222005   5.703   1.565   2.841
 7354TIP3   OH222006   7.419   7.335   0.750
 7354TIP3    H122007   7.498   7.282   0.758
 7354TIP3    H222008   7.434   7.389   0.672
 7355TIP3   OH222009   1.019   0.810   3.488
 7355TIP3    H122010   1.015   0.783   3.396
 7355TIP3    H222011   1.100   0.861   3.494
 7356TIP3   OH222012   1.621   3.475   3.877
 7356TIP3    H122013   1.669   3.490   3.958
 7356TIP3    H222014   1.529   3.485   3.902
 7357TIP3   OH222015   5.330   6.200   2.141
 7357TIP3    H122016   5.327   6.267   2.073
 7357TIP3    H222017   5.301   6.120   2.096
 7358TIP3   OH222018   8.004   1.228   2.129
 7358TIP3    H122019   8.016   1.242   2.223
 7358TIP3    H222020   8.090   1.199   2.099
 7359TIP3   OH222021   3.457   4.707   1.496
 7359TIP3    H122022   3.550   4.702   1.475
 7359TIP3    H222023   3.452   4.689   1.590
 7360TIP3   OH222024   4.470   5.424   6.067
 7360TIP3    H122025   4.480   5.512   6.032
 7360TIP3    H222026   4.558   5.387   6.067
 7361TIP3   OH222027   7.651   2.250   3.824
 7361TIP3    H122028   7.660   2.345   3.816
 7361TIP3    H222029   7.592   2.237   3.899
 7362TIP3   OH222030   4.761   5.479   0.367
 7362TIP3    H122031   4.834   5.477   0.305
 7362TIP3    H222032   4.742   5.572   0.379
 7363TIP3   OH222033   3.649   7.075   3.591
 7363TIP3    H122034   3.670   6.982   3.590
 7363TIP3    H222035   3.593   7.088   3.514
 7364TIP3   OH222036   3.527   3.128   2.445
 7364TIP3    H122037   3.606   3.084   2.414
 7364TIP3    H222038   3.471   3.134   2.368
 7365TIP3   OH222039   1.609   3.459   3.359
 7365TIP3    H122040   1.656   3.484   3.438
 7365TIP3    H222041   1.581   3.368   3.375
 7366TIP3   OH222042   4.226   7.508   1.087
 7366TIP3    H122043   4.283   7.586   1.087
 7366TIP3    H222044   4.232   7.475   0.998
 7367TIP3   OH222045   4.285   4.316   5.738
 7367TIP3    H122046   4.365   4.359   5.709
 7367TIP3    H222047   4.250   4.372   5.807
 7368TIP3   OH222048   8.249   1.239   5.623
 7368TIP3    H122049   8.308   1.271   5.691
 7368TIP3    H222050   8.168   1.216   5.670
 7369TIP3   OH222051   7.930   2.703   1.984
 7369TIP3    H122052   7.927   2.786   1.936
 7369TIP3    H222053   7.874   2.644   1.933
 7370TIP3   OH222054   7.076   3.022   0.561
 7370TIP3    H122055   7.126   3.088   0.514
 7370TIP3    H222056   7.103   2.939   0.522
 7371TIP3   OH222057   5.959   3.687   6.542
 7371TIP3    H122058   5.868   3.666   6.562
 7371TIP3    H222059   5.983   3.754   6.606
 7372TIP3   OH222060   3.554   7.280   6.543
 7372TIP3    H122061   3.618   7.301   6.610
 7372TIP3    H222062   3.530   7.189   6.560
 7373TIP3   OH222063   1.904   5.916   1.875
 7373TIP3    H122064   1.820   5.937   1.833
 7373TIP3    H222065   1.970   5.955   1.818
 7374TIP3   OH222066   1.834   6.618   0.245
 7374TIP3    H122067   1.813   6.525   0.238
 7374TIP3    H222068   1.832   6.649   0.154
 7375TIP3   OH222069   5.398   0.080   5.126
 7375TIP3    H122070   5.399   0.046   5.037
 7375TIP3    H222071   5.426   0.171   5.118
 7376TIP3   OH222072   2.277   7.576   4.441
 7376TIP3    H122073   2.244   7.602   4.527
 7376TIP3    H222074   2.275   7.657   4.389
 7377TIP3   OH222075   2.435   3.193   1.118
 7377TIP3    H122076   2.522   3.167   1.150
 7377TIP3    H222077   2.374   3.153   1.179
 7378TIP3   OH222078   3.419   6.935   1.426
 7378TIP3    H122079   3.412   6.852   1.473
 7378TIP3    H222080   3.493   6.980   1.467
 7379TIP3   OH222081   1.269   3.992   4.550
 7379TIP3    H122082   1.213   3.917   4.531
 7379TIP3    H222083   1.316   3.967   4.630
 7380TIP3   OH222084   5.560   4.110   4.393
 7380TIP3    H122085   5.529   4.036   4.341
 7380TIP3    H222086   5.500   4.113   4.468
 7381TIP3   OH222087   5.131   7.408   1.555
 7381TIP3    H122088   5.161   7.397   1.465
 7381TIP3    H222089   5.053   7.462   1.548
 7382TIP3   OH222090   1.337   7.825   5.922
 7382TIP3    H122091   1.332   7.899   5.981
 7382TIP3    H222092   1.367   7.752   5.977
 7383TIP3   OH222093   6.580   1.870   2.672
 7383TIP3    H122094   6.516   1.829   2.614
 7383TIP3    H222095   6.652   1.894   2.614
 7384TIP3   OH222096   1.733   2.792   1.978
 7384TIP3    H122097   1.666   2.766   1.915
 7384TIP3    H222098   1.686   2.805   2.060
 7385TIP3   OH222099   0.237   4.925   2.837
 7385TIP3    H122100   0.195   4.898   2.919
 7385TIP3    H222101   0.266   5.015   2.853
 7386TIP3   OH222102   7.346   1.776   5.096
 7386TIP3    H122103   7.364   1.753   5.005
 7386TIP3    H222104   7.271   1.835   5.091
 7387TIP3   OH222105   8.055   6.592   1.698
 7387TIP3    H122106   8.079   6.681   1.672
 7387TIP3    H222107   8.088   6.585   1.788
 7388TIP3   OH222108   2.266   6.901   6.224
 7388TIP3    H122109   2.325   6.847   6.172
 7388TIP3    H222110   2.185   6.904   6.173
 7389TIP3   OH222111   6.389   4.999   5.872
 7389TIP3    H122112   6.306   4.959   5.898
 7389TIP3    H222113   6.456   4.939   5.904
 7390TIP3   OH222114   2.732   1.725   5.557
 7390TIP3    H122115   2.647   1.769   5.567
 7390TIP3    H222116   2.796   1.794   5.576
 7391TIP3   OH222117   7.919   3.675   2.087
 7391TIP3    H122118   7.964   3.630   2.015
 7391TIP3    H222119   7.885   3.604   2.142
 7392TIP3   OH222120   0.677   0.749   2.845
 7392TIP3    H122121   0.749   0.700   2.883
 7392TIP3    H222122   0.609   0.684   2.829
 7393TIP3   OH222123   1.960   6.705   4.156
 7393TIP3    H122124   1.959   6.795   4.124
 7393TIP3    H222125   1.976   6.713   4.250
 7394TIP3   OH222126   7.538   4.113   5.585
 7394TIP3    H122127   7.581   4.179   5.531
 7394TIP3    H222128   7.535   4.153   5.672
 7395TIP3   OH222129   6.744   2.777   1.601
 7395TIP3    H122130   6.775   2.733   1.680
 7395TIP3    H222131   6.736   2.707   1.536
 7396TIP3   OH222132   1.111   4.429   3.427
 7396TIP3    H122133   1.071   4.459   3.508
 7396TIP3    H222134   1.205   4.423   3.447
 7397TIP3   OH222135   2.216   3.039   5.050
 7397TIP3    H122136   2.242   3.111   4.992
 7397TIP3    H222137   2.228   2.960   4.998
 7398TIP3   OH222138   6.458   1.802   2.210
 7398TIP3    H122139   6.519   1.843   2.148
 7398TIP3    H222140   6.514   1.751   2.269
 7399TIP3   OH222141   7.348   1.215   1.863
 7399TIP3    H122142   7.385   1.145   1.809
 7399TIP3    H222143   7.302   1.170   1.934
 7400TIP3   OH222144   6.733   2.322   2.232
 7400TIP3    H122145   6.754   2.415   2.247
 7400TIP3    H222146   6.647   2.310   2.273
 7401TIP3   OH222147   7.564   2.342   5.665
 7401TIP3    H122148   7.515   2.272   5.709
 7401TIP3    H222149   7.621   2.378   5.733
 7402TIP3   OH222150   7.314   2.700   2.537
 7402TIP3    H122151   7.362   2.632   2.489
 7402TIP3    H222152   7.382   2.761   2.566
 7403TIP3   OH222153   5.628   2.499   0.101
 7403TIP3    H122154   5.718   2.501   0.133
 7403TIP3    H222155   5.623   2.419   0.049
 7404TIP3   OH222156   5.577   0.693   3.011
 7404TIP3    H122157   5.502   0.745   2.984
 7404TIP3    H222158   5.550   0.602   2.996
 7405TIP3   OH222159   5.712   1.650   3.494
 7405TIP3    H122160   5.653   1.714   3.455
 7405TIP3    H222161   5.696   1.656   3.588
 7406TIP3   OH222162   1.413   3.268   1.719
 7406TIP3    H122163   1.345   3.326   1.685
 7406TIP3    H222164   1.380   3.180   1.701
 7407TIP3   OH222165   2.399   7.162   0.554
 7407TIP3    H122166   2.420   7.214   0.631
 7407TIP3    H222167   2.307   7.184   0.534
 7408TIP3   OH222168   7.243   7.177   1.120
 7408TIP3    H122169   7.165   7.122   1.115
 7408TIP3    H222170   7.240   7.231   1.041
 7409TIP3   OH222171   0.239   0.311   0.656
 7409TIP3    H122172   0.289   0.393   0.658
 7409TIP3    H222173   0.200   0.304   0.743
 7410TIP3   OH222174   0.650   0.660   3.166
 7410TIP3    H122175   0.646   0.746   3.207
 7410TIP3    H222176   0.741   0.634   3.173
 7411TIP3   OH222177   1.847   2.267   4.617
 7411TIP3    H122178   1.855   2.205   4.690
 7411TIP3    H222179   1.856   2.353   4.658
 7412TIP3   OH222180   7.614   2.609   1.276
 7412TIP3    H122181   7.669   2.559   1.336
 7412TIP3    H222182   7.550   2.652   1.333
 7413TIP3   OH222183   7.644   7.589   3.252
 7413TIP3    H122184   7.717   7.568   3.194
 7413TIP3    H222185   7.603   7.504   3.270
 7414TIP3   OH222186   7.849   0.331   2.802
 7414TIP3    H122187   7.838   0.315   2.896
 7414TIP3    H222188   7.790   0.404   2.783
 7415TIP3   OH222189   5.901   7.022   2.148
 7415TIP3    H122190   5.954   6.952   2.110
 7415TIP3    H222191   5.812   7.004   2.120
 7416TIP3   OH222192   0.640   6.265   2.574
 7416TIP3    H122193   0.722   6.220   2.596
 7416TIP3    H222194   0.655   6.356   2.600
 7417TIP3   OH222195   0.881   2.802   3.058
 7417TIP3    H122196   0.816   2.767   3.118
 7417TIP3    H222197   0.852   2.891   3.039
 7418TIP3   OH222198   1.798   0.835   5.548
 7418TIP3    H122199   1.802   0.792   5.633
 7418TIP3    H222200   1.743   0.912   5.562
 7419TIP3   OH222201   0.888   3.849   3.783
 7419TIP3    H122202   0.921   3.809   3.864
 7419TIP3    H222203   0.877   3.776   3.722
 7420TIP3   OH222204   1.905   0.820   1.978
 7420TIP3    H122205   1.891   0.726   1.965
 7420TIP3    H222206   1.918   0.855   1.890
 7421TIP3   OH222207   1.944   6.422   0.787
 7421TIP3    H122208   1.902   6.339   0.811
 7421TIP3    H222209   1.925   6.481   0.860
 7422TIP3   OH222210   5.687   7.315   5.625
 7422TIP3    H122211   5.757   7.369   5.662
 7422TIP3    H222212   5.609   7.371   5.630
 7423TIP3   OH222213   5.339   5.374   5.171
 7423TIP3    H122214   5.399   5.394   5.243
 7423TIP3    H222215   5.289   5.299   5.202
 7424TIP3   OH222216   1.786   0.514   4.706
 7424TIP3    H122217   1.698   0.476   4.702
 7424TIP3    H222218   1.793   0.548   4.795
 7425TIP3   OH222219   1.746   1.688   4.097
 7425TIP3    H122220   1.767   1.671   4.189
 7425TIP3    H222221   1.778   1.777   4.081
 7426TIP3   OH222222   4.327   6.102   0.521
 7426TIP3    H122223   4.287   6.188   0.510
 7426TIP3    H222224   4.299   6.053   0.443
 7427TIP3   OH222225   5.423   4.484   0.729
 7427TIP3    H122226   5.485   4.547   0.693
 7427TIP3    H222227   5.355   4.538   0.770
 7428TIP3   OH222228   5.452   5.106   2.489
 7428TIP3    H122229   5.418   5.153   2.413
 7428TIP3    H222230   5.375   5.063   2.526
 7429TIP3   OH222231   4.840   5.757   0.310
 7429TIP3    H122232   4.913   5.771   0.251
 7429TIP3    H222233   4.802   5.844   0.323
 7430TIP3   OH222234   4.460   2.037   2.567
 7430TIP3    H122235   4.373   2.074   2.554
 7430TIP3    H222236   4.444   1.956   2.616
 7431TIP3   OH222237   7.590   2.073   0.156
 7431TIP3    H122238   7.555   2.125   0.228
 7431TIP3    H222239   7.681   2.103   0.147
 7432TIP3   OH222240   4.148   3.013   0.966
 7432TIP3    H122241   4.081   2.949   0.939
 7432TIP3    H222242   4.119   3.095   0.927
 7433TIP3   OH222243   7.638   1.371   3.358
 7433TIP3    H122244   7.566   1.311   3.339
 7433TIP3    H222245   7.635   1.383   3.453
 7434TIP3   OH222246   0.610   7.275   5.127
 7434TIP3    H122247   0.638   7.335   5.195
 7434TIP3    H222248   0.535   7.318   5.086
 7435TIP3   OH222249   1.141   4.952   4.913
 7435TIP3    H122250   1.135   5.036   4.867
 7435TIP3    H222251   1.050   4.926   4.928
 7436TIP3   OH222252   2.639   0.355   5.085
 7436TIP3    H122253   2.568   0.338   5.023
 7436TIP3    H222254   2.719   0.345   5.034
 7437TIP3   OH222255   3.523   5.518   5.815
 7437TIP3    H122256   3.597   5.540   5.759
 7437TIP3    H222257   3.545   5.555   5.901
 7438TIP3   OH222258   2.569   2.894   5.246
 7438TIP3    H122259   2.497   2.834   5.227
 7438TIP3    H222260   2.597   2.871   5.334
 7439TIP3   OH222261   1.228   7.185   0.603
 7439TIP3    H122262   1.269   7.099   0.593
 7439TIP3    H222263   1.199   7.188   0.694
 7440TIP3   OH222264   3.367   6.621   4.904
 7440TIP3    H122265   3.302   6.678   4.863
 7440TIP3    H222266   3.438   6.615   4.839
 7441TIP3   OH222267   5.239   4.543   2.477
 7441TIP3    H122268   5.247   4.447   2.480
 7441TIP3    H222269   5.226   4.563   2.385
 7442TIP3   OH222270   1.820   3.253   2.656
 7442TIP3    H122271   1.742   3.292   2.694
 7442TIP3    H222272   1.790   3.211   2.575
 7443TIP3   OH222273   1.254   3.796   3.355
 7443TIP3    H122274   1.317   3.729   3.329
 7443TIP3    H222275   1.188   3.796   3.285
 7444TIP3   OH222276   3.848   2.801   2.017
 7444TIP3    H122277   3.843   2.728   2.079
 7444TIP3    H222278   3.881   2.762   1.937
 7445TIP3   OH222279   3.237   0.994   2.030
 7445TIP3    H122280   3.305   1.041   1.982
 7445TIP3    H222281   3.236   1.036   2.116
 7446TIP3   OH222282   8.176   0.827   3.627
 7446TIP3    H122283   8.105   0.770   3.602
 7446TIP3    H222284   8.256   0.779   3.602
 7447TIP3   OH222285   2.261   4.988   2.394
 7447TIP3    H122286   2.330   5.028   2.342
 7447TIP3    H222287   2.306   4.930   2.455
 7448TIP3   OH222288   7.059   5.169   4.578
 7448TIP3    H122289   7.027   5.114   4.649
 7448TIP3    H222290   7.018   5.134   4.499
 7449TIP3   OH222291   4.695   5.604   0.028
 7449TIP3    H122292   4.786   5.595   0.056
 7449TIP3    H222293   4.695   5.676  -0.034
 7450TIP3   OH222294   4.164   1.005   3.897
 7450TIP3    H122295   4.195   1.076   3.840
 7450TIP3    H222296   4.076   0.984   3.864
 7451TIP3   OH222297   2.379   2.866   6.644
 7451TIP3    H122298   2.339   2.780   6.659
 7451TIP3    H222299   2.418   2.859   6.556
 7452TIP3   OH222300   5.316   3.880   1.312
 7452TIP3    H122301   5.248   3.812   1.314
 7452TIP3    H222302   5.268   3.960   1.288
 7453TIP3   OH222303   1.168   6.734   3.283
 7453TIP3    H122304   1.198   6.647   3.311
 7453TIP3    H222305   1.093   6.716   3.226
 7454TIP3   OH222306   4.467   2.969   1.352
 7454TIP3    H122307   4.390   2.966   1.408
 7454TIP3    H222308   4.468   3.059   1.317
 7455TIP3   OH222309   0.032   1.012   2.593
 7455TIP3    H122310   0.043   0.917   2.586
 7455TIP3    H222311  -0.053   1.029   2.553
 7456TIP3   OH222312   7.735   0.600   4.832
 7456TIP3    H122313   7.738   0.532   4.900
 7456TIP3    H222314   7.642   0.612   4.815
 7457TIP3   OH222315   4.205   5.888   5.273
 7457TIP3    H122316   4.186   5.869   5.365
 7457TIP3    H222317   4.120   5.907   5.234
 7458TIP3   OH222318   2.952   1.906   2.919
 7458TIP3    H122319   3.020   1.945   2.973
 7458TIP3    H222320   2.892   1.979   2.900
 7459TIP3   OH222321   5.450   3.273   2.512
 7459TIP3    H122322   5.527   3.313   2.552
 7459TIP3    H222323   5.386   3.344   2.505
 7460TIP3   OH222324   5.447   2.043   2.940
 7460TIP3    H122325   5.488   1.987   2.874
 7460TIP3    H222326   5.479   2.131   2.918
 7461TIP3   OH222327   1.692   3.570   2.560
 7461TIP3    H122328   1.775   3.603   2.525
 7461TIP3    H222329   1.708   3.562   2.654
 7462TIP3   OH222330   1.928   4.374   4.788
 7462TIP3    H122331   1.975   4.451   4.818
 7462TIP3    H222332   1.861   4.408   4.728
 7463TIP3   OH222333   6.048   1.875   1.092
 7463TIP3    H122334   6.027   1.784   1.110
 7463TIP3    H222335   5.970   1.910   1.050
 7464TIP3   OH222336   6.086   1.085   5.808
 7464TIP3    H122337   6.064   1.167   5.763
 7464TIP3    H222338   6.075   1.105   5.901
 7465TIP3   OH222339   2.315   1.450   0.391
 7465TIP3    H122340   2.357   1.378   0.346
 7465TIP3    H222341   2.236   1.467   0.340
 7466TIP3   OH222342   2.170   5.776   4.378
 7466TIP3    H122343   2.262   5.799   4.369
 7466TIP3    H222344   2.125   5.829   4.313
 7467TIP3   OH222345   7.555   2.602   3.400
 7467TIP3    H122346   7.545   2.692   3.368
 7467TIP3    H222347   7.466   2.566   3.399
 7468TIP3   OH222348   5.449   1.342   1.851
 7468TIP3    H122349   5.467   1.357   1.944
 7468TIP3    H222350   5.508   1.403   1.806
 7469TIP3   OH222351   7.203   2.662   0.885
 7469TIP3    H122352   7.233   2.673   0.795
 7469TIP3    H222353   7.274   2.614   0.928
 7470TIP3   OH222354   1.657   6.789   1.624
 7470TIP3    H122355   1.674   6.883   1.624
 7470TIP3    H222356   1.603   6.774   1.546
 7471TIP3   OH222357   0.319   6.853   5.582
 7471TIP3    H122358   0.387   6.893   5.637
 7471TIP3    H222359   0.368   6.799   5.520
 7472TIP3   OH222360   0.716   4.255   4.286
 7472TIP3    H122361   0.685   4.259   4.377
 7472TIP3    H222362   0.662   4.318   4.239
 7473TIP3   OH222363   1.345   2.945   0.584
 7473TIP3    H122364   1.426   2.922   0.630
 7473TIP3    H222365   1.330   3.037   0.606
 7474TIP3   OH222366   8.267   7.405   5.395
 7474TIP3    H122367   8.223   7.468   5.338
 7474TIP3    H222368   8.294   7.334   5.338
 7475TIP3   OH222369   4.478   3.999   3.913
 7475TIP3    H122370   4.399   3.945   3.914
 7475TIP3    H222371   4.451   4.080   3.870
 7476TIP3   OH222372   0.655   4.687   4.241
 7476TIP3    H122373   0.639   4.601   4.201
 7476TIP3    H222374   0.668   4.746   4.166
 7477TIP3   OH222375   6.519   2.113   3.293
 7477TIP3    H122376   6.570   2.181   3.337
 7477TIP3    H222377   6.433   2.117   3.335
 7478TIP3   OH222378   6.445   2.889   6.485
 7478TIP3    H122379   6.418   2.956   6.548
 7478TIP3    H222380   6.389   2.904   6.409
 7479TIP3   OH222381   0.687   5.955   0.055
 7479TIP3    H122382   0.688   5.871   0.100
 7479TIP3    H222383   0.595   5.971   0.034
 7480TIP3   OH222384   1.734   5.808   4.558
 7480TIP3    H122385   1.714   5.844   4.472
 7480TIP3    H222386   1.713   5.878   4.620
 7481TIP3   OH222387   1.654   6.287   0.484
 7481TIP3    H122388   1.626   6.360   0.428
 7481TIP3    H222389   1.635   6.317   0.573
 7482TIP3   OH222390   4.539   3.794   3.368
 7482TIP3    H122391   4.462   3.828   3.413
 7482TIP3    H222392   4.602   3.774   3.438
 7483TIP3   OH222393   4.866   3.924   3.199
 7483TIP3    H122394   4.857   3.839   3.243
 7483TIP3    H222395   4.865   3.903   3.106
 7484TIP3   OH222396   2.957   6.605   0.411
 7484TIP3    H122397   3.002   6.687   0.390
 7484TIP3    H222398   3.006   6.570   0.486
 7485TIP3   OH222399   6.070   1.359   5.719
 7485TIP3    H122400   6.010   1.423   5.757
 7485TIP3    H222401   6.144   1.410   5.686
 7486TIP3   OH222402   2.866   7.785   3.938
 7486TIP3    H122403   2.887   7.694   3.914
 7486TIP3    H222404   2.935   7.837   3.897
 7487TIP3   OH222405   0.900   6.777   1.439
 7487TIP3    H122406   0.928   6.694   1.401
 7487TIP3    H222407   0.971   6.838   1.419
 7488TIP3   OH222408   1.909   5.435   0.714
 7488TIP3    H122409   1.857   5.385   0.651
 7488TIP3    H222410   1.965   5.369   0.756
 7489TIP3   OH222411   2.793   5.125   4.119
 7489TIP3    H122412   2.789   5.054   4.056
 7489TIP3    H222413   2.859   5.097   4.182
 7490TIP3   OH222414   5.916   3.849   0.140
 7490TIP3    H122415   5.986   3.830   0.202
 7490TIP3    H222416   5.854   3.777   0.152
 7491TIP3   OH222417   7.634   4.397   5.138
 7491TIP3    H122418   7.728   4.380   5.123
 7491TIP3    H222419   7.615   4.353   5.221
 7492TIP3   OH222420   5.534   6.128   6.012
 7492TIP3    H122421   5.539   6.136   6.108
 7492TIP3    H222422   5.510   6.216   5.982
 7493TIP3   OH222423   7.644   4.274   2.913
 7493TIP3    H122424   7.708   4.262   2.842
 7493TIP3    H222425   7.647   4.367   2.933
 7494TIP3   OH222426   3.766   7.791   3.765
 7494TIP3    H122427   3.730   7.704   3.779
 7494TIP3    H222428   3.722   7.822   3.686
 7495TIP3   OH222429   7.566   3.262   3.516
 7495TIP3    H122430   7.547   3.331   3.579
 7495TIP3    H222431   7.516   3.286   3.438
 7496TIP3   OH222432   5.283   2.096   4.172
 7496TIP3    H122433   5.248   2.038   4.239
 7496TIP3    H222434   5.344   2.153   4.219
 7497TIP3   OH222435   6.339   6.044   1.694
 7497TIP3    H122436   6.251   6.028   1.659
 7497TIP3    H222437   6.326   6.048   1.789
 7498TIP3   OH222438   2.848   4.980   0.317
 7498TIP3    H122439   2.909   4.910   0.293
 7498TIP3    H222440   2.840   4.974   0.412
 7499TIP3   OH222441   7.123   1.254   6.490
 7499TIP3    H122442   7.163   1.217   6.568
 7499TIP3    H222443   7.030   1.233   6.499
 7500TIP3   OH222444   0.693   6.640   3.763
 7500TIP3    H122445   0.732   6.605   3.682
 7500TIP3    H222446   0.742   6.721   3.780
 7501TIP3   OH222447   1.572   4.659   3.172
 7501TIP3    H122448   1.596   4.607   3.249
 7501TIP3    H222449   1.480   4.680   3.184
 7502TIP3   OH222450   6.718   7.098   6.698
 7502TIP3    H122451   6.698   7.133   6.785
 7502TIP3    H222452   6.813   7.085   6.698
 7503TIP3   OH222453   2.664   6.312   2.310
 7503TIP3    H122454   2.703   6.239   2.262
 7503TIP3    H222455   2.585   6.275   2.350
 7504TIP3   OH222456   2.415   4.481   0.756
 7504TIP3    H122457   2.427   4.520   0.842
 7504TIP3    H222458   2.499   4.491   0.712
 7505TIP3   OH222459   6.656   0.434   1.265
 7505TIP3    H122460   6.645   0.529   1.274
 7505TIP3    H222461   6.642   0.399   1.353
 7506TIP3   OH222462   1.809   3.698   5.084
 7506TIP3    H122463   1.814   3.746   5.167
 7506TIP3    H222464   1.735   3.737   5.039
 7507TIP3   OH222465   7.847   7.076   5.672
 7507TIP3    H122466   7.812   7.142   5.613
 7507TIP3    H222467   7.806   7.095   5.756
 7508TIP3   OH222468   0.279   3.360   4.486
 7508TIP3    H122469   0.312   3.438   4.440
 7508TIP3    H222470   0.184   3.364   4.476
 7509TIP3   OH222471   5.585   2.051   0.799
 7509TIP3    H122472   5.545   2.124   0.751
 7509TIP3    H222473   5.564   2.069   0.891
 7510TIP3   OH222474   7.511   0.520   3.144
 7510TIP3    H122475   7.583   0.574   3.177
 7510TIP3    H222476   7.521   0.436   3.189
 7511TIP3   OH222477   1.386   6.659   4.241
 7511TIP3    H122478   1.369   6.599   4.168
 7511TIP3    H222479   1.395   6.602   4.318
 7512TIP3   OH222480   8.248   1.486   3.634
 7512TIP3    H122481   8.181   1.550   3.659
 7512TIP3    H222482   8.217   1.449   3.552
 7513TIP3   OH222483   2.373   4.843   5.775
 7513TIP3    H122484   2.337   4.931   5.783
 7513TIP3    H222485   2.316   4.799   5.712
 7514TIP3   OH222486   4.000   0.892   2.561
 7514TIP3    H122487   3.913   0.878   2.523
 7514TIP3    H222488   3.988   0.876   2.654
 7515TIP3   OH222489   6.130   6.935   5.729
 7515TIP3    H122490   6.212   6.973   5.761
 7515TIP3    H222491   6.070   6.944   5.803
 7516TIP3   OH222492   5.452   7.452   5.288
 7516TIP3    H122493   5.439   7.434   5.195
 7516TIP3    H222494   5.533   7.407   5.311
 7517TIP3   OH222495   4.704   4.096   4.915
 7517TIP3    H122496   4.748   4.114   4.997
 7517TIP3    H222497   4.705   4.000   4.907
 7518TIP3   OH222498   4.065   1.596   1.345
 7518TIP3    H122499   4.098   1.510   1.373
 7518TIP3    H222500   4.045   1.641   1.427
 7519TIP3   OH222501   3.535   3.630   3.983
 7519TIP3    H122502   3.598   3.607   4.051
 7519TIP3    H222503   3.588   3.675   3.916
 7520TIP3   OH222504   1.198   5.162   6.269
 7520TIP3    H122505   1.118   5.169   6.321
 7520TIP3    H222506   1.182   5.217   6.193
 7521TIP3   OH222507   8.103   0.040   2.458
 7521TIP3    H122508   8.174  -0.015   2.424
 7521TIP3    H222509   8.137   0.129   2.452
 7522TIP3   OH222510   3.885   3.746   2.152
 7522TIP3    H122511   3.872   3.780   2.240
 7522TIP3    H222512   3.940   3.812   2.108
 7523TIP3   OH222513   3.258   1.597   0.716
 7523TIP3    H122514   3.294   1.534   0.654
 7523TIP3    H222515   3.213   1.543   0.782
 7524TIP3   OH222516   0.357   4.390   3.304
 7524TIP3    H122517   0.414   4.323   3.266
 7524TIP3    H222518   0.393   4.405   3.392
 7525TIP3   OH222519   5.371   0.437   2.759
 7525TIP3    H122520   5.362   0.471   2.669
 7525TIP3    H222521   5.429   0.362   2.750
 7526TIP3   OH222522   7.581   7.021   3.508
 7526TIP3    H122523   7.626   7.030   3.425
 7526TIP3    H222524   7.488   7.017   3.485
 7527TIP3   OH222525   0.026   2.520   1.477
 7527TIP3    H122526   0.011   2.570   1.397
 7527TIP3    H222527   0.121   2.502   1.477
 7528TIP3   OH222528   5.127   4.497   0.256
 7528TIP3    H122529   5.060   4.483   0.322
 7528TIP3    H222530   5.204   4.449   0.287
 7529TIP3   OH222531   4.216   2.797   5.739
 7529TIP3    H122532   4.213   2.803   5.644
 7529TIP3    H222533   4.148   2.733   5.761
 7530TIP3   OH222534   1.047   4.489   1.514
 7530TIP3    H122535   0.962   4.498   1.556
 7530TIP3    H222536   1.102   4.447   1.580
 7531TIP3   OH222537   1.723   4.604   0.820
 7531TIP3    H122538   1.759   4.687   0.788
 7531TIP3    H222539   1.705   4.619   0.913
 7532TIP3   OH222540   4.333   2.899   4.852
 7532TIP3    H122541   4.308   2.972   4.795
 7532TIP3    H222542   4.402   2.853   4.804
 7533TIP3   OH222543   7.901   2.122   1.806
 7533TIP3    H122544   7.906   2.216   1.788
 7533TIP3    H222545   7.824   2.112   1.862
 7534TIP3   OH222546   2.200   2.813  -0.002
 7534TIP3    H122547   2.119   2.766   0.019
 7534TIP3    H222548   2.227   2.853   0.081
 7535TIP3   OH222549   6.569   4.107   0.452
 7535TIP3    H122550   6.627   4.031   0.461
 7535TIP3    H222551   6.592   4.164   0.526
 7536TIP3   OH222552   3.536   7.139   0.071
 7536TIP3    H122553   3.576   7.208   0.017
 7536TIP3    H222554   3.493   7.186   0.142
 7537TIP3   OH222555   7.497   3.397   5.184
 7537TIP3    H122556   7.407   3.431   5.180
 7537TIP3    H222557   7.496   3.338   5.260
 7538TIP3   OH222558   8.108   7.371   0.426
 7538TIP3    H122559   8.160   7.315   0.485
 7538TIP3    H222560   8.041   7.312   0.391
 7539TIP3   OH222561   0.392   0.568   2.418
 7539TIP3    H122562   0.474   0.518   2.420
 7539TIP3    H222563   0.342   0.527   2.348
 7540TIP3   OH222564   0.252   1.742   1.816
 7540TIP3    H122565   0.262   1.778   1.904
 7540TIP3    H222566   0.336   1.700   1.797
 7541TIP3   OH222567   1.974   1.664   1.791
 7541TIP3    H122568   2.010   1.748   1.763
 7541TIP3    H222569   1.950   1.620   1.710
 7542TIP3   OH222570   6.854   1.686   1.176
 7542TIP3    H122571   6.915   1.644   1.115
 7542TIP3    H222572   6.788   1.619   1.193
 7543TIP3   OH222573   4.002   1.680   6.750
 7543TIP3    H122574   4.022   1.629   6.672
 7543TIP3    H222575   4.003   1.771   6.721
 7544TIP3   OH222576   2.555   2.137   3.430
 7544TIP3    H122577   2.523   2.134   3.340
 7544TIP3    H222578   2.500   2.075   3.477
 7545TIP3   OH222579   5.419   4.211   3.279
 7545TIP3    H122580   5.334   4.168   3.268
 7545TIP3    H222581   5.438   4.204   3.372
 7546TIP3   OH222582   5.119   3.060   4.499
 7546TIP3    H122583   5.039   3.066   4.446
 7546TIP3    H222584   5.136   3.149   4.527
 7547TIP3   OH222585   1.538   7.405   0.795
 7547TIP3    H122586   1.491   7.488   0.786
 7547TIP3    H222587   1.494   7.360   0.867
 7548TIP3   OH222588   2.892   3.064   3.495
 7548TIP3    H122589   2.852   2.985   3.459
 7548TIP3    H222590   2.897   3.047   3.589
 7549TIP3   OH222591   7.064   1.297   4.768
 7549TIP3    H122592   7.031   1.385   4.788
 7549TIP3    H222593   7.032   1.243   4.840
 7550TIP3   OH222594   1.316   1.009   6.684
 7550TIP3    H122595   1.397   0.958   6.697
 7550TIP3    H222596   1.328   1.051   6.600
 7551TIP3   OH222597   6.274   7.058   0.105
 7551TIP3    H122598   6.361   7.097   0.111
 7551TIP3    H222599   6.284   6.972   0.148
 7552TIP3   OH222600   0.604   2.779   3.606
 7552TIP3    H122601   0.619   2.697   3.559
 7552TIP3    H222602   0.604   2.846   3.538
 7553TIP3   OH222603   3.166   6.618   1.672
 7553TIP3    H122604   3.119   6.559   1.731
 7553TIP3    H222605   3.217   6.674   1.730
 7554TIP3   OH222606   5.235   0.913   3.477
 7554TIP3    H122607   5.279   0.890   3.395
 7554TIP3    H222608   5.284   0.988   3.511
 7555TIP3   OH222609   1.647   7.484   3.464
 7555TIP3    H122610   1.682   7.553   3.520
 7555TIP3    H222611   1.556   7.474   3.493
 7556TIP3   OH222612   7.698   0.351   4.992
 7556TIP3    H122613   7.707   0.283   5.058
 7556TIP3    H222614   7.722   0.307   4.910
 7557TIP3   OH222615   7.764   5.386   2.846
 7557TIP3    H122616   7.832   5.360   2.783
 7557TIP3    H222617   7.785   5.337   2.926
 7558TIP3   OH222618   1.525   7.157   4.600
 7558TIP3    H122619   1.519   7.218   4.674
 7558TIP3    H222620   1.475   7.198   4.530
 7559TIP3   OH222621   0.068   1.812   0.739
 7559TIP3    H122622  -0.027   1.796   0.748
 7559TIP3    H222623   0.074   1.898   0.699
 7560TIP3   OH222624   5.629   7.402   0.159
 7560TIP3    H122625   5.699   7.353   0.116
 7560TIP3    H222626   5.666   7.489   0.173
 7561TIP3   OH222627   5.281   3.678   2.104
 7561TIP3    H122628   5.345   3.748   2.096
 7561TIP3    H222629   5.200   3.723   2.127
 7562TIP3   OH222630   1.925   2.730   1.746
 7562TIP3    H122631   2.015   2.762   1.736
 7562TIP3    H222632   1.879   2.802   1.790
 7563TIP3   OH222633   7.642   5.744   0.388
 7563TIP3    H122634   7.643   5.806   0.314
 7563TIP3    H222635   7.559   5.762   0.433
 7564TIP3   OH222636   0.391   5.714   1.463
 7564TIP3    H122637   0.442   5.655   1.519
 7564TIP3    H222638   0.311   5.665   1.444
 7565TIP3   OH222639   4.526   6.934   5.583
 7565TIP3    H122640   4.522   6.914   5.489
 7565TIP3    H222641   4.466   7.008   5.594
 7566TIP3   OH222642   2.301   1.902   3.734
 7566TIP3    H122643   2.335   1.921   3.646
 7566TIP3    H222644   2.280   1.809   3.732
 7567TIP3   OH222645   7.493   5.590   4.390
 7567TIP3    H122646   7.587   5.607   4.402
 7567TIP3    H222647   7.455   5.605   4.477
 7568TIP3   OH222648   5.219   1.665   2.373
 7568TIP3    H122649   5.191   1.740   2.426
 7568TIP3    H222650   5.201   1.692   2.282
 7569TIP3   OH222651   4.287   1.560   3.816
 7569TIP3    H122652   4.249   1.473   3.829
 7569TIP3    H222653   4.378   1.551   3.847
 7570TIP3   OH222654   1.254   4.983   4.621
 7570TIP3    H122655   1.171   5.015   4.586
 7570TIP3    H222656   1.309   5.062   4.626
 7571TIP3   OH222657   8.075   4.603   3.946
 7571TIP3    H122658   8.155   4.652   3.967
 7571TIP3    H222659   8.009   4.638   4.005
 7572TIP3   OH222660   8.228   1.949   2.126
 7572TIP3    H122661   8.211   1.923   2.036
 7572TIP3    H222662   8.318   1.982   2.125
 7573TIP3   OH222663   1.196   5.247   0.303
 7573TIP3    H122664   1.120   5.211   0.349
 7573TIP3    H222665   1.159   5.314   0.246
 7574TIP3   OH222666   4.290   3.875   6.656
 7574TIP3    H122667   4.272   3.781   6.649
 7574TIP3    H222668   4.278   3.908   6.566
 7575TIP3   OH222669   3.616   7.235   4.534
 7575TIP3    H122670   3.622   7.279   4.450
 7575TIP3    H222671   3.671   7.157   4.525
 7576TIP3   OH222672   1.707   3.929   0.602
 7576TIP3    H122673   1.747   3.867   0.540
 7576TIP3    H222674   1.765   3.926   0.679
 7577TIP3   OH222675   8.140   1.159   1.745
 7577TIP3    H122676   8.187   1.239   1.722
 7577TIP3    H222677   8.208   1.096   1.767
 7578TIP3   OH222678   5.405   5.892   6.700
 7578TIP3    H122679   5.349   5.816   6.686
 7578TIP3    H222680   5.458   5.897   6.620
 7579TIP3   OH222681   3.110   6.117   1.637
 7579TIP3    H122682   3.057   6.075   1.705
 7579TIP3    H222683   3.047   6.171   1.588
 7580TIP3   OH222684   0.097   7.817   0.367
 7580TIP3    H122685   0.180   7.789   0.327
 7580TIP3    H222686   0.065   7.739   0.413
 7581TIP3   OH222687   6.962   1.942   1.195
 7581TIP3    H122688   6.900   1.868   1.190
 7581TIP3    H222689   6.917   2.007   1.248
 7582TIP3   OH222690   8.171   7.242   4.865
 7582TIP3    H122691   8.210   7.326   4.841
 7582TIP3    H222692   8.244   7.191   4.900
 7583TIP3   OH222693   2.338   7.565   4.088
 7583TIP3    H122694   2.345   7.489   4.030
 7583TIP3    H222695   2.412   7.556   4.148
 7584TIP3   OH222696   5.451   4.324   3.019
 7584TIP3    H122697   5.504   4.294   3.092
 7584TIP3    H222698   5.362   4.330   3.054
 7585TIP3   OH222699   3.832   2.902   3.695
 7585TIP3    H122700   3.816   2.995   3.676
 7585TIP3    H222701   3.848   2.862   3.609
 7586TIP3   OH222702   1.205   6.083   5.496
 7586TIP3    H122703   1.289   6.128   5.509
 7586TIP3    H222704   1.217   5.999   5.540
 7587TIP3   OH222705   1.128   1.477   5.687
 7587TIP3    H122706   1.165   1.495   5.601
 7587TIP3    H222707   1.037   1.452   5.669
 7588TIP3   OH222708   1.151   1.027   3.787
 7588TIP3    H122709   1.213   0.966   3.747
 7588TIP3    H222710   1.144   1.099   3.725
 7589TIP3   OH222711   7.106   4.339   0.265
 7589TIP3    H122712   7.031   4.320   0.322
 7589TIP3    H222713   7.155   4.257   0.261
 7590TIP3   OH222714   5.623   2.881   3.866
 7590TIP3    H122715   5.611   2.976   3.871
 7590TIP3    H222716   5.536   2.845   3.878
 7591TIP3   OH222717   0.149   5.534   1.386
 7591TIP3    H122718   0.111   5.621   1.385
 7591TIP3    H222719   0.099   5.487   1.453
 7592TIP3   OH222720   3.338   4.330   0.125
 7592TIP3    H122721   3.416   4.367   0.167
 7592TIP3    H222722   3.368   4.305   0.037
 7593TIP3   OH222723   2.481   7.305   2.083
 7593TIP3    H122724   2.479   7.282   2.176
 7593TIP3    H222725   2.573   7.301   2.059
 7594TIP3   OH222726   5.968   1.288   3.745
 7594TIP3    H122727   6.038   1.223   3.738
 7594TIP3    H222728   5.989   1.353   3.678
 7595TIP3   OH222729   5.219   0.839   4.753
 7595TIP3    H122730   5.219   0.933   4.771
 7595TIP3    H222731   5.248   0.799   4.835
 7596TIP3   OH222732   6.135   0.290   3.760
 7596TIP3    H122733   6.143   0.217   3.699
 7596TIP3    H222734   6.042   0.311   3.761
 7597TIP3   OH222735   7.726   0.685   3.352
 7597TIP3    H122736   7.752   0.620   3.287
 7597TIP3    H222737   7.719   0.635   3.434
 7598TIP3   OH222738   4.259   2.147   3.453
 7598TIP3    H122739   4.221   2.185   3.375
 7598TIP3    H222740   4.305   2.069   3.422
 7599TIP3   OH222741   5.982   5.929   4.886
 7599TIP3    H122742   5.903   5.980   4.901
 7599TIP3    H222743   6.050   5.994   4.868
 7600TIP3   OH222744   6.935   3.426   2.739
 7600TIP3    H122745   6.889   3.397   2.817
 7600TIP3    H222746   6.997   3.492   2.770
 7601TIP3   OH222747   3.505   3.145   2.723
 7601TIP3    H122748   3.557   3.079   2.768
 7601TIP3    H222749   3.547   3.154   2.637
 7602TIP3   OH222750   4.493   4.337   4.875
 7602TIP3    H122751   4.497   4.379   4.789
 7602TIP3    H222752   4.541   4.255   4.864
 7603TIP3   OH222753   0.110   0.482   4.399
 7603TIP3    H122754   0.174   0.444   4.339
 7603TIP3    H222755   0.055   0.408   4.425
 7604TIP3   OH222756   2.833   0.308   2.568
 7604TIP3    H122757   2.924   0.317   2.538
 7604TIP3    H222758   2.813   0.392   2.610
 7605TIP3   OH222759   4.852   5.230   4.275
 7605TIP3    H122760   4.774   5.270   4.237
 7605TIP3    H222761   4.836   5.232   4.370
 7606TIP3   OH222762   5.942   2.001   1.464
 7606TIP3    H122763   5.869   2.059   1.486
 7606TIP3    H222764   5.932   1.927   1.524
 7607TIP3   OH222765   6.251   0.666   0.265
 7607TIP3    H122766   6.281   0.617   0.188
 7607TIP3    H222767   6.209   0.744   0.229
 7608TIP3   OH222768   1.934   3.305   5.274
 7608TIP3    H122769   1.883   3.278   5.350
 7608TIP3    H222770   1.988   3.377   5.306
 7609TIP3   OH222771   0.771   5.111   5.369
 7609TIP3    H122772   0.761   5.197   5.327
 7609TIP3    H222773   0.808   5.055   5.300
 7610TIP3   OH222774   5.685   4.225   3.880
 7610TIP3    H122775   5.645   4.307   3.849
 7610TIP3    H222776   5.771   4.251   3.913
 7611TIP3   OH222777   4.220   3.517   4.452
 7611TIP3    H122778   4.230   3.433   4.407
 7611TIP3    H222779   4.309   3.544   4.472
 7612TIP3   OH222780   1.353   6.965   4.041
 7612TIP3    H122781   1.395   6.895   3.990
 7612TIP3    H222782   1.358   7.042   3.984
 7613TIP3   OH222783   0.571   0.663   3.480
 7613TIP3    H122784   0.477   0.667   3.463
 7613TIP3    H222785   0.606   0.745   3.444
 7614TIP3   OH222786   3.131   0.048   4.929
 7614TIP3    H122787   3.226   0.047   4.916
 7614TIP3    H222788   3.119   0.094   5.012
 7615TIP3   OH222789   6.029   0.630   3.434
 7615TIP3    H122790   6.119   0.608   3.456
 7615TIP3    H222791   6.023   0.724   3.447
 7616TIP3   OH222792   1.295   6.262   1.226
 7616TIP3    H122793   1.357   6.226   1.290
 7616TIP3    H222794   1.226   6.300   1.280
 7617TIP3   OH222795   4.830   4.036   6.547
 7617TIP3    H122796   4.775   3.958   6.554
 7617TIP3    H222797   4.784   4.093   6.485
 7618TIP3   OH222798   2.067   3.160   2.422
 7618TIP3    H122799   2.044   3.086   2.365
 7618TIP3    H222800   2.162   3.152   2.433
 7619TIP3   OH222801   4.793   5.333   5.761
 7619TIP3    H122802   4.823   5.255   5.715
 7619TIP3    H222803   4.826   5.406   5.709
 7620TIP3   OH222804   3.213   1.880   1.596
 7620TIP3    H122805   3.256   1.837   1.523
 7620TIP3    H222806   3.197   1.810   1.659
 7621TIP3   OH222807   7.032   2.603   3.178
 7621TIP3    H122808   6.957   2.553   3.146
 7621TIP3    H222809   7.057   2.658   3.105
 7622TIP3   OH222810   0.595   5.305   2.411
 7622TIP3    H122811   0.582   5.228   2.466
 7622TIP3    H222812   0.515   5.310   2.358
 7623TIP3   OH222813   4.250   6.105   6.031
 7623TIP3    H122814   4.218   6.081   6.117
 7623TIP3    H222815   4.298   6.187   6.045
 7624TIP3   OH222816   6.787   3.521   5.720
 7624TIP3    H122817   6.721   3.487   5.779
 7624TIP3    H222818   6.758   3.609   5.698
 7625TIP3   OH222819   6.208   3.880   2.301
 7625TIP3    H122820   6.196   3.963   2.256
 7625TIP3    H222821   6.120   3.844   2.310
 7626TIP3   OH222822   0.297   1.885   4.384
 7626TIP3    H122823   0.233   1.953   4.405
 7626TIP3    H222824   0.377   1.933   4.363
 7627TIP3   OH222825   7.253   5.530   1.813
 7627TIP3    H122826   7.167   5.487   1.810
 7627TIP3    H222827   7.316   5.458   1.815
 7628TIP3   OH222828   2.582   2.020   0.551
 7628TIP3    H122829   2.602   1.962   0.478
 7628TIP3    H222830   2.613   2.106   0.521
 7629TIP3   OH222831   7.148   5.061   3.632
 7629TIP3    H122832   7.143   4.967   3.649
 7629TIP3    H222833   7.193   5.097   3.708
 7630TIP3   OH222834   4.882   7.383   5.187
 7630TIP3    H122835   4.867   7.291   5.164
 7630TIP3    H222836   4.843   7.392   5.274
 7631TIP3   OH222837   1.262   6.495   4.665
 7631TIP3    H122838   1.335   6.548   4.635
 7631TIP3    H222839   1.209   6.481   4.587
 7632TIP3   OH222840   8.208   0.377   1.892
 7632TIP3    H122841   8.117   0.395   1.870
 7632TIP3    H222842   8.258   0.414   1.819
 7633TIP3   OH222843   3.062   7.394   0.863
 7633TIP3    H122844   3.088   7.477   0.903
 7633TIP3    H222845   2.972   7.408   0.834
 7634TIP3   OH222846   6.431   1.370   2.137
 7634TIP3    H122847   6.383   1.449   2.160
 7634TIP3    H222848   6.510   1.373   2.192
 7635TIP3   OH222849   4.582   1.788   1.945
 7635TIP3    H122850   4.636   1.736   2.004
 7635TIP3    H222851   4.566   1.731   1.870
 7636TIP3   OH222852   4.684   1.798   1.606
 7636TIP3    H122853   4.747   1.738   1.646
 7636TIP3    H222854   4.629   1.742   1.551
 7637TIP3   OH222855   4.932   7.732   3.833
 7637TIP3    H122856   4.869   7.793   3.794
 7637TIP3    H222857   4.913   7.736   3.927
 7638TIP3   OH222858   4.628   7.077   4.728
 7638TIP3    H122859   4.717   7.074   4.693
 7638TIP3    H222860   4.632   7.024   4.808
 7639TIP3   OH222861   6.010   2.472   3.192
 7639TIP3    H122862   6.032   2.392   3.145
 7639TIP3    H222863   5.926   2.500   3.155
 7640TIP3   OH222864   4.980   2.169   6.067
 7640TIP3    H122865   5.005   2.247   6.018
 7640TIP3    H222866   5.025   2.097   6.022
 7641TIP3   OH222867   2.977   7.279   2.804
 7641TIP3    H122868   2.922   7.304   2.730
 7641TIP3    H222869   2.916   7.257   2.874
 7642TIP3   OH222870   7.700   3.956   1.450
 7642TIP3    H122871   7.716   3.875   1.498
 7642TIP3    H222872   7.701   4.024   1.517
 7643TIP3   OH222873   0.137   3.088   3.338
 7643TIP3    H122874   0.129   2.997   3.307
 7643TIP3    H222875   0.184   3.133   3.268
 7644TIP3   OH222876   6.697   3.057   6.067
 7644TIP3    H122877   6.704   3.150   6.047
 7644TIP3    H222878   6.767   3.041   6.130
 7645TIP3   OH222879   6.714   6.338   3.775
 7645TIP3    H122880   6.698   6.287   3.854
 7645TIP3    H222881   6.658   6.415   3.783
 7646TIP3   OH222882   2.180   1.382   3.335
 7646TIP3    H122883   2.196   1.389   3.429
 7646TIP3    H222884   2.261   1.344   3.299
 7647TIP3   OH222885   8.152   6.843   1.621
 7647TIP3    H122886   8.239   6.862   1.656
 7647TIP3    H222887   8.091   6.874   1.688
 7648TIP3   OH222888   2.221   6.465   1.780
 7648TIP3    H122889   2.170   6.492   1.704
 7648TIP3    H222890   2.308   6.445   1.745
 7649TIP3   OH222891   2.530   5.295   3.373
 7649TIP3    H122892   2.493   5.280   3.460
 7649TIP3    H222893   2.482   5.371   3.339
 7650TIP3   OH222894   0.301   4.209   5.525
 7650TIP3    H122895   0.262   4.124   5.546
 7650TIP3    H222896   0.249   4.273   5.574
 7651TIP3   OH222897   6.783   0.864   3.373
 7651TIP3    H122898   6.701   0.874   3.325
 7651TIP3    H222899   6.759   0.874   3.465
 7652TIP3   OH222900   6.390   4.679   1.462
 7652TIP3    H122901   6.374   4.762   1.417
 7652TIP3    H222902   6.386   4.702   1.555
 7653TIP3   OH222903   7.036   5.971   3.241
 7653TIP3    H122904   7.040   6.051   3.293
 7653TIP3    H222905   6.985   5.996   3.163
 7654TIP3   OH222906   5.356   7.099   6.442
 7654TIP3    H122907   5.390   7.105   6.531
 7654TIP3    H222908   5.280   7.042   6.449
 7655TIP3   OH222909   0.456   6.757   4.490
 7655TIP3    H122910   0.438   6.751   4.396
 7655TIP3    H222911   0.543   6.718   4.500
 7656TIP3   OH222912   2.596   6.996   4.322
 7656TIP3    H122913   2.532   6.940   4.365
 7656TIP3    H222914   2.649   6.936   4.270
 7657TIP3   OH222915   0.643   2.357   0.261
 7657TIP3    H122916   0.671   2.396   0.178
 7657TIP3    H222917   0.621   2.267   0.239
 7658TIP3   OH222918   2.393   6.258   6.131
 7658TIP3    H122919   2.351   6.218   6.055
 7658TIP3    H222920   2.336   6.236   6.205
 7659TIP3   OH222921   4.314   2.540   3.584
 7659TIP3    H122922   4.371   2.616   3.581
 7659TIP3    H222923   4.306   2.513   3.492
 7660TIP3   OH222924   6.357   5.985   5.107
 7660TIP3    H122925   6.338   5.999   5.200
 7660TIP3    H222926   6.437   6.035   5.092
 7661TIP3   OH222927   5.988   1.490   6.090
 7661TIP3    H122928   5.941   1.548   6.149
 7661TIP3    H222929   6.073   1.532   6.078
 7662TIP3   OH222930   5.959   1.177   3.324
 7662TIP3    H122931   6.051   1.205   3.320
 7662TIP3    H222932   5.911   1.256   3.347
 7663TIP3   OH222933   7.334   7.050   3.210
 7663TIP3    H122934   7.271   6.978   3.199
 7663TIP3    H222935   7.281   7.125   3.236
 7664TIP3   OH222936   1.598   3.007   4.631
 7664TIP3    H122937   1.510   3.031   4.659
 7664TIP3    H222938   1.654   3.040   4.701
 7665TIP3   OH222939   6.616   2.651   2.069
 7665TIP3    H122940   6.665   2.634   1.988
 7665TIP3    H222941   6.631   2.743   2.088
 7666TIP3   OH222942   7.464   4.209   0.281
 7666TIP3    H122943   7.390   4.152   0.261
 7666TIP3    H222944   7.426   4.297   0.284
 7667TIP3   OH222945   7.437   2.230   3.996
 7667TIP3    H122946   7.432   2.199   4.086
 7667TIP3    H222947   7.373   2.176   3.949
 7668TIP3   OH222948   8.094   7.574   1.595
 7668TIP3    H122949   8.079   7.668   1.597
 7668TIP3    H222950   8.007   7.537   1.576
 7669TIP3   OH222951   0.755   6.404   5.444
 7669TIP3    H122952   0.851   6.402   5.441
 7669TIP3    H222953   0.733   6.365   5.528
 7670TIP3   OH222954   3.737   0.647   4.212
 7670TIP3    H122955   3.797   0.713   4.247
 7670TIP3    H222956   3.662   0.697   4.181
 7671TIP3   OH222957   1.352   5.252   6.024
 7671TIP3    H122958   1.326   5.171   5.981
 7671TIP3    H222959   1.376   5.310   5.952
 7672TIP3   OH222960   2.748   0.144   0.131
 7672TIP3    H122961   2.811   0.101   0.188
 7672TIP3    H222962   2.677   0.172   0.189
 7673TIP3   OH222963   7.404   5.911   4.981
 7673TIP3    H122964   7.412   5.891   4.887
 7673TIP3    H222965   7.476   5.863   5.021
 7674TIP3   OH222966   7.856   4.342   5.847
 7674TIP3    H122967   7.844   4.404   5.918
 7674TIP3    H222968   7.917   4.385   5.787
 7675TIP3   OH222969   4.302   5.209   1.231
 7675TIP3    H122970   4.244   5.173   1.298
 7675TIP3    H222971   4.378   5.152   1.231
 7676TIP3   OH222972   4.392   5.009   0.254
 7676TIP3    H122973   4.457   5.008   0.324
 7676TIP3    H222974   4.369   5.101   0.243
 7677TIP3   OH222975   8.024   5.237   6.383
 7677TIP3    H122976   8.043   5.298   6.454
 7677TIP3    H222977   8.100   5.178   6.382
 7678TIP3   OH222978   8.200   7.678   5.475
 7678TIP3    H122979   8.162   7.648   5.392
 7678TIP3    H222980   8.179   7.609   5.538
 7679TIP3   OH222981   3.432   5.067   0.056
 7679TIP3    H122982   3.463   5.142   0.004
 7679TIP3    H222983   3.458   4.991   0.005
 7680TIP3   OH222984   0.725   7.115   4.767
 7680TIP3    H122985   0.768   7.035   4.735
 7680TIP3    H222986   0.755   7.123   4.858
 7681TIP3   OH222987   0.563   2.271   4.662
 7681TIP3    H122988   0.484   2.222   4.682
 7681TIP3    H222989   0.595   2.302   4.747
 7682TIP3   OH222990   3.583   0.306   2.088
 7682TIP3    H122991   3.593   0.399   2.069
 7682TIP3    H222992   3.621   0.262   2.012
 7683TIP3   OH222993   2.055   6.569   1.578
 7683TIP3    H122994   2.097   6.645   1.538
 7683TIP3    H222995   1.968   6.565   1.538
 7684TIP3   OH222996   3.505   1.021   0.608
 7684TIP3    H122997   3.540   1.037   0.696
 7684TIP3    H222998   3.441   1.091   0.595
 7685TIP3   OH222999   3.485   6.983   0.944
 7685TIP3    H123000   3.561   6.937   0.980
 7685TIP3    H223001   3.440   6.918   0.891
 7686TIP3   OH223002   1.338   5.634   3.042
 7686TIP3    H123003   1.402   5.661   3.108
 7686TIP3    H223004   1.255   5.627   3.091
 7687TIP3   OH223005   4.631   6.045   5.311
 7687TIP3    H123006   4.538   6.039   5.290
 7687TIP3    H223007   4.634   6.100   5.389
 7688TIP3   OH223008   7.705   6.715   5.719
 7688TIP3    H123009   7.800   6.704   5.718
 7688TIP3    H223010   7.674   6.655   5.651
 7689TIP3   OH223011   8.017   6.072   4.049
 7689TIP3    H123012   8.008   6.012   3.975
 7689TIP3    H223013   8.054   6.152   4.010
 7690TIP3   OH223014   1.252   5.439   4.029
 7690TIP3    H123015   1.256   5.442   4.125
 7690TIP3    H223016   1.341   5.418   4.002
 7691TIP3   OH223017   0.029   4.379   0.721
 7691TIP3    H123018   0.048   4.407   0.811
 7691TIP3    H223019   0.067   4.291   0.715
 7692TIP3   OH223020   7.031   6.710   2.984
 7692TIP3    H123021   6.951   6.697   2.932
 7692TIP3    H223022   7.060   6.799   2.962
 7693TIP3   OH223023   0.580   3.624   0.196
 7693TIP3    H123024   0.613   3.534   0.188
 7693TIP3    H223025   0.656   3.674   0.226
 7694TIP3   OH223026   2.766   3.068   1.589
 7694TIP3    H123027   2.792   3.156   1.565
 7694TIP3    H223028   2.710   3.079   1.666
 7695TIP3   OH223029   0.387   2.960   0.536
 7695TIP3    H123030   0.438   3.010   0.472
 7695TIP3    H223031   0.396   2.869   0.508
 7696TIP3   OH223032   6.421   0.708   5.496
 7696TIP3    H123033   6.391   0.717   5.586
 7696TIP3    H223034   6.423   0.798   5.463
 7697TIP3   OH223035   1.616   0.623   6.299
 7697TIP3    H123036   1.569   0.694   6.257
 7697TIP3    H223037   1.555   0.589   6.365
 7698TIP3   OH223038   5.044   4.392   1.935
 7698TIP3    H123039   4.988   4.401   2.012
 7698TIP3    H223040   5.056   4.481   1.904
 7699TIP3   OH223041   8.284   3.234   2.147
 7699TIP3    H123042   8.229   3.289   2.202
 7699TIP3    H223043   8.225   3.200   2.080
 7700TIP3   OH223044   0.680   6.423   6.373
 7700TIP3    H123045   0.719   6.366   6.440
 7700TIP3    H223046   0.587   6.403   6.377
 7701TIP3   OH223047   7.909   1.388   6.173
 7701TIP3    H123048   8.004   1.403   6.167
 7701TIP3    H223049   7.901   1.293   6.188
 7702TIP3   OH223050   7.695   0.714   0.583
 7702TIP3    H123051   7.639   0.637   0.573
 7702TIP3    H223052   7.762   0.703   0.516
 7703TIP3   OH223053   3.115   3.380   0.582
 7703TIP3    H123054   3.085   3.349   0.667
 7703TIP3    H223055   3.036   3.380   0.527
 7704TIP3   OH223056   6.854   2.445   5.955
 7704TIP3    H123057   6.798   2.391   5.899
 7704TIP3    H223058   6.942   2.412   5.939
 7705TIP3   OH223059   1.715   7.212   4.064
 7705TIP3    H123060   1.749   7.186   4.150
 7705TIP3    H223061   1.688   7.130   4.023
 7706TIP3   OH223062   4.351   4.109   6.786
 7706TIP3    H123063   4.269   4.126   6.834
 7706TIP3    H223064   4.334   4.029   6.737
 7707TIP3   OH223065   5.445   6.143   2.587
 7707TIP3    H123066   5.402   6.089   2.521
 7707TIP3    H223067   5.399   6.123   2.668
 7708TIP3   OH223068   2.322   0.674   3.308
 7708TIP3    H123069   2.387   0.708   3.246
 7708TIP3    H223070   2.255   0.742   3.312
 7709TIP3   OH223071   7.924   2.958   3.537
 7709TIP3    H123072   7.999   3.016   3.550
 7709TIP3    H223073   7.863   2.982   3.607
 7710TIP3   OH223074   0.158   4.110   3.317
 7710TIP3    H123075   0.237   4.122   3.369
 7710TIP3    H223076   0.180   4.144   3.231
 7711TIP3   OH223077   6.288   2.212   3.466
 7711TIP3    H123078   6.246   2.297   3.451
 7711TIP3    H223079   6.354   2.229   3.533
 7712TIP3   OH223080   0.879   1.587   4.888
 7712TIP3    H123081   0.974   1.589   4.873
 7712TIP3    H223082   0.857   1.494   4.884
 7713TIP3   OH223083   1.450   3.411   2.865
 7713TIP3    H123084   1.422   3.328   2.827
 7713TIP3    H223085   1.529   3.390   2.916
 7714TIP3   OH223086   2.207   3.452   3.575
 7714TIP3    H123087   2.192   3.466   3.668
 7714TIP3    H223088   2.120   3.445   3.537
 7715TIP3   OH223089   2.002   2.876   4.233
 7715TIP3    H123090   2.044   2.805   4.185
 7715TIP3    H223091   1.977   2.838   4.317
 7716TIP3   OH223092   3.083   4.850   3.150
 7716TIP3    H123093   3.175   4.828   3.141
 7716TIP3    H223094   3.055   4.804   3.229
 7717TIP3   OH223095   2.769   2.202   5.080
 7717TIP3    H123096   2.848   2.190   5.133
 7717TIP3    H223097   2.775   2.136   5.011
 7718TIP3   OH223098   2.898   4.831   6.227
 7718TIP3    H123099   2.882   4.849   6.135
 7718TIP3    H223100   2.992   4.845   6.239
 7719TIP3   OH223101   5.742   3.450   4.974
 7719TIP3    H123102   5.738   3.508   5.051
 7719TIP3    H223103   5.680   3.489   4.912
 7720TIP3   OH223104   7.939   2.514   2.981
 7720TIP3    H123105   7.867   2.541   2.924
 7720TIP3    H223106   7.899   2.505   3.068
 7721TIP3   OH223107   0.345   7.110   0.645
 7721TIP3    H123108   0.437   7.085   0.637
 7721TIP3    H223109   0.343   7.171   0.718
 7722TIP3   OH223110   0.185   6.688   1.422
 7722TIP3    H123111   0.209   6.779   1.437
 7722TIP3    H223112   0.089   6.689   1.415
 7723TIP3   OH223113   6.623   2.101   5.835
 7723TIP3    H123114   6.653   2.091   5.926
 7723TIP3    H223115   6.694   2.063   5.782
 7724TIP3   OH223116   1.288   3.812   2.121
 7724TIP3    H123117   1.369   3.808   2.069
 7724TIP3    H223118   1.317   3.839   2.208
 7725TIP3   OH223119   3.985   1.220   4.323
 7725TIP3    H123120   4.003   1.291   4.384
 7725TIP3    H223121   3.958   1.147   4.378
 7726TIP3   OH223122   1.840   3.051   0.722
 7726TIP3    H123123   1.774   2.990   0.691
 7726TIP3    H223124   1.906   3.052   0.653
 7727TIP3   OH223125   1.069   5.581   6.624
 7727TIP3    H123126   1.106   5.551   6.707
 7727TIP3    H223127   1.007   5.650   6.650
 7728TIP3   OH223128   1.862   3.049   1.483
 7728TIP3    H123129   1.947   3.038   1.527
 7728TIP3    H223130   1.799   3.008   1.543
 7729TIP3   OH223131   3.681   6.126   4.218
 7729TIP3    H123132   3.602   6.177   4.198
 7729TIP3    H223133   3.733   6.183   4.274
 7730TIP3   OH223134   2.627   0.433   6.024
 7730TIP3    H123135   2.655   0.452   6.114
 7730TIP3    H223136   2.708   0.434   5.973
 7731TIP3   OH223137   6.897   6.046   3.003
 7731TIP3    H123138   6.821   5.995   3.032
 7731TIP3    H223139   6.914   6.014   2.914
 7732TIP3   OH223140   3.856   1.468   3.258
 7732TIP3    H123141   3.797   1.409   3.305
 7732TIP3    H223142   3.831   1.460   3.166
 7733TIP3   OH223143   5.457   6.977   1.824
 7733TIP3    H123144   5.390   6.983   1.892
 7733TIP3    H223145   5.535   6.946   1.870
 7734TIP3   OH223146   7.350   4.645   1.951
 7734TIP3    H123147   7.344   4.581   2.023
 7734TIP3    H223148   7.327   4.595   1.873
 7735TIP3   OH223149   5.180   3.259  -0.007
 7735TIP3    H123150   5.167   3.300   0.078
 7735TIP3    H223151   5.271   3.228  -0.005
 7736TIP3   OH223152   4.663   6.814   5.373
 7736TIP3    H123153   4.757   6.827   5.384
 7736TIP3    H223154   4.654   6.721   5.352
 7737TIP3   OH223155   0.813   0.016   5.786
 7737TIP3    H123156   0.772   0.080   5.844
 7737TIP3    H223157   0.756   0.014   5.709
 7738TIP3   OH223158   2.449   5.952   2.381
 7738TIP3    H123159   2.397   6.002   2.318
 7738TIP3    H223160   2.533   5.997   2.384
 7739TIP3   OH223161   4.357   4.384   1.105
 7739TIP3    H123162   4.331   4.453   1.167
 7739TIP3    H223163   4.405   4.431   1.036
 7740TIP3   OH223164   3.410   2.505   0.084
 7740TIP3    H123165   3.395   2.559   0.006
 7740TIP3    H223166   3.331   2.451   0.092
 7741TIP3   OH223167   5.866   2.910   3.076
 7741TIP3    H123168   5.809   2.985   3.092
 7741TIP3    H223169   5.892   2.879   3.163
 7742TIP3   OH223170   2.868   5.198   5.093
 7742TIP3    H123171   2.859   5.144   5.172
 7742TIP3    H223172   2.778   5.222   5.071
 7743TIP3   OH223173   6.153   5.458   5.199
 7743TIP3    H123174   6.205   5.538   5.193
 7743TIP3    H223175   6.082   5.479   5.259
 7744TIP3   OH223176   7.119   3.879   2.265
 7744TIP3    H123177   7.109   3.973   2.285
 7744TIP3    H223178   7.213   3.867   2.254
 7745TIP3   OH223179   4.028   3.311   5.225
 7745TIP3    H123180   4.099   3.274   5.278
 7745TIP3    H223181   4.017   3.250   5.152
 7746TIP3   OH223182   5.448   1.090   1.703
 7746TIP3    H123183   5.370   1.110   1.652
 7746TIP3    H223184   5.479   1.176   1.734
 7747TIP3   OH223185   0.323   1.162   5.588
 7747TIP3    H123186   0.272   1.083   5.604
 7747TIP3    H223187   0.304   1.219   5.663
 7748TIP3   OH223188   7.151   4.613   5.134
 7748TIP3    H123189   7.102   4.581   5.059
 7748TIP3    H223190   7.243   4.599   5.111
 7749TIP3   OH223191   3.811   2.225   0.814
 7749TIP3    H123192   3.736   2.192   0.765
 7749TIP3    H223193   3.886   2.211   0.757
 7750TIP3   OH223194   8.065   5.598   5.746
 7750TIP3    H123195   8.131   5.641   5.693
 7750TIP3    H223196   8.103   5.513   5.768
 7751TIP3   OH223197   8.190   4.494   3.011
 7751TIP3    H123198   8.256   4.475   3.077
 7751TIP3    H223199   8.165   4.408   2.977
 7752TIP3   OH223200   4.798   1.966   1.817
 7752TIP3    H123201   4.742   1.919   1.756
 7752TIP3    H223202   4.851   1.898   1.858
 7753TIP3   OH223203   7.133   1.333   1.456
 7753TIP3    H123204   7.138   1.377   1.372
 7753TIP3    H223205   7.201   1.266   1.452
 7754TIP3   OH223206   3.227   3.700   5.666
 7754TIP3    H123207   3.204   3.644   5.740
 7754TIP3    H223208   3.299   3.653   5.622
 7755TIP3   OH223209   2.302   2.036   0.582
 7755TIP3    H123210   2.287   1.993   0.498
 7755TIP3    H223211   2.393   2.014   0.604
 7756TIP3   OH223212   7.438   4.335   6.387
 7756TIP3    H123213   7.449   4.370   6.299
 7756TIP3    H223214   7.460   4.409   6.445
 7757TIP3   OH223215   7.667   1.539   5.828
 7757TIP3    H123216   7.700   1.576   5.910
 7757TIP3    H223217   7.678   1.609   5.764
 7758TIP3   OH223218   7.286   0.749   4.894
 7758TIP3    H123219   7.308   0.696   4.971
 7758TIP3    H223220   7.199   0.784   4.914
 7759TIP3   OH223221   3.791   6.685   1.064
 7759TIP3    H123222   3.802   6.780   1.068
 7759TIP3    H223223   3.870   6.650   1.106
 7760TIP3   OH223224   0.462   7.156   1.754
 7760TIP3    H123225   0.372   7.127   1.771
 7760TIP3    H223226   0.471   7.236   1.805
 7761TIP3   OH223227   0.957   4.447   4.236
 7761TIP3    H123228   0.869   4.419   4.260
 7761TIP3    H223229   0.970   4.529   4.283
 7762TIP3   OH223230   4.597   7.799   6.121
 7762TIP3    H123231   4.504   7.790   6.101
 7762TIP3    H223232   4.636   7.833   6.040
 7763TIP3   OH223233   5.666   2.014   2.489
 7763TIP3    H123234   5.724   2.005   2.414
 7763TIP3    H223235   5.586   1.968   2.464
 7764TIP3   OH223236   2.770   3.429   1.170
 7764TIP3    H123237   2.731   3.385   1.095
 7764TIP3    H223238   2.840   3.482   1.132
 7765TIP3   OH223239   3.653   1.271   1.243
 7765TIP3    H123240   3.619   1.198   1.295
 7765TIP3    H223241   3.593   1.278   1.169
 7766TIP3   OH223242   7.864   4.238   6.790
 7766TIP3    H123243   7.862   4.225   6.695
 7766TIP3    H223244   7.885   4.331   6.801
 7767TIP3   OH223245   7.631   7.515   6.605
 7767TIP3    H123246   7.720   7.491   6.580
 7767TIP3    H223247   7.603   7.577   6.537
 7768TIP3   OH223248   4.247   0.226   3.278
 7768TIP3    H123249   4.265   0.233   3.372
 7768TIP3    H223250   4.265   0.134   3.257
 7769TIP3   OH223251   4.850   6.556   3.018
 7769TIP3    H123252   4.871   6.494   3.088
 7769TIP3    H223253   4.769   6.599   3.048
 7770TIP3   OH223254   8.001   4.838   0.117
 7770TIP3    H123255   8.020   4.870   0.206
 7770TIP3    H223256   8.056   4.892   0.060
 7771TIP3   OH223257   4.999   4.904   3.601
 7771TIP3    H123258   5.057   4.858   3.539
 7771TIP3    H223259   5.025   4.995   3.595
 7772TIP3   OH223260   1.917   5.379   3.147
 7772TIP3    H123261   1.870   5.326   3.083
 7772TIP3    H223262   2.003   5.393   3.108
 7773TIP3   OH223263   3.495   4.842   5.323
 7773TIP3    H123264   3.514   4.882   5.407
 7773TIP3    H223265   3.548   4.891   5.260
 7774TIP3   OH223266   8.279   7.588   0.991
 7774TIP3    H123267   8.275   7.546   0.905
 7774TIP3    H223268   8.188   7.602   1.016
 7775TIP3   OH223269   3.815   3.265   1.246
 7775TIP3    H123270   3.770   3.326   1.187
 7775TIP3    H223271   3.874   3.319   1.297
 7776TIP3   OH223272   8.192   4.078   3.308
 7776TIP3    H123273   8.285   4.098   3.322
 7776TIP3    H223274   8.148   4.111   3.387
 7777TIP3   OH223275   1.413   6.660   5.268
 7777TIP3    H123276   1.493   6.672   5.318
 7777TIP3    H223277   1.431   6.703   5.184
 7778TIP3   OH223278   7.713   7.130   5.973
 7778TIP3    H123279   7.620   7.140   5.952
 7778TIP3    H223280   7.717   7.053   6.030
 7779TIP3   OH223281   4.747   4.479   2.029
 7779TIP3    H123282   4.756   4.384   2.022
 7779TIP3    H223283   4.801   4.502   2.105
 7780TIP3   OH223284   3.562   3.301   1.467
 7780TIP3    H123285   3.578   3.369   1.533
 7780TIP3    H223286   3.640   3.304   1.411
 7781TIP3   OH223287   6.418   0.103   3.527
 7781TIP3    H123288   6.413   0.166   3.455
 7781TIP3    H223289   6.329   0.098   3.561
 7782TIP3   OH223290   0.381   3.765   2.744
 7782TIP3    H123291   0.295   3.739   2.711
 7782TIP3    H223292   0.362   3.835   2.807
 7783TIP3   OH223293   5.456   2.778   4.632
 7783TIP3    H123294   5.361   2.781   4.644
 7783TIP3    H223295   5.492   2.795   4.720
 7784TIP3   OH223296   5.617   6.504   4.664
 7784TIP3    H123297   5.685   6.565   4.689
 7784TIP3    H223298   5.660   6.418   4.665
 7785TIP3   OH223299   7.598   1.957   0.908
 7785TIP3    H123300   7.626   1.921   0.824
 7785TIP3    H223301   7.534   2.025   0.886
 7786TIP3   OH223302   7.758   0.483   5.517
 7786TIP3    H123303   7.837   0.535   5.527
 7786TIP3    H223304   7.782   0.412   5.458
 7787TIP3   OH223305   3.163   5.834   6.146
 7787TIP3    H123306   3.210   5.769   6.199
 7787TIP3    H223307   3.097   5.783   6.099
 7788TIP3   OH223308   7.049   1.739   1.935
 7788TIP3    H123309   7.053   1.693   1.851
 7788TIP3    H223310   7.138   1.733   1.970
 7789TIP3   OH223311   4.142   0.283   0.636
 7789TIP3    H123312   4.065   0.338   0.654
 7789TIP3    H223313   4.148   0.280   0.541
 7790TIP3   OH223314   1.595   2.474   0.739
 7790TIP3    H123315   1.615   2.537   0.808
 7790TIP3    H223316   1.681   2.438   0.715
 7791TIP3   OH223317   3.502   5.465   3.173
 7791TIP3    H123318   3.564   5.493   3.105
 7791TIP3    H223319   3.556   5.456   3.251
 7792TIP3   OH223320   1.874   1.688   5.653
 7792TIP3    H123321   1.861   1.597   5.629
 7792TIP3    H223322   1.969   1.695   5.668
 7793TIP3   OH223323   3.095   5.530   0.575
 7793TIP3    H123324   3.046   5.476   0.514
 7793TIP3    H223325   3.186   5.504   0.563
 7794TIP3   OH223326   3.172   6.533   2.838
 7794TIP3    H123327   3.130   6.581   2.909
 7794TIP3    H223328   3.266   6.539   2.858
 7795TIP3   OH223329   3.064   6.579   2.100
 7795TIP3    H123330   3.139   6.563   2.043
 7795TIP3    H223331   3.031   6.492   2.121
 7796TIP3   OH223332   5.216   2.707   1.127
 7796TIP3    H123333   5.280   2.681   1.193
 7796TIP3    H223334   5.210   2.632   1.068
 7797TIP3   OH223335   7.146   6.083   4.376
 7797TIP3    H123336   7.224   6.133   4.398
 7797TIP3    H223337   7.169   5.992   4.396
 7798TIP3   OH223338   4.064   5.475   0.730
 7798TIP3    H123339   4.143   5.497   0.681
 7798TIP3    H223340   3.993   5.493   0.669
 7799TIP3   OH223341   8.017   2.362   2.551
 7799TIP3    H123342   8.071   2.386   2.627
 7799TIP3    H223343   7.968   2.286   2.579
 7800TIP3   OH223344   6.969   2.733   6.086
 7800TIP3    H123345   7.028   2.782   6.144
 7800TIP3    H223346   7.012   2.649   6.074
 7801TIP3   OH223347   8.052   0.439   3.284
 7801TIP3    H123348   8.130   0.399   3.246
 7801TIP3    H223349   8.033   0.387   3.362
 7802TIP3   OH223350   5.030   2.195   0.844
 7802TIP3    H123351   4.971   2.160   0.777
 7802TIP3    H223352   4.982   2.184   0.926
 7803TIP3   OH223353   3.801   5.291   2.080
 7803TIP3    H123354   3.760   5.374   2.058
 7803TIP3    H223355   3.892   5.300   2.050
 7804TIP3   OH223356   3.428   0.622   3.236
 7804TIP3    H123357   3.503   0.601   3.291
 7804TIP3    H223358   3.426   0.718   3.234
 7805TIP3   OH223359   6.283   0.074   4.170
 7805TIP3    H123360   6.324   0.002   4.122
 7805TIP3    H223361   6.214   0.033   4.223
 7806TIP3   OH223362   6.615   7.051   4.859
 7806TIP3    H123363   6.549   7.049   4.928
 7806TIP3    H223364   6.699   7.058   4.906
 7807TIP3   OH223365   4.375   7.165   1.387
 7807TIP3    H123366   4.346   7.089   1.436
 7807TIP3    H223367   4.296   7.219   1.379
 7808TIP3   OH223368   6.288   1.294   3.117
 7808TIP3    H123369   6.242   1.240   3.053
 7808TIP3    H223370   6.220   1.349   3.156
 7809TIP3   OH223371   8.325   6.159   0.990
 7809TIP3    H123372   8.275   6.081   1.016
 7809TIP3    H223373   8.374   6.183   1.069
 7810TIP3   OH223374   1.919   3.731   6.347
 7810TIP3    H123375   1.885   3.645   6.372
 7810TIP3    H223376   1.922   3.780   6.429
 7811TIP3   OH223377   0.138   3.409   6.750
 7811TIP3    H123378   0.182   3.467   6.688
 7811TIP3    H223379   0.196   3.333   6.756
 7812TIP3   OH223380   5.871   1.972   4.194
 7812TIP3    H123381   5.854   2.034   4.124
 7812TIP3    H223382   5.832   2.012   4.272
 7813TIP3   OH223383   5.025   4.132   1.527
 7813TIP3    H123384   4.964   4.203   1.506
 7813TIP3    H223385   4.980   4.079   1.592
 7814TIP3   OH223386   4.430   4.098   2.174
 7814TIP3    H123387   4.413   4.032   2.107
 7814TIP3    H223388   4.456   4.048   2.252
 7815TIP3   OH223389   7.508   7.513   1.254
 7815TIP3    H123390   7.534   7.506   1.163
 7815TIP3    H223391   7.445   7.585   1.255
 7816TIP3   OH223392   4.208   2.422   3.007
 7816TIP3    H123393   4.167   2.474   2.938
 7816TIP3    H223394   4.298   2.454   3.012
 7817TIP3   OH223395   6.588   0.512   1.719
 7817TIP3    H123396   6.677   0.546   1.711
 7817TIP3    H223397   6.532   0.588   1.702
 7818TIP3   OH223398   0.866   0.408   1.119
 7818TIP3    H123399   0.876   0.388   1.026
 7818TIP3    H223400   0.944   0.458   1.141
 7819TIP3   OH223401   4.716   7.197   5.591
 7819TIP3    H123402   4.666   7.116   5.585
 7819TIP3    H223403   4.768   7.187   5.670
 7820TIP3   OH223404   1.560   5.583   5.997
 7820TIP3    H123405   1.609   5.504   6.019
 7820TIP3    H223406   1.472   5.567   6.030
 7821TIP3   OH223407   1.004   1.751   4.572
 7821TIP3    H123408   1.039   1.676   4.524
 7821TIP3    H223409   1.061   1.758   4.649
 7822TIP3   OH223410   5.183   2.648   0.313
 7822TIP3    H123411   5.259   2.688   0.271
 7822TIP3    H223412   5.212   2.632   0.403
 7823TIP3   OH223413   1.285   2.701   2.239
 7823TIP3    H123414   1.295   2.628   2.178
 7823TIP3    H223415   1.191   2.703   2.258
 7824TIP3   OH223416   3.400   6.935   2.385
 7824TIP3    H123417   3.469   6.924   2.320
 7824TIP3    H223418   3.329   6.878   2.354
 7825TIP3   OH223419   5.906   7.191   5.828
 7825TIP3    H123420   5.815   7.197   5.855
 7825TIP3    H223421   5.944   7.124   5.885
 7826TIP3   OH223422   2.448   2.263   1.787
 7826TIP3    H123423   2.506   2.319   1.736
 7826TIP3    H223424   2.484   2.175   1.778
 7827TIP3   OH223425   7.490   4.874   3.171
 7827TIP3    H123426   7.583   4.890   3.186
 7827TIP3    H223427   7.446   4.937   3.228
 7828TIP3   OH223428   5.193   3.218   6.415
 7828TIP3    H123429   5.200   3.189   6.506
 7828TIP3    H223430   5.120   3.280   6.415
 7829TIP3   OH223431   6.768   3.441   3.754
 7829TIP3    H123432   6.681   3.472   3.778
 7829TIP3    H223433   6.825   3.517   3.768
 7830TIP3   OH223434   1.059   7.256   0.411
 7830TIP3    H123435   1.122   7.284   0.344
 7830TIP3    H223436   1.114   7.228   0.484
 7831TIP3   OH223437   2.720   1.466   5.968
 7831TIP3    H123438   2.746   1.555   5.990
 7831TIP3    H223439   2.700   1.470   5.874
 7832TIP3   OH223440   2.395   4.597   4.746
 7832TIP3    H123441   2.319   4.641   4.706
 7832TIP3    H223442   2.369   4.505   4.751
 7833TIP3   OH223443   6.292   3.575   6.092
 7833TIP3    H123444   6.343   3.530   6.159
 7833TIP3    H223445   6.341   3.559   6.011
 7834TIP3   OH223446   5.454   7.486   6.385
 7834TIP3    H123447   5.488   7.575   6.394
 7834TIP3    H223448   5.429   7.461   6.474
 7835TIP3   OH223449   5.034   2.767   2.785
 7835TIP3    H123450   5.021   2.673   2.796
 7835TIP3    H223451   4.988   2.807   2.859
 7836TIP3   OH223452   3.945   4.800   5.807
 7836TIP3    H123453   3.852   4.776   5.808
 7836TIP3    H223454   3.950   4.879   5.860
 7837TIP3   OH223455   4.000   4.123   3.931
 7837TIP3    H123456   4.059   4.168   3.871
 7837TIP3    H223457   3.941   4.192   3.962
 7838TIP3   OH223458   5.063   7.309   6.097
 7838TIP3    H123459   5.154   7.293   6.119
 7838TIP3    H223460   5.022   7.337   6.179
 7839TIP3   OH223461   7.018   6.514   4.804
 7839TIP3    H123462   7.106   6.532   4.771
 7839TIP3    H223463   6.984   6.446   4.746
 7840TIP3   OH223464   1.547   6.082   5.705
 7840TIP3    H123465   1.500   6.078   5.622
 7840TIP3    H223466   1.637   6.058   5.682
 7841TIP3   OH223467   6.580   7.353   4.107
 7841TIP3    H123468   6.618   7.412   4.172
 7841TIP3    H223469   6.614   7.384   4.024
 7842TIP3   OH223470   6.521  -0.013   5.574
 7842TIP3    H123471   6.458  -0.025   5.502
 7842TIP3    H223472   6.567   0.068   5.551
 7843TIP3   OH223473   7.001   4.374   1.623
 7843TIP3    H123474   6.954   4.322   1.558
 7843TIP3    H223475   7.075   4.318   1.649
 7844TIP3   OH223476   5.704   5.964   4.870
 7844TIP3    H123477   5.697   6.060   4.865
 7844TIP3    H223478   5.615   5.932   4.852
 7845TIP3   OH223479   6.430   1.679   1.937
 7845TIP3    H123480   6.355   1.628   1.907
 7845TIP3    H223481   6.405   1.710   2.024
 7846TIP3   OH223482   2.196   6.577   3.619
 7846TIP3    H123483   2.194   6.598   3.712
 7846TIP3    H223484   2.285   6.548   3.602
 7847TIP3   OH223485   2.487   3.681   5.383
 7847TIP3    H123486   2.396   3.655   5.395
 7847TIP3    H223487   2.509   3.652   5.294
 7848TIP3   OH223488   0.511   7.265   1.495
 7848TIP3    H123489   0.468   7.212   1.562
 7848TIP3    H223490   0.439   7.310   1.451
 7849TIP3   OH223491   1.629   2.584   3.347
 7849TIP3    H123492   1.612   2.646   3.418
 7849TIP3    H223493   1.674   2.636   3.280
 7850TIP3   OH223494   5.874   5.475   2.607
 7850TIP3    H123495   5.942   5.538   2.583
 7850TIP3    H223496   5.840   5.507   2.691
 7851TIP3   OH223497   3.059   2.385   0.471
 7851TIP3    H123498   3.093   2.470   0.443
 7851TIP3    H223499   2.966   2.401   0.490
 7852TIP3   OH223500   2.246   6.948   5.486
 7852TIP3    H123501   2.301   6.948   5.564
 7852TIP3    H223502   2.244   7.039   5.458
 7853TIP3   OH223503   0.445   1.091   2.053
 7853TIP3    H123504   0.395   1.025   2.005
 7853TIP3    H223505   0.529   1.049   2.071
 7854TIP3   OH223506   0.355   1.870   1.512
 7854TIP3    H123507   0.422   1.879   1.580
 7854TIP3    H223508   0.298   1.800   1.545
 7855TIP3   OH223509   0.160   1.307   5.199
 7855TIP3    H123510   0.076   1.264   5.182
 7855TIP3    H223511   0.226   1.244   5.169
 7856TIP3   OH223512   1.919   3.839   4.819
 7856TIP3    H123513   1.893   3.911   4.761
 7856TIP3    H223514   1.838   3.815   4.865
 7857TIP3   OH223515   3.549   1.926   2.862
 7857TIP3    H123516   3.527   1.936   2.955
 7857TIP3    H223517   3.583   1.836   2.855
 7858TIP3   OH223518   2.743   6.110   4.482
 7858TIP3    H123519   2.668   6.105   4.541
 7858TIP3    H223520   2.721   6.049   4.411
 7859TIP3   OH223521   3.147   5.762   6.696
 7859TIP3    H123522   3.230   5.810   6.704
 7859TIP3    H223523   3.097   5.810   6.630
 7860TIP3   OH223524   1.258   0.816   6.096
 7860TIP3    H123525   1.277   0.763   6.018
 7860TIP3    H223526   1.169   0.790   6.122
 7861TIP3   OH223527   3.658   5.740   4.989
 7861TIP3    H123528   3.688   5.679   5.057
 7861TIP3    H223529   3.664   5.826   5.030
 7862TIP3   OH223530   6.122   2.438   0.815
 7862TIP3    H123531   6.196   2.495   0.834
 7862TIP3    H223532   6.083   2.476   0.736
 7863TIP3   OH223533   3.326   5.846   0.183
 7863TIP3    H123534   3.412   5.836   0.141
 7863TIP3    H223535   3.295   5.931   0.153
 7864TIP3   OH223536   2.545   2.239   2.836
 7864TIP3    H123537   2.520   2.329   2.855
 7864TIP3    H223538   2.475   2.186   2.875
 7865TIP3   OH223539   8.166   2.306   1.599
 7865TIP3    H123540   8.227   2.359   1.549
 7865TIP3    H223541   8.216   2.278   1.676
 7866TIP3   OH223542   8.207   2.425   2.927
 7866TIP3    H123543   8.231   2.340   2.890
 7866TIP3    H223544   8.113   2.420   2.941
 7867TIP3   OH223545   6.319   1.247   5.300
 7867TIP3    H123546   6.280   1.219   5.382
 7867TIP3    H223547   6.278   1.332   5.282
 7868TIP3   OH223548   4.984   4.668   5.731
 7868TIP3    H123549   4.973   4.732   5.661
 7868TIP3    H223550   4.895   4.643   5.755
 7869TIP3   OH223551   7.951   5.237   5.370
 7869TIP3    H123552   7.956   5.330   5.393
 7869TIP3    H223553   7.872   5.206   5.415
 7870TIP3   OH223554   4.398   3.355   0.627
 7870TIP3    H123555   4.437   3.426   0.575
 7870TIP3    H223556   4.459   3.343   0.700
 7871TIP3   OH223557   7.899   4.800   5.101
 7871TIP3    H123558   7.835   4.870   5.086
 7871TIP3    H223559   7.896   4.747   5.021
 7872TIP3   OH223560   2.816   1.345   1.368
 7872TIP3    H123561   2.909   1.348   1.392
 7872TIP3    H223562   2.795   1.436   1.345
 7873TIP3   OH223563   4.848   6.448   5.047
 7873TIP3    H123564   4.897   6.440   4.965
 7873TIP3    H223565   4.888   6.384   5.105
 7874TIP3   OH223566   2.804   1.250   1.652
 7874TIP3    H123567   2.719   1.223   1.617
 7874TIP3    H223568   2.868   1.200   1.602
 7875TIP3   OH223569   2.749   4.000   0.979
 7875TIP3    H123570   2.840   4.002   1.007
 7875TIP3    H223571   2.751   3.957   0.893
 7876TIP3   OH223572   2.071   0.029   5.128
 7876TIP3    H123573   1.977   0.011   5.123
 7876TIP3    H223574   2.086   0.098   5.064
 7877TIP3   OH223575   1.556   1.172   3.756
 7877TIP3    H123576   1.613   1.158   3.680
 7877TIP3    H223577   1.613   1.210   3.822
 7878TIP3   OH223578   7.326   2.311   1.026
 7878TIP3    H123579   7.349   2.403   1.014
 7878TIP3    H223580   7.276   2.309   1.108
 7879TIP3   OH223581   6.067   1.085   1.865
 7879TIP3    H123582   6.092   1.027   1.793
 7879TIP3    H223583   6.107   1.045   1.943
 7880TIP3   OH223584   5.376   5.360   4.909
 7880TIP3    H123585   5.353   5.388   4.998
 7880TIP3    H223586   5.407   5.270   4.921
 7881TIP3   OH223587   4.852   5.983   3.810
 7881TIP3    H123588   4.763   5.996   3.777
 7881TIP3    H223589   4.884   6.072   3.829
 7882TIP3   OH223590   2.465   0.145   6.405
 7882TIP3    H123591   2.555   0.125   6.428
 7882TIP3    H223592   2.455   0.112   6.316
 7883TIP3   OH223593   1.631   2.894   5.941
 7883TIP3    H123594   1.670   2.865   5.858
 7883TIP3    H223595   1.560   2.831   5.957
 7884TIP3   OH223596   1.500   4.224   4.442
 7884TIP3    H123597   1.445   4.169   4.387
 7884TIP3    H223598   1.439   4.288   4.480
 7885TIP3   OH223599   8.172   3.723   2.374
 7885TIP3    H123600   8.158   3.817   2.374
 7885TIP3    H223601   8.092   3.687   2.334
 7886TIP3   OH223602   7.836   1.171   5.217
 7886TIP3    H123603   7.786   1.250   5.233
 7886TIP3    H223604   7.892   1.162   5.295
 7887TIP3   OH223605   5.628   7.708   5.488
 7887TIP3    H123606   5.569   7.644   5.528
 7887TIP3    H223607   5.577   7.789   5.486
 7888TIP3   OH223608   5.601   6.733   5.979
 7888TIP3    H123609   5.608   6.816   5.930
 7888TIP3    H223610   5.517   6.696   5.950
 7889TIP3   OH223611   5.628   5.311   2.558
 7889TIP3    H123612   5.574   5.238   2.587
 7889TIP3    H223613   5.565   5.377   2.529
 7890TIP3   OH223614   0.340   3.967   0.292
 7890TIP3    H123615   0.359   3.877   0.319
 7890TIP3    H223616   0.414   4.017   0.326
 7891TIP3   OH223617   1.855   5.013   0.457
 7891TIP3    H123618   1.861   5.061   0.374
 7891TIP3    H223619   1.932   4.957   0.459
 7892TIP3   OH223620   5.350   0.093   2.531
 7892TIP3    H123621   5.363   0.055   2.444
 7892TIP3    H223622   5.282   0.160   2.519
 7893TIP3   OH223623   6.211   3.587   6.489
 7893TIP3    H123624   6.118   3.608   6.481
 7893TIP3    H223625   6.222   3.563   6.581
 7894TIP3   OH223626   5.654   7.694   5.808
 7894TIP3    H123627   5.727   7.642   5.776
 7894TIP3    H223628   5.581   7.671   5.751
 7895TIP3   OH223629   3.111   1.591   6.319
 7895TIP3    H123630   3.024   1.553   6.334
 7895TIP3    H223631   3.102   1.640   6.238
 7896TIP3   OH223632   7.084   2.973   4.333
 7896TIP3    H123633   7.096   2.923   4.252
 7896TIP3    H223634   7.156   3.037   4.332
 7897TIP3   OH223635   4.683   0.110   0.232
 7897TIP3    H123636   4.767   0.078   0.264
 7897TIP3    H223637   4.619   0.075   0.295
 7898TIP3   OH223638   4.821   2.704   4.669
 7898TIP3    H123639   4.839   2.790   4.707
 7898TIP3    H223640   4.726   2.704   4.653
 7899TIP3   OH223641   2.350   1.659   5.115
 7899TIP3    H123642   2.361   1.728   5.049
 7899TIP3    H223643   2.268   1.616   5.091
 7900TIP3   OH223644   8.203   6.443   1.246
 7900TIP3    H123645   8.194   6.537   1.229
 7900TIP3    H223646   8.161   6.430   1.331
 7901TIP3   OH223647   6.827   7.755   2.551
 7901TIP3    H123648   6.817   7.676   2.604
 7901TIP3    H223649   6.847   7.723   2.463
 7902TIP3   OH223650   2.948   1.781   2.669
 7902TIP3    H123651   2.963   1.695   2.708
 7902TIP3    H223652   2.965   1.844   2.739
 7903TIP3   OH223653   3.631   2.133   4.072
 7903TIP3    H123654   3.602   2.206   4.017
 7903TIP3    H223655   3.721   2.156   4.097
 7904TIP3   OH223656   6.316   7.347   2.637
 7904TIP3    H123657   6.298   7.253   2.628
 7904TIP3    H223658   6.320   7.361   2.731
 7905TIP3   OH223659   5.980   2.206   0.282
 7905TIP3    H123660   5.975   2.294   0.246
 7905TIP3    H223661   6.049   2.211   0.348
 7906TIP3   OH223662   0.009   5.988   6.144
 7906TIP3    H123663  -0.068   5.980   6.088
 7906TIP3    H223664   0.081   5.955   6.090
 7907TIP3   OH223665   6.120   6.282   1.998
 7907TIP3    H123666   6.028   6.260   1.990
 7907TIP3    H223667   6.156   6.212   2.053
 7908TIP3   OH223668   2.207   7.645   3.024
 7908TIP3    H123669   2.257   7.718   2.988
 7908TIP3    H223670   2.164   7.681   3.101
 7909TIP3   OH223671   4.206   5.898   3.790
 7909TIP3    H123672   4.272   5.833   3.815
 7909TIP3    H223673   4.134   5.847   3.753
 7910TIP3   OH223674   0.175   1.673   1.163
 7910TIP3    H123675   0.216   1.587   1.157
 7910TIP3    H223676   0.084   1.659   1.136
 7911TIP3   OH223677   5.253   7.660   6.773
 7911TIP3    H123678   5.186   7.680   6.708
 7911TIP3    H223679   5.207   7.609   6.840
 7912TIP3   OH223680   2.287   7.272   4.654
 7912TIP3    H123681   2.265   7.266   4.561
 7912TIP3    H223682   2.362   7.213   4.665
 7913TIP3   OH223683   5.325   4.659   3.141
 7913TIP3    H123684   5.378   4.611   3.205
 7913TIP3    H223685   5.360   4.748   3.143
 7914TIP3   OH223686   6.983   0.712   2.309
 7914TIP3    H123687   7.048   0.646   2.282
 7914TIP3    H223688   6.909   0.698   2.251
 7915TIP3   OH223689   8.035   3.908   6.467
 7915TIP3    H123690   8.082   3.990   6.454
 7915TIP3    H223691   8.095   3.854   6.518
 7916TIP3   OH223692   5.209   3.587   2.880
 7916TIP3    H123693   5.273   3.583   2.951
 7916TIP3    H223694   5.169   3.673   2.888
 7917TIP3   OH223695   4.055   5.070   1.638
 7917TIP3    H123696   4.001   4.992   1.627
 7917TIP3    H223697   3.992   5.143   1.640
 7918TIP3   OH223698   2.902   2.568   1.603
 7918TIP3    H123699   2.887   2.487   1.554
 7918TIP3    H223700   2.917   2.635   1.535
 7919TIP3   OH223701   2.199   3.850   4.890
 7919TIP3    H123702   2.238   3.937   4.887
 7919TIP3    H223703   2.108   3.863   4.866
 7920TIP3   OH223704   6.715   7.381   1.815
 7920TIP3    H123705   6.803   7.383   1.853
 7920TIP3    H223706   6.684   7.471   1.820
 7921TIP3   OH223707   1.496   4.666   0.345
 7921TIP3    H123708   1.512   4.742   0.400
 7921TIP3    H223709   1.570   4.607   0.363
 7922TIP3   OH223710   6.360   1.320   2.806
 7922TIP3    H123711   6.318   1.285   2.885
 7922TIP3    H223712   6.384   1.243   2.755
 7923TIP3   OH223713   7.090   0.045   2.716
 7923TIP3    H123714   7.054  -0.041   2.695
 7923TIP3    H223715   7.061   0.063   2.805
 7924TIP3   OH223716   7.367   3.507   0.395
 7924TIP3    H123717   7.446   3.536   0.442
 7924TIP3    H223718   7.303   3.490   0.465
 7925TIP3   OH223719   4.485   7.533   2.406
 7925TIP3    H123720   4.564   7.502   2.450
 7925TIP3    H223721   4.510   7.537   2.313
 7926TIP3   OH223722   7.748   3.469   5.090
 7926TIP3    H123723   7.664   3.440   5.125
 7926TIP3    H223724   7.749   3.439   5.000
 7927TIP3   OH223725   3.211   4.549   3.384
 7927TIP3    H123726   3.137   4.498   3.416
 7927TIP3    H223727   3.225   4.517   3.294
 7928TIP3   OH223728   8.149   7.060   0.210
 7928TIP3    H123729   8.080   7.113   0.250
 7928TIP3    H223730   8.119   7.044   0.120
 7929TIP3   OH223731   1.739   7.202   3.455
 7929TIP3    H123732   1.717   7.295   3.452
 7929TIP3    H223733   1.737   7.173   3.364
 7930TIP3   OH223734   3.562   3.835   1.303
 7930TIP3    H123735   3.569   3.857   1.210
 7930TIP3    H223736   3.652   3.838   1.335
 7931TIP3   OH223737   0.121   6.934   6.424
 7931TIP3    H123738   0.154   6.942   6.513
 7931TIP3    H223739   0.100   6.841   6.415
 7932TIP3   OH223740   3.109   2.699   0.453
 7932TIP3    H123741   3.053   2.684   0.377
 7932TIP3    H223742   3.077   2.783   0.489
 7933TIP3   OH223743   5.998   7.153   4.040
 7933TIP3    H123744   5.958   7.234   4.070
 7933TIP3    H223745   6.066   7.135   4.105
 7934TIP3   OH223746   1.542   7.174   1.766
 7934TIP3    H123747   1.538   7.092   1.815
 7934TIP3    H223748   1.632   7.204   1.776
 7935TIP3   OH223749   1.784   4.275   5.958
 7935TIP3    H123750   1.790   4.370   5.972
 7935TIP3    H223751   1.873   4.247   5.940
 7936TIP3   OH223752   3.432   1.471   0.154
 7936TIP3    H123753   3.417   1.565   0.170
 7936TIP3    H223754   3.345   1.434   0.147
 7937TIP3   OH223755   6.955   5.116   4.849
 7937TIP3    H123756   6.965   5.028   4.885
 7937TIP3    H223757   6.971   5.175   4.922
 7938TIP3   OH223758   4.784   4.159   0.348
 7938TIP3    H123759   4.835   4.168   0.268
 7938TIP3    H223760   4.844   4.115   0.409
 7939TIP3   OH223761   4.499   6.998   3.127
 7939TIP3    H123762   4.585   6.956   3.121
 7939TIP3    H223763   4.437   6.925   3.130
 7940TIP3   OH223764   7.035   5.870   0.861
 7940TIP3    H123765   7.095   5.916   0.803
 7940TIP3    H223766   6.997   5.801   0.806
 7941TIP3   OH223767   1.006   5.675   3.986
 7941TIP3    H123768   0.951   5.644   3.914
 7941TIP3    H223769   0.972   5.628   4.063
 7942TIP3   OH223770   0.565   0.232   3.070
 7942TIP3    H123771   0.517   0.313   3.086
 7942TIP3    H223772   0.503   0.176   3.023
 7943TIP3   OH223773   6.366   4.596   2.825
 7943TIP3    H123774   6.382   4.503   2.810
 7943TIP3    H223775   6.301   4.620   2.760
 7944TIP3   OH223776   5.746   4.557   2.890
 7944TIP3    H123777   5.769   4.616   2.962
 7944TIP3    H223778   5.740   4.615   2.814
 7945TIP3   OH223779   5.956   5.153   1.244
 7945TIP3    H123780   5.937   5.237   1.203
 7945TIP3    H223781   5.998   5.176   1.328
 7946TIP3   OH223782   5.774   5.506   4.139
 7946TIP3    H123783   5.696   5.470   4.182
 7946TIP3    H223784   5.763   5.482   4.047
 7947TIP3   OH223785   0.783   7.037   4.439
 7947TIP3    H123786   0.811   6.993   4.519
 7947TIP3    H223787   0.858   7.027   4.379
 7948TIP3   OH223788   1.295   5.565   0.345
 7948TIP3    H123789   1.288   5.478   0.384
 7948TIP3    H223790   1.250   5.622   0.408
 7949TIP3   OH223791   4.542   0.717   5.002
 7949TIP3    H123792   4.569   0.631   5.034
 7949TIP3    H223793   4.623   0.760   4.977
 7950TIP3   OH223794   2.851   4.252   3.686
 7950TIP3    H123795   2.912   4.254   3.760
 7950TIP3    H223796   2.769   4.285   3.721
 7951TIP3   OH223797   8.231   3.002   5.768
 7951TIP3    H123798   8.215   2.947   5.845
 7951TIP3    H223799   8.150   2.995   5.716
 7952TIP3   OH223800   1.062   6.448   5.902
 7952TIP3    H123801   1.036   6.491   5.984
 7952TIP3    H223802   1.132   6.388   5.928
 7953TIP3   OH223803   6.646   6.388   0.141
 7953TIP3    H123804   6.699   6.376   0.220
 7953TIP3    H223805   6.592   6.310   0.136
 7954TIP3   OH223806   5.660   2.508   5.176
 7954TIP3    H123807   5.718   2.504   5.252
 7954TIP3    H223808   5.658   2.418   5.143
 7955TIP3   OH223809   3.725   7.640   3.056
 7955TIP3    H123810   3.797   7.677   3.003
 7955TIP3    H223811   3.767   7.570   3.106
 7956TIP3   OH223812   3.396   2.652   2.451
 7956TIP3    H123813   3.467   2.716   2.451
 7956TIP3    H223814   3.344   2.673   2.529
 7957TIP3   OH223815   4.862   7.356   0.613
 7957TIP3    H123816   4.955   7.333   0.622
 7957TIP3    H223817   4.829   7.352   0.703
 7958TIP3   OH223818   7.334   1.869   0.693
 7958TIP3    H123819   7.276   1.796   0.713
 7958TIP3    H223820   7.344   1.916   0.776
 7959TIP3   OH223821   7.289   2.045   3.834
 7959TIP3    H123822   7.221   2.003   3.783
 7959TIP3    H223823   7.365   1.987   3.826
 7960TIP3   OH223824   1.260   6.644   1.635
 7960TIP3    H123825   1.287   6.691   1.713
 7960TIP3    H223826   1.271   6.708   1.564
 7961TIP3   OH223827   1.542   5.129   5.086
 7961TIP3    H123828   1.493   5.052   5.056
 7961TIP3    H223829   1.517   5.138   5.178
 7962TIP3   OH223830   0.151   5.177   1.295
 7962TIP3    H123831   0.183   5.207   1.380
 7962TIP3    H223832   0.217   5.208   1.233
 7963TIP3   OH223833   8.222   4.751   1.743
 7963TIP3    H123834   8.152   4.800   1.786
 7963TIP3    H223835   8.250   4.687   1.808
 7964TIP3   OH223836   1.420   6.917   4.591
 7964TIP3    H123837   1.485   6.852   4.566
 7964TIP3    H223838   1.471   6.995   4.612
 7965TIP3   OH223839   5.075   3.938   4.004
 7965TIP3    H123840   4.986   3.974   4.012
 7965TIP3    H223841   5.091   3.935   3.910
 7966TIP3   OH223842   8.090   6.342   0.459
 7966TIP3    H123843   8.061   6.407   0.523
 7966TIP3    H223844   8.104   6.393   0.379
 7967TIP3   OH223845   0.913   3.982   1.689
 7967TIP3    H123846   0.853   3.999   1.616
 7967TIP3    H223847   0.873   3.909   1.737
 7968TIP3   OH223848   2.574   3.189   4.925
 7968TIP3    H123849   2.527   3.267   4.895
 7968TIP3    H223850   2.573   3.196   5.020
 7969TIP3   OH223851   3.972   5.050   5.956
 7969TIP3    H123852   3.938   5.087   6.037
 7969TIP3    H223853   4.001   5.126   5.905
 7970TIP3   OH223854   4.557   0.638   4.114
 7970TIP3    H123855   4.575   0.608   4.203
 7970TIP3    H223856   4.506   0.719   4.125
 7971TIP3   OH223857   2.797   7.568   0.111
 7971TIP3    H123858   2.849   7.499   0.070
 7971TIP3    H223859   2.715   7.569   0.062
 7972TIP3   OH223860   0.566   7.841   0.758
 7972TIP3    H123861   0.653   7.836   0.719
 7972TIP3    H223862   0.580   7.821   0.850
 7973TIP3   OH223863   2.666   6.209   2.832
 7973TIP3    H123864   2.589   6.204   2.889
 7973TIP3    H223865   2.666   6.126   2.784
 7974TIP3   OH223866   0.834   6.905   4.994
 7974TIP3    H123867   0.797   6.839   4.937
 7974TIP3    H223868   0.768   6.918   5.063
 7975TIP3   OH223869   6.383   1.440   5.505
 7975TIP3    H123870   6.355   1.507   5.568
 7975TIP3    H223871   6.376   1.357   5.553
 7976TIP3   OH223872   3.552   0.467   6.716
 7976TIP3    H123873   3.591   0.487   6.631
 7976TIP3    H223874   3.574   0.376   6.733
 7977TIP3   OH223875   7.130   6.322   1.749
 7977TIP3    H123876   7.207   6.296   1.698
 7977TIP3    H223877   7.091   6.239   1.776
 7978TIP3   OH223878   4.768   2.306   3.169
 7978TIP3    H123879   4.815   2.223   3.162
 7978TIP3    H223880   4.808   2.351   3.244
 7979TIP3   OH223881   2.681   7.612   3.395
 7979TIP3    H123882   2.661   7.653   3.479
 7979TIP3    H223883   2.678   7.518   3.413
 7980TIP3   OH223884   7.598   4.341   0.766
 7980TIP3    H123885   7.654   4.298   0.701
 7980TIP3    H223886   7.538   4.395   0.715
 7981TIP3   OH223887   6.652   1.517   2.905
 7981TIP3    H123888   6.703   1.598   2.895
 7981TIP3    H223889   6.677   1.463   2.830
 7982TIP3   OH223890   7.123   1.760   3.301
 7982TIP3    H123891   7.043   1.749   3.250
 7982TIP3    H223892   7.193   1.736   3.241
 7983TIP3   OH223893   6.072   2.955   0.402
 7983TIP3    H123894   6.008   2.883   0.401
 7983TIP3    H223895   6.059   3.001   0.319
 7984TIP3   OH223896   5.983   6.621   4.686
 7984TIP3    H123897   6.013   6.709   4.706
 7984TIP3    H223898   6.040   6.563   4.736
 7985TIP3   OH223899   5.294   0.303   1.574
 7985TIP3    H123900   5.254   0.380   1.613
 7985TIP3    H223901   5.254   0.296   1.487
 7986TIP3   OH223902   7.450   0.908   6.743
 7986TIP3    H123903   7.492   0.823   6.735
 7986TIP3    H223904   7.375   0.893   6.801
 7987TIP3   OH223905   5.677   1.195   1.998
 7987TIP3    H123906   5.756   1.170   2.045
 7987TIP3    H223907   5.674   1.290   2.005
 7988TIP3   OH223908   3.640   1.808   4.873
 7988TIP3    H123909   3.573   1.790   4.939
 7988TIP3    H223910   3.601   1.876   4.818
 7989TIP3   OH223911   6.887   3.728   5.260
 7989TIP3    H123912   6.856   3.795   5.199
 7989TIP3    H223913   6.820   3.660   5.259
 7990TIP3   OH223914   4.474   2.776   0.085
 7990TIP3    H123915   4.432   2.859   0.104
 7990TIP3    H223916   4.462   2.724   0.164
 7991TIP3   OH223917   0.274   5.909   5.042
 7991TIP3    H123918   0.323   5.958   4.976
 7991TIP3    H223919   0.341   5.865   5.094
 7992TIP3   OH223920   0.735   5.868   4.602
 7992TIP3    H123921   0.737   5.882   4.696
 7992TIP3    H223922   0.646   5.895   4.576
 7993TIP3   OH223923   4.354   3.103   2.729
 7993TIP3    H123924   4.367   3.042   2.656
 7993TIP3    H223925   4.416   3.174   2.712
 7994TIP3   OH223926   4.704   5.848   6.628
 7994TIP3    H123927   4.642   5.913   6.595
 7994TIP3    H223928   4.690   5.771   6.573
 7995TIP3   OH223929   0.345   4.960   1.358
 7995TIP3    H123930   0.331   4.871   1.389
 7995TIP3    H223931   0.264   5.006   1.378
 7996TIP3   OH223932   5.901   4.434   3.709
 7996TIP3    H123933   5.915   4.363   3.646
 7996TIP3    H223934   5.989   4.461   3.735
 7997TIP3   OH223935   1.709   0.362   3.052
 7997TIP3    H123936   1.651   0.291   3.079
 7997TIP3    H223937   1.796   0.333   3.081
 7998TIP3   OH223938   2.117   1.655   3.275
 7998TIP3    H123939   2.144   1.565   3.291
 7998TIP3    H223940   2.034   1.647   3.228
 7999TIP3   OH223941   4.769   3.905   4.264
 7999TIP3    H123942   4.749   3.914   4.171
 7999TIP3    H223943   4.855   3.864   4.266
 8000TIP3   OH223944   2.902   5.997   3.924
 8000TIP3    H123945   2.836   5.935   3.956
 8000TIP3    H223946   2.915   6.057   3.997
 8001TIP3   OH223947   0.678   2.158   2.208
 8001TIP3    H123948   0.695   2.232   2.150
 8001TIP3    H223949   0.605   2.112   2.167
 8002TIP3   OH223950   5.791   3.393   1.511
 8002TIP3    H123951   5.852   3.401   1.438
 8002TIP3    H223952   5.726   3.330   1.481
 8003TIP3   OH223953   7.678   5.756   6.115
 8003TIP3    H123954   7.722   5.700   6.051
 8003TIP3    H223955   7.742   5.764   6.187
 8004TIP3   OH223956   7.694   5.315   2.470
 8004TIP3    H123957   7.773   5.318   2.415
 8004TIP3    H223958   7.697   5.396   2.521
 8005TIP3   OH223959   5.594   2.546   4.298
 8005TIP3    H123960   5.621   2.476   4.239
 8005TIP3    H223961   5.499   2.552   4.287
 8006TIP3   OH223962   0.794   7.651   5.128
 8006TIP3    H123963   0.829   7.690   5.208
 8006TIP3    H223964   0.708   7.616   5.153
 8007TIP3   OH223965   7.068   6.062   5.692
 8007TIP3    H123966   7.076   6.157   5.694
 8007TIP3    H223967   7.136   6.033   5.631
 8008TIP3   OH223968   2.730   7.772   1.071
 8008TIP3    H123969   2.749   7.713   1.143
 8008TIP3    H223970   2.642   7.747   1.042
 8009TIP3   OH223971   2.865   7.007   2.300
 8009TIP3    H123972   2.889   6.917   2.324
 8009TIP3    H223973   2.776   7.000   2.267
 8010TIP3   OH223974   4.580   5.725   3.963
 8010TIP3    H123975   4.551   5.677   3.885
 8010TIP3    H223976   4.567   5.664   4.035
 8011TIP3   OH223977   2.564   0.746   0.071
 8011TIP3    H123978   2.524   0.771  -0.012
 8011TIP3    H223979   2.523   0.804   0.136
 8012TIP3   OH223980   2.419   6.714   1.655
 8012TIP3    H123981   2.412   6.734   1.562
 8012TIP3    H223982   2.428   6.800   1.697
 8013TIP3   OH223983   1.329   6.837   1.444
 8013TIP3    H123984   1.418   6.834   1.409
 8013TIP3    H223985   1.273   6.821   1.368
 8014TIP3   OH223986   5.329   3.889   4.287
 8014TIP3    H123987   5.282   3.954   4.338
 8014TIP3    H223988   5.279   3.808   4.298
 8015TIP3   OH223989   7.250   3.682   1.808
 8015TIP3    H123990   7.339   3.646   1.806
 8015TIP3    H223991   7.195   3.609   1.835
 8016TIP3   OH223992   3.056   4.403   0.979
 8016TIP3    H123993   3.128   4.344   1.002
 8016TIP3    H223994   3.003   4.353   0.917
 8017TIP3   OH223995   5.785   5.731   0.197
 8017TIP3    H123996   5.746   5.658   0.246
 8017TIP3    H223997   5.743   5.728   0.111
 8018TIP3   OH223998   6.633   4.927   2.055
 8018TIP3    H123999   6.606   5.018   2.063
 8018TIP3    H224000   6.673   4.906   2.139
 8019TIP3   OH224001   0.085   4.663   4.815
 8019TIP3    H124002   0.079   4.737   4.875
 8019TIP3    H224003   0.006   4.612   4.833
 8020TIP3   OH224004   1.781   0.236   1.660
 8020TIP3    H124005   1.872   0.263   1.655
 8020TIP3    H224006   1.779   0.151   1.616
 8021TIP3   OH224007   2.378   1.857   4.909
 8021TIP3    H124008   2.435   1.827   4.839
 8021TIP3    H224009   2.377   1.953   4.900
 8022TIP3   OH224010   3.482   0.816   4.095
 8022TIP3    H124011   3.413   0.767   4.049
 8022TIP3    H224012   3.502   0.889   4.036
 8023TIP3   OH224013   6.943   5.467   3.300
 8023TIP3    H124014   6.927   5.520   3.222
 8023TIP3    H224015   7.014   5.513   3.345
 8024TIP3   OH224016   4.455   5.625   0.310
 8024TIP3    H124017   4.477   5.550   0.255
 8024TIP3    H224018   4.425   5.692   0.249
 8025TIP3   OH224019   2.675   2.283   6.254
 8025TIP3    H124020   2.601   2.224   6.236
 8025TIP3    H224021   2.661   2.312   6.344
 8026TIP3   OH224022   1.340   3.388   2.454
 8026TIP3    H124023   1.425   3.403   2.414
 8026TIP3    H224024   1.291   3.337   2.388
 8027TIP3   OH224025   6.312   4.923   3.801
 8027TIP3    H124026   6.289   5.016   3.811
 8027TIP3    H224027   6.350   4.899   3.886
 8028TIP3   OH224028   2.890   7.644   5.863
 8028TIP3    H124029   2.804   7.687   5.864
 8028TIP3    H224030   2.870   7.550   5.868
 8029TIP3   OH224031   5.299   7.101   0.797
 8029TIP3    H124032   5.263   7.189   0.783
 8029TIP3    H224033   5.376   7.116   0.853
 8030TIP3   OH224034   4.853   1.478   4.315
 8030TIP3    H124035   4.836   1.516   4.229
 8030TIP3    H224036   4.941   1.441   4.307
 8031TIP3   OH224037   0.941   1.332   6.436
 8031TIP3    H124038   0.903   1.244   6.438
 8031TIP3    H224039   0.956   1.350   6.343
 8032TIP3   OH224040   7.977   2.819   4.944
 8032TIP3    H124041   8.064   2.857   4.949
 8032TIP3    H224042   7.942   2.827   5.032
 8033TIP3   OH224043   3.047   0.174   5.201
 8033TIP3    H124044   3.037   0.128   5.284
 8033TIP3    H224045   3.056   0.266   5.226
 8034TIP3   OH224046   2.872   7.227   5.236
 8034TIP3    H124047   2.810   7.159   5.263
 8034TIP3    H224048   2.831   7.270   5.161
 8035TIP3   OH224049   7.916   2.395   1.676
 8035TIP3    H124050   8.000   2.358   1.649
 8035TIP3    H224051   7.892   2.455   1.605
 8036TIP3   OH224052   4.574   2.205   6.189
 8036TIP3    H124053   4.623   2.287   6.185
 8036TIP3    H224054   4.639   2.139   6.213
 8037TIP3   OH224055   2.445   0.675   4.877
 8037TIP3    H124056   2.416   0.605   4.935
 8037TIP3    H224057   2.451   0.752   4.934
 8038TIP3   OH224058   2.228   2.829   0.881
 8038TIP3    H124059   2.312   2.865   0.854
 8038TIP3    H224060   2.246   2.786   0.965
 8039TIP3   OH224061   7.816   1.120   4.545
 8039TIP3    H124062   7.772   1.077   4.472
 8039TIP3    H224063   7.898   1.153   4.508
 8040TIP3   OH224064   4.662   1.708   2.559
 8040TIP3    H124065   4.728   1.695   2.628
 8040TIP3    H224066   4.588   1.748   2.603
 8041TIP3   OH224067   6.471   1.633   4.218
 8041TIP3    H124068   6.562   1.634   4.190
 8041TIP3    H224069   6.471   1.577   4.296
 8042TIP3   OH224070   2.074   1.105   3.092
 8042TIP3    H124071   2.134   1.134   3.162
 8042TIP3    H224072   2.099   1.015   3.075
 8043TIP3   OH224073   0.911   0.959   5.462
 8043TIP3    H124074   0.834   0.997   5.505
 8043TIP3    H224075   0.884   0.871   5.437
 8044TIP3   OH224076   2.476   2.498   1.338
 8044TIP3    H124077   2.451   2.450   1.259
 8044TIP3    H224078   2.395   2.538   1.368
 8045TIP3   OH224079   1.523   4.762   1.404
 8045TIP3    H124080   1.493   4.793   1.490
 8045TIP3    H224081   1.488   4.673   1.397
 8046TIP3   OH224082   1.162   6.029   5.210
 8046TIP3    H124083   1.249   5.989   5.202
 8046TIP3    H224084   1.153   6.048   5.304
 8047TIP3   OH224085   5.826   3.537   4.211
 8047TIP3    H124086   5.845   3.614   4.156
 8047TIP3    H224087   5.904   3.482   4.202
 8048TIP3   OH224088   7.743   0.281   1.150
 8048TIP3    H124089   7.778   0.370   1.151
 8048TIP3    H224090   7.819   0.225   1.135
 8049TIP3   OH224091   3.780   1.192   2.021
 8049TIP3    H124092   3.775   1.266   2.083
 8049TIP3    H224093   3.854   1.213   1.964
 8050TIP3   OH224094   7.848   3.265   4.228
 8050TIP3    H124095   7.816   3.289   4.315
 8050TIP3    H224096   7.837   3.345   4.176
 8051TIP3   OH224097   5.100   3.127   1.200
 8051TIP3    H124098   5.077   3.186   1.128
 8051TIP3    H224099   5.193   3.107   1.186
 8052TIP3   OH224100   2.244   3.299   1.737
 8052TIP3    H124101   2.180   3.362   1.769
 8052TIP3    H224102   2.305   3.351   1.685
 8053TIP3   OH224103   3.928   7.428   6.280
 8053TIP3    H124104   3.860   7.495   6.291
 8053TIP3    H224105   3.937   7.389   6.366
 8054TIP3   OH224106   5.372   6.365   4.673
 8054TIP3    H124107   5.431   6.440   4.685
 8054TIP3    H224108   5.404   6.300   4.735
 8055TIP3   OH224109   0.344   7.354   3.310
 8055TIP3    H124110   0.434   7.328   3.329
 8055TIP3    H224111   0.323   7.420   3.377
 8056TIP3   OH224112   7.143   3.819   0.074
 8056TIP3    H124113   7.219   3.781   0.030
 8056TIP3    H224114   7.124   3.760   0.147
 8057TIP3   OH224115   7.756   4.811   1.352
 8057TIP3    H124116   7.719   4.739   1.301
 8057TIP3    H224117   7.827   4.770   1.402
 8058TIP3   OH224118   4.886   1.131   1.565
 8058TIP3    H124119   4.920   1.145   1.476
 8058TIP3    H224120   4.853   1.041   1.564
 8059TIP3   OH224121   6.882   6.746   4.875
 8059TIP3    H124122   6.946   6.804   4.834
 8059TIP3    H224123   6.914   6.658   4.855
 8060TIP3   OH224124   4.555   3.478   4.730
 8060TIP3    H124125   4.537   3.498   4.822
 8060TIP3    H224126   4.516   3.551   4.682
 8061TIP3   OH224127   5.093   5.427   1.614
 8061TIP3    H124128   5.028   5.400   1.549
 8061TIP3    H224129   5.123   5.512   1.584
 8062TIP3   OH224130   4.756   3.999   2.498
 8062TIP3    H124131   4.754   3.904   2.510
 8062TIP3    H224132   4.751   4.035   2.586
 8063TIP3   OH224133   5.182   3.339   5.692
 8063TIP3    H124134   5.186   3.368   5.783
 8063TIP3    H224135   5.222   3.252   5.692
 8064TIP3   OH224136   4.102  -0.010   0.673
 8064TIP3    H124137   4.167  -0.048   0.732
 8064TIP3    H224138   4.124   0.083   0.671
 8065TIP3   OH224139   2.060   7.121   5.706
 8065TIP3    H124140   2.098   7.183   5.644
 8065TIP3    H224141   2.029   7.048   5.651
 8066TIP3   OH224142   6.253   5.680   1.881
 8066TIP3    H124143   6.290   5.618   1.944
 8066TIP3    H224144   6.268   5.766   1.921
 8067TIP3   OH224145   1.831   3.152   3.063
 8067TIP3    H124146   1.855   3.121   3.151
 8067TIP3    H224147   1.849   3.077   3.006
 8068TIP3   OH224148   8.034   2.248   6.318
 8068TIP3    H124149   7.992   2.188   6.379
 8068TIP3    H224150   8.095   2.298   6.372
 8069TIP3   OH224151   5.071   0.172   2.166
 8069TIP3    H124152   5.012   0.149   2.095
 8069TIP3    H224153   5.013   0.193   2.240
 8070TIP3   OH224154   1.639   2.757   2.543
 8070TIP3    H124155   1.668   2.726   2.629
 8070TIP3    H224156   1.548   2.783   2.556
 8071TIP3   OH224157   1.615   5.128   3.325
 8071TIP3    H124158   1.674   5.181   3.379
 8071TIP3    H224159   1.669   5.101   3.251
 8072TIP3   OH224160   1.408   2.615   4.109
 8072TIP3    H124161   1.449   2.529   4.112
 8072TIP3    H224162   1.321   2.599   4.072
 8073TIP3   OH224163   1.960   7.505   3.725
 8073TIP3    H124164   1.907   7.430   3.752
 8073TIP3    H224165   1.999   7.537   3.806
 8074TIP3   OH224166   7.983   2.718   3.695
 8074TIP3    H124167   7.942   2.776   3.631
 8074TIP3    H224168   8.074   2.746   3.697
 8075TIP3   OH224169   6.675   0.527   6.254
 8075TIP3    H124170   6.650   0.454   6.311
 8075TIP3    H224171   6.730   0.488   6.187
 8076TIP3   OH224172   2.521   7.382   1.729
 8076TIP3    H124173   2.521   7.289   1.707
 8076TIP3    H224174   2.612   7.400   1.753
 8077TIP3   OH224175   5.896   5.469   5.343
 8077TIP3    H124176   5.860   5.382   5.326
 8077TIP3    H224177   5.822   5.529   5.332
 8078TIP3   OH224178   5.377   6.689   4.875
 8078TIP3    H124179   5.337   6.699   4.962
 8078TIP3    H224180   5.335   6.611   4.838
 8079TIP3   OH224181   3.953   5.047   6.643
 8079TIP3    H124182   3.910   5.122   6.604
 8079TIP3    H224183   3.890   4.975   6.634
 8080TIP3   OH224184   3.330   5.075   1.989
 8080TIP3    H124185   3.398   5.091   2.055
 8080TIP3    H224186   3.376   5.084   1.905
 8081TIP3   OH224187   2.857   4.506   5.663
 8081TIP3    H124188   2.942   4.480   5.627
 8081TIP3    H224189   2.821   4.566   5.598
 8082TIP3   OH224190   0.985   3.424   1.730
 8082TIP3    H124191   1.008   3.354   1.791
 8082TIP3    H224192   0.890   3.434   1.740
 8083TIP3   OH224193   3.738   1.050   0.785
 8083TIP3    H124194   3.810   1.099   0.826
 8083TIP3    H224195   3.732   1.087   0.697
 8084TIP3   OH224196   1.432   5.317   6.273
 8084TIP3    H124197   1.367   5.261   6.315
 8084TIP3    H224198   1.406   5.320   6.181
 8085TIP3   OH224199   4.872   7.642   4.441
 8085TIP3    H124200   4.968   7.649   4.447
 8085TIP3    H224201   4.856   7.596   4.359
 8086TIP3   OH224202   1.693   2.032   1.317
 8086TIP3    H124203   1.640   1.953   1.309
 8086TIP3    H224204   1.636   2.103   1.288
 8087TIP3   OH224205   2.833   0.143   3.758
 8087TIP3    H124206   2.835   0.052   3.726
 8087TIP3    H224207   2.741   0.169   3.751
 8088TIP3   OH224208   6.566   3.634   3.548
 8088TIP3    H124209   6.583   3.564   3.484
 8088TIP3    H224210   6.594   3.598   3.632
 8089TIP3   OH224211   2.232   0.118   2.158
 8089TIP3    H124212   2.277   0.040   2.191
 8089TIP3    H224213   2.250   0.118   2.064
 8090TIP3   OH224214   4.573   7.400   3.009
 8090TIP3    H124215   4.630   7.335   2.967
 8090TIP3    H224216   4.529   7.444   2.936
 8091TIP3   OH224217   5.303   2.340   0.237
 8091TIP3    H124218   5.252   2.350   0.317
 8091TIP3    H224219   5.258   2.395   0.173
 8092TIP3   OH224220   5.477   7.796   0.452
 8092TIP3    H124221   5.534   7.870   0.432
 8092TIP3    H224222   5.472   7.747   0.370
 8093TIP3   OH224223   2.671   4.675   4.681
 8093TIP3    H124224   2.579   4.667   4.706
 8093TIP3    H224225   2.695   4.588   4.649
 8094TIP3   OH224226   1.789   5.032   4.068
 8094TIP3    H124227   1.882   5.014   4.054
 8094TIP3    H224228   1.743   4.959   4.025
 8095TIP3   OH224229   4.509   3.229   1.265
 8095TIP3    H124230   4.578   3.273   1.316
 8095TIP3    H224231   4.427   3.262   1.302
 8096TIP3   OH224232   4.896   1.327   1.000
 8096TIP3    H124233   4.894   1.397   1.064
 8096TIP3    H224234   4.850   1.255   1.041
 8097TIP3   OH224235   1.918   2.018   2.469
 8097TIP3    H124236   1.959   1.963   2.536
 8097TIP3    H224237   1.975   2.095   2.463
 8098TIP3   OH224238   2.292   1.302   5.495
 8098TIP3    H124239   2.255   1.258   5.571
 8098TIP3    H224240   2.245   1.265   5.420
 8099TIP3   OH224241   5.158   1.693   3.519
 8099TIP3    H124242   5.217   1.683   3.444
 8099TIP3    H224243   5.102   1.615   3.516
 8100TIP3   OH224244   2.597   3.088   6.283
 8100TIP3    H124245   2.515   3.110   6.328
 8100TIP3    H224246   2.570   3.041   6.205
 8101TIP3   OH224247   2.590   7.356   1.057
 8101TIP3    H124248   2.523   7.407   1.103
 8101TIP3    H224249   2.651   7.331   1.126
 8102TIP3   OH224250   2.784   3.855   4.483
 8102TIP3    H124251   2.796   3.930   4.542
 8102TIP3    H224252   2.820   3.780   4.530
 8103TIP3   OH224253   4.430   6.016   6.560
 8103TIP3    H124254   4.435   5.998   6.654
 8103TIP3    H224255   4.336   6.016   6.540
 8104TIP3   OH224256   6.640   5.545   5.470
 8104TIP3    H124257   6.601   5.496   5.398
 8104TIP3    H224258   6.606   5.634   5.460
 8105TIP3   OH224259   3.880   6.933   1.563
 8105TIP3    H124260   3.903   6.915   1.472
 8105TIP3    H224261   3.895   6.850   1.609
 8106TIP3   OH224262   2.063   6.335   4.597
 8106TIP3    H124263   2.000   6.286   4.545
 8106TIP3    H224264   2.023   6.339   4.685
 8107TIP3   OH224265   1.859   0.859   4.452
 8107TIP3    H124266   1.952   0.842   4.465
 8107TIP3    H224267   1.848   0.857   4.357
 8108TIP3   OH224268   8.264   6.892   5.351
 8108TIP3    H124269   8.356   6.875   5.335
 8108TIP3    H224270   8.242   6.837   5.427
 8109TIP3   OH224271   3.883   7.660   1.514
 8109TIP3    H124272   3.906   7.716   1.440
 8109TIP3    H224273   3.967   7.643   1.558
 8110TIP3   OH224274   8.260   3.154   1.194
 8110TIP3    H124275   8.168   3.176   1.208
 8110TIP3    H224276   8.284   3.101   1.271
 8111TIP3   OH224277   1.285   0.627   4.038
 8111TIP3    H124278   1.250   0.716   4.031
 8111TIP3    H224279   1.303   0.616   4.132
 8112TIP3   OH224280   5.848   1.843   5.992
 8112TIP3    H124281   5.861   1.896   6.070
 8112TIP3    H224282   5.762   1.803   6.004
 8113TIP3   OH224283   4.871   6.173   1.605
 8113TIP3    H124284   4.867   6.091   1.555
 8113TIP3    H224285   4.962   6.202   1.595
 8114TIP3   OH224286   1.345   1.023   4.578
 8114TIP3    H124287   1.351   1.059   4.666
 8114TIP3    H224288   1.336   0.928   4.591
 8115TIP3   OH224289   2.720   5.317   5.758
 8115TIP3    H124290   2.747   5.409   5.760
 8115TIP3    H224291   2.723   5.293   5.665
 8116TIP3   OH224292   1.233   2.328   5.641
 8116TIP3    H124293   1.186   2.313   5.722
 8116TIP3    H224294   1.310   2.270   5.647
 8117TIP3   OH224295   6.128   0.902   3.506
 8117TIP3    H124296   6.212   0.857   3.518
 8117TIP3    H224297   6.151   0.990   3.478
 8118TIP3   OH224298   5.369   2.508   5.839
 8118TIP3    H124299   5.379   2.468   5.753
 8118TIP3    H224300   5.274   2.517   5.850
 8119TIP3   OH224301   0.307   4.043   4.607
 8119TIP3    H124302   0.214   4.045   4.630
 8119TIP3    H224303   0.349   4.099   4.673
 8120TIP3   OH224304   2.034   6.136   0.174
 8120TIP3    H124305   1.969   6.072   0.203
 8120TIP3    H224306   1.988   6.220   0.177
 8121TIP3   OH224307   3.878   1.468   0.932
 8121TIP3    H124308   3.824   1.506   1.001
 8121TIP3    H224309   3.939   1.538   0.907
 8122TIP3   OH224310   0.015   4.370   3.427
 8122TIP3    H124311   0.060   4.337   3.350
 8122TIP3    H224312  -0.036   4.445   3.396
 8123TIP3   OH224313   1.233   3.931   5.387
 8123TIP3    H124314   1.272   3.847   5.363
 8123TIP3    H224315   1.177   3.953   5.312
 8124TIP3   OH224316   5.981   2.269   4.689
 8124TIP3    H124317   5.996   2.325   4.766
 8124TIP3    H224318   5.947   2.328   4.623
 8125TIP3   OH224319   6.912   3.796   6.520
 8125TIP3    H124320   6.987   3.855   6.513
 8125TIP3    H224321   6.836   3.853   6.507
 8126TIP3   OH224322   2.203   7.381   3.118
 8126TIP3    H124323   2.112   7.392   3.147
 8126TIP3    H224324   2.226   7.465   3.079
 8127TIP3   OH224325   4.305   3.080   0.174
 8127TIP3    H124326   4.398   3.081   0.196
 8127TIP3    H224327   4.262   3.114   0.253
 8128TIP3   OH224328   7.828   0.054   2.429
 8128TIP3    H124329   7.822   0.123   2.362
 8128TIP3    H224330   7.920   0.030   2.430
 8129TIP3   OH224331   3.409   3.384   5.333
 8129TIP3    H124332   3.491   3.368   5.287
 8129TIP3    H224333   3.353   3.427   5.269
 8130TIP3   OH224334   6.080   3.305   1.950
 8130TIP3    H124335   6.011   3.366   1.922
 8130TIP3    H224336   6.099   3.253   1.872
 8131TIP3   OH224337   6.099   0.338   4.078
 8131TIP3    H124338   6.042   0.406   4.041
 8131TIP3    H224339   6.049   0.257   4.068
 8132TIP3   OH224340   0.205   5.053   6.774
 8132TIP3    H124341   0.211   4.958   6.766
 8132TIP3    H224342   0.149   5.080   6.700
 8133TIP3   OH224343   8.084   6.242   2.363
 8133TIP3    H124344   8.141   6.185   2.312
 8133TIP3    H224345   8.002   6.243   2.314
 8134TIP3   OH224346   4.347   0.852   4.896
 8134TIP3    H124347   4.425   0.815   4.938
 8134TIP3    H224348   4.287   0.869   4.968
 8135TIP3   OH224349   7.650   7.135   3.066
 8135TIP3    H124350   7.598   7.198   3.016
 8135TIP3    H224351   7.590   7.064   3.085
 8136TIP3   OH224352   3.270   4.184   0.964
 8136TIP3    H124353   3.351   4.151   1.003
 8136TIP3    H224354   3.279   4.165   0.870
 8137TIP3   OH224355   3.213   1.939   5.602
 8137TIP3    H124356   3.134   1.973   5.644
 8137TIP3    H224357   3.228   1.854   5.644
 8138TIP3   OH224358   7.253   0.088   1.332
 8138TIP3    H124359   7.177   0.139   1.361
 8138TIP3    H224360   7.322   0.153   1.319
 8139TIP3   OH224361   4.326   6.910   3.460
 8139TIP3    H124362   4.322   6.857   3.380
 8139TIP3    H224363   4.417   6.904   3.488
 8140TIP3   OH224364   7.698   6.510   0.946
 8140TIP3    H124365   7.670   6.419   0.939
 8140TIP3    H224366   7.747   6.514   1.028
 8141TIP3   OH224367   1.371   4.859   5.419
 8141TIP3    H124368   1.401   4.790   5.359
 8141TIP3    H224369   1.290   4.825   5.456
 8142TIP3   OH224370   0.689   1.629   0.992
 8142TIP3    H124371   0.708   1.676   1.073
 8142TIP3    H224372   0.621   1.682   0.950
 8143TIP3   OH224373   3.121   7.732   0.685
 8143TIP3    H124374   3.088   7.722   0.775
 8143TIP3    H224375   3.190   7.798   0.693
 8144TIP3   OH224376   2.286   3.204   0.094
 8144TIP3    H124377   2.263   3.295   0.076
 8144TIP3    H224378   2.220   3.153   0.047
 8145TIP3   OH224379   1.786   4.745   0.368
 8145TIP3    H124380   1.854   4.682   0.347
 8145TIP3    H224381   1.831   4.815   0.415
 8146TIP3   OH224382   6.931   1.625   6.020
 8146TIP3    H124383   6.985   1.703   6.009
 8146TIP3    H224384   6.991   1.561   6.059
 8147TIP3   OH224385   3.163   6.871   5.158
 8147TIP3    H124386   3.068   6.857   5.156
 8147TIP3    H224387   3.180   6.934   5.088
 8148TIP3   OH224388   2.223   5.021   1.540
 8148TIP3    H124389   2.140   4.995   1.499
 8148TIP3    H224390   2.201   5.099   1.591
 8149TIP3   OH224391   2.074   6.318   5.852
 8149TIP3    H124392   2.038   6.290   5.768
 8149TIP3    H224393   2.066   6.413   5.851
 8150TIP3   OH224394   1.466   7.126   0.287
 8150TIP3    H124395   1.387   7.171   0.258
 8150TIP3    H224396   1.478   7.155   0.377
 8151TIP3   OH224397   0.749   2.331   0.526
 8151TIP3    H124398   0.708   2.346   0.441
 8151TIP3    H224399   0.687   2.275   0.573
 8152TIP3   OH224400   2.051   6.414   5.189
 8152TIP3    H124401   2.127   6.465   5.162
 8152TIP3    H224402   2.079   6.370   5.270
 8153TIP3   OH224403   7.340   6.544   3.472
 8153TIP3    H124404   7.245   6.554   3.476
 8153TIP3    H224405   7.365   6.513   3.559
 8154TIP3   OH224406   5.021   3.636   4.946
 8154TIP3    H124407   5.001   3.726   4.918
 8154TIP3    H224408   4.942   3.608   4.992
 8155TIP3   OH224409   7.642   1.387   5.255
 8155TIP3    H124410   7.596   1.319   5.205
 8155TIP3    H224411   7.586   1.403   5.331
 8156TIP3   OH224412   8.298   1.513   2.403
 8156TIP3    H124413   8.248   1.583   2.360
 8156TIP3    H224414   8.371   1.559   2.445
 8157TIP3   OH224415   1.612   1.033   1.496
 8157TIP3    H124416   1.664   1.076   1.565
 8157TIP3    H224417   1.603   0.943   1.526
 8158TIP3   OH224418   6.462   4.350   2.793
 8158TIP3    H124419   6.466   4.257   2.767
 8158TIP3    H224420   6.554   4.377   2.799
 8159TIP3   OH224421   3.688   0.212   3.413
 8159TIP3    H124422   3.775   0.216   3.372
 8159TIP3    H224423   3.667   0.303   3.433
 8160TIP3   OH224424   1.111   1.936   6.389
 8160TIP3    H124425   1.061   1.919   6.469
 8160TIP3    H224426   1.202   1.923   6.414
 8161TIP3   OH224427   0.121   0.778   4.036
 8161TIP3    H124428   0.133   0.689   4.003
 8161TIP3    H224429   0.207   0.805   4.066
 8162TIP3   OH224430   4.490   3.621   5.670
 8162TIP3    H124431   4.451   3.575   5.745
 8162TIP3    H224432   4.503   3.711   5.701
 8163TIP3   OH224433   0.348   4.007   2.356
 8163TIP3    H124434   0.385   4.055   2.282
 8163TIP3    H224435   0.424   3.977   2.406
 8164TIP3   OH224436   7.403   5.786   0.531
 8164TIP3    H124437   7.333   5.745   0.480
 8164TIP3    H224438   7.367   5.871   0.556
 8165TIP3   OH224439   7.950   0.671   5.489
 8165TIP3    H124440   7.989   0.610   5.427
 8165TIP3    H224441   7.893   0.726   5.436
 8166TIP3   OH224442   0.313   5.838   3.436
 8166TIP3    H124443   0.248   5.825   3.505
 8166TIP3    H224444   0.360   5.917   3.462
 8167TIP3   OH224445   7.903   1.147   1.889
 8167TIP3    H124446   7.931   1.173   1.977
 8167TIP3    H224447   7.985   1.134   1.841
 8168TIP3   OH224448   7.678   4.548   3.380
 8168TIP3    H124449   7.694   4.455   3.364
 8168TIP3    H224450   7.730   4.593   3.313
 8169TIP3   OH224451   5.396   0.831   3.210
 8169TIP3    H124452   5.448   0.863   3.137
 8169TIP3    H224453   5.311   0.808   3.171
 8170TIP3   OH224454   1.605   0.519   0.554
 8170TIP3    H124455   1.580   0.462   0.481
 8170TIP3    H224456   1.642   0.596   0.512
 8171TIP3   OH224457   3.468   2.375   2.482
 8171TIP3    H124458   3.415   2.301   2.510
 8171TIP3    H224459   3.405   2.444   2.462
 8172TIP3   OH224460   4.107   3.067   1.842
 8172TIP3    H124461   4.018   3.036   1.859
 8172TIP3    H224462   4.159   3.027   1.911
 8173TIP3   OH224463   3.796   3.733   0.308
 8173TIP3    H124464   3.824   3.687   0.387
 8173TIP3    H224465   3.746   3.808   0.340
 8174TIP3   OH224466   1.015   3.221   4.868
 8174TIP3    H124467   1.076   3.248   4.937
 8174TIP3    H224468   0.937   3.274   4.882
 8175TIP3   OH224469   2.360   4.372   5.150
 8175TIP3    H124470   2.409   4.367   5.232
 8175TIP3    H224471   2.425   4.351   5.083
 8176TIP3   OH224472   3.505   3.598   5.021
 8176TIP3    H124473   3.532   3.506   5.014
 8176TIP3    H224474   3.584   3.648   4.999
 8177TIP3   OH224475   0.272   0.168   4.107
 8177TIP3    H124476   0.180   0.186   4.086
 8177TIP3    H224477   0.273   0.075   4.129
 8178TIP3   OH224478   8.269   4.679   0.090
 8178TIP3    H124479   8.253   4.709   0.179
 8178TIP3    H224480   8.364   4.663   0.086
 8179TIP3   OH224481   2.197   1.698   1.505
 8179TIP3    H124482   2.112   1.698   1.460
 8179TIP3    H224483   2.249   1.763   1.457
 8180TIP3   OH224484   7.244   6.956   3.522
 8180TIP3    H124485   7.167   7.003   3.489
 8180TIP3    H224486   7.208   6.878   3.565
 8181TIP3   OH224487   2.025   2.273   2.737
 8181TIP3    H124488   2.068   2.250   2.654
 8181TIP3    H224489   2.036   2.367   2.745
 8182TIP3   OH224490   5.234   7.561   5.434
 8182TIP3    H124491   5.193   7.477   5.457
 8182TIP3    H224492   5.313   7.536   5.386
 8183TIP3   OH224493   1.902   1.393   5.619
 8183TIP3    H124494   1.816   1.369   5.653
 8183TIP3    H224495   1.961   1.384   5.693
 8184TIP3   OH224496   7.046   6.369   0.763
 8184TIP3    H124497   6.965   6.318   0.772
 8184TIP3    H224498   7.031   6.447   0.817
 8185TIP3   OH224499   8.028   3.276   6.184
 8185TIP3    H124500   8.070   3.304   6.103
 8185TIP3    H224501   7.944   3.322   6.185
 8186TIP3   OH224502   1.939   4.601   5.403
 8186TIP3    H124503   1.944   4.602   5.308
 8186TIP3    H224504   1.968   4.513   5.428
 8187TIP3   OH224505   3.053   7.357   4.946
 8187TIP3    H124506   3.112   7.420   4.904
 8187TIP3    H224507   3.104   7.319   5.017
 8188TIP3   OH224508   4.087   1.664   0.983
 8188TIP3    H124509   4.169   1.629   1.017
 8188TIP3    H224510   4.034   1.683   1.061
 8189TIP3   OH224511   4.649   2.546   4.931
 8189TIP3    H124512   4.722   2.524   4.988
 8189TIP3    H224513   4.672   2.631   4.894
 8190TIP3   OH224514   7.163   4.717   6.704
 8190TIP3    H124515   7.185   4.799   6.750
 8190TIP3    H224516   7.165   4.650   6.772
 8191TIP3   OH224517   4.392   3.151   5.086
 8191TIP3    H124518   4.311   3.103   5.106
 8191TIP3    H224519   4.368   3.210   5.016
 8192TIP3   OH224520   4.362   3.931   3.527
 8192TIP3    H124521   4.285   3.876   3.545
 8192TIP3    H224522   4.325   4.013   3.494
 8193TIP3   OH224523   4.232   1.617   2.684
 8193TIP3    H124524   4.211   1.692   2.627
 8193TIP3    H224525   4.154   1.606   2.738
 8194TIP3   OH224526   7.143   0.525   6.109
 8194TIP3    H124527   7.114   0.436   6.127
 8194TIP3    H224528   7.073   0.581   6.144
 8195TIP3   OH224529   2.754   0.248   0.460
 8195TIP3    H124530   2.777   0.248   0.553
 8195TIP3    H224531   2.821   0.193   0.418
 8196TIP3   OH224532   0.277   5.764   2.929
 8196TIP3    H124533   0.284   5.848   2.884
 8196TIP3    H224534   0.208   5.717   2.881
 8197TIP3   OH224535   6.017   3.652   0.650
 8197TIP3    H124536   6.079   3.591   0.690
 8197TIP3    H224537   6.057   3.675   0.566
 8198TIP3   OH224538   8.062   0.303   1.506
 8198TIP3    H124539   8.038   0.279   1.595
 8198TIP3    H224540   7.984   0.346   1.470
 8199TIP3   OH224541   2.969   5.071   0.093
 8199TIP3    H124542   2.929   5.070   0.180
 8199TIP3    H224543   3.055   5.031   0.105
 8200TIP3   OH224544   0.625   3.035   4.707
 8200TIP3    H124545   0.652   2.980   4.633
 8200TIP3    H224546   0.554   3.089   4.672
 8201TIP3   OH224547   5.989   5.541   0.351
 8201TIP3    H124548   5.960   5.452   0.330
 8201TIP3    H224549   6.022   5.576   0.269
 8202TIP3   OH224550   2.373   4.305   4.740
 8202TIP3    H124551   2.372   4.210   4.731
 8202TIP3    H224552   2.305   4.335   4.679
 8203TIP3   OH224553   5.160   0.828   1.788
 8203TIP3    H124554   5.086   0.879   1.819
 8203TIP3    H224555   5.237   0.881   1.809
 8204TIP3   OH224556   1.458   1.496   6.507
 8204TIP3    H124557   1.386   1.550   6.475
 8204TIP3    H224558   1.461   1.513   6.601
 8205TIP3   OH224559   6.805   4.104   6.554
 8205TIP3    H124560   6.748   4.100   6.477
 8205TIP3    H224561   6.888   4.066   6.525
 8206TIP3   OH224562   0.619   5.399   3.688
 8206TIP3    H124563   0.633   5.492   3.708
 8206TIP3    H224564   0.657   5.353   3.762
 8207TIP3   OH224565   1.685   6.391   4.732
 8207TIP3    H124566   1.632   6.348   4.800
 8207TIP3    H224567   1.775   6.366   4.752
 8208TIP3   OH224568   0.498   4.700   0.882
 8208TIP3    H124569   0.464   4.777   0.927
 8208TIP3    H224570   0.576   4.731   0.836
 8209TIP3   OH224571   1.630   2.708   4.587
 8209TIP3    H124572   1.605   2.800   4.597
 8209TIP3    H224573   1.601   2.685   4.499
 8210TIP3   OH224574   2.331   7.302   1.406
 8210TIP3    H124575   2.409   7.332   1.360
 8210TIP3    H224576   2.299   7.380   1.452
 8211TIP3   OH224577   3.579   2.655   2.001
 8211TIP3    H124578   3.588   2.580   2.060
 8211TIP3    H224579   3.655   2.710   2.020
 8212TIP3   OH224580   6.376   0.384   5.579
 8212TIP3    H124581   6.303   0.323   5.573
 8212TIP3    H224582   6.379   0.427   5.494
 8213TIP3   OH224583   3.251   1.854   0.613
 8213TIP3    H124584   3.252   1.775   0.666
 8213TIP3    H224585   3.193   1.914   0.660
 8214TIP3   OH224586   0.457   6.688   0.754
 8214TIP3    H124587   0.420   6.697   0.666
 8214TIP3    H224588   0.439   6.772   0.796
 8215TIP3   OH224589  -0.029   0.299   3.206
 8215TIP3    H124590   0.057   0.339   3.189
 8215TIP3    H224591  -0.038   0.234   3.136
 8216TIP3   OH224592   2.824   2.144   0.368
 8216TIP3    H124593   2.899   2.149   0.309
 8216TIP3    H224594   2.824   2.053   0.399
 8217TIP3   OH224595   4.071   1.686   3.178
 8217TIP3    H124596   3.998   1.632   3.210
 8217TIP3    H224597   4.149   1.642   3.212
 8218TIP3   OH224598   1.236   6.855   1.814
 8218TIP3    H124599   1.238   6.949   1.801
 8218TIP3    H224600   1.147   6.837   1.844
 8219TIP3   OH224601   6.303   1.064   0.991
 8219TIP3    H124602   6.222   1.064   0.940
 8219TIP3    H224603   6.320   1.156   1.010
 8220TIP3   OH224604   7.996   4.973   3.882
 8220TIP3    H124605   7.975   4.993   3.974
 8220TIP3    H224606   8.069   5.031   3.862
 8221TIP3   OH224607   6.374   0.949   0.728
 8221TIP3    H124608   6.340   1.012   0.791
 8221TIP3    H224609   6.401   0.874   0.782
 8222TIP3   OH224610   4.304   5.810   4.683
 8222TIP3    H124611   4.255   5.748   4.628
 8222TIP3    H224612   4.254   5.891   4.676
 8223TIP3   OH224613   3.848   5.140   5.005
 8223TIP3    H124614   3.924   5.106   4.957
 8223TIP3    H224615   3.877   5.226   5.036
 8224TIP3   OH224616   0.231   4.989   2.380
 8224TIP3    H124617   0.273   5.069   2.348
 8224TIP3    H224618   0.280   4.918   2.339
 8225TIP3   OH224619   7.946   4.925   5.676
 8225TIP3    H124620   7.974   4.926   5.584
 8225TIP3    H224621   7.982   5.005   5.713
 8226TIP3   OH224622   7.123   6.266   2.219
 8226TIP3    H124623   7.109   6.172   2.236
 8226TIP3    H224624   7.178   6.268   2.141
 8227TIP3   OH224625   6.075   5.171   5.504
 8227TIP3    H124626   6.034   5.232   5.442
 8227TIP3    H224627   6.144   5.128   5.453
 8228TIP3   OH224628   3.298   0.509   2.078
 8228TIP3    H124629   3.287   0.586   2.023
 8228TIP3    H224630   3.384   0.520   2.118
 8229TIP3   OH224631   7.028   2.420   5.131
 8229TIP3    H124632   6.935   2.432   5.152
 8229TIP3    H224633   7.031   2.422   5.036
 8230TIP3   OH224634   8.140   6.085   0.032
 8230TIP3    H124635   8.067   6.131  -0.009
 8230TIP3    H224636   8.218   6.132   0.002
 8231TIP3   OH224637   1.949   1.705   2.816
 8231TIP3    H124638   1.967   1.671   2.729
 8231TIP3    H224639   1.951   1.628   2.873
 8232TIP3   OH224640   2.786   7.123   4.868
 8232TIP3    H124641   2.744   7.200   4.907
 8232TIP3    H224642   2.744   7.049   4.911
 8233TIP3   OH224643   0.966   5.568   3.719
 8233TIP3    H124644   0.935   5.484   3.686
 8233TIP3    H224645   0.968   5.625   3.642
 8234TIP3   OH224646   0.674   0.104   2.659
 8234TIP3    H124647   0.691   0.119   2.566
 8234TIP3    H224648   0.647   0.189   2.693
 8235TIP3   OH224649   7.795   6.736   2.996
 8235TIP3    H124650   7.889   6.719   3.005
 8235TIP3    H224651   7.754   6.675   3.057
 8236TIP3   OH224652   5.151   5.063   5.754
 8236TIP3    H124653   5.185   5.101   5.835
 8236TIP3    H224654   5.121   5.139   5.704
 8237TIP3   OH224655   7.812   7.189   1.831
 8237TIP3    H124656   7.831   7.279   1.857
 8237TIP3    H224657   7.743   7.198   1.765
 8238TIP3   OH224658   0.150   4.690   6.564
 8238TIP3    H124659   0.096   4.693   6.643
 8238TIP3    H224660   0.223   4.632   6.587
 8239TIP3   OH224661   2.022   4.398   0.525
 8239TIP3    H124662   2.115   4.376   0.530
 8239TIP3    H224663   2.005   4.447   0.605
 8240TIP3   OH224664   6.195   0.948   4.230
 8240TIP3    H124665   6.232   0.862   4.250
 8240TIP3    H224666   6.271   1.002   4.208
 8241TIP3   OH224667   1.821   0.322   0.024
 8241TIP3    H124668   1.732   0.286   0.020
 8241TIP3    H224669   1.878   0.247   0.009
 8242TIP3   OH224670   6.590   2.935   5.834
 8242TIP3    H124671   6.549   3.022   5.827
 8242TIP3    H224672   6.640   2.940   5.915
 8243TIP3   OH224673   7.203   1.510   2.003
 8243TIP3    H124674   7.279   1.464   1.968
 8243TIP3    H224675   7.136   1.500   1.935
 8244TIP3   OH224676   5.057   0.775   2.561
 8244TIP3    H124677   5.022   0.846   2.507
 8244TIP3    H224678   4.985   0.751   2.619
 8245TIP3   OH224679   1.147   5.118   0.981
 8245TIP3    H124680   1.197   5.058   0.924
 8245TIP3    H224681   1.187   5.203   0.966
 8246TIP3   OH224682   5.101   5.844   1.893
 8246TIP3    H124683   5.180   5.797   1.866
 8246TIP3    H224684   5.039   5.832   1.821
 8247TIP3   OH224685   6.893   5.891   2.269
 8247TIP3    H124686   6.933   5.892   2.182
 8247TIP3    H224687   6.941   5.957   2.318
 8248TIP3   OH224688   7.188   5.767   3.145
 8248TIP3    H124689   7.122   5.830   3.175
 8248TIP3    H224690   7.216   5.724   3.226
 8249TIP3   OH224691   7.229   0.313   3.266
 8249TIP3    H124692   7.143   0.313   3.223
 8249TIP3    H224693   7.287   0.273   3.201
 8250TIP3   OH224694   3.126   0.637   0.062
 8250TIP3    H124695   3.126   0.721   0.016
 8250TIP3    H224696   3.211   0.633   0.105
 8251TIP3   OH224697   6.254   3.047   5.643
 8251TIP3    H124698   6.344   3.079   5.654
 8251TIP3    H224699   6.252   2.965   5.693
 8252TIP3   OH224700   7.213   7.615   2.351
 8252TIP3    H124701   7.303   7.607   2.381
 8252TIP3    H224702   7.219   7.660   2.267
 8253TIP3   OH224703   6.273   3.438   6.704
 8253TIP3    H124704   6.302   3.360   6.751
 8253TIP3    H224705   6.315   3.511   6.749
 8254TIP3   OH224706   2.468   2.836   3.722
 8254TIP3    H124707   2.542   2.810   3.777
 8254TIP3    H224708   2.500   2.825   3.632
 8255TIP3   OH224709   4.548   4.653   6.067
 8255TIP3    H124710   4.611   4.638   5.996
 8255TIP3    H224711   4.479   4.706   6.026
 8256TIP3   OH224712   7.932   4.799   0.837
 8256TIP3    H124713   7.971   4.834   0.917
 8256TIP3    H224714   7.840   4.825   0.842
 8257TIP3   OH224715   4.277   0.328   4.867
 8257TIP3    H124716   4.331   0.326   4.788
 8257TIP3    H224717   4.318   0.264   4.925
 8258TIP3   OH224718   7.012   2.405   3.606
 8258TIP3    H124719   7.101   2.389   3.637
 8258TIP3    H224720   6.960   2.336   3.647
 8259TIP3   OH224721   2.005   6.257   1.076
 8259TIP3    H124722   2.095   6.231   1.096
 8259TIP3    H224723   1.955   6.175   1.079
 8260TIP3   OH224724   7.330   1.697   6.002
 8260TIP3    H124725   7.337   1.614   5.954
 8260TIP3    H224726   7.286   1.673   6.084
 8261TIP3   OH224727   2.998   4.579   3.919
 8261TIP3    H124728   2.965   4.608   3.834
 8261TIP3    H224729   2.921   4.567   3.973
 8262TIP3   OH224730   3.697   2.266   4.373
 8262TIP3    H124731   3.635   2.331   4.341
 8262TIP3    H224732   3.774   2.276   4.316
 8263TIP3   OH224733   0.666   3.551   1.345
 8263TIP3    H124734   0.704   3.549   1.433
 8263TIP3    H224735   0.732   3.509   1.290
 8264TIP3   OH224736   5.780   2.729   2.656
 8264TIP3    H124737   5.765   2.777   2.574
 8264TIP3    H224738   5.693   2.722   2.696
 8265TIP3   OH224739   0.010   0.471   6.709
 8265TIP3    H124740   0.090   0.502   6.751
 8265TIP3    H224741  -0.049   0.453   6.782
 8266TIP3   OH224742   3.395   3.336   4.878
 8266TIP3    H124743   3.355   3.258   4.917
 8266TIP3    H224744   3.418   3.309   4.789
 8267TIP3   OH224745   4.892   3.464   0.298
 8267TIP3    H124746   4.870   3.479   0.390
 8267TIP3    H224747   4.910   3.551   0.263
 8268TIP3   OH224748   8.185   6.701   1.405
 8268TIP3    H124749   8.146   6.743   1.482
 8268TIP3    H224750   8.171   6.608   1.419
 8269TIP3   OH224751   5.820   1.225   5.918
 8269TIP3    H124752   5.851   1.249   6.006
 8269TIP3    H224753   5.809   1.130   5.921
 8270TIP3   OH224754   7.540   5.271   3.042
 8270TIP3    H124755   7.519   5.353   3.087
 8270TIP3    H224756   7.630   5.253   3.067
 8271TIP3   OH224757   4.216   3.181   3.164
 8271TIP3    H124758   4.173   3.095   3.161
 8271TIP3    H224759   4.148   3.240   3.198
 8272TIP3   OH224760   1.387   3.391   3.689
 8272TIP3    H124761   1.430   3.423   3.769
 8272TIP3    H224762   1.441   3.318   3.660
 8273TIP3   OH224763   2.027   3.665   3.981
 8273TIP3    H124764   1.988   3.698   3.900
 8273TIP3    H224765   2.118   3.694   3.977
 8274TIP3   OH224766   4.192   5.697   6.648
 8274TIP3    H124767   4.138   5.684   6.571
 8274TIP3    H224768   4.275   5.652   6.628
 8275TIP3   OH224769   3.778   5.247   6.633
 8275TIP3    H124770   3.695   5.235   6.679
 8275TIP3    H224771   3.760   5.317   6.570
 8276TIP3   OH224772   5.306   2.890   6.179
 8276TIP3    H124773   5.364   2.965   6.194
 8276TIP3    H224774   5.348   2.842   6.108
 8277TIP3   OH224775   2.019   3.308   6.033
 8277TIP3    H124776   2.015   3.219   6.000
 8277TIP3    H224777   2.000   3.300   6.127
 8278TIP3   OH224778   2.067   4.146   6.243
 8278TIP3    H124779   2.027   4.067   6.205
 8278TIP3    H224780   2.037   4.147   6.334
 8279TIP3   OH224781   4.844   2.540   5.440
 8279TIP3    H124782   4.752   2.552   5.462
 8279TIP3    H224783   4.876   2.628   5.422
 8280TIP3   OH224784   7.864   4.672   4.103
 8280TIP3    H124785   7.826   4.600   4.052
 8280TIP3    H224786   7.793   4.736   4.111
 8281TIP3   OH224787   7.129   2.883   1.457
 8281TIP3    H124788   7.099   2.793   1.469
 8281TIP3    H224789   7.052   2.937   1.476
 8282TIP3   OH224790   7.974   6.597   1.985
 8282TIP3    H124791   7.923   6.674   2.007
 8282TIP3    H224792   7.913   6.524   1.991
 8283TIP3   OH224793   0.071   0.767   5.840
 8283TIP3    H124794   0.022   0.708   5.783
 8283TIP3    H224795   0.004   0.808   5.895
 8284TIP3   OH224796   4.872   7.088   0.410
 8284TIP3    H124797   4.933   7.146   0.456
 8284TIP3    H224798   4.906   7.084   0.321
 8285TIP3   OH224799   8.152   7.047   0.500
 8285TIP3    H124800   8.183   6.977   0.443
 8285TIP3    H224801   8.115   7.003   0.576
 8286TIP3   OH224802   7.949   1.812   3.174
 8286TIP3    H124803   7.991   1.754   3.237
 8286TIP3    H224804   7.964   1.770   3.089
 8287TIP3   OH224805   6.801   1.491   3.218
 8287TIP3    H124806   6.809   1.440   3.298
 8287TIP3    H224807   6.711   1.523   3.219
 8288TIP3   OH224808   1.964   6.257   6.096
 8288TIP3    H124809   1.893   6.224   6.041
 8288TIP3    H224810   2.019   6.307   6.036
 8289TIP3   OH224811   2.710   1.476   5.695
 8289TIP3    H124812   2.751   1.421   5.628
 8289TIP3    H224813   2.713   1.565   5.658
 8290TIP3   OH224814   0.666   6.281   2.267
 8290TIP3    H124815   0.632   6.316   2.185
 8290TIP3    H224816   0.647   6.187   2.264
 8291TIP3   OH224817   8.205   4.312   2.065
 8291TIP3    H124818   8.147   4.319   2.141
 8291TIP3    H224819   8.271   4.248   2.091
 8292TIP3   OH224820   6.906   0.061   3.938
 8292TIP3    H124821   6.884  -0.029   3.962
 8292TIP3    H224822   6.866   0.073   3.852
 8293TIP3   OH224823   3.145   3.501   2.126
 8293TIP3    H124824   3.183   3.558   2.193
 8293TIP3    H224825   3.213   3.436   2.108
 8294TIP3   OH224826   5.528   2.387   0.946
 8294TIP3    H124827   5.441   2.353   0.964
 8294TIP3    H224828   5.529   2.401   0.852
 8295TIP3   OH224829   0.986   4.527   6.366
 8295TIP3    H124830   1.078   4.501   6.371
 8295TIP3    H224831   0.989   4.623   6.364
 8296TIP3   OH224832   6.034   5.902   1.993
 8296TIP3    H124833   6.041   5.891   2.087
 8296TIP3    H224834   5.951   5.860   1.970
 8297TIP3   OH224835   5.637   3.230   4.336
 8297TIP3    H124836   5.687   3.262   4.411
 8297TIP3    H224837   5.569   3.176   4.374
 8298TIP3   OH224838   2.345   6.153   5.850
 8298TIP3    H124839   2.329   6.077   5.905
 8298TIP3    H224840   2.260   6.195   5.841
 8299TIP3   OH224841   0.383   3.882   5.490
 8299TIP3    H124842   0.435   3.945   5.441
 8299TIP3    H224843   0.322   3.935   5.541
 8300TIP3   OH224844   4.227   3.239   5.394
 8300TIP3    H124845   4.208   3.296   5.469
 8300TIP3    H224846   4.314   3.203   5.412
 8301TIP3   OH224847   3.132   0.130   5.960
 8301TIP3    H124848   3.057   0.075   5.937
 8301TIP3    H224849   3.119   0.151   6.052
 8302TIP3   OH224850   5.715   2.377   5.641
 8302TIP3    H124851   5.762   2.338   5.568
 8302TIP3    H224852   5.697   2.304   5.700
 8303TIP3   OH224853   7.585   4.054   6.630
 8303TIP3    H124854   7.669   4.074   6.590
 8303TIP3    H224855   7.603   4.051   6.724
 8304TIP3   OH224856   7.219   3.192   0.370
 8304TIP3    H124857   7.260   3.134   0.306
 8304TIP3    H224858   7.290   3.212   0.432
 8305TIP3   OH224859   0.628   6.945   6.322
 8305TIP3    H124860   0.535   6.940   6.342
 8305TIP3    H224861   0.660   6.856   6.330
 8306TIP3   OH224862   3.736   3.288   3.206
 8306TIP3    H124863   3.716   3.349   3.135
 8306TIP3    H224864   3.820   3.319   3.240
 8307TIP3   OH224865   6.099   1.123   4.442
 8307TIP3    H124866   6.115   1.064   4.368
 8307TIP3    H224867   6.144   1.204   4.417
 8308TIP3   OH224868   6.452   5.215   1.552
 8308TIP3    H124869   6.417   5.132   1.584
 8308TIP3    H224870   6.476   5.263   1.632
 8309TIP3   OH224871   0.348   0.169   5.569
 8309TIP3    H124872   0.345   0.264   5.579
 8309TIP3    H224873   0.280   0.137   5.628
 8310TIP3   OH224874  -0.045   0.851   5.265
 8310TIP3    H124875  -0.078   0.906   5.336
 8310TIP3    H224876  -0.011   0.773   5.308
 8311TIP3   OH224877   6.997   4.806   3.639
 8311TIP3    H124878   7.053   4.808   3.561
 8311TIP3    H224879   6.911   4.832   3.607
 8312TIP3   OH224880   8.075   7.716   3.717
 8312TIP3    H124881   8.001   7.699   3.660
 8312TIP3    H224882   8.151   7.716   3.659
 8313TIP3   OH224883   5.840   4.207   0.516
 8313TIP3    H124884   5.930   4.212   0.484
 8313TIP3    H224885   5.843   4.140   0.584
 8314TIP3   OH224886   6.103   2.230   3.091
 8314TIP3    H124887   6.168   2.167   3.121
 8314TIP3    H224888   6.088   2.208   3.000
 8315TIP3   OH224889   7.107   3.618   5.494
 8315TIP3    H124890   7.037   3.623   5.428
 8315TIP3    H224891   7.098   3.530   5.531
 8316TIP3   OH224892   5.972   7.597   1.666
 8316TIP3    H124893   6.058   7.587   1.625
 8316TIP3    H224894   5.909   7.580   1.596
 8317TIP3   OH224895   0.582   7.484   1.158
 8317TIP3    H124896   0.646   7.489   1.229
 8317TIP3    H224897   0.529   7.406   1.178
 8318TIP3   OH224898   1.557   1.350   5.667
 8318TIP3    H124899   1.491   1.366   5.600
 8318TIP3    H224900   1.524   1.275   5.716
 8319TIP3   OH224901   4.945   4.479   2.205
 8319TIP3    H124902   5.007   4.551   2.219
 8319TIP3    H224903   4.950   4.427   2.285
 8320TIP3   OH224904   6.279   4.548   5.095
 8320TIP3    H124905   6.266   4.469   5.148
 8320TIP3    H224906   6.326   4.518   5.018
 8321TIP3   OH224907   5.046   6.988   2.841
 8321TIP3    H124908   5.015   6.909   2.885
 8321TIP3    H224909   4.993   6.993   2.761
 8322TIP3   OH224910   1.295   4.071   3.194
 8322TIP3    H124911   1.271   4.164   3.197
 8322TIP3    H224912   1.214   4.024   3.214
 8323TIP3   OH224913   3.818   2.651   6.360
 8323TIP3    H124914   3.729   2.641   6.327
 8323TIP3    H224915   3.875   2.629   6.286
 8324TIP3   OH224916   2.281   6.753   0.532
 8324TIP3    H124917   2.207   6.726   0.587
 8324TIP3    H224918   2.338   6.801   0.591
 8325TIP3   OH224919   7.670   7.354   5.108
 8325TIP3    H124920   7.734   7.329   5.042
 8325TIP3    H224921   7.696   7.443   5.134
 8326TIP3   OH224922   1.246   0.489   3.557
 8326TIP3    H124923   1.306   0.437   3.611
 8326TIP3    H224924   1.300   0.558   3.520
 8327TIP3   OH224925   3.751   0.179   0.590
 8327TIP3    H124926   3.679   0.229   0.553
 8327TIP3    H224927   3.768   0.219   0.675
 8328TIP3   OH224928   1.794   7.650   3.039
 8328TIP3    H124929   1.859   7.628   3.106
 8328TIP3    H224930   1.847   7.682   2.965
 8329TIP3   OH224931   7.228   1.605   0.889
 8329TIP3    H124932   7.154   1.653   0.927
 8329TIP3    H224933   7.189   1.550   0.822
 8330TIP3   OH224934   2.938   5.352   4.049
 8330TIP3    H124935   2.888   5.278   4.083
 8330TIP3    H224936   2.994   5.379   4.121
 8331TIP3   OH224937   1.677   0.109   0.909
 8331TIP3    H124938   1.594   0.060   0.904
 8331TIP3    H224939   1.727   0.064   0.977
 8332TIP3   OH224940   0.415   1.431   1.269
 8332TIP3    H124941   0.419   1.523   1.297
 8332TIP3    H224942   0.403   1.436   1.174
 8333TIP3   OH224943   4.553   5.194   5.117
 8333TIP3    H124944   4.515   5.239   5.193
 8333TIP3    H224945   4.486   5.132   5.090
 8334TIP3   OH224946   5.365   7.163   4.306
 8334TIP3    H124947   5.347   7.111   4.384
 8334TIP3    H224948   5.282   7.165   4.259
 8335TIP3   OH224949   7.930   5.944   4.504
 8335TIP3    H124950   7.953   6.011   4.441
 8335TIP3    H224951   7.897   5.992   4.580
 8336TIP3   OH224952   3.055   7.072   6.598
 8336TIP3    H124953   2.960   7.081   6.586
 8336TIP3    H224954   3.092   7.133   6.534
 8337TIP3   OH224955   3.539   4.474   4.573
 8337TIP3    H124956   3.606   4.476   4.505
 8337TIP3    H224957   3.586   4.494   4.654
 8338TIP3   OH224958   5.486   1.360   0.402
 8338TIP3    H124959   5.426   1.424   0.364
 8338TIP3    H224960   5.497   1.295   0.333
 8339TIP3   OH224961   7.826   3.480   6.156
 8339TIP3    H124962   7.743   3.488   6.203
 8339TIP3    H224963   7.816   3.536   6.079
 8340TIP3   OH224964   4.800   4.273   4.725
 8340TIP3    H124965   4.762   4.208   4.784
 8340TIP3    H224966   4.868   4.225   4.676
 8341TIP3   OH224967   7.537   2.619   4.669
 8341TIP3    H124968   7.524   2.592   4.578
 8341TIP3    H224969   7.620   2.667   4.668
 8342TIP3   OH224970   3.772   4.768   3.975
 8342TIP3    H124971   3.805   4.776   3.885
 8342TIP3    H224972   3.679   4.749   3.964
 8343TIP3   OH224973   3.618   3.735   5.751
 8343TIP3    H124974   3.645   3.649   5.784
 8343TIP3    H224975   3.675   3.751   5.675
 8344TIP3   OH224976   7.850   1.054   3.232
 8344TIP3    H124977   7.785   0.985   3.224
 8344TIP3    H224978   7.906   1.027   3.305
 8345TIP3   OH224979   7.016   1.982   6.797
 8345TIP3    H124980   6.949   2.041   6.762
 8345TIP3    H224981   7.033   1.920   6.727
 8346TIP3   OH224982   5.153   6.780   4.042
 8346TIP3    H124983   5.212   6.724   3.992
 8346TIP3    H224984   5.094   6.817   3.976
 8347TIP3   OH224985   1.426   1.059   2.873
 8347TIP3    H124986   1.468   0.997   2.813
 8347TIP3    H224987   1.483   1.135   2.872
 8348TIP3   OH224988   7.637   3.766   2.251
 8348TIP3    H124989   7.563   3.716   2.285
 8348TIP3    H224990   7.625   3.854   2.286
 8349TIP3   OH224991   4.577   4.933   1.832
 8349TIP3    H124992   4.502   4.949   1.775
 8349TIP3    H224993   4.559   4.848   1.873
 8350TIP3   OH224994   6.828   5.351   0.815
 8350TIP3    H124995   6.753   5.360   0.756
 8350TIP3    H224996   6.795   5.296   0.886
 8351TIP3   OH224997   4.134   4.746   3.240
 8351TIP3    H124998   4.167   4.702   3.319
 8351TIP3    H224999   4.041   4.760   3.257
 8352TIP3   OH225000   5.282   5.699   3.869
 8352TIP3    H125001   5.230   5.780   3.875
 8352TIP3    H225002   5.220   5.630   3.890
 8353TIP3   OH225003   1.078   7.796   5.589
 8353TIP3    H125004   1.115   7.861   5.649
 8353TIP3    H225005   1.153   7.748   5.555
 8354TIP3   OH225006   0.531   5.596   1.673
 8354TIP3    H125007   0.507   5.645   1.751
 8354TIP3    H225008   0.582   5.522   1.705
 8355TIP3   OH225009   0.036   4.457   0.428
 8355TIP3    H125010   0.023   4.551   0.436
 8355TIP3    H225011   0.005   4.421   0.511
 8356TIP3   OH225012   2.083   2.807   3.330
 8356TIP3    H125013   2.068   2.719   3.363
 8356TIP3    H225014   2.156   2.840   3.383
 8357TIP3   OH225015   4.526   4.196   1.230
 8357TIP3    H125016   4.443   4.197   1.182
 8357TIP3    H225017   4.560   4.285   1.220
 8358TIP3   OH225018   3.986   6.627   0.312
 8358TIP3    H125019   4.049   6.602   0.244
 8358TIP3    H225020   3.908   6.652   0.264
 8359TIP3   OH225021   1.020   7.356   6.110
 8359TIP3    H125022   1.052   7.323   6.194
 8359TIP3    H225023   1.097   7.360   6.055
 8360TIP3   OH225024   0.908   3.943   0.549
 8360TIP3    H125025   0.956   3.861   0.542
 8360TIP3    H225026   0.832   3.932   0.492
 8361TIP3   OH225027   5.819   4.715   4.373
 8361TIP3    H125028   5.894   4.760   4.334
 8361TIP3    H225029   5.771   4.784   4.420
 8362TIP3   OH225030   4.360   7.411   0.099
 8362TIP3    H125031   4.429   7.433   0.162
 8362TIP3    H225032   4.330   7.496   0.066
 8363TIP3   OH225033   6.394   2.792   3.065
 8363TIP3    H125034   6.325   2.777   3.129
 8363TIP3    H225035   6.366   2.869   3.016
 8364TIP3   OH225036   5.530   4.666   2.165
 8364TIP3    H125037   5.529   4.580   2.208
 8364TIP3    H225038   5.536   4.645   2.072
 8365TIP3   OH225039   2.377   1.838   2.392
 8365TIP3    H125040   2.425   1.759   2.368
 8365TIP3    H225041   2.390   1.898   2.319
 8366TIP3   OH225042   2.891   2.734   1.859
 8366TIP3    H125043   2.896   2.696   1.947
 8366TIP3    H225044   2.916   2.663   1.800
 8367TIP3   OH225045   5.767   1.056   6.731
 8367TIP3    H125046   5.860   1.082   6.729
 8367TIP3    H225047   5.721   1.131   6.693
 8368TIP3   OH225048   6.496   1.614   5.801
 8368TIP3    H125049   6.470   1.532   5.843
 8368TIP3    H225050   6.587   1.601   5.778
 8369TIP3   OH225051   7.395   7.586   1.890
 8369TIP3    H125052   7.329   7.568   1.823
 8369TIP3    H225053   7.403   7.681   1.891
 8370TIP3   OH225054   3.207   0.894   3.607
 8370TIP3    H125055   3.213   0.958   3.536
 8370TIP3    H225056   3.226   0.810   3.566
 8371TIP3   OH225057   2.351   5.386   4.866
 8371TIP3    H125058   2.355   5.461   4.925
 8371TIP3    H225059   2.388   5.417   4.783
 8372TIP3   OH225060   4.013   3.585   5.507
 8372TIP3    H125061   3.922   3.598   5.535
 8372TIP3    H225062   4.012   3.604   5.413
 8373TIP3   OH225063   3.995   0.979   0.158
 8373TIP3    H125064   4.044   0.908   0.117
 8373TIP3    H225065   4.062   1.033   0.200
 8374TIP3   OH225066   1.163   3.051   5.239
 8374TIP3    H125067   1.099   3.025   5.306
 8374TIP3    H225068   1.214   2.972   5.223
 8375TIP3   OH225069   6.634   7.698   6.439
 8375TIP3    H125070   6.539   7.683   6.442
 8375TIP3    H225071   6.642   7.792   6.422
 8376TIP3   OH225072   1.416   3.337   0.503
 8376TIP3    H125073   1.485   3.275   0.484
 8376TIP3    H225074   1.341   3.283   0.528
 8377TIP3   OH225075   3.431   1.898   6.618
 8377TIP3    H125076   3.438   1.898   6.713
 8377TIP3    H225077   3.521   1.903   6.587
 8378TIP3   OH225078   2.831   0.747   2.321
 8378TIP3    H125079   2.805   0.838   2.303
 8378TIP3    H225080   2.919   0.740   2.285
 8379TIP3   OH225081   3.513   2.343   4.648
 8379TIP3    H125082   3.600   2.327   4.611
 8379TIP3    H225083   3.468   2.259   4.639
 8380TIP3   OH225084   1.219   7.023   6.355
 8380TIP3    H125085   1.246   6.996   6.443
 8380TIP3    H225086   1.299   7.024   6.304
 8381TIP3   OH225087   5.479   1.877   4.796
 8381TIP3    H125088   5.497   1.785   4.816
 8381TIP3    H225089   5.557   1.924   4.827
 8382TIP3   OH225090   6.191   6.082   4.133
 8382TIP3    H125091   6.155   5.993   4.139
 8382TIP3    H225092   6.113   6.138   4.129
 8383TIP3   OH225093   4.519   1.654   3.008
 8383TIP3    H125094   4.553   1.717   2.945
 8383TIP3    H225095   4.555   1.570   2.980
 8384TIP3   OH225096   3.251   4.427   1.775
 8384TIP3    H125097   3.208   4.500   1.820
 8384TIP3    H225098   3.339   4.459   1.757
 8385TIP3   OH225099   8.260   2.327   3.283
 8385TIP3    H125100   8.228   2.407   3.243
 8385TIP3    H225101   8.194   2.261   3.262
 8386TIP3   OH225102   0.238   6.023   5.735
 8386TIP3    H125103   0.304   6.092   5.734
 8386TIP3    H225104   0.160   6.065   5.699
 8387TIP3   OH225105   4.581   2.179   0.547
 8387TIP3    H125106   4.555   2.271   0.543
 8387TIP3    H225107   4.583   2.159   0.641
 8388TIP3   OH225108   2.233   2.315   1.338
 8388TIP3    H125109   2.269   2.369   1.408
 8388TIP3    H225110   2.188   2.377   1.281
 8389TIP3   OH225111   7.704   2.300   1.365
 8389TIP3    H125112   7.783   2.248   1.384
 8389TIP3    H225113   7.660   2.308   1.449
 8390TIP3   OH225114   1.259   4.730   5.865
 8390TIP3    H125115   1.306   4.714   5.784
 8390TIP3    H225116   1.212   4.648   5.883
 8391TIP3   OH225117   1.379   2.584   5.767
 8391TIP3    H125118   1.361   2.542   5.852
 8391TIP3    H225119   1.343   2.524   5.703
 8392TIP3   OH225120   4.067   6.221   0.153
 8392TIP3    H125121   4.019   6.249   0.075
 8392TIP3    H225122   4.095   6.132   0.133
 8393TIP3   OH225123   2.178   0.775   2.326
 8393TIP3    H125124   2.173   0.834   2.251
 8393TIP3    H225125   2.099   0.721   2.319
 8394TIP3   OH225126   1.538   7.686   4.907
 8394TIP3    H125127   1.522   7.637   4.988
 8394TIP3    H225128   1.452   7.703   4.871
 8395TIP3   OH225129   8.187   0.420   3.969
 8395TIP3    H125130   8.158   0.449   4.056
 8395TIP3    H225131   8.263   0.475   3.949
 8396TIP3   OH225132   4.463   7.455   2.768
 8396TIP3    H125133   4.541   7.475   2.716
 8396TIP3    H225134   4.428   7.375   2.729
 8397TIP3   OH225135   2.101   6.611   2.612
 8397TIP3    H125136   2.165   6.673   2.576
 8397TIP3    H225137   2.118   6.611   2.706
 8398TIP3   OH225138   4.279   0.773   2.577
 8398TIP3    H125139   4.190   0.808   2.572
 8398TIP3    H225140   4.315   0.785   2.489
 8399TIP3   OH225141   3.766   3.080   2.342
 8399TIP3    H125142   3.807   3.154   2.386
 8399TIP3    H225143   3.804   3.080   2.254
 8400TIP3   OH225144   4.798   4.225   3.892
 8400TIP3    H125145   4.763   4.310   3.866
 8400TIP3    H225146   4.889   4.243   3.915
 8401TIP3   OH225147   3.663   4.628   5.394
 8401TIP3    H125148   3.717   4.605   5.319
 8401TIP3    H225149   3.662   4.724   5.394
 8402TIP3   OH225150   2.212   4.437   5.834
 8402TIP3    H125151   2.278   4.447   5.766
 8402TIP3    H225152   2.141   4.496   5.809
 8403TIP3   OH225153   2.779   3.287   6.247
 8403TIP3    H125154   2.771   3.334   6.330
 8403TIP3    H225155   2.714   3.217   6.252
 8404TIP3   OH225156   2.954   0.049   2.995
 8404TIP3    H125157   2.999   0.133   2.999
 8404TIP3    H225158   2.986   0.008   2.915
 8405TIP3   OH225159   0.610   2.274   3.364
 8405TIP3    H125160   0.567   2.275   3.278
 8405TIP3    H225161   0.681   2.211   3.355
 8406TIP3   OH225162   8.073   1.930   5.413
 8406TIP3    H125163   8.074   1.835   5.404
 8406TIP3    H225164   8.151   1.960   5.367
 8407TIP3   OH225165   2.999   3.006   3.172
 8407TIP3    H125166   2.969   3.058   3.097
 8407TIP3    H225167   2.980   2.915   3.146
 8408TIP3   OH225168   1.560   5.075   4.699
 8408TIP3    H125169   1.618   5.113   4.766
 8408TIP3    H225170   1.495   5.143   4.682
 8409TIP3   OH225171   1.562   1.123   0.356
 8409TIP3    H125172   1.590   1.152   0.269
 8409TIP3    H225173   1.472   1.154   0.363
 8410TIP3   OH225174   5.484   2.616   3.448
 8410TIP3    H125175   5.504   2.643   3.358
 8410TIP3    H225176   5.552   2.656   3.501
 8411TIP3   OH225177   2.857   2.829   6.629
 8411TIP3    H125178   2.931   2.866   6.580
 8411TIP3    H225179   2.780   2.873   6.592
 8412TIP3   OH225180   6.706   7.171   3.538
 8412TIP3    H125181   6.630   7.221   3.511
 8412TIP3    H225182   6.684   7.138   3.625
 8413TIP3   OH225183   0.967   5.738   1.918
 8413TIP3    H125184   0.985   5.648   1.889
 8413TIP3    H225185   0.965   5.732   2.014
 8414TIP3   OH225186   5.044   3.750   3.609
 8414TIP3    H125187   5.094   3.831   3.607
 8414TIP3    H225188   5.066   3.709   3.693
 8415TIP3   OH225189   3.976   4.422   3.360
 8415TIP3    H125190   4.052   4.373   3.392
 8415TIP3    H225191   3.930   4.449   3.440
 8416TIP3   OH225192   5.755   4.583   3.226
 8416TIP3    H125193   5.669   4.542   3.221
 8416TIP3    H225194   5.756   4.627   3.311
 8417TIP3   OH225195   2.282   4.110   5.015
 8417TIP3    H125196   2.203   4.129   4.966
 8417TIP3    H225197   2.351   4.160   4.970
 8418TIP3   OH225198   2.339   7.757   3.809
 8418TIP3    H125199   2.373   7.714   3.888
 8418TIP3    H225200   2.360   7.697   3.738
 8419TIP3   OH225201   2.658   0.708   3.871
 8419TIP3    H125202   2.748   0.739   3.861
 8419TIP3    H225203   2.604   0.783   3.847
 8420TIP3   OH225204   2.541   1.423   6.202
 8420TIP3    H125205   2.502   1.346   6.243
 8420TIP3    H225206   2.592   1.388   6.130
 8421TIP3   OH225207   4.201   6.123   4.634
 8421TIP3    H125208   4.171   6.213   4.619
 8421TIP3    H225209   4.249   6.127   4.717
 8422TIP3   OH225210   5.076   4.984   1.541
 8422TIP3    H125211   5.037   4.982   1.628
 8422TIP3    H225212   5.147   4.920   1.546
 8423TIP3   OH225213   5.726   0.177   0.819
 8423TIP3    H125214   5.808   0.136   0.789
 8423TIP3    H225215   5.707   0.244   0.753
 8424TIP3   OH225216   7.519   5.244   0.911
 8424TIP3    H125217   7.465   5.234   0.833
 8424TIP3    H225218   7.609   5.233   0.880
 8425TIP3   OH225219   0.105   0.436   5.056
 8425TIP3    H125220   0.017   0.471   5.048
 8425TIP3    H225221   0.094   0.355   5.105
 8426TIP3   OH225222   7.684   1.733   5.630
 8426TIP3    H125223   7.707   1.734   5.537
 8426TIP3    H225224   7.749   1.790   5.671
 8427TIP3   OH225225   2.304   4.977   3.455
 8427TIP3    H125226   2.303   4.998   3.548
 8427TIP3    H225227   2.215   4.997   3.425
 8428TIP3   OH225228   0.551   3.558   2.695
 8428TIP3    H125229   0.507   3.531   2.615
 8428TIP3    H225230   0.500   3.634   2.726
 8429TIP3   OH225231  -0.009   6.285   3.671
 8429TIP3    H125232   0.054   6.240   3.727
 8429TIP3    H225233  -0.051   6.215   3.621
 8430TIP3   OH225234   2.825   0.564   0.716
 8430TIP3    H125235   2.835   0.659   0.705
 8430TIP3    H225236   2.778   0.554   0.798
 8431TIP3   OH225237   5.862   3.853   2.566
 8431TIP3    H125238   5.921   3.857   2.642
 8431TIP3    H225239   5.787   3.802   2.597
 8432TIP3   OH225240   6.220   0.418   4.317
 8432TIP3    H125241   6.291   0.358   4.341
 8432TIP3    H225242   6.195   0.391   4.228
 8433TIP3   OH225243   3.326   1.232   1.339
 8433TIP3    H125244   3.335   1.325   1.319
 8433TIP3    H225245   3.264   1.199   1.274
 8434TIP3   OH225246   3.292   7.467   4.485
 8434TIP3    H125247   3.240   7.392   4.512
 8434TIP3    H225248   3.272   7.479   4.392
 8435TIP3   OH225249   5.072   2.485   5.134
 8435TIP3    H125250   5.080   2.431   5.213
 8435TIP3    H225251   5.114   2.434   5.066
 8436TIP3   OH225252   3.496   1.729   3.238
 8436TIP3    H125253   3.562   1.733   3.308
 8436TIP3    H225254   3.414   1.711   3.284
 8437TIP3   OH225255   1.366   7.666   0.091
 8437TIP3    H125256   1.313   7.725   0.037
 8437TIP3    H225257   1.401   7.602   0.029
 8438TIP3   OH225258   7.077   3.470   1.825
 8438TIP3    H125259   7.060   3.399   1.887
 8438TIP3    H225260   7.134   3.431   1.759
 8439TIP3   OH225261   5.214   3.330   4.552
 8439TIP3    H125262   5.146   3.342   4.619
 8439TIP3    H225263   5.296   3.344   4.598
 8440TIP3   OH225264   4.270   7.292   4.845
 8440TIP3    H125265   4.210   7.231   4.802
 8440TIP3    H225266   4.213   7.352   4.894
 8441TIP3   OH225267   7.209   4.097   0.202
 8441TIP3    H125268   7.131   4.057   0.241
 8441TIP3    H225269   7.204   4.073   0.109
 8442TIP3   OH225270   2.386   0.513   5.087
 8442TIP3    H125271   2.450   0.526   5.156
 8442TIP3    H225272   2.406   0.425   5.053
 8443TIP3   OH225273   2.385   4.514   6.659
 8443TIP3    H125274   2.332   4.552   6.729
 8443TIP3    H225275   2.433   4.443   6.700
 8444TIP3   OH225276   1.131   5.908   4.041
 8444TIP3    H125277   1.221   5.877   4.031
 8444TIP3    H225278   1.079   5.829   4.048
 8445TIP3   OH225279   5.087   3.325   2.964
 8445TIP3    H125280   5.126   3.409   2.941
 8445TIP3    H225281   5.070   3.330   3.058
 8446TIP3   OH225282   2.712   1.487   0.241
 8446TIP3    H125283   2.765   1.421   0.196
 8446TIP3    H225284   2.715   1.564   0.184
 8447TIP3   OH225285   3.330   2.022   2.742
 8447TIP3    H125286   3.409   1.992   2.786
 8447TIP3    H225287   3.304   1.948   2.686
 8448TIP3   OH225288   5.575   5.220   4.728
 8448TIP3    H125289   5.556   5.233   4.635
 8448TIP3    H225290   5.579   5.308   4.764
 8449TIP3   OH225291   7.288   7.374   3.704
 8449TIP3    H125292   7.294   7.282   3.679
 8449TIP3    H225293   7.259   7.372   3.795
 8450TIP3   OH225294   1.010   2.261   1.628
 8450TIP3    H125295   0.960   2.343   1.629
 8450TIP3    H225296   1.060   2.262   1.709
 8451TIP3   OH225297   4.565   5.418   2.916
 8451TIP3    H125298   4.630   5.392   2.981
 8451TIP3    H225299   4.587   5.508   2.894
 8452TIP3   OH225300   2.248   4.784   3.088
 8452TIP3    H125301   2.279   4.871   3.116
 8452TIP3    H225302   2.306   4.723   3.134
 8453TIP3   OH225303   6.037   3.496   3.046
 8453TIP3    H125304   6.119   3.456   3.017
 8453TIP3    H225305   6.056   3.528   3.134
 8454TIP3   OH225306   3.683   2.738   2.981
 8454TIP3    H125307   3.675   2.727   3.076
 8454TIP3    H225308   3.601   2.705   2.946
 8455TIP3   OH225309   3.436   5.639   6.121
 8455TIP3    H125310   3.395   5.670   6.040
 8455TIP3    H225311   3.504   5.703   6.140
 8456TIP3   OH225312   5.631   6.209   0.658
 8456TIP3    H125313   5.648   6.303   0.672
 8456TIP3    H225314   5.684   6.166   0.726
 8457TIP3   OH225315   0.521   6.755   3.955
 8457TIP3    H125316   0.435   6.759   3.913
 8457TIP3    H225317   0.582   6.730   3.885
 8458TIP3   OH225318   3.852   5.937   5.576
 8458TIP3    H125319   3.832   5.957   5.668
 8458TIP3    H225320   3.805   6.003   5.526
 8459TIP3   OH225321   2.073   7.353   4.435
 8459TIP3    H125322   2.136   7.419   4.406
 8459TIP3    H225323   2.070   7.364   4.530
 8460TIP3   OH225324   0.614   2.673   4.661
 8460TIP3    H125325   0.684   2.652   4.599
 8460TIP3    H225326   0.533   2.657   4.612
 8461TIP3   OH225327   7.120   3.627   4.724
 8461TIP3    H125328   7.176   3.701   4.701
 8461TIP3    H225329   7.172   3.549   4.704
 8462TIP3   OH225330   7.777   2.892   4.087
 8462TIP3    H125331   7.857   2.930   4.051
 8462TIP3    H225332   7.791   2.797   4.083
 8463TIP3   OH225333   3.276   3.259   1.399
 8463TIP3    H125334   3.369   3.280   1.398
 8463TIP3    H225335   3.261   3.220   1.485
 8464TIP3   OH225336   4.236   1.597   0.736
 8464TIP3    H125337   4.168   1.639   0.788
 8464TIP3    H225338   4.211   1.612   0.645
 8465TIP3   OH225339   2.531   0.979   4.588
 8465TIP3    H125340   2.523   0.891   4.624
 8465TIP3    H225341   2.573   1.030   4.658
 8466TIP3   OH225342   2.970   2.556   6.441
 8466TIP3    H125343   2.878   2.538   6.457
 8466TIP3    H225344   3.000   2.484   6.385
 8467TIP3   OH225345   2.854   2.823   1.470
 8467TIP3    H125346   2.784   2.887   1.477
 8467TIP3    H225347   2.928   2.862   1.517
 8468TIP3   OH225348   7.184   2.721   4.805
 8468TIP3    H125349   7.126   2.736   4.730
 8468TIP3    H225350   7.220   2.634   4.791
 8469TIP3   OH225351   1.203   3.921   0.491
 8469TIP3    H125352   1.212   3.993   0.429
 8469TIP3    H225353   1.175   3.962   0.572
 8470TIP3   OH225354   7.200   7.297   3.289
 8470TIP3    H125355   7.134   7.352   3.332
 8470TIP3    H225356   7.181   7.304   3.196
 8471TIP3   OH225357   4.872   3.448   2.875
 8471TIP3    H125358   4.814   3.464   2.949
 8471TIP3    H225359   4.954   3.420   2.915
 8472TIP3   OH225360   6.071   1.495   3.562
 8472TIP3    H125361   6.160   1.492   3.526
 8472TIP3    H225362   6.031   1.571   3.520
 8473TIP3   OH225363   0.336   4.044   1.420
 8473TIP3    H125364   0.326   4.023   1.513
 8473TIP3    H225365   0.355   3.960   1.378
 8474TIP3   OH225366   4.908   1.867   6.427
 8474TIP3    H125367   4.820   1.849   6.395
 8474TIP3    H225368   4.966   1.831   6.360
 8475TIP3   OH225369   4.620   3.307   2.974
 8475TIP3    H125370   4.635   3.287   2.882
 8475TIP3    H225371   4.584   3.396   2.974
 8476TIP3   OH225372   4.488   3.953   2.381
 8476TIP3    H125373   4.549   3.970   2.453
 8476TIP3    H225374   4.423   3.894   2.418
 8477TIP3   OH225375   8.063   0.642   0.179
 8477TIP3    H125376   8.005   0.573   0.148
 8477TIP3    H225377   8.125   0.598   0.236
 8478TIP3   OH225378   4.946   2.486   4.795
 8478TIP3    H125379   4.988   2.453   4.716
 8478TIP3    H225380   4.886   2.554   4.764
 8479TIP3   OH225381   4.565   2.380   2.373
 8479TIP3    H125382   4.616   2.301   2.385
 8479TIP3    H225383   4.570   2.398   2.279
 8480TIP3   OH225384   2.982   7.103   3.350
 8480TIP3    H125385   2.935   7.174   3.305
 8480TIP3    H225386   2.915   7.063   3.405
 8481TIP3   OH225387   6.732   1.273   4.632
 8481TIP3    H125388   6.782   1.306   4.707
 8481TIP3    H225389   6.640   1.280   4.659
 8482TIP3   OH225390   4.354   5.646   3.775
 8482TIP3    H125391   4.299   5.581   3.817
 8482TIP3    H225392   4.372   5.610   3.688
 8483TIP3   OH225393   6.099   2.962   4.771
 8483TIP3    H125394   6.132   2.895   4.831
 8483TIP3    H225395   6.157   3.036   4.784
 8484TIP3   OH225396   3.541   1.039   3.914
 8484TIP3    H125397   3.562   1.132   3.907
 8484TIP3    H225398   3.445   1.035   3.909
 8485TIP3   OH225399   4.139   4.030   2.667
 8485TIP3    H125400   4.191   4.027   2.586
 8485TIP3    H225401   4.200   4.001   2.735
 8486TIP3   OH225402   4.901   3.007   5.051
 8486TIP3    H125403   4.821   3.013   5.103
 8486TIP3    H225404   4.942   2.925   5.080
 8487TIP3   OH225405   6.160   3.383   5.365
 8487TIP3    H125406   6.162   3.421   5.453
 8487TIP3    H225407   6.193   3.294   5.376
 8488TIP3   OH225408   1.493   3.987   0.269
 8488TIP3    H125409   1.500   3.905   0.318
 8488TIP3    H225410   1.572   4.036   0.294
 8489TIP3   OH225411   2.827   5.990   0.718
 8489TIP3    H125412   2.766   5.953   0.782
 8489TIP3    H225413   2.876   5.915   0.684
 8490TIP3   OH225414   6.820   1.038   0.316
 8490TIP3    H125415   6.810   1.070   0.406
 8490TIP3    H225416   6.736   0.996   0.297
 8491TIP3   OH225417   6.077   5.831   4.170
 8491TIP3    H125418   5.988   5.856   4.195
 8491TIP3    H225419   6.091   5.748   4.216
 8492TIP3   OH225420   3.417   7.179   1.243
 8492TIP3    H125421   3.406   7.176   1.148
 8492TIP3    H225422   3.418   7.272   1.265
 8493TIP3   OH225423   2.433   4.890   1.790
 8493TIP3    H125424   2.388   4.923   1.713
 8493TIP3    H225425   2.383   4.813   1.817
 8494TIP3   OH225426   0.630   7.482   5.323
 8494TIP3    H125427   0.584   7.451   5.402
 8494TIP3    H225428   0.721   7.491   5.351
 8495TIP3   OH225429   5.836   1.583   2.013
 8495TIP3    H125430   5.911   1.641   2.026
 8495TIP3    H225431   5.872   1.506   1.971
 8496TIP3   OH225432   6.487   2.614   2.488
 8496TIP3    H125433   6.432   2.682   2.449
 8496TIP3    H225434   6.479   2.629   2.582
 8497TIP3   OH225435   4.467   1.447   6.797
 8497TIP3    H125436   4.449   1.541   6.791
 8497TIP3    H225437   4.464   1.416   6.706
 8498TIP3   OH225438   3.965   4.613   1.981
 8498TIP3    H125439   3.935   4.702   1.965
 8498TIP3    H225440   4.061   4.620   1.986
 8499TIP3   OH225441   0.156   1.471   0.045
 8499TIP3    H125442   0.183   1.512  -0.037
 8499TIP3    H225443   0.197   1.524   0.113
 8500TIP3   OH225444   4.254   2.922   0.539
 8500TIP3    H125445   4.236   2.830   0.523
 8500TIP3    H225446   4.168   2.964   0.545
 8501TIP3   OH225447   4.498   5.625   4.441
 8501TIP3    H125448   4.525   5.713   4.468
 8501TIP3    H225449   4.454   5.638   4.357
 8502TIP3   OH225450   6.008   4.115   5.320
 8502TIP3    H125451   6.046   4.033   5.286
 8502TIP3    H225452   6.071   4.182   5.294
 8503TIP3   OH225453   6.271   6.193   2.833
 8503TIP3    H125454   6.269   6.206   2.738
 8503TIP3    H225455   6.194   6.139   2.852
 8504TIP3   OH225456   0.669   3.462   5.122
 8504TIP3    H125457   0.652   3.556   5.114
 8504TIP3    H225458   0.583   3.424   5.141
 8505TIP3   OH225459   4.863   2.858   6.415
 8505TIP3    H125460   4.926   2.903   6.358
 8505TIP3    H225461   4.910   2.844   6.497
 8506TIP3   OH225462   3.588   4.064   1.587
 8506TIP3    H125463   3.510   4.116   1.570
 8506TIP3    H225464   3.582   4.042   1.680
 8507TIP3   OH225465   6.162   1.951   3.223
 8507TIP3    H125466   6.204   1.867   3.241
 8507TIP3    H225467   6.173   1.963   3.128
 8508TIP3   OH225468   2.027   5.240   3.787
 8508TIP3    H125469   1.953   5.281   3.742
 8508TIP3    H225470   2.091   5.311   3.796
 8509TIP3   OH225471   1.479   6.042   3.464
 8509TIP3    H125472   1.529   6.085   3.534
 8509TIP3    H225473   1.437   5.968   3.507
 8510TIP3   OH225474   1.270   1.934   2.237
 8510TIP3    H125475   1.298   1.850   2.200
 8510TIP3    H225476   1.233   1.911   2.322
 8511TIP3   OH225477   8.152   6.240   3.199
 8511TIP3    H125478   8.101   6.222   3.120
 8511TIP3    H225479   8.183   6.330   3.188
 8512TIP3   OH225480   2.153   5.512   3.053
 8512TIP3    H125481   2.206   5.433   3.049
 8512TIP3    H225482   2.217   5.582   3.067
 8513TIP3   OH225483   1.080   2.232   5.824
 8513TIP3    H125484   1.067   2.137   5.824
 8513TIP3    H225485   1.069   2.258   5.915
 8514TIP3   OH225486   2.315   3.542   2.478
 8514TIP3    H125487   2.334   3.632   2.505
 8514TIP3    H225488   2.272   3.502   2.553
 8515TIP3   OH225489   0.751   5.912   1.877
 8515TIP3    H125490   0.675   5.865   1.843
 8515TIP3    H225491   0.811   5.843   1.905
 8516TIP3   OH225492   6.610   0.114   2.509
 8516TIP3    H125493   6.621   0.030   2.465
 8516TIP3    H225494   6.517   0.116   2.534
 8517TIP3   OH225495   7.164   2.262   4.907
 8517TIP3    H125496   7.238   2.246   4.965
 8517TIP3    H225497   7.199   2.321   4.839
 8518TIP3   OH225498   0.397   6.395   0.038
 8518TIP3    H125499   0.355   6.405   0.124
 8518TIP3    H225500   0.325   6.399  -0.024
 8519TIP3   OH225501   2.226   4.325   0.042
 8519TIP3    H125502   2.268   4.406   0.014
 8519TIP3    H225503   2.251   4.261  -0.024
 8520TIP3   OH225504   1.331   1.442   1.241
 8520TIP3    H125505   1.413   1.426   1.195
 8520TIP3    H225506   1.263   1.434   1.174
 8521TIP3   OH225507   7.528   4.228   2.063
 8521TIP3    H125508   7.584   4.155   2.086
 8521TIP3    H225509   7.446   4.211   2.110
 8522TIP3   OH225510   2.737   6.568   6.550
 8522TIP3    H125511   2.718   6.629   6.622
 8522TIP3    H225512   2.809   6.610   6.502
 8523TIP3   OH225513   5.518   6.904   6.719
 8523TIP3    H125514   5.523   6.847   6.642
 8523TIP3    H225515   5.550   6.989   6.688
 8524TIP3   OH225516   1.363   6.696   0.601
 8524TIP3    H125517   1.285   6.694   0.657
 8524TIP3    H225518   1.328   6.692   0.511
 8525TIP3   OH225519   3.684   3.019   3.462
 8525TIP3    H125520   3.691   3.040   3.369
 8525TIP3    H225521   3.686   3.104   3.506
 8526TIP3   OH225522   2.088   1.898   1.740
 8526TIP3    H125523   2.178   1.887   1.709
 8526TIP3    H225524   2.096   1.916   1.834
 8527TIP3   OH225525   7.903   0.503   4.495
 8527TIP3    H125526   7.825   0.550   4.527
 8527TIP3    H225527   7.897   0.510   4.400
 8528TIP3   OH225528   6.792   2.958   4.548
 8528TIP3    H125529   6.849   3.033   4.533
 8528TIP3    H225530   6.773   2.961   4.642
 8529TIP3   OH225531   0.698   5.218   2.955
 8529TIP3    H125532   0.710   5.232   2.861
 8529TIP3    H225533   0.753   5.142   2.975
 8530TIP3   OH225534   1.641   2.689   1.264
 8530TIP3    H125535   1.654   2.643   1.348
 8530TIP3    H225536   1.709   2.653   1.207
 8531TIP3   OH225537   5.228   6.133   1.023
 8531TIP3    H125538   5.147   6.184   1.026
 8531TIP3    H225539   5.297   6.197   1.009
 8532TIP3   OH225540   7.566   3.781   5.619
 8532TIP3    H125541   7.581   3.869   5.652
 8532TIP3    H225542   7.508   3.792   5.544
 8533TIP3   OH225543   6.978   6.981   1.486
 8533TIP3    H125544   7.050   6.979   1.423
 8533TIP3    H225545   6.910   6.927   1.445
 8534TIP3   OH225546   3.842   4.032   3.342
 8534TIP3    H125547   3.752   4.012   3.368
 8534TIP3    H225548   3.833   4.083   3.262
 8535TIP3   OH225549   4.906   4.186   3.006
 8535TIP3    H125550   4.875   4.267   2.967
 8535TIP3    H225551   4.841   4.165   3.073
 8536TIP3   OH225552   7.942   3.891   2.834
 8536TIP3    H125553   7.974   3.892   2.924
 8536TIP3    H225554   7.932   3.798   2.813
 8537TIP3   OH225555   6.875   2.505   4.881
 8537TIP3    H125556   6.918   2.486   4.797
 8537TIP3    H225557   6.792   2.458   4.877
 8538TIP3   OH225558   4.452   2.437   5.204
 8538TIP3    H125559   4.418   2.435   5.114
 8538TIP3    H225560   4.547   2.443   5.193
 8539TIP3   OH225561   2.111   1.541   5.055
 8539TIP3    H125562   2.026   1.521   5.093
 8539TIP3    H225563   2.094   1.555   4.962
 8540TIP3   OH225564   6.996   4.879   3.921
 8540TIP3    H125565   7.016   4.873   3.827
 8540TIP3    H225566   7.025   4.967   3.946
 8541TIP3   OH225567   8.098   2.141   3.455
 8541TIP3    H125568   8.049   2.179   3.528
 8541TIP3    H225569   8.034   2.091   3.406
 8542TIP3   OH225570   2.251   2.722   0.459
 8542TIP3    H125571   2.193   2.734   0.534
 8542TIP3    H225572   2.209   2.653   0.407
 8543TIP3   OH225573   2.891   5.121   4.829
 8543TIP3    H125574   2.894   5.026   4.837
 8543TIP3    H225575   2.883   5.153   4.919
 8544TIP3   OH225576   1.337   6.994   5.992
 8544TIP3    H125577   1.364   6.935   5.922
 8544TIP3    H225578   1.244   7.009   5.977
 8545TIP3   OH225579   6.605   5.709   2.442
 8545TIP3    H125580   6.693   5.673   2.434
 8545TIP3    H225581   6.581   5.734   2.352
 8546TIP3   OH225582   2.747   7.751   1.820
 8546TIP3    H125583   2.800   7.753   1.740
 8546TIP3    H225584   2.659   7.731   1.790
 8547TIP3   OH225585   6.013   2.161   2.822
 8547TIP3    H125586   5.975   2.084   2.864
 8547TIP3    H225587   5.946   2.229   2.831
 8548TIP3   OH225588   6.892   1.835   4.326
 8548TIP3    H125589   6.975   1.842   4.279
 8548TIP3    H225590   6.871   1.925   4.353
 8549TIP3   OH225591   4.425   3.630   3.679
 8549TIP3    H125592   4.332   3.654   3.677
 8549TIP3    H225593   4.437   3.588   3.764
 8550TIP3   OH225594   1.588   4.961   1.698
 8550TIP3    H125595   1.518   4.903   1.670
 8550TIP3    H225596   1.629   4.914   1.771
 8551TIP3   OH225597   6.994   6.685   1.214
 8551TIP3    H125598   6.965   6.768   1.178
 8551TIP3    H225599   6.927   6.622   1.189
 8552TIP3   OH225600   7.621   7.399   0.484
 8552TIP3    H125601   7.697   7.438   0.440
 8552TIP3    H225602   7.547   7.418   0.426
 8553TIP3   OH225603   7.612   5.272   6.132
 8553TIP3    H125604   7.563   5.353   6.147
 8553TIP3    H225605   7.545   5.204   6.125
 8554TIP3   OH225606   4.612   3.085   3.125
 8554TIP3    H125607   4.538   3.049   3.076
 8554TIP3    H225608   4.611   3.179   3.104
 8555TIP3   OH225609   5.345   7.093   2.385
 8555TIP3    H125610   5.415   7.156   2.401
 8555TIP3    H225611   5.377   7.038   2.313
 8556TIP3   OH225612   4.666   4.263   4.165
 8556TIP3    H125613   4.642   4.170   4.163
 8556TIP3    H225614   4.749   4.267   4.117
 8557TIP3   OH225615   3.712   6.536   2.592
 8557TIP3    H125616   3.672   6.614   2.553
 8557TIP3    H225617   3.647   6.467   2.581
 8558TIP3   OH225618   2.754   3.235   6.730
 8558TIP3    H125619   2.701   3.181   6.788
 8558TIP3    H225620   2.845   3.213   6.752
 8559TIP3   OH225621   1.371   7.705   6.571
 8559TIP3    H125622   1.444   7.712   6.510
 8559TIP3    H225623   1.303   7.658   6.522
 8560TIP3   OH225624   1.053   3.983   5.170
 8560TIP3    H125625   1.024   3.908   5.118
 8560TIP3    H225626   1.069   4.052   5.105
 8561TIP3   OH225627   8.282   7.095   1.392
 8561TIP3    H125628   8.269   7.133   1.479
 8561TIP3    H225629   8.322   7.165   1.340
 8562TIP3   OH225630   5.101   3.825   2.861
 8562TIP3    H125631   5.080   3.892   2.926
 8562TIP3    H225632   5.172   3.863   2.810
 8563TIP3   OH225633   1.419   3.841   3.059
 8563TIP3    H125634   1.411   3.766   3.118
 8563TIP3    H225635   1.360   3.907   3.096
 8564TIP3   OH225636   7.300   4.341   5.152
 8564TIP3    H125637   7.384   4.377   5.125
 8564TIP3    H225638   7.316   4.306   5.239
 8565TIP3   OH225639   7.617   7.747   0.470
 8565TIP3    H125640   7.526   7.728   0.445
 8565TIP3    H225641   7.628   7.840   0.452
 8566TIP3   OH225642   4.978   6.261   4.328
 8566TIP3    H125643   5.002   6.339   4.278
 8566TIP3    H225644   5.060   6.215   4.343
 8567TIP3   OH225645   4.984   3.423   5.498
 8567TIP3    H125646   5.028   3.385   5.574
 8567TIP3    H225647   4.891   3.426   5.522
 8568TIP3   OH225648   1.825   4.580   4.485
 8568TIP3    H125649   1.862   4.511   4.430
 8568TIP3    H225650   1.741   4.544   4.514
 8569TIP3   OH225651   2.804   3.129   2.504
 8569TIP3    H125652   2.764   3.124   2.418
 8569TIP3    H225653   2.892   3.093   2.492
 8570TIP3   OH225654   7.767   5.667   1.448
 8570TIP3    H125655   7.688   5.715   1.469
 8570TIP3    H225656   7.736   5.584   1.411
 8571TIP3   OH225657   2.564   5.947   1.156
 8571TIP3    H125658   2.561   6.043   1.156
 8571TIP3    H225659   2.499   5.922   1.090
 8572TIP3   OH225660   5.181   1.494   1.877
 8572TIP3    H125661   5.276   1.504   1.873
 8572TIP3    H225662   5.151   1.524   1.792
 8573TIP3   OH225663   8.199   1.924   1.320
 8573TIP3    H125664   8.218   1.840   1.363
 8573TIP3    H225665   8.127   1.961   1.372
 8574TIP3   OH225666   4.618   1.701   6.667
 8574TIP3    H125667   4.522   1.697   6.662
 8574TIP3    H225668   4.638   1.795   6.665
 8575TIP3   OH225669   7.032   3.327   0.057
 8575TIP3    H125670   7.016   3.259   0.123
 8575TIP3    H225671   7.118   3.363   0.081
 8576TIP3   OH225672   1.730   4.902   6.163
 8576TIP3    H125673   1.723   4.974   6.226
 8576TIP3    H225674   1.682   4.933   6.086
 8577TIP3   OH225675   2.452   4.756   3.409
 8577TIP3    H125676   2.407   4.713   3.336
 8577TIP3    H225677   2.402   4.837   3.423
 8578TIP3   OH225678   7.877   6.886   6.339
 8578TIP3    H125679   7.840   6.889   6.251
 8578TIP3    H225680   7.887   6.793   6.358
 8579TIP3   OH225681   4.271   0.858   5.373
 8579TIP3    H125682   4.354   0.816   5.396
 8579TIP3    H225683   4.217   0.787   5.338
 8580TIP3   OH225684   7.904   7.391   6.557
 8580TIP3    H125685   7.938   7.478   6.539
 8580TIP3    H225686   7.978   7.343   6.594
 8581TIP3   OH225687   4.560   0.599   1.532
 8581TIP3    H125688   4.650   0.571   1.520
 8581TIP3    H225689   4.532   0.558   1.614
 8582TIP3   OH225690   2.311   4.937   0.347
 8582TIP3    H125691   2.391   4.887   0.366
 8582TIP3    H225692   2.321   5.018   0.398
 8583TIP3   OH225693   2.570   3.159   5.846
 8583TIP3    H125694   2.504   3.159   5.915
 8583TIP3    H225695   2.647   3.200   5.885
 8584TIP3   OH225696   7.348   2.218   2.161
 8584TIP3    H125697   7.326   2.298   2.114
 8584TIP3    H225698   7.437   2.197   2.132
 8585TIP3   OH225699   3.845   4.529   3.588
 8585TIP3    H125700   3.761   4.574   3.595
 8585TIP3    H225701   3.906   4.584   3.639
 8586TIP3   OH225702   7.714   3.504   1.809
 8586TIP3    H125703   7.795   3.469   1.846
 8586TIP3    H225704   7.709   3.466   1.722
 8587TIP3   OH225705   2.539   6.598   2.412
 8587TIP3    H125706   2.600   6.530   2.442
 8587TIP3    H225707   2.452   6.561   2.429
 8588TIP3   OH225708   0.211   2.536   4.609
 8588TIP3    H125709   0.141   2.521   4.673
 8588TIP3    H225710   0.174   2.508   4.526
 8589TIP3   OH225711   4.338   3.881   4.753
 8589TIP3    H125712   4.313   3.946   4.687
 8589TIP3    H225713   4.334   3.929   4.836
 8590TIP3   OH225714   6.172   2.483   6.499
 8590TIP3    H125715   6.173   2.504   6.592
 8590TIP3    H225716   6.136   2.562   6.457
 8591TIP3   OH225717   5.995   5.492   3.080
 8591TIP3    H125718   6.081   5.462   3.051
 8591TIP3    H225719   5.963   5.422   3.137
 8592TIP3   OH225720   1.438   7.328   6.391
 8592TIP3    H125721   1.405   7.292   6.473
 8592TIP3    H225722   1.413   7.264   6.324
 8593TIP3   OH225723   2.920   4.472   2.168
 8593TIP3    H125724   2.888   4.412   2.101
 8593TIP3    H225725   2.897   4.559   2.136
 8594TIP3   OH225726   4.678   5.538   3.592
 8594TIP3    H125727   4.672   5.458   3.541
 8594TIP3    H225728   4.592   5.580   3.580
 8595TIP3   OH225729   1.254   2.171   4.483
 8595TIP3    H125730   1.274   2.188   4.575
 8595TIP3    H225731   1.192   2.240   4.458
 8596TIP3   OH225732   2.205   2.241   1.033
 8596TIP3    H125733   2.229   2.233   1.125
 8596TIP3    H225734   2.277   2.200   0.986
 8597TIP3   OH225735   2.146   2.481   0.379
 8597TIP3    H125736   2.191   2.425   0.442
 8597TIP3    H225737   2.156   2.436   0.295
 8598TIP3   OH225738   2.526   4.405   2.376
 8598TIP3    H125739   2.565   4.412   2.290
 8598TIP3    H225740   2.533   4.313   2.399
 8599TIP3   OH225741   0.709   0.783   4.394
 8599TIP3    H125742   0.627   0.810   4.434
 8599TIP3    H225743   0.691   0.780   4.300
 8600TIP3   OH225744   6.670   1.574   1.472
 8600TIP3    H125745   6.641   1.644   1.414
 8600TIP3    H225746   6.614   1.499   1.450
 8601TIP3   OH225747   7.662   4.463   1.946
 8601TIP3    H125748   7.584   4.475   1.892
 8601TIP3    H225749   7.640   4.391   2.004
 8602TIP3   OH225750   3.412   3.006   1.782
 8602TIP3    H125751   3.361   2.928   1.804
 8602TIP3    H225752   3.458   3.028   1.863
 8603TIP3   OH225753   2.224   6.843   2.527
 8603TIP3    H125754   2.220   6.852   2.432
 8603TIP3    H225755   2.317   6.853   2.548
 8604TIP3   OH225756   4.318   4.441   1.852
 8604TIP3    H125757   4.251   4.508   1.841
 8604TIP3    H225758   4.391   4.470   1.797
 8605TIP3   OH225759   2.832   1.574   6.678
 8605TIP3    H125760   2.917   1.610   6.705
 8605TIP3    H225761   2.846   1.549   6.587
 8606TIP3   OH225762   1.299   1.530   3.610
 8606TIP3    H125763   1.206   1.511   3.599
 8606TIP3    H225764   1.307   1.563   3.699
 8607TIP3   OH225765   4.961   4.408   0.439
 8607TIP3    H125766   4.873   4.379   0.416
 8607TIP3    H225767   4.947   4.471   0.510
 8608TIP3   OH225768   0.295   1.628   0.851
 8608TIP3    H125769   0.224   1.688   0.827
 8608TIP3    H225770   0.363   1.684   0.888
 8609TIP3   OH225771   2.422   1.291   0.200
 8609TIP3    H125772   2.374   1.265   0.121
 8609TIP3    H225773   2.504   1.328   0.167
 8610TIP3   OH225774   3.764   1.170   1.645
 8610TIP3    H125775   3.807   1.096   1.602
 8610TIP3    H225776   3.682   1.182   1.596
 8611TIP3   OH225777   7.565   1.377   1.299
 8611TIP3    H125778   7.521   1.439   1.357
 8611TIP3    H225779   7.619   1.324   1.357
 8612TIP3   OH225780   5.551   1.142   0.195
 8612TIP3    H125781   5.599   1.132   0.112
 8612TIP3    H225782   5.610   1.106   0.261
 8613TIP3   OH225783   5.061   5.167   0.058
 8613TIP3    H125784   4.977   5.198   0.092
 8613TIP3    H225785   5.107   5.133   0.135
 8614TIP3   OH225786   6.573   1.114   1.305
 8614TIP3    H125787   6.625   1.169   1.246
 8614TIP3    H225788   6.604   1.137   1.392
 8615TIP3   OH225789   1.430   3.896   5.107
 8615TIP3    H125790   1.417   3.983   5.069
 8615TIP3    H225791   1.506   3.861   5.062
 8616TIP3   OH225792   3.443   3.534   3.721
 8616TIP3    H125793   3.401   3.512   3.638
 8616TIP3    H225794   3.370   3.542   3.783
 8617TIP3   OH225795   0.708   0.917   6.701
 8617TIP3    H125796   0.756   0.858   6.760
 8617TIP3    H225797   0.697   0.867   6.621
 8618TIP3   OH225798   1.584   6.767   1.347
 8618TIP3    H125799   1.577   6.789   1.254
 8618TIP3    H225800   1.678   6.759   1.363
 8619TIP3   OH225801   6.581   7.772   2.192
 8619TIP3    H125802   6.653   7.798   2.135
 8619TIP3    H225803   6.504   7.815   2.154
 8620TIP3   OH225804   7.287   0.212   0.504
 8620TIP3    H125805   7.270   0.138   0.561
 8620TIP3    H225806   7.370   0.191   0.460
 8621TIP3   OH225807   0.515   2.269   5.002
 8621TIP3    H125808   0.444   2.220   4.961
 8621TIP3    H225809   0.472   2.342   5.047
 8622TIP3   OH225810   7.689   7.553   2.812
 8622TIP3    H125811   7.725   7.553   2.901
 8622TIP3    H225812   7.763   7.571   2.755
 8623TIP3   OH225813   7.407   5.371   5.188
 8623TIP3    H125814   7.481   5.405   5.240
 8623TIP3    H225815   7.404   5.278   5.208
 8624TIP3   OH225816   0.597   5.268   1.580
 8624TIP3    H125817   0.654   5.224   1.644
 8624TIP3    H225818   0.656   5.291   1.508
 8625TIP3   OH225819   3.285   2.146   4.622
 8625TIP3    H125820   3.248   2.076   4.676
 8625TIP3    H225821   3.210   2.194   4.588
 8626TIP3   OH225822   3.627   3.278   5.656
 8626TIP3    H125823   3.611   3.210   5.721
 8626TIP3    H225824   3.568   3.257   5.584
 8627TIP3   OH225825   3.900   2.815   4.270
 8627TIP3    H125826   3.964   2.748   4.248
 8627TIP3    H225827   3.849   2.827   4.190
 8628TIP3   OH225828   3.119   4.078   5.234
 8628TIP3    H125829   3.092   4.037   5.317
 8628TIP3    H225830   3.210   4.052   5.224
 8629TIP3   OH225831   1.901   1.388   4.423
 8629TIP3    H125832   1.982   1.345   4.451
 8629TIP3    H225833   1.842   1.316   4.402
 8630TIP3   OH225834   6.845   5.428   3.591
 8630TIP3    H125835   6.757   5.396   3.613
 8630TIP3    H225836   6.846   5.431   3.495
 8631TIP3   OH225837   2.175   5.798   0.107
 8631TIP3    H125838   2.112   5.815   0.038
 8631TIP3    H225839   2.209   5.711   0.088
 8632TIP3   OH225840   6.699   5.340   2.477
 8632TIP3    H125841   6.745   5.320   2.559
 8632TIP3    H225842   6.761   5.314   2.408
 8633TIP3   OH225843   3.104   6.567   4.614
 8633TIP3    H125844   3.100   6.513   4.693
 8633TIP3    H225845   3.138   6.509   4.546
 8634TIP3   OH225846   6.167   2.364   2.282
 8634TIP3    H125847   6.141   2.285   2.330
 8634TIP3    H225848   6.245   2.395   2.328
 8635TIP3   OH225849   6.649   5.169   4.894
 8635TIP3    H125850   6.593   5.243   4.919
 8635TIP3    H225851   6.683   5.136   4.978
 8636TIP3   OH225852   7.799   3.819   1.876
 8636TIP3    H125853   7.829   3.772   1.954
 8636TIP3    H225854   7.836   3.770   1.803
 8637TIP3   OH225855   6.680   6.244   1.383
 8637TIP3    H125856   6.715   6.297   1.455
 8637TIP3    H225857   6.745   6.175   1.371
 8638TIP3   OH225858   5.469   2.015   6.520
 8638TIP3    H125859   5.480   2.052   6.608
 8638TIP3    H225860   5.374   2.013   6.508
 8639TIP3   OH225861   3.720   1.869   2.516
 8639TIP3    H125862   3.757   1.880   2.604
 8639TIP3    H225863   3.627   1.849   2.531
 8640TIP3   OH225864   2.437   6.788   6.034
 8640TIP3    H125865   2.504   6.735   5.991
 8640TIP3    H225866   2.354   6.752   6.002
 8641TIP3   OH225867   7.596   3.714   1.085
 8641TIP3    H125868   7.609   3.809   1.085
 8641TIP3    H225869   7.502   3.704   1.070
 8642TIP3   OH225870   1.117   3.528   5.419
 8642TIP3    H125871   1.108   3.491   5.507
 8642TIP3    H225872   1.203   3.569   5.418
 8643TIP3   OH225873   6.659   6.805   1.045
 8643TIP3    H125874   6.594   6.770   0.983
 8643TIP3    H225875   6.633   6.896   1.058
 8644TIP3   OH225876   3.982   3.762   4.716
 8644TIP3    H125877   4.026   3.754   4.631
 8644TIP3    H225878   3.891   3.785   4.695
 8645TIP3   OH225879   2.647   3.892   1.577
 8645TIP3    H125880   2.742   3.885   1.590
 8645TIP3    H225881   2.610   3.822   1.631
 8646TIP3   OH225882   5.079   3.651   5.990
 8646TIP3    H125883   5.099   3.724   6.049
 8646TIP3    H225884   5.005   3.607   6.031
 8647TIP3   OH225885   7.029   0.809   4.362
 8647TIP3    H125886   7.111   0.825   4.410
 8647TIP3    H225887   7.056   0.762   4.283
 8648TIP3   OH225888   7.516   7.375   4.542
 8648TIP3    H125889   7.530   7.330   4.459
 8648TIP3    H225890   7.590   7.435   4.549
 8649TIP3   OH225891   0.042   1.832   5.881
 8649TIP3    H125892  -0.035   1.857   5.830
 8649TIP3    H225893   0.064   1.744   5.850
 8650TIP3   OH225894   6.315   6.942   4.131
 8650TIP3    H125895   6.346   6.905   4.214
 8650TIP3    H225896   6.311   7.036   4.147
 8651TIP3   OH225897   7.531   2.206   0.368
 8651TIP3    H125898   7.472   2.149   0.418
 8651TIP3    H225899   7.477   2.282   0.347
 8652TIP3   OH225900   1.892   5.576   1.767
 8652TIP3    H125901   1.942   5.551   1.845
 8652TIP3    H225902   1.943   5.646   1.726
 8653TIP3   OH225903   4.635   5.674   5.169
 8653TIP3    H125904   4.621   5.609   5.237
 8653TIP3    H225905   4.646   5.623   5.089
 8654TIP3   OH225906   1.770   0.871   0.926
 8654TIP3    H125907   1.783   0.865   0.831
 8654TIP3    H225908   1.710   0.945   0.937
 8655TIP3   OH225909   0.332   0.201   6.601
 8655TIP3    H125910   0.349   0.283   6.556
 8655TIP3    H225911   0.236   0.194   6.602
 8656TIP3   OH225912   6.760   2.806   3.576
 8656TIP3    H125913   6.706   2.814   3.654
 8656TIP3    H225914   6.827   2.873   3.586
 8657TIP3   OH225915   2.155   5.404   0.515
 8657TIP3    H125916   2.074   5.410   0.464
 8657TIP3    H225917   2.223   5.440   0.457
 8658TIP3   OH225918   0.312   4.647   2.367
 8658TIP3    H125919   0.372   4.695   2.309
 8658TIP3    H225920   0.338   4.675   2.455
 8659TIP3   OH225921   4.512   6.437   3.008
 8659TIP3    H125922   4.598   6.394   3.004
 8659TIP3    H225923   4.450   6.365   2.999
 8660TIP3   OH225924   4.113   1.972   2.120
 8660TIP3    H125925   4.160   1.894   2.151
 8660TIP3    H225926   4.056   1.996   2.193
 8661TIP3   OH225927   1.985   4.795   2.913
 8661TIP3    H125928   1.934   4.798   2.994
 8661TIP3    H225929   2.074   4.777   2.941
 8662TIP3   OH225930   2.676   3.776   2.864
 8662TIP3    H125931   2.668   3.681   2.861
 8662TIP3    H225932   2.767   3.793   2.886
 8663TIP3   OH225933   5.965   0.804   0.954
 8663TIP3    H125934   5.947   0.719   0.913
 8663TIP3    H225935   6.057   0.798   0.982
 8664TIP3   OH225936   6.737   5.183   5.973
 8664TIP3    H125937   6.758   5.095   5.941
 8664TIP3    H225938   6.730   5.236   5.894
 8665TIP3   OH225939   0.063   6.890   0.215
 8665TIP3    H125940   0.056   6.818   0.153
 8665TIP3    H225941  -0.008   6.950   0.190
 8666TIP3   OH225942   5.746   6.009   1.968
 8666TIP3    H125943   5.794   6.091   1.953
 8666TIP3    H225944   5.662   6.021   1.924
 8667TIP3   OH225945   1.608   6.733   3.028
 8667TIP3    H125946   1.578   6.779   2.950
 8667TIP3    H225947   1.573   6.644   3.019
 8668TIP3   OH225948   6.105   1.182   2.960
 8668TIP3    H125949   6.042   1.246   2.925
 8668TIP3    H225950   6.053   1.105   2.979
 8669TIP3   OH225951   7.587   2.339   5.396
 8669TIP3    H125952   7.586   2.336   5.492
 8669TIP3    H225953   7.644   2.413   5.375
 8670TIP3   OH225954   3.701   2.159   2.224
 8670TIP3    H125955   3.616   2.138   2.262
 8670TIP3    H225956   3.703   2.111   2.141
 8671TIP3   OH225957   1.177   6.314   3.921
 8671TIP3    H125958   1.156   6.269   3.839
 8671TIP3    H225959   1.251   6.372   3.898
 8672TIP3   OH225960   1.656   2.022   4.289
 8672TIP3    H125961   1.703   1.989   4.212
 8672TIP3    H225962   1.578   1.967   4.295
 8673TIP3   OH225963   2.823   3.009   6.417
 8673TIP3    H125964   2.737   3.041   6.391
 8673TIP3    H225965   2.882   3.083   6.403
 8674TIP3   OH225966   3.544   4.199   3.218
 8674TIP3    H125967   3.633   4.225   3.199
 8674TIP3    H225968   3.550   4.151   3.301
 8675TIP3   OH225969   1.602   6.038   3.051
 8675TIP3    H125970   1.662   6.046   3.126
 8675TIP3    H225971   1.614   6.119   3.002
 8676TIP3   OH225972   3.271   6.999   5.938
 8676TIP3    H125973   3.349   7.044   5.969
 8676TIP3    H225974   3.221   7.067   5.891
 8677TIP3   OH225975   0.895   3.394   6.571
 8677TIP3    H125976   0.973   3.391   6.516
 8677TIP3    H225977   0.855   3.478   6.551
 8678TIP3   OH225978   4.533   6.506   4.994
 8678TIP3    H125979   4.622   6.542   4.999
 8678TIP3    H225980   4.546   6.411   4.996
 8679TIP3   OH225981   4.418   4.210   1.757
 8679TIP3    H125982   4.377   4.281   1.807
 8679TIP3    H225983   4.443   4.250   1.674
 8680TIP3   OH225984   6.855   2.751   6.604
 8680TIP3    H125985   6.826   2.716   6.520
 8680TIP3    H225986   6.776   2.790   6.642
 8681TIP3   OH225987   6.926   3.678   3.765
 8681TIP3    H125988   6.893   3.740   3.830
 8681TIP3    H225989   6.906   3.719   3.680
 8682TIP3   OH225990   0.440   0.659   0.962
 8682TIP3    H125991   0.481   0.577   0.991
 8682TIP3    H225992   0.391   0.689   1.038
 8683TIP3   OH225993   3.480   3.620   2.876
 8683TIP3    H125994   3.393   3.656   2.894
 8683TIP3    H225995   3.464   3.542   2.824
 8684TIP3   OH225996   3.403   1.218   5.164
 8684TIP3    H125997   3.422   1.167   5.086
 8684TIP3    H225998   3.418   1.158   5.237
 8685TIP3   OH225999   7.706   7.115   5.244
 8685TIP3    H126000   7.627   7.093   5.292
 8685TIP3    H226001   7.682   7.192   5.193
 8686TIP3   OH226002   3.433   0.870   1.395
 8686TIP3    H126003   3.458   0.821   1.316
 8686TIP3    H226004   3.338   0.873   1.392
 8687TIP3   OH226005   7.305  -0.008   2.553
 8687TIP3    H126006   7.270  -0.020   2.465
 8687TIP3    H226007   7.230   0.025   2.604
 8688TIP3   OH226008   7.939   0.520   6.263
 8688TIP3    H126009   7.972   0.565   6.184
 8688TIP3    H226010   7.981   0.434   6.260
 8689TIP3   OH226011   5.771   6.323   5.821
 8689TIP3    H126012   5.764   6.419   5.820
 8689TIP3    H226013   5.706   6.294   5.757
 8690TIP3   OH226014   1.103   2.202   1.381
 8690TIP3    H126015   1.054   2.278   1.352
 8690TIP3    H226016   1.093   2.202   1.476
 8691TIP3   OH226017   5.635   7.267   5.352
 8691TIP3    H126018   5.637   7.292   5.444
 8691TIP3    H226019   5.649   7.172   5.353
 8692TIP3   OH226020   4.814   2.072   0.699
 8692TIP3    H126021   4.862   1.990   0.692
 8692TIP3    H226022   4.742   2.053   0.759
 8693TIP3   OH226023   4.233   3.081   1.506
 8693TIP3    H126024   4.143   3.107   1.526
 8693TIP3    H226025   4.274   3.161   1.473
 8694TIP3   OH226026   6.020   5.037   4.536
 8694TIP3    H126027   6.050   5.116   4.581
 8694TIP3    H226028   6.053   4.965   4.590
 8695TIP3   OH226029   4.098   7.131   5.200
 8695TIP3    H126030   4.178   7.100   5.158
 8695TIP3    H226031   4.119   7.218   5.232
 8696TIP3   OH226032   4.374   6.491   5.340
 8696TIP3    H126033   4.339   6.452   5.260
 8696TIP3    H226034   4.311   6.466   5.408
 8697TIP3   OH226035   3.860   4.788   6.598
 8697TIP3    H126036   3.772   4.752   6.611
 8697TIP3    H226037   3.909   4.758   6.675
 8698TIP3   OH226038   2.203   0.233   4.351
 8698TIP3    H126039   2.213   0.177   4.429
 8698TIP3    H226040   2.263   0.196   4.287
 8699TIP3   OH226041   1.616   0.598   0.921
 8699TIP3    H126042   1.567   0.644   0.990
 8699TIP3    H226043   1.693   0.653   0.907
 8700TIP3   OH226044   2.491   0.108   1.104
 8700TIP3    H126045   2.537   0.130   1.185
 8700TIP3    H226046   2.413   0.164   1.105
 8701TIP3   OH226047   2.243   3.739   5.135
 8701TIP3    H126048   2.205   3.790   5.206
 8701TIP3    H226049   2.211   3.782   5.055
 8702TIP3   OH226050   2.531   6.459   1.724
 8702TIP3    H126051   2.497   6.544   1.696
 8702TIP3    H226052   2.619   6.455   1.687
 8703TIP3   OH226053   7.269   3.374   4.434
 8703TIP3    H126054   7.198   3.345   4.376
 8703TIP3    H226055   7.312   3.292   4.462
 8704TIP3   OH226056   4.277   4.069   4.570
 8704TIP3    H126057   4.235   4.065   4.484
 8704TIP3    H226058   4.368   4.092   4.552
 8705TIP3   OH226059   7.232   2.750   1.199
 8705TIP3    H126060   7.244   2.796   1.116
 8705TIP3    H226061   7.244   2.817   1.266
 8706TIP3   OH226062   5.761   5.925   1.647
 8706TIP3    H126063   5.756   5.834   1.674
 8706TIP3    H226064   5.673   5.960   1.664
 8707TIP3   OH226065   6.657   3.257   4.570
 8707TIP3    H126066   6.593   3.186   4.567
 8707TIP3    H226067   6.723   3.232   4.505
 8708TIP3   OH226068   6.113   5.584   0.064
 8708TIP3    H126069   6.152   5.498   0.052
 8708TIP3    H226070   6.187   5.643   0.078
 8709TIP3   OH226071   5.810   7.730   1.419
 8709TIP3    H126072   5.736   7.766   1.370
 8709TIP3    H226073   5.847   7.805   1.465
 8710TIP3   OH226074   5.375   1.261   0.641
 8710TIP3    H126075   5.369   1.166   0.650
 8710TIP3    H226076   5.406   1.275   0.551
 8711TIP3   OH226077   6.159   5.311   0.035
 8711TIP3    H126078   6.221   5.251   0.078
 8711TIP3    H226079   6.081   5.309   0.090
 8712TIP3   OH226080   7.714   5.918   6.697
 8712TIP3    H126081   7.658   5.979   6.649
 8712TIP3    H226082   7.680   5.918   6.786
 8713TIP3   OH226083   4.965   6.783   5.529
 8713TIP3    H126084   4.958   6.877   5.546
 8713TIP3    H226085   4.879   6.748   5.553
 8714TIP3   OH226086   7.958   0.772   4.355
 8714TIP3    H126087   7.908   0.708   4.406
 8714TIP3    H226088   7.963   0.849   4.412
 8715TIP3   OH226089   6.960   7.068   0.099
 8715TIP3    H126090   6.900   7.000   0.067
 8715TIP3    H226091   7.003   7.100   0.020
 8716TIP3   OH226092   4.817   2.995   2.484
 8716TIP3    H126093   4.874   3.065   2.516
 8716TIP3    H226094   4.868   2.915   2.495
 8717TIP3   OH226095   5.767   3.497   0.534
 8717TIP3    H126096   5.768   3.422   0.594
 8717TIP3    H226097   5.796   3.571   0.587
 8718TIP3   OH226098   3.304   3.876   6.178
 8718TIP3    H126099   3.267   3.793   6.146
 8718TIP3    H226100   3.308   3.932   6.101
 8719TIP3   OH226101   6.322   5.111   0.156
 8719TIP3    H126102   6.293   5.031   0.112
 8719TIP3    H226103   6.319   5.090   0.249
 8720TIP3   OH226104   1.805   2.516   5.256
 8720TIP3    H126105   1.744   2.458   5.212
 8720TIP3    H226106   1.890   2.496   5.217
 8721TIP3   OH226107   0.572   3.061   4.960
 8721TIP3    H126108   0.600   2.985   5.010
 8721TIP3    H226109   0.581   3.034   4.869
 8722TIP3   OH226110   3.573   4.997   1.683
 8722TIP3    H126111   3.513   5.015   1.611
 8722TIP3    H226112   3.547   4.910   1.715
 8723TIP3   OH226113   7.091   2.566   6.340
 8723TIP3    H126114   7.175   2.562   6.294
 8723TIP3    H226115   7.097   2.497   6.406
 8724TIP3   OH226116   4.009   0.848   5.933
 8724TIP3    H126117   3.949   0.774   5.945
 8724TIP3    H226118   3.979   0.913   5.997
 8725TIP3   OH226119   2.801   2.154   2.883
 8725TIP3    H126120   2.819   2.233   2.934
 8725TIP3    H226121   2.723   2.174   2.833
 8726TIP3   OH226122   2.908   6.899   6.104
 8726TIP3    H126123   2.991   6.937   6.131
 8726TIP3    H226124   2.890   6.938   6.018
 8727TIP3   OH226125   7.332   3.849   0.450
 8727TIP3    H126126   7.346   3.899   0.530
 8727TIP3    H226127   7.299   3.764   0.480
 8728TIP3   OH226128   7.872   6.602   6.654
 8728TIP3    H126129   7.850   6.578   6.564
 8728TIP3    H226130   7.799   6.569   6.706
 8729TIP3   OH226131   1.315   1.568   3.113
 8729TIP3    H126132   1.278   1.500   3.168
 8729TIP3    H226133   1.267   1.561   3.030
 8730TIP3   OH226134   2.459   7.814   4.580
 8730TIP3    H126135   2.476   7.725   4.608
 8730TIP3    H226136   2.539   7.863   4.602
 8731TIP3   OH226137   7.192   1.217   5.876
 8731TIP3    H126138   7.136   1.286   5.840
 8731TIP3    H226139   7.252   1.263   5.935
 8732TIP3   OH226140   4.967   4.409   5.473
 8732TIP3    H126141   4.951   4.321   5.441
 8732TIP3    H226142   5.029   4.446   5.410
 8733TIP3   OH226143   2.305   4.356   6.155
 8733TIP3    H126144   2.386   4.365   6.106
 8733TIP3    H226145   2.325   4.391   6.242
 8734TIP3   OH226146   3.250   7.382   5.131
 8734TIP3    H126147   3.319   7.414   5.072
 8734TIP3    H226148   3.296   7.326   5.193
 8735TIP3   OH226149   0.027   5.972   2.551
 8735TIP3    H126150   0.027   5.877   2.539
 8735TIP3    H226151  -0.063   5.998   2.530
 8736TIP3   OH226152   1.018   4.517   5.369
 8736TIP3    H126153   0.946   4.572   5.401
 8736TIP3    H226154   0.989   4.487   5.283
 8737TIP3   OH226155   7.362   0.657   5.140
 8737TIP3    H126156   7.361   0.568   5.174
 8737TIP3    H226157   7.321   0.710   5.209
 8738TIP3   OH226158   2.586   7.263   6.301
 8738TIP3    H126159   2.506   7.227   6.339
 8738TIP3    H226160   2.649   7.191   6.303
 8739TIP3   OH226161   7.644   0.978   4.393
 8739TIP3    H126162   7.594   0.903   4.362
 8739TIP3    H226163   7.578   1.047   4.404
 8740TIP3   OH226164   4.641   6.240   1.366
 8740TIP3    H126165   4.599   6.321   1.335
 8740TIP3    H226166   4.698   6.269   1.438
 8741TIP3   OH226167   0.152   3.764   0.099
 8741TIP3    H126168   0.197   3.750   0.183
 8741TIP3    H226169   0.199   3.709   0.037
 8742TIP3   OH226170   6.052   2.328   3.968
 8742TIP3    H126171   6.057   2.382   4.047
 8742TIP3    H226172   6.088   2.244   3.994
 8743TIP3   OH226173   3.953   6.785   4.125
 8743TIP3    H126174   3.866   6.779   4.085
 8743TIP3    H226175   3.970   6.697   4.160
 8744TIP3   OH226176   5.270   5.784   4.596
 8744TIP3    H126177   5.244   5.694   4.579
 8744TIP3    H226178   5.192   5.836   4.578
 8745TIP3   OH226179   3.914   3.018   4.026
 8745TIP3    H126180   3.954   3.006   4.112
 8745TIP3    H226181   3.989   3.032   3.967
 8746TIP3   OH226182   5.658   0.658   4.854
 8746TIP3    H126183   5.707   0.656   4.772
 8746TIP3    H226184   5.608   0.740   4.849
 8747TIP3   OH226185   5.710   4.750   0.568
 8747TIP3    H126186   5.736   4.781   0.654
 8747TIP3    H226187   5.735   4.657   0.568
 8748TIP3   OH226188   5.284   5.384   6.426
 8748TIP3    H126189   5.191   5.408   6.425
 8748TIP3    H226190   5.322   5.438   6.496
 8749TIP3   OH226191   7.995   1.256   4.879
 8749TIP3    H126192   7.971   1.284   4.791
 8749TIP3    H226193   7.925   1.197   4.906
 8750TIP3   OH226194   3.383   4.823   6.021
 8750TIP3    H126195   3.327   4.898   6.042
 8750TIP3    H226196   3.465   4.862   5.990
 8751TIP3   OH226197   6.343   5.842   1.309
 8751TIP3    H126198   6.322   5.933   1.333
 8751TIP3    H226199   6.325   5.792   1.389
 8752TIP3   OH226200   6.579   3.946   1.020
 8752TIP3    H126201   6.622   3.960   1.104
 8752TIP3    H226202   6.486   3.958   1.039
 8753TIP3   OH226203   0.215   2.272   0.275
 8753TIP3    H126204   0.248   2.316   0.196
 8753TIP3    H226205   0.145   2.215   0.242
 8754TIP3   OH226206   1.884   2.712   0.490
 8754TIP3    H126207   1.882   2.616   0.481
 8754TIP3    H226208   1.935   2.727   0.569
 8755TIP3   OH226209   0.088   2.062   4.107
 8755TIP3    H126210   0.076   1.968   4.115
 8755TIP3    H226211   0.104   2.092   4.197
 8756TIP3   OH226212   0.855   4.750   5.384
 8756TIP3    H126213   0.759   4.750   5.385
 8756TIP3    H226214   0.880   4.777   5.472
 8757TIP3   OH226215   1.948   1.112   3.600
 8757TIP3    H126216   1.955   1.091   3.693
 8757TIP3    H226217   1.971   1.204   3.593
 8758TIP3   OH226218   6.429   2.052   3.767
 8758TIP3    H126219   6.459   2.139   3.740
 8758TIP3    H226220   6.434   1.999   3.688
 8759TIP3   OH226221   3.006   5.086   4.345
 8759TIP3    H126222   3.057   5.124   4.273
 8759TIP3    H226223   3.027   4.993   4.343
 8760TIP3   OH226224   0.662   1.075   5.770
 8760TIP3    H126225   0.595   1.141   5.753
 8760TIP3    H226226   0.638   1.039   5.856
 8761TIP3   OH226227   5.392   2.496   1.966
 8761TIP3    H126228   5.465   2.469   1.911
 8761TIP3    H226229   5.407   2.453   2.050
 8762TIP3   OH226230   3.830   4.453   6.425
 8762TIP3    H126231   3.857   4.361   6.427
 8762TIP3    H226232   3.908   4.500   6.396
 8763TIP3   OH226233   6.144   3.069   6.563
 8763TIP3    H126234   6.128   2.981   6.598
 8763TIP3    H226235   6.239   3.078   6.563
 8764TIP3   OH226236   0.356   0.201   0.962
 8764TIP3    H126237   0.402   0.127   1.001
 8764TIP3    H226238   0.264   0.176   0.964
 8765TIP3   OH226239   6.285   1.418   4.828
 8765TIP3    H126240   6.303   1.328   4.855
 8765TIP3    H226241   6.192   1.418   4.803
 8766TIP3   OH226242   0.597   1.447   4.513
 8766TIP3    H126243   0.605   1.537   4.546
 8766TIP3    H226244   0.526   1.451   4.450
 8767TIP3   OH226245   7.531   1.378   2.958
 8767TIP3    H126246   7.540   1.287   2.929
 8767TIP3    H226247   7.473   1.418   2.895
 8768TIP3   OH226248   1.094   5.235   4.855
 8768TIP3    H126249   1.158   5.256   4.788
 8768TIP3    H226250   1.074   5.319   4.897
 8769TIP3   OH226251   5.672   2.462   2.597
 8769TIP3    H126252   5.720   2.545   2.604
 8769TIP3    H226253   5.583   2.484   2.625
 8770TIP3   OH226254   5.349   4.019   5.615
 8770TIP3    H126255   5.327   4.015   5.708
 8770TIP3    H226256   5.355   4.113   5.596
 8771TIP3   OH226257   2.374   1.913   3.477
 8771TIP3    H126258   2.418   1.863   3.408
 8771TIP3    H226259   2.287   1.930   3.442
 8772TIP3   OH226260   4.742   0.995   6.545
 8772TIP3    H126261   4.694   0.913   6.555
 8772TIP3    H226262   4.834   0.969   6.542
 8773TIP3   OH226263   0.889  -0.014   1.809
 8773TIP3    H126264   0.908   0.055   1.872
 8773TIP3    H226265   0.794  -0.008   1.795
 8774TIP3   OH226266   4.389   0.059   3.749
 8774TIP3    H126267   4.438   0.136   3.777
 8774TIP3    H226268   4.410  -0.008   3.813
 8775TIP3   OH226269   6.500   5.545  -0.015
 8775TIP3    H126270   6.587   5.525  -0.050
 8775TIP3    H226271   6.494   5.640  -0.017
 8776TIP3   OH226272   6.052   0.476   2.583
 8776TIP3    H126273   6.077   0.522   2.503
 8776TIP3    H226274   6.134   0.467   2.632
 8777TIP3   OH226275  -0.011   5.010   0.559
 8777TIP3    H126276   0.081   5.020   0.585
 8777TIP3    H226277  -0.056   4.989   0.640
 8778TIP3   OH226278   7.574   3.460   5.826
 8778TIP3    H126279   7.491   3.419   5.800
 8778TIP3    H226280   7.626   3.388   5.862
 8779TIP3   OH226281   1.511   6.452   6.287
 8779TIP3    H126282   1.568   6.522   6.320
 8779TIP3    H226283   1.520   6.457   6.192
 8780TIP3   OH226284   1.180   6.329   2.264
 8780TIP3    H126285   1.273   6.336   2.242
 8780TIP3    H226286   1.137   6.391   2.205
 8781TIP3   OH226287   8.218   1.646   5.417
 8781TIP3    H126288   8.214   1.650   5.321
 8781TIP3    H226289   8.287   1.583   5.435
 8782TIP3   OH226290   0.682   2.606   1.229
 8782TIP3    H126291   0.702   2.700   1.231
 8782TIP3    H226292   0.707   2.578   1.141
 8783TIP3   OH226293   0.340   5.302   1.460
 8783TIP3    H126294   0.433   5.291   1.478
 8783TIP3    H226295   0.335   5.378   1.402
 8784TIP3   OH226296   2.827   3.037   0.378
 8784TIP3    H126297   2.763   2.968   0.362
 8784TIP3    H226298   2.869   3.013   0.460
 8785TIP3   OH226299   7.450   0.861   2.597
 8785TIP3    H126300   7.388   0.926   2.628
 8785TIP3    H226301   7.397   0.797   2.550
 8786TIP3   OH226302   2.634   5.995   2.661
 8786TIP3    H126303   2.629   5.919   2.719
 8786TIP3    H226304   2.544   6.023   2.649
 8787TIP3   OH226305   1.259   6.558   0.084
 8787TIP3    H126306   1.218   6.472   0.070
 8787TIP3    H226307   1.301   6.578   0.000
 8788TIP3   OH226308   8.265   7.501   6.067
 8788TIP3    H126309   8.350   7.545   6.064
 8788TIP3    H226310   8.253   7.477   6.159
 8789TIP3   OH226311   1.144   5.985   6.059
 8789TIP3    H126312   1.197   6.052   6.016
 8789TIP3    H226313   1.158   5.906   6.006
 8790TIP3   OH226314   7.699   4.527   2.933
 8790TIP3    H126315   7.782   4.566   2.963
 8790TIP3    H226316   7.694   4.550   2.841
 8791TIP3   OH226317   1.108   6.743   5.406
 8791TIP3    H126318   1.155   6.660   5.412
 8791TIP3    H226319   1.175   6.808   5.387
 8792TIP3   OH226320   3.083   3.047   0.160
 8792TIP3    H126321   3.044   3.126   0.198
 8792TIP3    H226322   3.028   2.976   0.192
 8793TIP3   OH226323   4.499   7.392   6.410
 8793TIP3    H126324   4.576   7.338   6.426
 8793TIP3    H226325   4.426   7.341   6.444
 8794TIP3   OH226326   6.751   5.775   6.234
 8794TIP3    H126327   6.725   5.764   6.142
 8794TIP3    H226328   6.681   5.828   6.272
 8795TIP3   OH226329   3.656   4.733   5.793
 8795TIP3    H126330   3.643   4.810   5.736
 8795TIP3    H226331   3.635   4.658   5.737
 8796TIP3   OH226332   7.922   2.162   5.412
 8796TIP3    H126333   7.906   2.180   5.320
 8796TIP3    H226334   7.962   2.076   5.414
 8797TIP3   OH226335   4.950   1.000   3.379
 8797TIP3    H126336   4.967   1.025   3.289
 8797TIP3    H226337   5.032   0.961   3.410
 8798TIP3   OH226338   7.733   3.917   4.240
 8798TIP3    H126339   7.730   3.919   4.144
 8798TIP3    H226340   7.685   3.995   4.267
 8799TIP3   OH226341   4.223   1.185   3.160
 8799TIP3    H126342   4.132   1.199   3.136
 8799TIP3    H226343   4.265   1.270   3.144
 8800TIP3   OH226344   7.057   3.398   6.047
 8800TIP3    H126345   7.088   3.474   5.998
 8800TIP3    H226346   6.973   3.425   6.083
 8801TIP3   OH226347   5.836   6.687   2.250
 8801TIP3    H126348   5.866   6.751   2.315
 8801TIP3    H226349   5.750   6.659   2.282
 8802TIP3   OH226350   4.592   3.579   6.403
 8802TIP3    H126351   4.583   3.502   6.346
 8802TIP3    H226352   4.668   3.625   6.367
 8803TIP3   OH226353   2.033   2.297   6.386
 8803TIP3    H126354   1.970   2.352   6.339
 8803TIP3    H226355   2.118   2.332   6.362
 8804TIP3   OH226356   7.122   2.052   1.643
 8804TIP3    H126357   7.061   2.069   1.715
 8804TIP3    H226358   7.200   2.015   1.686
 8805TIP3   OH226359   3.187   1.542   3.058
 8805TIP3    H126360   3.268   1.491   3.056
 8805TIP3    H226361   3.174   1.564   3.150
 8806TIP3   OH226362   1.820   4.813   1.376
 8806TIP3    H126363   1.732   4.775   1.377
 8806TIP3    H226364   1.809   4.901   1.410
 8807TIP3   OH226365   5.230   5.712   2.640
 8807TIP3    H126366   5.301   5.695   2.702
 8807TIP3    H226367   5.180   5.630   2.638
 8808TIP3   OH226368   5.228   7.521   3.622
 8808TIP3    H126369   5.289   7.544   3.692
 8808TIP3    H226370   5.172   7.598   3.613
 8809TIP3   OH226371   1.010   0.575   4.236
 8809TIP3    H126372   0.987   0.497   4.287
 8809TIP3    H226373   0.999   0.648   4.297
 8810TIP3   OH226374   0.905   5.004   5.158
 8810TIP3    H126375   0.987   4.958   5.173
 8810TIP3    H226376   0.848   4.938   5.118
 8811TIP3   OH226377   6.793   6.263   0.763
 8811TIP3    H126378   6.710   6.265   0.811
 8811TIP3    H226379   6.771   6.223   0.679
 8812TIP3   OH226380   5.395   7.566   2.061
 8812TIP3    H126381   5.333   7.618   2.010
 8812TIP3    H226382   5.363   7.476   2.052
 8813TIP3   OH226383   0.847   0.248   0.862
 8813TIP3    H126384   0.773   0.204   0.820
 8813TIP3    H226385   0.912   0.256   0.793
 8814TIP3   OH226386   6.266   3.209   4.315
 8814TIP3    H126387   6.319   3.266   4.371
 8814TIP3    H226388   6.176   3.224   4.343
 8815TIP3   OH226389   7.718   5.036   3.557
 8815TIP3    H126390   7.714   4.942   3.541
 8815TIP3    H226391   7.627   5.061   3.576
 8816TIP3   OH226392   3.979   5.688   3.759
 8816TIP3    H126393   3.933   5.647   3.832
 8816TIP3    H226394   3.964   5.782   3.770
 8817TIP3   OH226395   6.383   6.454   5.709
 8817TIP3    H126396   6.400   6.547   5.692
 8817TIP3    H226397   6.304   6.436   5.658
 8818TIP3   OH226398   1.257   7.751   4.300
 8818TIP3    H126399   1.199   7.754   4.224
 8818TIP3    H226400   1.224   7.820   4.357
 8819TIP3   OH226401   0.839   0.926   1.442
 8819TIP3    H126402   0.874   0.852   1.491
 8819TIP3    H226403   0.790   0.976   1.506
 8820TIP3   OH226404   6.555   1.948   4.876
 8820TIP3    H126405   6.559   1.908   4.789
 8820TIP3    H226406   6.545   2.042   4.859
 8821TIP3   OH226407   8.025   2.385   3.874
 8821TIP3    H126408   8.071   2.463   3.843
 8821TIP3    H226409   8.052   2.376   3.965
 8822TIP3   OH226410   1.516   0.888   6.132
 8822TIP3    H126411   1.422   0.874   6.144
 8822TIP3    H226412   1.523   0.930   6.046
 8823TIP3   OH226413   5.267   2.714   3.250
 8823TIP3    H126414   5.227   2.797   3.274
 8823TIP3    H226415   5.193   2.659   3.223
 8824TIP3   OH226416   5.725   4.099   6.716
 8824TIP3    H126417   5.638   4.102   6.757
 8824TIP3    H226418   5.721   4.026   6.655
 8825TIP3   OH226419   1.911   7.003   6.340
 8825TIP3    H126420   1.848   7.072   6.358
 8825TIP3    H226421   1.988   7.025   6.393
 8826TIP3   OH226422   5.459   1.156   4.075
 8826TIP3    H126423   5.431   1.242   4.107
 8826TIP3    H226424   5.549   1.147   4.107
 8827TIP3   OH226425   7.566   5.386   6.699
 8827TIP3    H126426   7.518   5.398   6.780
 8827TIP3    H226427   7.602   5.473   6.679
 8828TIP3   OH226428   6.145   7.487   1.964
 8828TIP3    H126429   6.235   7.494   1.932
 8828TIP3    H226430   6.122   7.395   1.950
 8829TIP3   OH226431   3.838   4.516   2.211
 8829TIP3    H126432   3.837   4.423   2.188
 8829TIP3    H226433   3.901   4.555   2.149
 8830TIP3   OH226434   0.423   1.272   2.789
 8830TIP3    H126435   0.415   1.221   2.870
 8830TIP3    H226436   0.338   1.262   2.746
 8831TIP3   OH226437   8.000   2.441   5.225
 8831TIP3    H126438   7.951   2.452   5.143
 8831TIP3    H226439   8.086   2.479   5.207
 8832TIP3   OH226440   2.275   6.219   0.256
 8832TIP3    H126441   2.202   6.180   0.207
 8832TIP3    H226442   2.239   6.300   0.292
 8833TIP3   OH226443   4.801   4.444   1.747
 8833TIP3    H126444   4.804   4.511   1.815
 8833TIP3    H226445   4.809   4.361   1.795
 8834TIP3   OH226446   3.625   6.903   4.202
 8834TIP3    H126447   3.663   6.816   4.189
 8834TIP3    H226448   3.567   6.893   4.277
 8835TIP3   OH226449   0.547   1.034   3.865
 8835TIP3    H126450   0.572   1.069   3.780
 8835TIP3    H226451   0.536   0.940   3.850
 8836TIP3   OH226452   7.715   0.553   2.158
 8836TIP3    H126453   7.786   0.588   2.213
 8836TIP3    H226454   7.653   0.516   2.220
 8837TIP3   OH226455   7.219   0.058   4.035
 8837TIP3    H126456   7.242   0.114   3.961
 8837TIP3    H226457   7.127   0.035   4.020
 8838TIP3   OH226458   3.706   6.616   4.168
 8838TIP3    H126459   3.676   6.602   4.078
 8838TIP3    H226460   3.797   6.586   4.168
 8839TIP3   OH226461   4.328   6.080   2.184
 8839TIP3    H126462   4.412   6.102   2.145
 8839TIP3    H226463   4.347   6.004   2.240
 8840TIP3   OH226464   1.332   4.293   0.627
 8840TIP3    H126465   1.423   4.322   0.628
 8840TIP3    H226466   1.284   4.362   0.672
 8841TIP3   OH226467   7.568   1.398   5.528
 8841TIP3    H126468   7.486   1.401   5.577
 8841TIP3    H226469   7.629   1.450   5.580
 8842TIP3   OH226470   2.534   7.341   3.948
 8842TIP3    H126471   2.478   7.345   3.871
 8842TIP3    H226472   2.618   7.377   3.920
 8843TIP3   OH226473   2.181   0.975   4.307
 8843TIP3    H126474   2.159   0.928   4.388
 8843TIP3    H226475   2.235   1.049   4.336
 8844TIP3   OH226476   7.113   7.427   2.526
 8844TIP3    H126477   7.141   7.491   2.461
 8844TIP3    H226478   7.041   7.380   2.484
 8845TIP3   OH226479   6.171   4.276   4.583
 8845TIP3    H126480   6.134   4.363   4.568
 8845TIP3    H226481   6.206   4.249   4.498
 8846TIP3   OH226482   3.613   1.180   6.235
 8846TIP3    H126483   3.573   1.095   6.253
 8846TIP3    H226484   3.545   1.244   6.257
 8847TIP3   OH226485   7.771   5.779   4.743
 8847TIP3    H126486   7.831   5.826   4.801
 8847TIP3    H226487   7.768   5.690   4.779
 8848TIP3   OH226488   1.603   5.621   2.588
 8848TIP3    H126489   1.540   5.684   2.552
 8848TIP3    H226490   1.552   5.542   2.603
 8849TIP3   OH226491   4.081   4.613   2.829
 8849TIP3    H126492   4.040   4.692   2.794
 8849TIP3    H226493   4.170   4.614   2.793
 8850TIP3   OH226494   2.436   0.621   1.769
 8850TIP3    H126495   2.383   0.701   1.760
 8850TIP3    H226496   2.447   0.610   1.864
 8851TIP3   OH226497   6.424   7.371   3.182
 8851TIP3    H126498   6.399   7.450   3.134
 8851TIP3    H226499   6.475   7.320   3.119
 8852TIP3   OH226500   3.184   0.437   4.100
 8852TIP3    H126501   3.218   0.349   4.089
 8852TIP3    H226502   3.119   0.430   4.170
 8853TIP3   OH226503   0.187   5.152   3.398
 8853TIP3    H126504   0.231   5.196   3.470
 8853TIP3    H226505   0.217   5.062   3.402
 8854TIP3   OH226506   2.286   4.584   5.341
 8854TIP3    H126507   2.375   4.549   5.344
 8854TIP3    H226508   2.234   4.513   5.303
 8855TIP3   OH226509   1.457   3.612   4.907
 8855TIP3    H126510   1.370   3.575   4.894
 8855TIP3    H226511   1.457   3.640   4.998
 8856TIP3   OH226512   7.319   2.501   5.215
 8856TIP3    H126513   7.300   2.470   5.303
 8856TIP3    H226514   7.241   2.478   5.164
 8857TIP3   OH226515   1.737   4.299   4.558
 8857TIP3    H126516   1.669   4.250   4.511
 8857TIP3    H226517   1.689   4.350   4.623
 8858TIP3   OH226518   0.662   1.200   4.249
 8858TIP3    H126519   0.691   1.177   4.338
 8858TIP3    H226520   0.710   1.139   4.193
 8859TIP3   OH226521   4.252   5.534   6.204
 8859TIP3    H126522   4.274   5.490   6.287
 8859TIP3    H226523   4.316   5.499   6.141
 8860TIP3   OH226524   1.929   4.375   3.308
 8860TIP3    H126525   1.892   4.292   3.279
 8860TIP3    H226526   1.941   4.426   3.228
 8861TIP3   OH226527   0.913   4.631   0.742
 8861TIP3    H126528   0.831   4.673   0.718
 8861TIP3    H226529   0.891   4.577   0.818
 8862TIP3   OH226530   6.461   3.376   1.208
 8862TIP3    H126531   6.487   3.355   1.298
 8862TIP3    H226532   6.529   3.336   1.154
 8863TIP3   OH226533   7.556   5.829   2.154
 8863TIP3    H126534   7.613   5.849   2.079
 8863TIP3    H226535   7.479   5.787   2.115
 8864TIP3   OH226536   3.257   7.269   2.769
 8864TIP3    H126537   3.265   7.282   2.674
 8864TIP3    H226538   3.163   7.277   2.787
 8865TIP3   OH226539   6.674   3.435   6.717
 8865TIP3    H126540   6.664   3.489   6.638
 8865TIP3    H226541   6.738   3.368   6.692
 8866TIP3   OH226542   4.476   3.161   5.469
 8866TIP3    H126543   4.492   3.179   5.562
 8866TIP3    H226544   4.562   3.172   5.428
 8867TIP3   OH226545   2.251   5.535   2.139
 8867TIP3    H126546   2.272   5.460   2.193
 8867TIP3    H226547   2.216   5.600   2.200
 8868TIP3   OH226548   2.694   6.386   2.588
 8868TIP3    H126549   2.664   6.344   2.669
 8868TIP3    H226550   2.651   6.337   2.518
 8869TIP3   OH226551   3.033   3.797   2.340
 8869TIP3    H126552   3.104   3.750   2.297
 8869TIP3    H226553   3.069   3.884   2.357
 8870TIP3   OH226554   4.315   7.022   0.051
 8870TIP3    H126555   4.409   7.017   0.071
 8870TIP3    H226556   4.299   6.946  -0.005
 8871TIP3   OH226557   6.430   7.450   6.503
 8871TIP3    H126558   6.492   7.404   6.446
 8871TIP3    H226559   6.404   7.527   6.453
 8872TIP3   OH226560   0.798   0.986   2.721
 8872TIP3    H126561   0.794   1.052   2.790
 8872TIP3    H226562   0.774   0.904   2.764
 8873TIP3   OH226563   1.943   1.453   2.142
 8873TIP3    H126564   2.021   1.503   2.115
 8873TIP3    H226565   1.872   1.518   2.142
 8874TIP3   OH226566   6.366   3.407   1.888
 8874TIP3    H126567   6.405   3.494   1.894
 8874TIP3    H226568   6.351   3.381   1.978
 8875TIP3   OH226569   4.152   4.891   4.571
 8875TIP3    H126570   4.057   4.895   4.581
 8875TIP3    H226571   4.166   4.850   4.486
 8876TIP3   OH226572   5.442   7.491   0.629
 8876TIP3    H126573   5.509   7.471   0.563
 8876TIP3    H226574   5.442   7.586   0.635
 8877TIP3   OH226575   4.606   2.243   4.842
 8877TIP3    H126576   4.663   2.278   4.773
 8877TIP3    H226577   4.551   2.316   4.868
 8878TIP3   OH226578   1.914   7.258   5.880
 8878TIP3    H126579   1.825   7.256   5.847
 8878TIP3    H226580   1.965   7.210   5.815
 8879TIP3   OH226581   4.040   0.932   2.912
 8879TIP3    H126582   4.044   0.955   3.004
 8879TIP3    H226583   4.089   1.001   2.867
 8880TIP3   OH226584   6.130   5.910   4.496
 8880TIP3    H126585   6.116   5.995   4.538
 8880TIP3    H226586   6.076   5.849   4.546
 8881TIP3   OH226587   6.110   0.889   2.314
 8881TIP3    H126588   6.197   0.886   2.354
 8881TIP3    H226589   6.050   0.880   2.388
 8882TIP3   OH226590   7.905   1.768   2.304
 8882TIP3    H126591   7.998   1.758   2.323
 8882TIP3    H226592   7.900   1.840   2.241
 8883TIP3   OH226593   5.198   4.159   1.256
 8883TIP3    H126594   5.279   4.176   1.208
 8883TIP3    H226595   5.210   4.205   1.339
 8884TIP3   OH226596   5.764   1.863   0.447
 8884TIP3    H126597   5.731   1.810   0.520
 8884TIP3    H226598   5.762   1.804   0.372
 8885TIP3   OH226599   0.496   7.436   1.844
 8885TIP3    H126600   0.560   7.450   1.774
 8885TIP3    H226601   0.447   7.518   1.848
 8886TIP3   OH226602   3.285   4.794   1.273
 8886TIP3    H126603   3.272   4.715   1.220
 8886TIP3    H226604   3.356   4.771   1.333
 8887TIP3   OH226605   4.922   7.367   6.325
 8887TIP3    H126606   4.992   7.373   6.389
 8887TIP3    H226607   4.847   7.332   6.373
 8888TIP3   OH226608   5.959   2.068   0.759
 8888TIP3    H126609   5.932   2.116   0.681
 8888TIP3    H226610   6.050   2.042   0.741
 8889TIP3   OH226611   8.062   2.850   5.594
 8889TIP3    H126612   7.992   2.785   5.595
 8889TIP3    H226613   8.092   2.852   5.503
 8890TIP3   OH226614   8.051   0.621   3.009
 8890TIP3    H126615   8.065   0.604   3.102
 8890TIP3    H226616   8.044   0.717   3.004
 8891TIP3   OH226617   3.682   0.633   5.523
 8891TIP3    H126618   3.590   0.622   5.546
 8891TIP3    H226619   3.683   0.640   5.428
 8892TIP3   OH226620   0.238   4.931   6.496
 8892TIP3    H126621   0.216   4.842   6.525
 8892TIP3    H226622   0.159   4.982   6.513
 8893TIP3   OH226623   4.692   4.825   4.569
 8893TIP3    H126624   4.743   4.803   4.492
 8893TIP3    H226625   4.741   4.896   4.611
 8894TIP3   OH226626   3.865   3.776   3.899
 8894TIP3    H126627   3.927   3.847   3.885
 8894TIP3    H226628   3.825   3.761   3.814
 8895TIP3   OH226629   3.445   4.521   6.017
 8895TIP3    H126630   3.518   4.466   5.988
 8895TIP3    H226631   3.486   4.603   6.044
 8896TIP3   OH226632   0.096   3.629   5.199
 8896TIP3    H126633   0.171   3.659   5.147
 8896TIP3    H226634   0.134   3.594   5.279
 8897TIP3   OH226635   2.429   2.987   5.670
 8897TIP3    H126636   2.394   3.057   5.725
 8897TIP3    H226637   2.361   2.973   5.604
 8898TIP3   OH226638   4.202   5.198   0.953
 8898TIP3    H126639   4.107   5.209   0.951
 8898TIP3    H226640   4.225   5.206   1.046
 8899TIP3   OH226641   7.038   0.879   6.419
 8899TIP3    H126642   7.004   0.811   6.361
 8899TIP3    H226643   6.983   0.875   6.496
 8900TIP3   OH226644   5.265   2.181   3.766
 8900TIP3    H126645   5.257   2.094   3.728
 8900TIP3    H226646   5.203   2.182   3.839
 8901TIP3   OH226647   4.808  -0.024   6.726
 8901TIP3    H126648   4.771  -0.047   6.811
 8901TIP3    H226649   4.770   0.062   6.705
 8902TIP3   OH226650   1.095   6.843   5.065
 8902TIP3    H126651   1.080   6.760   5.018
 8902TIP3    H226652   1.037   6.905   5.021
 8903TIP3   OH226653   2.376   5.044   3.117
 8903TIP3    H126654   2.427   5.019   3.193
 8903TIP3    H226655   2.310   5.105   3.151
 8904TIP3   OH226656   8.030   7.499   2.567
 8904TIP3    H126657   8.049   7.408   2.588
 8904TIP3    H226658   8.110   7.532   2.527
 8905TIP3   OH226659   4.276   5.797   1.595
 8905TIP3    H126660   4.198   5.758   1.636
 8905TIP3    H226661   4.272   5.890   1.617
 8906TIP3   OH226662   3.190   7.233   6.419
 8906TIP3    H126663   3.278   7.260   6.395
 8906TIP3    H226664   3.147   7.314   6.448
 8907TIP3   OH226665   8.235   5.556   0.292
 8907TIP3    H126666   8.170   5.548   0.221
 8907TIP3    H226667   8.310   5.504   0.262
 8908TIP3   OH226668   6.731   5.802   0.961
 8908TIP3    H126669   6.690   5.807   1.048
 8908TIP3    H226670   6.825   5.800   0.978
 8909TIP3   OH226671   1.275   4.821   1.174
 8909TIP3    H126672   1.208   4.866   1.226
 8909TIP3    H226673   1.263   4.729   1.195
 8910TIP3   OH226674   0.835   2.277   6.714
 8910TIP3    H126675   0.802   2.291   6.803
 8910TIP3    H226676   0.867   2.187   6.715
 8911TIP3   OH226677   3.321   4.050   2.672
 8911TIP3    H126678   3.390   3.986   2.688
 8911TIP3    H226679   3.349   4.096   2.592
 8912TIP3   OH226680   3.240   0.668   5.824
 8912TIP3    H126681   3.181   0.649   5.896
 8912TIP3    H226682   3.301   0.593   5.822
 8913TIP3   OH226683   4.708   0.996   4.289
 8913TIP3    H126684   4.769   1.001   4.363
 8913TIP3    H226685   4.763   0.974   4.214
 8914TIP3   OH226686   5.555   2.780   6.794
 8914TIP3    H126687   5.481   2.724   6.769
 8914TIP3    H226688   5.627   2.750   6.739
 8915TIP3   OH226689   7.380   2.687   5.030
 8915TIP3    H126690   7.303   2.712   4.979
 8915TIP3    H226691   7.348   2.622   5.092
 8916TIP3   OH226692   3.376   2.542   4.546
 8916TIP3    H126693   3.410   2.542   4.456
 8916TIP3    H226694   3.421   2.470   4.589
 8917TIP3   OH226695   1.037   3.027   0.495
 8917TIP3    H126696   1.096   3.102   0.503
 8917TIP3    H226697   0.981   3.032   0.573
 8918TIP3   OH226698   6.257   1.603   2.224
 8918TIP3    H126699   6.170   1.632   2.249
 8918TIP3    H226700   6.310   1.683   2.224
 8919TIP3   OH226701   7.002   6.406   0.485
 8919TIP3    H126702   7.027   6.395   0.576
 8919TIP3    H226703   7.013   6.499   0.468
 8920TIP3   OH226704   0.963   6.932   6.283
 8920TIP3    H126705   1.056   6.953   6.285
 8920TIP3    H226706   0.924   6.997   6.224
 8921TIP3   OH226707   6.092   5.489   4.933
 8921TIP3    H126708   6.018   5.430   4.946
 8921TIP3    H226709   6.140   5.486   5.016
 8922TIP3   OH226710   4.437   2.089   4.263
 8922TIP3    H126711   4.345   2.113   4.273
 8922TIP3    H226712   4.441   2.042   4.180
 8923TIP3   OH226713   4.064   1.964   6.760
 8923TIP3    H126714   4.156   1.958   6.788
 8923TIP3    H226715   4.061   2.041   6.704
 8924TIP3   OH226716   2.806   2.329   6.690
 8924TIP3    H126717   2.883   2.293   6.648
 8924TIP3    H226718   2.832   2.417   6.718
 8925TIP3   OH226719   5.451   2.988   3.097
 8925TIP3    H126720   5.469   2.895   3.103
 8925TIP3    H226721   5.378   2.995   3.036
 8926TIP3   OH226722   7.286   3.047   5.092
 8926TIP3    H126723   7.233   3.113   5.136
 8926TIP3    H226724   7.244   2.964   5.115
 8927TIP3   OH226725   0.664   6.461  -0.014
 8927TIP3    H126726   0.676   6.521   0.060
 8927TIP3    H226727   0.574   6.429  -0.004
 8928TIP3   OH226728   4.319   3.485   2.568
 8928TIP3    H126729   4.247   3.431   2.536
 8928TIP3    H226730   4.308   3.485   2.663
 8929TIP3   OH226731   2.862   6.249   1.520
 8929TIP3    H126732   2.780   6.234   1.474
 8929TIP3    H226733   2.843   6.229   1.611
 8930TIP3   OH226734   7.944   6.666   6.102
 8930TIP3    H126735   7.874   6.615   6.060
 8930TIP3    H226736   8.011   6.674   6.034
 8931TIP3   OH226737   3.082   5.187   0.855
 8931TIP3    H126738   3.083   5.091   0.861
 8931TIP3    H226739   2.998   5.212   0.892
 8932TIP3   OH226740   4.572   1.770   5.572
 8932TIP3    H126741   4.512   1.700   5.598
 8932TIP3    H226742   4.565   1.774   5.477
 8933TIP3   OH226743   3.700   5.218   3.529
 8933TIP3    H126744   3.706   5.191   3.621
 8933TIP3    H226745   3.790   5.232   3.502
 8934TIP3   OH226746   5.104   5.053   1.942
 8934TIP3    H126747   5.075   5.139   1.913
 8934TIP3    H226748   5.104   5.058   2.037
 8935TIP3   OH226749   4.355   4.647   5.047
 8935TIP3    H126750   4.358   4.742   5.057
 8935TIP3    H226751   4.322   4.633   4.958
 8936TIP3   OH226752   6.639   2.153   1.261
 8936TIP3    H126753   6.556   2.108   1.276
 8936TIP3    H226754   6.625   2.241   1.296
 8937TIP3   OH226755   4.279   5.504   4.003
 8937TIP3    H126756   4.303   5.572   4.066
 8937TIP3    H226757   4.206   5.458   4.044
 8938TIP3   OH226758   7.305   6.072   4.704
 8938TIP3    H126759   7.221   6.041   4.737
 8938TIP3    H226760   7.363   5.996   4.710
 8939TIP3   OH226761   4.239   3.662   4.886
 8939TIP3    H126762   4.273   3.741   4.844
 8939TIP3    H226763   4.166   3.634   4.829
 8940TIP3   OH226764   2.717   6.020   5.051
 8940TIP3    H126765   2.656   6.065   5.110
 8940TIP3    H226766   2.672   5.939   5.028
 8941TIP3   OH226767   3.493   0.270   0.895
 8941TIP3    H126768   3.454   0.344   0.848
 8941TIP3    H226769   3.522   0.307   0.978
 8942TIP3   OH226770   5.602   1.625   1.425
 8942TIP3    H126771   5.565   1.651   1.341
 8942TIP3    H226772   5.527   1.605   1.480
 8943TIP3   OH226773   4.523   5.404   0.934
 8943TIP3    H126774   4.489   5.479   0.885
 8943TIP3    H226775   4.529   5.333   0.870
 8944TIP3   OH226776   6.370   0.911   5.305
 8944TIP3    H126777   6.313   0.937   5.232
 8944TIP3    H226778   6.454   0.890   5.264
 8945TIP3   OH226779   1.693   4.603   4.142
 8945TIP3    H126780   1.751   4.580   4.069
 8945TIP3    H226781   1.636   4.527   4.152
 8946TIP3   OH226782   7.170   7.092   0.367
 8946TIP3    H126783   7.077   7.073   0.360
 8946TIP3    H226784   7.210   7.041   0.296
 8947TIP3   OH226785   4.668   3.538   4.309
 8947TIP3    H126786   4.625   3.460   4.345
 8947TIP3    H226787   4.757   3.535   4.343
 8948TIP3   OH226788   6.289   6.004   1.968
 8948TIP3    H126789   6.216   5.943   1.966
 8948TIP3    H226790   6.322   6.000   2.058
 8949TIP3   OH226791   2.585   5.181   2.404
 8949TIP3    H126792   2.637   5.246   2.452
 8949TIP3    H226793   2.636   5.101   2.409
 8950TIP3   OH226794   6.658   6.132   5.760
 8950TIP3    H126795   6.720   6.148   5.831
 8950TIP3    H226796   6.712   6.105   5.686
 8951TIP3   OH226797   7.345   4.879   1.188
 8951TIP3    H126798   7.255   4.911   1.182
 8951TIP3    H226799   7.365   4.847   1.100
 8952TIP3   OH226800   2.289   2.084   1.462
 8952TIP3    H126801   2.282   2.167   1.414
 8952TIP3    H226802   2.205   2.040   1.446
 8953TIP3   OH226803   3.513   1.446   2.821
 8953TIP3    H126804   3.572   1.505   2.868
 8953TIP3    H226805   3.496   1.491   2.738
 8954TIP3   OH226806   7.473   3.330   3.249
 8954TIP3    H126807   7.523   3.307   3.171
 8954TIP3    H226808   7.471   3.426   3.248
 8955TIP3   OH226809   1.546   5.521   3.582
 8955TIP3    H126810   1.457   5.531   3.549
 8955TIP3    H226811   1.542   5.442   3.637
 8956TIP3   OH226812   7.103   1.210   3.826
 8956TIP3    H126813   7.018   1.250   3.845
 8956TIP3    H226814   7.080   1.124   3.788
 8957TIP3   OH226815   0.193   2.745   6.096
 8957TIP3    H126816   0.138   2.712   6.024
 8957TIP3    H226817   0.131   2.770   6.164
 8958TIP3   OH226818   5.619   1.313   3.202
 8958TIP3    H126819   5.527   1.336   3.187
 8958TIP3    H226820   5.626   1.222   3.173
 8959TIP3   OH226821   4.746   7.511   3.196
 8959TIP3    H126822   4.677   7.445   3.202
 8959TIP3    H226823   4.737   7.547   3.108
 8960TIP3   OH226824   5.383   2.914   4.408
 8960TIP3    H126825   5.439   2.874   4.474
 8960TIP3    H226826   5.302   2.933   4.454
 8961TIP3   OH226827   1.863   2.877   4.950
 8961TIP3    H126828   1.845   2.783   4.950
 8961TIP3    H226829   1.935   2.887   4.889
 8962TIP3   OH226830   1.744   1.823   2.982
 8962TIP3    H126831   1.772   1.914   2.988
 8962TIP3    H226832   1.786   1.790   2.903
 8963TIP3   OH226833   7.679   5.994   5.348
 8963TIP3    H126834   7.735   6.014   5.423
 8963TIP3    H226835   7.599   6.044   5.365
 8964TIP3   OH226836   5.276   2.256   0.928
 8964TIP3    H126837   5.181   2.257   0.912
 8964TIP3    H226838   5.314   2.232   0.844
 8965TIP3   OH226839   4.096   6.183   4.285
 8965TIP3    H126840   4.188   6.189   4.310
 8965TIP3    H226841   4.099   6.161   4.191
 8966TIP3   OH226842   1.425   4.327   2.635
 8966TIP3    H126843   1.507   4.351   2.592
 8966TIP3    H226844   1.379   4.271   2.572
 8967TIP3   OH226845   6.129   1.818   6.219
 8967TIP3    H126846   6.095   1.768   6.145
 8967TIP3    H226847   6.075   1.791   6.293
 8968TIP3   OH226848   0.494   3.652   5.680
 8968TIP3    H126849   0.491   3.585   5.612
 8968TIP3    H226850   0.414   3.703   5.668
 8969TIP3   OH226851   3.265   4.264   5.056
 8969TIP3    H126852   3.322   4.249   5.131
 8969TIP3    H226853   3.254   4.359   5.053
 8970TIP3   OH226854   4.001   3.470   2.587
 8970TIP3    H126855   3.995   3.554   2.542
 8970TIP3    H226856   3.991   3.492   2.680
 8971TIP3   OH226857   6.327   4.499   3.970
 8971TIP3    H126858   6.401   4.491   3.910
 8971TIP3    H226859   6.363   4.472   4.055
 8972TIP3   OH226860   2.039   5.048   3.331
 8972TIP3    H126861   2.035   5.049   3.236
 8972TIP3    H226862   2.000   4.965   3.357
 8973TIP3   OH226863   7.233   3.538   6.562
 8973TIP3    H126864   7.239   3.536   6.467
 8973TIP3    H226865   7.249   3.447   6.589
 8974TIP3   OH226866   5.137   6.541   1.346
 8974TIP3    H126867   5.211   6.561   1.404
 8974TIP3    H226868   5.143   6.607   1.277
 8975TIP3   OH226869   5.404   6.364   4.018
 8975TIP3    H126870   5.478   6.421   4.039
 8975TIP3    H226871   5.445   6.285   3.983
 8976TIP3   OH226872   4.023   6.228   5.663
 8976TIP3    H126873   3.974   6.187   5.592
 8976TIP3    H226874   3.977   6.311   5.680
 8977TIP3   OH226875   0.011   7.739   2.790
 8977TIP3    H126876  -0.019   7.681   2.720
 8977TIP3    H226877   0.106   7.738   2.783
 8978TIP3   OH226878   4.803   4.770   3.299
 8978TIP3    H126879   4.810   4.751   3.393
 8978TIP3    H226880   4.872   4.717   3.259
 8979TIP3   OH226881  -0.016   0.464   0.157
 8979TIP3    H126882   0.029   0.549   0.151
 8979TIP3    H226883  -0.019   0.433   0.066
 8980TIP3   OH226884   7.556   0.150   0.989
 8980TIP3    H126885   7.614   0.191   1.053
 8980TIP3    H226886   7.573   0.056   0.998
 8981TIP3   OH226887   6.633   2.156   4.676
 8981TIP3    H126888   6.608   2.202   4.595
 8981TIP3    H226889   6.725   2.133   4.662
 8982TIP3   OH226890   7.433   0.413   6.116
 8982TIP3    H126891   7.452   0.404   6.210
 8982TIP3    H226892   7.500   0.359   6.074
 8983TIP3   OH226893   0.456   5.526   2.124
 8983TIP3    H126894   0.388   5.492   2.066
 8983TIP3    H226895   0.410   5.586   2.183
 8984TIP3   OH226896   5.006   5.774   6.670
 8984TIP3    H126897   4.974   5.724   6.746
 8984TIP3    H226898   4.928   5.815   6.634
 8985TIP3   OH226899   3.731   7.524   3.427
 8985TIP3    H126900   3.645   7.518   3.469
 8985TIP3    H226901   3.716   7.500   3.336
 8986TIP3   OH226902   7.620   1.360   0.194
 8986TIP3    H126903   7.668   1.280   0.174
 8986TIP3    H226904   7.684   1.430   0.180
 8987TIP3   OH226905   6.505   3.793   2.931
 8987TIP3    H126906   6.441   3.767   2.865
 8987TIP3    H226907   6.589   3.787   2.886
 8988TIP3   OH226908   5.979   4.663   0.457
 8988TIP3    H126909   6.072   4.668   0.433
 8988TIP3    H226910   5.956   4.753   0.481
 8989TIP3   OH226911   6.272   1.662   5.349
 8989TIP3    H126912   6.314   1.579   5.374
 8989TIP3    H226913   6.316   1.728   5.403
 8990TIP3   OH226914   5.996   0.149   0.869
 8990TIP3    H126915   6.056   0.185   0.935
 8990TIP3    H226916   6.031   0.179   0.786
 8991TIP3   OH226917   0.066   6.260   5.553
 8991TIP3    H126918   0.145   6.263   5.500
 8991TIP3    H226919   0.014   6.190   5.514
 8992TIP3   OH226920   3.543   6.573   6.071
 8992TIP3    H126921   3.630   6.612   6.079
 8992TIP3    H226922   3.482   6.645   6.087
 8993TIP3   OH226923   5.509   3.125   3.753
 8993TIP3    H126924   5.453   3.080   3.690
 8993TIP3    H226925   5.447   3.176   3.806
 8994TIP3   OH226926   0.484   4.003   4.381
 8994TIP3    H126927   0.516   3.930   4.434
 8994TIP3    H226928   0.407   4.035   4.428
 8995TIP3   OH226929   1.234   5.670   0.914
 8995TIP3    H126930   1.176   5.693   0.842
 8995TIP3    H226931   1.189   5.598   0.959
 8996TIP3   OH226932   5.293   2.801   2.813
 8996TIP3    H126933   5.205   2.768   2.830
 8996TIP3    H226934   5.279   2.885   2.771
 8997TIP3   OH226935   5.438   4.881   3.259
 8997TIP3    H126936   5.532   4.897   3.271
 8997TIP3    H226937   5.397   4.927   3.332
 8998TIP3   OH226938   3.406   5.864   3.643
 8998TIP3    H126939   3.388   5.878   3.736
 8998TIP3    H226940   3.500   5.880   3.634
 8999TIP3   OH226941   1.311   4.688   3.187
 8999TIP3    H126942   1.286   4.772   3.224
 8999TIP3    H226943   1.229   4.638   3.182
 9000TIP3   OH226944   3.934   1.194   0.997
 9000TIP3    H126945   3.913   1.288   1.000
 9000TIP3    H226946   4.019   1.190   0.954
 9001TIP3   OH226947   1.003   3.624   4.920
 9001TIP3    H126948   1.018   3.568   4.996
 9001TIP3    H226949   1.078   3.683   4.918
 9002TIP3   OH226950   3.985   5.155   3.621
 9002TIP3    H126951   3.949   5.105   3.695
 9002TIP3    H226952   4.069   5.187   3.652
 9003TIP3   OH226953   1.954   7.411   3.224
 9003TIP3    H126954   1.866   7.378   3.206
 9003TIP3    H226955   1.940   7.497   3.263
 9004TIP3   OH226956   4.369   4.241   2.843
 9004TIP3    H126957   4.412   4.155   2.845
 9004TIP3    H226958   4.292   4.230   2.898
 9005TIP3   OH226959   7.051   5.343   1.775
 9005TIP3    H126960   7.085   5.349   1.686
 9005TIP3    H226961   7.072   5.254   1.803
 9006TIP3   OH226962   5.565   4.393   1.759
 9006TIP3    H126963   5.610   4.377   1.841
 9006TIP3    H226964   5.474   4.370   1.776
 9007TIP3   OH226965   7.402   5.873   1.561
 9007TIP3    H126966   7.307   5.864   1.548
 9007TIP3    H226967   7.412   5.956   1.607
 9008TIP3   OH226968   2.359   6.099   4.927
 9008TIP3    H126969   2.352   6.111   5.022
 9008TIP3    H226970   2.275   6.127   4.892
 9009TIP3   OH226971   5.675   5.175   0.811
 9009TIP3    H126972   5.677   5.136   0.898
 9009TIP3    H226973   5.582   5.192   0.795
 9010TIP3   OH226974   6.132   1.143   0.352
 9010TIP3    H126975   6.141   1.058   0.309
 9010TIP3    H226976   6.058   1.184   0.308
 9011TIP3   OH226977   2.951   1.666   4.599
 9011TIP3    H126978   3.002   1.593   4.564
 9011TIP3    H226979   2.996   1.690   4.680
 9012TIP3   OH226980   5.837   3.485   1.913
 9012TIP3    H126981   5.820   3.499   2.006
 9012TIP3    H226982   5.751   3.495   1.871
 9013TIP3   OH226983   4.939   6.384   2.396
 9013TIP3    H126984   5.016   6.418   2.440
 9013TIP3    H226985   4.888   6.342   2.465
 9014TIP3   OH226986   6.966   1.180   2.347
 9014TIP3    H126987   6.954   1.232   2.267
 9014TIP3    H226988   6.988   1.092   2.316
 9015TIP3   OH226989   1.934   2.578   2.452
 9015TIP3    H126990   1.967   2.567   2.541
 9015TIP3    H226991   2.008   2.613   2.403
 9016TIP3   OH226992   4.319   0.283   0.848
 9016TIP3    H126993   4.262   0.320   0.914
 9016TIP3    H226994   4.263   0.274   0.770
 9017TIP3   OH226995   7.186   1.527   4.301
 9017TIP3    H126996   7.162   1.582   4.376
 9017TIP3    H226997   7.134   1.561   4.229
 9018TIP3   OH226998   7.524   3.326   2.948
 9018TIP3    H126999   7.464   3.366   2.886
 9018TIP3    H227000   7.562   3.400   2.996
 9019TIP3   OH227001   4.768   1.929   4.521
 9019TIP3    H127002   4.697   1.987   4.548
 9019TIP3    H227003   4.823   1.982   4.463
 9020TIP3   OH227004   5.132   0.046   2.854
 9020TIP3    H127005   5.055   0.095   2.826
 9020TIP3    H227006   5.122  -0.040   2.813
 9021TIP3   OH227007   3.775   4.305   2.460
 9021TIP3    H127008   3.864   4.271   2.465
 9021TIP3    H227009   3.758   4.312   2.366
 9022TIP3   OH227010   7.965   7.695   6.518
 9022TIP3    H127011   7.958   7.783   6.553
 9022TIP3    H227012   8.045   7.696   6.465
 9023TIP3   OH227013   7.910   4.606   6.326
 9023TIP3    H127014   7.841   4.599   6.392
 9023TIP3    H227015   7.982   4.651   6.370
 9024TIP3   OH227016   2.834   1.261   3.012
 9024TIP3    H127017   2.781   1.181   3.009
 9024TIP3    H227018   2.844   1.279   3.105
 9025TIP3   OH227019   3.209   6.642   4.269
 9025TIP3    H127020   3.220   6.677   4.181
 9025TIP3    H227021   3.261   6.562   4.270
 9026TIP3   OH227022   3.547   4.754   0.668
 9026TIP3    H127023   3.516   4.663   0.668
 9026TIP3    H227024   3.522   4.788   0.754
 9027TIP3   OH227025   5.472   5.521   4.724
 9027TIP3    H127026   5.402   5.557   4.669
 9027TIP3    H227027   5.426   5.479   4.797
 9028TIP3   OH227028   1.883   2.580   2.096
 9028TIP3    H127029   1.866   2.657   2.041
 9028TIP3    H227030   1.810   2.579   2.158
 9029TIP3   OH227031   6.484   2.264   6.092
 9029TIP3    H127032   6.566   2.222   6.117
 9029TIP3    H227033   6.442   2.288   6.175
 9030TIP3   OH227034   1.728   1.817   2.450
 9030TIP3    H127035   1.691   1.819   2.538
 9030TIP3    H227036   1.784   1.895   2.446
 9031TIP3   OH227037   7.188   5.990   2.284
 9031TIP3    H127038   7.208   5.929   2.355
 9031TIP3    H227039   7.273   6.020   2.253
 9032TIP3   OH227040   8.136   5.884   6.617
 9032TIP3    H127041   8.231   5.877   6.632
 9032TIP3    H227042   8.127   5.890   6.522
 9033TIP3   OH227043   1.002   5.371   3.949
 9033TIP3    H127044   0.988   5.447   3.892
 9033TIP3    H227045   1.096   5.373   3.967
 9034TIP3   OH227046   0.858   0.334   1.760
 9034TIP3    H127047   0.856   0.429   1.770
 9034TIP3    H227048   0.917   0.304   1.829
 9035TIP3   OH227049   1.205   4.430   3.811
 9035TIP3    H127050   1.134   4.470   3.861
 9035TIP3    H227051   1.243   4.501   3.760
 9036TIP3   OH227052   8.243   3.610   5.848
 9036TIP3    H127053   8.204   3.588   5.764
 9036TIP3    H227054   8.181   3.671   5.889
 9037TIP3   OH227055   0.270   3.438   5.676
 9037TIP3    H127056   0.311   3.359   5.712
 9037TIP3    H227057   0.293   3.506   5.739
 9038TIP3   OH227058   6.995   7.770   0.826
 9038TIP3    H127059   7.027   7.721   0.750
 9038TIP3    H227060   6.917   7.815   0.794
 9039TIP3   OH227061   1.093   5.770   4.686
 9039TIP3    H127062   1.128   5.852   4.653
 9039TIP3    H227063   1.033   5.740   4.618
 9040TIP3   OH227064   0.808   3.141   0.343
 9040TIP3    H127065   0.869   3.072   0.371
 9040TIP3    H227066   0.839   3.220   0.389
 9041TIP3   OH227067   3.527   6.711   1.140
 9041TIP3    H127068   3.533   6.746   1.228
 9041TIP3    H227069   3.616   6.683   1.119
 9042TIP3   OH227070   4.603   6.156   3.588
 9042TIP3    H127071   4.634   6.214   3.658
 9042TIP3    H227072   4.567   6.081   3.634
 9043TIP3   OH227073   1.845   3.734   0.232
 9043TIP3    H127074   1.784   3.715   0.304
 9043TIP3    H227075   1.887   3.816   0.258
 9044TIP3   OH227076   7.727   3.396   4.445
 9044TIP3    H127077   7.771   3.352   4.518
 9044TIP3    H227078   7.659   3.449   4.486
 9045TIP3   OH227079   3.372   6.372   1.027
 9045TIP3    H127080   3.377   6.310   1.101
 9045TIP3    H227081   3.461   6.374   0.992
 9046TIP3   OH227082   8.327   5.771   1.451
 9046TIP3    H127083   8.233   5.750   1.457
 9046TIP3    H227084   8.332   5.864   1.469
 9047TIP3   OH227085   1.915   7.584   5.459
 9047TIP3    H127086   1.908   7.639   5.537
 9047TIP3    H227087   1.834   7.534   5.458
 9048TIP3   OH227088   0.911   7.011   1.784
 9048TIP3    H127089   0.948   7.086   1.830
 9048TIP3    H227090   0.936   6.936   1.836
 9049TIP3   OH227091   4.288   7.356   6.216
 9049TIP3    H127092   4.256   7.351   6.305
 9049TIP3    H227093   4.225   7.412   6.171
 9050TIP3   OH227094   1.978   3.839   6.618
 9050TIP3    H127095   1.983   3.929   6.585
 9050TIP3    H227096   2.005   3.845   6.709
 9051TIP3   OH227097   5.354   2.444   2.953
 9051TIP3    H127098   5.437   2.396   2.957
 9051TIP3    H227099   5.378   2.535   2.969
 9052TIP3   OH227100   4.302   6.765   3.213
 9052TIP3    H127101   4.329   6.674   3.208
 9052TIP3    H227102   4.207   6.762   3.203
 9053TIP3   OH227103   2.079   5.133   4.298
 9053TIP3    H127104   2.168   5.162   4.275
 9053TIP3    H227105   2.046   5.202   4.356
 9054TIP3   OH227106   0.048   3.870   6.543
 9054TIP3    H127107   0.024   3.951   6.588
 9054TIP3    H227108   0.031   3.887   6.451
 9055TIP3   OH227109   2.343   2.389   4.839
 9055TIP3    H127110   2.351   2.403   4.744
 9055TIP3    H227111   2.265   2.439   4.863
 9056TIP3   OH227112   1.670   2.204   3.260
 9056TIP3    H127113   1.635   2.258   3.189
 9056TIP3    H227114   1.629   2.118   3.246
 9057TIP3   OH227115   0.535   7.880   0.276
 9057TIP3    H127116   0.490   7.851   0.356
 9057TIP3    H227117   0.592   7.807   0.252
 9058TIP3   OH227118   3.937   6.651   6.512
 9058TIP3    H127119   3.981   6.658   6.596
 9058TIP3    H227120   3.949   6.559   6.486
 9059TIP3   OH227121   8.061   6.218   1.201
 9059TIP3    H127122   8.121   6.291   1.185
 9059TIP3    H227123   7.977   6.247   1.164
 9060TIP3   OH227124   3.534   2.808   6.733
 9060TIP3    H127125   3.579   2.733   6.771
 9060TIP3    H227126   3.503   2.858   6.808
 9061TIP3   OH227127   5.394   0.266   1.971
 9061TIP3    H127128   5.462   0.200   1.986
 9061TIP3    H227129   5.363   0.289   2.059
 9062TIP3   OH227130   5.041   4.162   0.513
 9062TIP3    H127131   5.134   4.180   0.515
 9062TIP3    H227132   5.000   4.246   0.494
 9063TIP3   OH227133   7.058   2.305   3.290
 9063TIP3    H127134   7.047   2.310   3.385
 9063TIP3    H227135   7.078   2.394   3.262
 9064TIP3   OH227136   3.880   6.286   4.057
 9064TIP3    H127137   3.788   6.276   4.082
 9064TIP3    H227138   3.894   6.218   3.991
 9065TIP3   OH227139   1.004   3.317   2.962
 9065TIP3    H127140   1.074   3.357   2.911
 9065TIP3    H227141   0.970   3.388   3.016
 9066TIP3   OH227142   5.298   0.368   0.302
 9066TIP3    H127143   5.209   0.335   0.312
 9066TIP3    H227144   5.288   0.463   0.298
 9067TIP3   OH227145   4.237   7.578   4.805
 9067TIP3    H127146   4.207   7.645   4.743
 9067TIP3    H227147   4.333   7.580   4.798
 9068TIP3   OH227148   2.753   6.563   4.097
 9068TIP3    H127149   2.820   6.582   4.162
 9068TIP3    H227150   2.801   6.529   4.021
 9069TIP3   OH227151   4.792   2.038   6.243
 9069TIP3    H127152   4.844   1.997   6.313
 9069TIP3    H227153   4.858   2.071   6.182
 9070TIP3   OH227154   7.247   4.732   3.131
 9070TIP3    H127155   7.325   4.786   3.140
 9070TIP3    H227156   7.278   4.651   3.091
 9071TIP3   OH227157   5.725   1.200   4.001
 9071TIP3    H127158   5.798   1.262   4.001
 9071TIP3    H227159   5.664   1.235   3.936
 9072TIP3   OH227160   3.595   7.713   4.888
 9072TIP3    H127161   3.559   7.745   4.805
 9072TIP3    H227162   3.526   7.657   4.924
 9073TIP3   OH227163   3.018   5.983   1.873
 9073TIP3    H127164   2.949   5.922   1.897
 9073TIP3    H227165   3.066   5.998   1.955
 9074TIP3   OH227166   1.322   6.702   6.425
 9074TIP3    H127167   1.349   6.739   6.342
 9074TIP3    H227168   1.377   6.745   6.490
 9075TIP3   OH227169   7.691   0.219   0.737
 9075TIP3    H127170   7.632   0.205   0.812
 9075TIP3    H227171   7.641   0.186   0.662
 9076TIP3   OH227172   8.341   5.976   3.851
 9076TIP3    H127173   8.283   5.902   3.870
 9076TIP3    H227174   8.311   6.045   3.910
 9077TIP3   OH227175   2.620   0.835   6.315
 9077TIP3    H127176   2.559   0.761   6.311
 9077TIP3    H227177   2.612   0.868   6.404
 9078TIP3   OH227178   5.514   0.898   4.804
 9078TIP3    H127179   5.465   0.975   4.775
 9078TIP3    H227180   5.566   0.928   4.878
 9079TIP3   OH227181   6.523   7.329   3.435
 9079TIP3    H127182   6.546   7.413   3.474
 9079TIP3    H227183   6.468   7.351   3.360
 9080TIP3   OH227184   5.923   6.767   0.835
 9080TIP3    H127185   5.957   6.697   0.779
 9080TIP3    H227186   5.985   6.839   0.824
 9081TIP3   OH227187   6.438   5.140   2.052
 9081TIP3    H127188   6.431   5.065   1.994
 9081TIP3    H227189   6.430   5.216   1.995
 9082TIP3   OH227190   5.834   3.420   5.260
 9082TIP3    H127191   5.927   3.401   5.244
 9082TIP3    H227192   5.835   3.506   5.304
 9083TIP3   OH227193   6.156   2.695   3.821
 9083TIP3    H127194   6.223   2.725   3.883
 9083TIP3    H227195   6.078   2.680   3.875
 9084TIP3   OH227196   6.062   1.745   2.035
 9084TIP3    H127197   6.034   1.826   1.992
 9084TIP3    H227198   6.117   1.701   1.970
 9085TIP3   OH227199   0.167   2.840   2.735
 9085TIP3    H127200   0.200   2.860   2.823
 9085TIP3    H227201   0.242   2.853   2.678
 9086TIP3   OH227202   3.940   5.972   3.804
 9086TIP3    H127203   3.925   5.971   3.898
 9086TIP3    H227204   3.854   5.993   3.766
 9087TIP3   OH227205   3.702   1.294   5.018
 9087TIP3    H127206   3.658   1.365   5.063
 9087TIP3    H227207   3.645   1.218   5.032
 9088TIP3   OH227208   2.351   6.897   4.040
 9088TIP3    H127209   2.412   6.935   4.103
 9088TIP3    H227210   2.333   6.967   3.978
 9089TIP3   OH227211   5.544   5.213   6.115
 9089TIP3    H127212   5.547   5.223   6.020
 9089TIP3    H227213   5.635   5.204   6.141
 9090TIP3   OH227214   3.851   4.813   2.414
 9090TIP3    H127215   3.870   4.855   2.330
 9090TIP3    H227216   3.916   4.743   2.422
 9091TIP3   OH227217   3.378   7.461   6.292
 9091TIP3    H127218   3.375   7.523   6.219
 9091TIP3    H227219   3.471   7.447   6.308
 9092TIP3   OH227220   7.792   6.062   0.149
 9092TIP3    H127221   7.726   5.993   0.151
 9092TIP3    H227222   7.824   6.062   0.059
 9093TIP3   OH227223   3.325   5.268   3.219
 9093TIP3    H127224   3.406   5.221   3.238
 9093TIP3    H227225   3.352   5.360   3.210
 9094TIP3   OH227226   6.459   6.477   0.424
 9094TIP3    H127227   6.464   6.479   0.519
 9094TIP3    H227228   6.550   6.470   0.395
 9095TIP3   OH227229   5.063   7.710   6.567
 9095TIP3    H127230   5.132   7.705   6.500
 9095TIP3    H227231   4.982   7.695   6.518
 9096TIP3   OH227232   1.106   6.861   3.861
 9096TIP3    H127233   1.121   6.827   3.949
 9096TIP3    H227234   1.147   6.797   3.803
 9097TIP3   OH227235   6.830   5.227   4.014
 9097TIP3    H127236   6.763   5.220   3.945
 9097TIP3    H227237   6.861   5.317   4.008
 9098TIP3   OH227238   3.632   0.980   4.708
 9098TIP3    H127239   3.669   0.893   4.718
 9098TIP3    H227240   3.706   1.040   4.719
 9099TIP3   OH227241   6.423   2.698   1.782
 9099TIP3    H127242   6.360   2.756   1.738
 9099TIP3    H227243   6.419   2.722   1.874
 9100TIP3   OH227244   5.056   5.057   4.698
 9100TIP3    H127245   5.088   5.123   4.760
 9100TIP3    H227246   5.123   5.054   4.630
 9101TIP3   OH227247   3.244   5.131   3.922
 9101TIP3    H127248   3.229   5.198   3.855
 9101TIP3    H227249   3.316   5.078   3.887
 9102TIP3   OH227250   1.221   7.115   2.944
 9102TIP3    H127251   1.187   7.118   3.033
 9102TIP3    H227252   1.185   7.193   2.902
 9103TIP3   OH227253   7.268   1.418   5.228
 9103TIP3    H127254   7.214   1.347   5.264
 9103TIP3    H227255   7.339   1.374   5.181
 9104TIP3   OH227256   4.418   7.068   4.186
 9104TIP3    H127257   4.442   6.997   4.127
 9104TIP3    H227258   4.377   7.134   4.130
 9105TIP3   OH227259   4.424   2.053   1.638
 9105TIP3    H127260   4.426   1.990   1.566
 9105TIP3    H227261   4.409   1.999   1.716
 9106TIP3   OH227262   0.089   2.826   3.243
 9106TIP3    H127263   0.139   2.754   3.281
 9106TIP3    H227264   0.001   2.790   3.232
 9107TIP3   OH227265  -0.029   0.946   1.270
 9107TIP3    H127266   0.043   0.897   1.229
 9107TIP3    H227267  -0.051   0.895   1.349
 9108TIP3   OH227268   7.073   3.665   2.438
 9108TIP3    H127269   6.999   3.692   2.383
 9108TIP3    H227270   7.148   3.713   2.402
 9109TIP3   OH227271   6.872   4.506   1.137
 9109TIP3    H127272   6.961   4.502   1.100
 9109TIP3    H227273   6.814   4.510   1.061
 9110TIP3   OH227274   1.431   1.817   2.492
 9110TIP3    H127275   1.427   1.911   2.476
 9110TIP3    H227276   1.509   1.788   2.446
 9111TIP3   OH227277   2.521   3.059   6.745
 9111TIP3    H127278   2.482   3.129   6.692
 9111TIP3    H227279   2.477   2.979   6.717
 9112TIP3   OH227280   5.934   2.428   1.821
 9112TIP3    H127281   5.996   2.484   1.775
 9112TIP3    H227282   5.981   2.397   1.898
 9113TIP3   OH227283   0.037   1.422   6.402
 9113TIP3    H127284   0.073   1.392   6.485
 9113TIP3    H227285   0.114   1.434   6.346
 9114TIP3   OH227286   5.767   5.611   6.227
 9114TIP3    H127287   5.759   5.702   6.199
 9114TIP3    H227288   5.709   5.563   6.168
 9115TIP3   OH227289   3.796   4.500   2.651
 9115TIP3    H127290   3.729   4.566   2.670
 9115TIP3    H227291   3.752   4.438   2.592
 9116TIP3   OH227292   7.137   5.826   1.632
 9116TIP3    H127293   7.170   5.845   1.720
 9116TIP3    H227294   7.043   5.815   1.644
 9117TIP3   OH227295   4.655   1.779   6.378
 9117TIP3    H127296   4.612   1.784   6.293
 9117TIP3    H227297   4.589   1.743   6.437
 9118TIP3   OH227298   6.695   4.206   5.474
 9118TIP3    H127299   6.784   4.174   5.490
 9118TIP3    H227300   6.639   4.148   5.525
 9119TIP3   OH227301   0.789   6.231   6.603
 9119TIP3    H127302   0.721   6.236   6.670
 9119TIP3    H227303   0.855   6.294   6.632
 9120TIP3   OH227304   3.428   3.863   5.895
 9120TIP3    H127305   3.388   3.781   5.925
 9120TIP3    H227306   3.501   3.836   5.839
 9121TIP3   OH227307   4.425   1.000   1.793
 9121TIP3    H127308   4.335   1.029   1.775
 9121TIP3    H227309   4.470   1.010   1.709
 9122TIP3   OH227310   6.984   4.222   0.695
 9122TIP3    H127311   6.957   4.276   0.769
 9122TIP3    H227312   6.919   4.240   0.627
 9123TIP3   OH227313   4.455   0.194   2.616
 9123TIP3    H127314   4.477   0.282   2.646
 9123TIP3    H227315   4.372   0.204   2.570
 9124TIP3   OH227316   5.154   1.414   4.413
 9124TIP3    H127317   5.245   1.436   4.391
 9124TIP3    H227318   5.131   1.477   4.481
 9125TIP3   OH227319   1.697   5.242   4.877
 9125TIP3    H127320   1.639   5.200   4.941
 9125TIP3    H227321   1.712   5.330   4.913
 9126TIP3   OH227322   7.517   5.227   3.382
 9126TIP3    H127323   7.564   5.204   3.301
 9126TIP3    H227324   7.439   5.273   3.352
 9127TIP3   OH227325   0.144   0.994   5.695
 9127TIP3    H127326   0.057   1.019   5.666
 9127TIP3    H227327   0.131   0.914   5.746
 9128TIP3   OH227328   0.226   2.456   3.960
 9128TIP3    H127329   0.226   2.514   3.883
 9128TIP3    H227330   0.203   2.370   3.924
 9129TIP3   OH227331   5.462   6.242   1.303
 9129TIP3    H127332   5.451   6.324   1.254
 9129TIP3    H227333   5.510   6.185   1.243
 9130TIP3   OH227334   6.914   7.554   5.849
 9130TIP3    H127335   6.868   7.504   5.917
 9130TIP3    H227336   6.866   7.637   5.844
 9131TIP3   OH227337   7.998   0.146   0.423
 9131TIP3    H127338   8.077   0.128   0.373
 9131TIP3    H227339   8.029   0.173   0.509
 9132TIP3   OH227340   6.031   2.975   3.667
 9132TIP3    H127341   5.957   3.035   3.661
 9132TIP3    H227342   6.026   2.938   3.755
 9133TIP3   OH227343   7.292   3.491   5.030
 9133TIP3    H127344   7.371   3.540   5.006
 9133TIP3    H227345   7.232   3.557   5.065
 9134TIP3   OH227346   4.767   0.854   5.466
 9134TIP3    H127347   4.800   0.775   5.424
 9134TIP3    H227348   4.707   0.892   5.403
 9135TIP3   OH227349   3.615   2.838   0.855
 9135TIP3    H127350   3.520   2.830   0.854
 9135TIP3    H227351   3.638   2.829   0.948
 9136TIP3   OH227352   0.675   4.550   2.964
 9136TIP3    H127353   0.737   4.611   2.924
 9136TIP3    H227354   0.603   4.604   2.995
 9137TIP3   OH227355   6.610   1.939   1.072
 9137TIP3    H127356   6.653   2.008   1.123
 9137TIP3    H227357   6.593   1.979   0.987
 9138TIP3   OH227358   0.561   3.330   3.845
 9138TIP3    H127359   0.581   3.275   3.769
 9138TIP3    H227360   0.639   3.384   3.857
 9139TIP3   OH227361   8.006   3.849   6.175
 9139TIP3    H127362   7.930   3.849   6.232
 9139TIP3    H227363   7.980   3.796   6.100
 9140TIP3   OH227364   2.280   0.246   3.805
 9140TIP3    H127365   2.211   0.234   3.739
 9140TIP3    H227366   2.318   0.332   3.784
 9141TIP3   OH227367   6.403   5.739   1.064
 9141TIP3    H127368   6.392   5.765   1.155
 9141TIP3    H227369   6.451   5.657   1.068
 9142TIP3   OH227370   7.233   1.279   2.399
 9142TIP3    H127371   7.235   1.364   2.356
 9142TIP3    H227372   7.140   1.257   2.404
 9143TIP3   OH227373   5.163   2.600   2.101
 9143TIP3    H127374   5.247   2.575   2.062
 9143TIP3    H227375   5.169   2.568   2.191
 9144TIP3   OH227376   3.985   3.528   4.139
 9144TIP3    H127377   4.025   3.484   4.064
 9144TIP3    H227378   3.987   3.463   4.209
 9145TIP3   OH227379   4.036   7.072   4.134
 9145TIP3    H127380   4.078   7.098   4.052
 9145TIP3    H227381   4.015   6.979   4.122
 9146TIP3   OH227382   3.801   6.502   2.868
 9146TIP3    H127383   3.799   6.491   2.773
 9146TIP3    H227384   3.754   6.584   2.883
 9147TIP3   OH227385   2.384   7.354   5.060
 9147TIP3    H127386   2.323   7.293   5.018
 9147TIP3    H227387   2.332   7.433   5.077
 9148TIP3   OH227388   4.327   2.614   1.329
 9148TIP3    H127389   4.318   2.549   1.259
 9148TIP3    H227390   4.239   2.651   1.339
 9149TIP3   OH227391   7.293   3.678   3.528
 9149TIP3    H127392   7.201   3.655   3.513
 9149TIP3    H227393   7.290   3.762   3.573
 9150TIP3   OH227394   4.604   4.445   3.796
 9150TIP3    H127395   4.537   4.492   3.745
 9150TIP3    H227396   4.641   4.512   3.854
 9151TIP3   OH227397   8.080   5.154   1.836
 9151TIP3    H127398   8.086   5.185   1.926
 9151TIP3    H227399   7.988   5.165   1.812
 9152TIP3   OH227400   8.133   5.819   5.920
 9152TIP3    H127401   8.200   5.868   5.872
 9152TIP3    H227402   8.122   5.738   5.871
 9153TIP3   OH227403   5.758   1.176   4.300
 9153TIP3    H127404   5.809   1.254   4.322
 9153TIP3    H227405   5.736   1.186   4.208
 9154TIP3   OH227406   7.100   0.224   2.531
 9154TIP3    H127407   7.106   0.152   2.593
 9154TIP3    H227408   7.006   0.232   2.512
 9155TIP3   OH227409   4.296   6.792   4.446
 9155TIP3    H127410   4.292   6.886   4.459
 9155TIP3    H227411   4.320   6.782   4.354
 9156TIP3   OH227412   0.566   2.743   2.428
 9156TIP3    H127413   0.549   2.765   2.336
 9156TIP3    H227414   0.487   2.697   2.456
 9157TIP3   OH227415   7.959   7.321   0.801
 9157TIP3    H127416   7.874   7.319   0.845
 9157TIP3    H227417   8.006   7.246   0.836
 9158TIP3   OH227418   3.706   0.365   1.503
 9158TIP3    H127419   3.771   0.422   1.542
 9158TIP3    H227420   3.742   0.277   1.512
 9159TIP3   OH227421   1.912   0.676   2.281
 9159TIP3    H127422   1.858   0.752   2.263
 9159TIP3    H227423   1.861   0.602   2.249
 9160TIP3   OH227424   2.716   7.053   2.642
 9160TIP3    H127425   2.659   7.006   2.581
 9160TIP3    H227426   2.743   7.131   2.594
 9161TIP3   OH227427   8.102   7.764   4.304
 9161TIP3    H127428   8.086   7.791   4.213
 9161TIP3    H227429   8.193   7.786   4.320
 9162TIP3   OH227430   3.512   1.972   1.023
 9162TIP3    H127431   3.474   1.885   1.007
 9162TIP3    H227432   3.449   2.033   0.985
 9163TIP3   OH227433   6.135   3.707   4.933
 9163TIP3    H127434   6.122   3.710   5.028
 9163TIP3    H227435   6.091   3.626   4.906
 9164TIP3   OH227436   4.472   2.536   5.638
 9164TIP3    H127437   4.532   2.585   5.582
 9164TIP3    H227438   4.391   2.530   5.587
 9165TIP3   OH227439   4.973   0.909   1.028
 9165TIP3    H127440   5.041   0.938   0.968
 9165TIP3    H227441   5.022   0.874   1.103
 9166TIP3   OH227442   7.700   0.052   4.735
 9166TIP3    H127443   7.748   0.125   4.696
 9166TIP3    H227444   7.763   0.007   4.791
 9167TIP3   OH227445   2.060   2.455   5.131
 9167TIP3    H127446   2.113   2.378   5.154
 9167TIP3    H227447   2.096   2.484   5.047
 9168TIP3   OH227448   1.192   4.815   0.435
 9168TIP3    H127449   1.239   4.801   0.517
 9168TIP3    H227450   1.249   4.778   0.368
 9169TIP3   OH227451   8.220   3.861   4.249
 9169TIP3    H127452   8.152   3.900   4.194
 9169TIP3    H227453   8.172   3.808   4.312
 9170TIP3   OH227454   2.060   5.953   2.677
 9170TIP3    H127455   2.064   5.995   2.591
 9170TIP3    H227456   2.020   6.019   2.734
 9171TIP3   OH227457   4.348   1.672   6.641
 9171TIP3    H127458   4.273   1.620   6.613
 9171TIP3    H227459   4.315   1.762   6.646
 9172TIP3   OH227460   7.814   2.577   6.041
 9172TIP3    H127461   7.825   2.651   5.980
 9172TIP3    H227462   7.794   2.503   5.985
 9173TIP3   OH227463   5.585   6.292   2.229
 9173TIP3    H127464   5.516   6.252   2.176
 9173TIP3    H227465   5.539   6.331   2.303
 9174TIP3   OH227466   6.656   3.014   3.302
 9174TIP3    H127467   6.668   3.003   3.207
 9174TIP3    H227468   6.742   2.999   3.339
 9175TIP3   OH227469   7.376   0.678   1.654
 9175TIP3    H127470   7.458   0.628   1.659
 9175TIP3    H227471   7.327   0.652   1.732
 9176TIP3   OH227472   7.410   3.483   1.335
 9176TIP3    H127473   7.384   3.405   1.287
 9176TIP3    H227474   7.391   3.556   1.276
 9177TIP3   OH227475   6.039   0.491   1.144
 9177TIP3    H127476   6.040   0.546   1.066
 9177TIP3    H227477   6.126   0.450   1.145
 9178TIP3   OH227478   1.530   2.932   2.911
 9178TIP3    H127479   1.599   2.953   2.848
 9178TIP3    H227480   1.466   3.002   2.902
 9179TIP3   OH227481   6.513   6.932   0.286
 9179TIP3    H127482   6.548   6.992   0.352
 9179TIP3    H227483   6.531   6.975   0.203
 9180TIP3   OH227484   2.165   2.274   1.683
 9180TIP3    H127485   2.118   2.302   1.762
 9180TIP3    H227486   2.255   2.262   1.713
 9181TIP3   OH227487   4.679   2.435   0.757
 9181TIP3    H127488   4.627   2.455   0.679
 9181TIP3    H227489   4.616   2.431   0.828
 9182TIP3   OH227490   4.659   5.622   6.404
 9182TIP3    H127491   4.694   5.699   6.358
 9182TIP3    H227492   4.706   5.548   6.365
 9183TIP3   OH227493   2.825   4.025   3.191
 9183TIP3    H127494   2.809   4.032   3.285
 9183TIP3    H227495   2.746   4.060   3.150
 9184TIP3   OH227496   3.687   3.470   0.300
 9184TIP3    H127497   3.734   3.546   0.267
 9184TIP3    H227498   3.635   3.505   0.373
 9185TIP3   OH227499   2.735   5.900   2.379
 9185TIP3    H127500   2.739   5.935   2.468
 9185TIP3    H227501   2.768   5.810   2.388
 9186TIP3   OH227502   5.450   3.343   2.860
 9186TIP3    H127503   5.459   3.430   2.898
 9186TIP3    H227504   5.516   3.341   2.790
 9187TIP3   OH227505   8.207   7.173   5.249
 9187TIP3    H127506   8.227   7.089   5.291
 9187TIP3    H227507   8.119   7.195   5.278
 9188TIP3   OH227508   2.846   1.536   6.368
 9188TIP3    H127509   2.774   1.597   6.355
 9188TIP3    H227510   2.820   1.457   6.321
 9189TIP3   OH227511   1.364   3.902   2.383
 9189TIP3    H127512   1.435   3.909   2.447
 9189TIP3    H227513   1.315   3.983   2.392
 9190TIP3   OH227514   2.500   3.910   2.291
 9190TIP3    H127515   2.588   3.884   2.264
 9190TIP3    H227516   2.474   3.845   2.356
 9191TIP3   OH227517   5.356   1.735   0.935
 9191TIP3    H127518   5.400   1.678   0.872
 9191TIP3    H227519   5.269   1.750   0.897
 9192TIP3   OH227520   6.179   0.567   5.915
 9192TIP3    H127521   6.270   0.537   5.911
 9192TIP3    H227522   6.129   0.501   5.867
 9193TIP3   OH227523   6.543   5.719   5.026
 9193TIP3    H127524   6.513   5.782   4.959
 9193TIP3    H227525   6.463   5.696   5.073
 9194TIP3   OH227526   8.035   4.301   2.301
 9194TIP3    H127527   7.946   4.332   2.283
 9194TIP3    H227528   8.073   4.368   2.357
 9195TIP3   OH227529   8.206   2.983   4.934
 9195TIP3    H127530   8.176   3.074   4.926
 9195TIP3    H227531   8.211   2.952   4.843
 9196TIP3   OH227532   0.356   4.840   1.092
 9196TIP3    H127533   0.316   4.871   1.174
 9196TIP3    H227534   0.355   4.745   1.100
 9197TIP3   OH227535   4.074   2.909   6.432
 9197TIP3    H127536   4.085   2.960   6.352
 9197TIP3    H227537   4.163   2.882   6.455
 9198TIP3   OH227538   1.375   1.152   5.117
 9198TIP3    H127539   1.320   1.159   5.195
 9198TIP3    H227540   1.410   1.063   5.120
 9199TIP3   OH227541   6.119   3.932   1.196
 9199TIP3    H127542   6.181   3.861   1.183
 9199TIP3    H227543   6.173   4.011   1.195
 9200TIP3   OH227544   4.985   3.062   5.398
 9200TIP3    H127545   5.022   3.027   5.479
 9200TIP3    H227546   5.058   3.103   5.353
 9201TIP3   OH227547   3.511   2.490   1.778
 9201TIP3    H127548   3.516   2.413   1.834
 9201TIP3    H227549   3.533   2.563   1.836
 9202TIP3   OH227550   6.790   1.947   3.638
 9202TIP3    H127551   6.802   2.034   3.676
 9202TIP3    H227552   6.770   1.963   3.546
 9203TIP3   OH227553   3.038   6.371   6.336
 9203TIP3    H127554   3.126   6.397   6.364
 9203TIP3    H227555   3.033   6.397   6.244
 9204TIP3   OH227556   7.080   5.059   0.002
 9204TIP3    H127557   7.083   4.973  -0.040
 9204TIP3    H227558   7.151   5.108  -0.039
 9205TIP3   OH227559   7.847   1.661   4.818
 9205TIP3    H127560   7.791   1.697   4.749
 9205TIP3    H227561   7.791   1.597   4.863
 9206TIP3   OH227562   3.269   4.190   0.679
 9206TIP3    H127563   3.254   4.186   0.585
 9206TIP3    H227564   3.360   4.161   0.691
 9207TIP3   OH227565   8.194   0.972   6.761
 9207TIP3    H127566   8.182   1.003   6.850
 9207TIP3    H227567   8.194   0.876   6.768
 9208TIP3   OH227568   6.939   0.954   2.152
 9208TIP3    H127569   6.850   0.935   2.182
 9208TIP3    H227570   6.979   0.867   2.140
 9209TIP3   OH227571   8.167   3.506   0.171
 9209TIP3    H127572   8.251   3.475   0.137
 9209TIP3    H227573   8.147   3.583   0.118
 9210TIP3   OH227574   6.613   3.315   4.300
 9210TIP3    H127575   6.559   3.365   4.361
 9210TIP3    H227576   6.601   3.224   4.326
 9211TIP3   OH227577   2.913   2.872   3.730
 9211TIP3    H127578   2.862   2.802   3.689
 9211TIP3    H227579   2.982   2.826   3.778
 9212TIP3   OH227580   2.313   1.833   1.279
 9212TIP3    H127581   2.359   1.914   1.300
 9212TIP3    H227582   2.380   1.775   1.242
 9213TIP3   OH227583   1.248   6.464   6.560
 9213TIP3    H127584   1.269   6.533   6.497
 9213TIP3    H227585   1.306   6.392   6.536
 9214TIP3   OH227586   7.183   0.492   2.515
 9214TIP3    H127587   7.197   0.405   2.552
 9214TIP3    H227588   7.137   0.475   2.433
 9215TIP3   OH227589   6.944   1.076   1.084
 9215TIP3    H127590   6.922   0.983   1.092
 9215TIP3    H227591   7.040   1.077   1.080
 9216TIP3   OH227592   4.192   1.772   1.882
 9216TIP3    H127593   4.251   1.697   1.884
 9216TIP3    H227594   4.245   1.845   1.912
 9217TIP3   OH227595   7.170   1.738   4.520
 9217TIP3    H127596   7.115   1.764   4.594
 9217TIP3    H227597   7.255   1.716   4.559
 9218TIP3   OH227598   2.732   2.903   2.650
 9218TIP3    H127599   2.636   2.909   2.650
 9218TIP3    H227600   2.761   2.980   2.602
 9219TIP3   OH227601   0.132   4.162   0.607
 9219TIP3    H127602   0.207   4.208   0.570
 9219TIP3    H227603   0.157   4.069   0.605
 9220TIP3   OH227604   2.385   7.521   2.499
 9220TIP3    H127605   2.388   7.454   2.430
 9220TIP3    H227606   2.382   7.604   2.452
 9221TIP3   OH227607   7.276   0.824   4.030
 9221TIP3    H127608   7.297   0.912   4.061
 9221TIP3    H227609   7.360   0.789   3.999
 9222TIP3   OH227610   1.004   3.240   0.149
 9222TIP3    H127611   1.041   3.306   0.207
 9222TIP3    H227612   0.929   3.205   0.196
 9223TIP3   OH227613   5.952   5.850   5.863
 9223TIP3    H127614   5.881   5.911   5.879
 9223TIP3    H227615   5.929   5.772   5.914
 9224TIP3   OH227616   6.927   0.790   1.095
 9224TIP3    H127617   6.881   0.737   1.030
 9224TIP3    H227618   7.007   0.741   1.113
 9225TIP3   OH227619   2.967   4.770   1.173
 9225TIP3    H127620   2.941   4.815   1.253
 9225TIP3    H227621   3.058   4.796   1.159
 9226TIP3   OH227622   3.003   6.666   1.007
 9226TIP3    H127623   3.094   6.647   1.028
 9226TIP3    H227624   3.006   6.709   0.922
 9227TIP3   OH227625   8.135   3.772   5.292
 9227TIP3    H127626   8.212   3.820   5.325
 9227TIP3    H227627   8.172   3.695   5.249
 9228TIP3   OH227628   3.223   2.133   1.294
 9228TIP3    H127629   3.229   2.224   1.266
 9228TIP3    H227630   3.295   2.123   1.356
 9229TIP3   OH227631   4.362   0.899   0.819
 9229TIP3    H127632   4.308   0.973   0.793
 9229TIP3    H227633   4.346   0.833   0.752
 9230TIP3   OH227634   0.408   3.340   1.640
 9230TIP3    H127635   0.439   3.268   1.694
 9230TIP3    H227636   0.320   3.313   1.613
 9231TIP3   OH227637   8.056   6.347   4.584
 9231TIP3    H127638   8.079   6.261   4.620
 9231TIP3    H227639   7.976   6.372   4.629
 9232TIP3   OH227640   3.294   2.726   4.078
 9232TIP3    H127641   3.326   2.643   4.115
 9232TIP3    H227642   3.332   2.729   3.990
 9233TIP3   OH227643   4.052   5.353   3.077
 9233TIP3    H127644   4.074   5.263   3.055
 9233TIP3    H227645   4.060   5.357   3.172
 9234TIP3   OH227646   0.892   0.323   4.365
 9234TIP3    H127647   0.838   0.257   4.409
 9234TIP3    H227648   0.864   0.321   4.274
 9235TIP3   OH227649   1.293   0.273   2.088
 9235TIP3    H127650   1.335   0.232   2.163
 9235TIP3    H227651   1.339   0.357   2.077
 9236TIP3   OH227652   5.438   4.146   4.644
 9236TIP3    H127653   5.487   4.119   4.723
 9236TIP3    H227654   5.443   4.242   4.645
 9237TIP3   OH227655   6.011   1.738   3.388
 9237TIP3    H127656   6.024   1.832   3.377
 9237TIP3    H227657   5.925   1.721   3.350
 9238TIP3   OH227658   3.039   7.083   0.839
 9238TIP3    H127659   3.031   7.158   0.781
 9238TIP3    H227660   3.098   7.113   0.909
 9239TIP3   OH227661   4.399   4.148   5.234
 9239TIP3    H127662   4.486   4.136   5.273
 9239TIP3    H227663   4.348   4.191   5.303
 9240TIP3   OH227664   6.528   2.774   4.776
 9240TIP3    H127665   6.540   2.732   4.861
 9240TIP3    H227666   6.436   2.800   4.775
 9241TIP3   OH227667   4.847   6.621   0.526
 9241TIP3    H127668   4.930   6.662   0.504
 9241TIP3    H227669   4.845   6.541   0.474
 9242TIP3   OH227670   6.779   1.405   0.886
 9242TIP3    H127671   6.842   1.357   0.833
 9242TIP3    H227672   6.744   1.472   0.826
 9243TIP3   OH227673   5.377   3.532   3.093
 9243TIP3    H127674   5.376   3.445   3.134
 9243TIP3    H227675   5.465   3.566   3.113
 9244TIP3   OH227676   0.912   7.756   3.671
 9244TIP3    H127677   0.989   7.734   3.723
 9244TIP3    H227678   0.927   7.716   3.586
 9245TIP3   OH227679   0.666   1.876   5.761
 9245TIP3    H127680   0.678   1.970   5.745
 9245TIP3    H227681   0.579   1.869   5.799
 9246TIP3   OH227682   0.222   5.107   1.631
 9246TIP3    H127683   0.147   5.155   1.666
 9246TIP3    H227684   0.282   5.176   1.602
 9247TIP3   OH227685   0.094   6.659   1.139
 9247TIP3    H127686   0.022   6.720   1.157
 9247TIP3    H227687   0.172   6.715   1.138
 9248TIP3   OH227688   5.872   1.290   2.867
 9248TIP3    H127689   5.793   1.341   2.883
 9248TIP3    H227690   5.839   1.202   2.845
 9249TIP3   OH227691   2.598   4.358   1.404
 9249TIP3    H127692   2.631   4.370   1.315
 9249TIP3    H227693   2.642   4.279   1.436
 9250TIP3   OH227694   5.961   0.408   1.405
 9250TIP3    H127695   5.994   0.451   1.326
 9250TIP3    H227696   5.875   0.446   1.419
 9251TIP3   OH227697   1.336   0.224   4.184
 9251TIP3    H127698   1.288   0.291   4.134
 9251TIP3    H227699   1.386   0.176   4.118
 9252TIP3   OH227700   1.074   1.037   2.443
 9252TIP3    H127701   1.065   0.997   2.357
 9252TIP3    H227702   1.079   0.962   2.503
 9253TIP3   OH227703   1.396   4.943   2.274
 9253TIP3    H127704   1.406   4.982   2.187
 9253TIP3    H227705   1.339   5.005   2.321
 9254TIP3   OH227706   2.837   1.678   2.242
 9254TIP3    H127707   2.920   1.646   2.276
 9254TIP3    H227708   2.793   1.715   2.319
 9255TIP3   OH227709   7.140   5.573   5.557
 9255TIP3    H127710   7.082   5.649   5.546
 9255TIP3    H227711   7.205   5.583   5.488
 9256TIP3   OH227712   0.537   6.148   1.458
 9256TIP3    H127713   0.492   6.232   1.446
 9256TIP3    H227714   0.467   6.085   1.474
 9257TIP3   OH227715   5.524   4.473   3.334
 9257TIP3    H127716   5.474   4.394   3.312
 9257TIP3    H227717   5.557   4.456   3.422
 9258TIP3   OH227718   1.215   6.163   3.646
 9258TIP3    H127719   1.220   6.068   3.636
 9258TIP3    H227720   1.290   6.197   3.597
 9259TIP3   OH227721   0.637   5.451   0.465
 9259TIP3    H127722   0.575   5.509   0.509
 9259TIP3    H227723   0.584   5.378   0.434
 9260TIP3   OH227724   8.059   7.278   2.762
 9260TIP3    H127725   8.152   7.288   2.783
 9260TIP3    H227726   8.019   7.243   2.841
 9261TIP3   OH227727   2.159   5.690   0.378
 9261TIP3    H127728   2.087   5.718   0.434
 9261TIP3    H227729   2.144   5.736   0.295
 9262TIP3   OH227730   3.382   3.243   3.281
 9262TIP3    H127731   3.453   3.291   3.325
 9262TIP3    H227732   3.380   3.158   3.324
 9263TIP3   OH227733   4.115   6.428   3.468
 9263TIP3    H127734   4.141   6.454   3.379
 9263TIP3    H227735   4.155   6.494   3.525
 9264TIP3   OH227736   4.831   7.205   0.162
 9264TIP3    H127737   4.867   7.257   0.234
 9264TIP3    H227738   4.789   7.268   0.105
 9265TIP3   OH227739   1.984   5.431   2.481
 9265TIP3    H127740   1.910   5.406   2.426
 9265TIP3    H227741   2.050   5.363   2.465
 9266TIP3   OH227742   7.011   5.628   4.150
 9266TIP3    H127743   6.978   5.576   4.077
 9266TIP3    H227744   7.102   5.598   4.162
 9267TIP3   OH227745   6.797   1.557   5.509
 9267TIP3    H127746   6.732   1.512   5.563
 9267TIP3    H227747   6.745   1.610   5.448
 9268TIP3   OH227748   8.098   1.703   3.372
 9268TIP3    H127749   8.086   1.726   3.464
 9268TIP3    H227750   8.136   1.615   3.374
 9269TIP3   OH227751   4.745   3.989   4.016
 9269TIP3    H127752   4.777   3.919   3.959
 9269TIP3    H227753   4.736   4.065   3.959
 9270TIP3   OH227754   7.822   5.261   3.695
 9270TIP3    H127755   7.882   5.321   3.652
 9270TIP3    H227756   7.835   5.177   3.649
 9271TIP3   OH227757   6.942   6.718   6.076
 9271TIP3    H127758   6.882   6.780   6.118
 9271TIP3    H227759   6.887   6.671   6.014
 9272TIP3   OH227760   6.912   5.666   0.680
 9272TIP3    H127761   6.967   5.588   0.689
 9272TIP3    H227762   6.823   5.634   0.699
 9273TIP3   OH227763   3.404   3.345   0.630
 9273TIP3    H127764   3.316   3.367   0.600
 9273TIP3    H227765   3.428   3.268   0.578
 9274TIP3   OH227766   6.449   1.738   0.159
 9274TIP3    H127767   6.374   1.730   0.217
 9274TIP3    H227768   6.505   1.804   0.200
 9275TIP3   OH227769   5.705   5.582   3.634
 9275TIP3    H127770   5.737   5.646   3.698
 9275TIP3    H227771   5.613   5.569   3.658
 9276TIP3   OH227772   7.861   1.556   0.463
 9276TIP3    H127773   7.873   1.574   0.556
 9276TIP3    H227774   7.842   1.462   0.459
 9277TIP3   OH227775   7.083   3.461   3.837
 9277TIP3    H127776   7.108   3.448   3.928
 9277TIP3    H227777   7.055   3.552   3.832
 9278TIP3   OH227778   4.464   2.529   4.227
 9278TIP3    H127779   4.456   2.621   4.201
 9278TIP3    H227780   4.380   2.508   4.267
 9279TIP3   OH227781   4.772   2.378   6.161
 9279TIP3    H127782   4.817   2.443   6.215
 9279TIP3    H227783   4.835   2.355   6.093
 9280TIP3   OH227784   0.375   1.707   2.800
 9280TIP3    H127785   0.443   1.671   2.744
 9280TIP3    H227786   0.334   1.776   2.748
 9281TIP3   OH227787   5.230   3.030   6.624
 9281TIP3    H127788   5.214   3.025   6.718
 9281TIP3    H227789   5.218   2.941   6.592
 9282TIP3   OH227790   1.647   6.333   4.464
 9282TIP3    H127791   1.710   6.393   4.422
 9282TIP3    H227792   1.657   6.350   4.557
 9283TIP3   OH227793   5.153   7.746   1.352
 9283TIP3    H127794   5.228   7.783   1.400
 9283TIP3    H227795   5.191   7.682   1.292
 9284TIP3   OH227796   0.745   3.804   1.861
 9284TIP3    H127797   0.802   3.768   1.929
 9284TIP3    H227798   0.669   3.746   1.860
 9285TIP3   OH227799   0.953   5.892   3.748
 9285TIP3    H127800   0.983   5.903   3.658
 9285TIP3    H227801   1.025   5.845   3.791
 9286TIP3   OH227802   3.575   5.154   1.216
 9286TIP3    H127803   3.662   5.114   1.215
 9286TIP3    H227804   3.568   5.198   1.131
 9287TIP3   OH227805   3.624   6.064   2.069
 9287TIP3    H127806   3.569   6.037   1.996
 9287TIP3    H227807   3.566   6.117   2.124
 9288TIP3   OH227808   6.454   3.046   4.520
 9288TIP3    H127809   6.360   3.029   4.509
 9288TIP3    H227810   6.492   2.961   4.540
 9289TIP3   OH227811   3.633   5.417   2.387
 9289TIP3    H127812   3.702   5.477   2.358
 9289TIP3    H227813   3.581   5.469   2.449
 9290TIP3   OH227814   6.197   5.303   2.455
 9290TIP3    H127815   6.183   5.266   2.368
 9290TIP3    H227816   6.285   5.341   2.452
 9291TIP3   OH227817   1.452   0.541   6.505
 9291TIP3    H127818   1.470   0.617   6.561
 9291TIP3    H227819   1.417   0.475   6.566
 9292TIP3   OH227820   6.979   2.403   4.625
 9292TIP3    H127821   6.973   2.458   4.547
 9292TIP3    H227822   7.065   2.363   4.620
 9293TIP3   OH227823   5.202   7.370   3.012
 9293TIP3    H127824   5.140   7.418   2.956
 9293TIP3    H227825   5.282   7.422   3.008
 9294TIP3   OH227826   1.210   7.004   3.213
 9294TIP3    H127827   1.304   7.023   3.205
 9294TIP3    H227828   1.204   6.909   3.204
 9295TIP3   OH227829   4.355   4.646   3.741
 9295TIP3    H127830   4.384   4.655   3.832
 9295TIP3    H227831   4.417   4.699   3.691
 9296TIP3   OH227832   0.827   4.370   4.709
 9296TIP3    H127833   0.890   4.303   4.735
 9296TIP3    H227834   0.769   4.325   4.648
 9297TIP3   OH227835   2.374   2.417   3.321
 9297TIP3    H127836   2.398   2.347   3.261
 9297TIP3    H227837   2.278   2.419   3.319
 9298TIP3   OH227838   3.887   5.502   1.314
 9298TIP3    H127839   3.909   5.518   1.222
 9298TIP3    H227840   3.817   5.563   1.333
 9299TIP3   OH227841   0.346   0.168   1.496
 9299TIP3    H127842   0.430   0.209   1.518
 9299TIP3    H227843   0.300   0.234   1.444
 9300TIP3   OH227844   8.266   5.548   2.118
 9300TIP3    H127845   8.197   5.489   2.089
 9300TIP3    H227846   8.222   5.631   2.137
 9301TIP3   OH227847   4.700   1.949   1.141
 9301TIP3    H127848   4.640   2.022   1.155
 9301TIP3    H227849   4.648   1.871   1.164
 9302TIP3   OH227850   8.140   2.232   2.334
 9302TIP3    H127851   8.087   2.280   2.398
 9302TIP3    H227852   8.185   2.166   2.386
 9303TIP3   OH227853   6.060   2.714   2.611
 9303TIP3    H127854   5.965   2.718   2.628
 9303TIP3    H227855   6.084   2.625   2.635
 9304TIP3   OH227856   6.230   4.829   0.285
 9304TIP3    H127857   6.243   4.898   0.350
 9304TIP3    H227858   6.319   4.801   0.263
 9305TIP3   OH227859   1.942   7.679   0.340
 9305TIP3    H127860   2.009   7.652   0.277
 9305TIP3    H227861   1.860   7.668   0.293
 9306TIP3   OH227862   8.145   7.504   4.758
 9306TIP3    H127863   8.062   7.512   4.710
 9306TIP3    H227864   8.205   7.560   4.710
 9307TIP3   OH227865   5.424   3.836   5.419
 9307TIP3    H127866   5.393   3.900   5.483
 9307TIP3    H227867   5.396   3.752   5.453
 9308TIP3   OH227868   1.109   0.183   0.998
 9308TIP3    H127869   1.076   0.161   1.085
 9308TIP3    H227870   1.040   0.236   0.958
 9309TIP3   OH227871   6.727   5.474   2.185
 9309TIP3    H127872   6.723   5.389   2.230
 9309TIP3    H227873   6.756   5.535   2.253
 9310TIP3   OH227874   0.412   6.098   2.527
 9310TIP3    H127875   0.484   6.152   2.496
 9310TIP3    H227876   0.431   6.082   2.619
 9311TIP3   OH227877   1.390   2.839   2.598
 9311TIP3    H127878   1.339   2.778   2.651
 9311TIP3    H227879   1.324   2.898   2.560
 9312TIP3   OH227880   2.572   6.702   3.097
 9312TIP3    H127881   2.509   6.686   3.168
 9312TIP3    H227882   2.652   6.730   3.141
 9313TIP3   OH227883   6.938   5.156   3.256
 9313TIP3    H127884   6.977   5.199   3.331
 9313TIP3    H227885   7.005   5.093   3.227
 9314TIP3   OH227886   7.399   6.230   4.491
 9314TIP3    H127887   7.428   6.310   4.536
 9314TIP3    H227888   7.373   6.171   4.562
 9315TIP3   OH227889   3.734   3.853   4.395
 9315TIP3    H127890   3.711   3.867   4.303
 9315TIP3    H227891   3.824   3.822   4.394
 9316TIP3   OH227892   7.159   4.075   3.370
 9316TIP3    H127893   7.196   4.003   3.320
 9316TIP3    H227894   7.164   4.151   3.312
 9317TIP3   OH227895   3.317   5.120   6.353
 9317TIP3    H127896   3.304   5.185   6.422
 9317TIP3    H227897   3.329   5.037   6.399
 9318TIP3   OH227898   4.380   4.963   2.726
 9318TIP3    H127899   4.429   5.040   2.695
 9318TIP3    H227900   4.440   4.919   2.786
 9319TIP3   OH227901   3.393   0.608   5.555
 9319TIP3    H127902   3.322   0.574   5.501
 9319TIP3    H227903   3.363   0.694   5.585
 9320TIP3   OH227904   6.793   7.203   3.846
 9320TIP3    H127905   6.880   7.173   3.820
 9320TIP3    H227906   6.754   7.128   3.890
 9321TIP3   OH227907   1.028   6.349   6.686
 9321TIP3    H127908   1.102   6.407   6.666
 9321TIP3    H227909   1.058   6.263   6.659
 9322TIP3   OH227910   7.992   6.206   2.950
 9322TIP3    H127911   7.903   6.175   2.932
 9322TIP3    H227912   8.000   6.286   2.898
 9323TIP3   OH227913   1.141   1.445   0.634
 9323TIP3    H127914   1.163   1.521   0.579
 9323TIP3    H227915   1.059   1.412   0.598
 9324TIP3   OH227916   6.312   5.174   3.031
 9324TIP3    H127917   6.364   5.109   2.985
 9324TIP3    H227918   6.372   5.247   3.047
 9325TIP3   OH227919   7.627   0.882   3.174
 9325TIP3    H127920   7.544   0.839   3.154
 9325TIP3    H227921   7.640   0.867   3.268
 9326TIP3   OH227922   5.576   0.228   2.787
 9326TIP3    H127923   5.507   0.163   2.802
 9326TIP3    H227924   5.642   0.181   2.737
 9327TIP3   OH227925   4.427   5.434   4.634
 9327TIP3    H127926   4.454   5.504   4.574
 9327TIP3    H227927   4.403   5.479   4.715
 9328TIP3   OH227928   7.302   5.124   3.838
 9328TIP3    H127929   7.214   5.129   3.875
 9328TIP3    H227930   7.326   5.032   3.846
 9329TIP3   OH227931   5.991   7.182   1.232
 9329TIP3    H127932   5.952   7.267   1.250
 9329TIP3    H227933   5.944   7.149   1.156
 9330TIP3   OH227934   3.305   1.077   2.534
 9330TIP3    H127935   3.334   1.161   2.570
 9330TIP3    H227936   3.214   1.070   2.562
 9331TIP3   OH227937   3.210   5.107   3.036
 9331TIP3    H127938   3.153   5.039   3.073
 9331TIP3    H227939   3.225   5.168   3.108
 9332TIP3   OH227940   2.119   7.159   2.566
 9332TIP3    H127941   2.211   7.180   2.582
 9332TIP3    H227942   2.107   7.073   2.605
 9333TIP3   OH227943   0.126   3.159   2.763
 9333TIP3    H127944   0.085   3.093   2.819
 9333TIP3    H227945   0.211   3.122   2.740
 9334TIP3   OH227946   6.126   0.606   2.346
 9334TIP3    H127947   6.098   0.584   2.257
 9334TIP3    H227948   6.083   0.689   2.365
 9335TIP3   OH227949   2.558   1.036   1.181
 9335TIP3    H127950   2.552   1.009   1.089
 9335TIP3    H227951   2.473   1.078   1.199
 9336TIP3   OH227952   3.167   2.361   0.048
 9336TIP3    H127953   3.174   2.301   0.123
 9336TIP3    H227954   3.073   2.375   0.037
 9337TIP3   OH227955   6.791   2.588   1.857
 9337TIP3    H127956   6.881   2.587   1.889
 9337TIP3    H227957   6.775   2.498   1.827
 9338TIP3   OH227958   5.123   7.630   1.731
 9338TIP3    H127959   5.180   7.563   1.695
 9338TIP3    H227960   5.035   7.592   1.727
 9339TIP3   OH227961   6.791   3.447   6.125
 9339TIP3    H127962   6.712   3.399   6.150
 9339TIP3    H227963   6.759   3.532   6.095
 9340TIP3   OH227964   1.182   0.824   2.026
 9340TIP3    H127965   1.146   0.736   2.018
 9340TIP3    H227966   1.158   0.867   1.944
 9341TIP3   OH227967   3.857   5.493   3.455
 9341TIP3    H127968   3.764   5.496   3.431
 9341TIP3    H227969   3.856   5.478   3.550
 9342TIP3   OH227970   7.166   3.856   6.226
 9342TIP3    H127971   7.259   3.848   6.249
 9342TIP3    H227972   7.125   3.893   6.304
 9343TIP3   OH227973   6.128   7.607   0.804
 9343TIP3    H127974   6.168   7.573   0.884
 9343TIP3    H227975   6.037   7.625   0.828
 9344TIP3   OH227976   7.501   7.322   5.480
 9344TIP3    H127977   7.584   7.315   5.527
 9344TIP3    H227978   7.495   7.240   5.430
 9345TIP3   OH227979   7.040   6.246   6.782
 9345TIP3    H127980   6.953   6.286   6.775
 9345TIP3    H227981   7.033   6.165   6.733
 9346TIP3   OH227982   4.389   0.119   5.033
 9346TIP3    H127983   4.425   0.034   5.010
 9346TIP3    H227984   4.321   0.100   5.098
 9347TIP3   OH227985   2.349   6.593   0.294
 9347TIP3    H127986   2.277   6.581   0.232
 9347TIP3    H227987   2.316   6.655   0.358
 9348TIP3   OH227988   2.022   2.954   2.237
 9348TIP3    H127989   2.091   2.992   2.182
 9348TIP3    H227990   1.953   2.931   2.175
 9349TIP3   OH227991   3.690   4.719   2.827
 9349TIP3    H127992   3.653   4.774   2.896
 9349TIP3    H227993   3.785   4.729   2.835
 9350TIP3   OH227994   0.532   0.967   4.488
 9350TIP3    H127995   0.490   1.049   4.463
 9350TIP3    H227996   0.460   0.909   4.511
 9351TIP3   OH227997   4.848   4.231   5.158
 9351TIP3    H127998   4.906   4.203   5.229
 9351TIP3    H227999   4.788   4.293   5.200
 9352TIP3   OH228000   5.189   1.851   5.510
 9352TIP3    H128001   5.239   1.916   5.560
 9352TIP3    H228002   5.193   1.882   5.420
 9353TIP3   OH228003   0.645   0.518   0.400
 9353TIP3    H128004   0.670   0.476   0.482
 9353TIP3    H228005   0.727   0.552   0.364
 9354TIP3   OH228006   4.649   5.018   4.203
 9354TIP3    H128007   4.702   4.948   4.241
 9354TIP3    H228008   4.578   5.031   4.266
 9355TIP3   OH228009   0.752   2.290   4.881
 9355TIP3    H128010   0.801   2.372   4.874
 9355TIP3    H228011   0.697   2.302   4.958
 9356TIP3   OH228012   2.287   6.652   6.435
 9356TIP3    H128013   2.302   6.744   6.413
 9356TIP3    H228014   2.328   6.603   6.364
 9357TIP3   OH228015   3.449   1.018   6.394
 9357TIP3    H128016   3.401   1.033   6.312
 9357TIP3    H228017   3.393   0.957   6.443
 9358TIP3   OH228018   2.054   6.526   2.277
 9358TIP3    H128019   2.009   6.476   2.210
 9358TIP3    H228020   1.985   6.555   2.337
 9359TIP3   OH228021   3.216   0.193   3.392
 9359TIP3    H128022   3.288   0.153   3.341
 9359TIP3    H228023   3.168   0.245   3.328
 9360TIP3   OH228024   2.990   0.385   0.939
 9360TIP3    H128025   2.967   0.478   0.943
 9360TIP3    H228026   2.914   0.340   0.976
 9361TIP3   OH228027   4.422   5.643   1.837
 9361TIP3    H128028   4.439   5.644   1.743
 9361TIP3    H228029   4.485   5.580   1.872
 9362TIP3   OH228030   3.293   2.241   3.715
 9362TIP3    H128031   3.339   2.281   3.788
 9362TIP3    H228032   3.312   2.148   3.723
 9363TIP3   OH228033   4.121   7.447   5.016
 9363TIP3    H128034   4.103   7.501   4.939
 9363TIP3    H228035   4.038   7.404   5.036
 9364TIP3   OH228036   2.721   0.955   0.496
 9364TIP3    H128037   2.645   0.899   0.476
 9364TIP3    H228038   2.744   0.995   0.413
 9365TIP3   OH228039   5.688   5.049   0.557
 9365TIP3    H128040   5.675   4.956   0.573
 9365TIP3    H228041   5.670   5.091   0.641
 9366TIP3   OH228042   5.238   6.460   2.276
 9366TIP3    H128043   5.232   6.398   2.204
 9366TIP3    H228044   5.311   6.427   2.329
 9367TIP3   OH228045   4.896   5.836   3.116
 9367TIP3    H128046   4.925   5.780   3.188
 9367TIP3    H228047   4.944   5.804   3.040
 9368TIP3   OH228048   6.317   6.749   6.683
 9368TIP3    H128049   6.409   6.775   6.678
 9368TIP3    H228050   6.290   6.775   6.771
 9369TIP3   OH228051   5.479   6.322   4.394
 9369TIP3    H128052   5.435   6.335   4.478
 9369TIP3    H228053   5.464   6.404   4.346
 9370TIP3   OH228054   6.952   2.699   0.805
 9370TIP3    H128055   7.041   2.677   0.832
 9370TIP3    H228056   6.939   2.651   0.723
 9371TIP3   OH228057   2.095   2.411   5.451
 9371TIP3    H128058   2.189   2.394   5.455
 9371TIP3    H228059   2.060   2.345   5.392
 9372TIP3   OH228060   1.211   6.854   2.875
 9372TIP3    H128061   1.259   6.811   2.805
 9372TIP3    H228062   1.247   6.943   2.878
 9373TIP3   OH228063   0.680   7.740   5.617
 9373TIP3    H128064   0.722   7.823   5.639
 9373TIP3    H228065   0.596   7.742   5.662
 9374TIP3   OH228066   0.210   1.019   3.490
 9374TIP3    H128067   0.223   1.012   3.585
 9374TIP3    H228068   0.266   1.093   3.464
 9375TIP3   OH228069   4.895   1.496   0.334
 9375TIP3    H128070   4.882   1.413   0.380
 9375TIP3    H228071   4.908   1.560   0.404
 9376TIP3   OH228072   6.023   1.791   6.485
 9376TIP3    H128073   5.944   1.782   6.539
 9376TIP3    H228074   6.056   1.878   6.504
 9377TIP3   OH228075   8.138   1.070   2.831
 9377TIP3    H128076   8.218   1.116   2.805
 9377TIP3    H228077   8.088   1.061   2.751
 9378TIP3   OH228078   8.051   5.339   0.399
 9378TIP3    H128079   8.146   5.331   0.390
 9378TIP3    H228080   8.039   5.408   0.464
 9379TIP3   OH228081   2.879   7.124   1.547
 9379TIP3    H128082   2.822   7.050   1.526
 9379TIP3    H228083   2.893   7.168   1.463
 9380TIP3   OH228084   6.145   6.456   0.921
 9380TIP3    H128085   6.077   6.459   0.853
 9380TIP3    H228086   6.187   6.541   0.916
 9381TIP3   OH228087   5.636   1.133   3.547
 9381TIP3    H128088   5.714   1.078   3.548
 9381TIP3    H228089   5.653   1.200   3.614
 9382TIP3   OH228090   4.698   3.805   5.755
 9382TIP3    H128091   4.772   3.836   5.807
 9382TIP3    H228092   4.736   3.781   5.671
 9383TIP3   OH228093   5.668   0.630   0.530
 9383TIP3    H128094   5.596   0.672   0.482
 9383TIP3    H228095   5.645   0.643   0.622
 9384TIP3   OH228096   4.424   7.013   3.906
 9384TIP3    H128097   4.433   6.927   3.865
 9384TIP3    H228098   4.466   7.073   3.844
 9385TIP3   OH228099   2.081   3.662   3.367
 9385TIP3    H128100   2.123   3.612   3.298
 9385TIP3    H228101   2.151   3.716   3.404
 9386TIP3   OH228102   3.672   5.177   3.796
 9386TIP3    H128103   3.592   5.137   3.830
 9386TIP3    H228104   3.742   5.118   3.824
 9387TIP3   OH228105   3.655   1.426   4.387
 9387TIP3    H128106   3.738   1.384   4.410
 9387TIP3    H228107   3.674   1.520   4.389
 9388TIP3   OH228108   4.340   1.593   6.138
 9388TIP3    H128109   4.252   1.615   6.170
 9388TIP3    H228110   4.353   1.650   6.063
 9389TIP3   OH228111   4.839   1.809   5.293
 9389TIP3    H128112   4.902   1.801   5.364
 9389TIP3    H228113   4.792   1.726   5.292
 9390TIP3   OH228114   5.843   1.719   2.352
 9390TIP3    H128115   5.797   1.724   2.436
 9390TIP3    H228116   5.861   1.626   2.340
 9391TIP3   OH228117   2.367   3.292   3.252
 9391TIP3    H128118   2.403   3.367   3.298
 9391TIP3    H228119   2.379   3.218   3.312
 9392TIP3   OH228120   1.174   2.442   6.676
 9392TIP3    H128121   1.159   2.352   6.647
 9392TIP3    H228122   1.087   2.474   6.700
 9393TIP3   OH228123   5.169   6.925   2.502
 9393TIP3    H128124   5.231   6.991   2.470
 9393TIP3    H228125   5.105   6.917   2.431
 9394TIP3   OH228126   4.368   3.210   3.776
 9394TIP3    H128127   4.391   3.242   3.689
 9394TIP3    H228128   4.411   3.270   3.837
 9395TIP3   OH228129   0.132   7.642  -0.028
 9395TIP3    H128130   0.160   7.627   0.063
 9395TIP3    H228131   0.175   7.572  -0.078
 9396TIP3   OH228132   1.136   1.072   6.221
 9396TIP3    H128133   1.071   1.007   6.249
 9396TIP3    H228134   1.218   1.023   6.215
 9397TIP3   OH228135   2.150   3.899   2.434
 9397TIP3    H128136   2.156   3.979   2.382
 9397TIP3    H228137   2.111   3.926   2.516
 9398TIP3   OH228138   0.505   1.076   1.056
 9398TIP3    H128139   0.531   0.984   1.068
 9398TIP3    H228140   0.537   1.120   1.135
 9399TIP3   OH228141   3.825   3.943   1.523
 9399TIP3    H128142   3.733   3.963   1.538
 9399TIP3    H228143   3.867   3.962   1.607
 9400TIP3   OH228144   1.213   1.883   1.530
 9400TIP3    H128145   1.121   1.906   1.545
 9400TIP3    H228146   1.210   1.813   1.465
 9401TIP3   OH228147   4.095   5.485   3.364
 9401TIP3    H128148   4.000   5.484   3.369
 9401TIP3    H228149   4.124   5.501   3.454
 9402TIP3   OH228150   1.750   3.481   3.620
 9402TIP3    H128151   1.684   3.508   3.684
 9402TIP3    H228152   1.772   3.391   3.645
 9403TIP3   OH228153   2.613   1.006   0.870
 9403TIP3    H128154   2.570   0.924   0.847
 9403TIP3    H228155   2.603   1.061   0.792
 9404TIP3   OH228156   0.449   6.977   5.340
 9404TIP3    H128157   0.419   7.067   5.357
 9404TIP3    H228158   0.533   6.971   5.387
 9405TIP3   OH228159   0.915   3.866   4.787
 9405TIP3    H128160   0.961   3.935   4.835
 9405TIP3    H228161   0.882   3.808   4.856
 9406TIP3   OH228162   7.296   5.326   3.239
 9406TIP3    H128163   7.288   5.373   3.157
 9406TIP3    H228164   7.232   5.368   3.297
 9407TIP3   OH228165   5.323   0.851   2.622
 9407TIP3    H128166   5.361   0.933   2.590
 9407TIP3    H228167   5.235   0.848   2.583
 9408TIP3   OH228168   1.440   4.077   6.339
 9408TIP3    H128169   1.504   4.059   6.409
 9408TIP3    H228170   1.491   4.067   6.259
 9409TIP3   OH228171   6.315   1.228   4.054
 9409TIP3    H128172   6.330   1.299   3.991
 9409TIP3    H228173   6.403   1.195   4.074
 9410TIP3   OH228174   7.655   6.768   4.646
 9410TIP3    H128175   7.578   6.802   4.600
 9410TIP3    H228176   7.618   6.709   4.712
 9411TIP3   OH228177   6.393   4.687   6.562
 9411TIP3    H128178   6.366   4.618   6.500
 9411TIP3    H228179   6.372   4.651   6.648
 9412TIP3   OH228180   6.052   3.684   0.999
 9412TIP3    H128181   6.112   3.628   1.048
 9412TIP3    H228182   6.075   3.670   0.907
 9413TIP3   OH228183   3.353   7.210   3.742
 9413TIP3    H128184   3.314   7.142   3.687
 9413TIP3    H228185   3.444   7.183   3.752
 9414TIP3   OH228186   4.349   5.802   6.303
 9414TIP3    H128187   4.322   5.749   6.228
 9414TIP3    H228188   4.370   5.737   6.371
 9415TIP3   OH228189   5.182   3.764   3.248
 9415TIP3    H128190   5.213   3.785   3.336
 9415TIP3    H228191   5.237   3.691   3.220
 9416TIP3   OH228192   6.135   5.131   2.190
 9416TIP3    H128193   6.048   5.117   2.153
 9416TIP3    H228194   6.148   5.057   2.249
 9417TIP3   OH228195   4.063   2.597   1.061
 9417TIP3    H128196   3.995   2.584   0.995
 9417TIP3    H228197   4.145   2.582   1.013
 9418TIP3   OH228198   0.739   5.184   1.353
 9418TIP3    H128199   0.695   5.103   1.327
 9418TIP3    H228200   0.682   5.253   1.320
 9419TIP3   OH228201   5.203   6.775   1.181
 9419TIP3    H128202   5.186   6.805   1.091
 9419TIP3    H228203   5.247   6.849   1.222
 9420TIP3   OH228204   7.248   7.646   5.010
 9420TIP3    H128205   7.182   7.704   4.972
 9420TIP3    H228206   7.306   7.626   4.937
 9421TIP3   OH228207   2.432   6.376   2.112
 9421TIP3    H128208   2.425   6.378   2.208
 9421TIP3    H228209   2.505   6.435   2.092
 9422TIP3   OH228210   6.700   1.664   3.551
 9422TIP3    H128211   6.793   1.643   3.553
 9422TIP3    H228212   6.684   1.697   3.463
 9423TIP3   OH228213   7.764   6.824   1.902
 9423TIP3    H128214   7.703   6.877   1.954
 9423TIP3    H228215   7.810   6.888   1.847
 9424TIP3   OH228216   1.169   2.864   0.310
 9424TIP3    H128217   1.107   2.874   0.238
 9424TIP3    H228218   1.142   2.929   0.375
 9425TIP3   OH228219   2.024   4.960   6.004
 9425TIP3    H128220   1.980   5.010   5.935
 9425TIP3    H228221   1.989   4.997   6.086
 9426TIP3   OH228222   7.060   4.762   4.550
 9426TIP3    H128223   6.989   4.773   4.613
 9426TIP3    H228224   7.096   4.676   4.569
 9427TIP3   OH228225   6.177   6.498   5.110
 9427TIP3    H128226   6.166   6.548   5.190
 9427TIP3    H228227   6.239   6.429   5.132
 9428TIP3   OH228228   6.447   7.118   5.472
 9428TIP3    H128229   6.377   7.177   5.445
 9428TIP3    H228230   6.456   7.132   5.566
 9429TIP3   OH228231   2.398   2.213   3.919
 9429TIP3    H128232   2.352   2.248   3.842
 9429TIP3    H228233   2.479   2.175   3.884
 9430TIP3   OH228234   5.913   2.786   0.859
 9430TIP3    H128235   5.888   2.832   0.939
 9430TIP3    H228236   5.840   2.799   0.799
 9431TIP3   OH228237   0.139   1.306   5.817
 9431TIP3    H128238   0.208   1.362   5.853
 9431TIP3    H228239   0.084   1.285   5.893
 9432TIP3   OH228240   6.342   7.670   6.320
 9432TIP3    H128241   6.246   7.667   6.321
 9432TIP3    H228242   6.366   7.646   6.231
 9433TIP3   OH228243   6.318   1.176   5.580
 9433TIP3    H128244   6.385   1.182   5.648
 9433TIP3    H228245   6.285   1.086   5.586
 9434TIP3   OH228246   4.420   5.814   0.105
 9434TIP3    H128247   4.502   5.861   0.116
 9434TIP3    H228248   4.392   5.833   0.016
 9435TIP3   OH228249   0.885   6.110   6.345
 9435TIP3    H128250   0.858   6.110   6.437
 9435TIP3    H228251   0.942   6.186   6.337
 9436TIP3   OH228252   1.218   3.837   4.938
 9436TIP3    H128253   1.271   3.798   5.008
 9436TIP3    H228254   1.247   3.928   4.936
 9437TIP3   OH228255   1.192   7.499   3.144
 9437TIP3    H128256   1.202   7.452   3.061
 9437TIP3    H228257   1.117   7.556   3.131
 9438TIP3   OH228258   2.736   6.606   5.145
 9438TIP3    H128259   2.721   6.519   5.182
 9438TIP3    H228260   2.731   6.665   5.220
 9439TIP3   OH228261   8.211   4.403   6.550
 9439TIP3    H128262   8.241   4.436   6.635
 9439TIP3    H228263   8.288   4.363   6.511
 9440TIP3   OH228264   7.269   3.619   2.128
 9440TIP3    H128265   7.273   3.674   2.050
 9440TIP3    H228266   7.354   3.575   2.130
 9441TIP3   OH228267   0.878   2.571   1.514
 9441TIP3    H128268   0.791   2.555   1.479
 9441TIP3    H228269   0.876   2.534   1.602
 9442TIP3   OH228270   4.980   3.791   4.604
 9442TIP3    H128271   5.067   3.814   4.572
 9442TIP3    H228272   4.976   3.828   4.692
 9443TIP3   OH228273   4.394   6.716   5.141
 9443TIP3    H128274   4.460   6.649   5.127
 9443TIP3    H228275   4.443   6.799   5.140
 9444TIP3   OH228276   6.094   5.656   6.318
 9444TIP3    H128277   6.087   5.569   6.357
 9444TIP3    H228278   6.008   5.697   6.334
 9445TIP3   OH228279   0.411   1.698   3.478
 9445TIP3    H128280   0.335   1.694   3.537
 9445TIP3    H228281   0.487   1.696   3.536
 9446TIP3   OH228282   4.571   5.132   1.248
 9446TIP3    H128283   4.554   5.221   1.279
 9446TIP3    H228284   4.642   5.142   1.184
 9447TIP3   OH228285   1.511   1.436   3.487
 9447TIP3    H128286   1.427   1.476   3.510
 9447TIP3    H228287   1.497   1.342   3.500
 9448TIP3   OH228288   7.752   3.929   3.955
 9448TIP3    H128289   7.757   3.835   3.941
 9448TIP3    H228290   7.673   3.956   3.910
 9449TIP3   OH228291   4.018   0.487   2.084
 9449TIP3    H128292   4.033   0.532   2.001
 9449TIP3    H228293   4.033   0.555   2.150
 9450TIP3   OH228294   7.032   5.657   5.805
 9450TIP3    H128295   6.985   5.740   5.814
 9450TIP3    H228296   7.076   5.663   5.720
 9451TIP3   OH228297   1.176   2.993   1.040
 9451TIP3    H128298   1.151   3.007   1.132
 9451TIP3    H228299   1.222   2.909   1.041
 9452TIP3   OH228300   0.768   4.801   0.355
 9452TIP3    H128301   0.793   4.710   0.340
 9452TIP3    H228302   0.672   4.799   0.355
 9453TIP3   OH228303   1.529   1.055   1.231
 9453TIP3    H128304   1.580   1.123   1.188
 9453TIP3    H228305   1.565   1.050   1.320
 9454TIP3   OH228306   2.409   0.481   1.259
 9454TIP3    H128307   2.348   0.435   1.201
 9454TIP3    H228308   2.487   0.494   1.205
 9455TIP3   OH228309   6.981   0.383   1.937
 9455TIP3    H128310   6.955   0.298   1.901
 9455TIP3    H228311   7.076   0.378   1.944
 9456TIP3   OH228312   0.402   5.060   4.932
 9456TIP3    H128313   0.427   5.149   4.958
 9456TIP3    H228314   0.474   5.030   4.877
 9457TIP3   OH228315   2.864   0.445   4.088
 9457TIP3    H128316   2.789   0.502   4.104
 9457TIP3    H228317   2.933   0.504   4.058
 9458TIP3   OH228318   7.013   3.485   1.061
 9458TIP3    H128319   7.061   3.562   1.091
 9458TIP3    H228320   6.930   3.519   1.028
 9459TIP3   OH228321   1.542   2.387   2.858
 9459TIP3    H128322   1.545   2.470   2.904
 9459TIP3    H228323   1.465   2.342   2.892
 9460TIP3   OH228324   4.385   3.264   2.341
 9460TIP3    H128325   4.315   3.261   2.406
 9460TIP3    H228326   4.356   3.204   2.272
 9461TIP3   OH228327   7.711   2.146   5.070
 9461TIP3    H128328   7.710   2.129   4.976
 9461TIP3    H228329   7.799   2.121   5.098
 9462TIP3   OH228330   4.683   3.578   5.419
 9462TIP3    H128331   4.594   3.581   5.383
 9462TIP3    H228332   4.670   3.562   5.513
 9463TIP3   OH228333   0.472   6.094   0.753
 9463TIP3    H128334   0.398   6.124   0.807
 9463TIP3    H228335   0.544   6.084   0.815
 9464TIP3   OH228336   6.736   3.468   0.522
 9464TIP3    H128337   6.769   3.494   0.608
 9464TIP3    H228338   6.813   3.464   0.466
 9465TIP3   OH228339   3.289   5.271   4.549
 9465TIP3    H128340   3.283   5.360   4.514
 9465TIP3    H228341   3.199   5.238   4.546
 9466TIP3   OH228342   2.274   4.446   6.407
 9466TIP3    H128343   2.216   4.522   6.407
 9466TIP3    H228344   2.334   4.462   6.480
 9467TIP3   OH228345   6.065   6.774   1.078
 9467TIP3    H128346   6.029   6.752   0.992
 9467TIP3    H228347   6.136   6.711   1.091
 9468TIP3   OH228348   2.764   0.193   4.025
 9468TIP3    H128349   2.803   0.169   3.941
 9468TIP3    H228350   2.785   0.286   4.035
 9469TIP3   OH228351   2.038   4.548   2.249
 9469TIP3    H128352   2.104   4.616   2.236
 9469TIP3    H228353   2.085   4.476   2.290
 9470TIP3   OH228354   7.586   6.508   6.581
 9470TIP3    H128355   7.642   6.431   6.574
 9470TIP3    H228356   7.558   6.510   6.673
 9471TIP3   OH228357   3.024   0.404   5.553
 9471TIP3    H128358   3.014   0.311   5.531
 9471TIP3    H228359   2.979   0.450   5.482
 9472TIP3   OH228360   3.331   4.527   5.770
 9472TIP3    H128361   3.321   4.618   5.742
 9472TIP3    H228362   3.363   4.533   5.860
 9473TIP3   OH228363   3.093   2.940   1.571
 9473TIP3    H128364   3.134   3.026   1.563
 9473TIP3    H228365   3.167   2.879   1.578
 9474TIP3   OH228366   5.366   2.537   2.640
 9474TIP3    H128367   5.393   2.614   2.689
 9474TIP3    H228368   5.290   2.504   2.688
 9475TIP3   OH228369   5.869   3.341   3.841
 9475TIP3    H128370   5.941   3.295   3.884
 9475TIP3    H228371   5.908   3.378   3.762
 9476TIP3   OH228372   3.801   2.850   6.649
 9476TIP3    H128373   3.858   2.903   6.705
 9476TIP3    H228374   3.716   2.850   6.694
 9477TIP3   OH228375   6.842   0.564   2.097
 9477TIP3    H128376   6.833   0.632   2.030
 9477TIP3    H228377   6.879   0.489   2.050
 9478TIP3   OH228378   2.683   0.816   6.025
 9478TIP3    H128379   2.668   0.901   5.983
 9478TIP3    H228380   2.638   0.823   6.109
 9479TIP3   OH228381   4.251   2.733   3.798
 9479TIP3    H128382   4.331   2.696   3.759
 9479TIP3    H228383   4.183   2.715   3.733
 9480TIP3   OH228384   3.193   3.742   1.564
 9480TIP3    H128385   3.263   3.695   1.610
 9480TIP3    H228386   3.185   3.697   1.480
 9481TIP3   OH228387   3.855   3.757   3.569
 9481TIP3    H128388   3.879   3.838   3.526
 9481TIP3    H228389   3.938   3.714   3.588
 9482TIP3   OH228390   3.083   0.284   4.706
 9482TIP3    H128391   3.020   0.354   4.722
 9482TIP3    H228392   3.168   0.321   4.730
 9483TIP3   OH228393   0.624   7.209   3.332
 9483TIP3    H128394   0.663   7.143   3.275
 9483TIP3    H228395   0.620   7.168   3.418
 9484TIP3   OH228396   7.141   0.429   3.498
 9484TIP3    H128397   7.154   0.369   3.425
 9484TIP3    H228398   7.216   0.488   3.494
 9485TIP3   OH228399   6.813   0.693   0.836
 9485TIP3    H128400   6.899   0.696   0.796
 9485TIP3    H228401   6.752   0.700   0.763
 9486TIP3   OH228402   5.406   6.558   0.447
 9486TIP3    H128403   5.398   6.470   0.411
 9486TIP3    H228404   5.322   6.575   0.490
 9487TIP3   OH228405   2.560   3.900   3.825
 9487TIP3    H128406   2.609   3.915   3.906
 9487TIP3    H228407   2.510   3.980   3.811
 9488TIP3   OH228408   3.687   6.743   0.168
 9488TIP3    H128409   3.661   6.659   0.205
 9488TIP3    H228410   3.623   6.760   0.099
 9489TIP3   OH228411   2.748   7.028   6.297
 9489TIP3    H128412   2.668   7.009   6.247
 9489TIP3    H228413   2.819   7.004   6.238
 9490TIP3   OH228414   0.807   2.156   4.527
 9490TIP3    H128415   0.733   2.210   4.556
 9490TIP3    H228416   0.883   2.196   4.568
 9491TIP3   OH228417   8.070   0.265   0.661
 9491TIP3    H128418   8.154   0.267   0.708
 9491TIP3    H228419   8.009   0.307   0.721
 9492TIP3   OH228420   2.178   0.239   2.991
 9492TIP3    H128421   2.146   0.316   2.945
 9492TIP3    H228422   2.232   0.193   2.927
 9493TIP3   OH228423   1.317   2.469   2.408
 9493TIP3    H128424   1.344   2.559   2.422
 9493TIP3    H228425   1.380   2.416   2.458
 9494TIP3   OH228426   6.211   3.520   0.307
 9494TIP3    H128427   6.174   3.463   0.374
 9494TIP3    H228428   6.306   3.511   0.316
 9495TIP3   OH228429   4.062   5.014   3.237
 9495TIP3    H128430   4.119   4.939   3.221
 9495TIP3    H228431   4.091   5.048   3.322
 9496TIP3   OH228432   3.638   4.761   1.257
 9496TIP3    H128433   3.714   4.708   1.281
 9496TIP3    H228434   3.574   4.698   1.225
 9497TIP3   OH228435   5.048   6.926   4.450
 9497TIP3    H128436   5.038   6.955   4.359
 9497TIP3    H228437   5.134   6.959   4.476
 9498TIP3   OH228438   2.678   1.298   6.760
 9498TIP3    H128439   2.717   1.307   6.673
 9498TIP3    H228440   2.611   1.367   6.763
 9499TIP3   OH228441   0.588   1.151   3.642
 9499TIP3    H128442   0.500   1.187   3.628
 9499TIP3    H228443   0.647   1.226   3.630
 9500TIP3   OH228444   7.749   5.750   5.647
 9500TIP3    H128445   7.768   5.822   5.707
 9500TIP3    H228446   7.788   5.777   5.564
 9501TIP3   OH228447   8.156   5.594   2.897
 9501TIP3    H128448   8.233   5.546   2.926
 9501TIP3    H228449   8.089   5.575   2.963
 9502TIP3   OH228450   6.317   6.654   1.129
 9502TIP3    H128451   6.319   6.559   1.116
 9502TIP3    H228452   6.381   6.671   1.197
 9503TIP3   OH228453   4.078   3.269   3.623
 9503TIP3    H128454   4.087   3.343   3.683
 9503TIP3    H228455   4.162   3.263   3.578
 9504TIP3   OH228456   6.807   0.034   3.685
 9504TIP3    H128457   6.798   0.099   3.616
 9504TIP3    H228458   6.718  -0.001   3.697
 9505TIP3   OH228459   2.320   3.439   5.132
 9505TIP3    H128460   2.280   3.517   5.172
 9505TIP3    H228461   2.305   3.369   5.196
 9506TIP3   OH228462   5.861   0.883   3.589
 9506TIP3    H128463   5.952   0.913   3.592
 9506TIP3    H228464   5.825   0.906   3.675
 9507TIP3   OH228465   5.016   6.414   5.721
 9507TIP3    H128466   4.922   6.414   5.737
 9507TIP3    H228467   5.043   6.324   5.736
 9508TIP3   OH228468   0.476   4.188   5.915
 9508TIP3    H128469   0.415   4.259   5.898
 9508TIP3    H228470   0.447   4.116   5.859
 9509TIP3   OH228471   5.805   0.897   5.457
 9509TIP3    H128472   5.790   0.990   5.473
 9509TIP3    H228473   5.727   0.853   5.489
 9510TIP3   OH228474   3.475   4.246   3.994
 9510TIP3    H128475   3.483   4.167   3.941
 9510TIP3    H228476   3.559   4.252   4.040
 9511TIP3   OH228477   4.415   5.998   1.004
 9511TIP3    H128478   4.395   5.904   1.002
 9511TIP3    H228479   4.505   6.003   1.036
 9512TIP3   OH228480   3.491   0.508   1.731
 9512TIP3    H128481   3.412   0.453   1.728
 9512TIP3    H228482   3.461   0.594   1.703
 9513TIP3   OH228483   5.751   3.878   5.455
 9513TIP3    H128484   5.753   3.973   5.466
 9513TIP3    H228485   5.671   3.850   5.500
 9514TIP3   OH228486   8.151   1.572   0.392
 9514TIP3    H128487   8.168   1.497   0.336
 9514TIP3    H228488   8.075   1.545   0.445
 9515TIP3   OH228489   1.600   1.730   3.453
 9515TIP3    H128490   1.584   1.730   3.358
 9515TIP3    H228491   1.523   1.772   3.490
 9516TIP3   OH228492   6.085   0.098   0.318
 9516TIP3    H128493   6.064   0.005   0.332
 9516TIP3    H228494   6.056   0.115   0.228
 9517TIP3   OH228495   6.674   6.733   6.067
 9517TIP3    H128496   6.598   6.790   6.061
 9517TIP3    H228497   6.694   6.709   5.977
 9518TIP3   OH228498   1.784   1.616   4.370
 9518TIP3    H128499   1.861   1.671   4.386
 9518TIP3    H228500   1.813   1.527   4.387
 9519TIP3   OH228501   1.412   5.096   3.981
 9519TIP3    H128502   1.487   5.038   3.979
 9519TIP3    H228503   1.336   5.039   3.970
 9520TIP3   OH228504   2.188   3.185   0.778
 9520TIP3    H128505   2.206   3.141   0.695
 9520TIP3    H228506   2.262   3.245   0.790
 9521TIP3   OH228507   6.196   3.976   0.009
 9521TIP3    H128508   6.177   3.897   0.060
 9521TIP3    H228509   6.144   3.966  -0.071
 9522TIP3   OH228510   2.718   5.252   0.606
 9522TIP3    H128511   2.771   5.173   0.610
 9522TIP3    H228512   2.629   5.220   0.590
 9523TIP3   OH228513   0.052   3.605   6.229
 9523TIP3    H128514   0.141   3.628   6.256
 9523TIP3    H228515   0.028   3.673   6.167
 9524TIP3   OH228516   0.364   5.644   3.726
 9524TIP3    H128517   0.369   5.609   3.637
 9524TIP3    H228518   0.299   5.714   3.721
 9525TIP3   OH228519   1.689   0.319   4.426
 9525TIP3    H128520   1.637   0.399   4.417
 9525TIP3    H228521   1.662   0.283   4.510
 9526TIP3   OH228522   6.120   4.383   3.017
 9526TIP3    H128523   6.074   4.362   2.935
 9526TIP3    H228524   6.106   4.477   3.028
 9527TIP3   OH228525   3.071   3.637   1.904
 9527TIP3    H128526   3.159   3.638   1.866
 9527TIP3    H228527   3.084   3.604   1.993
 9528TIP3   OH228528   3.108   4.875   6.759
 9528TIP3    H128529   3.073   4.893   6.846
 9528TIP3    H228530   3.057   4.799   6.729
 9529TIP3   OH228531   1.350   0.314   0.689
 9529TIP3    H128532   1.343   0.218   0.685
 9529TIP3    H228533   1.419   0.330   0.753
 9530TIP3   OH228534   3.254   0.874   6.503
 9530TIP3    H128535   3.261   0.812   6.575
 9530TIP3    H228536   3.215   0.824   6.431
 9531TIP3   OH228537   6.105   5.691   4.692
 9531TIP3    H128538   6.122   5.749   4.766
 9531TIP3    H228539   6.167   5.618   4.703
 9532TIP3   OH228540   1.848   2.404   0.664
 9532TIP3    H128541   1.825   2.412   0.572
 9532TIP3    H228542   1.935   2.365   0.664
 9533TIP3   OH228543   6.241   2.128   2.679
 9533TIP3    H128544   6.162   2.155   2.726
 9533TIP3    H228545   6.212   2.111   2.590
 9534TIP3   OH228546   4.070   7.556   2.323
 9534TIP3    H128547   4.101   7.632   2.275
 9534TIP3    H228548   3.985   7.583   2.360
 9535TIP3   OH228549   3.006   1.081   1.557
 9535TIP3    H128550   3.048   1.013   1.506
 9535TIP3    H228551   2.998   1.044   1.645
 9536TIP3   OH228552   6.322  -0.022   3.222
 9536TIP3    H128553   6.304  -0.066   3.139
 9536TIP3    H228554   6.398   0.032   3.204
 9537TIP3   OH228555   7.225   3.102   3.566
 9537TIP3    H128556   7.245   3.009   3.561
 9537TIP3    H228557   7.265   3.132   3.648
 9538TIP3   OH228558   2.228   0.913   6.702
 9538TIP3    H128559   2.252   0.991   6.652
 9538TIP3    H228560   2.145   0.936   6.744
 9539TIP3   OH228561   5.478   3.115   6.515
 9539TIP3    H128562   5.405   3.099   6.576
 9539TIP3    H228563   5.440   3.172   6.448
 9540TIP3   OH228564   7.539   1.983   4.849
 9540TIP3    H128565   7.511   1.894   4.868
 9540TIP3    H228566   7.634   1.977   4.840
 9541TIP3   OH228567   2.836   7.708   4.411
 9541TIP3    H128568   2.818   7.790   4.364
 9541TIP3    H228569   2.881   7.736   4.491
 9542TIP3   OH228570   5.524   1.373   5.903
 9542TIP3    H128571   5.607   1.420   5.894
 9542TIP3    H228572   5.457   1.437   5.880
 9543TIP3   OH228573   4.961   7.184   3.677
 9543TIP3    H128574   4.944   7.131   3.755
 9543TIP3    H228575   5.054   7.173   3.659
 9544TIP3   OH228576   6.938   3.827   1.371
 9544TIP3    H128577   6.967   3.909   1.411
 9544TIP3    H228578   6.957   3.760   1.437
 9545TIP3   OH228579   5.702   3.156   1.788
 9545TIP3    H128580   5.792   3.188   1.783
 9545TIP3    H228581   5.687   3.114   1.703
 9546TIP3   OH228582   1.835   3.801   5.346
 9546TIP3    H128583   1.892   3.867   5.305
 9546TIP3    H228584   1.831   3.828   5.438
 9547TIP3   OH228585   7.606   4.879   4.832
 9547TIP3    H128586   7.512   4.900   4.832
 9547TIP3    H228587   7.636   4.905   4.919
 9548TIP3   OH228588   5.640   7.256   4.228
 9548TIP3    H128589   5.565   7.245   4.286
 9548TIP3    H228590   5.716   7.240   4.284
 9549TIP3   OH228591   3.300   0.033   6.287
 9549TIP3    H128592   3.352   0.088   6.345
 9549TIP3    H228593   3.210   0.065   6.297
 9550TIP3   OH228594   1.926   5.476   5.701
 9550TIP3    H128595   2.000   5.537   5.700
 9550TIP3    H228596   1.926   5.439   5.789
 9551TIP3   OH228597   0.674   2.395   2.378
 9551TIP3    H128598   0.582   2.411   2.357
 9551TIP3    H228599   0.695   2.313   2.334
 9552TIP3   OH228600   6.564   3.186   2.100
 9552TIP3    H128601   6.494   3.122   2.088
 9552TIP3    H228602   6.643   3.133   2.111
 9553TIP3   OH228603   4.545   5.218   6.653
 9553TIP3    H128604   4.533   5.177   6.567
 9553TIP3    H228605   4.469   5.274   6.663
 9554TIP3   OH228606   2.011   4.571   0.299
 9554TIP3    H128607   2.009   4.500   0.363
 9554TIP3    H228608   1.994   4.529   0.215
 9555TIP3   OH228609   1.230   1.199   0.428
 9555TIP3    H128610   1.169   1.130   0.455
 9555TIP3    H228611   1.239   1.186   0.333
 9556TIP3   OH228612   2.051   5.549   6.249
 9556TIP3    H128613   2.119   5.566   6.314
 9556TIP3    H228614   2.064   5.616   6.181
 9557TIP3   OH228615   0.296   1.466   1.949
 9557TIP3    H128616   0.244   1.435   1.875
 9557TIP3    H228617   0.265   1.414   2.023
 9558TIP3   OH228618   7.934   6.218   1.767
 9558TIP3    H128619   7.902   6.281   1.703
 9558TIP3    H228620   7.879   6.233   1.845
 9559TIP3   OH228621   1.152   0.972   2.892
 9559TIP3    H128622   1.247   0.980   2.885
 9559TIP3    H228623   1.118   1.041   2.833
 9560TIP3   OH228624   4.651   2.365   4.050
 9560TIP3    H128625   4.581   2.403   4.103
 9560TIP3    H228626   4.693   2.440   4.008
 9561TIP3   OH228627   1.008   0.942   4.969
 9561TIP3    H128628   0.944   0.888   4.923
 9561TIP3    H228629   0.979   0.941   5.060
 9562TIP3   OH228630   2.861   2.326   3.115
 9562TIP3    H128631   2.805   2.364   3.183
 9562TIP3    H228632   2.906   2.254   3.158
 9563TIP3   OH228633   5.930   4.237   2.495
 9563TIP3    H128634   5.940   4.326   2.459
 9563TIP3    H228635   6.020   4.206   2.507
 9564TIP3   OH228636   0.124   2.845   5.441
 9564TIP3    H128637   0.096   2.886   5.523
 9564TIP3    H228638   0.105   2.911   5.374
 9565TIP3   OH228639   0.209   1.852   2.308
 9565TIP3    H128640   0.289   1.819   2.269
 9565TIP3    H228641   0.193   1.935   2.263
 9566TIP3   OH228642   0.410   1.178   4.367
 9566TIP3    H128643   0.388   1.268   4.342
 9566TIP3    H228644   0.495   1.161   4.326
 9567TIP3   OH228645   3.978   5.358   5.101
 9567TIP3    H128646   4.045   5.378   5.036
 9567TIP3    H228647   3.968   5.439   5.151
 9568TIP3   OH228648   2.066   5.208   1.241
 9568TIP3    H128649   2.082   5.284   1.297
 9568TIP3    H228650   2.073   5.242   1.152
 9569TIP3   OH228651   7.892   2.944   1.818
 9569TIP3    H128652   7.804   2.981   1.830
 9569TIP3    H228653   7.880   2.875   1.753
 9570TIP3   OH228654   0.437   4.080   2.845
 9570TIP3    H128655   0.447   4.116   2.757
 9570TIP3    H228656   0.518   4.104   2.890
 9571TIP3   OH228657   8.224   6.889   1.216
 9571TIP3    H128658   8.236   6.970   1.267
 9571TIP3    H228659   8.208   6.822   1.281
 9572TIP3   OH228660   5.034   1.599   1.632
 9572TIP3    H128661   5.046   1.675   1.575
 9572TIP3    H228662   4.990   1.634   1.710
 9573TIP3   OH228663   3.081   0.031   4.313
 9573TIP3    H128664   3.082   0.118   4.354
 9573TIP3    H228665   2.988   0.009   4.308
 9574TIP3   OH228666   4.255   6.914   1.212
 9574TIP3    H128667   4.243   6.876   1.125
 9574TIP3    H228668   4.293   7.001   1.194
 9575TIP3   OH228669   5.796   7.161   4.441
 9575TIP3    H128670   5.753   7.080   4.470
 9575TIP3    H228671   5.887   7.151   4.469
 9576TIP3   OH228672   5.219   6.593   3.510
 9576TIP3    H128673   5.128   6.624   3.518
 9576TIP3    H228674   5.267   6.641   3.578
 9577TIP3   OH228675   6.469   5.051   3.555
 9577TIP3    H128676   6.458   5.030   3.648
 9577TIP3    H228677   6.545   5.109   3.552
 9578TIP3   OH228678   3.178   4.670   4.113
 9578TIP3    H128679   3.228   4.588   4.114
 9578TIP3    H228680   3.112   4.657   4.045
 9579TIP3   OH228681   8.019   1.361   4.623
 9579TIP3    H128682   7.973   1.383   4.542
 9579TIP3    H228683   8.092   1.423   4.627
 9580TIP3   OH228684   2.091   4.143   0.186
 9580TIP3    H128685   2.074   4.066   0.132
 9580TIP3    H228686   2.116   4.211   0.124
 9581TIP3   OH228687   6.798   3.807   3.522
 9581TIP3    H128688   6.739   3.776   3.453
 9581TIP3    H228689   6.742   3.817   3.599
 9582TIP3   OH228690   5.101   1.553   4.987
 9582TIP3    H128691   5.083   1.569   4.894
 9582TIP3    H228692   5.018   1.523   5.023
 9583TIP3   OH228693   2.281   0.266   1.110
 9583TIP3    H128694   2.288   0.316   1.029
 9583TIP3    H228695   2.187   0.251   1.121
 9584TIP3   OH228696   7.993   0.622   6.510
 9584TIP3    H128697   7.976   0.711   6.477
 9584TIP3    H228698   7.999   0.569   6.431
 9585TIP3   OH228699   0.360   3.292   3.331
 9585TIP3    H128700   0.373   3.242   3.412
 9585TIP3    H228701   0.439   3.275   3.280
 9586TIP3   OH228702   0.045   3.196   0.738
 9586TIP3    H128703   0.140   3.193   0.725
 9586TIP3    H228704   0.030   3.145   0.818
 9587TIP3   OH228705   6.711  -0.002   0.306
 9587TIP3    H128706   6.758   0.080   0.288
 9587TIP3    H228707   6.618   0.023   0.304
 9588TIP3   OH228708   7.025   1.452   5.627
 9588TIP3    H128709   6.954   1.502   5.589
 9588TIP3    H228710   6.991   1.421   5.711
 9589TIP3   OH228711   3.211   3.362   2.474
 9589TIP3    H128712   3.155   3.293   2.510
 9589TIP3    H228713   3.186   3.441   2.522
 9590TIP3   OH228714   7.345   3.386   5.693
 9590TIP3    H128715   7.250   3.376   5.687
 9590TIP3    H228716   7.368   3.432   5.612
 9591TIP3   OH228717   4.377   2.633   0.326
 9591TIP3    H128718   4.381   2.544   0.292
 9591TIP3    H228719   4.292   2.639   0.368
 9592TIP3   OH228720   0.452   2.341   3.107
 9592TIP3    H128721   0.431   2.429   3.139
 9592TIP3    H228722   0.366   2.299   3.097
 9593TIP3   OH228723   2.731   3.405   6.484
 9593TIP3    H128724   2.700   3.352   6.557
 9593TIP3    H228725   2.658   3.464   6.465
 9594TIP3   OH228726   1.227   4.630   5.566
 9594TIP3    H128727   1.317   4.614   5.537
 9594TIP3    H228728   1.172   4.583   5.504
 9595TIP3   OH228729   3.454   6.474   4.239
 9595TIP3    H128730   3.532   6.526   4.255
 9595TIP3    H228731   3.471   6.391   4.284
 9596TIP3   OH228732   1.785   3.110   5.760
 9596TIP3    H128733   1.741   3.168   5.698
 9596TIP3    H228734   1.785   3.024   5.717
 9597TIP3   OH228735   3.190   0.602   3.087
 9597TIP3    H128736   3.283   0.610   3.108
 9597TIP3    H228737   3.187   0.595   2.992
 9598TIP3   OH228738   0.161   6.754   4.974
 9598TIP3    H128739   0.236   6.813   4.986
 9598TIP3    H228740   0.085   6.806   4.999
 9599TIP3   OH228741   0.766   0.178   2.380
 9599TIP3    H128742   0.770   0.143   2.290
 9599TIP3    H228743   0.856   0.204   2.399
 9600TIP3   OH228744   4.013   4.154   0.103
 9600TIP3    H128745   4.006   4.060   0.119
 9600TIP3    H228746   3.992   4.195   0.187
 9601TIP3   OH228747   3.891   4.952   4.568
 9601TIP3    H128748   3.910   4.960   4.661
 9601TIP3    H228749   3.874   5.042   4.540
 9602TIP3   OH228750   1.951   3.400   6.533
 9602TIP3    H128751   1.936   3.461   6.605
 9602TIP3    H228752   2.027   3.348   6.561
 9603TIP3   OH228753   7.674   1.932   6.209
 9603TIP3    H128754   7.733   1.914   6.281
 9603TIP3    H228755   7.728   1.924   6.130
 9604TIP3   OH228756   2.548   3.753   0.959
 9604TIP3    H128757   2.516   3.684   1.017
 9604TIP3    H228758   2.611   3.801   1.012
 9605TIP3   OH228759   0.979   5.257   2.060
 9605TIP3    H128760   0.943   5.168   2.063
 9605TIP3    H228761   0.975   5.287   2.151
 9606TIP3   OH228762   5.306   3.974   0.348
 9606TIP3    H128763   5.305   4.041   0.280
 9606TIP3    H228764   5.222   3.930   0.340
 9607TIP3   OH228765   2.437   3.709   6.285
 9607TIP3    H128766   2.494   3.653   6.231
 9607TIP3    H228767   2.348   3.681   6.262
 9608TIP3   OH228768   0.085   3.601   1.878
 9608TIP3    H128769   0.075   3.532   1.812
 9608TIP3    H228770   0.029   3.672   1.846
 9609TIP3   OH228771   1.261   2.538   1.197
 9609TIP3    H128772   1.188   2.589   1.162
 9609TIP3    H228773   1.249   2.451   1.160
 9610TIP3   OH228774   5.631   1.056   3.118
 9610TIP3    H128775   5.720   1.045   3.150
 9610TIP3    H228776   5.639   1.056   3.023
 9611TIP3   OH228777   2.872   3.960   1.313
 9611TIP3    H128778   2.930   3.884   1.312
 9611TIP3    H228779   2.919   4.026   1.261
 9612TIP3   OH228780   8.253   1.971   0.499
 9612TIP3    H128781   8.173   1.920   0.494
 9612TIP3    H228782   8.223   2.062   0.510
 9613TIP3   OH228783   6.515   5.130   2.684
 9613TIP3    H128784   6.573   5.060   2.715
 9613TIP3    H228785   6.505   5.113   2.590
 9614TIP3   OH228786   4.586   1.577   3.612
 9614TIP3    H128787   4.610   1.532   3.694
 9614TIP3    H228788   4.550   1.661   3.640
 9615TIP3   OH228789   4.185   4.078   6.162
 9615TIP3    H128790   4.131   4.010   6.202
 9615TIP3    H228791   4.147   4.091   6.075
 9616TIP3   OH228792   0.198   5.672   6.523
 9616TIP3    H128793   0.286   5.708   6.515
 9616TIP3    H228794   0.150   5.738   6.572
 9617TIP3   OH228795   2.975   3.574   2.532
 9617TIP3    H128796   2.993   3.641   2.465
 9617TIP3    H228797   3.043   3.589   2.598
 9618TIP3   OH228798   6.393   2.845   0.871
 9618TIP3    H128799   6.429   2.917   0.819
 9618TIP3    H228800   6.429   2.766   0.831
 9619TIP3   OH228801   5.460   0.952   5.833
 9619TIP3    H128802   5.454   0.870   5.882
 9619TIP3    H228803   5.392   1.008   5.871
 9620TIP3   OH228804   2.201   7.563   5.057
 9620TIP3    H128805   2.123   7.619   5.058
 9620TIP3    H228806   2.271   7.620   5.026
 9621TIP3   OH228807   5.143   7.512   0.323
 9621TIP3    H128808   5.159   7.542   0.413
 9621TIP3    H228809   5.226   7.527   0.278
 9622TIP3   OH228810   1.372   1.155   3.557
 9622TIP3    H128811   1.303   1.217   3.581
 9622TIP3    H228812   1.438   1.165   3.625
 9623TIP3   OH228813   6.886   1.381   1.544
 9623TIP3    H128814   6.972   1.354   1.513
 9623TIP3    H228815   6.835   1.395   1.463
 9624TIP3   OH228816   1.654   0.730   3.387
 9624TIP3    H128817   1.748   0.711   3.398
 9624TIP3    H228818   1.652   0.809   3.333
 9625TIP3   OH228819   2.828   0.074   2.433
 9625TIP3    H128820   2.893   0.096   2.366
 9625TIP3    H228821   2.826   0.152   2.490
 9626TIP3   OH228822   0.626   2.980   1.308
 9626TIP3    H128823   0.614   3.075   1.318
 9626TIP3    H228824   0.596   2.963   1.219
 9627TIP3   OH228825   6.285   6.998   6.543
 9627TIP3    H128826   6.281   6.919   6.596
 9627TIP3    H228827   6.297   6.967   6.454
 9628TIP3   OH228828   4.345   3.589   6.687
 9628TIP3    H128829   4.272   3.547   6.733
 9628TIP3    H228830   4.422   3.568   6.740
 9629TIP3   OH228831   3.028   3.570   3.615
 9629TIP3    H128832   3.015   3.643   3.675
 9629TIP3    H228833   2.939   3.539   3.596
 9630TIP3   OH228834   1.659   2.635   0.053
 9630TIP3    H128835   1.581   2.686   0.031
 9630TIP3    H228836   1.640   2.598   0.139
 9631TIP3   OH228837   3.131   4.051   4.147
 9631TIP3    H128838   3.101   3.979   4.202
 9631TIP3    H228839   3.158   4.119   4.209
 9632TIP3   OH228840   2.727   4.058   0.208
 9632TIP3    H128841   2.815   4.022   0.218
 9632TIP3    H228842   2.732   4.146   0.244
 9633TIP3   OH228843   6.057   2.892   5.296
 9633TIP3    H128844   6.085   2.978   5.328
 9633TIP3    H228845   5.962   2.899   5.287
 9634TIP3   OH228846   1.200   4.308   6.375
 9634TIP3    H128847   1.108   4.285   6.363
 9634TIP3    H228848   1.244   4.224   6.387
 9635TIP3   OH228849   6.920   1.908   4.057
 9635TIP3    H128850   6.964   1.991   4.042
 9635TIP3    H228851   6.827   1.930   4.055
 9636TIP3   OH228852   0.012   1.041   0.406
 9636TIP3    H128853   0.047   1.035   0.317
 9636TIP3    H228854   0.034   0.957   0.446
 9637TIP3   OH228855   5.126   2.144   5.563
 9637TIP3    H128856   5.152   2.212   5.500
 9637TIP3    H228857   5.208   2.119   5.606
 9638TIP3   OH228858   6.066   6.703   2.583
 9638TIP3    H128859   6.113   6.778   2.545
 9638TIP3    H228860   5.976   6.733   2.593
 9639TIP3   OH228861   1.637   2.116   0.605
 9639TIP3    H128862   1.710   2.080   0.656
 9639TIP3    H228863   1.581   2.041   0.585
 9640TIP3   OH228864   5.437   7.047   1.573
 9640TIP3    H128865   5.442   7.009   1.661
 9640TIP3    H228866   5.526   7.043   1.540
 9641TIP3   OH228867   0.494   1.280   6.233
 9641TIP3    H128868   0.424   1.246   6.177
 9641TIP3    H228869   0.505   1.213   6.301
 9642TIP3   OH228870   7.909   1.457   1.975
 9642TIP3    H128871   7.927   1.407   2.054
 9642TIP3    H228872   7.918   1.548   2.001
 9643TIP3   OH228873   6.566   7.318   2.056
 9643TIP3    H128874   6.554   7.266   1.977
 9643TIP3    H228875   6.659   7.308   2.077
 9644TIP3   OH228876   0.526   1.271   0.859
 9644TIP3    H128877   0.599   1.331   0.877
 9644TIP3    H228878   0.526   1.211   0.933
 9645TIP3   OH228879   2.289   6.457   2.388
 9645TIP3    H128880   2.262   6.501   2.469
 9645TIP3    H228881   2.217   6.473   2.327
 9646TIP3   OH228882   2.786   4.155   4.602
 9646TIP3    H128883   2.866   4.107   4.626
 9646TIP3    H228884   2.792   4.237   4.651
 9647TIP3   OH228885   4.536   5.194   2.722
 9647TIP3    H128886   4.515   5.249   2.798
 9647TIP3    H228887   4.578   5.254   2.660
 9648TIP3   OH228888   5.651   3.432  -0.003
 9648TIP3    H128889   5.606   3.366   0.049
 9648TIP3    H228890   5.694   3.488   0.062
 9649TIP3   OH228891   2.083   0.916   0.699
 9649TIP3    H128892   2.121   0.832   0.726
 9649TIP3    H228893   1.989   0.903   0.706
 9650TIP3   OH228894   0.691   1.491   3.391
 9650TIP3    H128895   0.672   1.520   3.480
 9650TIP3    H228896   0.605   1.475   3.352
 9651TIP3   OH228897   2.340   6.308   4.286
 9651TIP3    H128898   2.433   6.310   4.263
 9651TIP3    H228899   2.333   6.372   4.357
 9652TIP3   OH228900   4.468   5.069   2.129
 9652TIP3    H128901   4.511   5.041   2.048
 9652TIP3    H228902   4.378   5.087   2.103
 9653TIP3   OH228903   5.652   6.456   4.072
 9653TIP3    H128904   5.716   6.511   4.116
 9653TIP3    H228905   5.703   6.384   4.034
 9654TIP3   OH228906   6.638   5.556   1.239
 9654TIP3    H128907   6.722   5.513   1.255
 9654TIP3    H228908   6.594   5.556   1.325
 9655TIP3   OH228909   7.262   0.692   6.409
 9655TIP3    H128910   7.235   0.650   6.327
 9655TIP3    H228911   7.215   0.775   6.409
 9656TIP3   OH228912   4.717   4.121  -0.043
 9656TIP3    H128913   4.649   4.086  -0.101
 9656TIP3    H228914   4.691   4.091   0.045
 9657TIP3   OH228915   4.596   1.086   4.901
 9657TIP3    H128916   4.574   1.072   4.809
 9657TIP3    H228917   4.689   1.065   4.908
 9658TIP3   OH228918   5.112   2.383   5.410
 9658TIP3    H128919   5.089   2.452   5.472
 9658TIP3    H228920   5.030   2.336   5.394
 9659TIP3   OH228921   8.196   4.020   2.783
 9659TIP3    H128922   8.112   3.974   2.777
 9659TIP3    H228923   8.178   4.107   2.746
 9660TIP3   OH228924   7.629   0.580   5.181
 9660TIP3    H128925   7.629   0.496   5.136
 9660TIP3    H228926   7.556   0.628   5.141
 9661TIP3   OH228927   5.654   7.429   0.469
 9661TIP3    H128928   5.668   7.393   0.382
 9661TIP3    H228929   5.683   7.360   0.529
 9662TIP3   OH228930   7.888   6.123   5.493
 9662TIP3    H128931   7.902   6.168   5.577
 9662TIP3    H228932   7.941   6.172   5.431
 9663TIP3   OH228933   7.825   6.261   2.222
 9663TIP3    H128934   7.748   6.206   2.238
 9663TIP3    H228935   7.826   6.274   2.128
 9664TIP3   OH228936   7.883   6.356   4.330
 9664TIP3    H128937   7.865   6.428   4.391
 9664TIP3    H228938   7.953   6.306   4.371
 9665TIP3   OH228939   5.480   7.164   5.018
 9665TIP3    H128940   5.563   7.177   5.063
 9665TIP3    H228941   5.443   7.252   5.009
 9666TIP3   OH228942   1.546   1.429   4.221
 9666TIP3    H128943   1.535   1.335   4.228
 9666TIP3    H228944   1.640   1.443   4.229
 9667TIP3   OH228945   0.673   4.513   5.658
 9667TIP3    H128946   0.603   4.522   5.722
 9667TIP3    H228947   0.667   4.423   5.628
 9668TIP3   OH228948   0.887   6.759   6.636
 9668TIP3    H128949   0.968   6.792   6.676
 9668TIP3    H228950   0.909   6.745   6.544
 9669TIP3   OH228951   3.253   0.036   3.625
 9669TIP3    H128952   3.207   0.063   3.545
 9669TIP3    H228953   3.326   0.096   3.633
 9670TIP3   OH228954   5.411   2.725   4.021
 9670TIP3    H128955   5.451   2.803   4.059
 9670TIP3    H228956   5.381   2.674   4.096
 9671TIP3   OH228957   6.892   5.914   5.861
 9671TIP3    H128958   6.937   5.977   5.804
 9671TIP3    H228959   6.852   5.968   5.929
 9672TIP3   OH228960   6.805   7.217   1.462
 9672TIP3    H128961   6.833   7.126   1.462
 9672TIP3    H228962   6.854   7.257   1.534
 9673TIP3   OH228963   5.103   2.123   4.585
 9673TIP3    H128964   5.055   2.105   4.666
 9673TIP3    H228965   5.174   2.059   4.585
 9674TIP3   OH228966   8.108   0.074   4.699
 9674TIP3    H128967   8.085   0.117   4.782
 9674TIP3    H228968   8.194   0.111   4.677
 9675TIP3   OH228969   6.502   4.620   6.077
 9675TIP3    H128970   6.478   4.702   6.121
 9675TIP3    H228971   6.471   4.631   5.987
 9676TIP3   OH228972   3.306   5.267   1.250
 9676TIP3    H128973   3.241   5.211   1.209
 9676TIP3    H228974   3.372   5.206   1.283
 9677TIP3   OH228975   3.518   3.581   2.256
 9677TIP3    H128976   3.561   3.595   2.340
 9677TIP3    H228977   3.566   3.636   2.195
 9678TIP3   OH228978   0.834   2.411   0.997
 9678TIP3    H128979   0.791   2.442   0.917
 9678TIP3    H228980   0.920   2.382   0.968
 9679TIP3   OH228981   3.820   4.245   3.162
 9679TIP3    H128982   3.877   4.307   3.210
 9679TIP3    H228983   3.797   4.292   3.082
 9680TIP3   OH228984   1.325   6.098   1.494
 9680TIP3    H128985   1.391   6.078   1.561
 9680TIP3    H228986   1.275   6.172   1.531
 9681TIP3   OH228987   1.553   0.061   5.618
 9681TIP3    H128988   1.634   0.059   5.669
 9681TIP3    H228989   1.576   0.020   5.535
 9682TIP3   OH228990   4.049   5.383   1.691
 9682TIP3    H128991   4.081   5.369   1.602
 9682TIP3    H228992   3.964   5.426   1.679
 9683TIP3   OH228993   0.858   5.535   5.533
 9683TIP3    H128994   0.880   5.592   5.607
 9683TIP3    H228995   0.909   5.456   5.548
 9684TIP3   OH228996   3.944   2.279   2.144
 9684TIP3    H128997   3.918   2.285   2.052
 9684TIP3    H228998   3.868   2.240   2.187
 9685TIP3   OH228999   4.931   2.929   4.786
 9685TIP3    H129000   4.915   2.952   4.877
 9685TIP3    H229001   5.020   2.958   4.768
 9686TIP3   OH229002   2.402   4.801   1.424
 9686TIP3    H129003   2.341   4.851   1.479
 9686TIP3    H229004   2.381   4.709   1.443
 9687TIP3   OH229005   6.073   5.266   3.966
 9687TIP3    H129006   6.072   5.257   4.061
 9687TIP3    H229007   5.981   5.279   3.943
 9688TIP3   OH229008   1.403   4.593   3.704
 9688TIP3    H129009   1.381   4.686   3.715
 9688TIP3    H229010   1.492   4.586   3.738
 9689TIP3   OH229011   5.622   5.517   6.031
 9689TIP3    H129012   5.596   5.436   5.987
 9689TIP3    H229013   5.563   5.584   5.995
 9690TIP3   OH229014   5.928   0.888   4.074
 9690TIP3    H129015   5.996   0.942   4.116
 9690TIP3    H229016   5.858   0.883   4.139
 9691TIP3   OH229017   6.720   0.229   2.163
 9691TIP3    H129018   6.724   0.296   2.232
 9691TIP3    H229019   6.670   0.270   2.093
 9692TIP3   OH229020   1.950   4.304   3.977
 9692TIP3    H129021   1.858   4.299   3.950
 9692TIP3    H229022   1.998   4.261   3.907
 9693TIP3   OH229023   2.406   3.154   2.787
 9693TIP3    H129024   2.450   3.205   2.719
 9693TIP3    H229025   2.348   3.216   2.831
 9694TIP3   OH229026   2.840   2.310   2.579
 9694TIP3    H129027   2.882   2.361   2.649
 9694TIP3    H229028   2.805   2.233   2.624
 9695TIP3   OH229029   0.036   2.838   2.173
 9695TIP3    H129030   0.099   2.896   2.216
 9695TIP3    H229031   0.041   2.756   2.222
 9696TIP3   OH229032   2.055   2.970   6.439
 9696TIP3    H129033   2.088   2.910   6.372
 9696TIP3    H229034   1.984   3.018   6.395
 9697TIP3   OH229035   4.713   2.298   5.521
 9697TIP3    H129036   4.728   2.216   5.474
 9697TIP3    H229037   4.776   2.360   5.482
 9698TIP3   OH229038   4.782   5.564   4.457
 9698TIP3    H129039   4.820   5.572   4.369
 9698TIP3    H229040   4.689   5.583   4.444
 9699TIP3   OH229041   7.526   1.789   6.515
 9699TIP3    H129042   7.548   1.853   6.582
 9699TIP3    H229043   7.598   1.726   6.517
 9700TIP3   OH229044   2.702   4.673   3.495
 9700TIP3    H129045   2.701   4.596   3.437
 9700TIP3    H229046   2.633   4.729   3.462
 9701TIP3   OH229047   1.311   6.608   0.923
 9701TIP3    H129048   1.219   6.629   0.906
 9701TIP3    H229049   1.356   6.692   0.914
 9702TIP3   OH229050   4.012   5.673   4.580
 9702TIP3    H129051   3.972   5.604   4.633
 9702TIP3    H229052   3.957   5.750   4.594
 9703TIP3   OH229053   2.407   6.513   2.671
 9703TIP3    H129054   2.345   6.554   2.730
 9703TIP3    H229055   2.492   6.527   2.711
 9704TIP3   OH229056   8.131   4.083   4.448
 9704TIP3    H129057   8.078   4.028   4.505
 9704TIP3    H229058   8.092   4.073   4.362
 9705TIP3   OH229059   1.135   0.849   0.951
 9705TIP3    H129060   1.109   0.802   0.871
 9705TIP3    H229061   1.056   0.850   1.004
 9706TIP3   OH229062   5.525   2.752   2.353
 9706TIP3    H129063   5.450   2.715   2.401
 9706TIP3    H229064   5.486   2.813   2.291
 9707TIP3   OH229065   3.452   5.717   0.982
 9707TIP3    H129066   3.404   5.790   1.021
 9707TIP3    H229067   3.444   5.646   1.046
 9708TIP3   OH229068   6.095   3.835   3.442
 9708TIP3    H129069   6.105   3.915   3.390
 9708TIP3    H229070   6.069   3.769   3.378
 9709TIP3   OH229071   8.117   2.854   1.235
 9709TIP3    H129072   8.192   2.890   1.282
 9709TIP3    H229073   8.045   2.856   1.299
 9710TIP3   OH229074   7.388   2.439   1.723
 9710TIP3    H129075   7.366   2.531   1.738
 9710TIP3    H229076   7.354   2.420   1.635
 9711TIP3   OH229077   2.465   2.906   2.727
 9711TIP3    H129078   2.459   3.001   2.739
 9711TIP3    H229079   2.466   2.871   2.816
 9712TIP3   OH229080   2.043   6.095   2.911
 9712TIP3    H129081   2.083   6.182   2.915
 9712TIP3    H229082   2.069   6.052   2.992
 9713TIP3   OH229083   6.026   6.535   0.211
 9713TIP3    H129084   5.936   6.514   0.189
 9713TIP3    H229085   6.038   6.625   0.181
 9714TIP3   OH229086   5.063   4.766   0.280
 9714TIP3    H129087   5.092   4.786   0.369
 9714TIP3    H229088   5.093   4.677   0.264
 9715TIP3   OH229089   8.314   3.361   4.408
 9715TIP3    H129090   8.304   3.434   4.347
 9715TIP3    H229091   8.257   3.293   4.374
 9716TIP3   OH229092   4.477   0.362   3.104
 9716TIP3    H129093   4.547   0.344   3.041
 9716TIP3    H229094   4.413   0.292   3.090
 9717TIP3   OH229095   7.040   6.784   5.757
 9717TIP3    H129096   6.967   6.735   5.796
 9717TIP3    H229097   7.000   6.864   5.723
 9718TIP3   OH229098   0.208   4.836   1.629
 9718TIP3    H129099   0.231   4.929   1.631
 9718TIP3    H229100   0.122   4.832   1.671
 9719TIP3   OH229101   7.740   0.702   0.060
 9719TIP3    H129102   7.697   0.626   0.099
 9719TIP3    H229103   7.686   0.722  -0.017
 9720TIP3   OH229104   5.821   5.358   0.665
 9720TIP3    H129105   5.811   5.447   0.697
 9720TIP3    H229106   5.735   5.318   0.678
 9721TIP3   OH229107   3.546   6.217   5.208
 9721TIP3    H129108   3.518   6.243   5.296
 9721TIP3    H229109   3.570   6.299   5.166
 9722TIP3   OH229110   4.816   6.730   1.832
 9722TIP3    H129111   4.784   6.642   1.810
 9722TIP3    H229112   4.902   6.735   1.791
 9723TIP3   OH229113   2.312   2.900   0.263
 9723TIP3    H129114   2.295   2.856   0.346
 9723TIP3    H229115   2.245   2.969   0.259
 9724TIP3   OH229116   2.206   2.515   1.155
 9724TIP3    H129117   2.264   2.520   1.079
 9724TIP3    H229118   2.129   2.468   1.124
 9725TIP3   OH229119   4.100   3.408   4.707
 9725TIP3    H129120   4.168   3.453   4.656
 9725TIP3    H229121   4.048   3.361   4.642
 9726TIP3   OH229122   6.761   6.183   4.303
 9726TIP3    H129123   6.798   6.188   4.215
 9726TIP3    H229124   6.836   6.196   4.362
 9727TIP3   OH229125   4.848   4.647   3.554
 9727TIP3    H129126   4.879   4.571   3.605
 9727TIP3    H229127   4.918   4.712   3.563
 9728TIP3   OH229128   2.726   6.688   4.708
 9728TIP3    H129129   2.732   6.599   4.675
 9728TIP3    H229130   2.719   6.678   4.803
 9729TIP3   OH229131   1.131   7.382   4.556
 9729TIP3    H129132   1.100   7.294   4.574
 9729TIP3    H229133   1.053   7.431   4.531
 9730TIP3   OH229134   5.859   2.721   4.703
 9730TIP3    H129135   5.811   2.692   4.781
 9730TIP3    H229136   5.950   2.728   4.731
 9731TIP3   OH229137   7.740   0.448   4.242
 9731TIP3    H129138   7.778   0.366   4.273
 9731TIP3    H229139   7.647   0.429   4.231
 9732TIP3   OH229140   2.270   4.803   2.068
 9732TIP3    H129141   2.296   4.737   2.132
 9732TIP3    H229142   2.254   4.753   1.988
 9733TIP3   OH229143   1.188   1.738   5.237
 9733TIP3    H129144   1.107   1.735   5.186
 9733TIP3    H229145   1.162   1.779   5.320
 9734TIP3   OH229146   3.064   6.182   3.256
 9734TIP3    H129147   3.086   6.095   3.290
 9734TIP3    H229148   2.969   6.181   3.247
 9735TIP3   OH229149   4.946   7.419   1.231
 9735TIP3    H129150   4.853   7.441   1.225
 9735TIP3    H229151   4.959   7.389   1.320
 9736TIP3   OH229152   7.684   1.637   4.412
 9736TIP3    H129153   7.684   1.677   4.499
 9736TIP3    H229154   7.763   1.670   4.371
 9737TIP3   OH229155   8.123   5.651   4.176
 9737TIP3    H129156   8.138   5.712   4.248
 9737TIP3    H229157   8.032   5.664   4.151
 9738TIP3   OH229158   6.557   7.479   2.634
 9738TIP3    H129159   6.476   7.427   2.639
 9738TIP3    H229160   6.532   7.556   2.583
 9739TIP3   OH229161   5.446   4.363   1.234
 9739TIP3    H129162   5.506   4.294   1.264
 9739TIP3    H229163   5.477   4.384   1.146
 9740TIP3   OH229164   7.631   5.440   3.530
 9740TIP3    H129165   7.707   5.382   3.530
 9740TIP3    H229166   7.592   5.428   3.443
 9741TIP3   OH229167   2.690   3.694   2.502
 9741TIP3    H129168   2.756   3.662   2.563
 9741TIP3    H229169   2.609   3.697   2.553
 9742TIP3   OH229170   6.735   2.784   0.585
 9742TIP3    H129171   6.692   2.783   0.671
 9742TIP3    H229172   6.773   2.696   0.577
 9743TIP3   OH229173   6.882   2.549   2.599
 9743TIP3    H129174   6.842   2.501   2.527
 9743TIP3    H229175   6.817   2.548   2.669
 9744TIP3   OH229176   1.678   6.205   2.863
 9744TIP3    H129177   1.754   6.178   2.811
 9744TIP3    H229178   1.638   6.276   2.812
 9745TIP3   OH229179   0.956   1.739   5.661
 9745TIP3    H129180   0.890   1.677   5.693
 9745TIP3    H229181   1.028   1.684   5.630
 9746TIP3   OH229182   4.753   6.143   1.842
 9746TIP3    H129183   4.748   6.124   1.749
 9746TIP3    H229184   4.841   6.116   1.867
 9747TIP3   OH229185   2.405   4.461   3.527
 9747TIP3    H129186   2.390   4.554   3.544
 9747TIP3    H229187   2.457   4.432   3.602
 9748TIP3   OH229188   1.428   0.759   4.299
 9748TIP3    H129189   1.469   0.829   4.249
 9748TIP3    H229190   1.449   0.779   4.390
 9749TIP3   OH229191   6.807   7.304   5.985
 9749TIP3    H129192   6.846   7.307   6.072
 9749TIP3    H229193   6.797   7.210   5.966
 9750TIP3   OH229194   3.183   7.830   3.745
 9750TIP3    H129195   3.132   7.749   3.737
 9750TIP3    H229196   3.144   7.889   3.681
 9751TIP3   OH229197   6.861   5.255   6.545
 9751TIP3    H129198   6.831   5.332   6.594
 9751TIP3    H229199   6.781   5.221   6.504
 9752TIP3   OH229200   6.035   2.894   4.266
 9752TIP3    H129201   5.967   2.955   4.240
 9752TIP3    H229202   6.106   2.908   4.203
 9753TIP3   OH229203   0.120   2.349   4.819
 9753TIP3    H129204   0.052   2.322   4.757
 9753TIP3    H229205   0.195   2.292   4.799
 9754TIP3   OH229206   0.657   3.897   1.620
 9754TIP3    H129207   0.572   3.936   1.640
 9754TIP3    H229208   0.685   3.859   1.704
 9755TIP3   OH229209   7.916   2.882   0.175
 9755TIP3    H129210   7.982   2.949   0.153
 9755TIP3    H229211   7.849   2.891   0.107
 9756TIP3   OH229212   0.229   2.744   4.274
 9756TIP3    H129213   0.261   2.787   4.354
 9756TIP3    H229214   0.302   2.751   4.213
 9757TIP3   OH229215   8.172   4.037   0.331
 9757TIP3    H129216   8.167   4.128   0.358
 9757TIP3    H229217   8.217   3.993   0.404
 9758TIP3   OH229218   5.136   0.687   5.650
 9758TIP3    H129219   5.197   0.661   5.582
 9758TIP3    H229220   5.111   0.777   5.627
 9759TIP3   OH229221   7.355   0.638   1.955
 9759TIP3    H129222   7.354   0.547   1.982
 9759TIP3    H229223   7.281   0.645   1.894
 9760TIP3   OH229224   2.352   5.788   1.782
 9760TIP3    H129225   2.414   5.721   1.751
 9760TIP3    H229226   2.397   5.871   1.766
 9761TIP3   OH229227   2.601   1.583   3.070
 9761TIP3    H129228   2.688   1.619   3.050
 9761TIP3    H229229   2.546   1.612   2.997
 9762TIP3   OH229230   3.711   1.015   4.406
 9762TIP3    H129231   3.691   0.975   4.491
 9762TIP3    H229232   3.628   1.051   4.376
 9763TIP3   OH229233   5.730   1.835   2.131
 9763TIP3    H129234   5.786   1.809   2.204
 9763TIP3    H229235   5.696   1.753   2.096
 9764TIP3   OH229236   5.324   0.725   0.958
 9764TIP3    H129237   5.298   0.816   0.970
 9764TIP3    H229238   5.414   0.721   0.989
 9765TIP3   OH229239  -0.026   2.494   6.076
 9765TIP3    H129240  -0.091   2.533   6.136
 9765TIP3    H229241   0.053   2.484   6.129
 9766TIP3   OH229242   0.876   3.605   3.636
 9766TIP3    H129243   0.827   3.637   3.560
 9766TIP3    H229244   0.861   3.511   3.636
 9767TIP3   OH229245   1.636   7.496   2.534
 9767TIP3    H129246   1.559   7.448   2.566
 9767TIP3    H229247   1.702   7.484   2.603
 9768TIP3   OH229248   0.126   4.503   2.705
 9768TIP3    H129249   0.189   4.575   2.694
 9768TIP3    H229250   0.177   4.432   2.741
 9769TIP3   OH229251   5.219   1.545   6.605
 9769TIP3    H129252   5.253   1.478   6.546
 9769TIP3    H229253   5.276   1.620   6.592
 9770TIP3   OH229254   5.534   1.121   2.218
 9770TIP3    H129255   5.483   1.193   2.253
 9770TIP3    H229256   5.573   1.155   2.137
 9771TIP3   OH229257   8.100   2.792   5.324
 9771TIP3    H129258   8.129   2.711   5.282
 9771TIP3    H229259   8.011   2.805   5.293
 9772TIP3   OH229260   5.237   3.250   3.398
 9772TIP3    H129261   5.281   3.183   3.451
 9772TIP3    H229262   5.306   3.285   3.342
 9773TIP3   OH229263   0.653   5.793   0.469
 9773TIP3    H129264   0.638   5.815   0.561
 9773TIP3    H229265   0.566   5.785   0.431
 9774TIP3   OH229266   3.422   1.956   3.090
 9774TIP3    H129267   3.431   1.867   3.123
 9774TIP3    H229268   3.473   2.009   3.151
 9775TIP3   OH229269   5.365   3.063   1.208
 9775TIP3    H129270   5.398   3.008   1.279
 9775TIP3    H229271   5.420   3.042   1.133
 9776TIP3   OH229272   3.425   5.893   2.906
 9776TIP3    H129273   3.407   5.971   2.854
 9776TIP3    H229274   3.519   5.895   2.922
 9777TIP3   OH229275   8.021   2.425   5.492
 9777TIP3    H129276   7.964   2.348   5.500
 9777TIP3    H229277   8.043   2.430   5.399
 9778TIP3   OH229278   5.876   7.408   6.196
 9778TIP3    H129279   5.869   7.334   6.257
 9778TIP3    H229280   5.789   7.417   6.158
 9779TIP3   OH229281   2.542   7.394   0.297
 9779TIP3    H129282   2.540   7.300   0.315
 9779TIP3    H229283   2.453   7.424   0.315
 9780TIP3   OH229284   6.314   4.574   5.396
 9780TIP3    H129285   6.230   4.607   5.363
 9780TIP3    H229286   6.292   4.526   5.476
 9781TIP3   OH229287   2.842   4.976   6.614
 9781TIP3    H129288   2.937   4.981   6.629
 9781TIP3    H229289   2.823   5.050   6.557
 9782TIP3   OH229290   7.043   5.210   0.649
 9782TIP3    H129291   7.003   5.151   0.714
 9782TIP3    H229292   7.022   5.297   0.681
 9783TIP3   OH229293   3.477   7.355   4.019
 9783TIP3    H129294   3.388   7.386   4.034
 9783TIP3    H229295   3.470   7.260   4.023
 9784TIP3   OH229296   1.457   7.264   3.250
 9784TIP3    H129297   1.470   7.174   3.219
 9784TIP3    H229298   1.496   7.318   3.181
 9785TIP3   OH229299   0.853   2.133   0.055
 9785TIP3    H129300   0.897   2.153   0.138
 9785TIP3    H229301   0.920   2.094   0.000
 9786TIP3   OH229302   0.036   6.758   3.647
 9786TIP3    H129303  -0.039   6.791   3.695
 9786TIP3    H229304   0.011   6.670   3.619
 9787TIP3   OH229305   6.350   0.279   3.921
 9787TIP3    H129306   6.310   0.290   4.007
 9787TIP3    H229307   6.276   0.280   3.860
 9788TIP3   OH229308   7.074   3.619   5.112
 9788TIP3    H129309   7.017   3.681   5.157
 9788TIP3    H229310   7.021   3.540   5.100
 9789TIP3   OH229311   4.111   5.740   4.338
 9789TIP3    H129312   4.059   5.697   4.406
 9789TIP3    H229313   4.145   5.819   4.380
 9790TIP3   OH229314   7.228   1.495   2.637
 9790TIP3    H129315   7.133   1.485   2.630
 9790TIP3    H229316   7.263   1.411   2.610
 9791TIP3   OH229317   6.970   0.648   6.273
 9791TIP3    H129318   6.882   0.611   6.286
 9791TIP3    H229319   7.027   0.593   6.327
 9792TIP3   OH229320   4.500   7.391   0.588
 9792TIP3    H129321   4.538   7.308   0.615
 9792TIP3    H229322   4.411   7.369   0.561
 9793TIP3   OH229323   7.376   3.409   1.632
 9793TIP3    H129324   7.365   3.499   1.603
 9793TIP3    H229325   7.425   3.366   1.562
 9794TIP3   OH229326   3.052   0.697   6.327
 9794TIP3    H129327   3.103   0.644   6.265
 9794TIP3    H229328   3.016   0.634   6.389
 9795TIP3   OH229329   0.964   7.654   3.139
 9795TIP3    H129330   0.977   7.700   3.056
 9795TIP3    H229331   0.872   7.627   3.138
 9796TIP3   OH229332   7.475   6.520   0.221
 9796TIP3    H129333   7.503   6.447   0.277
 9796TIP3    H229334   7.455   6.590   0.282
 9797TIP3   OH229335   6.362   6.598   4.448
 9797TIP3    H129336   6.376   6.647   4.367
 9797TIP3    H229337   6.450   6.575   4.478
 9798TIP3   OH229338   2.379   2.519   2.106
 9798TIP3    H129339   2.463   2.506   2.150
 9798TIP3    H229340   2.368   2.614   2.104
 9799TIP3   OH229341   1.787   6.905   2.759
 9799TIP3    H129342   1.729   6.838   2.724
 9799TIP3    H229343   1.777   6.979   2.698
 9800TIP3   OH229344   2.424   4.786   2.498
 9800TIP3    H129345   2.519   4.796   2.506
 9800TIP3    H229346   2.397   4.752   2.583
 9801TIP3   OH229347   7.339   3.922   2.830
 9801TIP3    H129348   7.376   3.993   2.778
 9801TIP3    H229349   7.354   3.844   2.777
 9802TIP3   OH229350   7.759   5.473   5.584
 9802TIP3    H129351   7.741   5.551   5.636
 9802TIP3    H229352   7.778   5.405   5.649
 9803TIP3   OH229353   1.879   2.452   0.398
 9803TIP3    H129354   1.842   2.372   0.360
 9803TIP3    H229355   1.965   2.461   0.357
 9804TIP3   OH229356   3.669   3.513   3.046
 9804TIP3    H129357   3.716   3.593   3.022
 9804TIP3    H229358   3.607   3.499   2.974
 9805TIP3   OH229359   6.308   1.962   4.464
 9805TIP3    H129360   6.281   2.051   4.488
 9805TIP3    H229361   6.395   1.973   4.427
 9806TIP3   OH229362   3.143   7.525   4.738
 9806TIP3    H129363   3.169   7.490   4.653
 9806TIP3    H229364   3.089   7.602   4.716
 9807TIP3   OH229365   4.232   4.183   3.227
 9807TIP3    H129366   4.321   4.198   3.259
 9807TIP3    H229367   4.176   4.199   3.303
 9808TIP3   OH229368   5.907   2.614   3.634
 9808TIP3    H129369   5.990   2.629   3.680
 9808TIP3    H229370   5.929   2.553   3.564
 9809TIP3   OH229371   0.937   5.886   0.470
 9809TIP3    H129372   0.912   5.961   0.524
 9809TIP3    H229373   0.857   5.834   0.463
 9810TIP3   OH229374   1.774   2.256   5.759
 9810TIP3    H129375   1.834   2.315   5.714
 9810TIP3    H229376   1.826   2.179   5.779
 9811TIP3   OH229377   2.298   5.253   5.985
 9811TIP3    H129378   2.267   5.304   6.059
 9811TIP3    H229379   2.294   5.162   6.015
 9812TIP3   OH229380   7.011   2.313   0.928
 9812TIP3    H129381   6.989   2.398   0.965
 9812TIP3    H229382   7.107   2.310   0.931
 9813TIP3   OH229383   4.994   7.485   0.046
 9813TIP3    H129384   5.066   7.466   0.106
 9813TIP3    H229385   5.035   7.536  -0.025
 9814TIP3   OH229386   5.421   2.928   5.347
 9814TIP3    H129387   5.371   2.947   5.268
 9814TIP3    H229388   5.483   2.860   5.320
 9815TIP3   OH229389   4.525   6.230   5.038
 9815TIP3    H129390   4.454   6.236   5.102
 9815TIP3    H229391   4.568   6.147   5.058
 9816TIP3   OH229392   4.646   3.041   5.167
 9816TIP3    H129393   4.678   3.086   5.245
 9816TIP3    H229394   4.562   3.083   5.147
 9817TIP3   OH229395   4.488   6.474   4.171
 9817TIP3    H129396   4.476   6.568   4.161
 9817TIP3    H229397   4.539   6.464   4.252
 9818TIP3   OH229398   6.206   2.941   4.492
 9818TIP3    H129399   6.155   2.923   4.571
 9818TIP3    H229400   6.141   2.942   4.422
 9819TIP3   OH229401   0.615   3.969   3.644
 9819TIP3    H129402   0.586   3.879   3.630
 9819TIP3    H229403   0.708   3.968   3.625
 9820TIP3   OH229404   4.641   2.573   1.318
 9820TIP3    H129405   4.725   2.610   1.288
 9820TIP3    H229406   4.590   2.649   1.346
 9821TIP3   OH229407   0.539   4.183   3.219
 9821TIP3    H129408   0.606   4.211   3.280
 9821TIP3    H229409   0.585   4.175   3.135
 9822TIP3   OH229410   2.624   2.636   4.908
 9822TIP3    H129411   2.641   2.566   4.972
 9822TIP3    H229412   2.653   2.716   4.952
 9823TIP3   OH229413   7.171   5.194   5.751
 9823TIP3    H129414   7.192   5.205   5.658
 9823TIP3    H229415   7.202   5.106   5.772
 9824TIP3   OH229416   1.694   3.649   0.436
 9824TIP3    H129417   1.711   3.556   0.455
 9824TIP3    H229418   1.600   3.659   0.447
 9825TIP3   OH229419   1.060   1.934   3.740
 9825TIP3    H129420   1.063   1.910   3.647
 9825TIP3    H229421   1.008   1.865   3.781
 9826TIP3   OH229422   2.076   0.042   0.777
 9826TIP3    H129423   2.069  -0.019   0.703
 9826TIP3    H229424   2.170   0.062   0.782
 9827TIP3   OH229425   2.593   4.702   5.488
 9827TIP3    H129426   2.577   4.727   5.579
 9827TIP3    H229427   2.593   4.785   5.440
 9828TIP3   OH229428   4.485   5.619   0.750
 9828TIP3    H129429   4.400   5.657   0.727
 9828TIP3    H229430   4.509   5.661   0.832
 9829TIP3   OH229431   3.195   0.642   0.938
 9829TIP3    H129432   3.214   0.656   0.845
 9829TIP3    H229433   3.207   0.548   0.951
 9830TIP3   OH229434   6.757   3.361   1.945
 9830TIP3    H129435   6.830   3.317   1.988
 9830TIP3    H229436   6.717   3.414   2.014
 9831TIP3   OH229437   5.681   5.040   1.285
 9831TIP3    H129438   5.775   5.054   1.289
 9831TIP3    H229439   5.650   5.060   1.374
 9832TIP3   OH229440   6.546   6.472   3.168
 9832TIP3    H129441   6.468   6.435   3.128
 9832TIP3    H229442   6.603   6.397   3.185
 9833TIP3   OH229443   0.540   6.774   1.830
 9833TIP3    H129444   0.579   6.852   1.869
 9833TIP3    H229445   0.600   6.750   1.759
 9834TIP3   OH229446   4.358   7.593   3.273
 9834TIP3    H129447   4.327   7.510   3.236
 9834TIP3    H229448   4.279   7.647   3.281
 9835TIP3   OH229449   4.776   1.066   1.899
 9835TIP3    H129450   4.715   1.082   1.827
 9835TIP3    H229451   4.757   0.977   1.927
 9836TIP3   OH229452   1.518   5.693   0.258
 9836TIP3    H129453   1.457   5.638   0.308
 9836TIP3    H229454   1.600   5.644   0.259
 9837TIP3   OH229455   3.019   6.576   5.361
 9837TIP3    H129456   3.051   6.564   5.272
 9837TIP3    H229457   2.988   6.490   5.388
 9838TIP3   OH229458   3.088   3.838   6.396
 9838TIP3    H129459   3.044   3.765   6.354
 9838TIP3    H229460   3.136   3.882   6.326
 9839TIP3   OH229461   0.564   6.424   1.765
 9839TIP3    H129462   0.498   6.419   1.696
 9839TIP3    H229463   0.646   6.404   1.721
 9840TIP3   OH229464   4.361   2.056   6.050
 9840TIP3    H129465   4.432   2.090   6.105
 9840TIP3    H229466   4.384   2.083   5.961
 9841TIP3   OH229467   2.657   3.307   0.040
 9841TIP3    H129468   2.589   3.253   0.079
 9841TIP3    H229469   2.719   3.323   0.112
 9842TIP3   OH229470   3.799   2.933   6.353
 9842TIP3    H129471   3.823   3.002   6.291
 9842TIP3    H229472   3.703   2.931   6.350
 9843TIP3   OH229473   0.649   4.718   1.209
 9843TIP3    H129474   0.575   4.662   1.185
 9843TIP3    H229475   0.720   4.657   1.228
 9844TIP3   OH229476   0.616   1.878   0.486
 9844TIP3    H129477   0.690   1.818   0.500
 9844TIP3    H229478   0.622   1.941   0.557
 9845TIP3   OH229479   6.524   7.034   6.260
 9845TIP3    H129480   6.556   7.114   6.302
 9845TIP3    H229481   6.429   7.042   6.263
 9846TIP3   OH229482   2.270   2.803   4.900
 9846TIP3    H129483   2.325   2.856   4.843
 9846TIP3    H229484   2.229   2.739   4.842
 9847TIP3   OH229485   3.992   2.154   4.481
 9847TIP3    H129486   4.035   2.111   4.555
 9847TIP3    H229487   3.918   2.097   4.459
 9848TIP3   OH229488   3.032   7.159   4.753
 9848TIP3    H129489   2.944   7.130   4.776
 9848TIP3    H229490   3.051   7.228   4.817
 9849TIP3   OH229491   5.139   7.362   5.074
 9849TIP3    H129492   5.051   7.377   5.109
 9849TIP3    H229493   5.125   7.321   4.989
 9850TIP3   OH229494   4.675   6.976   6.323
 9850TIP3    H129495   4.743   6.920   6.361
 9850TIP3    H229496   4.668   7.049   6.384
 9851TIP3   OH229497   6.537   3.693   6.070
 9851TIP3    H129498   6.444   3.681   6.090
 9851TIP3    H229499   6.544   3.672   5.977
 9852TIP3   OH229500   4.360   4.480   0.235
 9852TIP3    H129501   4.271   4.447   0.229
 9852TIP3    H229502   4.352   4.574   0.223
 9853TIP3   OH229503   2.867   2.860   0.154
 9853TIP3    H129504   2.840   2.936   0.102
 9853TIP3    H229505   2.785   2.820   0.182
 9854TIP3   OH229506   3.918   4.262   0.328
 9854TIP3    H129507   3.937   4.272   0.421
 9854TIP3    H229508   3.822   4.258   0.324
 9855TIP3   OH229509   5.129   1.907   4.376
 9855TIP3    H129510   5.133   1.894   4.471
 9855TIP3    H229511   5.063   1.976   4.364
 9856TIP3   OH229512   3.522   4.253   6.233
 9856TIP3    H129513   3.456   4.215   6.175
 9856TIP3    H229514   3.550   4.333   6.190
 9857TIP3   OH229515   7.767   4.306   3.638
 9857TIP3    H129516   7.749   4.286   3.546
 9857TIP3    H229517   7.838   4.372   3.634
 9858TIP3   OH229518   0.936   2.787   0.870
 9858TIP3    H129519   0.942   2.738   0.788
 9858TIP3    H229520   0.842   2.788   0.890
 9859TIP3   OH229521   2.002   4.820   1.849
 9859TIP3    H129522   2.031   4.749   1.791
 9859TIP3    H229523   1.940   4.870   1.796
 9860TIP3   OH229524   3.768   6.165   3.672
 9860TIP3    H129525   3.848   6.213   3.696
 9860TIP3    H229526   3.755   6.185   3.579
 9861TIP3   OH229527   5.347   5.363   2.026
 9861TIP3    H129528   5.352   5.351   2.121
 9861TIP3    H229529   5.268   5.316   1.999
 9862TIP3   OH229530   4.711   0.534   0.822
 9862TIP3    H129531   4.740   0.558   0.910
 9862TIP3    H229532   4.621   0.503   0.834
 9863TIP3   OH229533   1.297   1.520   1.761
 9863TIP3    H129534   1.373   1.517   1.819
 9863TIP3    H229535   1.330   1.554   1.678
 9864TIP3   OH229536   3.419   4.508   0.677
 9864TIP3    H129537   3.471   4.433   0.703
 9864TIP3    H229538   3.384   4.484   0.591
 9865TIP3   OH229539   2.390   6.723   5.390
 9865TIP3    H129540   2.482   6.705   5.407
 9865TIP3    H229541   2.381   6.817   5.407
 9866TIP3   OH229542   4.717   4.975   3.656
 9866TIP3    H129543   4.721   4.974   3.752
 9866TIP3    H229544   4.806   4.954   3.628
 9867TIP3   OH229545   4.689   3.997   0.621
 9867TIP3    H129546   4.661   3.923   0.568
 9867TIP3    H229547   4.784   3.999   0.613
 9868TIP3   OH229548   5.628   7.528   2.460
 9868TIP3    H129549   5.713   7.570   2.444
 9868TIP3    H229550   5.620   7.528   2.555
 9869TIP3   OH229551   1.245   2.383   2.820
 9869TIP3    H129552   1.163   2.393   2.772
 9869TIP3    H229553   1.253   2.463   2.872
 9870TIP3   OH229554   8.035   7.276   1.552
 9870TIP3    H129555   7.947   7.254   1.584
 9870TIP3    H229556   8.093   7.254   1.624
 9871TIP3   OH229557   3.027   1.744   4.887
 9871TIP3    H129558   3.058   1.772   4.973
 9871TIP3    H229559   2.950   1.798   4.870
 9872TIP3   OH229560   7.241   1.179   0.495
 9872TIP3    H129561   7.152   1.215   0.500
 9872TIP3    H229562   7.264   1.187   0.402
 9873TIP3   OH229563   2.485   7.221   2.365
 9873TIP3    H129564   2.570   7.239   2.406
 9873TIP3    H229565   2.431   7.187   2.436
 9874TIP3   OH229566   2.668   0.696   1.520
 9874TIP3    H129567   2.653   0.697   1.425
 9874TIP3    H229568   2.589   0.656   1.556
 9875TIP3   OH229569   4.322   3.846   0.820
 9875TIP3    H129570   4.280   3.924   0.857
 9875TIP3    H229571   4.303   3.776   0.882
 9876TIP3   OH229572   2.773   3.801   2.263
 9876TIP3    H129573   2.735   3.769   2.345
 9876TIP3    H229574   2.868   3.794   2.277
 9877TIP3   OH229575   8.007   3.270   3.340
 9877TIP3    H129576   8.099   3.247   3.352
 9877TIP3    H229577   7.965   3.187   3.316
 9878TIP3   OH229578   0.939   4.839   6.397
 9878TIP3    H129579   0.955   4.930   6.421
 9878TIP3    H229580   0.906   4.843   6.307
 9879TIP3   OH229581   2.301   1.578   5.763
 9879TIP3    H129582   2.344   1.500   5.728
 9879TIP3    H229583   2.321   1.577   5.856
 9880TIP3   OH229584   3.048   2.917   5.500
 9880TIP3    H129585   3.067   2.840   5.554
 9880TIP3    H229586   2.994   2.884   5.429
 9881TIP3   OH229587   4.291   5.264   4.495
 9881TIP3    H129588   4.315   5.321   4.568
 9881TIP3    H229589   4.343   5.184   4.510
 9882TIP3   OH229590   6.748   4.042   4.367
 9882TIP3    H129591   6.842   4.048   4.381
 9882TIP3    H229592   6.729   3.948   4.370
 9883TIP3   OH229593   7.210   5.693   1.199
 9883TIP3    H129594   7.202   5.675   1.293
 9883TIP3    H229595   7.141   5.757   1.181
 9884TIP3   OH229596   7.955   2.107   0.714
 9884TIP3    H129597   7.917   2.086   0.629
 9884TIP3    H229598   8.047   2.126   0.696
 9885TIP3   OH229599   1.354   3.642   0.889
 9885TIP3    H129600   1.407   3.686   0.956
 9885TIP3    H229601   1.402   3.561   0.871
 9886TIP3   OH229602   3.559   4.541   3.593
 9886TIP3    H129603   3.525   4.508   3.676
 9886TIP3    H229604   3.514   4.489   3.527
 9887TIP3   OH229605   0.604   1.677   4.899
 9887TIP3    H129606   0.700   1.670   4.902
 9887TIP3    H229607   0.573   1.587   4.891
 9888TIP3   OH229608   1.947   1.872   6.617
 9888TIP3    H129609   1.939   1.964   6.643
 9888TIP3    H229610   1.957   1.875   6.522
 9889TIP3   OH229611   1.071   4.550   4.015
 9889TIP3    H129612   1.035   4.503   4.090
 9889TIP3    H229613   0.997   4.600   3.980
 9890TIP3   OH229614   3.557   6.106   1.802
 9890TIP3    H129615   3.570   6.032   1.744
 9890TIP3    H229616   3.474   6.144   1.773
 9891TIP3   OH229617   6.555   2.801   1.315
 9891TIP3    H129618   6.633   2.764   1.276
 9891TIP3    H229619   6.524   2.865   1.250
 9892TIP3   OH229620   5.115   2.417   4.585
 9892TIP3    H129621   5.204   2.413   4.550
 9892TIP3    H229622   5.088   2.325   4.588
 9893TIP3   OH229623   5.663   5.392   1.329
 9893TIP3    H129624   5.746   5.349   1.311
 9893TIP3    H229625   5.609   5.324   1.370
 9894TIP3   OH229626   1.222   3.309   5.916
 9894TIP3    H129627   1.249   3.218   5.907
 9894TIP3    H229628   1.165   3.309   5.993
 9895TIP3   OH229629   3.004   0.657   3.285
 9895TIP3    H129630   3.028   0.622   3.371
 9895TIP3    H229631   3.086   0.660   3.237
 9896TIP3   OH229632   6.994   0.366   3.135
 9896TIP3    H129633   6.932   0.354   3.063
 9896TIP3    H229634   7.027   0.455   3.123
 9897TIP3   OH229635   1.031   4.174   4.670
 9897TIP3    H129636   1.114   4.180   4.623
 9897TIP3    H229637   0.976   4.117   4.615
 9898TIP3   OH229638   8.203   2.215   5.476
 9898TIP3    H129639   8.149   2.172   5.409
 9898TIP3    H229640   8.143   2.276   5.518
 9899TIP3   OH229641   6.354   3.295   0.011
 9899TIP3    H129642   6.311   3.264   0.091
 9899TIP3    H229643   6.353   3.219  -0.048
 9900TIP3   OH229644   1.733   5.357   6.352
 9900TIP3    H129645   1.793   5.306   6.298
 9900TIP3    H229646   1.660   5.298   6.370
 9901TIP3   OH229647   6.803   6.712   2.844
 9901TIP3    H129648   6.808   6.795   2.796
 9901TIP3    H229649   6.728   6.724   2.903
 9902TIP3   OH229650   6.015   5.600   4.297
 9902TIP3    H129651   5.935   5.564   4.260
 9902TIP3    H229652   6.003   5.593   4.392
 9903TIP3   OH229653   7.186   0.683   5.586
 9903TIP3    H129654   7.219   0.768   5.617
 9903TIP3    H229655   7.225   0.672   5.500
 9904TIP3   OH229656   1.209   1.749   1.895
 9904TIP3    H129657   1.236   1.666   1.857
 9904TIP3    H229658   1.173   1.799   1.822
 9905TIP3   OH229659   7.736   5.535   4.869
 9905TIP3    H129660   7.820   5.493   4.888
 9905TIP3    H229661   7.671   5.465   4.883
 9906TIP3   OH229662   8.074   7.102   4.667
 9906TIP3    H129663   8.090   7.166   4.736
 9906TIP3    H229664   8.012   7.040   4.705
 9907TIP3   OH229665   7.532   5.267   3.857
 9907TIP3    H129666   7.599   5.200   3.847
 9907TIP3    H229667   7.451   5.217   3.874
 9908TIP3   OH229668   4.706   5.828   5.608
 9908TIP3    H129669   4.615   5.797   5.608
 9908TIP3    H229670   4.759   5.748   5.601
 9909TIP3   OH229671   0.710   0.707   0.911
 9909TIP3    H129672   0.615   0.700   0.926
 9909TIP3    H229673   0.732   0.795   0.939
 9910TIP3   OH229674   3.420   5.892   2.392
 9910TIP3    H129675   3.416   5.982   2.359
 9910TIP3    H229676   3.363   5.892   2.469
 9911TIP3   OH229677   0.549   0.403   5.729
 9911TIP3    H129678   0.640   0.375   5.727
 9911TIP3    H229679   0.538   0.454   5.649
 9912TIP3   OH229680   3.790   4.124   3.711
 9912TIP3    H129681   3.868   4.130   3.766
 9912TIP3    H229682   3.780   4.211   3.674
 9913TIP3   OH229683   7.678   1.860   1.713
 9913TIP3    H129684   7.700   1.901   1.797
 9913TIP3    H229685   7.597   1.902   1.685
 9914TIP3   OH229686   5.960   7.825   4.950
 9914TIP3    H129687   5.975   7.759   4.882
 9914TIP3    H229688   5.938   7.775   5.028
 9915TIP3   OH229689   5.319   1.465   1.056
 9915TIP3    H129690   5.349   1.556   1.055
 9915TIP3    H229691   5.400   1.414   1.065
 9916TIP3   OH229692   3.604   0.976   2.022
 9916TIP3    H129693   3.520   1.020   2.035
 9916TIP3    H229694   3.669   1.047   2.023
 9917TIP3   OH229695   4.447   1.290   1.901
 9917TIP3    H129696   4.436   1.300   1.806
 9917TIP3    H229697   4.488   1.205   1.912
 9918TIP3   OH229698   7.729   4.957   0.718
 9918TIP3    H129699   7.815   4.951   0.677
 9918TIP3    H229700   7.667   4.946   0.646
 9919TIP3   OH229701   2.406   2.475   5.756
 9919TIP3    H129702   2.486   2.526   5.750
 9919TIP3    H229703   2.419   2.420   5.834
 9920TIP3   OH229704   1.129   1.064   4.400
 9920TIP3    H129705   1.087   0.979   4.388
 9920TIP3    H229706   1.189   1.050   4.474
 9921TIP3   OH229707   3.904   7.594   0.062
 9921TIP3    H129708   3.974   7.590   0.127
 9921TIP3    H229709   3.869   7.505   0.058
 9922TIP3   OH229710   0.809   5.490   2.328
 9922TIP3    H129711   0.750   5.425   2.365
 9922TIP3    H229712   0.880   5.497   2.392
 9923TIP3   OH229713   5.715   7.023   5.595
 9923TIP3    H129714   5.715   7.113   5.626
 9923TIP3    H229715   5.806   7.005   5.572
 9924TIP3   OH229716   7.379   7.457   0.348
 9924TIP3    H129717   7.316   7.441   0.418
 9924TIP3    H229718   7.374   7.551   0.333
 9925TIP3   OH229719   1.094   1.968   6.097
 9925TIP3    H129720   1.093   1.978   6.192
 9925TIP3    H229721   1.182   1.939   6.077
 9926TIP3   OH229722   2.226   0.372   4.725
 9926TIP3    H129723   2.189   0.435   4.787
 9926TIP3    H229724   2.222   0.417   4.640
 9927TIP3   OH229725   5.716   7.406   1.255
 9927TIP3    H129726   5.783   7.466   1.222
 9927TIP3    H229727   5.726   7.407   1.350
 9928TIP3   OH229728   4.041   4.692   3.969
 9928TIP3    H129729   3.975   4.742   4.017
 9928TIP3    H229730   4.120   4.700   4.022
 9929TIP3   OH229731   4.660   2.453   4.393
 9929TIP3    H129732   4.598   2.471   4.322
 9929TIP3    H229733   4.697   2.367   4.371
 9930TIP3   OH229734   7.765   4.424   3.916
 9930TIP3    H129735   7.684   4.466   3.944
 9930TIP3    H229736   7.766   4.433   3.821
 9931TIP3   OH229737   7.956   5.864   4.937
 9931TIP3    H129738   8.006   5.783   4.933
 9931TIP3    H229739   7.924   5.868   5.027
 9932TIP3   OH229740   4.022   6.769   1.904
 9932TIP3    H129741   4.030   6.862   1.924
 9932TIP3    H229742   4.103   6.747   1.858
 9933TIP3   OH229743   1.620   6.057   6.623
 9933TIP3    H129744   1.666   6.035   6.542
 9933TIP3    H229745   1.533   6.086   6.594
 9934TIP3   OH229746   3.224   0.424   6.495
 9934TIP3    H129747   3.284   0.491   6.464
 9934TIP3    H229748   3.280   0.353   6.524
 9935TIP3   OH229749   5.720   2.313   6.185
 9935TIP3    H129750   5.640   2.348   6.146
 9935TIP3    H229751   5.787   2.323   6.117
 9936TIP3   OH229752   2.489   0.955   4.308
 9936TIP3    H129753   2.507   0.954   4.402
 9936TIP3    H229754   2.514   1.042   4.280
 9937TIP3   OH229755   1.406   7.538   4.138
 9937TIP3    H129756   1.494   7.522   4.106
 9937TIP3    H229757   1.355   7.463   4.108
 9938TIP3   OH229758   3.428   1.144   1.911
 9938TIP3    H129759   3.491   1.215   1.898
 9938TIP3    H229760   3.374   1.146   1.832
 9939TIP3   OH229761   8.264   5.940   3.202
 9939TIP3    H129762   8.338   5.879   3.207
 9939TIP3    H229763   8.196   5.899   3.256
 9940TIP3   OH229764   4.929   0.856   3.685
 9940TIP3    H129765   4.995   0.914   3.722
 9940TIP3    H229766   4.934   0.870   3.590
 9941TIP3   OH229767   0.212   5.760   0.929
 9941TIP3    H129768   0.225   5.768   0.834
 9941TIP3    H229769   0.126   5.720   0.938
 9942TIP3   OH229770   6.873   7.504   2.695
 9942TIP3    H129771   6.790   7.475   2.657
 9942TIP3    H229772   6.933   7.429   2.683
 9943TIP3   OH229773   7.924   6.552   2.788
 9943TIP3    H129774   7.846   6.524   2.835
 9943TIP3    H229775   7.922   6.647   2.791
 9944TIP3   OH229776   1.952   1.372   6.641
 9944TIP3    H129777   1.947   1.296   6.583
 9944TIP3    H229778   1.934   1.447   6.584
 9945TIP3   OH229779   1.840   1.936   4.041
 9945TIP3    H129780   1.819   2.015   3.993
 9945TIP3    H229781   1.930   1.916   4.016
 9946TIP3   OH229782   5.120   1.839   2.541
 9946TIP3    H129783   5.178   1.900   2.586
 9946TIP3    H229784   5.081   1.786   2.611
 9947TIP3   OH229785   7.457   1.601   0.161
 9947TIP3    H129786   7.509   1.681   0.156
 9947TIP3    H229787   7.521   1.530   0.163
 9948TIP3   OH229788   2.789   7.075   6.579
 9948TIP3    H129789   2.768   7.033   6.496
 9948TIP3    H229790   2.803   7.167   6.557
 9949TIP3   OH229791   7.638   4.941   4.318
 9949TIP3    H129792   7.730   4.957   4.337
 9949TIP3    H229793   7.594   4.951   4.402
 9950TIP3   OH229794   8.068   4.879   2.637
 9950TIP3    H129795   8.163   4.870   2.626
 9950TIP3    H229796   8.053   4.974   2.640
 9951TIP3   OH229797   0.270   2.647   6.484
 9951TIP3    H129798   0.178   2.671   6.485
 9951TIP3    H229799   0.294   2.638   6.577
 9952TIP3   OH229800   3.577   2.894   4.144
 9952TIP3    H129801   3.576   2.955   4.070
 9952TIP3    H229802   3.642   2.829   4.120
 9953TIP3   OH229803   1.678   3.428   1.786
 9953TIP3    H129804   1.698   3.373   1.710
 9953TIP3    H229805   1.597   3.391   1.821
 9954TIP3   OH229806   6.611   3.232   0.490
 9954TIP3    H129807   6.682   3.170   0.508
 9954TIP3    H229808   6.633   3.310   0.542
 9955TIP3   OH229809   7.057   6.160   1.192
 9955TIP3    H129810   7.028   6.169   1.283
 9955TIP3    H229811   7.013   6.230   1.145
 9956TIP3   OH229812   7.497   3.470   4.561
 9956TIP3    H129813   7.417   3.439   4.518
 9956TIP3    H229814   7.487   3.566   4.564
 9957TIP3   OH229815   0.690   7.166   5.720
 9957TIP3    H129816   0.673   7.242   5.775
 9957TIP3    H229817   0.622   7.103   5.745
 9958TIP3   OH229818   7.638   2.185   6.050
 9958TIP3    H129819   7.619   2.108   6.103
 9958TIP3    H229820   7.647   2.256   6.113
 9959TIP3   OH229821   1.443   1.782   5.214
 9959TIP3    H129822   1.460   1.876   5.217
 9959TIP3    H229823   1.348   1.775   5.222
 9960TIP3   OH229824   4.329   4.068   4.296
 9960TIP3    H129825   4.384   3.991   4.281
 9960TIP3    H229826   4.252   4.055   4.240
 9961TIP3   OH229827   0.428   0.039   6.098
 9961TIP3    H129828   0.431   0.101   6.171
 9961TIP3    H229829   0.335   0.020   6.087
 9962TIP3   OH229830   7.409   1.980   1.710
 9962TIP3    H129831   7.421   2.030   1.629
 9962TIP3    H229832   7.396   2.046   1.778
 9963TIP3   OH229833   2.394   3.699   6.626
 9963TIP3    H129834   2.360   3.757   6.556
 9963TIP3    H229835   2.412   3.617   6.581
 9964TIP3   OH229836   4.841   1.689   1.819
 9964TIP3    H129837   4.894   1.703   1.898
 9964TIP3    H229838   4.756   1.659   1.852
 9965TIP3   OH229839   7.002   0.902   3.092
 9965TIP3    H129840   6.952   0.892   3.010
 9965TIP3    H229841   6.996   0.995   3.113
 9966TIP3   OH229842   7.236   4.449   1.394
 9966TIP3    H129843   7.300   4.510   1.359
 9966TIP3    H229844   7.157   4.502   1.405
 9967TIP3   OH229845   6.623   4.682   6.423
 9967TIP3    H129846   6.638   4.589   6.405
 9967TIP3    H229847   6.606   4.686   6.517
 9968TIP3   OH229848   7.833   7.578   3.050
 9968TIP3    H129849   7.913   7.603   3.002
 9968TIP3    H229850   7.859   7.500   3.099
 9969TIP3   OH229851   7.251   0.413   4.028
 9969TIP3    H129852   7.212   0.467   3.959
 9969TIP3    H229853   7.208   0.328   4.019
 9970TIP3   OH229854   1.728   0.620   4.063
 9970TIP3    H129855   1.806   0.566   4.049
 9970TIP3    H229856   1.668   0.565   4.113
 9971TIP3   OH229857   3.567   1.547   3.550
 9971TIP3    H129858   3.528   1.628   3.517
 9971TIP3    H229859   3.661   1.563   3.546
 9972TIP3   OH229860   0.180   3.730   0.887
 9972TIP3    H129861   0.168   3.816   0.928
 9972TIP3    H229862   0.162   3.667   0.957
 9973TIP3   OH229863   0.406   2.436   2.320
 9973TIP3    H129864   0.343   2.365   2.327
 9973TIP3    H229865   0.352   2.516   2.317
 9974TIP3   OH229866   0.430   0.567   4.388
 9974TIP3    H129867   0.442   0.652   4.346
 9974TIP3    H229868   0.413   0.507   4.316
 9975TIP3   OH229869   7.757   7.589   5.488
 9975TIP3    H129870   7.793   7.636   5.413
 9975TIP3    H229871   7.688   7.645   5.521
 9976TIP3   OH229872   0.920   5.343   3.529
 9976TIP3    H129873   0.826   5.338   3.512
 9976TIP3    H229874   0.950   5.418   3.478
 9977TIP3   OH229875   2.313   3.611   2.880
 9977TIP3    H129876   2.342   3.691   2.924
 9977TIP3    H229877   2.246   3.639   2.819
 9978TIP3   OH229878   6.120   0.144   6.309
 9978TIP3    H129879   6.143   0.235   6.328
 9978TIP3    H229880   6.041   0.150   6.256
 9979TIP3   OH229881   0.972   5.120   3.273
 9979TIP3    H129882   1.016   5.041   3.305
 9979TIP3    H229883   0.993   5.187   3.338
 9980TIP3   OH229884   0.328   5.906   4.307
 9980TIP3    H129885   0.393   5.847   4.267
 9980TIP3    H229886   0.253   5.850   4.324
 9981TIP3   OH229887   2.604   1.064   5.508
 9981TIP3    H129888   2.566   1.043   5.423
 9981TIP3    H229889   2.536   1.041   5.572
 9982TIP3   OH229890   3.370   3.354   2.233
 9982TIP3    H129891   3.436   3.422   2.250
 9982TIP3    H229892   3.313   3.358   2.310
 9983TIP3   OH229893   6.794   3.072   4.207
 9983TIP3    H129894   6.700   3.058   4.217
 9983TIP3    H229895   6.802   3.134   4.135
 9984TIP3   OH229896   1.247   6.401   4.252
 9984TIP3    H129897   1.331   6.357   4.271
 9984TIP3    H229898   1.198   6.338   4.200
 9985TIP3   OH229899   1.488   6.839   0.359
 9985TIP3    H129900   1.408   6.826   0.307
 9985TIP3    H229901   1.510   6.931   0.345
 9986TIP3   OH229902   6.247   6.817   0.232
 9986TIP3    H129903   6.162   6.843   0.265
 9986TIP3    H229904   6.295   6.787   0.309
 9987TIP3   OH229905   2.733   3.610   0.795
 9987TIP3    H129906   2.654   3.646   0.835
 9987TIP3    H229907   2.799   3.613   0.864
 9988TIP3   OH229908   7.629   0.025   6.735
 9988TIP3    H129909   7.557  -0.025   6.696
 9988TIP3    H229910   7.707  -0.026   6.714
 9989TIP3   OH229911   5.272   2.055   2.655
 9989TIP3    H129912   5.284   2.045   2.750
 9989TIP3    H229913   5.284   2.149   2.639
 9990TIP3   OH229914   2.041   6.786   2.057
 9990TIP3    H129915   2.108   6.719   2.067
 9990TIP3    H229916   2.002   6.768   1.971
 9991TIP3   OH229917   7.268   6.902   0.877
 9991TIP3    H129918   7.292   6.810   0.867
 9991TIP3    H229919   7.329   6.937   0.941
 9992TIP3   OH229920   3.481   6.762   5.498
 9992TIP3    H129921   3.455   6.697   5.563
 9992TIP3    H229922   3.424   6.745   5.423
 9993TIP3   OH229923   0.959   7.008   0.332
 9993TIP3    H129924   0.943   6.966   0.416
 9993TIP3    H229925   0.985   7.098   0.355
 9994TIP3   OH229926   6.026   3.306   3.373
 9994TIP3    H129927   6.118   3.309   3.347
 9994TIP3    H229928   6.026   3.334   3.465
 9995TIP3   OH229929   3.159   2.735   6.514
 9995TIP3    H129930   3.100   2.659   6.513
 9995TIP3    H229931   3.141   2.777   6.598
 9996TIP3   OH229932   2.109   4.609   4.823
 9996TIP3    H129933   2.103   4.646   4.735
 9996TIP3    H229934   2.064   4.672   4.879
 9997TIP3   OH229935   5.965   4.130   2.774
 9997TIP3    H129936   5.891   4.125   2.713
 9997TIP3    H229937   6.036   4.087   2.727
 9998TIP3   OH229938   0.200   1.844   3.300
 9998TIP3    H129939   0.260   1.918   3.305
 9998TIP3    H229940   0.113   1.882   3.310
 9999TIP3   OH229941   5.064   6.006   5.207
 9999TIP3    H129942   5.111   5.980   5.127
 9999TIP3    H229943   4.994   5.941   5.215
10000TIP3   OH229944   5.550   3.614   0.794
10000TIP3    H129945   5.626   3.653   0.750
10000TIP3    H229946   5.564   3.520   0.787
10001TIP3   OH229947   1.294   7.558   2.420
10001TIP3    H129948   1.332   7.482   2.466
10001TIP3    H229949   1.229   7.592   2.481
10002TIP3   OH229950   2.273   2.826   6.316
10002TIP3    H129951   2.365   2.838   6.294
10002TIP3    H229952   2.270   2.743   6.363
10003TIP3   OH229953   4.459   1.348   3.518
10003TIP3    H129954   4.508   1.420   3.557
10003TIP3    H229955   4.422   1.301   3.593
10004TIP3   OH229956   0.173   7.250   4.380
10004TIP3    H129957   0.256   7.282   4.417
10004TIP3    H229958   0.147   7.178   4.437
10005TIP3   OH229959   6.688   2.402   1.054
10005TIP3    H129960   6.659   2.321   1.013
10005TIP3    H229961   6.638   2.408   1.136
10006TIP3   OH229962   1.683   4.403   4.967
10006TIP3    H129963   1.703   4.476   4.908
10006TIP3    H229964   1.617   4.437   5.026
10007TIP3   OH229965   5.227   4.941   6.402
10007TIP3    H129966   5.221   4.879   6.330
10007TIP3    H229967   5.282   5.012   6.368
10008TIP3   OH229968   6.030   6.015   2.854
10008TIP3    H129969   6.007   5.987   2.942
10008TIP3    H229970   6.037   5.934   2.803
10009TIP3   OH229971   4.594   2.948   6.190
10009TIP3    H129972   4.647   3.008   6.138
10009TIP3    H229973   4.619   2.861   6.159
10010TIP3   OH229974   6.851   4.300   0.401
10010TIP3    H129975   6.818   4.240   0.335
10010TIP3    H229976   6.780   4.306   0.466
10011TIP3   OH229977   1.185   5.010   6.738
10011TIP3    H129978   1.186   5.096   6.781
10011TIP3    H229979   1.176   4.947   6.809
10012TIP3   OH229980   1.355   0.159   6.533
10012TIP3    H129981   1.305   0.155   6.451
10012TIP3    H229982   1.290   0.176   6.601
10013TIP3   OH229983   0.229   7.490   0.894
10013TIP3    H129984   0.147   7.530   0.923
10013TIP3    H229985   0.294   7.517   0.959
10014TIP3   OH229986   4.800   0.016   4.783
10014TIP3    H129987   4.766   0.106   4.777
10014TIP3    H229988   4.748  -0.033   4.719
10015TIP3   OH229989   1.822   3.833   2.793
10015TIP3    H129990   1.845   3.873   2.877
10015TIP3    H229991   1.735   3.796   2.808
10016TIP3   OH229992   6.818   5.172   2.968
10016TIP3    H129993   6.910   5.158   2.943
10016TIP3    H229994   6.805   5.115   3.044
10017TIP3   OH229995   7.330   4.992   2.189
10017TIP3    H129996   7.352   4.970   2.279
10017TIP3    H229997   7.409   4.973   2.139
10018TIP3   OH229998   5.872   4.321   5.207
10018TIP3    H129999   5.885   4.256   5.276
10018TIP3    H230000   5.841   4.271   5.132
10019TIP3   OH230001   0.276   6.089   4.080
10019TIP3    H130002   0.187   6.124   4.087
10019TIP3    H230003   0.299   6.063   4.169
10020TIP3   OH230004   6.935   3.580   4.531
10020TIP3    H130005   6.872   3.634   4.579
10020TIP3    H230006   7.018   3.593   4.576
10021TIP3   OH230007   5.737   6.953   1.315
10021TIP3    H130008   5.697   6.945   1.401
10021TIP3    H230009   5.828   6.927   1.327
10022TIP3   OH230010   4.362   4.015   0.567
10022TIP3    H130011   4.426   3.964   0.519
10022TIP3    H230012   4.361   3.977   0.655
10023TIP3   OH230013   1.461   5.647   5.149
10023TIP3    H130014   1.396   5.676   5.084
10023TIP3    H230015   1.432   5.559   5.174
10024TIP3   OH230016   0.262   1.584   5.564
10024TIP3    H130017   0.214   1.519   5.513
10024TIP3    H230018   0.350   1.547   5.572
10025TIP3   OH230019   3.844   1.239   2.790
10025TIP3    H130020   3.920   1.181   2.801
10025TIP3    H230021   3.803   1.210   2.709
10026TIP3   OH230022   1.234   5.188   1.929
10026TIP3    H130023   1.319   5.160   1.961
10026TIP3    H230024   1.176   5.181   2.005
10027TIP3   OH230025   7.913   4.654   2.691
10027TIP3    H130026   7.943   4.739   2.660
10027TIP3    H230027   7.993   4.605   2.710
10028TIP3   OH230028   7.473   7.155   5.767
10028TIP3    H130029   7.441   7.242   5.744
10028TIP3    H230030   7.410   7.123   5.832
10029TIP3   OH230031   4.011   2.125   6.548
10029TIP3    H130032   3.990   2.207   6.504
10029TIP3    H230033   3.951   2.061   6.511
10030TIP3   OH230034   1.909   0.325   2.684
10030TIP3    H130035   1.955   0.408   2.684
10030TIP3    H230036   1.936   0.281   2.765
10031TIP3   OH230037   2.425   7.087   6.411
10031TIP3    H130038   2.393   7.018   6.353
10031TIP3    H230039   2.417   7.051   6.499
10032TIP3   OH230040   3.484   6.390   6.294
10032TIP3    H130041   3.547   6.327   6.258
10032TIP3    H230042   3.489   6.465   6.235
10033TIP3   OH230043   3.025   0.599   3.697
10033TIP3    H130044   3.103   0.616   3.645
10033TIP3    H230045   2.986   0.521   3.657
10034TIP3   OH230046   3.366   5.467   0.542
10034TIP3    H130047   3.440   5.443   0.596
10034TIP3    H230048   3.384   5.427   0.457
10035TIP3   OH230049   4.922   0.396   5.474
10035TIP3    H130050   4.940   0.313   5.428
10035TIP3    H230051   4.965   0.385   5.559
10036TIP3   OH230052   4.593   3.256   1.731
10036TIP3    H130053   4.626   3.172   1.700
10036TIP3    H230054   4.668   3.315   1.724
10037TIP3   OH230055   1.577   1.762   1.770
10037TIP3    H130056   1.535   1.828   1.715
10037TIP3    H230057   1.667   1.759   1.739
10038TIP3   OH230058   8.213   5.091   4.193
10038TIP3    H130059   8.295   5.101   4.145
10038TIP3    H230060   8.219   5.156   4.264
10039TIP3   OH230061   0.042   7.225   3.988
10039TIP3    H130062   0.134   7.207   4.006
10039TIP3    H230063   0.002   7.138   3.981
10040TIP3   OH230064   5.811   1.971   5.598
10040TIP3    H130065   5.885   2.001   5.545
10040TIP3    H230066   5.830   1.880   5.618
10041TIP3   OH230067   1.625   6.025   1.026
10041TIP3    H130068   1.654   5.952   0.971
10041TIP3    H230069   1.541   5.995   1.062
10042TIP3   OH230070   3.811   0.853   4.017
10042TIP3    H130071   3.848   0.832   4.103
10042TIP3    H230072   3.806   0.949   4.017
10043TIP3   OH230073   7.734   4.278   3.319
10043TIP3    H130074   7.819   4.235   3.314
10043TIP3    H230075   7.671   4.206   3.316
10044TIP3   OH230076   5.037   6.314   3.105
10044TIP3    H130077   5.079   6.303   3.020
10044TIP3    H230078   5.007   6.227   3.129
10045TIP3   OH230079   7.562   6.347   3.579
10045TIP3    H130080   7.565   6.261   3.537
10045TIP3    H230081   7.508   6.334   3.657
10046TIP3   OH230082   3.097   5.672   5.834
10046TIP3    H130083   3.034   5.735   5.800
10046TIP3    H230084   3.058   5.587   5.816
10047TIP3   OH230085   3.126   0.249   2.927
10047TIP3    H130086   3.092   0.309   2.860
10047TIP3    H230087   3.221   0.260   2.923
10048TIP3   OH230088   2.887   7.283   3.152
10048TIP3    H130089   2.792   7.296   3.154
10048TIP3    H230090   2.924   7.370   3.164
10049TIP3   OH230091   6.873   5.426   5.420
10049TIP3    H130092   6.795   5.461   5.463
10049TIP3    H230093   6.946   5.471   5.462
10050TIP3   OH230094   0.976   0.218   6.045
10050TIP3    H130095   0.906   0.153   6.057
10050TIP3    H230096   1.047   0.169   6.004
10051TIP3   OH230097   8.268   1.804   2.785
10051TIP3    H130098   8.192   1.834   2.834
10051TIP3    H230099   8.334   1.785   2.852
10052TIP3   OH230100   4.428   0.936   2.818
10052TIP3    H130101   4.392   0.927   2.906
10052TIP3    H230102   4.425   0.848   2.781
10053TIP3   OH230103   5.574   6.551   5.186
10053TIP3    H130104   5.615   6.496   5.253
10053TIP3    H230105   5.485   6.567   5.218
10054TIP3   OH230106   4.690   6.445   1.906
10054TIP3    H130107   4.751   6.459   1.979
10054TIP3    H230108   4.734   6.382   1.849
10055TIP3   OH230109   6.687   7.651   1.792
10055TIP3    H130110   6.735   7.685   1.867
10055TIP3    H230111   6.607   7.703   1.789
10056TIP3   OH230112   7.843   6.630   3.717
10056TIP3    H130113   7.801   6.715   3.703
10056TIP3    H230114   7.773   6.574   3.752
10057TIP3   OH230115   2.537   6.029   5.676
10057TIP3    H130116   2.455   6.034   5.724
10057TIP3    H230117   2.594   6.093   5.718
10058TIP3   OH230118   5.660   5.899   3.575
10058TIP3    H130119   5.601   5.825   3.592
10058TIP3    H230120   5.745   5.869   3.606
10059TIP3   OH230121   0.228   0.396   3.138
10059TIP3    H130122   0.185   0.434   3.061
10059TIP3    H230123   0.320   0.421   3.129
10060TIP3   OH230124   0.453   2.829   1.756
10060TIP3    H130125   0.389   2.858   1.822
10060TIP3    H230126   0.449   2.734   1.759
10061TIP3   OH230127   0.164   1.560   3.285
10061TIP3    H130128   0.181   1.651   3.312
10061TIP3    H230129   0.218   1.549   3.207
10062TIP3   OH230130   4.446   0.688   6.066
10062TIP3    H130131   4.538   0.714   6.062
10062TIP3    H230132   4.397   0.770   6.052
10063TIP3   OH230133   7.093   4.815   3.336
10063TIP3    H130134   7.114   4.905   3.312
10063TIP3    H230135   7.148   4.762   3.278
10064TIP3   OH230136   6.761   6.584   1.177
10064TIP3    H130137   6.701   6.550   1.244
10064TIP3    H230138   6.718   6.663   1.144
10065TIP3   OH230139   3.374   4.810   3.073
10065TIP3    H130140   3.417   4.850   3.149
10065TIP3    H230141   3.405   4.861   2.998
10066TIP3   OH230142   3.695   2.414   2.347
10066TIP3    H130143   3.613   2.414   2.396
10066TIP3    H230144   3.706   2.324   2.318
10067TIP3   OH230145   8.211   1.924   5.654
10067TIP3    H130146   8.148   1.937   5.584
10067TIP3    H230147   8.281   1.872   5.615
10068TIP3   OH230148   7.503   4.037   3.239
10068TIP3    H130149   7.425   4.049   3.183
10068TIP3    H230150   7.556   3.973   3.191
10069TIP3   OH230151   5.688   7.686   4.613
10069TIP3    H130152   5.676   7.618   4.680
10069TIP3    H230153   5.734   7.641   4.542
10070TIP3   OH230154   7.450   7.699   3.856
10070TIP3    H130155   7.442   7.656   3.941
10070TIP3    H230156   7.363   7.734   3.838
10071TIP3   OH230157   0.100   3.392   4.023
10071TIP3    H130158   0.119   3.438   4.104
10071TIP3    H230159   0.052   3.314   4.050
10072TIP3   OH230160   5.173   4.087   4.379
10072TIP3    H130161   5.081   4.084   4.350
10072TIP3    H230162   5.169   4.130   4.465
10073TIP3   OH230163   1.971   2.110   1.274
10073TIP3    H130164   1.989   2.124   1.367
10073TIP3    H230165   1.882   2.074   1.271
10074TIP3   OH230166   0.757   3.378   5.718
10074TIP3    H130167   0.733   3.286   5.709
10074TIP3    H230168   0.688   3.415   5.773
10075TIP3   OH230169   7.077   5.918   3.512
10075TIP3    H130170   7.030   5.918   3.429
10075TIP3    H230171   7.042   5.843   3.560
10076TIP3   OH230172   1.365   0.339   0.124
10076TIP3    H130173   1.288   0.301   0.167
10076TIP3    H230174   1.335   0.357   0.034
10077TIP3   OH230175   0.238   3.323   2.178
10077TIP3    H130176   0.150   3.286   2.171
10077TIP3    H230177   0.295   3.247   2.196
10078TIP3   OH230178   1.195   7.806   1.017
10078TIP3    H130179   1.163   7.716   1.020
10078TIP3    H230180   1.160   7.840   0.934
10079TIP3   OH230181   6.087   1.472   3.223
10079TIP3    H130182   6.105   1.539   3.289
10079TIP3    H230183   6.007   1.429   3.253
10080TIP3   OH230184   2.660   7.311   5.032
10080TIP3    H130185   2.568   7.334   5.042
10080TIP3    H230186   2.706   7.395   5.024
10081TIP3   OH230187   4.555   2.995   3.608
10081TIP3    H130188   4.479   3.043   3.640
10081TIP3    H230189   4.630   3.046   3.640
10082TIP3   OH230190   6.670   1.436   1.732
10082TIP3    H130191   6.665   1.435   1.636
10082TIP3    H230192   6.709   1.521   1.752
10083TIP3   OH230193   3.646   2.756   0.252
10083TIP3    H130194   3.680   2.721   0.171
10083TIP3    H230195   3.555   2.777   0.233
10084TIP3   OH230196   4.982   3.753   1.212
10084TIP3    H130197   4.941   3.668   1.194
10084TIP3    H230198   5.050   3.734   1.276
10085TIP3   OH230199   7.279   4.765   0.058
10085TIP3    H130200   7.227   4.725   0.128
10085TIP3    H230201   7.218   4.777  -0.014
10086TIP3   OH230202   3.793   1.176   5.666
10086TIP3    H130203   3.749   1.245   5.715
10086TIP3    H230204   3.781   1.201   5.574
10087TIP3   OH230205   3.478   3.818   3.691
10087TIP3    H130206   3.482   3.729   3.727
10087TIP3    H230207   3.441   3.806   3.603
10088TIP3   OH230208   2.351   4.936   0.895
10088TIP3    H130209   2.363   5.029   0.913
10088TIP3    H230210   2.382   4.892   0.974
10089TIP3   OH230211   0.090   0.120   4.658
10089TIP3    H130212   0.126   0.033   4.642
10089TIP3    H230213   0.124   0.144   4.745
10090TIP3   OH230214   1.100   1.258   3.648
10090TIP3    H130215   1.050   1.304   3.715
10090TIP3    H230216   1.076   1.301   3.566
10091TIP3   OH230217   7.955   0.647   2.603
10091TIP3    H130218   7.954   0.702   2.681
10091TIP3    H230219   7.877   0.592   2.613
10092TIP3   OH230220   4.582   2.749   3.173
10092TIP3    H130221   4.583   2.705   3.088
10092TIP3    H230222   4.507   2.809   3.168
10093TIP3   OH230223   1.481   4.122   4.693
10093TIP3    H130224   1.508   4.120   4.601
10093TIP3    H230225   1.563   4.114   4.742
10094TIP3   OH230226   7.055   6.264   2.507
10094TIP3    H130227   7.011   6.347   2.494
10094TIP3    H230228   7.110   6.254   2.429
10095TIP3   OH230229   3.108   3.797   1.124
10095TIP3    H130230   3.183   3.821   1.179
10095TIP3    H230231   3.077   3.880   1.088
10096TIP3   OH230232   0.662   5.966   6.590
10096TIP3    H130233   0.632   6.056   6.594
10096TIP3    H230234   0.678   5.942   6.681
10097TIP3   OH230235   7.339   0.331   4.522
10097TIP3    H130236   7.297   0.330   4.437
10097TIP3    H230237   7.285   0.390   4.575
10098TIP3   OH230238   0.932   0.288   5.105
10098TIP3    H130239   0.873   0.222   5.067
10098TIP3    H230240   0.897   0.304   5.192
10099TIP3   OH230241   8.001   0.776   2.109
10099TIP3    H130242   8.082   0.817   2.079
10099TIP3    H230243   8.008   0.778   2.205
10100TIP3   OH230244   1.110   5.560   5.354
10100TIP3    H130245   1.064   5.643   5.369
10100TIP3    H230246   1.149   5.570   5.267
10101TIP3   OH230247   4.165   4.167   1.191
10101TIP3    H130248   4.078   4.194   1.222
10101TIP3    H230249   4.204   4.248   1.158
10102TIP3   OH230250   4.065   1.453   2.966
10102TIP3    H130251   4.129   1.507   3.013
10102TIP3    H230252   4.047   1.380   3.025
10103TIP3   OH230253   7.644   3.999   2.973
10103TIP3    H130254   7.718   3.998   3.033
10103TIP3    H230255   7.625   4.092   2.959
10104TIP3   OH230256   3.985   6.316   3.673
10104TIP3    H130257   3.995   6.396   3.726
10104TIP3    H230258   4.013   6.342   3.586
10105TIP3   OH230259   4.250   7.648   1.793
10105TIP3    H130260   4.308   7.724   1.801
10105TIP3    H230261   4.273   7.593   1.867
10106TIP3   OH230262   1.142   4.451   0.060
10106TIP3    H130263   1.215   4.457   0.122
10106TIP3    H230264   1.106   4.539   0.057
10107TIP3   OH230265   1.940   6.866   0.228
10107TIP3    H130266   1.873   6.935   0.223
10107TIP3    H230267   1.892   6.788   0.256
10108TIP3   OH230268   4.103   5.248   4.240
10108TIP3    H130269   4.183   5.235   4.188
10108TIP3    H230270   4.132   5.240   4.331
10109TIP3   OH230271   1.366   4.871   5.040
10109TIP3    H130272   1.323   4.792   5.073
10109TIP3    H230273   1.301   4.912   4.984
10110TIP3   OH230274   2.294   6.425   0.636
10110TIP3    H130275   2.259   6.461   0.717
10110TIP3    H230276   2.306   6.332   0.654
10111TIP3   OH230277   5.551   7.370   1.839
10111TIP3    H130278   5.508   7.348   1.921
10111TIP3    H230279   5.571   7.285   1.799
10112TIP3   OH230280   7.556   4.545   5.523
10112TIP3    H130281   7.530   4.634   5.545
10112TIP3    H230282   7.477   4.493   5.537
10113TIP3   OH230283   0.950   0.891   5.981
10113TIP3    H130284   1.004   0.872   5.904
10113TIP3    H230285   0.868   0.846   5.963
10114TIP3   OH230286  -0.036   5.526   5.372
10114TIP3    H130287   0.035   5.541   5.434
10114TIP3    H230288  -0.011   5.578   5.295
10115TIP3   OH230289   6.066   4.204   4.830
10115TIP3    H130290   6.049   4.288   4.873
10115TIP3    H230291   6.049   4.221   4.737
10116TIP3   OH230292   4.045   5.616   3.084
10116TIP3    H130293   4.092   5.647   3.161
10116TIP3    H230294   4.065   5.522   3.079
10117TIP3   OH230295   0.469   0.515   3.043
10117TIP3    H130296   0.544   0.565   3.076
10117TIP3    H230297   0.425   0.574   2.983
10118TIP3   OH230298   1.779   5.730   4.233
10118TIP3    H130299   1.839   5.656   4.241
10118TIP3    H230300   1.692   5.690   4.231
10119TIP3   OH230301   4.905   3.857   0.847
10119TIP3    H130302   4.852   3.878   0.924
10119TIP3    H230303   4.994   3.845   0.882
10120TIP3   OH230304   5.185   2.558   0.808
10120TIP3    H130305   5.156   2.640   0.769
10120TIP3    H230306   5.106   2.505   0.814
10121TIP3   OH230307   5.748   5.793   3.046
10121TIP3    H130308   5.653   5.789   3.052
10121TIP3    H230309   5.769   5.886   3.053
10122TIP3   OH230310   0.383   0.561   0.323
10122TIP3    H130311   0.474   0.568   0.349
10122TIP3    H230312   0.335   0.551   0.405
10123TIP3   OH230313   0.839   1.232   5.652
10123TIP3    H130314   0.808   1.216   5.563
10123TIP3    H230315   0.804   1.159   5.703
10124TIP3   OH230316   4.463   0.438   1.726
10124TIP3    H130317   4.528   0.374   1.757
10124TIP3    H230318   4.397   0.440   1.796
10125TIP3   OH230319   1.543   3.117   2.257
10125TIP3    H130320   1.536   3.210   2.234
10125TIP3    H230321   1.501   3.071   2.185
10126TIP3   OH230322   2.815   7.828   1.397
10126TIP3    H130323   2.883   7.888   1.427
10126TIP3    H230324   2.862   7.747   1.374
10127TIP3   OH230325   2.623   7.673   3.875
10127TIP3    H130326   2.671   7.600   3.836
10127TIP3    H230327   2.691   7.729   3.914
10128TIP3   OH230328   5.418   1.104   3.384
10128TIP3    H130329   5.469   1.134   3.460
10128TIP3    H230330   5.484   1.085   3.318
10129TIP3   OH230331   6.363   6.339   3.053
10129TIP3    H130332   6.282   6.360   3.100
10129TIP3    H230333   6.336   6.279   2.984
10130TIP3   OH230334   4.565   5.394   5.631
10130TIP3    H130335   4.640   5.360   5.679
10130TIP3    H230336   4.538   5.323   5.573
10131TIP3   OH230337   7.218   7.256   3.986
10131TIP3    H130338   7.223   7.274   4.080
10131TIP3    H230339   7.296   7.205   3.967
10132TIP3   OH230340   4.012   2.415   0.056
10132TIP3    H130341   4.021   2.476   0.129
10132TIP3    H230342   3.973   2.467  -0.014
10133TIP3   OH230343   1.223   4.635   5.137
10133TIP3    H130344   1.154   4.602   5.080
10133TIP3    H230345   1.276   4.557   5.156
10134TIP3   OH230346   3.097   1.386   1.745
10134TIP3    H130347   3.053   1.375   1.661
10134TIP3    H230348   3.190   1.379   1.724
10135TIP3   OH230349   3.331   2.790   0.858
10135TIP3    H130350   3.264   2.723   0.841
10135TIP3    H230351   3.309   2.825   0.944
10136TIP3   OH230352   1.936   3.299   6.286
10136TIP3    H130353   1.847   3.264   6.285
10136TIP3    H230354   1.948   3.331   6.375
10137TIP3   OH230355   0.182   1.315   1.730
10137TIP3    H130356   0.114   1.321   1.662
10137TIP3    H230357   0.235   1.240   1.703
10138TIP3   OH230358   3.964   1.226   3.113
10138TIP3    H130359   3.913   1.277   3.176
10138TIP3    H230360   3.928   1.137   3.121
10139TIP3   OH230361   0.745   7.340   6.451
10139TIP3    H130362   0.759   7.360   6.359
10139TIP3    H230363   0.764   7.246   6.458
10140TIP3   OH230364   6.014   6.405   5.861
10140TIP3    H130365   6.077   6.333   5.855
10140TIP3    H230366   5.930   6.363   5.877
10141TIP3   OH230367   2.173   7.496   1.529
10141TIP3    H130368   2.181   7.577   1.478
10141TIP3    H230369   2.247   7.500   1.591
10142TIP3   OH230370   6.846   0.271   0.284
10142TIP3    H130371   6.811   0.290   0.197
10142TIP3    H230372   6.886   0.353   0.313
10143TIP3   OH230373   2.652   6.249   6.188
10143TIP3    H130374   2.563   6.251   6.150
10143TIP3    H230375   2.652   6.321   6.251
10144TIP3   OH230376   3.120   4.840   0.641
10144TIP3    H130377   3.181   4.794   0.698
10144TIP3    H230378   3.144   4.812   0.553
10145TIP3   OH230379   3.935   0.831   5.349
10145TIP3    H130380   3.918   0.827   5.443
10145TIP3    H230381   3.908   0.746   5.316
10146TIP3   OH230382   5.754   6.183   5.231
10146TIP3    H130383   5.761   6.088   5.236
10146TIP3    H230384   5.812   6.207   5.158
10147TIP3   OH230385   1.518   2.953   6.600
10147TIP3    H130386   1.604   2.941   6.558
10147TIP3    H230387   1.456   2.958   6.528
10148TIP3   OH230388   1.784   5.575   0.249
10148TIP3    H130389   1.844   5.649   0.253
10148TIP3    H230390   1.841   5.498   0.242
10149TIP3   OH230391   1.558   5.248   2.451
10149TIP3    H130392   1.503   5.322   2.476
10149TIP3    H230393   1.610   5.230   2.530
10150TIP3   OH230394   0.844   3.801   2.914
10150TIP3    H130395   0.925   3.758   2.887
10150TIP3    H230396   0.790   3.730   2.948
10151TIP3   OH230397   1.043   3.519   5.164
10151TIP3    H130398   1.083   3.549   5.246
10151TIP3    H230399   0.956   3.489   5.189
10152TIP3   OH230400   6.160   3.924   3.958
10152TIP3    H130401   6.072   3.898   3.988
10152TIP3    H230402   6.182   3.999   4.013
10153TIP3   OH230403   1.707   5.071   5.699
10153TIP3    H130404   1.795   5.059   5.663
10153TIP3    H230405   1.670   5.142   5.647
10154TIP3   OH230406   5.665   5.503   0.355
10154TIP3    H130407   5.624   5.430   0.309
10154TIP3    H230408   5.679   5.471   0.444
10155TIP3   OH230409   4.762   3.250   6.278
10155TIP3    H130410   4.727   3.233   6.366
10155TIP3    H230411   4.688   3.289   6.230
10156TIP3   OH230412   3.963   4.553   2.447
10156TIP3    H130413   3.898   4.527   2.381
10156TIP3    H230414   3.920   4.535   2.531
10157TIP3   OH230415   2.928   7.456   2.524
10157TIP3    H130416   2.853   7.496   2.569
10157TIP3    H230417   2.934   7.504   2.442
10158TIP3   OH230418   5.681   0.259   0.184
10158TIP3    H130419   5.627   0.286   0.258
10158TIP3    H230420   5.697   0.166   0.198
10159TIP3   OH230421   0.461   2.264   1.025
10159TIP3    H130422   0.475   2.209   0.948
10159TIP3    H230423   0.403   2.212   1.080
10160TIP3   OH230424   4.961   0.703   6.242
10160TIP3    H130425   4.986   0.641   6.311
10160TIP3    H230426   5.038   0.758   6.230
10161TIP3   OH230427   3.708   7.110   0.836
10161TIP3    H130428   3.625   7.135   0.875
10161TIP3    H230429   3.687   7.089   0.745
10162TIP3   OH230430   3.930   5.955   1.026
10162TIP3    H130431   3.984   5.883   1.056
10162TIP3    H230432   3.847   5.944   1.071
10163TIP3   OH230433   4.245   7.297   3.445
10163TIP3    H130434   4.291   7.350   3.511
10163TIP3    H230435   4.308   7.286   3.375
10164TIP3   OH230436   7.151   4.010   1.930
10164TIP3    H130437   7.239   3.975   1.945
10164TIP3    H230438   7.147   4.022   1.835
10165TIP3   OH230439   7.278   5.564   4.235
10165TIP3    H130440   7.359   5.566   4.286
10165TIP3    H230441   7.302   5.602   4.151
10166TIP3   OH230442   7.727   6.141   4.278
10166TIP3    H130443   7.795   6.206   4.297
10166TIP3    H230444   7.769   6.081   4.216
10167TIP3   OH230445   3.176   3.145   1.993
10167TIP3    H130446   3.189   3.084   2.066
10167TIP3    H230447   3.133   3.093   1.925
10168TIP3   OH230448   1.856   0.902   1.216
10168TIP3    H130449   1.870   0.943   1.130
10168TIP3    H230450   1.762   0.883   1.217
10169TIP3   OH230451   2.028   0.868   6.375
10169TIP3    H130452   2.019   0.779   6.410
10169TIP3    H230453   1.942   0.887   6.337
10170TIP3   OH230454   5.833   4.103   0.080
10170TIP3    H130455   5.902   4.160   0.045
10170TIP3    H230456   5.878   4.020   0.098
10171TIP3   OH230457   4.216   6.787   6.261
10171TIP3    H130458   4.227   6.743   6.346
10171TIP3    H230459   4.303   6.822   6.242
10172TIP3   OH230460   4.408   7.204   2.659
10172TIP3    H130461   4.392   7.147   2.584
10172TIP3    H230462   4.413   7.145   2.734
10173TIP3   OH230463   6.763   3.602   0.984
10173TIP3    H130464   6.670   3.616   1.004
10173TIP3    H230465   6.805   3.684   1.009
10174TIP3   OH230466   1.090   4.846   5.280
10174TIP3    H130467   1.143   4.780   5.235
10174TIP3    H230468   1.007   4.802   5.297
10175TIP3   OH230469   6.147   7.248   1.500
10175TIP3    H130470   6.105   7.221   1.418
10175TIP3    H230471   6.153   7.343   1.494
10176TIP3   OH230472   0.081   2.974   1.711
10176TIP3    H130473   0.015   2.932   1.767
10176TIP3    H230474   0.138   2.903   1.682
10177TIP3   OH230475   0.681   1.347   3.116
10177TIP3    H130476   0.611   1.300   3.160
10177TIP3    H230477   0.650   1.437   3.109
10178TIP3   OH230478   6.418   3.121   6.657
10178TIP3    H130479   6.459   3.198   6.618
10178TIP3    H230480   6.383   3.151   6.740
10179TIP3   OH230481   4.807   3.656   6.252
10179TIP3    H130482   4.821   3.744   6.216
10179TIP3    H230483   4.771   3.606   6.179
10180TIP3   OH230484   2.152   6.782   3.408
10180TIP3    H130485   2.169   6.733   3.488
10180TIP3    H230486   2.071   6.830   3.425
10181TIP3   OH230487   4.281   0.637   3.175
10181TIP3    H130488   4.247   0.550   3.152
10181TIP3    H230489   4.327   0.624   3.257
10182TIP3   OH230490   0.319   0.351   1.277
10182TIP3    H130491   0.365   0.423   1.320
10182TIP3    H230492   0.338   0.363   1.184
10183TIP3   OH230493   2.610   3.936   0.439
10183TIP3    H130494   2.665   3.993   0.386
10183TIP3    H230495   2.532   3.988   0.458
10184TIP3   OH230496   5.119   0.849   1.514
10184TIP3    H130497   5.161   0.935   1.515
10184TIP3    H230498   5.130   0.815   1.603
10185TIP3   OH230499   7.048   1.506   1.762
10185TIP3    H130500   6.975   1.538   1.709
10185TIP3    H230501   7.105   1.461   1.699
10186TIP3   OH230502   5.812   3.844   1.006
10186TIP3    H130503   5.830   3.924   1.054
10186TIP3    H230504   5.892   3.792   1.016
10187TIP3   OH230505   8.029   0.888   3.016
10187TIP3    H130506   7.950   0.941   3.032
10187TIP3    H230507   8.077   0.937   2.950
10188TIP3   OH230508   6.191   5.040   1.908
10188TIP3    H130509   6.173   5.097   1.982
10188TIP3    H230510   6.113   4.985   1.901
10189TIP3   OH230511   3.234   0.040   1.602
10189TIP3    H130512   3.276   0.116   1.562
10189TIP3    H230513   3.152   0.073   1.638
10190TIP3   OH230514   5.159   6.315   0.075
10190TIP3    H130515   5.133   6.248   0.012
10190TIP3    H230516   5.154   6.271   0.160
10191TIP3   OH230517   2.918   3.815   4.845
10191TIP3    H130518   2.919   3.894   4.792
10191TIP3    H230519   3.003   3.813   4.889
10192TIP3   OH230520   3.562   0.256   5.290
10192TIP3    H130521   3.627   0.303   5.341
10192TIP3    H230522   3.484   0.254   5.346
10193TIP3   OH230523   5.023   4.581   6.814
10193TIP3    H130524   4.991   4.660   6.771
10193TIP3    H230525   5.061   4.529   6.744
10194TIP3   OH230526   5.073   5.699   2.137
10194TIP3    H130527   5.026   5.772   2.177
10194TIP3    H230528   5.079   5.721   2.045
10195TIP3   OH230529   5.819   0.614   2.611
10195TIP3    H130530   5.906   0.579   2.589
10195TIP3    H230531   5.758   0.553   2.571
10196TIP3   OH230532   1.120   6.553   2.982
10196TIP3    H130533   1.036   6.576   3.019
10196TIP3    H230534   1.154   6.636   2.947
10197TIP3   OH230535   0.750   6.630   0.886
10197TIP3    H130536   0.733   6.611   0.978
10197TIP3    H230537   0.673   6.680   0.857
10198TIP3   OH230538   2.263   5.977   6.049
10198TIP3    H130539   2.276   5.882   6.050
10198TIP3    H230540   2.237   5.998   6.139
10199TIP3   OH230541   7.283   3.630   1.031
10199TIP3    H130542   7.284   3.716   0.989
10199TIP3    H230543   7.271   3.649   1.124
10200TIP3   OH230544   1.386   1.883   6.426
10200TIP3    H130545   1.465   1.859   6.474
10200TIP3    H230546   1.417   1.934   6.351
10201TIP3   OH230547   7.608   1.116   5.531
10201TIP3    H130548   7.589   1.210   5.524
10201TIP3    H230549   7.691   1.112   5.579
10202TIP3   OH230550   3.689   5.874   1.160
10202TIP3    H130551   3.642   5.924   1.227
10202TIP3    H230552   3.657   5.910   1.077
10203TIP3   OH230553   5.464   1.343   6.164
10203TIP3    H130554   5.381   1.377   6.132
10203TIP3    H230555   5.513   1.321   6.085
10204TIP3   OH230556   3.589   0.124   5.748
10204TIP3    H130557   3.549   0.206   5.718
10204TIP3    H230558   3.684   0.141   5.744
10205TIP3   OH230559   2.241   6.750   0.845
10205TIP3    H130560   2.297   6.809   0.794
10205TIP3    H230561   2.249   6.783   0.935
10206TIP3   OH230562   5.591   4.588   4.285
10206TIP3    H130563   5.675   4.622   4.315
10206TIP3    H230564   5.588   4.498   4.319
10207TIP3   OH230565   2.031   2.182   4.873
10207TIP3    H130566   2.064   2.095   4.849
10207TIP3    H230567   2.071   2.200   4.958
10208TIP3   OH230568   2.549   6.822   1.210
10208TIP3    H130569   2.576   6.797   1.122
10208TIP3    H230570   2.629   6.820   1.262
10209TIP3   OH230571   0.701   4.652   6.072
10209TIP3    H130572   0.717   4.688   6.160
10209TIP3    H230573   0.762   4.578   6.065
10210TIP3   OH230574   5.769   2.292   0.682
10210TIP3    H130575   5.825   2.256   0.751
10210TIP3    H230576   5.771   2.226   0.613
10211TIP3   OH230577   4.778   1.350   2.616
10211TIP3    H130578   4.774   1.357   2.711
10211TIP3    H230579   4.867   1.323   2.596
10212TIP3   OH230580   2.219   6.022   5.286
10212TIP3    H130581   2.247   5.949   5.230
10212TIP3    H230582   2.290   6.086   5.280
10213TIP3   OH230583   3.429   2.476   6.530
10213TIP3    H130584   3.416   2.431   6.447
10213TIP3    H230585   3.352   2.455   6.583
10214TIP3   OH230586   7.759   6.900   4.014
10214TIP3    H130587   7.721   6.877   3.929
10214TIP3    H230588   7.699   6.861   4.078
10215TIP3   OH230589   3.093   7.489   5.330
10215TIP3    H130590   3.009   7.478   5.285
10215TIP3    H230591   3.158   7.453   5.269
10216TIP3   OH230592   1.116   1.872   5.468
10216TIP3    H130593   1.104   1.966   5.454
10216TIP3    H230594   1.056   1.850   5.540
10217TIP3   OH230595   1.096   6.044   1.160
10217TIP3    H130596   1.174   5.990   1.173
10217TIP3    H230597   1.080   6.082   1.246
10218TIP3   OH230598   0.136   3.362   1.164
10218TIP3    H130599   0.208   3.336   1.222
10218TIP3    H230600   0.062   3.309   1.194
10219TIP3   OH230601   0.695   3.295   4.206
10219TIP3    H130602   0.631   3.240   4.251
10219TIP3    H230603   0.643   3.346   4.144
10220TIP3   OH230604   4.757   6.309   3.379
10220TIP3    H130605   4.840   6.261   3.376
10220TIP3    H230606   4.693   6.245   3.408
10221TIP3   OH230607   7.763   3.731   6.480
10221TIP3    H130608   7.758   3.640   6.510
10221TIP3    H230609   7.828   3.771   6.537
10222TIP3   OH230610   7.934   1.162   0.065
10222TIP3    H130611   7.866   1.099   0.088
10222TIP3    H230612   7.992   1.164   0.140
10223TIP3   OH230613   3.267   3.678   2.304
10223TIP3    H130614   3.340   3.623   2.273
10223TIP3    H230615   3.307   3.760   2.329
10224TIP3   OH230616  -0.019   4.941   6.256
10224TIP3    H130617  -0.004   5.002   6.328
10224TIP3    H230618   0.066   4.899   6.243
10225TIP3   OH230619   8.068   6.470   3.432
10225TIP3    H130620   7.994   6.410   3.425
10225TIP3    H230621   8.086   6.496   3.342
10226TIP3   OH230622   3.320   1.152   0.263
10226TIP3    H130623   3.378   1.152   0.187
10226TIP3    H230624   3.237   1.117   0.230
10227TIP3   OH230625   0.305   1.524   0.583
10227TIP3    H130626   0.240   1.588   0.554
10227TIP3    H230627   0.347   1.566   0.658
10228TIP3   OH230628   7.561   2.378   4.457
10228TIP3    H130629   7.574   2.316   4.529
10228TIP3    H230630   7.606   2.339   4.383
10229TIP3   OH230631   5.227   1.176   3.168
10229TIP3    H130632   5.292   1.158   3.236
10229TIP3    H230633   5.181   1.093   3.156
10230TIP3   OH230634   2.690   1.661   4.342
10230TIP3    H130635   2.736   1.666   4.259
10230TIP3    H230636   2.599   1.684   4.321
10231TIP3   OH230637   3.142   4.359   5.855
10231TIP3    H130638   3.220   4.404   5.823
10231TIP3    H230639   3.097   4.330   5.776
10232TIP3   OH230640   6.916   4.180   5.634
10232TIP3    H130641   6.954   4.095   5.658
10232TIP3    H230642   6.941   4.191   5.542
10233TIP3   OH230643   2.617   7.420   0.615
10233TIP3    H130644   2.584   7.468   0.691
10233TIP3    H230645   2.646   7.487   0.554
10234TIP3   OH230646   5.645   6.338   6.157
10234TIP3    H130647   5.732   6.323   6.193
10234TIP3    H230648   5.585   6.317   6.229
10235TIP3   OH230649   7.388   3.099   0.608
10235TIP3    H130650   7.449   3.097   0.534
10235TIP3    H230651   7.364   3.008   0.622
10236TIP3   OH230652   5.671   6.443   2.647
10236TIP3    H130653   5.657   6.418   2.738
10236TIP3    H230654   5.698   6.362   2.604
10237TIP3   OH230655   4.807   1.843   3.069
10237TIP3    H130656   4.843   1.797   3.145
10237TIP3    H230657   4.817   1.936   3.091
10238TIP3   OH230658   5.990   4.987   3.913
10238TIP3    H130659   6.049   5.053   3.949
10238TIP3    H230660   5.907   5.033   3.901
10239TIP3   OH230661   5.720   2.531   6.611
10239TIP3    H130662   5.754   2.608   6.566
10239TIP3    H230663   5.703   2.468   6.541
10240TIP3   OH230664   4.783   6.015   4.297
10240TIP3    H130665   4.825   6.098   4.280
10240TIP3    H230666   4.778   5.971   4.212
10241TIP3   OH230667   0.877   3.312   3.645
10241TIP3    H130668   0.894   3.286   3.736
10241TIP3    H230669   0.785   3.292   3.632
10242TIP3   OH230670   3.085   7.592   2.756
10242TIP3    H130671   3.010   7.593   2.815
10242TIP3    H230672   3.063   7.527   2.689
10243TIP3   OH230673   0.099   1.076   6.296
10243TIP3    H130674   0.155   1.083   6.373
10243TIP3    H230675   0.015   1.045   6.329
10244TIP3   OH230676   6.653   6.704   0.292
10244TIP3    H130677   6.594   6.644   0.247
10244TIP3    H230678   6.594   6.767   0.335
10245TIP3   OH230679   7.547   0.355   5.691
10245TIP3    H130680   7.628   0.393   5.657
10245TIP3    H230681   7.568   0.263   5.706
10246TIP3   OH230682   1.513   1.284   1.687
10246TIP3    H130683   1.567   1.217   1.727
10246TIP3    H230684   1.493   1.345   1.758
10247TIP3   OH230685   3.351   1.840   3.491
10247TIP3    H130686   3.360   1.928   3.455
10247TIP3    H230687   3.422   1.833   3.555
10248TIP3   OH230688   8.223   5.850   2.185
10248TIP3    H130689   8.210   5.918   2.119
10248TIP3    H230690   8.135   5.831   2.218
10249TIP3   OH230691   3.754   1.390   4.059
10249TIP3    H130692   3.706   1.472   4.071
10249TIP3    H230693   3.844   1.411   4.084
10250TIP3   OH230694   1.744   0.283   4.999
10250TIP3    H130695   1.671   0.239   4.955
10250TIP3    H230696   1.720   0.376   4.998
10251TIP3   OH230697   2.597   3.472   1.834
10251TIP3    H130698   2.634   3.446   1.919
10251TIP3    H230699   2.670   3.513   1.788
10252TIP3   OH230700   3.999   2.146   3.785
10252TIP3    H130701   4.087   2.181   3.784
10252TIP3    H230702   3.957   2.182   3.707
10253TIP3   OH230703   4.249   5.240   3.656
10253TIP3    H130704   4.208   5.327   3.654
10253TIP3    H230705   4.343   5.258   3.659
10254TIP3   OH230706   0.631   0.127   1.836
10254TIP3    H130707   0.547   0.082   1.838
10254TIP3    H230708   0.609   0.219   1.851
10255TIP3   OH230709   3.535   2.395   3.883
10255TIP3    H130710   3.521   2.443   3.965
10255TIP3    H230711   3.591   2.454   3.831
10256TIP3   OH230712   0.194   3.984   5.680
10256TIP3    H130713   0.127   3.944   5.625
10256TIP3    H230714   0.165   3.968   5.770
10257TIP3   OH230715   1.187   0.752   0.045
10257TIP3    H130716   1.278   0.729   0.023
10257TIP3    H230717   1.189   0.770   0.139
10258TIP3   OH230718   7.948   5.010   4.146
10258TIP3    H130719   8.037   5.028   4.175
10258TIP3    H230720   7.897   5.084   4.178
10259TIP3   OH230721   0.510   6.954   1.322
10259TIP3    H130722   0.529   6.948   1.415
10259TIP3    H230723   0.589   6.991   1.284
10260TIP3   OH230724   7.245   6.919   2.510
10260TIP3    H130725   7.156   6.885   2.515
10260TIP3    H230726   7.278   6.913   2.599
10261TIP3   OH230727   1.967   5.856   5.692
10261TIP3    H130728   1.895   5.809   5.734
10261TIP3    H230729   2.046   5.810   5.719
10262TIP3   OH230730   5.084   5.289   2.914
10262TIP3    H130731   5.031   5.221   2.955
10262TIP3    H230732   5.171   5.251   2.908
10263TIP3   OH230733   7.210   4.233   4.621
10263TIP3    H130734   7.200   4.139   4.604
10263TIP3    H230735   7.176   4.245   4.710
10264TIP3   OH230736   1.516   2.302   5.677
10264TIP3    H130737   1.496   2.304   5.584
10264TIP3    H230738   1.610   2.286   5.682
10265TIP3   OH230739   1.058   5.597   6.359
10265TIP3    H130740   1.068   5.584   6.454
10265TIP3    H230741   1.004   5.675   6.352
10266TIP3   OH230742   5.492   5.375   3.664
10266TIP3    H130743   5.525   5.296   3.621
10266TIP3    H230744   5.427   5.411   3.603
10267TIP3   OH230745   4.998   3.820   6.804
10267TIP3    H130746   5.030   3.889   6.746
10267TIP3    H230747   5.074   3.763   6.818
10268TIP3   OH230748   0.283   2.735   5.199
10268TIP3    H130749   0.278   2.828   5.178
10268TIP3    H230750   0.204   2.717   5.250
10269TIP3   OH230751   5.655   3.914   3.499
10269TIP3    H130752   5.684   3.960   3.577
10269TIP3    H230753   5.700   3.958   3.427
10270TIP3   OH230754   8.202   4.887   0.318
10270TIP3    H130755   8.198   4.968   0.268
10270TIP3    H230756   8.214   4.915   0.409
10271TIP3   OH230757   7.358   5.660   0.815
10271TIP3    H130758   7.373   5.719   0.741
10271TIP3    H230759   7.441   5.613   0.826
10272TIP3   OH230760   1.526   2.995   5.188
10272TIP3    H130761   1.481   3.069   5.228
10272TIP3    H230762   1.573   2.954   5.261
10273TIP3   OH230763   7.624   2.035   3.640
10273TIP3    H130764   7.701   1.980   3.655
10273TIP3    H230765   7.636   2.110   3.697
10274TIP3   OH230766   4.694   0.356   6.271
10274TIP3    H130767   4.752   0.397   6.207
10274TIP3    H230768   4.681   0.267   6.238
10275TIP3   OH230769   2.014   7.331   1.368
10275TIP3    H130770   1.990   7.387   1.294
10275TIP3    H230771   2.064   7.389   1.426
10276TIP3   OH230772   4.113   7.185   3.651
10276TIP3    H130773   4.077   7.261   3.698
10276TIP3    H230774   4.144   7.221   3.568
10277TIP3   OH230775   5.145   6.473   2.591
10277TIP3    H130776   5.209   6.432   2.532
10277TIP3    H230777   5.190   6.551   2.624
10278TIP3   OH230778   5.520   1.182   4.770
10278TIP3    H130779   5.443   1.234   4.789
10278TIP3    H230780   5.539   1.199   4.678
10279TIP3   OH230781   8.276   7.567   5.798
10279TIP3    H130782   8.293   7.542   5.889
10279TIP3    H230783   8.261   7.484   5.754
10280TIP3   OH230784   3.517   3.251   1.999
10280TIP3    H130785   3.606   3.285   2.010
10280TIP3    H230786   3.470   3.282   2.076
10281TIP3   OH230787   0.732   3.529   2.895
10281TIP3    H130788   0.669   3.572   2.838
10281TIP3    H230789   0.815   3.532   2.846
10282TIP3   OH230790   1.002   0.702   1.161
10282TIP3    H130791   0.909   0.717   1.174
10282TIP3    H230792   1.007   0.646   1.083
10283TIP3   OH230793   5.705   5.481   3.363
10283TIP3    H130794   5.785   5.438   3.393
10283TIP3    H230795   5.680   5.538   3.435
10284TIP3   OH230796   4.421   2.673   2.362
10284TIP3    H130797   4.456   2.654   2.274
10284TIP3    H230798   4.356   2.604   2.377
10285TIP3   OH230799   7.870   1.200   3.555
10285TIP3    H130800   7.912   1.136   3.613
10285TIP3    H230801   7.894   1.285   3.592
10286TIP3   OH230802   0.687   2.048   1.906
10286TIP3    H130803   0.767   2.016   1.947
10286TIP3    H230804   0.618   2.029   1.970
10287TIP3   OH230805   6.271   6.344   1.759
10287TIP3    H130806   6.236   6.306   1.840
10287TIP3    H230807   6.219   6.303   1.690
10288TIP3   OH230808   0.187   5.263   3.152
10288TIP3    H130809   0.172   5.216   3.233
10288TIP3    H230810   0.208   5.195   3.088
10289TIP3   OH230811   1.440   1.365   5.403
10289TIP3    H130812   1.534   1.367   5.384
10289TIP3    H230813   1.403   1.311   5.333
10290TIP3   OH230814   7.558   4.606   0.880
10290TIP3    H130815   7.528   4.521   0.911
10290TIP3    H230816   7.630   4.587   0.821
10291TIP3   OH230817   1.680   0.034   4.474
10291TIP3    H130818   1.736   0.078   4.409
10291TIP3    H230819   1.594   0.029   4.432
10292TIP3   OH230820   4.438   4.324   4.358
10292TIP3    H130821   4.402   4.235   4.353
10292TIP3    H230822   4.533   4.312   4.352
10293TIP3   OH230823   2.321   5.647   4.097
10293TIP3    H130824   2.389   5.714   4.092
10293TIP3    H230825   2.263   5.667   4.024
10294TIP3   OH230826   1.925   7.472   6.457
10294TIP3    H130827   1.903   7.379   6.457
10294TIP3    H230828   1.924   7.497   6.549
10295TIP3   OH230829   4.130   1.944   6.177
10295TIP3    H130830   4.212   1.972   6.137
10295TIP3    H230831   4.097   2.021   6.223
10296TIP3   OH230832   3.082   5.487   1.026
10296TIP3    H130833   3.013   5.421   1.029
10296TIP3    H230834   3.041   5.563   0.985
10297TIP3   OH230835   6.476   2.419   5.422
10297TIP3    H130836   6.504   2.353   5.485
10297TIP3    H230837   6.483   2.375   5.337
10298TIP3   OH230838   0.000   1.646   1.760
10298TIP3    H130839   0.086   1.677   1.788
10298TIP3    H230840  -0.013   1.565   1.810
10299TIP3   OH230841   6.064   1.685   1.409
10299TIP3    H130842   6.157   1.684   1.387
10299TIP3    H230843   6.060   1.708   1.501
10300TIP3   OH230844   7.237   0.046   0.999
10300TIP3    H130845   7.274   0.124   1.040
10300TIP3    H230846   7.191   0.001   1.070
10301TIP3   OH230847   4.415   4.485   4.626
10301TIP3    H130848   4.441   4.455   4.539
10301TIP3    H230849   4.323   4.460   4.633
10302TIP3   OH230850   3.271   4.860   4.589
10302TIP3    H130851   3.239   4.848   4.500
10302TIP3    H230852   3.364   4.878   4.580
10303TIP3   OH230853   7.343   2.842   3.575
10303TIP3    H130854   7.353   2.760   3.622
10303TIP3    H230855   7.432   2.876   3.566
10304TIP3   OH230856   3.351   4.454   2.837
10304TIP3    H130857   3.396   4.533   2.807
10304TIP3    H230858   3.280   4.442   2.773
10305TIP3   OH230859   5.569   7.642   5.022
10305TIP3    H130860   5.634   7.619   4.955
10305TIP3    H230861   5.509   7.567   5.024
10306TIP3   OH230862   8.234   2.574   0.342
10306TIP3    H130863   8.146   2.580   0.307
10306TIP3    H230864   8.275   2.657   0.319
10307TIP3   OH230865   7.431   1.702   3.383
10307TIP3    H130866   7.442   1.792   3.412
10307TIP3    H230867   7.388   1.709   3.298
10308TIP3   OH230868   7.476   4.270   4.022
10308TIP3    H130869   7.498   4.277   3.929
10308TIP3    H230870   7.414   4.342   4.037
10309TIP3   OH230871   6.517   2.419   0.797
10309TIP3    H130872   6.585   2.484   0.814
10309TIP3    H230873   6.456   2.463   0.738
10310TIP3   OH230874   5.544   4.033   0.775
10310TIP3    H130875   5.513   3.951   0.812
10310TIP3    H230876   5.523   4.027   0.682
10311TIP3   OH230877   1.786   0.011   3.170
10311TIP3    H130878   1.801  -0.066   3.115
10311TIP3    H230879   1.854   0.073   3.142
10312TIP3   OH230880   4.161   1.728   3.645
10312TIP3    H130881   4.207   1.672   3.707
10312TIP3    H230882   4.070   1.727   3.675
10313TIP3   OH230883   0.236   2.889   3.803
10313TIP3    H130884   0.209   2.841   3.881
10313TIP3    H230885   0.268   2.973   3.835
10314TIP3   OH230886   0.852   2.640   2.832
10314TIP3    H130887   0.828   2.717   2.883
10314TIP3    H230888   0.793   2.642   2.756
10315TIP3   OH230889   2.787   2.934   5.972
10315TIP3    H130890   2.790   2.862   5.908
10315TIP3    H230891   2.795   3.013   5.918
10316TIP3   OH230892   7.579   7.201   2.301
10316TIP3    H130893   7.641   7.231   2.368
10316TIP3    H230894   7.577   7.271   2.236
10317TIP3   OH230895   2.680   5.411   1.313
10317TIP3    H130896   2.644   5.481   1.368
10317TIP3    H230897   2.682   5.448   1.225
10318TIP3   OH230898   2.720   4.559   0.521
10318TIP3    H130899   2.797   4.502   0.510
10318TIP3    H230900   2.701   4.590   0.433
10319TIP3   OH230901   4.823   1.416   1.638
10319TIP3    H130902   4.833   1.364   1.559
10319TIP3    H230903   4.903   1.469   1.642
10320TIP3   OH230904   3.401   0.805   6.148
10320TIP3    H130905   3.470   0.801   6.215
10320TIP3    H230906   3.443   0.774   6.068
10321TIP3   OH230907   6.468   1.745   1.640
10321TIP3    H130908   6.537   1.687   1.608
10321TIP3    H230909   6.389   1.715   1.595
10322TIP3   OH230910   6.983   4.856   2.790
10322TIP3    H130911   7.020   4.944   2.796
10322TIP3    H230912   6.933   4.845   2.871
10323TIP3   OH230913   1.398   6.022   4.941
10323TIP3    H130914   1.308   6.001   4.915
10323TIP3    H230915   1.449   5.946   4.913
10324TIP3   OH230916   2.523   0.603   5.825
10324TIP3    H130917   2.586   0.646   5.767
10324TIP3    H230918   2.576   0.564   5.894
10325TIP3   OH230919   4.381   6.056   3.102
10325TIP3    H130920   4.475   6.062   3.122
10325TIP3    H230921   4.361   5.963   3.109
10326TIP3   OH230922   2.467   2.974   2.223
10326TIP3    H130923   2.480   2.951   2.131
10326TIP3    H230924   2.429   2.895   2.262
10327TIP3   OH230925   0.662   2.937   1.594
10327TIP3    H130926   0.588   2.885   1.625
10327TIP3    H230927   0.641   2.959   1.504
10328TIP3   OH230928   7.134   1.025   4.648
10328TIP3    H130929   7.146   1.118   4.630
10328TIP3    H230930   7.044   1.007   4.624
10329TIP3   OH230931   0.872   1.018   3.711
10329TIP3    H130932   0.821   1.098   3.697
10329TIP3    H230933   0.948   1.047   3.760
10330TIP3   OH230934   5.144   6.615   0.529
10330TIP3    H130935   5.104   6.573   0.604
10330TIP3    H230936   5.134   6.709   0.546
10331TIP3   OH230937   4.438   7.355   5.670
10331TIP3    H130938   4.521   7.316   5.643
10331TIP3    H230939   4.371   7.298   5.631
10332TIP3   OH230940   7.069   3.123   3.968
10332TIP3    H130941   7.013   3.197   3.992
10332TIP3    H230942   7.117   3.102   4.048
10333TIP3   OH230943   3.365   6.765   3.487
10333TIP3    H130944   3.272   6.757   3.469
10333TIP3    H230945   3.392   6.845   3.441
10334TIP3   OH230946   1.011   5.807   5.199
10334TIP3    H130947   0.917   5.822   5.208
10334TIP3    H230948   1.049   5.895   5.196
10335TIP3   OH230949   1.067   3.820   3.141
10335TIP3    H130950   1.006   3.879   3.184
10335TIP3    H230951   1.104   3.872   3.069
10336TIP3   OH230952   7.710   6.112   4.778
10336TIP3    H130953   7.615   6.099   4.777
10336TIP3    H230954   7.739   6.076   4.862
10337TIP3   OH230955   0.724   3.998   5.412
10337TIP3    H130956   0.730   4.086   5.373
10337TIP3    H230957   0.795   3.949   5.370
10338TIP3   OH230958   2.898   3.188   0.735
10338TIP3    H130959   2.866   3.172   0.824
10338TIP3    H230960   2.825   3.232   0.692
10339TIP3   OH230961   7.489   1.845   3.911
10339TIP3    H130962   7.457   1.768   3.862
10339TIP3    H230963   7.568   1.872   3.865
10340TIP3   OH230964   0.776   3.258   4.581
10340TIP3    H130965   0.688   3.250   4.619
10340TIP3    H230966   0.828   3.298   4.651
10341TIP3   OH230967   4.549   6.653   2.839
10341TIP3    H130968   4.624   6.613   2.795
10341TIP3    H230969   4.521   6.587   2.903
10342TIP3   OH230970   5.111   3.982   3.746
10342TIP3    H130971   5.205   3.993   3.730
10342TIP3    H230972   5.069   4.047   3.689
10343TIP3   OH230973   0.452   6.306   6.453
10343TIP3    H130974   0.374   6.330   6.503
10343TIP3    H230975   0.426   6.228   6.404
10344TIP3   OH230976   0.606   4.924   3.070
10344TIP3    H130977   0.564   5.009   3.067
10344TIP3    H230978   0.699   4.943   3.081
10345TIP3   OH230979   5.692   1.253   1.599
10345TIP3    H130980   5.729   1.192   1.663
10345TIP3    H230981   5.756   1.323   1.591
10346TIP3   OH230982   0.454   6.580   5.084
10346TIP3    H130983   0.365   6.561   5.113
10346TIP3    H230984   0.507   6.575   5.164
10347TIP3   OH230985   5.465   1.947   0.340
10347TIP3    H130986   5.467   1.992   0.256
10347TIP3    H230987   5.479   2.016   0.405
10348TIP3   OH230988   2.809   1.366   2.336
10348TIP3    H130989   2.761   1.331   2.260
10348TIP3    H230990   2.753   1.436   2.369
10349TIP3   OH230991   5.286   5.670   1.054
10349TIP3    H130992   5.231   5.678   0.976
10349TIP3    H230993   5.279   5.756   1.097
10350TIP3   OH230994   3.168   6.525   3.165
10350TIP3    H130995   3.206   6.529   3.253
10350TIP3    H230996   3.223   6.463   3.118
10351TIP3   OH230997   2.072   4.804   0.427
10351TIP3    H130998   2.078   4.725   0.372
10351TIP3    H230999   2.159   4.843   0.422
10352TIP3   OH231000   7.433   6.907   1.087
10352TIP3    H131001   7.479   6.967   1.147
10352TIP3    H231002   7.419   6.828   1.139
10353TIP3   OH231003   1.714   5.980   3.298
10353TIP3    H131004   1.645   5.998   3.363
10353TIP3    H231005   1.779   5.930   3.346
10354TIP3   OH231006   6.515   4.676   0.896
10354TIP3    H131007   6.480   4.625   0.822
10354TIP3    H231008   6.437   4.699   0.947
10355TIP3   OH231009   6.094   7.758   2.826
10355TIP3    H131010   6.077   7.679   2.774
10355TIP3    H231011   6.152   7.810   2.771
10356TIP3   OH231012   1.462   0.526   4.574
10356TIP3    H131013   1.410   0.540   4.653
10356TIP3    H231014   1.419   0.453   4.530
10357TIP3   OH231015   3.254   2.969   4.214
10357TIP3    H131016   3.293   2.886   4.188
10357TIP3    H231017   3.290   3.033   4.152
10358TIP3   OH231018   3.140   2.930   6.704
10358TIP3    H131019   3.095   2.911   6.787
10358TIP3    H231020   3.230   2.949   6.729
10359TIP3   OH231021   2.653   3.046   1.206
10359TIP3    H131022   2.606   2.987   1.265
10359TIP3    H231023   2.738   3.060   1.249
10360TIP3   OH231024   5.503   1.590   4.848
10360TIP3    H131025   5.513   1.521   4.914
10360TIP3    H231026   5.536   1.550   4.767
10361TIP3   OH231027   2.867   0.225   0.711
10361TIP3    H131028   2.906   0.278   0.780
10361TIP3    H231029   2.942   0.192   0.661
10362TIP3   OH231030   2.466   5.917   6.341
10362TIP3    H131031   2.478   5.873   6.425
10362TIP3    H231032   2.491   6.008   6.359
10363TIP3   OH231033   5.002   5.552   4.644
10363TIP3    H131034   4.932   5.579   4.584
10363TIP3    H231035   4.959   5.547   4.730
10364TIP3   OH231036   1.905   3.706   5.822
10364TIP3    H131037   1.988   3.659   5.831
10364TIP3    H231038   1.848   3.665   5.888
10365TIP3   OH231039   2.799   4.733   5.107
10365TIP3    H131040   2.887   4.722   5.142
10365TIP3    H231041   2.770   4.644   5.086
10366TIP3   OH231042   7.844   6.283   0.743
10366TIP3    H131043   7.750   6.302   0.739
10366TIP3    H231044   7.866   6.249   0.657
10367TIP3   OH231045   0.409   4.651   5.032
10367TIP3    H131046   0.500   4.681   5.032
10367TIP3    H231047   0.404   4.592   5.108
10368TIP3   OH231048   3.090   0.335   3.194
10368TIP3    H131049   3.107   0.302   3.106
10368TIP3    H231050   3.051   0.421   3.181
10369TIP3   OH231051   0.606   5.049   4.761
10369TIP3    H131052   0.669   5.101   4.712
10369TIP3    H231053   0.539   5.026   4.696
10370TIP3   OH231054   7.968   5.399   3.512
10370TIP3    H131055   8.034   5.449   3.561
10370TIP3    H231056   8.018   5.350   3.447
10371TIP3   OH231057   3.843   4.910   1.654
10371TIP3    H131058   3.849   4.845   1.584
10371TIP3    H231059   3.750   4.933   1.659
10372TIP3   OH231060   3.570   7.565   0.138
10372TIP3    H131061   3.559   7.591   0.230
10372TIP3    H231062   3.612   7.479   0.142
10373TIP3   OH231063   0.946   5.004   1.639
10373TIP3    H131064   0.948   4.973   1.548
10373TIP3    H231065   0.955   4.925   1.692
10374TIP3   OH231066   4.619   7.057   1.312
10374TIP3    H131067   4.601   7.080   1.221
10374TIP3    H231068   4.543   7.089   1.360
10375TIP3   OH231069   4.177   1.302   3.810
10375TIP3    H131070   4.083   1.286   3.806
10375TIP3    H231071   4.211   1.266   3.728
10376TIP3   OH231072   6.037   0.822   6.681
10376TIP3    H131073   6.067   0.789   6.766
10376TIP3    H231074   6.012   0.743   6.632
10377TIP3   OH231075   0.789   1.133   3.369
10377TIP3    H131076   0.805   1.136   3.275
10377TIP3    H231077   0.727   1.204   3.385
10378TIP3   OH231078   5.306   0.658   6.662
10378TIP3    H131079   5.358   0.681   6.739
10378TIP3    H231080   5.254   0.583   6.690
10379TIP3   OH231081   5.564   5.448   4.465
10379TIP3    H131082   5.538   5.482   4.551
10379TIP3    H231083   5.495   5.387   4.441
10380TIP3   OH231084   0.539   2.436   4.448
10380TIP3    H131085   0.586   2.390   4.518
10380TIP3    H231086   0.459   2.385   4.436
10381TIP3   OH231087   2.912   5.195   6.024
10381TIP3    H131088   2.854   5.122   6.000
10381TIP3    H231089   2.874   5.230   6.105
10382TIP3   OH231090   0.467   4.233   2.217
10382TIP3    H131091   0.387   4.265   2.259
10382TIP3    H231092   0.536   4.291   2.249
10383TIP3   OH231093   5.230   3.486   2.609
10383TIP3    H131094   5.249   3.476   2.703
10383TIP3    H231095   5.265   3.573   2.587
10384TIP3   OH231096   5.696   1.040   5.075
10384TIP3    H131097   5.707   1.111   5.138
10384TIP3    H231098   5.742   0.966   5.114
10385TIP3   OH231099   6.488   2.124   6.465
10385TIP3    H131100   6.440   2.198   6.430
10385TIP3    H231101   6.458   2.117   6.556
10386TIP3   OH231102   3.518   1.032   4.975
10386TIP3    H131103   3.494   0.940   4.990
10386TIP3    H231104   3.553   1.034   4.886
10387TIP3   OH231105   1.127   1.348   2.994
10387TIP3    H131106   1.077   1.339   3.075
10387TIP3    H231107   1.062   1.344   2.924
10388TIP3   OH231108   1.610   0.777   1.721
10388TIP3    H131109   1.538   0.715   1.735
10388TIP3    H231110   1.624   0.818   1.806
10389TIP3   OH231111   4.812   7.709   1.108
10389TIP3    H131112   4.854   7.725   1.193
10389TIP3    H231113   4.753   7.636   1.124
10390TIP3   OH231114   7.567   0.587   3.673
10390TIP3    H131115   7.638   0.538   3.631
10390TIP3    H231116   7.601   0.676   3.679
10391TIP3   OH231117   0.520   7.661   1.409
10391TIP3    H131118   0.516   7.739   1.465
10391TIP3    H231119   0.543   7.696   1.323
10392TIP3   OH231120   2.002   0.229   4.920
10392TIP3    H131121   1.906   0.232   4.927
10392TIP3    H231122   2.029   0.320   4.932
10393TIP3   OH231123   3.765   6.769   5.518
10393TIP3    H131124   3.808   6.759   5.433
10393TIP3    H231125   3.672   6.781   5.498
10394TIP3   OH231126   5.199   5.491   5.493
10394TIP3    H131127   5.130   5.545   5.454
10394TIP3    H231128   5.159   5.455   5.573
10395TIP3   OH231129   1.378   7.160   1.567
10395TIP3    H131130   1.311   7.111   1.616
10395TIP3    H231131   1.453   7.163   1.627
10396TIP3   OH231132   4.832   2.773   6.716
10396TIP3    H131133   4.746   2.796   6.750
10396TIP3    H231134   4.888   2.767   6.793
10397TIP3   OH231135   3.510   0.224   0.459
10397TIP3    H131136   3.489   0.135   0.434
10397TIP3    H231137   3.447   0.245   0.528
10398TIP3   OH231138   7.925   4.645   5.796
10398TIP3    H131139   7.831   4.630   5.783
10398TIP3    H231140   7.939   4.735   5.765
10399TIP3   OH231141   0.419   5.049   4.302
10399TIP3    H131142   0.400   4.981   4.236
10399TIP3    H231143   0.509   5.075   4.284
10400TIP3   OH231144   5.193   5.379   0.254
10400TIP3    H131145   5.207   5.284   0.261
10400TIP3    H231146   5.254   5.406   0.185
10401TIP3   OH231147   0.464   1.931   3.311
10401TIP3    H131148   0.463   1.857   3.371
10401TIP3    H231149   0.487   1.893   3.226
10402TIP3   OH231150   6.842   3.291   0.802
10402TIP3    H131151   6.881   3.271   0.887
10402TIP3    H231152   6.865   3.216   0.747
10403TIP3   OH231153   7.268   3.078   4.143
10403TIP3    H131154   7.332   3.136   4.185
10403TIP3    H231155   7.322   3.020   4.089
10404TIP3   OH231156   3.190   1.174   5.661
10404TIP3    H131157   3.124   1.122   5.614
10404TIP3    H231158   3.139   1.229   5.720
10405TIP3   OH231159   3.995   3.015   2.555
10405TIP3    H131160   4.050   2.982   2.484
10405TIP3    H231161   3.924   2.952   2.562
10406TIP3   OH231162   6.618   0.222   3.165
10406TIP3    H131163   6.678   0.229   3.090
10406TIP3    H231164   6.675   0.233   3.241
10407TIP3   OH231165   2.134   5.365   1.011
10407TIP3    H131166   2.131   5.329   0.922
10407TIP3    H231167   2.224   5.353   1.038
10408TIP3   OH231168   4.621   0.592   3.568
10408TIP3    H131169   4.579   0.562   3.487
10408TIP3    H231170   4.549   0.615   3.626
10409TIP3   OH231171   3.763   6.797   3.891
10409TIP3    H131172   3.791   6.880   3.855
10409TIP3    H231173   3.680   6.778   3.847
10410TIP3   OH231174   6.302   6.315   4.226
10410TIP3    H131175   6.263   6.400   4.205
10410TIP3    H231176   6.235   6.252   4.202
10411TIP3   OH231177   4.906   4.603   6.384
10411TIP3    H131178   4.966   4.532   6.404
10411TIP3    H231179   4.851   4.570   6.312
10412TIP3   OH231180   3.716   0.643   0.606
10412TIP3    H131181   3.770   0.575   0.565
10412TIP3    H231182   3.628   0.606   0.608
10413TIP3   OH231183   8.015   0.302   5.733
10413TIP3    H131184   7.989   0.213   5.757
10413TIP3    H231185   7.961   0.359   5.788
10414TIP3   OH231186   8.034   5.270   1.292
10414TIP3    H131187   7.969   5.207   1.262
10414TIP3    H231188   8.081   5.224   1.362
10415TIP3   OH231189   8.065   6.483   0.079
10415TIP3    H131190   7.977   6.469   0.115
10415TIP3    H231191   8.051   6.493  -0.015
10416TIP3   OH231192   5.042   2.586   1.865
10416TIP3    H131193   5.109   2.649   1.837
10416TIP3    H231194   5.072   2.555   1.950
10417TIP3   OH231195   3.276   3.028   3.495
10417TIP3    H131196   3.260   2.936   3.518
10417TIP3    H231197   3.297   3.070   3.578
10418TIP3   OH231198   0.673   7.604   2.426
10418TIP3    H131199   0.631   7.684   2.457
10418TIP3    H231200   0.660   7.605   2.331
10419TIP3   OH231201   7.367   4.586   2.237
10419TIP3    H131202   7.305   4.514   2.236
10419TIP3    H231203   7.314   4.663   2.256
10420TIP3   OH231204   1.959   5.951   0.966
10420TIP3    H131205   2.027   5.940   0.899
10420TIP3    H231206   1.884   5.904   0.930
10421TIP3   OH231207   2.779   0.525   2.101
10421TIP3    H131208   2.749   0.597   2.045
10421TIP3    H231209   2.786   0.563   2.188
10422TIP3   OH231210   1.888   4.357   1.157
10422TIP3    H131211   1.812   4.304   1.132
10422TIP3    H231212   1.961   4.295   1.158
10423TIP3   OH231213   1.899   3.669   3.737
10423TIP3    H131214   1.932   3.716   3.660
10423TIP3    H231215   1.860   3.589   3.702
10424TIP3   OH231216   5.717   6.480   0.640
10424TIP3    H131217   5.673   6.538   0.702
10424TIP3    H231218   5.721   6.531   0.559
10425TIP3   OH231219   4.765   0.458   4.874
10425TIP3    H131220   4.757   0.508   4.793
10425TIP3    H231221   4.731   0.517   4.941
10426TIP3   OH231222   1.808   6.243   6.792
10426TIP3    H131223   1.746   6.185   6.748
10426TIP3    H231224   1.885   6.242   6.736
10427TIP3   OH231225   6.360   4.391   6.197
10427TIP3    H131226   6.347   4.421   6.287
10427TIP3    H231227   6.422   4.453   6.159
10428TIP3   OH231228   4.787   3.434   0.868
10428TIP3    H131229   4.712   3.492   0.859
10428TIP3    H231230   4.775   3.392   0.954
10429TIP3   OH231231   0.961   6.978   2.971
10429TIP3    H131232   1.040   6.938   2.935
10429TIP3    H231233   0.965   7.069   2.943
10430TIP3   OH231234   1.275   2.201   2.100
10430TIP3    H131235   1.242   2.119   2.137
10430TIP3    H231236   1.367   2.203   2.125
10431TIP3   OH231237   4.453   1.342   6.562
10431TIP3    H131238   4.514   1.274   6.530
10431TIP3    H231239   4.402   1.366   6.485
10432TIP3   OH231240   6.405   1.849   5.501
10432TIP3    H131241   6.491   1.858   5.543
10432TIP3    H231242   6.346   1.902   5.554
10433TIP3   OH231243   4.644   0.509   2.504
10433TIP3    H131244   4.598   0.467   2.431
10433TIP3    H231245   4.598   0.478   2.582
10434TIP3   OH231246   7.009   2.612   1.151
10434TIP3    H131247   7.071   2.657   1.209
10434TIP3    H231248   7.049   2.619   1.064
10435TIP3   OH231249   8.133   0.506   3.707
10435TIP3    H131250   8.151   0.481   3.798
10435TIP3    H231251   8.219   0.526   3.671
10436TIP3   OH231252   2.385   1.698   0.172
10436TIP3    H131253   2.386   1.638   0.247
10436TIP3    H231254   2.350   1.647   0.100
10437TIP3   OH231255   0.324   0.187   2.888
10437TIP3    H131256   0.252   0.218   2.943
10437TIP3    H231257   0.306   0.094   2.875
10438TIP3   OH231258   3.023   4.084   0.512
10438TIP3    H131259   2.995   4.009   0.459
10438TIP3    H231260   3.033   4.155   0.450
10439TIP3   OH231261   1.963   1.089   2.587
10439TIP3    H131262   1.979   1.098   2.493
10439TIP3    H231263   1.980   1.175   2.623
10440TIP3   OH231264   0.918   4.812   1.444
10440TIP3    H131265   0.922   4.747   1.374
10440TIP3    H231266   0.834   4.796   1.487
10441TIP3   OH231267   6.916   3.708   0.370
10441TIP3    H131268   6.940   3.662   0.290
10441TIP3    H231269   6.829   3.744   0.352
10442TIP3   OH231270   0.168   4.422   5.678
10442TIP3    H131271   0.086   4.444   5.722
10442TIP3    H231272   0.216   4.505   5.673
10443TIP3   OH231273   7.588   4.857   5.335
10443TIP3    H131274   7.684   4.857   5.329
10443TIP3    H231275   7.559   4.829   5.248
10444TIP3   OH231276   1.324   4.785   1.942
10444TIP3    H131277   1.262   4.822   2.005
10444TIP3    H231278   1.287   4.700   1.920
10445TIP3   OH231279   3.568   5.786   0.729
10445TIP3    H131280   3.488   5.795   0.677
10445TIP3    H231281   3.537   5.792   0.820
10446TIP3   OH231282   6.890   5.494   3.927
10446TIP3    H131283   6.796   5.504   3.943
10446TIP3    H231284   6.916   5.578   3.889
10447TIP3   OH231285   6.127   4.250   6.237
10447TIP3    H131286   6.097   4.326   6.286
10447TIP3    H231287   6.208   4.278   6.195
10448TIP3   OH231288   3.787   7.645   6.600
10448TIP3    H131289   3.732   7.723   6.608
10448TIP3    H231290   3.873   7.674   6.629
10449TIP3   OH231291   5.432   5.352   5.582
10449TIP3    H131292   5.474   5.343   5.497
10449TIP3    H231293   5.341   5.376   5.562
10450TIP3   OH231294   7.483   1.128   2.896
10450TIP3    H131295   7.433   1.146   2.817
10450TIP3    H231296   7.463   1.037   2.918
10451TIP3   OH231297   4.813   5.737   5.931
10451TIP3    H131298   4.820   5.830   5.910
10451TIP3    H231299   4.850   5.692   5.856
10452TIP3   OH231300   3.556   5.163   5.339
10452TIP3    H131301   3.601   5.209   5.410
10452TIP3    H231302   3.470   5.141   5.375
10453TIP3   OH231303   5.775   4.474   0.491
10453TIP3    H131304   5.799   4.382   0.478
10453TIP3    H231305   5.847   4.523   0.451
10454TIP3   OH231306   4.071   4.461   0.241
10454TIP3    H131307   4.035   4.379   0.274
10454TIP3    H231308   4.018   4.529   0.281
10455TIP3   OH231309   1.518   3.216   4.998
10455TIP3    H131310   1.541   3.153   5.066
10455TIP3    H231311   1.565   3.296   5.022
10456TIP3   OH231312   2.876   6.522   3.136
10456TIP3    H131313   2.972   6.517   3.135
10456TIP3    H231314   2.849   6.478   3.056
10457TIP3   OH231315   8.262   1.784   0.243
10457TIP3    H131316   8.212   1.761   0.322
10457TIP3    H231317   8.247   1.711   0.184
10458TIP3   OH231318   4.200   6.912   3.731
10458TIP3    H131319   4.211   7.005   3.750
10458TIP3    H231320   4.224   6.903   3.639
10459TIP3   OH231321   4.135   1.785   2.496
10459TIP3    H131322   4.073   1.843   2.451
10459TIP3    H231323   4.179   1.737   2.426
10460TIP3   OH231324   5.316   2.636   4.250
10460TIP3    H131325   5.333   2.693   4.324
10460TIP3    H231326   5.220   2.637   4.240
10461TIP3   OH231327   4.856   6.509   2.108
10461TIP3    H131328   4.808   6.488   2.189
10461TIP3    H231329   4.860   6.605   2.108
10462TIP3   OH231330   0.394   6.628   5.986
10462TIP3    H131331   0.361   6.646   5.898
10462TIP3    H231332   0.489   6.620   5.974
10463TIP3   OH231333   4.894   4.821   6.074
10463TIP3    H131334   4.844   4.866   6.006
10463TIP3    H231335   4.985   4.830   6.045
10464TIP3   OH231336   3.167   0.045   1.220
10464TIP3    H131337   3.078   0.028   1.252
10464TIP3    H231338   3.157   0.120   1.161
10465TIP3   OH231339   1.256   4.440   4.345
10465TIP3    H131340   1.241   4.391   4.426
10465TIP3    H231341   1.168   4.456   4.310
10466TIP3   OH231342   4.592   2.378   2.086
10466TIP3    H131343   4.550   2.449   2.037
10466TIP3    H231344   4.534   2.303   2.077
10467TIP3   OH231345   3.184   0.512   0.554
10467TIP3    H131346   3.139   0.541   0.474
10467TIP3    H231347   3.119   0.458   0.599
10468TIP3   OH231348   0.765   2.469   5.119
10468TIP3    H131349   0.753   2.559   5.090
10468TIP3    H231350   0.705   2.459   5.193
10469TIP3   OH231351   8.307   5.091   4.570
10469TIP3    H131352   8.333   5.031   4.500
10469TIP3    H231353   8.238   5.044   4.617
10470TIP3   OH231354   1.732   6.780   6.125
10470TIP3    H131355   1.637   6.781   6.138
10470TIP3    H231356   1.743   6.772   6.030
10471TIP3   OH231357   7.561   1.376   4.491
10471TIP3    H131358   7.630   1.415   4.438
10471TIP3    H231359   7.524   1.308   4.435
10472TIP3   OH231360   4.232   4.027   5.749
10472TIP3    H131361   4.145   3.987   5.755
10472TIP3    H231362   4.220   4.116   5.781
10473TIP3   OH231363   6.737   3.157   1.780
10473TIP3    H131364   6.805   3.099   1.813
10473TIP3    H231365   6.736   3.231   1.840
10474TIP3   OH231366   6.492   4.962   3.005
10474TIP3    H131367   6.421   4.910   3.041
10474TIP3    H231368   6.561   4.957   3.071
10475TIP3   OH231369   4.257   1.380   2.269
10475TIP3    H131370   4.348   1.373   2.242
10475TIP3    H231371   4.244   1.306   2.328
10476TIP3   OH231372   1.931   1.193   0.770
10476TIP3    H131373   1.964   1.127   0.710
10476TIP3    H231374   1.876   1.250   0.716
10477TIP3   OH231375   6.730   1.789   5.055
10477TIP3    H131376   6.708   1.848   4.982
10477TIP3    H231377   6.701   1.703   5.025
10478TIP3   OH231378   1.362   5.361   1.418
10478TIP3    H131379   1.354   5.279   1.467
10478TIP3    H231380   1.298   5.420   1.459
10479TIP3   OH231381   3.244   6.240   5.068
10479TIP3    H131382   3.282   6.277   4.988
10479TIP3    H231383   3.308   6.174   5.096
10480TIP3   OH231384   6.894   3.414   5.006
10480TIP3    H131385   6.941   3.384   4.928
10480TIP3    H231386   6.810   3.443   4.973
10481TIP3   OH231387   1.537   1.732   3.193
10481TIP3    H131388   1.590   1.744   3.114
10481TIP3    H231389   1.466   1.674   3.165
10482TIP3   OH231390   6.771   6.813   3.163
10482TIP3    H131391   6.715   6.841   3.091
10482TIP3    H231392   6.733   6.853   3.241
10483TIP3   OH231393   5.795   6.353   3.725
10483TIP3    H131394   5.843   6.435   3.714
10483TIP3    H231395   5.705   6.374   3.700
10484TIP3   OH231396   2.463   0.949   1.760
10484TIP3    H131397   2.405   0.944   1.836
10484TIP3    H231398   2.419   1.010   1.701
10485TIP3   OH231399   6.096   2.230   5.845
10485TIP3    H131400   6.174   2.190   5.885
10485TIP3    H231401   6.123   2.250   5.755
10486TIP3   OH231402   4.142   7.570   1.572
10486TIP3    H131403   4.186   7.605   1.649
10486TIP3    H231404   4.213   7.536   1.517
10487TIP3   OH231405   1.542   1.761   4.415
10487TIP3    H131406   1.489   1.683   4.431
10487TIP3    H231407   1.628   1.727   4.388
10488TIP3   OH231408   4.263   6.002   0.282
10488TIP3    H131409   4.304   5.929   0.236
10488TIP3    H231410   4.307   6.080   0.247
10489TIP3   OH231411   7.304   5.149   1.695
10489TIP3    H131412   7.376   5.087   1.683
10489TIP3    H231413   7.236   5.099   1.741
10490TIP3   OH231414   5.756   4.798   5.501
10490TIP3    H131415   5.801   4.814   5.584
10490TIP3    H231416   5.664   4.788   5.524
10491TIP3   OH231417   2.519   4.567   1.011
10491TIP3    H131418   2.485   4.642   1.061
10491TIP3    H231419   2.612   4.563   1.034
10492TIP3   OH231420   6.068   6.056   1.265
10492TIP3    H131421   5.986   6.080   1.307
10492TIP3    H231422   6.116   6.139   1.256
10493TIP3   OH231423   2.089   3.047   0.994
10493TIP3    H131424   2.117   3.112   0.929
10493TIP3    H231425   2.109   2.963   0.953
10494TIP3   OH231426   0.631   1.590   3.022
10494TIP3    H131427   0.627   1.546   2.937
10494TIP3    H231428   0.687   1.666   3.008
10495TIP3   OH231429   0.147   0.269   3.531
10495TIP3    H131430   0.237   0.238   3.541
10495TIP3    H231431   0.105   0.203   3.476
10496TIP3   OH231432   5.410   2.030   1.943
10496TIP3    H131433   5.473   2.061   2.008
10496TIP3    H231434   5.337   2.091   1.948
10497TIP3   OH231435   4.096   3.535   0.752
10497TIP3    H131436   4.121   3.583   0.831
10497TIP3    H231437   4.172   3.540   0.694
10498TIP3   OH231438   4.323   1.835   5.069
10498TIP3    H131439   4.264   1.761   5.056
10498TIP3    H231440   4.381   1.833   4.992
10499TIP3   OH231441   0.558   1.560   6.725
10499TIP3    H131442   0.621   1.629   6.748
10499TIP3    H231443   0.555   1.561   6.629
10500TIP3   OH231444   5.414   2.597   3.770
10500TIP3    H131445   5.387   2.679   3.730
10500TIP3    H231446   5.400   2.610   3.864
10501TIP3   OH231447   0.499   4.267   3.805
10501TIP3    H131448   0.519   4.179   3.837
10501TIP3    H231449   0.418   4.292   3.849
10502TIP3   OH231450   2.287   6.613   1.108
10502TIP3    H131451   2.288   6.704   1.139
10502TIP3    H231452   2.372   6.578   1.136
10503TIP3   OH231453   8.005   3.422   1.058
10503TIP3    H131454   7.944   3.420   0.984
10503TIP3    H231455   7.961   3.475   1.124
10504TIP3   OH231456   7.525   6.100   6.602
10504TIP3    H131457   7.442   6.115   6.557
10504TIP3    H231458   7.532   6.173   6.664
10505TIP3   OH231459   0.526   6.914   5.766
10505TIP3    H131460   0.508   6.917   5.860
10505TIP3    H231461   0.585   6.839   5.755
10506TIP3   OH231462   4.448   2.855   1.083
10506TIP3    H131463   4.354   2.837   1.073
10506TIP3    H231464   4.458   2.881   1.174
10507TIP3   OH231465   5.913   2.899   3.955
10507TIP3    H131466   5.826   2.906   3.916
10507TIP3    H231467   5.900   2.844   4.033
10508TIP3   OH231468   0.281   6.940   0.377
10508TIP3    H131469   0.204   6.941   0.320
10508TIP3    H231470   0.306   7.032   0.385
10509TIP3   OH231471   0.108   7.216   2.062
10509TIP3    H131472   0.046   7.283   2.032
10509TIP3    H231473   0.166   7.263   2.121
10510TIP3   OH231474   5.149   1.417   2.535
10510TIP3    H131475   5.079   1.363   2.498
10510TIP3    H231476   5.170   1.480   2.467
10511TIP3   OH231477   0.137   1.718   2.975
10511TIP3    H131478   0.212   1.773   2.954
10511TIP3    H231479   0.107   1.751   3.060
10512TIP3   OH231480   7.073   4.733   6.252
10512TIP3    H131481   7.057   4.639   6.259
10512TIP3    H231482   6.988   4.771   6.231
10513TIP3   OH231483   0.722   3.785   2.417
10513TIP3    H131484   0.671   3.745   2.347
10513TIP3    H231485   0.812   3.783   2.386
10514TIP3   OH231486   2.053   2.566   3.473
10514TIP3    H131487   1.992   2.501   3.440
10514TIP3    H231488   2.133   2.516   3.493
10515TIP3   OH231489   7.630   1.183   2.490
10515TIP3    H131490   7.635   1.121   2.562
10515TIP3    H231491   7.626   1.269   2.532
10516TIP3   OH231492   4.699   5.582   3.237
10516TIP3    H131493   4.764   5.555   3.172
10516TIP3    H231494   4.705   5.515   3.306
10517TIP3   OH231495   3.795   7.346   1.207
10517TIP3    H131496   3.861   7.295   1.160
10517TIP3    H231497   3.834   7.361   1.293
10518TIP3   OH231498   8.036   3.118   0.096
10518TIP3    H131499   8.079   3.124   0.182
10518TIP3    H231500   7.990   3.201   0.087
10519TIP3   OH231501   3.064   1.665   2.393
10519TIP3    H131502   3.145   1.714   2.377
10519TIP3    H231503   3.039   1.690   2.482
10520TIP3   OH231504   2.138   4.710   0.858
10520TIP3    H131505   2.072   4.673   0.918
10520TIP3    H231506   2.219   4.712   0.909
10521TIP3   OH231507   0.859   7.483   4.179
10521TIP3    H131508   0.911   7.410   4.143
10521TIP3    H231509   0.780   7.484   4.127
10522TIP3   OH231510   7.288   7.824   3.432
10522TIP3    H131511   7.311   7.864   3.348
10522TIP3    H231512   7.348   7.750   3.441
10523TIP3   OH231513   3.057   5.501   6.591
10523TIP3    H131514   3.004   5.518   6.514
10523TIP3    H231515   3.086   5.587   6.621
10524TIP3   OH231516   1.186   1.639   4.229
10524TIP3    H131517   1.111   1.581   4.244
10524TIP3    H231518   1.247   1.586   4.178
10525TIP3   OH231519   7.571   2.976   3.557
10525TIP3    H131520   7.626   2.950   3.631
10525TIP3    H231521   7.584   3.071   3.548
10526TIP3   OH231522   3.180   4.095   2.934
10526TIP3    H131523   3.175   4.000   2.944
10526TIP3    H231524   3.256   4.110   2.878
10527TIP3   OH231525   1.300   0.415   4.769
10527TIP3    H131526   1.228   0.359   4.739
10527TIP3    H231527   1.310   0.394   4.862
10528TIP3   OH231528   2.287   7.137   2.853
10528TIP3    H131529   2.303   7.106   2.943
10528TIP3    H231530   2.245   7.064   2.809
10529TIP3   OH231531   5.791   5.182   3.847
10529TIP3    H131532   5.733   5.255   3.869
10529TIP3    H231533   5.825   5.204   3.760
10530TIP3   OH231534   5.275   3.247   0.499
10530TIP3    H131535   5.270   3.288   0.586
10530TIP3    H231536   5.337   3.176   0.509
10531TIP3   OH231537   4.493   3.261   5.740
10531TIP3    H131538   4.487   3.181   5.792
10531TIP3    H231539   4.450   3.327   5.793
10532TIP3   OH231540   6.710   7.015   6.078
10532TIP3    H131541   6.782   6.993   6.138
10532TIP3    H231542   6.638   7.042   6.135
10533TIP3   OH231543   5.624   1.477   4.621
10533TIP3    H131544   5.599   1.394   4.578
10533TIP3    H231545   5.702   1.505   4.573
10534TIP3   OH231546   5.473   7.113   4.749
10534TIP3    H131547   5.565   7.094   4.731
10534TIP3    H231548   5.467   7.110   4.845
10535TIP3   OH231549   7.368   2.067   0.892
10535TIP3    H131550   7.318   2.148   0.902
10535TIP3    H231551   7.347   2.016   0.971
10536TIP3   OH231552   6.733   4.211   6.268
10536TIP3    H131553   6.785   4.206   6.188
10536TIP3    H231554   6.646   4.183   6.242
10537TIP3   OH231555   3.268   2.054   6.474
10537TIP3    H131556   3.323   2.118   6.429
10537TIP3    H231557   3.329   1.989   6.509
10538TIP3   OH231558   1.719   0.022   6.663
10538TIP3    H131559   1.762  -0.032   6.729
10538TIP3    H231560   1.656   0.075   6.712
10539TIP3   OH231561   5.839   4.501   6.109
10539TIP3    H131562   5.910   4.523   6.169
10539TIP3    H231563   5.772   4.567   6.125
10540TIP3   OH231564   2.139   0.337   6.318
10540TIP3    H131565   2.156   0.243   6.326
10540TIP3    H231566   2.200   0.377   6.380
10541TIP3   OH231567   1.756   2.694   2.789
10541TIP3    H131568   1.759   2.786   2.815
10541TIP3    H231569   1.837   2.679   2.741
10542TIP3   OH231570   5.947   0.587   6.570
10542TIP3    H131571   5.934   0.632   6.486
10542TIP3    H231572   5.954   0.495   6.548
10543TIP3   OH231573   5.527   3.897   1.976
10543TIP3    H131574   5.614   3.871   2.008
10543TIP3    H231575   5.545   3.969   1.916
10544TIP3   OH231576   5.233   5.604   1.348
10544TIP3    H131577   5.317   5.612   1.302
10544TIP3    H231578   5.169   5.588   1.278
10545TIP3   OH231579   4.218   4.338   2.624
10545TIP3    H131580   4.192   4.423   2.660
10545TIP3    H231581   4.244   4.287   2.701
10546TIP3   OH231582   1.512   6.597   4.633
10546TIP3    H131583   1.552   6.635   4.555
10546TIP3    H231584   1.572   6.526   4.658
10547TIP3   OH231585   5.851   7.614   0.855
10547TIP3    H131586   5.812   7.529   0.874
10547TIP3    H231587   5.835   7.667   0.933
10548TIP3   OH231588   0.645   1.691   0.171
10548TIP3    H131589   0.701   1.749   0.120
10548TIP3    H231590   0.572   1.746   0.201
10549TIP3   OH231591   0.793   3.469   3.899
10549TIP3    H131592   0.827   3.379   3.893
10549TIP3    H231593   0.862   3.517   3.946
10550TIP3   OH231594   6.728   1.337   2.666
10550TIP3    H131595   6.679   1.256   2.648
10550TIP3    H231596   6.681   1.405   2.619
10551TIP3   OH231597   3.878   1.322   3.792
10551TIP3    H131598   3.815   1.281   3.851
10551TIP3    H231599   3.861   1.416   3.801
10552TIP3   OH231600   1.582   4.104   0.888
10552TIP3    H131601   1.506   4.060   0.851
10552TIP3    H231602   1.657   4.056   0.853
10553TIP3   OH231603   0.953   7.374   5.767
10553TIP3    H131604   0.903   7.447   5.730
10553TIP3    H231605   1.042   7.406   5.773
10554TIP3   OH231606   8.130   2.946   2.326
10554TIP3    H131607   8.165   2.910   2.408
10554TIP3    H231608   8.188   2.912   2.258
10555TIP3   OH231609   3.376   7.688   3.380
10555TIP3    H131610   3.452   7.731   3.340
10555TIP3    H231611   3.304   7.706   3.321
10556TIP3   OH231612   8.017   1.830   0.433
10556TIP3    H131613   7.927   1.852   0.411
10556TIP3    H231614   8.019   1.734   0.431
10557TIP3   OH231615   5.004   4.193   2.707
10557TIP3    H131616   4.949   4.117   2.691
10557TIP3    H231617   4.971   4.229   2.790
10558TIP3   OH231618   7.063   6.372   6.428
10558TIP3    H131619   7.034   6.438   6.365
10558TIP3    H231620   6.982   6.330   6.457
10559TIP3   OH231621   4.446   2.731   5.222
10559TIP3    H131622   4.431   2.785   5.299
10559TIP3    H231623   4.465   2.644   5.256
10560TIP3   OH231624   1.704   4.349   2.815
10560TIP3    H131625   1.693   4.323   2.724
10560TIP3    H231626   1.761   4.427   2.810
10561TIP3   OH231627   6.506   7.447   3.832
10561TIP3    H131628   6.530   7.533   3.866
10561TIP3    H231629   6.587   7.414   3.793
10562TIP3   OH231630   2.320   4.729   2.738
10562TIP3    H131631   2.288   4.780   2.813
10562TIP3    H231632   2.361   4.652   2.777
10563TIP3   OH231633   3.770   0.783   2.065
10563TIP3    H131634   3.699   0.846   2.069
10563TIP3    H231635   3.849   0.836   2.052
10564TIP3   OH231636   0.209   7.724   6.464
10564TIP3    H131637   0.118   7.716   6.436
10564TIP3    H231638   0.241   7.634   6.469
10565TIP3   OH231639   2.107   1.497   4.766
10565TIP3    H131640   2.063   1.573   4.727
10565TIP3    H231641   2.119   1.437   4.692
10566TIP3   OH231642   6.864   2.999   1.509
10566TIP3    H131643   6.819   2.919   1.534
10566TIP3    H231644   6.826   3.023   1.424
10567TIP3   OH231645   3.875   6.185   4.745
10567TIP3    H131646   3.915   6.230   4.671
10567TIP3    H231647   3.929   6.208   4.820
10568TIP3   OH231648   0.708   5.467   4.820
10568TIP3    H131649   0.747   5.433   4.900
10568TIP3    H231650   0.701   5.562   4.834
10569TIP3   OH231651   3.177   3.872   3.110
10569TIP3    H131652   3.218   3.787   3.123
10569TIP3    H231653   3.216   3.928   3.178
10570TIP3   OH231654   5.792   6.119   2.309
10570TIP3    H131655   5.752   6.041   2.347
10570TIP3    H231656   5.720   6.162   2.263
10571TIP3   OH231657   0.134   3.866   2.883
10571TIP3    H131658   0.141   3.906   2.970
10571TIP3    H231659   0.055   3.904   2.845
10572TIP3   OH231660   7.612   5.499   5.340
10572TIP3    H131661   7.677   5.508   5.270
10572TIP3    H231662   7.661   5.464   5.414
10573TIP3   OH231663   6.595   1.224   2.989
10573TIP3    H131664   6.626   1.251   2.903
10573TIP3    H231665   6.523   1.164   2.970
10574TIP3   OH231666   3.846   0.472   3.001
10574TIP3    H131667   3.826   0.378   2.999
10574TIP3    H231668   3.936   0.477   3.032
10575TIP3   OH231669   7.074   2.217   6.070
10575TIP3    H131670   7.118   2.139   6.037
10575TIP3    H231671   7.135   2.288   6.052
10576TIP3   OH231672   3.252   0.163   4.140
10576TIP3    H131673   3.215   0.135   4.224
10576TIP3    H231674   3.197   0.119   4.075
10577TIP3   OH231675   5.259   7.782   6.364
10577TIP3    H131676   5.351   7.793   6.389
10577TIP3    H231677   5.215   7.859   6.399
10578TIP3   OH231678   6.831   2.136   2.847
10578TIP3    H131679   6.871   2.162   2.764
10578TIP3    H231680   6.899   2.154   2.912
10579TIP3   OH231681   5.161   0.916   6.316
10579TIP3    H131682   5.221   0.985   6.343
10579TIP3    H231683   5.218   0.841   6.297
10580TIP3   OH231684   7.568   2.812   1.984
10580TIP3    H131685   7.508   2.878   2.020
10580TIP3    H231686   7.653   2.855   1.984
10581TIP3   OH231687   1.478   6.409   0.879
10581TIP3    H131688   1.411   6.474   0.901
10581TIP3    H231689   1.513   6.438   0.795
10582TIP3   OH231690   7.891   7.143   0.583
10582TIP3    H131691   7.895   7.224   0.634
10582TIP3    H231692   7.975   7.139   0.538
10583TIP3   OH231693   7.626   5.900   0.980
10583TIP3    H131694   7.676   5.836   0.929
10583TIP3    H231695   7.584   5.848   1.049
10584TIP3   OH231696   3.846   5.991   6.684
10584TIP3    H131697   3.900   5.933   6.740
10584TIP3    H231698   3.890   6.076   6.689
10585TIP3   OH231699   6.868   5.098   4.380
10585TIP3    H131700   6.835   5.187   4.368
10585TIP3    H231701   6.824   5.067   4.460
10586TIP3   OH231702   1.561   4.708   2.214
10586TIP3    H131703   1.519   4.793   2.202
10586TIP3    H231704   1.590   4.708   2.305
10587TIP3   OH231705   2.904   6.986   4.342
10587TIP3    H131706   2.939   6.910   4.390
10587TIP3    H231707   2.815   6.996   4.375
10588TIP3   OH231708   0.688   0.927   2.091
10588TIP3    H131709   0.654   0.862   2.153
10588TIP3    H231710   0.765   0.885   2.053
10589TIP3   OH231711   0.487   3.202   6.175
10589TIP3    H131712   0.443   3.117   6.170
10589TIP3    H231713   0.416   3.265   6.186
10590TIP3   OH231714   5.873   6.274   1.927
10590TIP3    H131715   5.840   6.291   1.839
10590TIP3    H231716   5.827   6.337   1.982
10591TIP3   OH231717   2.398   2.785   2.009
10591TIP3    H131718   2.329   2.845   1.984
10591TIP3    H231719   2.474   2.811   1.956
10592TIP3   OH231720   5.096   0.373   6.577
10592TIP3    H131721   5.188   0.350   6.595
10592TIP3    H231722   5.053   0.366   6.663
10593TIP3   OH231723   7.737   4.739   2.190
10593TIP3    H131724   7.735   4.778   2.277
10593TIP3    H231725   7.660   4.775   2.145
10594TIP3   OH231726   5.883   7.587   4.415
10594TIP3    H131727   5.855   7.603   4.325
10594TIP3    H231728   5.891   7.492   4.422
10595TIP3   OH231729   6.395   3.834   3.471
10595TIP3    H131730   6.350   3.788   3.400
10595TIP3    H231731   6.448   3.767   3.513
10596TIP3   OH231732   3.771   4.582   5.138
10596TIP3    H131733   3.812   4.535   5.066
10596TIP3    H231734   3.717   4.650   5.096
10597TIP3   OH231735   0.002   6.316   0.746
10597TIP3    H131736  -0.053   6.290   0.821
10597TIP3    H231737   0.008   6.411   0.752
10598TIP3   OH231738   2.644   5.064   1.155
10598TIP3    H131739   2.696   5.005   1.101
10598TIP3    H231740   2.699   5.081   1.232
10599TIP3   OH231741   1.599   4.169   3.737
10599TIP3    H131742   1.609   4.154   3.643
10599TIP3    H231743   1.669   4.118   3.777
10600TIP3   OH231744   2.693   7.374   1.322
10600TIP3    H131745   2.723   7.438   1.387
10600TIP3    H231746   2.755   7.302   1.331
10601TIP3   OH231747   0.388   3.938   1.682
10601TIP3    H131748   0.379   3.843   1.695
10601TIP3    H231749   0.312   3.976   1.725
10602TIP3   OH231750   1.521   3.374   4.268
10602TIP3    H131751   1.437   3.357   4.224
10602TIP3    H231752   1.568   3.291   4.262
10603TIP3   OH231753   1.145   3.250   2.272
10603TIP3    H131754   1.057   3.243   2.310
10603TIP3    H231755   1.140   3.327   2.215
10604TIP3   OH231756   1.093   0.857   6.732
10604TIP3    H131757   1.161   0.923   6.722
10604TIP3    H231758   1.034   0.893   6.798
10605TIP3   OH231759   7.802   2.325   5.886
10605TIP3    H131760   7.891   2.298   5.865
10605TIP3    H231761   7.758   2.243   5.910
10606TIP3   OH231762   7.610   6.104   2.380
10606TIP3    H131763   7.631   6.021   2.422
10606TIP3    H231764   7.547   6.081   2.311
10607TIP3   OH231765   4.429   4.370   4.062
10607TIP3    H131766   4.493   4.342   4.128
10607TIP3    H231767   4.379   4.439   4.105
10608TIP3   OH231768   7.360   4.738   4.114
10608TIP3    H131769   7.365   4.792   4.193
10608TIP3    H231770   7.274   4.696   4.119
10609TIP3   OH231771   3.246   1.523   2.587
10609TIP3    H131772   3.290   1.439   2.573
10609TIP3    H231773   3.191   1.534   2.509
10610TIP3   OH231774   6.804   4.920   5.821
10610TIP3    H131775   6.877   4.862   5.799
10610TIP3    H231776   6.744   4.912   5.747
10611TIP3   OH231777   3.816   3.426   0.915
10611TIP3    H131778   3.740   3.439   0.973
10611TIP3    H231779   3.870   3.503   0.930
10612TIP3   OH231780   0.562   6.034   6.128
10612TIP3    H131781   0.631   6.001   6.184
10612TIP3    H231782   0.604   6.046   6.043
10613TIP3   OH231783   6.990   7.342   0.087
10613TIP3    H131784   6.980   7.321   0.180
10613TIP3    H231785   6.916   7.298   0.044
10614TIP3   OH231786   6.215   6.721   0.739
10614TIP3    H131787   6.211   6.801   0.687
10614TIP3    H231788   6.169   6.655   0.687
10615TIP3   OH231789   3.404   1.363   6.304
10615TIP3    H131790   3.363   1.379   6.219
10615TIP3    H231791   3.338   1.390   6.368
10616TIP3   OH231792   6.967   2.179   2.129
10616TIP3    H131793   6.896   2.242   2.140
10616TIP3    H231794   6.975   2.136   2.214
10617TIP3   OH231795   0.841   4.074   5.775
10617TIP3    H131796   0.895   4.135   5.824
10617TIP3    H231797   0.853   4.099   5.683
10618TIP3   OH231798   4.099   0.364   6.766
10618TIP3    H131799   4.096   0.404   6.679
10618TIP3    H231800   4.170   0.300   6.761
10619TIP3   OH231801   2.630   2.566   6.148
10619TIP3    H131802   2.685   2.630   6.192
10619TIP3    H231803   2.658   2.482   6.185
10620TIP3   OH231804   7.533   6.204   0.575
10620TIP3    H131805   7.542   6.217   0.669
10620TIP3    H231806   7.539   6.109   0.563
10621TIP3   OH231807   1.980   0.620   6.516
10621TIP3    H131808   2.040   0.559   6.473
10621TIP3    H231809   1.979   0.592   6.608
10622TIP3   OH231810   4.148   1.177   2.825
10622TIP3    H131811   4.119   1.246   2.884
10622TIP3    H231812   4.201   1.222   2.760
10623TIP3   OH231813   2.789   4.847   3.220
10623TIP3    H131814   2.718   4.907   3.243
10623TIP3    H231815   2.863   4.905   3.201
10624TIP3   OH231816   0.690   6.662   0.175
10624TIP3    H131817   0.689   6.644   0.269
10624TIP3    H231818   0.616   6.722   0.161
10625TIP3   OH231819   8.138   1.849   3.969
10625TIP3    H131820   8.117   1.803   3.887
10625TIP3    H231821   8.095   1.934   3.959
10626TIP3   OH231822   4.347   2.974   0.781
10626TIP3    H131823   4.306   2.969   0.695
10626TIP3    H231824   4.273   2.980   0.843
10627TIP3   OH231825   6.569   6.612   1.871
10627TIP3    H131826   6.513   6.581   1.942
10627TIP3    H231827   6.651   6.565   1.883
10628TIP3   OH231828   6.270   4.804   5.178
10628TIP3    H131829   6.275   4.709   5.169
10628TIP3    H231830   6.285   4.837   5.089
10629TIP3   OH231831   5.380   6.702   5.795
10629TIP3    H131832   5.288   6.695   5.819
10629TIP3    H231833   5.404   6.792   5.816
10630TIP3   OH231834   8.283   3.455   5.004
10630TIP3    H131835   8.295   3.533   5.057
10630TIP3    H231836   8.312   3.480   4.916
10631TIP3   OH231837   1.922   7.724   1.281
10631TIP3    H131838   1.967   7.730   1.365
10631TIP3    H231839   1.852   7.789   1.286
10632TIP3   OH231840   0.499   2.880   5.346
10632TIP3    H131841   0.420   2.837   5.315
10632TIP3    H231842   0.549   2.811   5.390
10633TIP3   OH231843   0.912   5.320   4.379
10633TIP3    H131844   0.965   5.243   4.357
10633TIP3    H231845   0.831   5.309   4.328
10634TIP3   OH231846   0.927   6.890   3.461
10634TIP3    H131847   0.907   6.936   3.380
10634TIP3    H231848   1.002   6.835   3.441
10635TIP3   OH231849   1.172   6.294   0.121
10635TIP3    H131850   1.137   6.234   0.186
10635TIP3    H231851   1.096   6.328   0.075
10636TIP3   OH231852   5.982   4.982   6.590
10636TIP3    H131853   6.036   4.938   6.656
10636TIP3    H231854   5.959   5.066   6.630
10637TIP3   OH231855   5.011   0.510   2.419
10637TIP3    H131856   4.949   0.555   2.362
10637TIP3    H231857   5.061   0.580   2.462
10638TIP3   OH231858   0.668   0.164   5.000
10638TIP3    H131859   0.589   0.211   5.029
10638TIP3    H231860   0.636   0.078   4.973
10639TIP3   OH231861   1.229   3.286   3.149
10639TIP3    H131862   1.162   3.310   3.084
10639TIP3    H231863   1.294   3.355   3.142
10640TIP3   OH231864   3.994   0.514   4.125
10640TIP3    H131865   3.906   0.514   4.163
10640TIP3    H231866   4.008   0.605   4.098
10641TIP3   OH231867   7.307   3.115   1.556
10641TIP3    H131868   7.376   3.182   1.554
10641TIP3    H231869   7.226   3.164   1.566
10642TIP3   OH231870   2.027   6.949   6.096
10642TIP3    H131871   1.982   6.974   6.176
10642TIP3    H231872   1.958   6.917   6.038
10643TIP3   OH231873   6.598   2.206   2.537
10643TIP3    H131874   6.689   2.231   2.548
10643TIP3    H231875   6.601   2.114   2.510
10644TIP3   OH231876   7.100   0.348   0.760
10644TIP3    H131877   7.093   0.254   0.740
10644TIP3    H231878   7.027   0.365   0.820
10645TIP3   OH231879   4.034   7.381   6.749
10645TIP3    H131880   4.040   7.292   6.713
10645TIP3    H231881   4.066   7.373   6.839
10646TIP3   OH231882   4.149   6.350   3.963
10646TIP3    H131883   4.056   6.336   3.980
10646TIP3    H231884   4.153   6.435   3.919
10647TIP3   OH231885   5.977   3.834   1.423
10647TIP3    H131886   6.001   3.898   1.355
10647TIP3    H231887   5.937   3.762   1.375
10648TIP3   OH231888   6.050   2.402   3.476
10648TIP3    H131889   6.035   2.441   3.389
10648TIP3    H231890   5.994   2.324   3.477
10649TIP3   OH231891   1.440   1.378   0.825
10649TIP3    H131892   1.368   1.365   0.887
10649TIP3    H231893   1.494   1.300   0.834
10650TIP3   OH231894   2.102   7.547   0.160
10650TIP3    H131895   2.098   7.574   0.068
10650TIP3    H231896   2.028   7.487   0.170
10651TIP3   OH231897   6.716   3.520   2.593
10651TIP3    H131898   6.800   3.492   2.629
10651TIP3    H231899   6.733   3.532   2.499
10652TIP3   OH231900   1.614   5.278   5.552
10652TIP3    H131901   1.540   5.334   5.528
10652TIP3    H231902   1.613   5.208   5.487
10653TIP3   OH231903   7.642   4.647   1.173
10653TIP3    H131904   7.693   4.604   1.105
10653TIP3    H231905   7.597   4.718   1.127
10654TIP3   OH231906   3.672   3.426   6.671
10654TIP3    H131907   3.593   3.389   6.631
10654TIP3    H231908   3.738   3.422   6.602
10655TIP3   OH231909   2.095   4.671   6.419
10655TIP3    H131910   2.057   4.672   6.332
10655TIP3    H231911   2.106   4.763   6.443
10656TIP3   OH231912   7.716   0.025   2.027
10656TIP3    H131913   7.739  -0.064   2.001
10656TIP3    H231914   7.791   0.054   2.080
10657TIP3   OH231915   1.099   0.410   2.257
10657TIP3    H131916   1.156   0.426   2.332
10657TIP3    H231917   1.069   0.319   2.268
10658TIP3   OH231918   1.419   5.462   4.911
10658TIP3    H131919   1.357   5.526   4.947
10658TIP3    H231920   1.382   5.439   4.826
10659TIP3   OH231921   1.215   4.205   3.602
10659TIP3    H131922   1.198   4.255   3.682
10659TIP3    H231923   1.301   4.236   3.572
10660TIP3   OH231924   4.281   6.670   2.099
10660TIP3    H131925   4.316   6.581   2.094
10660TIP3    H231926   4.278   6.700   2.008
10661TIP3   OH231927   2.869   0.658   6.538
10661TIP3    H131928   2.925   0.677   6.613
10661TIP3    H231929   2.782   0.645   6.575
10662TIP3   OH231930   4.615   1.774   0.539
10662TIP3    H131931   4.584   1.852   0.585
10662TIP3    H231932   4.665   1.808   0.465
10663TIP3   OH231933   1.150   0.549   2.025
10663TIP3    H131934   1.127   0.511   2.110
10663TIP3    H231935   1.242   0.527   2.014
10664TIP3   OH231936   2.220   5.138   4.927
10664TIP3    H131937   2.261   5.216   4.889
10664TIP3    H231938   2.139   5.171   4.967
10665TIP3   OH231939   5.918   6.595   3.382
10665TIP3    H131940   5.832   6.627   3.356
10665TIP3    H231941   5.979   6.638   3.321
10666TIP3   OH231942   6.890   1.829   0.707
10666TIP3    H131943   6.932   1.867   0.784
10666TIP3    H231944   6.892   1.898   0.641
10667TIP3   OH231945   4.055   2.387   1.874
10667TIP3    H131946   4.040   2.295   1.852
10667TIP3    H231947   4.109   2.420   1.803
10668TIP3   OH231948   5.400   3.893   2.857
10668TIP3    H131949   5.377   3.917   2.768
10668TIP3    H231950   5.446   3.810   2.849
10669TIP3   OH231951   5.491   6.137   6.323
10669TIP3    H131952   5.404   6.098   6.334
10669TIP3    H231953   5.551   6.078   6.367
10670TIP3   OH231954   2.485   5.548   2.624
10670TIP3    H131955   2.476   5.588   2.538
10670TIP3    H231956   2.395   5.539   2.656
10671TIP3   OH231957   8.265   7.612   0.492
10671TIP3    H131958   8.243   7.677   0.560
10671TIP3    H231959   8.196   7.547   0.499
10672TIP3   OH231960   3.790   7.474   0.531
10672TIP3    H131961   3.871   7.524   0.538
10672TIP3    H231962   3.797   7.407   0.599
10673TIP3   OH231963   7.546   4.558   3.989
10673TIP3    H131964   7.554   4.595   4.077
10673TIP3    H231965   7.455   4.527   3.984
10674TIP3   OH231966   6.272   2.000   2.976
10674TIP3    H131967   6.276   2.047   2.892
10674TIP3    H231968   6.350   1.944   2.976
10675TIP3   OH231969   0.439   6.482   5.570
10675TIP3    H131970   0.522   6.492   5.615
10675TIP3    H231971   0.380   6.445   5.636
10676TIP3   OH231972   5.215   2.351   3.154
10676TIP3    H131973   5.175   2.435   3.175
10676TIP3    H231974   5.244   2.360   3.063
10677TIP3   OH231975   1.319   0.299   0.411
10677TIP3    H131976   1.316   0.327   0.503
10677TIP3    H231977   1.329   0.380   0.362
10678TIP3   OH231978   5.155   1.212   2.286
10678TIP3    H131979   5.182   1.234   2.196
10678TIP3    H231980   5.078   1.267   2.302
10679TIP3   OH231981   1.060   0.163   6.639
10679TIP3    H131982   1.050   0.234   6.703
10679TIP3    H231983   1.007   0.091   6.673
10680TIP3   OH231984   2.236   5.688   6.053
10680TIP3    H131985   2.320   5.666   6.093
10680TIP3    H231986   2.231   5.633   5.974
10681TIP3   OH231987   7.140   7.303   6.613
10681TIP3    H131988   7.153   7.379   6.670
10681TIP3    H231989   7.126   7.340   6.526
10682TIP3   OH231990   3.020   7.244   3.846
10682TIP3    H131991   3.032   7.332   3.811
10682TIP3    H231992   2.947   7.253   3.907
10683TIP3   OH231993   3.765   5.698   2.852
10683TIP3    H131994   3.721   5.773   2.893
10683TIP3    H231995   3.855   5.728   2.837
10684TIP3   OH231996   7.879   6.030   0.540
10684TIP3    H131997   7.940   5.977   0.591
10684TIP3    H231998   7.903   6.014   0.449
10685TIP3   OH231999   1.485   0.263   1.673
10685TIP3    H132000   1.535   0.342   1.690
10685TIP3    H232001   1.531   0.220   1.601
10686TIP3   OH232002   5.776   3.101   2.119
10686TIP3    H132003   5.750   3.047   2.044
10686TIP3    H232004   5.697   3.109   2.172
10687TIP3   OH232005   7.871   3.079   0.683
10687TIP3    H132006   7.910   3.014   0.625
10687TIP3    H232007   7.922   3.159   0.669
10688TIP3   OH232008   5.954   0.063   4.020
10688TIP3    H132009   5.999  -0.017   4.045
10688TIP3    H232010   5.980   0.078   3.930
10689TIP3   OH232011   5.435   7.740   0.722
10689TIP3    H132012   5.427   7.777   0.634
10689TIP3    H232013   5.354   7.765   0.766
10690TIP3   OH232014   2.346   0.068   4.139
10690TIP3    H132015   2.255   0.062   4.110
10690TIP3    H232016   2.393   0.005   4.085
10691TIP3   OH232017   0.423   7.793   6.627
10691TIP3    H132018   0.368   7.737   6.572
10691TIP3    H232019   0.414   7.757   6.715
10692TIP3   OH232020   4.276   5.334   2.790
10692TIP3    H132021   4.266   5.304   2.880
10692TIP3    H232022   4.249   5.260   2.737
10693TIP3   OH232023   3.587   2.156   0.678
10693TIP3    H132024   3.566   2.087   0.616
10693TIP3    H232025   3.503   2.199   0.695
10694TIP3   OH232026   2.090   4.203   1.701
10694TIP3    H132027   2.163   4.160   1.746
10694TIP3    H232028   2.114   4.202   1.609
10695TIP3   OH232029   5.585   0.764   3.662
10695TIP3    H132030   5.546   0.842   3.700
10695TIP3    H232031   5.563   0.694   3.723
10696TIP3   OH232032   5.575   3.224   1.478
10696TIP3    H132033   5.590   3.134   1.504
10696TIP3    H232034   5.505   3.254   1.536
10697TIP3   OH232035   8.164   7.522   3.262
10697TIP3    H132036   8.187   7.613   3.245
10697TIP3    H232037   8.220   7.496   3.336
10698TIP3   OH232038   1.739   6.311   2.467
10698TIP3    H132039   1.717   6.235   2.521
10698TIP3    H232040   1.783   6.371   2.527
10699TIP3   OH232041   7.414   6.843   4.550
10699TIP3    H132042   7.402   6.823   4.457
10699TIP3    H232043   7.373   6.928   4.562
10700TIP3   OH232044   4.477   0.100   0.415
10700TIP3    H132045   4.467   0.163   0.487
10700TIP3    H232046   4.388   0.085   0.384
10701TIP3   OH232047   2.720   2.084   5.424
10701TIP3    H132048   2.653   2.058   5.361
10701TIP3    H232049   2.677   2.077   5.509
10702TIP3   OH232050   6.618   1.923   6.729
10702TIP3    H132051   6.570   2.001   6.757
10702TIP3    H232052   6.680   1.956   6.663
10703TIP3   OH232053   4.013   6.939   2.458
10703TIP3    H132054   3.948   6.898   2.515
10703TIP3    H232055   4.017   6.882   2.381
10704TIP3   OH232056   6.825   4.703   0.543
10704TIP3    H132057   6.831   4.724   0.637
10704TIP3    H232058   6.731   4.700   0.526
10705TIP3   OH232059   3.632   3.711   2.041
10705TIP3    H132060   3.657   3.728   1.950
10705TIP3    H232061   3.693   3.764   2.092
10706TIP3   OH232062   5.517   2.757   2.678
10706TIP3    H132063   5.439   2.778   2.729
10706TIP3    H232064   5.546   2.842   2.643
10707TIP3   OH232065   4.173   2.630   3.290
10707TIP3    H132066   4.119   2.551   3.295
10707TIP3    H232067   4.167   2.657   3.199
10708TIP3   OH232068   7.325   7.407   6.211
10708TIP3    H132069   7.386   7.345   6.250
10708TIP3    H232070   7.245   7.397   6.263
10709TIP3   OH232071   7.867   5.564   2.485
10709TIP3    H132072   7.822   5.601   2.409
10709TIP3    H232073   7.912   5.638   2.525
10710TIP3   OH232074   7.906   4.436   4.937
10710TIP3    H132075   7.941   4.379   4.869
10710TIP3    H232076   7.913   4.524   4.900
10711TIP3   OH232077   3.495   3.121   0.971
10711TIP3    H132078   3.422   3.166   0.927
10711TIP3    H232079   3.459   3.037   0.999
10712TIP3   OH232080   4.355   6.996   2.480
10712TIP3    H132081   4.268   6.961   2.500
10712TIP3    H232082   4.407   6.919   2.457
10713TIP3   OH232083   8.224   3.852   0.541
10713TIP3    H132084   8.211   3.903   0.621
10713TIP3    H232085   8.141   3.806   0.528
10714TIP3   OH232086   7.067   2.571   4.281
10714TIP3    H132087   6.987   2.550   4.233
10714TIP3    H232088   7.134   2.514   4.243
10715TIP3   OH232089   2.099   3.217   2.098
10715TIP3    H132090   2.020   3.256   2.060
10715TIP3    H232091   2.115   3.267   2.177
10716TIP3   OH232092   7.654   7.276   6.718
10716TIP3    H132093   7.626   7.359   6.677
10716TIP3    H232094   7.608   7.275   6.802
10717TIP3   OH232095   5.008   3.952   5.908
10717TIP3    H132096   5.038   3.877   5.855
10717TIP3    H232097   5.026   4.028   5.854
10718TIP3   OH232098   2.550   1.370   1.201
10718TIP3    H132099   2.496   1.421   1.262
10718TIP3    H232100   2.625   1.341   1.254
10719TIP3   OH232101   6.063   4.636   1.457
10719TIP3    H132102   6.095   4.698   1.392
10719TIP3    H232103   5.988   4.594   1.415
10720TIP3   OH232104   1.856   3.915   1.429
10720TIP3    H132105   1.937   3.916   1.481
10720TIP3    H232106   1.886   3.910   1.339
10721TIP3   OH232107   4.258   6.693   6.541
10721TIP3    H132108   4.347   6.721   6.519
10721TIP3    H232109   4.239   6.737   6.623
10722TIP3   OH232110   0.004   6.178   4.033
10722TIP3    H132111  -0.050   6.157   4.109
10722TIP3    H232112   0.038   6.266   4.052
10723TIP3   OH232113   0.525   4.563   2.590
10723TIP3    H132114   0.526   4.513   2.509
10723TIP3    H232115   0.616   4.560   2.621
10724TIP3   OH232116   6.041   2.622   4.368
10724TIP3    H132117   6.132   2.649   4.363
10724TIP3    H232118   5.991   2.701   4.345
10725TIP3   OH232119   5.376   1.740   6.480
10725TIP3    H132120   5.391   1.731   6.386
10725TIP3    H232121   5.387   1.833   6.497
10726TIP3   OH232122   7.189   0.416   1.639
10726TIP3    H132123   7.275   0.379   1.617
10726TIP3    H232124   7.139   0.409   1.557
10727TIP3   OH232125   1.085   0.274   5.711
10727TIP3    H132126   1.142   0.348   5.690
10727TIP3    H232127   1.123   0.238   5.791
10728TIP3   OH232128   4.139   4.816   5.608
10728TIP3    H132129   4.093   4.763   5.673
10728TIP3    H232130   4.174   4.752   5.546
10729TIP3   OH232131   2.926   0.652   0.973
10729TIP3    H132132   3.016   0.668   0.942
10729TIP3    H232133   2.897   0.737   1.006
10730TIP3   OH232134   5.100   4.421   4.632
10730TIP3    H132135   5.122   4.482   4.561
10730TIP3    H232136   5.072   4.477   4.704
10731TIP3   OH232137   2.351   6.904   4.976
10731TIP3    H132138   2.259   6.884   4.997
10731TIP3    H232139   2.349   6.926   4.883
10732TIP3   OH232140   1.483   4.107   5.356
10732TIP3    H132141   1.461   4.147   5.440
10732TIP3    H232142   1.426   4.030   5.351
10733TIP3   OH232143   1.169   5.648   3.265
10733TIP3    H132144   1.130   5.730   3.234
10733TIP3    H232145   1.095   5.597   3.297
10734TIP3   OH232146   5.505   4.412   4.677
10734TIP3    H132147   5.599   4.420   4.658
10734TIP3    H232148   5.497   4.437   4.769
10735TIP3   OH232149   4.229   7.211   3.980
10735TIP3    H132150   4.218   7.276   3.910
10735TIP3    H232151   4.271   7.137   3.936
10736TIP3   OH232152   1.139   7.737   5.305
10736TIP3    H132153   1.114   7.648   5.279
10736TIP3    H232154   1.073   7.762   5.369
10737TIP3   OH232155   8.138   4.066   4.936
10737TIP3    H132156   8.116   3.995   4.997
10737TIP3    H232157   8.143   4.144   4.990
10738TIP3   OH232158   4.878   6.987   2.618
10738TIP3    H132159   4.896   6.984   2.524
10738TIP3    H232160   4.786   6.963   2.625
10739TIP3   OH232161   6.260   2.757   2.407
10739TIP3    H132162   6.293   2.845   2.424
10739TIP3    H232163   6.187   2.747   2.468
10740TIP3   OH232164   5.576   5.211   1.851
10740TIP3    H132165   5.657   5.161   1.850
10740TIP3    H232166   5.538   5.194   1.938
10741TIP3   OH232167   2.675   2.361   3.699
10741TIP3    H132168   2.675   2.373   3.794
10741TIP3    H232169   2.654   2.268   3.687
10742TIP3   OH232170   2.562   5.017   3.318
10742TIP3    H132171   2.564   5.112   3.310
10742TIP3    H232172   2.535   5.000   3.408
10743TIP3   OH232173   0.766   3.531   0.477
10743TIP3    H132174   0.782   3.591   0.404
10743TIP3    H232175   0.750   3.589   0.551
10744TIP3   OH232176   2.541   5.223   5.505
10744TIP3    H132177   2.461   5.244   5.553
10744TIP3    H232178   2.582   5.308   5.489
10745TIP3   OH232179   2.464   5.471   6.511
10745TIP3    H132180   2.424   5.400   6.461
10745TIP3    H232181   2.461   5.442   6.602
10746TIP3   OH232182   4.603   7.641   3.608
10746TIP3    H132183   4.687   7.604   3.581
10746TIP3    H232184   4.621   7.680   3.694
10747TIP3   OH232185   4.239   0.257   5.412
10747TIP3    H132186   4.232   0.210   5.495
10747TIP3    H232187   4.251   0.188   5.347
10748TIP3   OH232188   7.568   5.523   1.972
10748TIP3    H132189   7.633   5.557   1.911
10748TIP3    H232190   7.496   5.492   1.916
10749TIP3   OH232191   4.253   1.621   3.357
10749TIP3    H132192   4.225   1.634   3.448
10749TIP3    H232193   4.348   1.614   3.362
10750TIP3   OH232194   7.983   5.399   2.660
10750TIP3    H132195   8.036   5.467   2.702
10750TIP3    H232196   7.928   5.446   2.598
10751TIP3   OH232197   0.569   3.867   0.747
10751TIP3    H132198   0.486   3.829   0.717
10751TIP3    H232199   0.559   3.873   0.842
10752TIP3   OH232200   6.204   6.595   1.492
10752TIP3    H132201   6.248   6.671   1.453
10752TIP3    H232202   6.271   6.526   1.492
10753TIP3   OH232203   7.211   3.646   4.334
10753TIP3    H132204   7.193   3.570   4.390
10753TIP3    H232205   7.306   3.655   4.337
10754TIP3   OH232206   2.428   5.266   4.296
10754TIP3    H132207   2.481   5.254   4.375
10754TIP3    H232208   2.368   5.336   4.319
10755TIP3   OH232209   6.690   5.073   0.607
10755TIP3    H132210   6.687   5.094   0.514
10755TIP3    H232211   6.769   5.019   0.617
10756TIP3   OH232212   7.029   3.808   4.255
10756TIP3    H132213   7.098   3.760   4.300
10756TIP3    H232214   7.075   3.862   4.191
10757TIP3   OH232215   5.700   0.096   6.286
10757TIP3    H132216   5.708   0.035   6.360
10757TIP3    H232217   5.605   0.110   6.278
10758TIP3   OH232218   1.308   1.653   6.282
10758TIP3    H132219   1.334   1.730   6.332
10758TIP3    H232220   1.343   1.668   6.194
10759TIP3   OH232221   3.231   4.684  -0.008
10759TIP3    H132222   3.317   4.703  -0.047
10759TIP3    H232223   3.238   4.716   0.082
10760TIP3   OH232224   3.257   6.290   2.543
10760TIP3    H132225   3.164   6.269   2.542
10760TIP3    H232226   3.293   6.242   2.469
10761TIP3   OH232227   1.418   0.131   2.290
10761TIP3    H132228   1.404   0.153   2.382
10761TIP3    H232229   1.514   0.127   2.281
10762TIP3   OH232230   7.321   4.404   2.653
10762TIP3    H132231   7.242   4.428   2.605
10762TIP3    H232232   7.364   4.488   2.672
10763TIP3   OH232233   2.427   6.241   6.578
10763TIP3    H132234   2.502   6.251   6.519
10763TIP3    H232235   2.404   6.330   6.603
10764TIP3   OH232236   1.375   5.797   3.981
10764TIP3    H132237   1.448   5.858   3.965
10764TIP3    H232238   1.416   5.722   4.023
10765TIP3   OH232239   0.211   7.450   4.717
10765TIP3    H132240   0.260   7.468   4.637
10765TIP3    H232241   0.210   7.354   4.723
10766TIP3   OH232242   7.737   1.005   0.139
10766TIP3    H132243   7.695   1.043   0.217
10766TIP3    H232244   7.697   0.918   0.131
10767TIP3   OH232245   3.719   4.516   4.337
10767TIP3    H132246   3.648   4.572   4.305
10767TIP3    H232247   3.768   4.571   4.398
10768TIP3   OH232248   7.055   0.694   2.664
10768TIP3    H132249   7.083   0.650   2.584
10768TIP3    H232250   7.107   0.655   2.733
10769TIP3   OH232251   6.537   4.655   3.502
10769TIP3    H132252   6.536   4.559   3.500
10769TIP3    H232253   6.445   4.680   3.512
10770TIP3   OH232254   6.900   5.145   5.689
10770TIP3    H132255   6.908   5.055   5.720
10770TIP3    H232256   6.983   5.187   5.713
10771TIP3   OH232257   7.420   4.979   5.788
10771TIP3    H132258   7.395   4.954   5.700
10771TIP3    H232259   7.513   4.957   5.794
10772TIP3   OH232260   5.414   4.960   3.779
10772TIP3    H132261   5.431   4.999   3.865
10772TIP3    H232262   5.500   4.934   3.747
10773TIP3   OH232263   5.226   1.736   2.116
10773TIP3    H132264   5.306   1.782   2.092
10773TIP3    H232265   5.223   1.661   2.056
10774TIP3   OH232266   3.814   0.618   6.142
10774TIP3    H132267   3.909   0.617   6.140
10774TIP3    H232268   3.790   0.531   6.175
10775TIP3   OH232269   7.900   0.416   0.123
10775TIP3    H132270   7.910   0.321   0.128
10775TIP3    H232271   7.806   0.430   0.112
10776TIP3   OH232272   7.658   2.447   0.462
10776TIP3    H132273   7.642   2.368   0.411
10776TIP3    H232274   7.683   2.513   0.397
10777TIP3   OH232275   2.600   2.684   5.752
10777TIP3    H132276   2.687   2.712   5.726
10777TIP3    H232277   2.541   2.733   5.695
10778TIP3   OH232278   2.453   3.520   1.551
10778TIP3    H132279   2.420   3.497   1.464
10778TIP3    H232280   2.548   3.516   1.542
10779TIP3   OH232281   4.208   7.320   2.249
10779TIP3    H132282   4.127   7.271   2.238
10779TIP3    H232283   4.181   7.406   2.280
10780TIP3   OH232284   4.543   0.301   4.253
10780TIP3    H132285   4.458   0.345   4.244
10780TIP3    H232286   4.541   0.263   4.341
10781TIP3   OH232287   0.403   0.921   5.430
10781TIP3    H132288   0.374   0.981   5.362
10781TIP3    H232289   0.327   0.865   5.447
10782TIP3   OH232290   5.361   7.404   6.632
10782TIP3    H132291   5.393   7.491   6.656
10782TIP3    H232292   5.394   7.347   6.702
10783TIP3   OH232293   7.781   3.503   1.223
10783TIP3    H132294   7.774   3.556   1.303
10783TIP3    H232295   7.723   3.547   1.161
10784TIP3   OH232296   2.246   1.294   5.098
10784TIP3    H132297   2.189   1.232   5.053
10784TIP3    H232298   2.192   1.373   5.106
10785TIP3   OH232299   4.609   6.844   4.480
10785TIP3    H132300   4.593   6.842   4.574
10785TIP3    H232301   4.683   6.785   4.468
10786TIP3   OH232302   3.748   2.777   3.246
10786TIP3    H132303   3.669   2.726   3.263
10786TIP3    H232304   3.818   2.727   3.287
10787TIP3   OH232305   5.104   7.757   3.559
10787TIP3    H132306   5.021   7.723   3.526
10787TIP3    H232307   5.079   7.820   3.626
10788TIP3   OH232308   8.058   0.291   3.551
10788TIP3    H132309   8.099   0.221   3.602
10788TIP3    H232310   8.063   0.368   3.608
10789TIP3   OH232311   4.571   0.626   0.426
10789TIP3    H132312   4.634   0.638   0.496
10789TIP3    H232313   4.577   0.533   0.404
10790TIP3   OH232314   1.571   0.919   3.188
10790TIP3    H132315   1.512   0.995   3.184
10790TIP3    H232316   1.657   0.954   3.164
10791TIP3   OH232317   4.470   5.243   2.345
10791TIP3    H132318   4.423   5.172   2.388
10791TIP3    H232319   4.483   5.212   2.255
10792TIP3   OH232320   0.413   2.409   0.672
10792TIP3    H132321   0.418   2.437   0.581
10792TIP3    H232322   0.320   2.410   0.693
10793TIP3   OH232323   0.163   5.265   4.148
10793TIP3    H132324   0.252   5.276   4.115
10793TIP3    H232325   0.135   5.353   4.173
10794TIP3   OH232326   6.807   5.658   1.602
10794TIP3    H132327   6.828   5.682   1.512
10794TIP3    H232328   6.724   5.703   1.620
10795TIP3   OH232329   4.182   6.156   6.677
10795TIP3    H132330   4.201   6.247   6.653
10795TIP3    H232331   4.262   6.126   6.720
10796TIP3   OH232332   5.080   3.461   1.053
10796TIP3    H132333   5.061   3.393   0.989
10796TIP3    H232334   5.145   3.422   1.111
10797TIP3   OH232335   0.418   2.532   5.096
10797TIP3    H132336   0.476   2.526   5.172
10797TIP3    H232337   0.356   2.601   5.118
10798TIP3   OH232338   2.709   3.515   5.458
10798TIP3    H132339   2.665   3.598   5.438
10798TIP3    H232340   2.638   3.453   5.475
10799TIP3   OH232341   5.837   6.948   1.770
10799TIP3    H132342   5.867   6.896   1.845
10799TIP3    H232343   5.894   6.921   1.698
10800TIP3   OH232344   1.116   7.281   6.359
10800TIP3    H132345   1.155   7.201   6.322
10800TIP3    H232346   1.125   7.270   6.453
10801TIP3   OH232347   5.272   4.723   3.711
10801TIP3    H132348   5.360   4.715   3.674
10801TIP3    H232349   5.274   4.803   3.763
10802TIP3   OH232350   6.666   1.509   1.128
10802TIP3    H132351   6.616   1.569   1.072
10802TIP3    H232352   6.678   1.430   1.076
10803TIP3   OH232353   6.627   0.113   2.793
10803TIP3    H132354   6.624   0.116   2.697
10803TIP3    H232355   6.667   0.029   2.813
10804TIP3   OH232356   2.998   2.908   6.171
10804TIP3    H132357   2.922   2.857   6.199
10804TIP3    H232358   2.978   2.933   6.081
10805TIP3   OH232359   6.684   0.533   0.344
10805TIP3    H132360   6.660   0.544   0.252
10805TIP3    H232361   6.633   0.456   0.373
10806TIP3   OH232362   0.674   4.746   1.602
10806TIP3    H132363   0.595   4.698   1.576
10806TIP3    H232364   0.642   4.810   1.667
10807TIP3   OH232365   0.418   5.800   5.597
10807TIP3    H132366   0.510   5.806   5.622
10807TIP3    H232367   0.372   5.856   5.659
10808TIP3   OH232368   6.729   1.144   1.557
10808TIP3    H132369   6.750   1.205   1.628
10808TIP3    H232370   6.807   1.143   1.502
10809TIP3   OH232371   4.438   0.387   2.345
10809TIP3    H132372   4.408   0.392   2.254
10809TIP3    H232373   4.361   0.408   2.398
10810TIP3   OH232374   6.023   0.313   0.645
10810TIP3    H132375   5.940   0.354   0.621
10810TIP3    H232376   6.076   0.317   0.565
10811TIP3   OH232377   5.344   6.979   1.260
10811TIP3    H132378   5.408   6.968   1.190
10811TIP3    H232379   5.377   7.053   1.310
10812TIP3   OH232380   7.905   4.053   2.220
10812TIP3    H132381   7.951   4.126   2.260
10812TIP3    H232382   7.909   4.071   2.126
10813TIP3   OH232383   1.198   6.400   5.038
10813TIP3    H132384   1.130   6.335   5.019
10813TIP3    H232385   1.168   6.480   4.993
10814TIP3   OH232386   1.586   1.313   3.217
10814TIP3    H132387   1.539   1.232   3.199
10814TIP3    H232388   1.551   1.343   3.301
10815TIP3   OH232389   0.382   5.344   6.385
10815TIP3    H132390   0.431   5.425   6.373
10815TIP3    H232391   0.290   5.370   6.375
10816TIP3   OH232392   4.379   2.112   2.225
10816TIP3    H132393   4.452   2.102   2.286
10816TIP3    H232394   4.353   2.022   2.204
10817TIP3   OH232395   3.655   2.594   6.126
10817TIP3    H132396   3.722   2.653   6.091
10817TIP3    H232397   3.579   2.650   6.140
10818TIP3   OH232398   6.929   0.068   4.703
10818TIP3    H132399   6.918   0.032   4.615
10818TIP3    H232400   7.022   0.091   4.708
10819TIP3   OH232401   8.302   2.084   3.693
10819TIP3    H132402   8.348   2.143   3.634
10819TIP3    H232403   8.212   2.083   3.660
10820TIP3   OH232404   1.097   7.134   6.688
10820TIP3    H132405   1.125   7.124   6.779
10820TIP3    H232406   1.023   7.194   6.692
10821TIP3   OH232407   4.001   3.405   1.381
10821TIP3    H132408   4.017   3.406   1.475
10821TIP3    H232409   3.956   3.488   1.364
10822TIP3   OH232410   2.060   5.601   6.708
10822TIP3    H132411   1.986   5.660   6.695
10822TIP3    H232412   2.134   5.645   6.666
10823TIP3   OH232413   5.402   2.887   2.149
10823TIP3    H132414   5.446   2.955   2.098
10823TIP3    H232415   5.338   2.850   2.089
10824TIP3   OH232416   7.330   2.492   3.967
10824TIP3    H132417   7.398   2.555   3.994
10824TIP3    H232418   7.373   2.407   3.974
10825TIP3   OH232419   5.765   4.496   0.900
10825TIP3    H132420   5.820   4.437   0.848
10825TIP3    H232421   5.691   4.441   0.927
10826TIP3   OH232422   7.747   0.257   6.579
10826TIP3    H132423   7.701   0.178   6.609
10826TIP3    H232424   7.687   0.295   6.515
10827TIP3   OH232425   1.131   0.549   0.569
10827TIP3    H132426   1.113   0.634   0.610
10827TIP3    H232427   1.226   0.539   0.576
10828TIP3   OH232428   4.421   6.342   6.121
10828TIP3    H132429   4.389   6.312   6.206
10828TIP3    H232430   4.441   6.434   6.135
10829TIP3   OH232431   6.211   5.424   2.904
10829TIP3    H132432   6.185   5.332   2.900
10829TIP3    H232433   6.288   5.424   2.961
10830TIP3   OH232434   8.210   3.052   6.586
10830TIP3    H132435   8.200   2.975   6.643
10830TIP3    H232436   8.186   3.126   6.641
10831TIP3   OH232437   6.955   7.009   3.523
10831TIP3    H132438   6.940   6.915   3.517
10831TIP3    H232439   6.870   7.048   3.506
10832TIP3   OH232440   0.767   3.314   4.935
10832TIP3    H132441   0.711   3.236   4.933
10832TIP3    H232442   0.738   3.362   5.012
10833TIP3   OH232443   6.521   2.641   6.586
10833TIP3    H132444   6.448   2.702   6.575
10833TIP3    H232445   6.585   2.667   6.520
10834TIP3   OH232446   7.788   0.493   3.174
10834TIP3    H132447   7.798   0.465   3.083
10834TIP3    H232448   7.872   0.472   3.215
10835TIP3   OH232449   2.158   7.331   3.481
10835TIP3    H132450   2.122   7.409   3.523
10835TIP3    H232451   2.086   7.299   3.426
10836TIP3   OH232452   1.665   4.553   3.757
10836TIP3    H132453   1.710   4.551   3.842
10836TIP3    H232454   1.715   4.493   3.702
10837TIP3   OH232455   8.054   0.993   0.928
10837TIP3    H132456   8.031   1.050   0.854
10837TIP3    H232457   7.972   0.980   0.975
10838TIP3   OH232458   2.341   6.899   1.928
10838TIP3    H132459   2.311   6.809   1.938
10838TIP3    H232460   2.437   6.892   1.923
10839TIP3   OH232461   2.717   7.332   5.504
10839TIP3    H132462   2.724   7.242   5.535
10839TIP3    H232463   2.622   7.349   5.502
10840TIP3   OH232464   2.927   0.501   5.279
10840TIP3    H132465   2.974   0.519   5.198
10840TIP3    H232466   2.846   0.458   5.252
10841TIP3   OH232467   0.563   1.841   6.435
10841TIP3    H132468   0.587   1.848   6.527
10841TIP3    H232469   0.646   1.827   6.390
10842TIP3   OH232470   1.366   3.944   0.030
10842TIP3    H132471   1.379   4.023  -0.024
10842TIP3    H232472   1.406   3.966   0.114
10843TIP3   OH232473   5.436   3.019   2.623
10843TIP3    H132474   5.410   3.063   2.704
10843TIP3    H232475   5.435   3.088   2.557
10844TIP3   OH232476   4.732   0.108   3.571
10844TIP3    H132477   4.774   0.171   3.512
10844TIP3    H232478   4.750   0.141   3.659
10845TIP3   OH232479   1.207   3.187   0.633
10845TIP3    H132480   1.199   3.262   0.691
10845TIP3    H232481   1.173   3.113   0.684
10846TIP3   OH232482   1.660   7.606   0.229
10846TIP3    H132483   1.612   7.673   0.279
10846TIP3    H232484   1.658   7.637   0.139
10847TIP3   OH232485   5.493   2.105   3.972
10847TIP3    H132486   5.419   2.116   4.032
10847TIP3    H232487   5.454   2.109   3.884
10848TIP3   OH232488   2.018   2.139   6.656
10848TIP3    H132489   2.113   2.142   6.652
10848TIP3    H232490   1.989   2.183   6.577
10849TIP3   OH232491   2.293   4.831   3.847
10849TIP3    H132492   2.269   4.741   3.871
10849TIP3    H232493   2.374   4.822   3.798
10850TIP3   OH232494   5.902   7.709   0.021
10850TIP3    H132495   5.852   7.690   0.101
10850TIP3    H232496   5.836   7.711  -0.048
10851TIP3   OH232497   4.915   6.388   5.418
10851TIP3    H132498   4.983   6.320   5.419
10851TIP3    H232499   4.963   6.470   5.432
10852TIP3   OH232500   1.136   0.495   6.477
10852TIP3    H132501   1.206   0.527   6.533
10852TIP3    H232502   1.105   0.415   6.520
10853TIP3   OH232503   3.126   5.312   5.352
10853TIP3    H132504   3.037   5.330   5.322
10853TIP3    H232505   3.115   5.272   5.438
10854TIP3   OH232506   0.914   4.902   5.798
10854TIP3    H132507   0.971   4.965   5.754
10854TIP3    H232508   0.909   4.827   5.738
10855TIP3   OH232509   0.879   3.959   6.557
10855TIP3    H132510   0.891   3.932   6.648
10855TIP3    H232511   0.880   3.876   6.508
10856TIP3   OH232512   4.114   7.295   4.272
10856TIP3    H132513   4.061   7.220   4.247
10856TIP3    H232514   4.154   7.325   4.190
10857TIP3   OH232515   7.444   3.752   5.383
10857TIP3    H132516   7.394   3.810   5.326
10857TIP3    H232517   7.528   3.741   5.339
10858TIP3   OH232518   1.730   5.080   5.350
10858TIP3    H132519   1.767   5.147   5.292
10858TIP3    H232520   1.806   5.029   5.380
10859TIP3   OH232521   0.698   3.401   1.817
10859TIP3    H132522   0.632   3.404   1.887
10859TIP3    H232523   0.708   3.307   1.799
10860TIP3   OH232524   1.676   3.779   4.269
10860TIP3    H132525   1.724   3.808   4.191
10860TIP3    H232526   1.712   3.693   4.290
10861TIP3   OH232527   6.322   5.945   3.845
10861TIP3    H132528   6.291   5.987   3.765
10861TIP3    H232529   6.355   6.017   3.899
10862TIP3   OH232530   6.113   2.271   1.981
10862TIP3    H132531   6.054   2.201   2.008
10862TIP3    H232532   6.169   2.230   1.915
10863TIP3   OH232533   0.397   7.359   6.023
10863TIP3    H132534   0.489   7.339   6.006
10863TIP3    H232535   0.366   7.286   6.075
10864TIP3   OH232536   5.726   4.974   4.204
10864TIP3    H132537   5.666   5.027   4.153
10864TIP3    H232538   5.721   5.011   4.293
10865TIP3   OH232539   7.027   6.889   4.715
10865TIP3    H132540   7.044   6.975   4.678
10865TIP3    H232541   7.039   6.828   4.642
10866TIP3   OH232542   7.617   0.923   5.080
10866TIP3    H132543   7.709   0.906   5.059
10866TIP3    H232544   7.584   0.974   5.007
10867TIP3   OH232545   1.531   2.746   3.538
10867TIP3    H132546   1.462   2.702   3.588
10867TIP3    H232547   1.485   2.815   3.490
10868TIP3   OH232548   1.143   4.302   2.412
10868TIP3    H132549   1.199   4.322   2.338
10868TIP3    H232550   1.106   4.386   2.438
10869TIP3   OH232551   3.512   1.915   5.352
10869TIP3    H132552   3.445   1.913   5.284
10869TIP3    H232553   3.473   1.967   5.422
10870TIP3   OH232554   3.006   6.868   5.420
10870TIP3    H132555   3.016   6.790   5.365
10870TIP3    H232556   3.059   6.935   5.377
10871TIP3   OH232557   3.243   4.480   1.473
10871TIP3    H132558   3.309   4.548   1.486
10871TIP3    H232559   3.200   4.504   1.390
10872TIP3   OH232560   7.054   7.402   1.171
10872TIP3    H132561   7.108   7.338   1.126
10872TIP3    H232562   7.018   7.457   1.101
10873TIP3   OH232563   6.542   4.440   3.100
10873TIP3    H132564   6.528   4.456   3.007
10873TIP3    H232565   6.539   4.345   3.110
10874TIP3   OH232566   5.006   0.135   4.528
10874TIP3    H132567   4.970   0.167   4.611
10874TIP3    H232568   5.087   0.091   4.552
10875TIP3   OH232569   3.312   4.129   0.412
10875TIP3    H132570   3.257   4.159   0.340
10875TIP3    H232571   3.317   4.034   0.401
10876TIP3   OH232572   4.893   3.819   2.027
10876TIP3    H132573   4.893   3.728   1.998
10876TIP3    H232574   4.839   3.819   2.106
10877TIP3   OH232575   4.127   5.110   0.476
10877TIP3    H132576   4.091   5.051   0.410
10877TIP3    H232577   4.055   5.127   0.536
10878TIP3   OH232578   6.305   3.518   2.520
10878TIP3    H132579   6.341   3.432   2.538
10878TIP3    H232580   6.214   3.501   2.494
10879TIP3   OH232581   1.377   2.228   4.237
10879TIP3    H132582   1.402   2.136   4.234
10879TIP3    H232583   1.330   2.238   4.320
10880TIP3   OH232584   7.838   5.515   6.668
10880TIP3    H132585   7.923   5.498   6.626
10880TIP3    H232586   7.834   5.450   6.739
10881TIP3   OH232587   2.465   3.466   4.149
10881TIP3    H132588   2.393   3.444   4.208
10881TIP3    H232589   2.541   3.474   4.206
10882TIP3   OH232590   4.327   4.907   0.579
10882TIP3    H132591   4.407   4.887   0.530
10882TIP3    H232592   4.292   4.986   0.539
10883TIP3   OH232593   3.799   5.212   5.766
10883TIP3    H132594   3.881   5.259   5.773
10883TIP3    H232595   3.824   5.122   5.743
10884TIP3   OH232596   4.254   3.052   6.258
10884TIP3    H132597   4.252   3.114   6.332
10884TIP3    H232598   4.322   2.989   6.281
10885TIP3   OH232599   4.820   6.610   1.145
10885TIP3    H132600   4.848   6.522   1.171
10885TIP3    H232601   4.822   6.609   1.050
10886TIP3   OH232602   5.627   4.181   0.287
10886TIP3    H132603   5.692   4.124   0.246
10886TIP3    H232604   5.672   4.220   0.362
10887TIP3   OH232605   2.067   0.476   2.900
10887TIP3    H132606   2.131   0.547   2.908
10887TIP3    H232607   1.982   0.518   2.911
10888TIP3   OH232608   4.094   2.003   1.600
10888TIP3    H132609   4.145   1.931   1.564
10888TIP3    H232610   4.133   2.082   1.563
10889TIP3   OH232611   5.671   2.841   1.021
10889TIP3    H132612   5.658   2.774   1.089
10889TIP3    H232613   5.587   2.844   0.975
10890TIP3   OH232614   1.470   3.348   4.584
10890TIP3    H132615   1.441   3.269   4.629
10890TIP3    H232616   1.463   3.327   4.491
10891TIP3   OH232617   6.953   1.887   0.366
10891TIP3    H132618   6.861   1.912   0.360
10891TIP3    H232619   6.992   1.951   0.425
10892TIP3   OH232620   2.951   0.021   5.760
10892TIP3    H132621   2.901  -0.053   5.795
10892TIP3    H232622   2.904   0.046   5.680
10893TIP3   OH232623   1.525   3.497   5.803
10893TIP3    H132624   1.465   3.525   5.873
10893TIP3    H232625   1.586   3.437   5.847
10894TIP3   OH232626   6.813   5.757   3.297
10894TIP3    H132627   6.859   5.713   3.225
10894TIP3    H232628   6.772   5.833   3.255
10895TIP3   OH232629   1.872   1.751   5.022
10895TIP3    H132630   1.942   1.754   5.087
10895TIP3    H232631   1.792   1.739   5.074
10896TIP3   OH232632   4.951   2.615   3.937
10896TIP3    H132633   5.011   2.599   3.864
10896TIP3    H232634   4.866   2.631   3.896
10897TIP3   OH232635   6.195   1.297   1.755
10897TIP3    H132636   6.281   1.271   1.788
10897TIP3    H232637   6.135   1.230   1.789
10898TIP3   OH232638   0.074   1.513   4.320
10898TIP3    H132639   0.001   1.491   4.263
10898TIP3    H232640   0.064   1.607   4.338
10899TIP3   OH232641   5.277   1.127   5.948
10899TIP3    H132642   5.199   1.085   5.983
10899TIP3    H232643   5.244   1.190   5.884
10900TIP3   OH232644   7.260   7.046   1.404
10900TIP3    H132645   7.290   7.106   1.472
10900TIP3    H232646   7.282   7.089   1.322
10901TIP3   OH232647   6.763   6.799   2.412
10901TIP3    H132648   6.675   6.785   2.446
10901TIP3    H232649   6.767   6.745   2.333
10902TIP3   OH232650   4.260   7.333   0.467
10902TIP3    H132651   4.247   7.286   0.384
10902TIP3    H232652   4.180   7.315   0.517
10903TIP3   OH232653   1.531   0.435   5.945
10903TIP3    H132654   1.496   0.390   5.868
10903TIP3    H232655   1.626   0.422   5.938
10904TIP3   OH232656   3.687   4.816   3.087
10904TIP3    H132657   3.629   4.841   3.160
10904TIP3    H232658   3.748   4.753   3.125
10905TIP3   OH232659   0.976   2.339   4.653
10905TIP3    H132660   0.924   2.408   4.694
10905TIP3    H232661   1.053   2.331   4.709
10906TIP3   OH232662   1.138   3.015   4.047
10906TIP3    H132663   1.122   3.108   4.060
10906TIP3    H232664   1.081   2.991   3.974
10907TIP3   OH232665   1.939   4.079   2.251
10907TIP3    H132666   1.940   4.119   2.337
10907TIP3    H232667   1.942   4.153   2.190
10908TIP3   OH232668   3.023   5.945   5.091
10908TIP3    H132669   2.936   5.906   5.087
10908TIP3    H232670   3.081   5.871   5.113
10909TIP3   OH232671   5.747   5.954   3.983
10909TIP3    H132672   5.772   5.922   4.070
10909TIP3    H232673   5.653   5.940   3.979
10910TIP3   OH232674   4.733   4.487   2.482
10910TIP3    H132675   4.678   4.484   2.404
10910TIP3    H232676   4.797   4.417   2.470
10911TIP3   OH232677   3.377   7.694  -0.038
10911TIP3    H132678   3.332   7.757   0.018
10911TIP3    H232679   3.449   7.660   0.016
10912TIP3   OH232680   7.179   6.505   6.098
10912TIP3    H132681   7.151   6.561   6.025
10912TIP3    H232682   7.106   6.445   6.112
10913TIP3   OH232683   6.243   7.524   5.132
10913TIP3    H132684   6.283   7.609   5.117
10913TIP3    H232685   6.317   7.465   5.147
10914TIP3   OH232686   2.582   1.836   3.286
10914TIP3    H132687   2.517   1.797   3.227
10914TIP3    H232688   2.620   1.908   3.235
10915TIP3   OH232689   7.488   5.893   4.379
10915TIP3    H132690   7.553   5.963   4.384
10915TIP3    H232691   7.539   5.813   4.387
10916TIP3   OH232692   7.919   1.399   0.752
10916TIP3    H132693   7.826   1.394   0.728
10916TIP3    H232694   7.953   1.311   0.737
10917TIP3   OH232695   0.550   5.741   4.263
10917TIP3    H132696   0.602   5.660   4.259
10917TIP3    H232697   0.614   5.811   4.248
10918TIP3   OH232698   6.718   3.113   1.306
10918TIP3    H132699   6.707   3.165   1.226
10918TIP3    H232700   6.633   3.119   1.350
10919TIP3   OH232701   1.102   3.510   2.516
10919TIP3    H132702   1.182   3.459   2.523
10919TIP3    H232703   1.116   3.566   2.439
10920TIP3   OH232704   7.355   7.521   6.680
10920TIP3    H132705   7.344   7.545   6.587
10920TIP3    H232706   7.442   7.481   6.683
10921TIP3   OH232707   7.286   1.950   0.379
10921TIP3    H132708   7.280   1.964   0.473
10921TIP3    H232709   7.291   1.855   0.369
10922TIP3   OH232710   1.756   4.007   0.329
10922TIP3    H132711   1.742   4.078   0.392
10922TIP3    H232712   1.834   3.961   0.361
10923TIP3   OH232713   8.125   6.475   6.449
10923TIP3    H132714   8.160   6.504   6.533
10923TIP3    H232715   8.189   6.411   6.417
10924TIP3   OH232716   2.639   2.537   6.548
10924TIP3    H132717   2.631   2.573   6.636
10924TIP3    H232718   2.598   2.450   6.554
10925TIP3   OH232719   1.370   4.637   2.689
10925TIP3    H132720   1.313   4.596   2.624
10925TIP3    H232721   1.364   4.580   2.766
10926TIP3   OH232722   6.578   0.986   0.537
10926TIP3    H132723   6.570   1.079   0.518
10926TIP3    H232724   6.515   0.970   0.607
10927TIP3   OH232725   0.769   0.712   5.454
10927TIP3    H132726   0.715   0.737   5.380
10927TIP3    H232727   0.722   0.744   5.531
10928TIP3   OH232728   1.441   6.240   6.491
10928TIP3    H132729   1.445   6.243   6.395
10928TIP3    H232730   1.517   6.291   6.520
10929TIP3   OH232731   4.204   1.122   0.289
10929TIP3    H132732   4.247   1.036   0.294
10929TIP3    H232733   4.272   1.184   0.314
10930TIP3   OH232734   7.985   2.625   0.256
10930TIP3    H132735   7.976   2.717   0.231
10930TIP3    H232736   7.904   2.584   0.228
10931TIP3   OH232737   2.260   1.718   4.566
10931TIP3    H132738   2.346   1.687   4.592
10931TIP3    H232739   2.277   1.803   4.524
10932TIP3   OH232740   6.722   5.839   4.657
10932TIP3    H132741   6.811   5.874   4.645
10932TIP3    H232742   6.677   5.859   4.575
10933TIP3   OH232743   8.080   4.225   1.780
10933TIP3    H132744   8.026   4.293   1.740
10933TIP3    H232745   8.081   4.248   1.873
10934TIP3   OH232746   0.976   1.853   0.187
10934TIP3    H132747   1.052   1.904   0.157
10934TIP3    H232748   0.949   1.804   0.109
10935TIP3   OH232749   2.469   0.002   2.406
10935TIP3    H132750   2.382  -0.007   2.445
10935TIP3    H232751   2.511   0.070   2.457
10936TIP3   OH232752   2.146   0.995   0.416
10936TIP3    H132753   2.149   1.081   0.459
10936TIP3    H232754   2.133   0.933   0.487
10937TIP3   OH232755   7.675   3.716   2.611
10937TIP3    H132756   7.720   3.668   2.681
10937TIP3    H232757   7.719   3.801   2.607
10938TIP3   OH232758   4.986   0.160   0.209
10938TIP3    H132759   5.037   0.080   0.197
10938TIP3    H232760   5.015   0.217   0.137
10939TIP3   OH232761   4.512   4.088   1.507
10939TIP3    H132762   4.592   4.061   1.552
10939TIP3    H232763   4.539   4.101   1.416
10940TIP3   OH232764   5.140   3.692   1.410
10940TIP3    H132765   5.089   3.616   1.438
10940TIP3    H232766   5.187   3.719   1.489
10941TIP3   OH232767   0.819   2.808   6.213
10941TIP3    H132768   0.738   2.846   6.246
10941TIP3    H232769   0.879   2.883   6.207
10942TIP3   OH232770   2.110   3.475   0.434
10942TIP3    H132771   2.076   3.442   0.517
10942TIP3    H232772   2.162   3.552   0.457
10943TIP3   OH232773   6.670   7.426   1.035
10943TIP3    H132774   6.719   7.498   0.994
10943TIP3    H232775   6.634   7.376   0.962
10944TIP3   OH232776   1.495   2.727   4.339
10944TIP3    H132777   1.465   2.814   4.365
10944TIP3    H232778   1.448   2.710   4.257
10945TIP3   OH232779   5.373   4.809   5.395
10945TIP3    H132780   5.411   4.884   5.351
10945TIP3    H232781   5.329   4.760   5.325
10946TIP3   OH232782   3.690   7.627   4.143
10946TIP3    H132783   3.681   7.608   4.049
10946TIP3    H232784   3.686   7.541   4.185
10947TIP3   OH232785   6.117   6.146   2.507
10947TIP3    H132786   6.113   6.240   2.524
10947TIP3    H232787   6.054   6.108   2.567
10948TIP3   OH232788   2.617   5.079   0.203
10948TIP3    H132789   2.618   5.163   0.158
10948TIP3    H232790   2.705   5.070   0.240
10949TIP3   OH232791   5.109   3.504   1.693
10949TIP3    H132792   5.195   3.510   1.734
10949TIP3    H232793   5.125   3.457   1.611
10950TIP3   OH232794   3.679   7.573   6.351
10950TIP3    H132795   3.649   7.651   6.305
10950TIP3    H232796   3.706   7.605   6.437
10951TIP3   OH232797   3.934   0.050   5.056
10951TIP3    H132798   3.903  -0.006   5.127
10951TIP3    H232799   3.906   0.005   4.976
10952TIP3   OH232800   4.000   5.299   2.331
10952TIP3    H132801   3.992   5.269   2.422
10952TIP3    H232802   3.919   5.270   2.289
10953TIP3   OH232803   1.095   6.168   4.144
10953TIP3    H132804   1.110   6.077   4.118
10953TIP3    H232805   1.106   6.217   4.062
10954TIP3   OH232806   5.085   4.807   4.384
10954TIP3    H132807   5.100   4.901   4.386
10954TIP3    H232808   5.040   4.788   4.466
10955TIP3   OH232809   4.990   1.597   5.427
10955TIP3    H132810   4.952   1.521   5.383
10955TIP3    H232811   5.068   1.618   5.375
10956TIP3   OH232812   7.151   5.368   0.996
10956TIP3    H132813   7.173   5.460   1.011
10956TIP3    H232814   7.101   5.368   0.915
10957TIP3   OH232815   1.615   4.902   0.566
10957TIP3    H132816   1.676   4.934   0.499
10957TIP3    H232817   1.671   4.875   0.638
10958TIP3   OH232818   1.754   2.170   2.319
10958TIP3    H132819   1.818   2.110   2.357
10958TIP3    H232820   1.736   2.234   2.388
10959TIP3   OH232821   6.406   0.569   6.326
10959TIP3    H132822   6.394   0.497   6.389
10959TIP3    H232823   6.500   0.577   6.316
10960TIP3   OH232824   3.192   3.406   5.162
10960TIP3    H132825   3.181   3.431   5.071
10960TIP3    H232826   3.196   3.310   5.161
10961TIP3   OH232827   4.321   5.189   3.035
10961TIP3    H132828   4.277   5.200   3.119
10961TIP3    H232829   4.412   5.214   3.052
10962TIP3   OH232830   0.010   7.320   5.651
10962TIP3    H132831   0.065   7.241   5.653
10962TIP3    H232832  -0.003   7.338   5.558
10963TIP3   OH232833   6.499   1.513   0.768
10963TIP3    H132834   6.584   1.535   0.729
10963TIP3    H232835   6.498   1.560   0.851
10964TIP3   OH232836   2.262   4.834   0.649
10964TIP3    H132837   2.179   4.808   0.690
10964TIP3    H232838   2.303   4.893   0.711
10965TIP3   OH232839   3.463   6.214   0.193
10965TIP3    H132840   3.395   6.260   0.243
10965TIP3    H232841   3.515   6.169   0.260
10966TIP3   OH232842   2.016   7.450   2.584
10966TIP3    H132843   2.065   7.403   2.652
10966TIP3    H232844   1.966   7.382   2.539
10967TIP3   OH232845   3.180   5.037   2.226
10967TIP3    H132846   3.237   5.014   2.153
10967TIP3    H232847   3.092   5.013   2.196
10968TIP3   OH232848   3.857   4.507   0.037
10968TIP3    H132849   3.890   4.514   0.126
10968TIP3    H232850   3.887   4.587  -0.006
10969TIP3   OH232851   4.813   5.950   1.425
10969TIP3    H132852   4.745   5.912   1.482
10969TIP3    H232853   4.803   5.904   1.342
10970TIP3   OH232854   1.733   3.359   5.066
10970TIP3    H132855   1.776   3.414   5.000
10970TIP3    H232856   1.784   3.372   5.146
10971TIP3   OH232857   7.251   1.339   3.135
10971TIP3    H132858   7.189   1.393   3.086
10971TIP3    H232859   7.337   1.375   3.113
10972TIP3   OH232860   6.760   1.173   3.876
10972TIP3    H132861   6.722   1.242   3.822
10972TIP3    H232862   6.783   1.103   3.814
10973TIP3   OH232863   4.345   5.659   4.228
10973TIP3    H132864   4.267   5.693   4.273
10973TIP3    H232865   4.373   5.730   4.172
10974TIP3   OH232866   3.944   4.824   2.711
10974TIP3    H132867   3.880   4.847   2.644
10974TIP3    H232868   3.967   4.907   2.753
10975TIP3   OH232869   6.350   1.744   2.510
10975TIP3    H132870   6.295   1.794   2.449
10975TIP3    H232871   6.297   1.737   2.589
10976TIP3   OH232872   7.111   4.519   1.012
10976TIP3    H132873   7.143   4.459   0.944
10976TIP3    H232874   7.150   4.604   0.989
10977TIP3   OH232875   8.268   5.255   4.954
10977TIP3    H132876   8.234   5.263   5.043
10977TIP3    H232877   8.251   5.164   4.930
10978TIP3   OH232878   7.181   0.008   3.516
10978TIP3    H132879   7.252  -0.055   3.529
10978TIP3    H232880   7.147  -0.010   3.428
10979TIP3   OH232881   1.477   4.865   3.682
10979TIP3    H132882   1.550   4.810   3.656
10979TIP3    H232883   1.461   4.921   3.606
10980TIP3   OH232884   2.781   5.456   4.863
10980TIP3    H132885   2.740   5.369   4.871
10980TIP3    H232886   2.814   5.459   4.773
10981TIP3   OH232887   3.431   3.893   2.359
10981TIP3    H132888   3.504   3.937   2.403
10981TIP3    H232889   3.410   3.950   2.285
10982TIP3   OH232890   5.086   5.170   1.333
10982TIP3    H132891   5.097   5.106   1.403
10982TIP3    H232892   5.005   5.217   1.356
10983TIP3   OH232893   4.970   0.050   1.220
10983TIP3    H132894   4.884   0.016   1.195
10983TIP3    H232895   4.960   0.145   1.216
10984TIP3   OH232896   1.562   1.892   3.792
10984TIP3    H132897   1.537   1.929   3.876
10984TIP3    H232898   1.643   1.937   3.769
10985TIP3   OH232899   3.700   3.409   3.789
10985TIP3    H132900   3.623   3.452   3.753
10985TIP3    H232901   3.678   3.395   3.881
10986TIP3   OH232902   1.587   4.771   6.722
10986TIP3    H132903   1.542   4.758   6.806
10986TIP3    H232904   1.675   4.737   6.737
10987TIP3   OH232905   4.056   2.569   4.177
10987TIP3    H132906   4.113   2.516   4.233
10987TIP3    H232907   4.116   2.615   4.118
10988TIP3   OH232908   4.155   0.908   1.624
10988TIP3    H132909   4.163   0.813   1.617
10988TIP3    H232910   4.163   0.939   1.534
10989TIP3   OH232911   1.689   6.625   2.654
10989TIP3    H132912   1.595   6.606   2.654
10989TIP3    H232913   1.731   6.543   2.679
10990TIP3   OH232914   4.510   2.396   3.102
10990TIP3    H132915   4.601   2.423   3.096
10990TIP3    H232916   4.464   2.449   3.036
10991TIP3   OH232917   4.919   3.005   0.709
10991TIP3    H132918   4.825   3.002   0.725
10991TIP3    H232919   4.927   3.035   0.618
10992TIP3   OH232920   3.129   5.006   5.051
10992TIP3    H132921   3.126   5.011   4.955
10992TIP3    H232922   3.087   5.087   5.080
10993TIP3   OH232923   1.979   0.797   0.094
10993TIP3    H132924   1.895   0.841   0.106
10993TIP3    H232925   1.973   0.758   0.007
10994TIP3   OH232926   2.313   1.612   2.170
10994TIP3    H132927   2.405   1.592   2.154
10994TIP3    H232928   2.271   1.601   2.084
10995TIP3   OH232929   7.104   3.987   4.551
10995TIP3    H132930   7.180   3.929   4.556
10995TIP3    H232931   7.029   3.928   4.550
10996TIP3   OH232932   6.900   7.062   0.371
10996TIP3    H132933   6.839   7.131   0.343
10996TIP3    H232934   6.935   7.027   0.289
10997TIP3   OH232935   5.742   1.503   0.769
10997TIP3    H132936   5.694   1.550   0.701
10997TIP3    H232937   5.825   1.479   0.729
10998TIP3   OH232938   6.445   5.492   4.382
10998TIP3    H132939   6.432   5.580   4.416
10998TIP3    H232940   6.521   5.459   4.430
10999TIP3   OH232941   5.300   1.591   5.493
10999TIP3    H132942   5.319   1.581   5.399
10999TIP3    H232943   5.268   1.680   5.501
11000TIP3   OH232944   5.084   0.649   0.769
11000TIP3    H132945   5.176   0.671   0.781
11000TIP3    H232946   5.059   0.605   0.851
11001TIP3   OH232947   6.332   4.126   4.063
11001TIP3    H132948   6.397   4.063   4.092
11001TIP3    H232949   6.369   4.212   4.084
11002TIP3   OH232950   4.230   7.392   5.287
11002TIP3    H132951   4.227   7.475   5.334
11002TIP3    H232952   4.196   7.412   5.200
11003TIP3   OH232953   7.819   5.653   4.143
11003TIP3    H132954   7.783   5.612   4.065
11003TIP3    H232955   7.772   5.737   4.149
11004TIP3   OH232956   7.579   7.793   3.026
11004TIP3    H132957   7.585   7.888   3.040
11004TIP3    H232958   7.669   7.762   3.034
11005TIP3   OH232959   3.078   6.708   1.397
11005TIP3    H132960   3.095   6.616   1.377
11005TIP3    H232961   3.088   6.714   1.492
11006TIP3   OH232962   7.559   6.494   3.995
11006TIP3    H132963   7.630   6.430   3.988
11006TIP3    H232964   7.491   6.449   4.045
11007TIP3   OH232965   5.535   4.329   0.943
11007TIP3    H132966   5.492   4.380   0.874
11007TIP3    H232967   5.481   4.251   0.953
11008TIP3   OH232968   7.571   4.654   4.651
11008TIP3    H132969   7.574   4.714   4.726
11008TIP3    H232970   7.479   4.630   4.643
11009TIP3   OH232971   5.317   2.414   3.545
11009TIP3    H132972   5.369   2.460   3.480
11009TIP3    H232973   5.357   2.436   3.629
11010TIP3   OH232974   0.459   4.026   4.906
11010TIP3    H132975   0.521   4.025   4.979
11010TIP3    H232976   0.506   3.984   4.834
11011TIP3   OH232977   0.366   6.049   0.216
11011TIP3    H132978   0.388   6.016   0.129
11011TIP3    H232979   0.278   6.014   0.234
11012TIP3   OH232980   5.893   2.015   3.245
11012TIP3    H132981   5.864   1.945   3.187
11012TIP3    H232982   5.988   2.016   3.236
11013TIP3   OH232983   2.476   3.121   3.786
11013TIP3    H132984   2.465   3.031   3.755
11013TIP3    H232985   2.387   3.150   3.807
11014TIP3   OH232986   7.633   7.093   0.696
11014TIP3    H132987   7.727   7.084   0.678
11014TIP3    H232988   7.596   7.008   0.673
11015TIP3   OH232989   2.637   6.592   5.967
11015TIP3    H132990   2.592   6.507   5.976
11015TIP3    H232991   2.668   6.612   6.055
11016TIP3   OH232992   6.491   3.639   1.863
11016TIP3    H132993   6.522   3.597   1.783
11016TIP3    H232994   6.568   3.681   1.900
11017TIP3   OH232995   8.236   6.996   2.001
11017TIP3    H132996   8.291   7.058   2.048
11017TIP3    H232997   8.269   6.909   2.027
11018TIP3   OH232998   5.804   0.168   1.495
11018TIP3    H132999   5.875   0.108   1.474
11018TIP3    H233000   5.822   0.247   1.444
11019TIP3   OH233001   3.056   6.182   5.250
11019TIP3    H133002   3.044   6.093   5.217
11019TIP3    H233003   3.114   6.223   5.186
11020TIP3   OH233004   7.710   7.259   0.909
11020TIP3    H133005   7.666   7.202   0.846
11020TIP3    H233006   7.719   7.205   0.988
11021TIP3   OH233007   5.683   0.336   3.188
11021TIP3    H133008   5.632   0.385   3.123
11021TIP3    H233009   5.769   0.377   3.186
11022TIP3   OH233010   1.632   4.311   1.660
11022TIP3    H133011   1.656   4.273   1.575
11022TIP3    H233012   1.582   4.243   1.704
11023TIP3   OH233013   2.799   7.532   1.523
11023TIP3    H133014   2.872   7.591   1.542
11023TIP3    H233015   2.724   7.573   1.565
11024TIP3   OH233016   0.154   5.893   5.956
11024TIP3    H133017   0.175   5.928   5.869
11024TIP3    H233018   0.153   5.798   5.943
11025TIP3   OH233019   6.608   2.490   4.297
11025TIP3    H133020   6.614   2.554   4.368
11025TIP3    H233021   6.568   2.413   4.338
11026TIP3   OH233022   7.755   3.548   5.626
11026TIP3    H133023   7.724   3.636   5.604
11026TIP3    H233024   7.682   3.509   5.674
11027TIP3   OH233025   6.453   3.041   1.452
11027TIP3    H133026   6.477   3.019   1.542
11027TIP3    H233027   6.455   2.957   1.405
11028TIP3   OH233028   7.955   7.129   5.374
11028TIP3    H133029   7.869   7.113   5.336
11028TIP3    H233030   7.941   7.200   5.437
11029TIP3   OH233031   4.043   6.251   1.660
11029TIP3    H133032   3.981   6.235   1.731
11029TIP3    H233033   4.107   6.181   1.667
11030TIP3   OH233034   1.835   2.403   3.361
11030TIP3    H133035   1.801   2.319   3.332
11030TIP3    H233036   1.758   2.459   3.368
11031TIP3   OH233037   0.917   3.226   5.257
11031TIP3    H133038   0.849   3.162   5.233
11031TIP3    H233039   0.999   3.180   5.244
11032TIP3   OH233040   7.809   6.724   5.139
11032TIP3    H133041   7.714   6.724   5.135
11032TIP3    H233042   7.830   6.736   5.231
11033TIP3   OH233043   2.861   6.185   1.142
11033TIP3    H133044   2.918   6.171   1.066
11033TIP3    H233045   2.835   6.097   1.169
11034TIP3   OH233046   7.221   7.802   2.114
11034TIP3    H133047   7.310   7.796   2.080
11034TIP3    H233048   7.193   7.891   2.093
11035TIP3   OH233049   3.947   7.319   2.875
11035TIP3    H133050   3.996   7.281   2.802
11035TIP3    H233051   3.930   7.409   2.849
11036TIP3   OH233052   3.973   0.340   3.612
11036TIP3    H133053   4.057   0.336   3.657
11036TIP3    H233054   3.920   0.400   3.665
11037TIP3   OH233055   1.637   3.645   5.618
11037TIP3    H133056   1.681   3.710   5.672
11037TIP3    H233057   1.595   3.587   5.682
11038TIP3   OH233058   2.237   5.478   4.326
11038TIP3    H133059   2.230   5.557   4.273
11038TIP3    H233060   2.153   5.471   4.371
11039TIP3   OH233061   5.269   2.812   3.549
11039TIP3    H133062   5.190   2.764   3.572
11039TIP3    H233063   5.323   2.749   3.502
11040TIP3   OH233064   6.368   5.955   4.324
11040TIP3    H133065   6.286   5.921   4.360
11040TIP3    H233066   6.340   6.014   4.254
11041TIP3   OH233067   7.094   2.551   0.376
11041TIP3    H133068   7.105   2.459   0.399
11041TIP3    H233069   7.069   2.549   0.283
11042TIP3   OH233070   1.823   7.427   0.812
11042TIP3    H133071   1.727   7.421   0.814
11042TIP3    H233072   1.841   7.484   0.737
11043TIP3   OH233073   0.776   2.049   2.881
11043TIP3    H133074   0.695   2.002   2.862
11043TIP3    H233075   0.835   2.025   2.810
11044TIP3   OH233076   4.691   6.885   1.597
11044TIP3    H133077   4.709   6.953   1.532
11044TIP3    H233078   4.778   6.853   1.623
11045TIP3   OH233079   4.839   7.148   3.268
11045TIP3    H133080   4.929   7.133   3.239
11045TIP3    H233081   4.786   7.091   3.213
11046TIP3   OH233082   8.201   4.716   6.373
11046TIP3    H133083   8.282   4.710   6.423
11046TIP3    H233084   8.196   4.807   6.346
11047TIP3   OH233085   2.316   6.401   5.027
11047TIP3    H133086   2.336   6.383   4.936
11047TIP3    H233087   2.371   6.342   5.077
11048TIP3   OH233088   0.286   7.732   3.227
11048TIP3    H133089   0.248   7.803   3.175
11048TIP3    H233090   0.375   7.723   3.194
11049TIP3   OH233091   1.623   2.827   3.159
11049TIP3    H133092   1.551   2.831   3.222
11049TIP3    H233093   1.585   2.858   3.077
11050TIP3   OH233094   1.398   2.766   1.152
11050TIP3    H133095   1.483   2.753   1.194
11050TIP3    H233096   1.341   2.699   1.191
11051TIP3   OH233097   5.006   0.060   3.170
11051TIP3    H133098   4.916   0.078   3.197
11051TIP3    H233099   5.050   0.033   3.250
11052TIP3   OH233100   1.106   1.306   1.747
11052TIP3    H133101   1.163   1.382   1.763
11052TIP3    H233102   1.019   1.335   1.774
11053TIP3   OH233103   1.077   2.588   5.877
11053TIP3    H133104   1.133   2.562   5.950
11053TIP3    H233105   0.988   2.585   5.913
11054TIP3   OH233106   3.597   0.357   1.144
11054TIP3    H133107   3.508   0.346   1.178
11054TIP3    H233108   3.653   0.323   1.213
11055TIP3   OH233109   2.590   0.122   1.808
11055TIP3    H133110   2.509   0.165   1.836
11055TIP3    H233111   2.660   0.169   1.854
11056TIP3   OH233112   7.903   2.196   3.633
11056TIP3    H133113   7.878   2.237   3.716
11056TIP3    H233114   7.898   2.102   3.651
11057TIP3   OH233115   4.925   7.592   1.485
11057TIP3    H133116   4.910   7.671   1.431
11057TIP3    H233117   4.883   7.612   1.568
11058TIP3   OH233118   8.203   1.662   1.103
11058TIP3    H133119   8.183   1.597   1.036
11058TIP3    H233120   8.125   1.666   1.157
11059TIP3   OH233121   1.897   4.647   3.937
11059TIP3    H133122   1.959   4.574   3.944
11059TIP3    H233123   1.927   4.710   4.003
11060TIP3   OH233124   3.750   2.019   4.513
11060TIP3    H133125   3.710   2.090   4.461
11060TIP3    H233126   3.786   1.959   4.447
11061TIP3   OH233127   5.637   3.271   6.695
11061TIP3    H133128   5.609   3.219   6.620
11061TIP3    H233129   5.558   3.279   6.749
11062TIP3   OH233130   6.797   1.984   2.553
11062TIP3    H133131   6.859   1.918   2.522
11062TIP3    H233132   6.849   2.063   2.563
11063TIP3   OH233133   3.336   0.293   0.655
11063TIP3    H133134   3.257   0.286   0.601
11063TIP3    H233135   3.331   0.219   0.715
11064TIP3   OH233136   3.123   4.045   2.178
11064TIP3    H133137   3.110   4.021   2.087
11064TIP3    H233138   3.130   4.140   2.178
11065TIP3   OH233139   6.276   5.756   3.081
11065TIP3    H133140   6.297   5.700   3.156
11065TIP3    H233141   6.184   5.778   3.093
11066TIP3   OH233142   1.014   6.583   0.830
11066TIP3    H133143   0.935   6.621   0.869
11066TIP3    H233144   1.010   6.608   0.738
11067TIP3   OH233145   0.116   6.435   4.096
11067TIP3    H133146   0.104   6.462   4.187
11067TIP3    H233147   0.076   6.505   4.044
11068TIP3   OH233148   0.140   1.342   6.667
11068TIP3    H133149   0.160   1.430   6.700
11068TIP3    H233150   0.137   1.288   6.746
11069TIP3   OH233151   3.284   6.273   3.782
11069TIP3    H133152   3.195   6.240   3.770
11069TIP3    H233153   3.273   6.364   3.809
11070TIP3   OH233154   6.820   6.124   4.907
11070TIP3    H133155   6.865   6.044   4.880
11070TIP3    H233156   6.886   6.171   4.959
11071TIP3   OH233157   0.842   1.938   2.180
11071TIP3    H133158   0.863   1.917   2.271
11071TIP3    H233159   0.761   1.988   2.185
11072TIP3   OH233160   0.212   1.672   2.498
11072TIP3    H133161   0.304   1.690   2.516
11072TIP3    H233162   0.185   1.743   2.439
11073TIP3   OH233163   3.785   3.251   2.843
11073TIP3    H133164   3.873   3.215   2.837
11073TIP3    H233165   3.732   3.179   2.878
11074TIP3   OH233166   7.960   6.288   5.718
11074TIP3    H133167   7.869   6.316   5.712
11074TIP3    H233168   7.970   6.262   5.810
11075TIP3   OH233169   0.102   6.892   1.671
11075TIP3    H133170   0.169   6.947   1.712
11075TIP3    H233171   0.122   6.894   1.578
11076TIP3   OH233172   4.925   0.566   6.511
11076TIP3    H133173   5.000   0.512   6.534
11076TIP3    H233174   4.889   0.596   6.594
11077TIP3   OH233175   1.320   0.744   1.130
11077TIP3    H133176   1.296   0.661   1.173
11077TIP3    H233177   1.256   0.754   1.060
11078TIP3   OH233178   5.649   3.971   3.773
11078TIP3    H133179   5.737   3.937   3.792
11078TIP3    H233180   5.653   4.063   3.801
11079TIP3   OH233181   1.686   2.452   1.857
11079TIP3    H133182   1.769   2.478   1.898
11079TIP3    H233183   1.705   2.366   1.818
11080TIP3   OH233184   2.018   4.876   4.413
11080TIP3    H133185   1.934   4.853   4.374
11080TIP3    H233186   2.035   4.965   4.384
11081TIP3   OH233187   7.965   1.596   5.565
11081TIP3    H133188   7.904   1.611   5.493
11081TIP3    H233189   8.051   1.622   5.529
11082TIP3   OH233190   0.196   5.380   5.807
11082TIP3    H133191   0.231   5.308   5.860
11082TIP3    H233192   0.244   5.373   5.724
11083TIP3   OH233193   5.581   1.400   4.220
11083TIP3    H133194   5.658   1.451   4.248
11083TIP3    H233195   5.558   1.437   4.135
11084TIP3   OH233196   1.408   7.876   5.195
11084TIP3    H133197   1.408   7.800   5.252
11084TIP3    H233198   1.323   7.873   5.151
11085TIP3   OH233199   2.382   1.274   6.006
11085TIP3    H133200   2.371   1.353   6.059
11085TIP3    H233201   2.382   1.306   5.916
11086TIP3   OH233202   6.082   2.784   0.096
11086TIP3    H133203   6.031   2.703   0.102
11086TIP3    H233204   6.167   2.761   0.135
11087TIP3   OH233205   3.837   5.583   3.973
11087TIP3    H133206   3.850   5.645   4.044
11087TIP3    H233207   3.747   5.554   3.983
11088TIP3   OH233208   1.551   4.422   3.021
11088TIP3    H133209   1.602   4.423   2.939
11088TIP3    H233210   1.559   4.511   3.055
11089TIP3   OH233211   6.520   3.606   1.070
11089TIP3    H133212   6.492   3.539   1.132
11089TIP3    H233213   6.470   3.684   1.094
11090TIP3   OH233214   6.665   5.919   1.233
11090TIP3    H133215   6.598   5.919   1.301
11090TIP3    H233216   6.735   5.864   1.268
11091TIP3   OH233217   2.039   1.552   2.550
11091TIP3    H133218   2.049   1.618   2.482
11091TIP3    H233219   1.961   1.503   2.524
11092TIP3   OH233220   3.241   5.614   0.282
11092TIP3    H133221   3.304   5.680   0.253
11092TIP3    H233222   3.158   5.661   0.289
11093TIP3   OH233223   3.619   6.765   2.493
11093TIP3    H133224   3.595   6.769   2.400
11093TIP3    H233225   3.550   6.815   2.537
11094TIP3   OH233226   5.624   6.061   4.611
11094TIP3    H133227   5.594   6.012   4.534
11094TIP3    H233228   5.557   6.043   4.678
11095TIP3   OH233229   5.386   3.176   6.172
11095TIP3    H133230   5.304   3.216   6.201
11095TIP3    H233231   5.420   3.236   6.106
11096TIP3   OH233232   2.014   2.199   4.355
11096TIP3    H133233   2.090   2.177   4.300
11096TIP3    H233234   1.967   2.116   4.365
11097TIP3   OH233235   5.004   1.232   4.216
11097TIP3    H133236   5.010   1.242   4.311
11097TIP3    H233237   5.080   1.177   4.193
11098TIP3   OH233238   6.898   3.197   4.447
11098TIP3    H133239   6.978   3.224   4.403
11098TIP3    H233240   6.860   3.131   4.388
11099TIP3   OH233241   3.381   0.061   4.815
11099TIP3    H133242   3.450   0.001   4.843
11099TIP3    H233243   3.420   0.109   4.742
11100TIP3   OH233244   4.756   3.568   1.206
11100TIP3    H133245   4.665   3.583   1.184
11100TIP3    H233246   4.785   3.500   1.145
11101TIP3   OH233247   8.282   0.368   0.871
11101TIP3    H133248   8.200   0.416   0.864
11101TIP3    H233249   8.301   0.367   0.965
11102TIP3   OH233250   4.350   6.241   6.360
11102TIP3    H133251   4.297   6.299   6.414
11102TIP3    H233252   4.291   6.169   6.337
11103TIP3   OH233253   6.869   2.286   0.695
11103TIP3    H133254   6.905   2.271   0.783
11103TIP3    H233255   6.859   2.199   0.658
11104TIP3   OH233256   7.340   7.022   2.032
11104TIP3    H133257   7.284   7.043   2.107
11104TIP3    H233258   7.418   6.984   2.071
11105TIP3   OH233259   7.304   1.087   0.064
11105TIP3    H133260   7.263   1.129  -0.011
11105TIP3    H233261   7.339   1.005   0.030
11106TIP3   OH233262   3.839   5.090   2.808
11106TIP3    H133263   3.871   5.173   2.772
11106TIP3    H233264   3.761   5.114   2.857
11107TIP3   OH233265   3.311   5.377   0.858
11107TIP3    H133266   3.237   5.326   0.826
11107TIP3    H233267   3.272   5.442   0.916
11108TIP3   OH233268   1.364   3.649   5.365
11108TIP3    H133269   1.405   3.600   5.294
11108TIP3    H233270   1.421   3.633   5.441
11109TIP3   OH233271   7.581   0.971   6.463
11109TIP3    H133272   7.502   1.020   6.487
11109TIP3    H233273   7.552   0.880   6.457
11110TIP3   OH233274   7.285   1.781   2.281
11110TIP3    H133275   7.253   1.866   2.312
11110TIP3    H233276   7.297   1.794   2.187
11111TIP3   OH233277   5.575   5.453   2.149
11111TIP3    H133278   5.654   5.480   2.101
11111TIP3    H233279   5.514   5.426   2.081
11112TIP3   OH233280   3.578   4.789   2.481
11112TIP3    H133281   3.664   4.811   2.444
11112TIP3    H233282   3.561   4.700   2.450
11113TIP3   OH233283   4.514   6.006   6.241
11113TIP3    H133284   4.505   6.041   6.330
11113TIP3    H233285   4.466   5.923   6.243
11114TIP3   OH233286   6.080   7.688   6.283
11114TIP3    H133287   6.007   7.703   6.344
11114TIP3    H233288   6.044   7.712   6.197
11115TIP3   OH233289   6.226   0.203   6.024
11115TIP3    H133290   6.194   0.193   6.114
11115TIP3    H233291   6.191   0.128   5.977
11116TIP3   OH233292   4.047   0.807   6.331
11116TIP3    H133293   4.103   0.771   6.399
11116TIP3    H233294   4.033   0.735   6.270
11117TIP3   OH233295   8.048   1.959   4.355
11117TIP3    H133296   8.132   2.000   4.335
11117TIP3    H233297   8.028   1.988   4.444
11118TIP3   OH233298   7.302   0.525   0.664
11118TIP3    H133299   7.271   0.435   0.673
11118TIP3    H233300   7.299   0.541   0.569
11119TIP3   OH233301   4.520   6.142   4.578
11119TIP3    H133302   4.536   6.051   4.551
11119TIP3    H233303   4.604   6.186   4.564
11120TIP3   OH233304   6.196   4.958   6.360
11120TIP3    H133305   6.257   4.888   6.336
11120TIP3    H233306   6.207   4.968   6.455
11121TIP3   OH233307   8.210   7.442   0.767
11121TIP3    H133308   8.244   7.403   0.686
11121TIP3    H233309   8.116   7.429   0.762
11122TIP3   OH233310   7.988   4.672   1.463
11122TIP3    H133311   7.940   4.590   1.452
11122TIP3    H233312   8.079   4.650   1.441
11123TIP3   OH233313   3.855   2.486   0.918
11123TIP3    H133314   3.873   2.397   0.887
11123TIP3    H233315   3.781   2.515   0.865
11124TIP3   OH233316   2.280   6.911   4.709
11124TIP3    H133317   2.361   6.903   4.659
11124TIP3    H233318   2.219   6.955   4.649
11125TIP3   OH233319   8.170   3.095   1.940
11125TIP3    H133320   8.197   3.003   1.940
11125TIP3    H233321   8.075   3.093   1.945
11126TIP3   OH233322   4.027   7.481   1.939
11126TIP3    H133323   4.114   7.443   1.951
11126TIP3    H233324   3.972   7.436   2.003
11127TIP3   OH233325   6.574   6.955   2.193
11127TIP3    H133326   6.593   6.953   2.099
11127TIP3    H233327   6.516   6.881   2.208
11128TIP3   OH233328   1.745   2.388   6.353
11128TIP3    H133329   1.788   2.466   6.389
11128TIP3    H233330   1.652   2.404   6.367
11129TIP3   OH233331   3.276   6.494   4.045
11129TIP3    H133332   3.239   6.405   4.045
11129TIP3    H233333   3.361   6.484   4.087
11130TIP3   OH233334   5.924   0.802   4.956
11130TIP3    H133335   6.013   0.767   4.961
11130TIP3    H233336   5.891   0.797   5.046
11131TIP3   OH233337   5.734   4.860   5.896
11131TIP3    H133338   5.652   4.901   5.867
11131TIP3    H233339   5.803   4.908   5.850
11132TIP3   OH233340   3.802   6.847   5.779
11132TIP3    H133341   3.791   6.840   5.684
11132TIP3    H233342   3.719   6.816   5.815
11133TIP3   OH233343   0.963   0.207   3.527
11133TIP3    H133344   0.963   0.168   3.615
11133TIP3    H233345   0.902   0.152   3.477
11134TIP3   OH233346   4.193   6.579   6.039
11134TIP3    H133347   4.284   6.571   6.070
11134TIP3    H233348   4.175   6.673   6.042
11135TIP3   OH233349   7.633   3.588   0.476
11135TIP3    H133350   7.647   3.553   0.564
11135TIP3    H233351   7.678   3.672   0.477
11136TIP3   OH233352   2.752   6.815   1.019
11136TIP3    H133353   2.786   6.902   1.040
11136TIP3    H233354   2.831   6.762   1.003
11137TIP3   OH233355   2.797   5.305   1.608
11137TIP3    H133356   2.779   5.367   1.678
11137TIP3    H233357   2.855   5.353   1.548
11138TIP3   OH233358   0.808   1.403   0.907
11138TIP3    H133359   0.865   1.383   0.982
11138TIP3    H233360   0.756   1.477   0.936
11139TIP3   OH233361   1.386   3.380   0.203
11139TIP3    H133362   1.403   3.294   0.166
11139TIP3    H233363   1.414   3.373   0.295
11140TIP3   OH233364   6.370   7.470   0.639
11140TIP3    H133365   6.309   7.396   0.647
11140TIP3    H233366   6.315   7.544   0.613
11141TIP3   OH233367   2.332   4.144   1.797
11141TIP3    H133368   2.366   4.059   1.824
11141TIP3    H233369   2.381   4.164   1.717
11142TIP3   OH233370   3.027   4.068   1.054
11142TIP3    H133371   3.091   4.108   0.996
11142TIP3    H233372   3.009   4.135   1.120
11143TIP3   OH233373   0.289   2.279   2.782
11143TIP3    H133374   0.224   2.277   2.712
11143TIP3    H233375   0.242   2.316   2.857
11144TIP3   OH233376   3.399   0.180   1.296
11144TIP3    H133377   3.311   0.175   1.259
11144TIP3    H233378   3.430   0.089   1.297
11145TIP3   OH233379   3.934   2.416   4.545
11145TIP3    H133380   3.878   2.469   4.489
11145TIP3    H233381   3.947   2.335   4.496
11146TIP3   OH233382   6.641   3.739   0.309
11146TIP3    H133383   6.589   3.772   0.236
11146TIP3    H233384   6.596   3.658   0.335
11147TIP3   OH233385   3.704   6.540   3.380
11147TIP3    H133386   3.757   6.569   3.305
11147TIP3    H233387   3.614   6.558   3.354
11148TIP3   OH233388  -0.029   0.858   2.200
11148TIP3    H133389   0.004   0.890   2.116
11148TIP3    H233390  -0.040   0.764   2.186
11149TIP3   OH233391   7.958   0.424   1.820
11149TIP3    H133392   7.869   0.393   1.831
11149TIP3    H233393   7.951   0.519   1.820
11150TIP3   OH233394   4.663   1.475   2.360
11150TIP3    H133395   4.640   1.547   2.420
11150TIP3    H233396   4.586   1.419   2.360
11151TIP3   OH233397   6.276   6.840   2.423
11151TIP3    H133398   6.235   6.767   2.376
11151TIP3    H233399   6.251   6.918   2.374
11152TIP3   OH233400   0.424   3.901   1.194
11152TIP3    H133401   0.431   3.825   1.137
11152TIP3    H233402   0.513   3.913   1.229
11153TIP3   OH233403   2.089   2.732   0.680
11153TIP3    H133404   2.124   2.783   0.753
11153TIP3    H233405   2.137   2.649   0.683
11154TIP3   OH233406   6.276   3.383   3.912
11154TIP3    H133407   6.262   3.326   3.836
11154TIP3    H233408   6.226   3.462   3.892
11155TIP3   OH233409   2.769   7.439   2.093
11155TIP3    H133410   2.706   7.506   2.120
11155TIP3    H233411   2.811   7.411   2.174
11156TIP3   OH233412   7.048   3.464   2.188
11156TIP3    H133413   7.129   3.514   2.194
11156TIP3    H233414   6.978   3.530   2.188
11157TIP3   OH233415   2.320   5.860   1.034
11157TIP3    H133416   2.289   5.834   0.947
11157TIP3    H233417   2.240   5.875   1.084
11158TIP3   OH233418   2.739   2.406   0.778
11158TIP3    H133419   2.677   2.478   0.776
11158TIP3    H233420   2.774   2.402   0.689
11159TIP3   OH233421   1.450   0.644   2.318
11159TIP3    H133422   1.449   0.737   2.341
11159TIP3    H233423   1.382   0.605   2.373
11160TIP3   OH233424   3.431   6.769   5.839
11160TIP3    H133425   3.400   6.854   5.869
11160TIP3    H233426   3.417   6.770   5.744
11161TIP3   OH233427   1.032   2.974   5.477
11161TIP3    H133428   1.024   2.888   5.519
11161TIP3    H233429   1.030   3.036   5.550
11162TIP3   OH233430   5.248   0.449   3.204
11162TIP3    H133431   5.201   0.439   3.287
11162TIP3    H233432   5.223   0.372   3.153
11163TIP3   OH233433   5.936   1.034   6.430
11163TIP3    H133434   5.854   1.082   6.438
11163TIP3    H233435   5.983   1.052   6.511
11164TIP3   OH233436   5.984   6.523   0.705
11164TIP3    H133437   6.029   6.491   0.627
11164TIP3    H233438   5.896   6.485   0.699
11165TIP3   OH233439   4.947   3.730   1.735
11165TIP3    H133440   4.919   3.747   1.825
11165TIP3    H233441   5.011   3.659   1.743
11166TIP3   OH233442   1.396   5.448   2.537
11166TIP3    H133443   1.380   5.382   2.604
11166TIP3    H233444   1.330   5.515   2.552
11167TIP3   OH233445   4.773   5.100   1.069
11167TIP3    H133446   4.824   5.120   0.990
11167TIP3    H233447   4.831   5.044   1.121
11168TIP3   OH233448   4.301   6.272   0.260
11168TIP3    H133449   4.282   6.308   0.347
11168TIP3    H233450   4.218   6.274   0.214
11169TIP3   OH233451   7.667   3.712   5.197
11169TIP3    H133452   7.732   3.764   5.244
11169TIP3    H233453   7.720   3.649   5.147
11170TIP3   OH233454   3.444   6.837   6.156
11170TIP3    H133455   3.527   6.884   6.151
11170TIP3    H233456   3.394   6.867   6.079
11171TIP3   OH233457   5.589   0.725   1.813
11171TIP3    H133458   5.527   0.654   1.801
11171TIP3    H233459   5.544   0.787   1.871
11172TIP3   OH233460   7.296   3.249   6.514
11172TIP3    H133461   7.345   3.212   6.441
11172TIP3    H233462   7.207   3.260   6.480
11173TIP3   OH233463   7.283   2.353   3.634
11173TIP3    H133464   7.349   2.418   3.658
11173TIP3    H233465   7.321   2.270   3.660
11174TIP3   OH233466   4.111  -0.037   4.744
11174TIP3    H133467   4.196  -0.022   4.703
11174TIP3    H233468   4.081   0.051   4.768
11175TIP3   OH233469   3.157   0.988   0.694
11175TIP3    H133470   3.215   0.913   0.682
11175TIP3    H233471   3.100   0.962   0.767
11176TIP3   OH233472   4.687   3.902   1.046
11176TIP3    H133473   4.712   3.931   1.134
11176TIP3    H233474   4.629   3.826   1.061
11177TIP3   OH233475   7.624   1.480   4.924
11177TIP3    H133476   7.596   1.417   4.989
11177TIP3    H233477   7.665   1.427   4.855
11178TIP3   OH233478   2.251   4.151   2.833
11178TIP3    H133479   2.275   4.179   2.921
11178TIP3    H233480   2.161   4.182   2.822
11179TIP3   OH233481   1.879   0.093   4.239
11179TIP3    H133482   1.803   0.147   4.217
11179TIP3    H233483   1.949   0.125   4.181
11180TIP3   OH233484   4.192   6.875   0.272
11180TIP3    H133485   4.158   6.935   0.206
11180TIP3    H233486   4.121   6.864   0.334
11181TIP3   OH233487   4.034   2.606   6.152
11181TIP3    H133488   4.087   2.543   6.103
11181TIP3    H233489   4.034   2.685   6.098
11182TIP3   OH233490   5.086   0.150   3.590
11182TIP3    H133491   5.110   0.237   3.557
11182TIP3    H233492   5.094   0.092   3.514
11183TIP3   OH233493   4.562   2.736   2.740
11183TIP3    H133494   4.510   2.802   2.695
11183TIP3    H233495   4.617   2.698   2.672
11184TIP3   OH233496   6.362   5.576   3.282
11184TIP3    H133497   6.291   5.523   3.318
11184TIP3    H233498   6.438   5.517   3.279
11185TIP3   OH233499   7.793   6.229   2.647
11185TIP3    H133500   7.750   6.152   2.610
11185TIP3    H233501   7.740   6.253   2.722
11186TIP3   OH233502   8.085   5.189   3.298
11186TIP3    H133503   8.061   5.099   3.322
11186TIP3    H233504   8.146   5.217   3.366
11187TIP3   OH233505   1.594   4.502   4.676
11187TIP3    H133506   1.651   4.564   4.722
11187TIP3    H233507   1.543   4.557   4.616
11188TIP3   OH233508   7.064   6.924   5.105
11188TIP3    H133509   7.150   6.943   5.069
11188TIP3    H233510   7.070   6.948   5.197
11189TIP3   OH233511   6.053   6.807   0.482
11189TIP3    H133512   6.092   6.723   0.457
11189TIP3    H233513   6.128   6.863   0.505
11190TIP3   OH233514   3.161   3.132   1.168
11190TIP3    H133515   3.203   3.050   1.142
11190TIP3    H233516   3.221   3.171   1.231
11191TIP3   OH233517   4.449   2.683   1.563
11191TIP3    H133518   4.415   2.766   1.597
11191TIP3    H233519   4.408   2.674   1.477
11192TIP3   OH233520   0.860   7.492   1.950
11192TIP3    H133521   0.896   7.543   1.877
11192TIP3    H233522   0.908   7.523   2.027
11193TIP3   OH233523   6.951   3.580   6.364
11193TIP3    H133524   6.949   3.643   6.435
11193TIP3    H233525   6.956   3.634   6.285
11194TIP3   OH233526   1.223   6.467   3.377
11194TIP3    H133527   1.227   6.372   3.364
11194TIP3    H233528   1.314   6.492   3.397
11195TIP3   OH233529   6.380   2.798   3.997
11195TIP3    H133530   6.355   2.885   4.028
11195TIP3    H233531   6.466   2.782   4.036
11196TIP3   OH233532   4.412   5.576   3.506
11196TIP3    H133533   4.384   5.654   3.459
11196TIP3    H233534   4.397   5.504   3.445
11197TIP3   OH233535   3.658   4.839   0.264
11197TIP3    H133536   3.571   4.823   0.301
11197TIP3    H233537   3.660   4.933   0.247
11198TIP3   OH233538   4.531   4.909   1.048
11198TIP3    H133539   4.522   4.979   0.984
11198TIP3    H233540   4.619   4.919   1.084
11199TIP3   OH233541   0.260   1.649   4.532
11199TIP3    H133542   0.256   1.715   4.462
11199TIP3    H233543   0.277   1.567   4.486
11200TIP3   OH233544   5.267   3.901   2.615
11200TIP3    H133545   5.307   3.959   2.550
11200TIP3    H233546   5.224   3.833   2.563
11201TIP3   OH233547   3.738   5.670   5.705
11201TIP3    H133548   3.824   5.683   5.664
11201TIP3    H233549   3.757   5.665   5.799
11202TIP3   OH233550   2.337   7.571   1.736
11202TIP3    H133551   2.274   7.558   1.806
11202TIP3    H233552   2.384   7.488   1.729
11203TIP3   OH233553   3.024   5.409   1.479
11203TIP3    H133554   3.070   5.412   1.563
11203TIP3    H233555   3.092   5.422   1.414
11204TIP3   OH233556   6.302   1.902   6.591
11204TIP3    H133557   6.294   1.964   6.664
11204TIP3    H233558   6.252   1.941   6.520
11205TIP3   OH233559   4.624   5.377   2.531
11205TIP3    H133560   4.617   5.314   2.459
11205TIP3    H233561   4.597   5.461   2.492
11206TIP3   OH233562   4.021   5.125   2.585
11206TIP3    H133563   3.959   5.193   2.612
11206TIP3    H233564   4.017   5.060   2.655
11207TIP3   OH233565   3.731   6.748   1.341
11207TIP3    H133566   3.696   6.834   1.363
11207TIP3    H233567   3.818   6.765   1.306
11208TIP3   OH233568   7.105   3.026   2.207
11208TIP3    H133569   7.093   2.956   2.271
11208TIP3    H233570   7.174   3.081   2.244
11209TIP3   OH233571   0.214   2.718   1.263
11209TIP3    H133572   0.274   2.651   1.230
11209TIP3    H233573   0.173   2.754   1.185
11210TIP3   OH233574   5.048   2.210   2.822
11210TIP3    H133575   5.092   2.165   2.894
11210TIP3    H233576   5.014   2.139   2.767
11211TIP3   OH233577   3.232   5.654   6.375
11211TIP3    H133578   3.171   5.715   6.416
11211TIP3    H233579   3.319   5.689   6.393
11212TIP3   OH233580   7.346   0.607   3.539
11212TIP3    H133581   7.338   0.681   3.599
11212TIP3    H233582   7.429   0.565   3.564
11213TIP3   OH233583   4.977   6.281   1.011
11213TIP3    H133584   5.003   6.309   0.924
11213TIP3    H233585   4.887   6.249   1.000
11214TIP3   OH233586   1.785   2.213   1.731
11214TIP3    H133587   1.830   2.279   1.679
11214TIP3    H233588   1.758   2.146   1.667
11215TIP3   OH233589   7.313   2.176   6.736
11215TIP3    H133590   7.246   2.238   6.707
11215TIP3    H233591   7.317   2.188   6.831
11216TIP3   OH233592   1.571   1.462   1.907
11216TIP3    H133593   1.597   1.401   1.977
11216TIP3    H233594   1.627   1.538   1.919
11217TIP3   OH233595   0.578   5.393   0.785
11217TIP3    H133596   0.524   5.456   0.737
11217TIP3    H233597   0.524   5.314   0.789
11218TIP3   OH233598   4.774   5.046   4.704
11218TIP3    H133599   4.736   5.133   4.690
11218TIP3    H233600   4.869   5.062   4.708
11219TIP3   OH233601   1.503   0.139   2.868
11219TIP3    H133602   1.480   0.048   2.885
11219TIP3    H233603   1.549   0.168   2.947
11220TIP3   OH233604   5.398   7.677   6.112
11220TIP3    H133605   5.368   7.600   6.064
11220TIP3    H233606   5.330   7.693   6.177
11221TIP3   OH233607   4.495   7.346   5.348
11221TIP3    H133608   4.402   7.347   5.327
11221TIP3    H233609   4.522   7.255   5.335
11222TIP3   OH233610   6.422   1.952   3.510
11222TIP3    H133611   6.485   1.942   3.438
11222TIP3    H233612   6.353   2.007   3.474
11223TIP3   OH233613   0.412   6.671   4.244
11223TIP3    H133614   0.412   6.586   4.200
11223TIP3    H233615   0.344   6.721   4.199
11224TIP3   OH233616   4.479   3.767   4.066
11224TIP3    H133617   4.517   3.854   4.056
11224TIP3    H233618   4.398   3.770   4.016
11225TIP3   OH233619   0.211   6.883   3.443
11225TIP3    H133620   0.146   6.849   3.504
11225TIP3    H233621   0.240   6.806   3.394
11226TIP3   OH233622   5.728   2.361   3.413
11226TIP3    H133623   5.799   2.303   3.440
11226TIP3    H233624   5.705   2.409   3.492
11227TIP3   OH233625   2.024   5.311   3.418
11227TIP3    H133626   1.966   5.354   3.355
11227TIP3    H233627   2.011   5.217   3.404
11228TIP3   OH233628   5.810   3.510   0.960
11228TIP3    H133629   5.787   3.595   0.921
11228TIP3    H233630   5.880   3.531   1.022
11229TIP3   OH233631   6.657   6.646   1.591
11229TIP3    H133632   6.593   6.645   1.663
11229TIP3    H233633   6.722   6.711   1.617
11230TIP3   OH233634   3.039   5.914   6.366
11230TIP3    H133635   2.991   5.977   6.312
11230TIP3    H233636   3.115   5.890   6.312
11231TIP3   OH233637   2.627   6.565   2.864
11231TIP3    H133638   2.719   6.592   2.864
11231TIP3    H233639   2.593   6.596   2.947
11232TIP3   OH233640   1.738   0.765   6.507
11232TIP3    H133641   1.817   0.716   6.531
11232TIP3    H233642   1.723   0.742   6.415
11233TIP3   OH233643   7.374   6.172   1.642
11233TIP3    H133644   7.469   6.185   1.631
11233TIP3    H233645   7.335   6.222   1.570
11234TIP3   OH233646   1.106   0.823   1.430
11234TIP3    H133647   1.055   0.765   1.373
11234TIP3    H233648   1.160   0.875   1.370
11235TIP3   OH233649   8.223   7.521   4.005
11235TIP3    H133650   8.160   7.456   4.036
11235TIP3    H233651   8.183   7.605   4.024
11236TIP3   OH233652   4.090   4.542   3.733
11236TIP3    H133653   4.181   4.569   3.724
11236TIP3    H233654   4.059   4.590   3.810
11237TIP3   OH233655   7.586   6.568   5.486
11237TIP3    H133656   7.621   6.647   5.445
11237TIP3    H233657   7.559   6.513   5.412
11238TIP3   OH233658   2.831   4.562   1.061
11238TIP3    H133659   2.899   4.520   1.008
11238TIP3    H233660   2.866   4.648   1.083
11239TIP3   OH233661   3.901   7.650   4.951
11239TIP3    H133662   3.923   7.685   5.038
11239TIP3    H233663   3.807   7.668   4.941
11240TIP3   OH233664   2.983   6.115   6.205
11240TIP3    H133665   2.997   6.202   6.241
11240TIP3    H233666   3.063   6.095   6.156
11241TIP3   OH233667   4.581   7.642   6.342
11241TIP3    H133668   4.587   7.676   6.254
11241TIP3    H233669   4.520   7.568   6.335
11242TIP3   OH233670  -0.028   2.857   2.562
11242TIP3    H133671   0.041   2.859   2.496
11242TIP3    H233672   0.018   2.846   2.645
11243TIP3   OH233673   3.973   4.287   2.130
11243TIP3    H133674   3.950   4.277   2.037
11243TIP3    H233675   4.069   4.290   2.130
11244TIP3   OH233676   4.076   3.110   2.797
11244TIP3    H133677   4.040   3.088   2.711
11244TIP3    H233678   4.171   3.111   2.784
11245TIP3   OH233679   8.003   6.366   6.774
11245TIP3    H133680   7.965   6.443   6.731
11245TIP3    H233681   7.998   6.297   6.709
11246TIP3   OH233682   8.227   6.640   5.468
11246TIP3    H133683   8.206   6.593   5.549
11246TIP3    H233684   8.183   6.589   5.400
11247TIP3   OH233685   7.937   0.092   2.118
11247TIP3    H133686   8.003   0.041   2.070
11247TIP3    H233687   7.980   0.175   2.137
11248TIP3   OH233688   5.050   7.115   3.097
11248TIP3    H133689   5.108   7.186   3.069
11248TIP3    H233690   5.045   7.057   3.021
11249TIP3   OH233691   5.897   0.603   0.329
11249TIP3    H133692   5.923   0.681   0.378
11249TIP3    H233693   5.847   0.551   0.391
11250TIP3   OH233694   6.193   7.555   1.504
11250TIP3    H133695   6.201   7.645   1.471
11250TIP3    H233696   6.276   7.540   1.550
11251TIP3   OH233697   5.853   4.180   5.561
11251TIP3    H133698   5.894   4.168   5.475
11251TIP3    H233699   5.889   4.262   5.594
11252TIP3   OH233700   2.755   2.830   5.055
11252TIP3    H133701   2.784   2.909   5.008
11252TIP3    H233702   2.702   2.863   5.127
11253TIP3   OH233703   4.629   1.352   0.470
11253TIP3    H133704   4.603   1.289   0.538
11253TIP3    H233705   4.715   1.322   0.441
11254TIP3   OH233706   3.130   1.659   1.760
11254TIP3    H133707   3.095   1.572   1.739
11254TIP3    H233708   3.074   1.691   1.830
11255TIP3   OH233709   7.047   0.884   5.979
11255TIP3    H133710   7.026   0.799   5.941
11255TIP3    H233711   7.136   0.873   6.013
11256TIP3   OH233712   3.033   0.897   5.457
11256TIP3    H133713   3.100   0.910   5.390
11256TIP3    H233714   3.061   0.819   5.505
11257TIP3   OH233715   7.825   2.612   3.290
11257TIP3    H133716   7.731   2.602   3.300
11257TIP3    H233717   7.863   2.564   3.363
11258TIP3   OH233718   5.493   6.135   3.905
11258TIP3    H133719   5.517   6.113   3.815
11258TIP3    H233720   5.458   6.053   3.941
11259TIP3   OH233721   2.310   5.457   3.802
11259TIP3    H133722   2.332   5.448   3.895
11259TIP3    H233723   2.356   5.536   3.774
11260TIP3   OH233724   0.631   5.472   2.771
11260TIP3    H133725   0.562   5.435   2.825
11260TIP3    H233726   0.606   5.564   2.759
11261TIP3   OH233727   1.514   0.225   6.297
11261TIP3    H133728   1.457   0.275   6.239
11261TIP3    H233729   1.462   0.214   6.377
11262TIP3   OH233730   0.708   6.679   6.322
11262TIP3    H133731   0.699   6.584   6.334
11262TIP3    H233732   0.785   6.702   6.375
11263TIP3   OH233733   3.790   0.676   1.260
11263TIP3    H133734   3.868   0.724   1.286
11263TIP3    H233735   3.822   0.587   1.241
11264TIP3   OH233736   4.336   0.907   3.076
11264TIP3    H133737   4.299   0.841   3.136
11264TIP3    H233738   4.293   0.988   3.101
11265TIP3   OH233739   7.189   7.522   5.785
11265TIP3    H133740   7.205   7.447   5.727
11265TIP3    H233741   7.095   7.518   5.803
11266TIP3   OH233742   5.796   5.677   5.659
11266TIP3    H133743   5.817   5.629   5.739
11266TIP3    H233744   5.867   5.741   5.651
11267TIP3   OH233745   5.142   4.749   3.402
11267TIP3    H133746   5.157   4.672   3.456
11267TIP3    H233747   5.211   4.810   3.426
11268TIP3   OH233748   0.344   0.856   2.941
11268TIP3    H133749   0.264   0.852   2.889
11268TIP3    H233750   0.409   0.806   2.891
11269TIP3   OH233751   3.724   0.781   0.848
11269TIP3    H133752   3.741   0.869   0.813
11269TIP3    H233753   3.741   0.723   0.774
11270TIP3   OH233754   3.172   2.264   3.381
11270TIP3    H133755   3.095   2.223   3.342
11270TIP3    H233756   3.197   2.333   3.319
11271TIP3   OH233757   4.096   3.965   2.003
11271TIP3    H133758   4.156   3.942   1.931
11271TIP3    H233759   4.120   4.055   2.026
11272TIP3   OH233760   2.720   4.932   0.883
11272TIP3    H133761   2.643   4.962   0.834
11272TIP3    H233762   2.742   4.847   0.844
11273TIP3   OH233763   2.611   0.513   3.006
11273TIP3    H133764   2.696   0.555   3.008
11273TIP3    H233765   2.578   0.527   2.917
11274TIP3   OH233766   0.961   5.151   4.103
11274TIP3    H133767   0.882   5.152   4.157
11274TIP3    H233768   0.946   5.219   4.037
11275TIP3   OH233769   3.165   0.347   1.474
11275TIP3    H133770   3.188   0.421   1.419
11275TIP3    H233771   3.098   0.299   1.424
11276TIP3   OH233772   6.378   3.993   1.980
11276TIP3    H133773   6.325   4.046   2.040
11276TIP3    H233774   6.425   4.058   1.927
11277TIP3   OH233775   7.782   6.459   4.980
11277TIP3    H133776   7.763   6.505   5.062
11277TIP3    H233777   7.847   6.393   5.005
11278TIP3   OH233778   6.323   4.836   0.661
11278TIP3    H133779   6.228   4.850   0.662
11278TIP3    H233780   6.358   4.911   0.709
11279TIP3   OH233781   1.602   2.347   2.130
11279TIP3    H133782   1.632   2.418   2.187
11279TIP3    H233783   1.530   2.385   2.081
11280TIP3   OH233784   1.361   4.054   4.308
11280TIP3    H133785   1.353   4.019   4.396
11280TIP3    H233786   1.281   4.106   4.295
11281TIP3   OH233787   0.244   7.536   0.222
11281TIP3    H133788   0.319   7.515   0.167
11281TIP3    H233789   0.172   7.484   0.186
11282TIP3   OH233790   5.799   6.715   5.138
11282TIP3    H133791   5.721   6.661   5.154
11282TIP3    H233792   5.768   6.805   5.149
11283TIP3   OH233793   4.227   0.358   1.552
11283TIP3    H133794   4.317   0.381   1.578
11283TIP3    H233795   4.193   0.307   1.625
11284TIP3   OH233796   3.377   1.285   4.065
11284TIP3    H133797   3.442   1.267   4.132
11284TIP3    H233798   3.293   1.264   4.106
11285TIP3   OH233799   4.205   1.681   5.341
11285TIP3    H133800   4.205   1.687   5.245
11285TIP3    H233801   4.113   1.666   5.364
11286TIP3   OH233802   4.602   6.808   4.131
11286TIP3    H133803   4.654   6.763   4.198
11286TIP3    H233804   4.512   6.782   4.148
11287TIP3   OH233805   5.973   5.539   0.840
11287TIP3    H133806   5.981   5.590   0.760
11287TIP3    H233807   6.051   5.564   0.891
11288TIP3   OH233808   7.639   4.608   1.572
11288TIP3    H133809   7.701   4.553   1.524
11288TIP3    H233810   7.565   4.617   1.513
11289TIP3   OH233811   4.848   7.643   3.438
11289TIP3    H133812   4.801   7.612   3.361
11289TIP3    H233813   4.871   7.564   3.486
11290TIP3   OH233814   0.941   4.164   6.372
11290TIP3    H133815   0.913   4.093   6.430
11290TIP3    H233816   0.933   4.128   6.284
11291TIP3   OH233817   4.217   0.690   4.297
11291TIP3    H133818   4.300   0.709   4.341
11291TIP3    H233819   4.151   0.695   4.367
11292TIP3   OH233820   2.313   2.066   2.942
11292TIP3    H133821   2.317   2.001   2.872
11292TIP3    H233822   2.224   2.060   2.976
11293TIP3   OH233823   7.497   3.107   1.010
11293TIP3    H133824   7.465   3.159   0.937
11293TIP3    H233825   7.552   3.040   0.970
11294TIP3   OH233826   4.829   1.129   5.100
11294TIP3    H133827   4.880   1.124   5.019
11294TIP3    H233828   4.771   1.205   5.087
11295TIP3   OH233829   2.995   3.572   6.402
11295TIP3    H133830   3.007   3.497   6.345
11295TIP3    H233831   2.903   3.566   6.430
11296TIP3   OH233832   7.790   5.924   2.822
11296TIP3    H133833   7.881   5.932   2.852
11296TIP3    H233834   7.762   5.839   2.855
11297TIP3   OH233835   4.925   2.214   1.889
11297TIP3    H133836   4.892   2.301   1.869
11297TIP3    H233837   4.855   2.154   1.861
11298TIP3   OH233838   8.082   6.160   1.484
11298TIP3    H133839   8.018   6.102   1.525
11298TIP3    H233840   8.054   6.166   1.393
11299TIP3   OH233841   7.367   4.053   3.841
11299TIP3    H133842   7.398   4.127   3.790
11299TIP3    H233843   7.375   4.081   3.932
11300TIP3   OH233844   6.748   6.371   1.618
11300TIP3    H133845   6.717   6.460   1.600
11300TIP3    H233846   6.828   6.383   1.669
11301TIP3   OH233847   0.442   7.804   3.920
11301TIP3    H133848   0.534   7.785   3.937
11301TIP3    H233849   0.442   7.850   3.836
11302TIP3   OH233850   7.501   4.898   2.399
11302TIP3    H133851   7.572   4.835   2.388
11302TIP3    H233852   7.528   4.952   2.474
11303TIP3   OH233853   4.964   4.216   4.220
11303TIP3    H133854   4.972   4.207   4.125
11303TIP3    H233855   4.974   4.309   4.236
11304TIP3   OH233856   0.879   0.813   3.218
11304TIP3    H133857   0.843   0.887   3.171
11304TIP3    H233858   0.959   0.791   3.170
11305TIP3   OH233859   7.039   0.949   3.747
11305TIP3    H133860   7.131   0.925   3.754
11305TIP3    H233861   6.992   0.879   3.791
11306TIP3   OH233862   1.592   4.621   5.802
11306TIP3    H133863   1.646   4.577   5.736
11306TIP3    H233864   1.578   4.709   5.766
11307TIP3   OH233865   7.643   5.990   0.728
11307TIP3    H133866   7.728   5.958   0.699
11307TIP3    H233867   7.638   5.964   0.821
11308TIP3   OH233868   3.511   1.998   4.724
11308TIP3    H133869   3.424   2.019   4.690
11308TIP3    H233870   3.571   2.044   4.665
11309TIP3   OH233871   7.913   4.478   1.815
11309TIP3    H133872   7.830   4.445   1.848
11309TIP3    H233873   7.931   4.557   1.867
11310TIP3   OH233874   1.981   5.022   5.698
11310TIP3    H133875   1.994   4.985   5.611
11310TIP3    H233876   2.052   4.985   5.751
11311TIP3   OH233877   2.883   5.526   5.116
11311TIP3    H133878   2.889   5.462   5.045
11311TIP3    H233879   2.858   5.475   5.193
11312TIP3   OH233880   2.356   4.378   1.092
11312TIP3    H133881   2.409   4.450   1.057
11312TIP3    H233882   2.392   4.300   1.051
11313TIP3   OH233883   1.520   5.314   2.176
11313TIP3    H133884   1.548   5.271   2.257
11313TIP3    H233885   1.584   5.285   2.111
11314TIP3   OH233886   6.795   6.857   1.698
11314TIP3    H133887   6.737   6.931   1.712
11314TIP3    H233888   6.874   6.895   1.658
11315TIP3   OH233889   4.999   3.102   0.471
11315TIP3    H133890   4.975   3.097   0.378
11315TIP3    H233891   5.094   3.105   0.471
11316TIP3   OH233892   2.733   7.439   3.737
11316TIP3    H133893   2.720   7.435   3.642
11316TIP3    H233894   2.822   7.473   3.748
11317TIP3   OH233895   0.769   3.253   2.329
11317TIP3    H133896   0.753   3.309   2.405
11317TIP3    H233897   0.723   3.172   2.349
11318TIP3   OH233898   4.491   0.592   3.828
11318TIP3    H133899   4.531   0.600   3.914
11318TIP3    H233900   4.459   0.679   3.808
11319TIP3   OH233901   1.728   2.150   6.542
11319TIP3    H133902   1.765   2.210   6.477
11319TIP3    H233903   1.688   2.208   6.607
11320TIP3   OH233904   1.231   7.539   6.383
11320TIP3    H133905   1.296   7.477   6.351
11320TIP3    H233906   1.152   7.487   6.394
11321TIP3   OH233907   3.953   0.494   0.698
11321TIP3    H133908   4.005   0.489   0.779
11321TIP3    H233909   3.992   0.566   0.649
11322TIP3   OH233910   4.202   2.887   2.040
11322TIP3    H133911   4.190   2.823   1.970
11322TIP3    H233912   4.199   2.835   2.121
11323TIP3   OH233913   2.572   7.701   1.604
11323TIP3    H133914   2.483   7.671   1.625
11323TIP3    H233915   2.565   7.735   1.515
11324TIP3   OH233916   1.754   1.934   0.784
11324TIP3    H133917   1.699   1.917   0.860
11324TIP3    H233918   1.839   1.957   0.821
11325TIP3   OH233919   5.272   3.977   3.076
11325TIP3    H133920   5.231   3.894   3.100
11325TIP3    H233921   5.334   3.955   3.007
11326TIP3   OH233922   7.270   3.168   2.393
11326TIP3    H133923   7.217   3.118   2.454
11326TIP3    H233924   7.242   3.259   2.406
11327TIP3   OH233925   6.408   1.406   3.840
11327TIP3    H133926   6.386   1.482   3.787
11327TIP3    H233927   6.495   1.425   3.875
11328TIP3   OH233928   2.278   4.559   1.527
11328TIP3    H133929   2.190   4.582   1.554
11328TIP3    H233930   2.266   4.499   1.453
11329TIP3   OH233931   7.975   6.186   5.963
11329TIP3    H133932   8.070   6.172   5.968
11329TIP3    H233933   7.951   6.220   6.049
11330TIP3   OH233934   5.133   1.411   3.188
11330TIP3    H133935   5.202   1.467   3.222
11330TIP3    H233936   5.171   1.323   3.186
11331TIP3   OH233937   0.430   7.251   4.480
11331TIP3    H133938   0.465   7.249   4.391
11331TIP3    H233939   0.438   7.161   4.511
11332TIP3   OH233940   6.529   1.104   5.390
11332TIP3    H133941   6.471   1.027   5.389
11332TIP3    H233942   6.472   1.177   5.366
11333TIP3   OH233943   6.128   4.882   5.976
11333TIP3    H133944   6.084   4.823   6.038
11333TIP3    H233945   6.063   4.896   5.907
11334TIP3   OH233946   7.784   5.615   1.747
11334TIP3    H133947   7.778   5.542   1.685
11334TIP3    H233948   7.877   5.639   1.747
11335TIP3   OH233949   0.211   4.722   1.945
11335TIP3    H133950   0.172   4.795   1.993
11335TIP3    H233951   0.140   4.658   1.938
11336TIP3   OH233952   4.043   7.496   5.782
11336TIP3    H133953   4.067   7.403   5.779
11336TIP3    H233954   3.964   7.499   5.836
11337TIP3   OH233955   5.793   0.436   2.859
11337TIP3    H133956   5.842   0.474   2.786
11337TIP3    H233957   5.725   0.384   2.817
11338TIP3   OH233958   5.813   3.415   0.283
11338TIP3    H133959   5.831   3.455   0.368
11338TIP3    H233960   5.721   3.434   0.266
11339TIP3   OH233961   1.363   2.516   4.528
11339TIP3    H133962   1.415   2.436   4.532
11339TIP3    H233963   1.427   2.587   4.534
11340TIP3   OH233964   7.425   1.175   2.247
11340TIP3    H133965   7.362   1.140   2.183
11340TIP3    H233966   7.370   1.215   2.315
11341TIP3   OH233967   1.165   5.554   2.677
11341TIP3    H133968   1.139   5.642   2.704
11341TIP3    H233969   1.179   5.507   2.759
11342TIP3   OH233970   3.960   6.788   0.780
11342TIP3    H133971   3.940   6.699   0.750
11342TIP3    H233972   3.886   6.812   0.835
11343TIP3   OH233973   6.623   5.967   3.771
11343TIP3    H133974   6.594   5.953   3.861
11343TIP3    H233975   6.561   6.031   3.736
11344TIP3   OH233976   5.353   7.031   5.222
11344TIP3    H133977   5.367   7.058   5.131
11344TIP3    H233978   5.313   7.107   5.264
11345TIP3   OH233979   8.035   2.128   3.939
11345TIP3    H133980   8.091   2.185   3.992
11345TIP3    H233981   8.013   2.182   3.863
11346TIP3   OH233982   6.280   5.513   5.465
11346TIP3    H133983   6.310   5.591   5.419
11346TIP3    H233984   6.211   5.544   5.523
11347TIP3   OH233985   1.879   4.597   2.474
11347TIP3    H133986   1.947   4.555   2.527
11347TIP3    H233987   1.914   4.596   2.385
11348TIP3   OH233988   8.255   2.877   0.732
11348TIP3    H133989   8.309   2.897   0.655
11348TIP3    H233990   8.298   2.922   0.804
11349TIP3   OH233991   5.684   7.606   1.789
11349TIP3    H133992   5.710   7.643   1.873
11349TIP3    H233993   5.638   7.525   1.811
11350TIP3   OH233994   4.258   0.039   6.237
11350TIP3    H133995   4.250   0.086   6.154
11350TIP3    H233996   4.180   0.063   6.286
11351TIP3   OH233997   0.932   1.441   3.180
11351TIP3    H133998   0.972   1.421   3.264
11351TIP3    H233999   0.846   1.400   3.184
11352TIP3   OH234000   2.645   3.870   5.088
11352TIP3    H134001   2.592   3.792   5.076
11352TIP3    H234002   2.643   3.914   5.002
11353TIP3   OH234003   2.195   1.519   2.973
11353TIP3    H134004   2.232   1.548   3.056
11353TIP3    H234005   2.149   1.438   2.993
11354TIP3   OH234006   2.582   1.767   1.549
11354TIP3    H134007   2.547   1.825   1.481
11354TIP3    H234008   2.657   1.815   1.584
11355TIP3   OH234009   3.115   0.264   4.417
11355TIP3    H134010   3.127   0.307   4.502
11355TIP3    H234011   3.069   0.329   4.364
11356TIP3   OH234012   2.175   3.628   6.387
11356TIP3    H134013   2.137   3.662   6.306
11356TIP3    H234014   2.121   3.666   6.457
11357TIP3   OH234015   3.255   7.482   1.602
11357TIP3    H134016   3.307   7.402   1.608
11357TIP3    H234017   3.295   7.531   1.530
11358TIP3   OH234018   6.574   6.156   5.086
11358TIP3    H134019   6.641   6.166   5.019
11358TIP3    H234020   6.528   6.240   5.087
11359TIP3   OH234021   5.485   3.055   1.916
11359TIP3    H134022   5.408   3.108   1.892
11359TIP3    H234023   5.553   3.082   1.854
11360TIP3   OH234024   6.411   7.699   0.265
11360TIP3    H134025   6.391   7.784   0.227
11360TIP3    H234026   6.397   7.637   0.193
11361TIP3   OH234027   0.541   5.416   6.645
11361TIP3    H134028   0.505   5.422   6.557
11361TIP3    H234029   0.583   5.501   6.659
11362TIP3   OH234030   3.191   3.936   0.751
11362TIP3    H134031   3.189   4.031   0.740
11362TIP3    H234032   3.183   3.900   0.663
11363TIP3   OH234033   5.938   6.948   5.963
11363TIP3    H134034   5.899   6.962   6.049
11363TIP3    H234035   6.010   6.887   5.980
11364TIP3   OH234036   3.093   7.070   6.191
11364TIP3    H134037   3.125   7.114   6.113
11364TIP3    H234038   3.099   7.136   6.260
11365TIP3   OH234039   1.439   5.276   6.624
11365TIP3    H134040   1.350   5.244   6.612
11365TIP3    H234041   1.492   5.197   6.636
11366TIP3   OH234042   5.106   2.089   0.160
11366TIP3    H134043   5.131   2.009   0.113
11366TIP3    H234044   5.178   2.150   0.142
11367TIP3   OH234045   4.800   0.239   5.692
11367TIP3    H134046   4.720   0.205   5.733
11367TIP3    H234047   4.773   0.266   5.604
11368TIP3   OH234048   1.498   0.063   1.849
11368TIP3    H134049   1.483   0.130   1.782
11368TIP3    H234050   1.529  -0.013   1.800
11369TIP3   OH234051   2.979   6.511   3.915
11369TIP3    H134052   3.011   6.434   3.963
11369TIP3    H234053   3.041   6.523   3.844
11370TIP3   OH234054   7.923   3.903   5.004
11370TIP3    H134055   7.908   3.888   5.097
11370TIP3    H234056   7.887   3.990   4.986
11371TIP3   OH234057   1.319   3.036   4.347
11371TIP3    H134058   1.298   2.964   4.406
11371TIP3    H234059   1.274   3.112   4.385
11372TIP3   OH234060   1.458   3.776   0.487
11372TIP3    H134061   1.477   3.847   0.549
11372TIP3    H234062   1.368   3.751   0.506
11373TIP3   OH234063   6.142   0.211   5.052
11373TIP3    H134064   6.101   0.142   5.000
11373TIP3    H234065   6.183   0.165   5.125
11374TIP3   OH234066   6.479   4.764   2.571
11374TIP3    H134067   6.542   4.706   2.528
11374TIP3    H234068   6.533   4.823   2.623
11375TIP3   OH234069   3.243   0.794   1.187
11375TIP3    H134070   3.205   0.834   1.109
11375TIP3    H234071   3.337   0.790   1.169
11376TIP3   OH234072   0.965   3.339   0.435
11376TIP3    H134073   1.018   3.328   0.514
11376TIP3    H234074   0.925   3.426   0.445
11377TIP3   OH234075   2.840   1.585   4.110
11377TIP3    H134076   2.822   1.491   4.098
11377TIP3    H234077   2.936   1.591   4.108
11378TIP3   OH234078   2.010   0.485   3.655
11378TIP3    H134079   1.932   0.520   3.698
11378TIP3    H234080   2.020   0.397   3.692
11379TIP3   OH234081   8.247   2.188   2.797
11379TIP3    H134082   8.232   2.120   2.862
11379TIP3    H234083   8.177   2.176   2.733
11380TIP3   OH234084   7.515   3.494   2.154
11380TIP3    H134085   7.515   3.415   2.099
11380TIP3    H234086   7.570   3.471   2.229
11381TIP3   OH234087   6.488   5.389   3.005
11381TIP3    H134088   6.571   5.395   3.053
11381TIP3    H234089   6.515   5.378   2.913
11382TIP3   OH234090   2.378   1.358   1.779
11382TIP3    H134091   2.326   1.436   1.765
11382TIP3    H234092   2.364   1.305   1.700
11383TIP3   OH234093   4.286   3.986   6.400
11383TIP3    H134094   4.353   4.046   6.433
11383TIP3    H234095   4.262   4.021   6.314
11384TIP3   OH234096   1.264   6.561   3.834
11384TIP3    H134097   1.240   6.592   3.747
11384TIP3    H234098   1.335   6.620   3.861
11385TIP3   OH234099   6.916   7.175   2.653
11385TIP3    H134100   6.896   7.084   2.675
11385TIP3    H234101   6.988   7.198   2.712
11386TIP3   OH234102   3.410   5.219   0.303
11386TIP3    H134103   3.444   5.150   0.246
11386TIP3    H234104   3.348   5.267   0.248
11387TIP3   OH234105   7.488   6.381   1.273
11387TIP3    H134106   7.495   6.303   1.219
11387TIP3    H234107   7.576   6.396   1.307
11388TIP3   OH234108   1.362   7.647   3.279
11388TIP3    H134109   1.450   7.643   3.240
11388TIP3    H234110   1.308   7.596   3.219
11389TIP3   OH234111   5.470   5.685   2.800
11389TIP3    H134112   5.511   5.758   2.847
11389TIP3    H234113   5.515   5.607   2.833
11390TIP3   OH234114  -0.028   3.026   3.885
11390TIP3    H134115  -0.007   3.073   3.966
11390TIP3    H234116   0.046   2.968   3.871
11391TIP3   OH234117   0.188   0.647   4.906
11391TIP3    H134118   0.171   0.574   4.965
11391TIP3    H234119   0.170   0.613   4.819
11392TIP3   OH234120   0.211   5.095   0.678
11392TIP3    H134121   0.235   5.066   0.766
11392TIP3    H234122   0.253   5.181   0.669
11393TIP3   OH234123   6.655   3.813   3.759
11393TIP3    H134124   6.563   3.802   3.784
11393TIP3    H234125   6.670   3.908   3.762
11394TIP3   OH234126   0.464   3.870   3.206
11394TIP3    H134127   0.419   3.823   3.276
11394TIP3    H234128   0.430   3.831   3.125
11395TIP3   OH234129   1.520   6.064   4.052
11395TIP3    H134130   1.491   6.071   3.961
11395TIP3    H234131   1.500   6.149   4.090
11396TIP3   OH234132   7.984   7.640   0.716
11396TIP3    H134133   7.931   7.719   0.717
11396TIP3    H234134   7.927   7.573   0.677
11397TIP3   OH234135   5.643   3.001   0.147
11397TIP3    H134136   5.737   3.019   0.155
11397TIP3    H234137   5.638   2.908   0.126
11398TIP3   OH234138   6.778   6.848   0.076
11398TIP3    H134139   6.868   6.815   0.071
11398TIP3    H234140   6.745   6.813   0.159
11399TIP3   OH234141   2.645   6.650   5.430
11399TIP3    H134142   2.701   6.688   5.497
11399TIP3    H234143   2.655   6.555   5.441
11400TIP3   OH234144   1.871   5.469   3.661
11400TIP3    H134145   1.808   5.532   3.626
11400TIP3    H234146   1.859   5.473   3.756
11401TIP3   OH234147   0.248   2.856   3.020
11401TIP3    H134148   0.203   2.850   3.104
11401TIP3    H234149   0.278   2.947   3.016
11402TIP3   OH234150   6.899   7.565   3.131
11402TIP3    H134151   6.976   7.613   3.164
11402TIP3    H234152   6.893   7.489   3.189
11403TIP3   OH234153   3.295   5.537   4.443
11403TIP3    H134154   3.230   5.606   4.449
11403TIP3    H234155   3.373   5.573   4.485
11404TIP3   OH234156   1.579   4.639  -0.010
11404TIP3    H134157   1.502   4.661   0.044
11404TIP3    H234158   1.646   4.702   0.018
11405TIP3   OH234159   7.303   5.158   4.421
11405TIP3    H134160   7.244   5.170   4.495
11405TIP3    H234161   7.383   5.204   4.446
11406TIP3   OH234162   7.440   0.996   1.718
11406TIP3    H134163   7.437   0.914   1.667
11406TIP3    H234164   7.517   0.986   1.775
11407TIP3   OH234165   1.145   0.056   2.854
11407TIP3    H134166   1.205  -0.001   2.901
11407TIP3    H234167   1.080  -0.003   2.816
11408TIP3   OH234168   5.279   6.004   2.383
11408TIP3    H134169   5.278   6.064   2.308
11408TIP3    H234170   5.194   5.961   2.382
11409TIP3   OH234171   7.696   7.545   0.695
11409TIP3    H134172   7.670   7.497   0.616
11409TIP3    H234173   7.726   7.630   0.661
11410TIP3   OH234174   2.961   4.306   6.401
11410TIP3    H134175   2.965   4.384   6.347
11410TIP3    H234176   3.005   4.331   6.482
11411TIP3   OH234177   6.803   0.321   3.330
11411TIP3    H134178   6.851   0.365   3.260
11411TIP3    H234179   6.870   0.277   3.382
11412TIP3   OH234180   2.588   6.357   1.418
11412TIP3    H134181   2.545   6.417   1.356
11412TIP3    H234182   2.521   6.291   1.437
11413TIP3   OH234183   3.022   0.418   1.980
11413TIP3    H134184   3.107   0.459   1.992
11413TIP3    H234185   2.959   0.490   1.987
11414TIP3   OH234186   2.251   2.591   6.441
11414TIP3    H134187   2.312   2.525   6.408
11414TIP3    H234188   2.231   2.562   6.530
11415TIP3   OH234189   3.136   0.170   1.897
11415TIP3    H134190   3.100   0.232   1.960
11415TIP3    H234191   3.227   0.198   1.885
11416TIP3   OH234192   5.924   3.347   0.748
11416TIP3    H134193   5.889   3.267   0.788
11416TIP3    H234194   5.907   3.416   0.811
11417TIP3   OH234195   6.221   3.099   5.364
11417TIP3    H134196   6.279   3.050   5.306
11417TIP3    H234197   6.243   3.069   5.452
11418TIP3   OH234198   5.778   7.086   3.864
11418TIP3    H134199   5.802   7.172   3.828
11418TIP3    H234200   5.852   7.061   3.919
11419TIP3   OH234201   7.441   5.541   5.713
11419TIP3    H134202   7.478   5.453   5.710
11419TIP3    H234203   7.427   5.565   5.621
11420TIP3   OH234204   1.809   6.575   0.521
11420TIP3    H134205   1.874   6.615   0.579
11420TIP3    H234206   1.810   6.629   0.442
11421TIP3   OH234207   4.511   4.439   5.157
11421TIP3    H134208   4.477   4.354   5.129
11421TIP3    H234209   4.465   4.502   5.101
11422TIP3   OH234210   5.721   0.859   1.571
11422TIP3    H134211   5.691   0.937   1.617
11422TIP3    H234212   5.667   0.788   1.607
11423TIP3   OH234213   4.482   6.617   6.131
11423TIP3    H134214   4.472   6.711   6.116
11423TIP3    H234215   4.541   6.611   6.207
11424TIP3   OH234216   5.647   3.642   1.487
11424TIP3    H134217   5.690   3.563   1.519
11424TIP3    H234218   5.566   3.611   1.446
11425TIP3   OH234219   6.440   2.748   6.040
11425TIP3    H134220   6.429   2.842   6.052
11425TIP3    H234221   6.535   2.735   6.033
11426TIP3   OH234222   5.538   1.326   1.129
11426TIP3    H134223   5.587   1.394   1.084
11426TIP3    H234224   5.552   1.247   1.076
11427TIP3   OH234225   0.976   4.323   5.633
11427TIP3    H134226   1.011   4.235   5.616
11427TIP3    H234227   0.970   4.363   5.547
11428TIP3   OH234228   0.687   0.005   1.457
11428TIP3    H134229   0.779   0.033   1.463
11428TIP3    H234230   0.638   0.078   1.496
11429TIP3   OH234231   0.658   0.975   0.310
11429TIP3    H134232   0.693   1.024   0.384
11429TIP3    H234233   0.582   0.929   0.346
11430TIP3   OH234234   6.182   3.149   1.236
11430TIP3    H134235   6.265   3.107   1.213
11430TIP3    H234236   6.116   3.104   1.183
11431TIP3   OH234237   1.716   0.075   6.236
11431TIP3    H134238   1.789   0.133   6.254
11431TIP3    H234239   1.639   0.123   6.265
11432TIP3   OH234240   2.320   0.395   3.351
11432TIP3    H134241   2.236   0.364   3.385
11432TIP3    H234242   2.301   0.483   3.319
11433TIP3   OH234243   0.036   4.958   2.046
11433TIP3    H134244   0.047   4.979   2.139
11433TIP3    H234245   0.098   5.015   2.001
11434TIP3   OH234246   5.811   3.641   3.658
11434TIP3    H134247   5.718   3.618   3.656
11434TIP3    H234248   5.825   3.692   3.578
11435TIP3   OH234249   3.999   1.064   6.098
11435TIP3    H134250   4.007   1.010   6.177
11435TIP3    H234251   4.066   1.132   6.109
11436TIP3   OH234252   2.898   5.663   6.423
11436TIP3    H134253   2.900   5.759   6.416
11436TIP3    H234254   2.825   5.637   6.367
11437TIP3   OH234255   1.381   5.084   0.536
11437TIP3    H134256   1.389   5.159   0.595
11437TIP3    H234257   1.466   5.040   0.543
11438TIP3   OH234258   0.947   1.152   0.124
11438TIP3    H134259   1.039   1.126   0.113
11438TIP3    H234260   0.951   1.247   0.136
11439TIP3   OH234261   1.962   1.778   6.353
11439TIP3    H134262   1.888   1.772   6.292
11439TIP3    H234263   2.010   1.856   6.325
11440TIP3   OH234264   6.021   4.471   4.954
11440TIP3    H134265   6.008   4.421   5.035
11440TIP3    H234266   6.070   4.548   4.981
11441TIP3   OH234267   4.028   5.519   0.334
11441TIP3    H134268   4.101   5.523   0.396
11441TIP3    H234269   4.045   5.441   0.282
11442TIP3   OH234270   6.523   3.482   3.872
11442TIP3    H134271   6.446   3.426   3.883
11442TIP3    H234272   6.505   3.559   3.926
11443TIP3   OH234273   8.080   4.983   5.434
11443TIP3    H134274   8.149   5.016   5.491
11443TIP3    H234275   8.039   5.062   5.398
11444TIP3   OH234276   5.270   0.402   5.277
11444TIP3    H134277   5.298   0.391   5.187
11444TIP3    H234278   5.218   0.324   5.296
11445TIP3   OH234279   4.572   7.613   5.154
11445TIP3    H134280   4.668   7.608   5.150
11445TIP3    H234281   4.543   7.523   5.140
11446TIP3   OH234282   6.851   0.435   0.902
11446TIP3    H134283   6.815   0.521   0.923
11446TIP3    H234284   6.792   0.401   0.834
11447TIP3   OH234285   8.070   4.933   4.639
11447TIP3    H134286   7.976   4.940   4.623
11447TIP3    H234287   8.092   4.844   4.610
11448TIP3   OH234288   1.205   5.755   5.900
11448TIP3    H134289   1.285   5.755   5.848
11448TIP3    H234290   1.230   5.717   5.984
11449TIP3   OH234291   2.802   0.544   2.699
11449TIP3    H134292   2.857   0.622   2.699
11449TIP3    H234293   2.716   0.575   2.727
11450TIP3   OH234294   1.671   3.741   0.007
11450TIP3    H134295   1.734   3.737   0.079
11450TIP3    H234296   1.715   3.791  -0.062
11451TIP3   OH234297   1.282   2.827   4.543
11451TIP3    H134298   1.188   2.820   4.556
11451TIP3    H234299   1.320   2.794   4.625
11452TIP3   OH234300   4.840   6.722   4.317
11452TIP3    H134301   4.783   6.645   4.317
11452TIP3    H234302   4.888   6.717   4.399
11453TIP3   OH234303   7.369   7.574   5.448
11453TIP3    H134304   7.345   7.558   5.539
11453TIP3    H234305   7.437   7.509   5.429
11454TIP3   OH234306   4.123   7.781   3.312
11454TIP3    H134307   4.033   7.775   3.344
11454TIP3    H234308   4.154   7.866   3.345
11455TIP3   OH234309   0.017   0.876   4.842
11455TIP3    H134310   0.068   0.795   4.839
11455TIP3    H234311  -0.042   0.865   4.916
11456TIP3   OH234312   5.941   7.342   1.799
11456TIP3    H134313   5.959   7.435   1.789
11456TIP3    H234314   5.914   7.333   1.891
11457TIP3   OH234315   3.092   6.421   1.447
11457TIP3    H134316   3.009   6.374   1.448
11457TIP3    H234317   3.107   6.444   1.539
11458TIP3   OH234318   7.195   6.132   3.636
11458TIP3    H134319   7.152   6.055   3.600
11458TIP3    H234320   7.276   6.098   3.676
11459TIP3   OH234321   0.044   0.256   6.125
11459TIP3    H134322   0.060   0.168   6.090
11459TIP3    H234323  -0.003   0.241   6.207
11460TIP3   OH234324   3.276   4.699   0.821
11460TIP3    H134325   3.363   4.720   0.856
11460TIP3    H234326   3.294   4.641   0.747
11461TIP3   OH234327   4.308   7.764   6.073
11461TIP3    H134328   4.244   7.740   6.140
11461TIP3    H234329   4.282   7.713   5.996
11462TIP3   OH234330   0.114   1.804   5.504
11462TIP3    H134331   0.185   1.741   5.517
11462TIP3    H234332   0.044   1.754   5.462
11463TIP3   OH234333   1.170   5.943   6.350
11463TIP3    H134334   1.199   5.944   6.259
11463TIP3    H234335   1.083   5.905   6.348
11464TIP3   OH234336   0.295   2.997   6.141
11464TIP3    H134337   0.286   2.905   6.116
11464TIP3    H234338   0.210   3.018   6.180
11465TIP3   OH234339   6.226   2.059   0.698
11465TIP3    H134340   6.296   2.011   0.654
11465TIP3    H234341   6.271   2.108   0.767
11466TIP3   OH234342   1.706   6.997   0.239
11466TIP3    H134343   1.642   7.066   0.254
11466TIP3    H234344   1.663   6.936   0.179
11467TIP3   OH234345   5.423   7.594   1.723
11467TIP3    H134346   5.510   7.576   1.688
11467TIP3    H234347   5.412   7.532   1.795
11468TIP3   OH234348   1.015   5.925   3.220
11468TIP3    H134349   1.101   5.966   3.208
11468TIP3    H234350   0.998   5.881   3.136
11469TIP3   OH234351   1.393   0.674   3.433
11469TIP3    H134352   1.383   0.646   3.342
11469TIP3    H234353   1.479   0.716   3.435
11470TIP3   OH234354   4.744   6.589   5.259
11470TIP3    H134355   4.724   6.523   5.325
11470TIP3    H234356   4.766   6.538   5.181
11471TIP3   OH234357   7.740   1.192   3.881
11471TIP3    H134358   7.679   1.151   3.942
11471TIP3    H234359   7.785   1.259   3.932
11472TIP3   OH234360   4.331   2.020   0.213
11472TIP3    H134361   4.343   1.977   0.129
11472TIP3    H234362   4.408   2.076   0.224
11473TIP3   OH234363   8.003   6.999   1.808
11473TIP3    H134364   8.077   7.027   1.862
11473TIP3    H234365   7.944   7.074   1.806
11474TIP3   OH234366   8.303   3.248   4.646
11474TIP3    H134367   8.297   3.324   4.588
11474TIP3    H234368   8.213   3.234   4.675
11475TIP3   OH234369   2.719   0.897   2.711
11475TIP3    H134370   2.686   0.929   2.627
11475TIP3    H234371   2.699   0.967   2.773
11476TIP3   OH234372   1.248   4.977   0.769
11476TIP3    H134373   1.308   4.917   0.725
11476TIP3    H234374   1.246   5.055   0.714
11477TIP3   OH234375   3.390   6.397   2.064
11477TIP3    H134376   3.483   6.393   2.041
11477TIP3    H234377   3.387   6.367   2.155
11478TIP3   OH234378   1.156   4.458   2.164
11478TIP3    H134379   1.135   4.461   2.071
11478TIP3    H234380   1.218   4.529   2.178
11479TIP3   OH234381   2.027   1.298   2.896
11479TIP3    H134382   2.074   1.230   2.945
11479TIP3    H234383   1.939   1.297   2.932
11480TIP3   OH234384   7.589   6.514   2.607
11480TIP3    H134385   7.624   6.599   2.634
11480TIP3    H234386   7.666   6.461   2.587
11481TIP3   OH234387   3.679   5.901   3.626
11481TIP3    H134388   3.754   5.864   3.580
11481TIP3    H234389   3.697   5.995   3.630
11482TIP3   OH234390   3.792   0.950   6.354
11482TIP3    H134391   3.763   1.035   6.387
11482TIP3    H234392   3.887   0.951   6.365
11483TIP3   OH234393   5.015   1.418   3.795
11483TIP3    H134394   4.958   1.476   3.743
11483TIP3    H234395   4.959   1.385   3.865
11484TIP3   OH234396   3.618   3.922   3.440
11484TIP3    H134397   3.537   3.879   3.415
11484TIP3    H234398   3.612   3.932   3.535
11485TIP3   OH234399   7.285   7.302   2.179
11485TIP3    H134400   7.261   7.221   2.223
11485TIP3    H234401   7.362   7.280   2.127
11486TIP3   OH234402   1.019   7.287   4.076
11486TIP3    H134403   1.042   7.200   4.110
11486TIP3    H234404   1.051   7.285   3.986
11487TIP3   OH234405   7.528   0.789   4.744
11487TIP3    H134406   7.442   0.778   4.784
11487TIP3    H234407   7.521   0.869   4.692
11488TIP3   OH234408   4.199   1.303   4.825
11488TIP3    H134409   4.237   1.251   4.896
11488TIP3    H234410   4.110   1.324   4.855
11489TIP3   OH234411   1.639   3.354   3.040
11489TIP3    H134412   1.605   3.323   3.125
11489TIP3    H234413   1.718   3.302   3.026
11490TIP3   OH234414   5.787   6.222   3.976
11490TIP3    H134415   5.793   6.209   3.881
11490TIP3    H234416   5.724   6.156   4.006
11491TIP3   OH234417   4.330   2.283   1.932
11491TIP3    H134418   4.303   2.243   2.015
11491TIP3    H234419   4.247   2.305   1.889
11492TIP3   OH234420   5.632   3.645   3.130
11492TIP3    H134421   5.623   3.733   3.167
11492TIP3    H234422   5.699   3.604   3.184
11493TIP3   OH234423   0.322   2.525   1.069
11493TIP3    H134424   0.388   2.456   1.059
11493TIP3    H234425   0.251   2.483   1.117
11494TIP3   OH234426   2.996   6.811   0.784
11494TIP3    H134427   3.010   6.905   0.791
11494TIP3    H234428   2.961   6.798   0.696
11495TIP3   OH234429   1.165   0.566   6.234
11495TIP3    H134430   1.157   0.542   6.327
11495TIP3    H234431   1.244   0.521   6.205
11496TIP3   OH234432   2.463   3.175   1.436
11496TIP3    H134433   2.481   3.171   1.529
11496TIP3    H234434   2.500   3.095   1.400
11497TIP3   OH234435   3.135   2.914   5.906
11497TIP3    H134436   3.223   2.890   5.877
11497TIP3    H234437   3.081   2.838   5.884
11498TIP3   OH234438   1.522   4.532   6.480
11498TIP3    H134439   1.565   4.598   6.426
11498TIP3    H234440   1.577   4.524   6.557
11499TIP3   OH234441   3.018   1.611   1.221
11499TIP3    H134442   2.940   1.594   1.274
11499TIP3    H234443   3.017   1.706   1.206
11500TIP3   OH234444   2.209   6.974   1.703
11500TIP3    H134445   2.131   7.010   1.747
11500TIP3    H234446   2.274   6.966   1.773
11501TIP3   OH234447   4.087   3.760   1.651
11501TIP3    H134448   4.160   3.707   1.619
11501TIP3    H234449   4.127   3.840   1.685
11502TIP3   OH234450   3.234   0.615   3.454
11502TIP3    H134451   3.282   0.650   3.379
11502TIP3    H234452   3.273   0.529   3.470
11503TIP3   OH234453   8.158   3.449   5.623
11503TIP3    H134454   8.179   3.366   5.667
11503TIP3    H234455   8.070   3.437   5.589
11504TIP3   OH234456   3.269   4.144   5.995
11504TIP3    H134457   3.182   4.104   6.002
11504TIP3    H234458   3.256   4.222   5.941
11505TIP3   OH234459   0.738   7.286   2.722
11505TIP3    H134460   0.809   7.223   2.717
11505TIP3    H234461   0.705   7.279   2.812
11506TIP3   OH234462   6.526   2.615   3.775
11506TIP3    H134463   6.468   2.596   3.702
11506TIP3    H234464   6.532   2.710   3.777
11507TIP3   OH234465   4.579   5.691   2.850
11507TIP3    H134466   4.606   5.776   2.815
11507TIP3    H234467   4.567   5.706   2.943
11508TIP3   OH234468   0.699   3.303   6.324
11508TIP3    H134469   0.629   3.268   6.268
11508TIP3    H234470   0.673   3.279   6.413
11509TIP3   OH234471   0.389   3.673   5.318
11509TIP3    H134472   0.403   3.587   5.356
11509TIP3    H234473   0.365   3.729   5.392
11510TIP3   OH234474   5.701   2.661   1.246
11510TIP3    H134475   5.621   2.629   1.288
11510TIP3    H234476   5.732   2.587   1.194
11511TIP3   OH234477   1.900   7.229   2.391
11511TIP3    H134478   1.953   7.162   2.434
11511TIP3    H234479   1.954   7.260   2.318
11512TIP3   OH234480   5.457   7.425   4.035
11512TIP3    H134481   5.421   7.473   4.109
11512TIP3    H234482   5.475   7.337   4.070
11513TIP3   OH234483   8.147   5.870   6.313
11513TIP3    H134484   8.223   5.881   6.256
11513TIP3    H234485   8.107   5.788   6.284
11514TIP3   OH234486   7.709   4.032   0.327
11514TIP3    H134487   7.713   3.966   0.258
11514TIP3    H234488   7.621   4.069   0.318
11515TIP3   OH234489   1.974   5.780   0.567
11515TIP3    H134490   1.942   5.862   0.529
11515TIP3    H234491   1.901   5.718   0.557
11516TIP3   OH234492   0.821   6.096   3.030
11516TIP3    H134493   0.790   6.171   2.979
11516TIP3    H234494   0.865   6.134   3.106
11517TIP3   OH234495   1.631   1.155   5.333
11517TIP3    H134496   1.718   1.174   5.299
11517TIP3    H234497   1.585   1.114   5.260
11518TIP3   OH234498   3.433   3.568   5.532
11518TIP3    H134499   3.521   3.543   5.559
11518TIP3    H234500   3.400   3.492   5.483
11519TIP3   OH234501   7.429   1.973   3.449
11519TIP3    H134502   7.420   2.061   3.413
11519TIP3    H234503   7.488   1.983   3.524
11520TIP3   OH234504   6.235   5.453   4.704
11520TIP3    H134505   6.326   5.479   4.688
11520TIP3    H234506   6.229   5.446   4.799
11521TIP3   OH234507   8.107   7.167   4.199
11521TIP3    H134508   8.072   7.138   4.115
11521TIP3    H234509   8.198   7.189   4.181
11522TIP3   OH234510   6.249   7.037   4.885
11522TIP3    H134511   6.205   6.985   4.953
11522TIP3    H234512   6.219   7.126   4.900
11523TIP3   OH234513   5.126   0.550   1.054
11523TIP3    H134514   5.155   0.510   1.136
11523TIP3    H234515   5.198   0.608   1.029
11524TIP3   OH234516   5.633   1.074   2.808
11524TIP3    H134517   5.649   0.980   2.805
11524TIP3    H234518   5.548   1.086   2.765
11525TIP3   OH234519   7.388   1.553   6.381
11525TIP3    H134520   7.300   1.583   6.358
11525TIP3    H234521   7.446   1.625   6.354
11526TIP3   OH234522   0.530   4.853   2.334
11526TIP3    H134523   0.611   4.849   2.386
11526TIP3    H234524   0.553   4.810   2.251
11527TIP3   OH234525   0.089   0.599   5.333
11527TIP3    H134526   0.067   0.544   5.409
11527TIP3    H234527   0.159   0.551   5.288
11528TIP3   OH234528   1.383   4.780   0.651
11528TIP3    H134529   1.386   4.728   0.731
11528TIP3    H234530   1.474   4.805   0.635
11529TIP3   OH234531   6.031   1.721   1.687
11529TIP3    H134532   5.946   1.733   1.646
11529TIP3    H234533   6.026   1.771   1.769
11530TIP3   OH234534   5.890   3.979   5.766
11530TIP3    H134535   5.866   4.035   5.692
11530TIP3    H234536   5.825   3.908   5.763
11531TIP3   OH234537   7.786   3.801   0.187
11531TIP3    H134538   7.750   3.715   0.212
11531TIP3    H234539   7.880   3.794   0.205
11532TIP3   OH234540   7.001   3.623   1.607
11532TIP3    H134541   6.956   3.566   1.544
11532TIP3    H234542   6.993   3.578   1.691
11533TIP3   OH234543   5.198   0.938   2.104
11533TIP3    H134544   5.213   1.033   2.101
11533TIP3    H234545   5.274   0.900   2.059
11534TIP3   OH234546   3.793   2.810   1.144
11534TIP3    H134547   3.781   2.864   1.221
11534TIP3    H234548   3.809   2.722   1.178
11535TIP3   OH234549   3.204   6.381   5.801
11535TIP3    H134550   3.293   6.368   5.834
11535TIP3    H234551   3.215   6.437   5.724
11536TIP3   OH234552   7.732   0.703   4.557
11536TIP3    H134553   7.642   0.731   4.539
11536TIP3    H234554   7.744   0.721   4.650
11537TIP3   OH234555   6.687   4.070   2.531
11537TIP3    H134556   6.708   3.979   2.511
11537TIP3    H234557   6.677   4.112   2.445
11538TIP3   OH234558   1.348   0.552   3.168
11538TIP3    H134559   1.348   0.628   3.110
11538TIP3    H234560   1.373   0.479   3.112
11539TIP3   OH234561   1.986   4.550   6.639
11539TIP3    H134562   2.031   4.571   6.557
11539TIP3    H234563   1.899   4.520   6.611
11540TIP3   OH234564   4.128   4.537   5.170
11540TIP3    H134565   4.197   4.591   5.131
11540TIP3    H234566   4.114   4.466   5.108
11541TIP3   OH234567   1.867   6.782   3.739
11541TIP3    H134568   1.869   6.847   3.669
11541TIP3    H234569   1.952   6.791   3.783
11542TIP3   OH234570   6.334   7.528   0.055
11542TIP3    H134571   6.385   7.466   0.004
11542TIP3    H234572   6.245   7.520   0.020
11543TIP3   OH234573   6.181   0.646   0.648
11543TIP3    H134574   6.271   0.648   0.615
11543TIP3    H234575   6.144   0.730   0.622
11544TIP3   OH234576   3.823   5.484   0.027
11544TIP3    H134577   3.885   5.488   0.100
11544TIP3    H234578   3.840   5.399  -0.014
11545TIP3   OH234579   3.481   6.356   5.920
11545TIP3    H134580   3.544   6.306   5.972
11545TIP3    H234581   3.473   6.439   5.966
11546TIP3   OH234582   3.931   5.972   1.638
11546TIP3    H134583   3.876   6.003   1.566
11546TIP3    H234584   3.958   5.884   1.611
11547TIP3   OH234585   7.040   3.223   1.556
11547TIP3    H134586   6.970   3.159   1.568
11547TIP3    H234587   7.013   3.275   1.480
11548TIP3   OH234588   2.655   1.693   0.043
11548TIP3    H134589   2.594   1.674  -0.027
11548TIP3    H234590   2.606   1.749   0.103
11549TIP3   OH234591   3.833   3.953   1.838
11549TIP3    H134592   3.781   3.986   1.911
11549TIP3    H234593   3.924   3.958   1.869
11550TIP3   OH234594   0.595   3.899   6.118
11550TIP3    H134595   0.668   3.933   6.067
11550TIP3    H234596   0.529   3.876   6.052
11551TIP3   OH234597   1.210   3.781   2.642
11551TIP3    H134598   1.265   3.782   2.564
11551TIP3    H234599   1.134   3.727   2.618
11552TIP3   OH234600   2.209   0.781   1.747
11552TIP3    H134601   2.149   0.734   1.688
11552TIP3    H234602   2.158   0.856   1.777
11553TIP3   OH234603   1.455   5.586   2.137
11553TIP3    H134604   1.466   5.498   2.173
11553TIP3    H234605   1.537   5.603   2.091
11554TIP3   OH234606   0.302   0.755   1.194
11554TIP3    H134607   0.316   0.839   1.238
11554TIP3    H234608   0.342   0.690   1.252
11555TIP3   OH234609   5.584   3.804   4.606
11555TIP3    H134610   5.538   3.798   4.523
11555TIP3    H234611   5.598   3.898   4.618
11556TIP3   OH234612   0.867   0.322   5.368
11556TIP3    H134613   0.832   0.298   5.454
11556TIP3    H234614   0.919   0.401   5.385
11557TIP3   OH234615   2.177   7.487   1.945
11557TIP3    H134616   2.182   7.391   1.946
11557TIP3    H234617   2.087   7.506   1.972
11558TIP3   OH234618   0.277   6.659   3.312
11558TIP3    H134619   0.325   6.594   3.261
11558TIP3    H234620   0.195   6.616   3.335
11559TIP3   OH234621   0.586   1.567   5.908
11559TIP3    H134622   0.614   1.616   5.986
11559TIP3    H234623   0.514   1.620   5.873
11560TIP3   OH234624   1.144   1.166   0.699
11560TIP3    H134625   1.187   1.159   0.784
11560TIP3    H234626   1.158   1.257   0.671
11561TIP3   OH234627   2.219   1.326   2.226
11561TIP3    H134628   2.291   1.287   2.177
11561TIP3    H234629   2.250   1.414   2.250
11562TIP3   OH234630   1.199   4.442   6.142
11562TIP3    H134631   1.214   4.398   6.225
11562TIP3    H234632   1.241   4.528   6.152
11563TIP3   OH234633   1.466   7.417   1.485
11563TIP3    H134634   1.418   7.428   1.403
11563TIP3    H234635   1.431   7.337   1.524
11564TIP3   OH234636   5.521   4.612   0.259
11564TIP3    H134637   5.479   4.528   0.243
11564TIP3    H234638   5.605   4.590   0.299
11565TIP3   OH234639   2.611   7.618   4.693
11565TIP3    H134640   2.681   7.559   4.664
11565TIP3    H234641   2.648   7.665   4.767
11566TIP3   OH234642   0.506   3.434   4.841
11566TIP3    H134643   0.489   3.528   4.840
11566TIP3    H234644   0.491   3.408   4.932
11567TIP3   OH234645   6.387   6.196   5.802
11567TIP3    H134646   6.481   6.178   5.795
11567TIP3    H234647   6.377   6.284   5.766
11568TIP3   OH234648   7.820   5.561   5.172
11568TIP3    H134649   7.888   5.541   5.237
11568TIP3    H234650   7.837   5.651   5.146
11569TIP3   OH234651   1.428   6.627   2.118
11569TIP3    H134652   1.441   6.659   2.029
11569TIP3    H234653   1.354   6.677   2.152
11570TIP3   OH234654   5.816   2.609   3.056
11570TIP3    H134655   5.735   2.639   3.097
11570TIP3    H234656   5.861   2.689   3.031
11571TIP3   OH234657   3.617  -0.044   5.359
11571TIP3    H134658   3.540  -0.032   5.414
11571TIP3    H234659   3.627   0.040   5.313
11572TIP3   OH234660   5.517   0.488   2.158
11572TIP3    H134661   5.554   0.415   2.207
11572TIP3    H234662   5.425   0.490   2.184
11573TIP3   OH234663   4.286   7.391   1.983
11573TIP3    H134664   4.359   7.361   1.929
11573TIP3    H234665   4.300   7.351   2.068
11574TIP3   OH234666   5.513   1.672   2.242
11574TIP3    H134667   5.424   1.696   2.268
11574TIP3    H234668   5.568   1.742   2.278
11575TIP3   OH234669   3.624   0.471   3.547
11575TIP3    H134670   3.686   0.502   3.614
11575TIP3    H234671   3.559   0.540   3.541
11576TIP3   OH234672   8.157   7.395   2.016
11576TIP3    H134673   8.175   7.478   2.060
11576TIP3    H234674   8.068   7.373   2.042
11577TIP3   OH234675   7.372   2.022   5.594
11577TIP3    H134676   7.458   1.993   5.627
11577TIP3    H234677   7.391   2.056   5.507
11578TIP3   OH234678   1.761   5.955   1.290
11578TIP3    H134679   1.733   5.988   1.205
11578TIP3    H234680   1.713   6.007   1.354
11579TIP3   OH234681   2.685   0.075   4.783
11579TIP3    H134682   2.745   0.105   4.852
11579TIP3    H234683   2.741   0.035   4.717
11580TIP3   OH234684   8.049   3.569   1.888
11580TIP3    H134685   8.084   3.561   1.799
11580TIP3    H234686   8.008   3.485   1.905
11581TIP3   OH234687   3.881   0.555   1.584
11581TIP3    H134688   3.809   0.604   1.624
11581TIP3    H234689   3.958   0.581   1.634
11582TIP3   OH234690   1.528   0.801   6.677
11582TIP3    H134691   1.594   0.778   6.612
11582TIP3    H234692   1.575   0.800   6.760
11583TIP3   OH234693   6.917   4.616   3.389
11583TIP3    H134694   6.985   4.557   3.421
11583TIP3    H234695   6.965   4.696   3.366
11584TIP3   OH234696   3.126   0.391   2.528
11584TIP3    H134697   3.135   0.421   2.438
11584TIP3    H234698   3.162   0.462   2.581
11585TIP3   OH234699   1.462   4.512   5.444
11585TIP3    H134700   1.496   4.426   5.420
11585TIP3    H234701   1.537   4.571   5.435
11586TIP3   OH234702   6.191   7.105   2.308
11586TIP3    H134703   6.263   7.166   2.291
11586TIP3    H234704   6.114   7.148   2.271
11587TIP3   OH234705   5.046   0.717   4.567
11587TIP3    H134706   5.099   0.745   4.492
11587TIP3    H234707   5.086   0.760   4.642
11588TIP3   OH234708   2.630   6.372   4.390
11588TIP3    H134709   2.716   6.367   4.348
11588TIP3    H234710   2.626   6.295   4.447
11589TIP3   OH234711   1.082   4.747   6.100
11589TIP3    H134712   1.119   4.746   6.012
11589TIP3    H234713   1.142   4.802   6.150
11590TIP3   OH234714   0.316   3.846   6.613
11590TIP3    H134715   0.226   3.859   6.580
11590TIP3    H234716   0.368   3.833   6.533
11591TIP3   OH234717   6.927   3.051   3.554
11591TIP3    H134718   7.005   3.105   3.563
11591TIP3    H234719   6.860   3.098   3.604
11592TIP3   OH234720   2.988   5.094   1.638
11592TIP3    H134721   3.014   5.055   1.554
11592TIP3    H234722   2.902   5.133   1.620
11593TIP3   OH234723   5.504   0.728   1.354
11593TIP3    H134724   5.501   0.748   1.261
11593TIP3    H234725   5.569   0.789   1.390
11594TIP3   OH234726   7.585   7.674   4.285
11594TIP3    H134727   7.635   7.676   4.367
11594TIP3    H234728   7.540   7.758   4.281
11595TIP3   OH234729   6.692   7.529   4.511
11595TIP3    H134730   6.671   7.451   4.562
11595TIP3    H234731   6.788   7.532   4.511
11596TIP3   OH234732   5.520   3.706   3.608
11596TIP3    H134733   5.560   3.775   3.555
11596TIP3    H234734   5.520   3.741   3.697
11597TIP3   OH234735   6.601   2.822   4.387
11597TIP3    H134736   6.585   2.871   4.306
11597TIP3    H234737   6.663   2.876   4.436
11598TIP3   OH234738   2.902   2.440   0.008
11598TIP3    H134739   2.849   2.371  -0.032
11598TIP3    H234740   2.878   2.519  -0.040
11599TIP3   OH234741   7.439   3.989   0.670
11599TIP3    H134742   7.395   4.070   0.644
11599TIP3    H234743   7.529   4.015   0.688
11600TIP3   OH234744   1.987   5.825   1.234
11600TIP3    H134745   1.908   5.847   1.283
11600TIP3    H234746   1.973   5.861   1.147
11601TIP3   OH234747   0.863   3.178   2.750
11601TIP3    H134748   0.932   3.229   2.793
11601TIP3    H234749   0.906   3.097   2.724
11602TIP3   OH234750   6.673   3.530   6.439
11602TIP3    H134751   6.634   3.615   6.422
11602TIP3    H234752   6.757   3.532   6.393
11603TIP3   OH234753   5.490   5.071   4.029
11603TIP3    H134754   5.408   5.055   4.075
11603TIP3    H234755   5.480   5.159   3.993
11604TIP3   OH234756   3.376   5.979   4.722
11604TIP3    H134757   3.307   5.928   4.765
11604TIP3    H234758   3.453   5.923   4.726
11605TIP3   OH234759   7.299   0.674   4.468
11605TIP3    H134760   7.247   0.594   4.455
11605TIP3    H234761   7.317   0.675   4.561
11606TIP3   OH234762   5.692   3.299   4.085
11606TIP3    H134763   5.655   3.260   4.164
11606TIP3    H234764   5.743   3.374   4.116
11607TIP3   OH234765   0.715   6.701   1.631
11607TIP3    H134766   0.771   6.708   1.554
11607TIP3    H234767   0.769   6.653   1.695
11608TIP3   OH234768   2.410   0.277   4.971
11608TIP3    H134769   2.366   0.212   5.025
11608TIP3    H234770   2.355   0.286   4.893
11609TIP3   OH234771   2.808   1.429   1.857
11609TIP3    H134772   2.815   1.362   1.925
11609TIP3    H234773   2.813   1.381   1.775
11610TIP3   OH234774   2.674   2.783   5.468
11610TIP3    H134775   2.744   2.761   5.405
11610TIP3    H234776   2.625   2.701   5.478
11611TIP3   OH234777   2.717   6.920   1.549
11611TIP3    H134778   2.775   6.873   1.608
11611TIP3    H234779   2.705   6.861   1.475
11612TIP3   OH234780   4.824   2.707   3.336
11612TIP3    H134781   4.815   2.803   3.335
11612TIP3    H234782   4.771   2.677   3.263
11613TIP3   OH234783   7.052   3.286   4.239
11613TIP3    H134784   7.109   3.326   4.174
11613TIP3    H234785   6.972   3.338   4.236
11614TIP3   OH234786   3.870   7.757   3.443
11614TIP3    H134787   3.821   7.681   3.411
11614TIP3    H234788   3.802   7.817   3.476
11615TIP3   OH234789   7.079   6.196   3.379
11615TIP3    H134790   7.153   6.252   3.360
11615TIP3    H234791   7.085   6.178   3.473
11616TIP3   OH234792   6.770   7.643   6.667
11616TIP3    H134793   6.731   7.572   6.717
11616TIP3    H234794   6.711   7.655   6.592
11617TIP3   OH234795   3.631   0.821   3.764
11617TIP3    H134796   3.664   0.773   3.840
11617TIP3    H234797   3.607   0.907   3.798
11618TIP3   OH234798   7.438   7.181   4.831
11618TIP3    H134799   7.428   7.274   4.849
11618TIP3    H234800   7.414   7.172   4.739
11619TIP3   OH234801   1.058   7.304   3.287
11619TIP3    H134802   1.072   7.300   3.382
11619TIP3    H234803   1.115   7.376   3.258
11620TIP3   OH234804   5.610   0.466  -0.001
11620TIP3    H134805   5.606   0.409   0.076
11620TIP3    H234806   5.673   0.424  -0.059
11621TIP3   OH234807   0.810   6.374   6.136
11621TIP3    H134808   0.774   6.341   6.218
11621TIP3    H234809   0.852   6.298   6.096
11622TIP3   OH234810   0.401   0.661   5.664
11622TIP3    H134811   0.413   0.648   5.758
11622TIP3    H234812   0.466   0.726   5.639
11623TIP3   OH234813   5.418   5.615   5.404
11623TIP3    H134814   5.337   5.568   5.424
11623TIP3    H234815   5.397   5.707   5.420
11624TIP3   OH234816   4.894   0.268   0.983
11624TIP3    H134817   4.905   0.287   1.076
11624TIP3    H234818   4.892   0.354   0.941
11625TIP3   OH234819   0.181   7.112   5.575
11625TIP3    H134820   0.254   7.154   5.530
11625TIP3    H234821   0.216   7.027   5.602
11626TIP3   OH234822   2.688   7.558   2.614
11626TIP3    H134823   2.593   7.544   2.619
11626TIP3    H234824   2.704   7.632   2.672
11627TIP3   OH234825   3.386   4.854   2.183
11627TIP3    H134826   3.480   4.836   2.185
11627TIP3    H234827   3.358   4.845   2.274
11628TIP3   OH234828   0.423   3.077   2.857
11628TIP3    H134829   0.404   3.032   2.774
11628TIP3    H234830   0.426   3.170   2.833
11629TIP3   OH234831   7.570   2.167   4.620
11629TIP3    H134832   7.616   2.117   4.552
11629TIP3    H234833   7.563   2.107   4.694
11630TIP3   OH234834   0.013   2.916   1.411
11630TIP3    H134835   0.059   2.918   1.495
11630TIP3    H234836   0.064   2.856   1.357
11631TIP3   OH234837   4.765   3.309   3.363
11631TIP3    H134838   4.706   3.348   3.299
11631TIP3    H234839   4.754   3.362   3.442
11632TIP3   OH234840   4.828   3.048   1.635
11632TIP3    H134841   4.856   2.986   1.702
11632TIP3    H234842   4.868   3.016   1.554
11633TIP3   OH234843   6.718   6.003   6.504
11633TIP3    H134844   6.654   5.978   6.437
11633TIP3    H234845   6.676   5.977   6.587
11634TIP3   OH234846   4.742   6.160   0.973
11634TIP3    H134847   4.792   6.102   0.915
11634TIP3    H234848   4.713   6.102   1.044
11635TIP3   OH234849   7.819   5.339   5.967
11635TIP3    H134850   7.746   5.325   6.027
11635TIP3    H234851   7.814   5.265   5.906
11636TIP3   OH234852   6.298   6.260   0.816
11636TIP3    H134853   6.327   6.187   0.870
11636TIP3    H234854   6.240   6.310   0.873
11637TIP3   OH234855   0.562   2.879   4.409
11637TIP3    H134856   0.628   2.810   4.410
11637TIP3    H234857   0.487   2.842   4.456
11638TIP3   OH234858   3.767   1.222   5.385
11638TIP3    H134859   3.749   1.147   5.327
11638TIP3    H234860   3.809   1.286   5.328
11639TIP3   OH234861   3.762   1.672   3.408
11639TIP3    H134862   3.810   1.608   3.355
11639TIP3    H234863   3.824   1.743   3.422
11640TIP3   OH234864   2.056   1.829   0.881
11640TIP3    H134865   2.001   1.825   0.959
11640TIP3    H234866   2.112   1.752   0.887
11641TIP3   OH234867   3.183   4.711   6.487
11641TIP3    H134868   3.246   4.767   6.532
11641TIP3    H234869   3.160   4.760   6.408
11642TIP3   OH234870   6.116   5.763   3.915
11642TIP3    H134871   6.106   5.784   4.008
11642TIP3    H234872   6.168   5.835   3.879
11643TIP3   OH234873   1.069   1.348   6.671
11643TIP3    H134874   1.148   1.294   6.664
11643TIP3    H234875   1.037   1.357   6.582
11644TIP3   OH234876   1.165   3.652   0.302
11644TIP3    H134877   1.166   3.702   0.384
11644TIP3    H234878   1.224   3.579   0.318
11645TIP3   OH234879   2.588   2.092   3.736
11645TIP3    H134880   2.498   2.069   3.714
11645TIP3    H234881   2.640   2.017   3.708
11646TIP3   OH234882   3.341   1.136   3.683
11646TIP3    H134883   3.302   1.057   3.722
11646TIP3    H234884   3.318   1.130   3.591
11647TIP3   OH234885   3.648   1.400   0.694
11647TIP3    H134886   3.706   1.342   0.644
11647TIP3    H234887   3.707   1.466   0.731
11648TIP3   OH234888   3.310   2.432   5.595
11648TIP3    H134889   3.336   2.341   5.610
11648TIP3    H234890   3.366   2.462   5.523
11649TIP3   OH234891   0.610   3.654   3.816
11649TIP3    H134892   0.702   3.634   3.832
11649TIP3    H234893   0.583   3.702   3.894
11650TIP3   OH234894   3.505   3.599   3.245
11650TIP3    H134895   3.580   3.616   3.302
11650TIP3    H234896   3.541   3.552   3.171
11651TIP3   OH234897   7.271   0.938   6.214
11651TIP3    H134898   7.320   0.963   6.292
11651TIP3    H234899   7.193   0.993   6.215
11652TIP3   OH234900   4.983   1.847   2.009
11652TIP3    H134901   5.072   1.819   2.028
11652TIP3    H234902   4.977   1.936   2.044
11653TIP3   OH234903   0.587   4.967   1.753
11653TIP3    H134904   0.611   5.059   1.740
11653TIP3    H234905   0.612   4.949   1.844
11654TIP3   OH234906   7.807   0.190   5.512
11654TIP3    H134907   7.830   0.173   5.604
11654TIP3    H234908   7.718   0.157   5.503
11655TIP3   OH234909   7.217   6.567   5.651
11655TIP3    H134910   7.285   6.634   5.655
11655TIP3    H234911   7.135   6.616   5.653
11656TIP3   OH234912   1.313   0.932   0.597
11656TIP3    H134913   1.240   0.988   0.623
11656TIP3    H234914   1.297   0.849   0.643
11657TIP3   OH234915   4.685   4.882   6.546
11657TIP3    H134916   4.706   4.913   6.457
11657TIP3    H234917   4.750   4.815   6.564
11658TIP3   OH234918   3.525   0.649   4.453
11658TIP3    H134919   3.478   0.727   4.424
11658TIP3    H234920   3.491   0.579   4.397
11659TIP3   OH234921   2.364   0.057   2.862
11659TIP3    H134922   2.444   0.109   2.868
11659TIP3    H234923   2.394  -0.034   2.863
11660TIP3   OH234924   1.400   7.659   0.444
11660TIP3    H134925   1.422   7.743   0.403
11660TIP3    H234926   1.355   7.684   0.525
11661TIP3   OH234927   0.745   5.567   3.007
11661TIP3    H134928   0.715   5.514   3.081
11661TIP3    H234929   0.664   5.595   2.963
11662TIP3   OH234930   5.785   4.743   3.456
11662TIP3    H134931   5.877   4.719   3.450
11662TIP3    H234932   5.783   4.837   3.441
11663TIP3   OH234933   2.715   6.167   0.556
11663TIP3    H134934   2.722   6.252   0.599
11663TIP3    H234935   2.774   6.110   0.605
11664TIP3   OH234936   6.538   7.256   2.944
11664TIP3    H134937   6.595   7.329   2.923
11664TIP3    H234938   6.595   7.193   2.990
11665TIP3   OH234939   1.407   0.129   3.381
11665TIP3    H134940   1.328   0.183   3.380
11665TIP3    H234941   1.375   0.041   3.403
11666TIP3   OH234942   7.675   0.989   2.647
11666TIP3    H134943   7.595   0.936   2.647
11666TIP3    H234944   7.712   0.976   2.734
11667TIP3   OH234945   5.696   5.873   2.350
11667TIP3    H134946   5.707   5.802   2.287
11667TIP3    H234947   5.609   5.859   2.388
11668TIP3   OH234948   2.161   6.135   6.249
11668TIP3    H134949   2.096   6.160   6.184
11668TIP3    H234950   2.111   6.095   6.320
11669TIP3   OH234951   2.491   6.822   2.563
11669TIP3    H134952   2.519   6.746   2.511
11669TIP3    H234953   2.481   6.787   2.652
11670TIP3   OH234954   0.216   0.457   5.583
11670TIP3    H134955   0.156   0.448   5.657
11670TIP3    H234956   0.264   0.538   5.600
11671TIP3   OH234957   2.644   5.539   3.864
11671TIP3    H134958   2.582   5.493   3.920
11671TIP3    H234959   2.730   5.518   3.901
11672TIP3   OH234960   3.882   0.764   2.796
11672TIP3    H134961   3.933   0.826   2.848
11672TIP3    H234962   3.858   0.695   2.858
11673TIP3   OH234963   4.824   4.335   5.681
11673TIP3    H134964   4.868   4.378   5.608
11673TIP3    H234965   4.884   4.265   5.708
11674TIP3   OH234966   2.498   4.115   1.058
11674TIP3    H134967   2.552   4.056   1.004
11674TIP3    H234968   2.529   4.101   1.147
11675TIP3   OH234969   6.220   2.483   2.989
11675TIP3    H134970   6.247   2.400   3.027
11675TIP3    H234971   6.169   2.525   3.059
11676TIP3   OH234972   5.135   4.926   2.414
11676TIP3    H134973   5.228   4.905   2.401
11676TIP3    H234974   5.120   4.908   2.507
11677TIP3   OH234975   1.117   0.896   1.739
11677TIP3    H134976   1.148   0.914   1.651
11677TIP3    H234977   1.022   0.901   1.733
11678TIP3   OH234978   2.427   0.670   3.556
11678TIP3    H134979   2.448   0.587   3.598
11678TIP3    H234980   2.398   0.646   3.468
11679TIP3   OH234981   2.526   2.422   0.485
11679TIP3    H134982   2.434   2.394   0.485
11679TIP3    H234983   2.522   2.517   0.497
11680TIP3   OH234984   6.930   4.996   0.811
11680TIP3    H134985   6.847   5.035   0.839
11680TIP3    H234986   6.961   4.948   0.888
11681TIP3   OH234987   0.140   6.506   2.246
11681TIP3    H134988   0.061   6.513   2.193
11681TIP3    H234989   0.128   6.571   2.316
11682TIP3   OH234990   6.596   6.342   2.869
11682TIP3    H134991   6.529   6.357   2.936
11682TIP3    H234992   6.587   6.249   2.847
11683TIP3   OH234993   6.538   7.568   5.541
11683TIP3    H134994   6.547   7.660   5.517
11683TIP3    H234995   6.547   7.567   5.636
11684TIP3   OH234996   6.664   3.957   5.970
11684TIP3    H134997   6.599   4.017   6.006
11684TIP3    H234998   6.666   3.883   6.031
11685TIP3   OH234999   8.241   2.387   6.416
11685TIP3    H135000   8.295   2.410   6.340
11685TIP3    H235001   8.304   2.352   6.480
11686TIP3   OH235002   5.739   7.078   2.678
11686TIP3    H135003   5.786   7.160   2.660
11686TIP3    H235004   5.687   7.062   2.600
11687TIP3   OH235005   7.414   3.729   2.639
11687TIP3    H135006   7.508   3.711   2.643
11687TIP3    H235007   7.389   3.705   2.550
11688TIP3   OH235008   7.865   6.997   4.275
11688TIP3    H135009   7.846   7.016   4.183
11688TIP3    H235010   7.921   7.069   4.303
11689TIP3   OH235011   7.446   6.171   3.854
11689TIP3    H135012   7.412   6.212   3.934
11689TIP3    H235013   7.428   6.077   3.866
11690TIP3   OH235014   1.657   5.556   5.683
11690TIP3    H135015   1.598   5.521   5.617
11690TIP3    H235016   1.743   5.520   5.660
11691TIP3   OH235017   7.582   6.575   4.834
11691TIP3    H135018   7.667   6.554   4.874
11691TIP3    H235019   7.518   6.543   4.896
11692TIP3   OH235020   7.273   2.938   1.875
11692TIP3    H135021   7.308   2.978   1.955
11692TIP3    H235022   7.252   3.012   1.819
11693TIP3   OH235023   7.078   4.195   6.249
11693TIP3    H135024   7.009   4.247   6.208
11693TIP3    H235025   7.153   4.206   6.190
11694TIP3   OH235026   0.820   4.615   3.900
11694TIP3    H135027   0.754   4.679   3.873
11694TIP3    H235028   0.795   4.534   3.856
11695TIP3   OH235029   3.142   3.964   3.517
11695TIP3    H135030   3.107   3.887   3.474
11695TIP3    H235031   3.176   4.019   3.446
11696TIP3   OH235032   4.947   2.082   1.098
11696TIP3    H135033   4.878   2.024   1.129
11696TIP3    H235034   5.026   2.050   1.141
11697TIP3   OH235035   5.305   4.194   1.540
11697TIP3    H135036   5.307   4.247   1.620
11697TIP3    H235037   5.213   4.174   1.527
11698TIP3   OH235038   3.620   6.313   4.734
11698TIP3    H135039   3.658   6.362   4.807
11698TIP3    H235040   3.675   6.235   4.725
11699TIP3   OH235041   5.523   6.948   5.820
11699TIP3    H135042   5.498   7.038   5.799
11699TIP3    H235043   5.574   6.919   5.744
11700TIP3   OH235044   1.713   4.126   4.877
11700TIP3    H135045   1.806   4.118   4.900
11700TIP3    H235046   1.691   4.217   4.897
11701TIP3   OH235047   6.043   0.577   2.074
11701TIP3    H135048   6.021   0.625   1.994
11701TIP3    H235049   6.047   0.485   2.046
11702TIP3   OH235050   3.154   4.853   4.326
11702TIP3    H135051   3.135   4.786   4.260
11702TIP3    H235052   3.217   4.911   4.283
11703TIP3   OH235053   1.124   1.844   3.488
11703TIP3    H135054   1.206   1.807   3.519
11703TIP3    H235055   1.121   1.820   3.395
11704TIP3   OH235056   5.742   3.519   6.613
11704TIP3    H135057   5.674   3.508   6.546
11704TIP3    H235058   5.738   3.439   6.665
11705TIP3   OH235059   6.375   6.549   3.881
11705TIP3    H135060   6.364   6.497   3.801
11705TIP3    H235061   6.460   6.522   3.915
11706TIP3   OH235062   2.328   7.617   3.571
11706TIP3    H135063   2.235   7.634   3.558
11706TIP3    H235064   2.371   7.659   3.496
11707TIP3   OH235065   3.447   4.381   3.404
11707TIP3    H135066   3.493   4.371   3.321
11707TIP3    H235067   3.373   4.438   3.383
11708TIP3   OH235068   6.482   1.194   0.418
11708TIP3    H135069   6.443   1.138   0.351
11708TIP3    H235070   6.416   1.262   0.433
11709TIP3   OH235071   3.395   7.258   3.449
11709TIP3    H135072   3.352   7.265   3.534
11709TIP3    H235073   3.458   7.330   3.448
11710TIP3   OH235074   3.480   5.754   3.335
11710TIP3    H135075   3.504   5.734   3.425
11710TIP3    H235076   3.474   5.669   3.292
11711TIP3   OH235077   3.229   0.401   6.788
11711TIP3    H135078   3.234   0.470   6.722
11711TIP3    H235079   3.313   0.405   6.834
11712TIP3   OH235080   4.137  -0.019   3.653
11712TIP3    H135081   4.224   0.008   3.681
11712TIP3    H235082   4.083  -0.012   3.732
11713TIP3   OH235083   1.507   7.029   2.138
11713TIP3    H135084   1.418   7.056   2.158
11713TIP3    H235085   1.510   7.022   2.042
11714TIP3   OH235086   3.229   3.955   4.566
11714TIP3    H135087   3.207   3.868   4.534
11714TIP3    H235088   3.213   4.013   4.491
11715TIP3   OH235089   8.229   3.500   3.232
11715TIP3    H135090   8.324   3.500   3.238
11715TIP3    H235091   8.203   3.414   3.266
11716TIP3   OH235092   6.171   0.954   5.128
11716TIP3    H135093   6.181   0.870   5.083
11716TIP3    H235094   6.168   1.018   5.057
11717TIP3   OH235095   6.725   0.774   6.106
11717TIP3    H135096   6.797   0.817   6.152
11717TIP3    H235097   6.702   0.700   6.162
11718TIP3   OH235098  -0.005   6.982   2.895
11718TIP3    H135099   0.005   6.935   2.812
11718TIP3    H235100   0.041   6.926   2.959
11719TIP3   OH235101   2.270   1.059   3.636
11719TIP3    H135102   2.236   0.973   3.661
11719TIP3    H235103   2.200   1.120   3.658
11720TIP3   OH235104   6.383   6.345   2.575
11720TIP3    H135105   6.302   6.376   2.614
11720TIP3    H235106   6.361   6.331   2.483
11721TIP3   OH235107   8.173   0.072   5.950
11721TIP3    H135108   8.180  -0.005   6.006
11721TIP3    H235109   8.087   0.062   5.908
11722TIP3   OH235110   3.461   4.005   4.695
11722TIP3    H135111   3.418   4.075   4.744
11722TIP3    H235112   3.394   3.974   4.634
11723TIP3   OH235113   0.037   7.393   6.298
11723TIP3    H135114   0.071   7.350   6.219
11723TIP3    H235115   0.041   7.325   6.366
11724TIP3   OH235116   0.015   6.240   5.894
11724TIP3    H135117   0.072   6.237   5.970
11724TIP3    H235118   0.038   6.321   5.849
11725TIP3   OH235119   0.763   1.014   6.142
11725TIP3    H135120   0.795   1.039   6.228
11725TIP3    H235121   0.841   0.985   6.095
11726TIP3   OH235122   3.691   7.525   3.869
11726TIP3    H135123   3.639   7.450   3.901
11726TIP3    H235124   3.759   7.485   3.815
11727TIP3   OH235125   7.124   4.490   2.100
11727TIP3    H135126   7.125   4.462   2.009
11727TIP3    H235127   7.043   4.540   2.109
11728TIP3   OH235128   0.789   1.614   1.959
11728TIP3    H135129   0.827   1.702   1.954
11728TIP3    H235130   0.832   1.575   2.035
11729TIP3   OH235131   0.505   3.198   2.496
11729TIP3    H135132   0.485   3.178   2.405
11729TIP3    H235133   0.582   3.255   2.492
11730TIP3   OH235134   2.526   0.763   3.159
11730TIP3    H135135   2.608   0.765   3.209
11730TIP3    H235136   2.540   0.696   3.093
11731TIP3   OH235137   4.611   2.661   6.119
11731TIP3    H135138   4.539   2.646   6.058
11731TIP3    H235139   4.679   2.600   6.091
11732TIP3   OH235140   1.547   4.889   1.161
11732TIP3    H135141   1.527   4.871   1.253
11732TIP3    H235142   1.473   4.942   1.131
11733TIP3   OH235143   3.235   0.592   6.131
11733TIP3    H135144   3.298   0.660   6.151
11733TIP3    H235145   3.285   0.525   6.084
11734TIP3   OH235146   2.332   6.384   4.002
11734TIP3    H135147   2.342   6.477   4.024
11734TIP3    H235148   2.249   6.359   4.044
11735TIP3   OH235149   1.083   6.742   1.183
11735TIP3    H135150   1.090   6.831   1.217
11735TIP3    H235151   1.132   6.744   1.100
11736TIP3   OH235152   3.506   4.202   4.474
11736TIP3    H135153   3.479   4.291   4.497
11736TIP3    H235154   3.515   4.157   4.558
11737TIP3   OH235155   5.699   3.497   2.428
11737TIP3    H135156   5.714   3.558   2.355
11737TIP3    H235157   5.740   3.415   2.399
11738TIP3   OH235158   6.761   5.126   0.999
11738TIP3    H135159   6.757   5.051   1.058
11738TIP3    H235160   6.704   5.191   1.040
11739TIP3   OH235161   6.329   3.993   0.421
11739TIP3    H135162   6.417   4.011   0.452
11739TIP3    H235163   6.312   3.903   0.447
11740TIP3   OH235164   6.666   1.824   5.626
11740TIP3    H135165   6.752   1.840   5.587
11740TIP3    H235166   6.683   1.816   5.720
11741TIP3   OH235167   3.634   2.814   2.408
11741TIP3    H135168   3.676   2.896   2.381
11741TIP3    H235169   3.656   2.752   2.339
11742TIP3   OH235170   3.825   3.181   3.653
11742TIP3    H135171   3.792   3.259   3.697
11742TIP3    H235172   3.920   3.190   3.657
11743TIP3   OH235173   7.189   2.275   0.440
11743TIP3    H135174   7.258   2.309   0.384
11743TIP3    H235175   7.234   2.246   0.519
11744TIP3   OH235176   0.683   0.895   5.067
11744TIP3    H135177   0.653   0.824   5.124
11744TIP3    H235178   0.737   0.950   5.124
11745TIP3   OH235179   2.959   6.927   0.097
11745TIP3    H135180   2.882   6.877   0.067
11745TIP3    H235181   2.980   6.983   0.023
11746TIP3   OH235182   0.206   0.821   0.486
11746TIP3    H135183   0.135   0.822   0.551
11746TIP3    H235184   0.285   0.801   0.537
11747TIP3   OH235185   2.187   4.359   3.690
11747TIP3    H135186   2.245   4.368   3.615
11747TIP3    H235187   2.154   4.270   3.685
11748TIP3   OH235188   2.277   0.373   1.754
11748TIP3    H135189   2.315   0.307   1.812
11748TIP3    H235190   2.311   0.456   1.787
11749TIP3   OH235191   5.619   6.656   2.480
11749TIP3    H135192   5.563   6.708   2.538
11749TIP3    H235193   5.651   6.586   2.536
11750TIP3   OH235194   1.353   1.752   4.959
11750TIP3    H135195   1.314   1.839   4.951
11750TIP3    H235196   1.369   1.742   5.052
11751TIP3   OH235197   5.095   5.454   6.738
11751TIP3    H135198   5.026   5.394   6.764
11751TIP3    H235199   5.090   5.457   6.642
11752TIP3   OH235200   3.172   6.097   6.534
11752TIP3    H135201   3.116   6.103   6.612
11752TIP3    H235202   3.122   6.045   6.472
11753TIP3   OH235203   3.741   3.015   5.375
11753TIP3    H135204   3.740   3.110   5.361
11753TIP3    H235205   3.731   2.977   5.288
11754TIP3   OH235206   5.394   6.762   3.692
11754TIP3    H135207   5.376   6.725   3.779
11754TIP3    H235208   5.473   6.815   3.705
11755TIP3   OH235209   0.141   3.282   1.579
11755TIP3    H135210   0.104   3.294   1.667
11755TIP3    H235211   0.078   3.322   1.521
11756TIP3   OH235212   2.911   4.476   6.715
11756TIP3    H135213   2.867   4.553   6.680
11756TIP3    H235214   2.987   4.463   6.658
11757TIP3   OH235215   7.296   6.144   6.409
11757TIP3    H135216   7.246   6.184   6.479
11757TIP3    H235217   7.255   6.175   6.328
11758TIP3   OH235218   1.798   6.508   4.106
11758TIP3    H135219   1.852   6.587   4.103
11758TIP3    H235220   1.843   6.445   4.050
11759TIP3   OH235221   2.783   1.436   4.841
11759TIP3    H135222   2.875   1.412   4.837
11759TIP3    H235223   2.753   1.433   4.750
11760TIP3   OH235224   3.446   6.551   3.342
11760TIP3    H135225   3.429   6.471   3.392
11760TIP3    H235226   3.408   6.621   3.395
11761TIP3   OH235227   7.486   0.325   2.638
11761TIP3    H135228   7.556   0.264   2.659
11761TIP3    H235229   7.455   0.297   2.552
11762TIP3   OH235230   5.410   5.156   6.345
11762TIP3    H135231   5.445   5.195   6.265
11762TIP3    H235232   5.361   5.226   6.387
11763TIP3   OH235233   3.084   6.708   2.613
11763TIP3    H135234   2.994   6.732   2.636
11763TIP3    H235235   3.120   6.668   2.692
11764TIP3   OH235236   5.158   4.876   2.957
11764TIP3    H135237   5.073   4.838   2.934
11764TIP3    H235238   5.214   4.800   2.974
11765TIP3   OH235239   3.357   4.215   1.484
11765TIP3    H135240   3.395   4.240   1.400
11765TIP3    H235241   3.298   4.287   1.506
11766TIP3   OH235242   2.284   5.551   0.073
11766TIP3    H135243   2.356   5.563   0.135
11766TIP3    H235244   2.252   5.463   0.090
11767TIP3   OH235245   1.486   0.701   4.852
11767TIP3    H135246   1.404   0.713   4.900
11767TIP3    H235247   1.490   0.776   4.793
11768TIP3   OH235248   4.126   3.745   1.279
11768TIP3    H135249   4.195   3.714   1.221
11768TIP3    H235250   4.081   3.813   1.229
11769TIP3   OH235251   2.373   7.622   2.737
11769TIP3    H135252   2.393   7.604   2.645
11769TIP3    H235253   2.285   7.586   2.749
11770TIP3   OH235254   5.265   6.294   3.741
11770TIP3    H135255   5.298   6.323   3.826
11770TIP3    H235256   5.331   6.233   3.708
11771TIP3   OH235257   6.833   2.149   6.700
11771TIP3    H135258   6.803   2.172   6.612
11771TIP3    H235259   6.861   2.232   6.738
11772TIP3   OH235260   3.389   0.273   1.849
11772TIP3    H135261   3.408   0.214   1.775
11772TIP3    H235262   3.465   0.263   1.907
11773TIP3   OH235263   7.255   7.335   5.592
11773TIP3    H135264   7.329   7.364   5.539
11773TIP3    H235265   7.205   7.277   5.535
11774TIP3   OH235266   6.129   7.154   4.289
11774TIP3    H135267   6.093   7.201   4.364
11774TIP3    H235268   6.224   7.165   4.297
11775TIP3   OH235269   7.898   0.548   4.028
11775TIP3    H135270   7.837   0.520   4.096
11775TIP3    H235271   7.979   0.565   4.075
11776TIP3   OH235272   0.659   6.376   5.813
11776TIP3    H135273   0.747   6.367   5.777
11776TIP3    H235274   0.661   6.458   5.862
11777TIP3   OH235275   0.226   1.964   0.417
11777TIP3    H135276   0.132   1.965   0.432
11777TIP3    H235277   0.243   2.040   0.361
11778TIP3   OH235278   6.233   0.766   1.046
11778TIP3    H135279   6.264   0.677   1.059
11778TIP3    H235280   6.313   0.819   1.045
11779TIP3   OH235281   5.784   1.594   5.117
11779TIP3    H135282   5.772   1.669   5.174
11779TIP3    H235283   5.696   1.571   5.087
11780TIP3   OH235284   3.495   0.557   1.353
11780TIP3    H135285   3.575   0.576   1.304
11780TIP3    H235286   3.520   0.489   1.415
11781TIP3   OH235287   2.010   0.196   5.605
11781TIP3    H135288   2.059   0.210   5.686
11781TIP3    H235289   1.956   0.275   5.596
11782TIP3   OH235290   0.343   6.127   1.145
11782TIP3    H135291   0.297   6.186   1.204
11782TIP3    H235292   0.312   6.039   1.169
11783TIP3   OH235293   0.304   7.384   2.206
11783TIP3    H135294   0.277   7.442   2.134
11783TIP3    H235295   0.324   7.444   2.278
11784TIP3   OH235296   6.957   7.014   3.999
11784TIP3    H135297   6.912   6.950   3.944
11784TIP3    H235298   7.025   7.050   3.942
11785TIP3   OH235299   6.475   0.674   3.575
11785TIP3    H135300   6.547   0.615   3.551
11785TIP3    H235301   6.515   0.761   3.578
11786TIP3   OH235302   2.009   2.544   6.188
11786TIP3    H135303   2.043   2.634   6.186
11786TIP3    H235304   2.085   2.490   6.167
11787TIP3   OH235305   6.975   0.744   0.472
11787TIP3    H135306   6.988   0.740   0.378
11787TIP3    H235307   7.049   0.795   0.505
11788TIP3   OH235308   1.475   5.725   1.398
11788TIP3    H135309   1.387   5.725   1.437
11788TIP3    H235310   1.533   5.699   1.470
11789TIP3   OH235311   8.301   0.576   1.368
11789TIP3    H135312   8.297   0.649   1.430
11789TIP3    H235313   8.212   0.568   1.335
11790TIP3   OH235314   7.444   5.161   2.795
11790TIP3    H135315   7.351   5.151   2.815
11790TIP3    H235316   7.481   5.202   2.873
11791TIP3   OH235317   2.343   5.794   0.649
11791TIP3    H135318   2.426   5.749   0.633
11791TIP3    H235319   2.281   5.724   0.670
11792TIP3   OH235320   2.301   2.320   6.355
11792TIP3    H135321   2.298   2.284   6.444
11792TIP3    H235322   2.357   2.260   6.307
11793TIP3   OH235323   4.811   5.296   0.553
11793TIP3    H135324   4.772   5.368   0.505
11793TIP3    H235325   4.881   5.336   0.604
11794TIP3   OH235326   3.825   3.959   0.864
11794TIP3    H135327   3.886   4.032   0.850
11794TIP3    H235328   3.783   3.947   0.779
11795TIP3   OH235329   1.859   4.473   6.377
11795TIP3    H135330   1.800   4.548   6.389
11795TIP3    H235331   1.801   4.400   6.354
11796TIP3   OH235332   6.548   1.491   5.305
11796TIP3    H135333   6.508   1.462   5.388
11796TIP3    H235334   6.575   1.581   5.322
11797TIP3   OH235335   1.839   1.883   3.493
11797TIP3    H135336   1.853   1.858   3.585
11797TIP3    H235337   1.758   1.838   3.468
11798TIP3   OH235338   5.538   6.609   4.389
11798TIP3    H135339   5.557   6.548   4.460
11798TIP3    H235340   5.624   6.643   4.363
11799TIP3   OH235341   3.159   4.456   6.554
11799TIP3    H135342   3.163   4.545   6.519
11799TIP3    H235343   3.227   4.453   6.622
11800TIP3   OH235344   5.009   7.490   3.955
11800TIP3    H135345   5.017   7.568   3.901
11800TIP3    H235346   4.951   7.516   4.027
11801TIP3   OH235347   1.035   1.880   2.757
11801TIP3    H135348   1.089   1.958   2.742
11801TIP3    H235349   1.065   1.817   2.692
11802TIP3   OH235350   4.703   5.172   1.910
11802TIP3    H135351   4.735   5.232   1.842
11802TIP3    H235352   4.690   5.089   1.864
11803TIP3   OH235353   2.220   0.179   2.650
11803TIP3    H135354   2.292   0.172   2.712
11803TIP3    H235355   2.203   0.089   2.622
11804TIP3   OH235356   7.557   5.180   4.139
11804TIP3    H135357   7.532   5.116   4.205
11804TIP3    H235358   7.578   5.127   4.062
11805TIP3   OH235359   5.764   3.759   0.700
11805TIP3    H135360   5.778   3.827   0.766
11805TIP3    H235361   5.852   3.733   0.673
11806TIP3   OH235362   1.902   3.404   1.963
11806TIP3    H135363   1.826   3.429   1.911
11806TIP3    H235364   1.977   3.438   1.914
11807TIP3   OH235365   3.360   2.622   6.068
11807TIP3    H135366   3.307   2.661   6.138
11807TIP3    H235367   3.340   2.674   5.991
11808TIP3   OH235368   4.821   4.761   0.906
11808TIP3    H135369   4.758   4.775   0.835
11808TIP3    H235370   4.888   4.828   0.892
11809TIP3   OH235371   4.197   7.655   5.395
11809TIP3    H135372   4.112   7.616   5.414
11809TIP3    H235373   4.244   7.651   5.478
11810TIP3   OH235374   1.322   1.494   5.892
11810TIP3    H135375   1.245   1.495   5.834
11810TIP3    H235376   1.313   1.413   5.942
11811TIP3   OH235377   0.759   3.679   0.696
11811TIP3    H135378   0.838   3.733   0.706
11811TIP3    H235379   0.687   3.738   0.713
11812TIP3   OH235380   4.719   1.975   5.951
11812TIP3    H135381   4.721   1.959   6.045
11812TIP3    H235382   4.684   1.894   5.914
11813TIP3   OH235383   7.461   4.844   5.080
11813TIP3    H135384   7.400   4.917   5.091
11813TIP3    H235385   7.408   4.773   5.044
11814TIP3   OH235386   0.468   7.738   5.773
11814TIP3    H135387   0.378   7.726   5.801
11814TIP3    H235388   0.516   7.760   5.853
11815TIP3   OH235389   7.712   6.263   1.954
11815TIP3    H135390   7.709   6.351   1.916
11815TIP3    H235391   7.628   6.224   1.929
11816TIP3   OH235392   2.236   7.017   3.099
11816TIP3    H135393   2.211   6.925   3.106
11816TIP3    H235394   2.296   7.031   3.172
11817TIP3   OH235395   3.194   6.196   5.487
11817TIP3    H135396   3.166   6.187   5.396
11817TIP3    H235397   3.216   6.107   5.514
11818TIP3   OH235398   2.011   0.197   3.705
11818TIP3    H135399   2.019   0.111   3.747
11818TIP3    H235400   1.916   0.210   3.697
11819TIP3   OH235401   5.303   7.043   5.598
11819TIP3    H135402   5.309   6.976   5.530
11819TIP3    H235403   5.245   7.006   5.664
11820TIP3   OH235404   2.083   0.470   0.145
11820TIP3    H135405   2.130   0.550   0.119
11820TIP3    H235406   2.040   0.440   0.065
11821TIP3   OH235407   5.264   7.021   3.258
11821TIP3    H135408   5.192   7.073   3.222
11821TIP3    H235409   5.336   7.033   3.196
11822TIP3   OH235410   5.268   2.814   4.964
11822TIP3    H135411   5.362   2.795   4.961
11822TIP3    H235412   5.236   2.792   4.876
11823TIP3   OH235413   2.967   4.506   4.991
11823TIP3    H135414   2.989   4.529   5.082
11823TIP3    H235415   3.048   4.519   4.943
11824TIP3   OH235416   3.069   0.760   2.110
11824TIP3    H135417   3.003   0.761   2.041
11824TIP3    H235418   3.117   0.842   2.099
11825TIP3   OH235419   4.286   4.428   0.593
11825TIP3    H135420   4.258   4.517   0.572
11825TIP3    H235421   4.241   4.407   0.675
11826TIP3   OH235422   7.990   4.968   6.583
11826TIP3    H135423   7.946   5.043   6.624
11826TIP3    H235424   8.082   4.995   6.578
11827TIP3   OH235425   2.973   2.542   3.972
11827TIP3    H135426   3.004   2.633   3.966
11827TIP3    H235427   2.968   2.525   4.066
11828TIP3   OH235428   2.282   1.161   0.789
11828TIP3    H135429   2.241   1.191   0.870
11828TIP3    H235430   2.217   1.103   0.749
11829TIP3   OH235431   6.363   6.927   3.517
11829TIP3    H135432   6.414   6.985   3.573
11829TIP3    H235433   6.428   6.870   3.477
11830TIP3   OH235434   4.960   6.687   2.646
11830TIP3    H135435   4.988   6.778   2.643
11830TIP3    H235436   5.028   6.639   2.598
11831TIP3   OH235437   4.645   4.784   5.175
11831TIP3    H135438   4.700   4.844   5.124
11831TIP3    H235439   4.648   4.702   5.126
11832TIP3   OH235440   4.240   4.964   6.104
11832TIP3    H135441   4.328   4.972   6.140
11832TIP3    H235442   4.249   4.989   6.013
11833TIP3   OH235443   6.839   4.916   6.244
11833TIP3    H135444   6.879   4.972   6.310
11833TIP3    H235445   6.749   4.948   6.237
11834TIP3   OH235446   7.364   6.759   2.322
11834TIP3    H135447   7.342   6.801   2.405
11834TIP3    H235448   7.420   6.822   2.276
11835TIP3   OH235449   7.092   5.488   3.680
11835TIP3    H135450   7.110   5.494   3.773
11835TIP3    H235451   7.007   5.445   3.674
11836TIP3   OH235452   7.469   5.225   5.516
11836TIP3    H135453   7.481   5.227   5.611
11836TIP3    H235454   7.391   5.278   5.500
11837TIP3   OH235455   6.849   7.743   5.642
11837TIP3    H135456   6.858   7.648   5.635
11837TIP3    H235457   6.939   7.776   5.642
11838TIP3   OH235458   2.215   7.384   6.309
11838TIP3    H135459   2.249   7.467   6.274
11838TIP3    H235460   2.175   7.341   6.234
11839TIP3   OH235461   0.659   7.809   6.007
11839TIP3    H135462   0.591   7.833   6.071
11839TIP3    H235463   0.702   7.733   6.045
11840TIP3   OH235464   1.513   6.911   1.846
11840TIP3    H135465   1.579   6.842   1.839
11840TIP3    H235466   1.430   6.867   1.831
11841TIP3   OH235467   0.270   7.757   2.754
11841TIP3    H135468   0.359   7.735   2.781
11841TIP3    H235469   0.281   7.808   2.674
11842TIP3   OH235470   6.239   4.556   0.407
11842TIP3    H135471   6.243   4.625   0.473
11842TIP3    H235472   6.315   4.570   0.352
11843TIP3   OH235473   6.195   0.715   2.809
11843TIP3    H135474   6.214   0.807   2.794
11843TIP3    H235475   6.258   0.668   2.753
11844TIP3   OH235476   0.650   0.345   0.152
11844TIP3    H135477   0.650   0.370   0.244
11844TIP3    H235478   0.558   0.326   0.133
11845TIP3   OH235479   1.937   6.602   3.517
11845TIP3    H135480   1.931   6.646   3.601
11845TIP3    H235481   2.030   6.582   3.508
11846TIP3   OH235482   2.442   3.534   3.441
11846TIP3    H135483   2.392   3.473   3.494
11846TIP3    H235484   2.413   3.621   3.470
11847TIP3   OH235485   2.339   0.435   2.299
11847TIP3    H135486   2.256   0.419   2.344
11847TIP3    H235487   2.318   0.424   2.207
11848TIP3   OH235488   0.252   6.592   2.993
11848TIP3    H135489   0.258   6.532   3.068
11848TIP3    H235490   0.325   6.566   2.936
11849TIP3   OH235491   1.734   0.058   5.167
11849TIP3    H135492   1.707   0.124   5.104
11849TIP3    H235493   1.718  -0.026   5.124
11850TIP3   OH235494   3.830   5.535   1.662
11850TIP3    H135495   3.764   5.481   1.705
11850TIP3    H235496   3.785   5.572   1.586
11851TIP3   OH235497   8.098   1.110   4.422
11851TIP3    H135498   8.052   1.177   4.371
11851TIP3    H235499   8.154   1.065   4.359
11852TIP3   OH235500   5.404   4.399   3.788
11852TIP3    H135501   5.451   4.477   3.757
11852TIP3    H235502   5.321   4.433   3.820
11853TIP3   OH235503   3.619   0.284   4.926
11853TIP3    H135504   3.620   0.188   4.933
11853TIP3    H235505   3.704   0.306   4.889
11854TIP3   OH235506   3.062   3.077   4.701
11854TIP3    H135507   3.048   3.167   4.730
11854TIP3    H235508   3.073   3.084   4.606
11855TIP3   OH235509   7.527   2.999   4.068
11855TIP3    H135510   7.553   3.085   4.103
11855TIP3    H235511   7.606   2.946   4.073
11856TIP3   OH235512   1.570   1.786   1.332
11856TIP3    H135513   1.605   1.732   1.261
11856TIP3    H235514   1.512   1.728   1.380
11857TIP3   OH235515   0.405   0.393   4.177
11857TIP3    H135516   0.359   0.310   4.160
11857TIP3    H235517   0.493   0.378   4.143
11858TIP3   OH235518   3.688   2.995   2.836
11858TIP3    H135519   3.750   2.940   2.789
11858TIP3    H235520   3.670   2.946   2.917
11859TIP3   OH235521   7.220   1.125   6.717
11859TIP3    H135522   7.230   1.054   6.780
11859TIP3    H235523   7.255   1.202   6.762
11860TIP3   OH235524   6.801   4.615   4.446
11860TIP3    H135525   6.872   4.679   4.455
11860TIP3    H235526   6.823   4.564   4.369
11861TIP3   OH235527   7.709   6.874   6.103
11861TIP3    H135528   7.725   6.817   6.028
11861TIP3    H235529   7.617   6.860   6.125
11862TIP3   OH235530   5.994   0.231   2.470
11862TIP3    H135531   6.026   0.304   2.522
11862TIP3    H235532   6.073   0.187   2.439
11863TIP3   OH235533   2.908   0.635   4.538
11863TIP3    H135534   2.964   0.704   4.572
11863TIP3    H235535   2.820   0.658   4.567
11864TIP3   OH235536   7.351   4.875   4.349
11864TIP3    H135537   7.316   4.964   4.353
11864TIP3    H235538   7.445   4.885   4.360
11865TIP3   OH235539   2.351   6.453   5.478
11865TIP3    H135540   2.379   6.519   5.415
11865TIP3    H235541   2.405   6.376   5.459
11866TIP3   OH235542   8.236   6.009   5.713
11866TIP3    H135543   8.273   6.063   5.783
11866TIP3    H235544   8.175   6.068   5.668
11867TIP3   OH235545   8.073   5.201   6.796
11867TIP3    H135546   8.120   5.138   6.740
11867TIP3    H235547   8.101   5.179   6.885
11868TIP3   OH235548   7.711   1.542   2.175
11868TIP3    H135549   7.651   1.613   2.198
11868TIP3    H235550   7.666   1.494   2.105
11869TIP3   OH235551   1.834   7.745   5.032
11869TIP3    H135552   1.885   7.747   4.950
11869TIP3    H235553   1.895   7.777   5.099
11870TIP3   OH235554   6.386   3.798   3.788
11870TIP3    H135555   6.366   3.824   3.698
11870TIP3    H235556   6.320   3.842   3.841
11871TIP3   OH235557   4.111   4.206   2.993
11871TIP3    H135558   4.127   4.214   3.087
11871TIP3    H235559   4.114   4.295   2.960
11872TIP3   OH235560   6.986   1.454   4.516
11872TIP3    H135561   6.896   1.484   4.530
11872TIP3    H235562   7.000   1.389   4.585
11873TIP3   OH235563   3.703   5.118   0.120
11873TIP3    H135564   3.792   5.086   0.104
11873TIP3    H235565   3.672   5.147   0.034
11874TIP3   OH235566   3.354   5.119   5.505
11874TIP3    H135567   3.265   5.085   5.513
11874TIP3    H235568   3.348   5.210   5.536
11875TIP3   OH235569   7.504   4.953   0.052
11875TIP3    H135570   7.538   4.984  -0.032
11875TIP3    H235571   7.411   4.934   0.034
11876TIP3   OH235572   5.407   4.367   6.520
11876TIP3    H135573   5.373   4.293   6.469
11876TIP3    H235574   5.452   4.421   6.455
11877TIP3   OH235575   4.061   6.361   4.584
11877TIP3    H135576   4.114   6.393   4.511
11877TIP3    H235577   4.085   6.417   4.658
11878TIP3   OH235578   2.448   7.084   5.259
11878TIP3    H135579   2.472   7.175   5.274
11878TIP3    H235580   2.354   7.087   5.241
11879TIP3   OH235581   5.549   4.117   1.415
11879TIP3    H135582   5.553   4.028   1.450
11879TIP3    H235583   5.462   4.149   1.440
11880TIP3   OH235584   0.280   4.797   6.260
11880TIP3    H135585   0.270   4.839   6.345
11880TIP3    H235586   0.325   4.715   6.279
11881TIP3   OH235587   5.444   5.804   6.198
11881TIP3    H135588   5.535   5.821   6.223
11881TIP3    H235589   5.448   5.792   6.103
11882TIP3   OH235590   4.831   0.612   5.325
11882TIP3    H135591   4.860   0.550   5.392
11882TIP3    H235592   4.898   0.608   5.257
11883TIP3   OH235593   6.994   5.854   6.364
11883TIP3    H135594   6.912   5.844   6.315
11883TIP3    H235595   7.062   5.862   6.296
11884TIP3   OH235596   0.656   3.926   0.481
11884TIP3    H135597   0.603   3.998   0.447
11884TIP3    H235598   0.630   3.918   0.573
11885TIP3   OH235599   4.617   1.791   4.894
11885TIP3    H135600   4.694   1.755   4.849
11885TIP3    H235601   4.587   1.720   4.951
11886TIP3   OH235602   7.883   0.283   4.713
11886TIP3    H135603   7.942   0.295   4.788
11886TIP3    H235604   7.923   0.335   4.643
11887TIP3   OH235605   0.493   6.927   6.023
11887TIP3    H135606   0.500   7.011   6.069
11887TIP3    H235607   0.419   6.883   6.065
11888TIP3   OH235608   5.930   2.306   5.217
11888TIP3    H135609   5.984   2.227   5.222
11888TIP3    H235610   5.958   2.358   5.293
11889TIP3   OH235611   1.284   0.010   2.004
11889TIP3    H135612   1.289   0.091   2.054
11889TIP3    H235613   1.341   0.024   1.929
11890TIP3   OH235614   8.086   2.686   2.682
11890TIP3    H135615   8.144   2.616   2.712
11890TIP3    H235616   8.145   2.760   2.664
11891TIP3   OH235617   5.863   5.094   2.073
11891TIP3    H135618   5.866   5.094   1.977
11891TIP3    H235619   5.810   5.018   2.095
11892TIP3   OH235620   2.474   4.599   3.201
11892TIP3    H135621   2.534   4.646   3.144
11892TIP3    H235622   2.497   4.507   3.189
11893TIP3   OH235623   6.180   1.390   1.505
11893TIP3    H135624   6.186   1.340   1.587
11893TIP3    H235625   6.092   1.369   1.472
11894TIP3   OH235626   5.032   2.709   5.724
11894TIP3    H135627   4.942   2.727   5.694
11894TIP3    H235628   5.023   2.634   5.783
11895TIP3   OH235629   3.559   6.016   5.459
11895TIP3    H135630   3.468   6.004   5.432
11895TIP3    H235631   3.552   6.068   5.540
11896TIP3   OH235632   4.562   4.409   2.284
11896TIP3    H135633   4.639   4.363   2.249
11896TIP3    H235634   4.528   4.350   2.351
11897TIP3   OH235635   6.765   1.549   5.792
11897TIP3    H135636   6.806   1.463   5.803
11897TIP3    H235637   6.779   1.592   5.877
11898TIP3   OH235638   7.930   1.025   1.196
11898TIP3    H135639   7.937   1.112   1.234
11898TIP3    H235640   7.865   1.034   1.126
11899TIP3   OH235641   0.797   3.774   0.275
11899TIP3    H135642   0.854   3.806   0.205
11899TIP3    H235643   0.769   3.853   0.322
11900TIP3   OH235644   2.484   2.289   5.082
11900TIP3    H135645   2.421   2.282   5.011
11900TIP3    H235646   2.559   2.334   5.045
11901TIP3   OH235647   0.966   3.992   4.470
11901TIP3    H135648   0.935   3.902   4.467
11901TIP3    H235649   0.976   4.017   4.378
11902TIP3   OH235650   5.985   3.740   1.856
11902TIP3    H135651   6.074   3.739   1.892
11902TIP3    H235652   5.958   3.648   1.857
11903TIP3   OH235653   4.684   4.455   4.487
11903TIP3    H135654   4.700   4.493   4.574
11903TIP3    H235655   4.710   4.363   4.497
11904TIP3   OH235656   7.886   3.853   5.302
11904TIP3    H135657   7.973   3.813   5.307
11904TIP3    H235658   7.876   3.898   5.385
11905TIP3   OH235659   5.501   7.251   3.813
11905TIP3    H135660   5.511   7.324   3.874
11905TIP3    H235661   5.553   7.180   3.851
11906TIP3   OH235662   1.745   2.528   6.051
11906TIP3    H135663   1.780   2.551   6.137
11906TIP3    H235664   1.674   2.466   6.069
11907TIP3   OH235665   6.913   6.570   3.748
11907TIP3    H135666   6.972   6.513   3.698
11907TIP3    H235667   6.922   6.542   3.839
11908TIP3   OH235668   3.749   0.358   5.543
11908TIP3    H135669   3.797   0.430   5.501
11908TIP3    H235670   3.816   0.292   5.561
11909TIP3   OH235671   4.717   0.266   4.672
11909TIP3    H135672   4.784   0.319   4.629
11909TIP3    H235673   4.689   0.318   4.747
11910TIP3   OH235674   5.918   4.815   1.775
11910TIP3    H135675   5.975   4.764   1.717
11910TIP3    H235676   5.847   4.754   1.798
11911TIP3   OH235677   2.885   4.619   4.385
11911TIP3    H135678   2.938   4.656   4.456
11911TIP3    H235679   2.853   4.696   4.337
11912TIP3   OH235680   2.565   0.652   6.610
11912TIP3    H135681   2.490   0.673   6.554
11912TIP3    H235682   2.561   0.717   6.681
11913TIP3   OH235683   4.115   2.677   0.451
11913TIP3    H135684   4.042   2.645   0.398
11913TIP3    H235685   4.081   2.679   0.540
11914TIP3   OH235686   0.398   5.304   2.706
11914TIP3    H135687   0.397   5.230   2.646
11914TIP3    H235688   0.440   5.375   2.658
11915TIP3   OH235689   7.944   3.419   2.563
11915TIP3    H135690   7.860   3.465   2.568
11915TIP3    H235691   7.967   3.402   2.654
11916TIP3   OH235692   1.103   7.143   3.848
11916TIP3    H135693   1.073   7.091   3.922
11916TIP3    H235694   1.178   7.094   3.813
11917TIP3   OH235695   0.901   5.007   1.999
11917TIP3    H135696   0.925   4.948   1.927
11917TIP3    H235697   0.817   4.975   2.029
11918TIP3   OH235698   6.838   5.200   1.958
11918TIP3    H135699   6.841   5.292   1.931
11918TIP3    H235700   6.790   5.156   1.888
11919TIP3   OH235701   1.380   5.800   1.986
11919TIP3    H135702   1.394   5.883   2.031
11919TIP3    H235703   1.398   5.733   2.052
11920TIP3   OH235704   7.359   5.655   0.208
11920TIP3    H135705   7.369   5.748   0.191
11920TIP3    H235706   7.268   5.636   0.184
11921TIP3   OH235707   4.448   5.098   0.882
11921TIP3    H135708   4.486   5.139   0.805
11921TIP3    H235709   4.370   5.151   0.901
11922TIP3   OH235710   3.346   4.497   2.126
11922TIP3    H135711   3.334   4.565   2.060
11922TIP3    H235712   3.428   4.520   2.169
11923TIP3   OH235713   2.308   6.016   3.858
11923TIP3    H135714   2.268   5.931   3.876
11923TIP3    H235715   2.268   6.076   3.922
11924TIP3   OH235716   8.176   0.949   6.447
11924TIP3    H135717   8.181   0.947   6.543
11924TIP3    H235718   8.087   0.919   6.428
11925TIP3   OH235719   6.934   1.355   5.874
11925TIP3    H135720   6.934   1.260   5.885
11925TIP3    H235721   6.981   1.388   5.950
11926TIP3   OH235722   0.363   7.225   5.410
11926TIP3    H135723   0.338   7.240   5.319
11926TIP3    H235724   0.343   7.308   5.454
11927TIP3   OH235725   1.467   5.413   1.732
11927TIP3    H135726   1.479   5.486   1.793
11927TIP3    H235727   1.510   5.441   1.651
11928TIP3   OH235728   7.376   1.861   2.012
11928TIP3    H135729   7.410   1.844   1.924
11928TIP3    H235730   7.453   1.877   2.065
11929TIP3   OH235731   0.940   7.126   3.593
11929TIP3    H135732   0.866   7.124   3.654
11929TIP3    H235733   0.919   7.060   3.527
11930TIP3   OH235734   2.597   0.474   1.059
11930TIP3    H135735   2.687   0.507   1.047
11930TIP3    H235736   2.589   0.404   0.995
11931TIP3   OH235737   2.604   6.899   3.350
11931TIP3    H135738   2.683   6.868   3.307
11931TIP3    H235739   2.606   6.857   3.436
11932TIP3   OH235740   2.379   1.458   3.515
11932TIP3    H135741   2.458   1.462   3.460
11932TIP3    H235742   2.388   1.376   3.562
11933TIP3   OH235743   3.902   1.861   1.958
11933TIP3    H135744   3.971   1.900   2.010
11933TIP3    H235745   3.945   1.791   1.909
11934TIP3   OH235746   5.213   7.248   5.319
11934TIP3    H135747   5.198   7.304   5.243
11934TIP3    H235748   5.149   7.278   5.384
11935TIP3   OH235749   6.559   3.902   5.599
11935TIP3    H135750   6.631   3.945   5.644
11935TIP3    H235751   6.595   3.819   5.568
11936TIP3   OH235752   4.332   6.995   4.743
11936TIP3    H135753   4.398   7.064   4.739
11936TIP3    H235754   4.291   6.995   4.656
11937TIP3   OH235755   1.992   7.110   3.003
11937TIP3    H135756   2.080   7.105   3.041
11937TIP3    H235757   2.004   7.084   2.912
11938TIP3   OH235758   7.771   6.388  -0.009
11938TIP3    H135759   7.812   6.310   0.028
11938TIP3    H235760   7.683   6.389   0.029
11939TIP3   OH235761   0.833   0.169   0.247
11939TIP3    H135762   0.778   0.224   0.191
11939TIP3    H235763   0.923   0.193   0.224
11940TIP3   OH235764   2.031   6.730   4.401
11940TIP3    H135765   2.039   6.700   4.491
11940TIP3    H235766   2.121   6.741   4.371
11941TIP3   OH235767   6.985   0.922   5.362
11941TIP3    H135768   6.916   0.971   5.318
11941TIP3    H235769   6.939   0.852   5.408
11942TIP3   OH235770   5.520   5.605   1.337
11942TIP3    H135771   5.549   5.684   1.291
11942TIP3    H235772   5.597   5.548   1.340
11943TIP3   OH235773   1.490   5.773   4.379
11943TIP3    H135774   1.464   5.747   4.467
11943TIP3    H235775   1.466   5.699   4.323
11944TIP3   OH235776   0.812   3.436   3.283
11944TIP3    H135777   0.805   3.512   3.341
11944TIP3    H235778   0.875   3.462   3.216
11945TIP3   OH235779   4.034   4.229   0.599
11945TIP3    H135780   4.124   4.252   0.624
11945TIP3    H235781   4.042   4.143   0.559
11946TIP3   OH235782   5.874   5.208   0.439
11946TIP3    H135783   5.827   5.134   0.477
11946TIP3    H235784   5.857   5.281   0.499
11947TIP3   OH235785   0.871   4.919   6.146
11947TIP3    H135786   0.921   4.855   6.095
11947TIP3    H235787   0.821   4.967   6.080
11948TIP3   OH235788   1.890   3.313   4.187
11948TIP3    H135789   1.810   3.270   4.216
11948TIP3    H235790   1.944   3.318   4.265
11949TIP3   OH235791   3.732   4.010   6.719
11949TIP3    H135792   3.643   4.006   6.684
11949TIP3    H235793   3.763   3.920   6.716
11950TIP3   OH235794   7.475   6.773   3.814
11950TIP3    H135795   7.463   6.761   3.908
11950TIP3    H235796   7.439   6.694   3.775
11951TIP3   OH235797   2.014   3.624   2.206
11951TIP3    H135798   2.102   3.659   2.219
11951TIP3    H235799   2.021   3.532   2.232
11952TIP3   OH235800   4.516   3.191   0.894
11952TIP3    H135801   4.461   3.137   0.837
11952TIP3    H235802   4.604   3.183   0.858
11953TIP3   OH235803   8.117   1.497   4.930
11953TIP3    H135804   8.081   1.415   4.896
11953TIP3    H235805   8.171   1.532   4.859
11954TIP3   OH235806   4.685   5.528   5.395
11954TIP3    H135807   4.652   5.483   5.473
11954TIP3    H235808   4.765   5.571   5.424
11955TIP3   OH235809   3.273   4.114   3.335
11955TIP3    H135810   3.341   4.177   3.310
11955TIP3    H235811   3.197   4.139   3.284
11956TIP3   OH235812   0.625   4.458   2.330
11956TIP3    H135813   0.590   4.529   2.277
11956TIP3    H235814   0.720   4.462   2.315
11957TIP3   OH235815   4.895   0.567   3.300
11957TIP3    H135816   4.989   0.577   3.314
11957TIP3    H235817   4.856   0.644   3.341
11958TIP3   OH235818   2.542   0.465   3.779
11958TIP3    H135819   2.598   0.507   3.843
11958TIP3    H235820   2.457   0.507   3.790
11959TIP3   OH235821   4.534   2.551   1.828
11959TIP3    H135822   4.605   2.599   1.786
11959TIP3    H235823   4.543   2.461   1.796
11960TIP3   OH235824   8.149   5.744   3.878
11960TIP3    H135825   8.177   5.686   3.807
11960TIP3    H235826   8.162   5.692   3.957
11961TIP3   OH235827   4.285   5.693   1.336
11961TIP3    H135828   4.274   5.731   1.424
11961TIP3    H235829   4.372   5.721   1.309
11962TIP3   OH235830   0.894   4.672   5.674
11962TIP3    H135831   0.970   4.638   5.721
11962TIP3    H235832   0.826   4.605   5.687
11963TIP3   OH235833   2.979   6.494   3.519
11963TIP3    H135834   3.060   6.464   3.479
11963TIP3    H235835   2.910   6.467   3.458
11964TIP3   OH235836   1.053   3.450   4.666
11964TIP3    H135837   1.141   3.455   4.703
11964TIP3    H235838   0.996   3.489   4.732
11965TIP3   OH235839   0.735   3.346   2.583
11965TIP3    H135840   0.712   3.416   2.643
11965TIP3    H235841   0.772   3.277   2.639
11966TIP3   OH235842   8.198   1.117   3.668
11966TIP3    H135843   8.178   1.138   3.760
11966TIP3    H235844   8.232   1.028   3.671
11967TIP3   OH235845   8.169   1.671   6.458
11967TIP3    H135846   8.225   1.635   6.527
11967TIP3    H235847   8.148   1.759   6.488
11968TIP3   OH235848   4.986   6.130   0.210
11968TIP3    H135849   5.045   6.082   0.152
11968TIP3    H235850   4.914   6.156   0.153
11969TIP3   OH235851   2.484   0.787   0.715
11969TIP3    H135852   2.482   0.849   0.642
11969TIP3    H235853   2.572   0.749   0.712
11970TIP3   OH235854   1.249   7.173   1.311
11970TIP3    H135855   1.301   7.163   1.231
11970TIP3    H235856   1.306   7.143   1.381
11971TIP3   OH235857   5.869   0.948   1.366
11971TIP3    H135858   5.816   0.937   1.445
11971TIP3    H235859   5.931   0.875   1.369
11972TIP3   OH235860   3.535   4.896   3.301
11972TIP3    H135861   3.474   4.868   3.369
11972TIP3    H235862   3.537   4.992   3.308
11973TIP3   OH235863   7.282   6.728   6.257
11973TIP3    H135864   7.347   6.695   6.319
11973TIP3    H235865   7.242   6.649   6.220
11974TIP3   OH235866   5.454   6.718   4.167
11974TIP3    H135867   5.478   6.669   4.245
11974TIP3    H235868   5.525   6.782   4.156
11975TIP3   OH235869   3.372   6.766   0.849
11975TIP3    H135870   3.355   6.715   0.770
11975TIP3    H235871   3.357   6.705   0.921
11976TIP3   OH235872   5.637   4.994   2.822
11976TIP3    H135873   5.645   4.903   2.792
11976TIP3    H235874   5.544   5.013   2.816
11977TIP3   OH235875   1.631   6.141   1.434
11977TIP3    H135876   1.540   6.114   1.448
11977TIP3    H235877   1.625   6.229   1.398
11978TIP3   OH235878   7.845   3.469   2.233
11978TIP3    H135879   7.906   3.445   2.303
11978TIP3    H235880   7.763   3.487   2.278
11979TIP3   OH235881   3.878   3.910   2.623
11979TIP3    H135882   3.910   3.975   2.685
11979TIP3    H235883   3.783   3.913   2.632
11980TIP3   OH235884   1.012   5.526   4.869
11980TIP3    H135885   0.918   5.522   4.850
11980TIP3    H235886   1.052   5.544   4.784
11981TIP3   OH235887   5.251   1.973   3.300
11981TIP3    H135888   5.279   2.039   3.364
11981TIP3    H235889   5.222   2.024   3.224
11982TIP3   OH235890   3.485   1.231   1.041
11982TIP3    H135891   3.418   1.284   1.083
11982TIP3    H235892   3.474   1.247   0.947
11983TIP3   OH235893   1.107   3.495   6.386
11983TIP3    H135894   1.192   3.490   6.343
11983TIP3    H235895   1.043   3.492   6.314
11984TIP3   OH235896   7.091   2.169   5.243
11984TIP3    H135897   7.085   2.240   5.179
11984TIP3    H235898   7.036   2.099   5.206
11985TIP3   OH235899   2.731   1.997   6.088
11985TIP3    H135900   2.717   1.944   6.166
11985TIP3    H235901   2.647   1.995   6.042
11986TIP3   OH235902   5.952   6.425   1.191
11986TIP3    H135903   6.035   6.380   1.175
11986TIP3    H235904   5.928   6.463   1.106
11987TIP3   OH235905   0.351   6.643   6.584
11987TIP3    H135906   0.334   6.637   6.490
11987TIP3    H235907   0.418   6.711   6.592
11988TIP3   OH235908   4.257   6.445   5.077
11988TIP3    H135909   4.232   6.523   5.125
11988TIP3    H235910   4.342   6.466   5.038
11989TIP3   OH235911   2.411   1.731   6.629
11989TIP3    H135912   2.466   1.700   6.702
11989TIP3    H235913   2.332   1.677   6.633
11990TIP3   OH235914   5.616   1.859   1.804
11990TIP3    H135915   5.689   1.860   1.866
11990TIP3    H235916   5.540   1.883   1.857
11991TIP3   OH235917   6.966   4.856   5.015
11991TIP3    H135918   6.995   4.779   5.064
11991TIP3    H235919   6.910   4.903   5.077
11992TIP3   OH235920   7.350   6.654   0.864
11992TIP3    H135921   7.355   6.604   0.783
11992TIP3    H235922   7.372   6.590   0.932
11993TIP3   OH235923   6.377   4.170   4.752
11993TIP3    H135924   6.353   4.079   4.772
11993TIP3    H235925   6.301   4.205   4.706
11994TIP3   OH235926   5.732   1.023   0.804
11994TIP3    H135927   5.672   1.097   0.811
11994TIP3    H235928   5.760   1.007   0.894
11995TIP3   OH235929   3.947   3.485   2.893
11995TIP3    H135930   3.902   3.564   2.924
11995TIP3    H235931   3.884   3.414   2.909
11996TIP3   OH235932   6.610   7.656  -0.006
11996TIP3    H135933   6.690   7.692   0.033
11996TIP3    H235934   6.609   7.565   0.024
11997TIP3   OH235935   0.277   5.030   5.771
11997TIP3    H135936   0.305   5.120   5.784
11997TIP3    H235937   0.306   4.984   5.850
11998TIP3   OH235938   5.782   4.237   4.680
11998TIP3    H135939   5.810   4.309   4.623
11998TIP3    H235940   5.775   4.161   4.622
11999TIP3   OH235941   0.947   7.830   4.500
11999TIP3    H135942   0.942   7.734   4.503
11999TIP3    H235943   0.857   7.859   4.519
12000TIP3   OH235944   5.717   6.586   6.685
12000TIP3    H135945   5.798   6.595   6.635
12000TIP3    H235946   5.705   6.672   6.725
12001TIP3   OH235947   3.977   5.047   5.645
12001TIP3    H135948   4.014   5.123   5.600
12001TIP3    H235949   4.030   4.973   5.616
12002TIP3   OH235950   1.053   7.540   1.328
12002TIP3    H135951   1.098   7.606   1.380
12002TIP3    H235952   0.990   7.500   1.388
12003TIP3   OH235953   1.013   2.162   2.487
12003TIP3    H135954   1.026   2.239   2.431
12003TIP3    H235955   0.937   2.185   2.540
12004TIP3   OH235956   7.911   7.385   3.405
12004TIP3    H135957   7.981   7.394   3.470
12004TIP3    H235958   7.833   7.364   3.457
12005TIP3   OH235959   6.021   2.606   4.062
12005TIP3    H135960   5.956   2.640   4.124
12005TIP3    H235961   6.101   2.598   4.114
12006TIP3   OH235962   0.958   2.639   0.639
12006TIP3    H135963   1.025   2.703   0.613
12006TIP3    H235964   1.004   2.555   0.639
12007TIP3   OH235965   7.565   4.028   1.215
12007TIP3    H135966   7.472   4.045   1.231
12007TIP3    H235967   7.600   4.003   1.300
12008TIP3   OH235968   3.862   6.321   1.217
12008TIP3    H135969   3.799   6.293   1.151
12008TIP3    H235970   3.902   6.240   1.248
12009TIP3   OH235971   4.760   5.351   4.797
12009TIP3    H135972   4.740   5.438   4.831
12009TIP3    H235973   4.809   5.307   4.866
12010TIP3   OH235974   0.008   0.710   4.309
12010TIP3    H135975   0.068   0.761   4.254
12010TIP3    H235976   0.061   0.636   4.340
12011TIP3   OH235977   7.820   2.033   4.119
12011TIP3    H135978   7.898   2.050   4.066
12011TIP3    H235979   7.753   2.009   4.055
12012TIP3   OH235980   4.511   1.301   2.196
12012TIP3    H135981   4.489   1.282   2.105
12012TIP3    H235982   4.602   1.275   2.205
12013TIP3   OH235983   2.404   4.224   1.547
12013TIP3    H135984   2.457   4.241   1.468
12013TIP3    H235985   2.317   4.205   1.513
12014TIP3   OH235986   2.453   1.266   2.905
12014TIP3    H135987   2.505   1.296   2.832
12014TIP3    H235988   2.415   1.346   2.943
12015TIP3   OH235989   0.453   3.356   2.901
12015TIP3    H135990   0.481   3.411   2.828
12015TIP3    H235991   0.535   3.323   2.938
12016TIP3   OH235992   5.956   5.402   3.683
12016TIP3    H135993   5.896   5.477   3.684
12016TIP3    H235994   6.031   5.430   3.734
12017TIP3   OH235995   2.060   3.803   1.221
12017TIP3    H135996   2.130   3.867   1.217
12017TIP3    H235997   2.065   3.767   1.309
12018TIP3   OH235998   8.060   1.906   1.878
12018TIP3    H135999   7.996   1.836   1.885
12018TIP3    H236000   8.008   1.986   1.869
12019TIP3   OH236001   4.131   2.844   2.374
12019TIP3    H136002   4.061   2.779   2.372
12019TIP3    H236003   4.205   2.798   2.413
12020TIP3   OH236004   3.836   2.083   4.904
12020TIP3    H136005   3.792   2.134   4.836
12020TIP3    H236006   3.800   1.995   4.895
12021TIP3   OH236007   1.714   7.687   3.892
12021TIP3    H136008   1.711   7.634   3.972
12021TIP3    H236009   1.801   7.672   3.856
12022TIP3   OH236010   7.622   3.062   2.309
12022TIP3    H136011   7.570   3.081   2.387
12022TIP3    H236012   7.654   2.973   2.322
12023TIP3   OH236013   1.850   7.508   2.020
12023TIP3    H136014   1.889   7.593   2.039
12023TIP3    H236015   1.768   7.508   2.071
12024TIP3   OH236016   4.824   5.465   3.015
12024TIP3    H136017   4.902   5.429   3.058
12024TIP3    H236018   4.808   5.406   2.942
12025TIP3   OH236019   4.168   5.975   4.047
12025TIP3    H136020   4.082   5.934   4.040
12025TIP3    H236021   4.198   5.982   3.956
12026TIP3   OH236022   1.405   2.019   0.255
12026TIP3    H136023   1.329   2.076   0.264
12026TIP3    H236024   1.410   1.972   0.338
12027TIP3   OH236025   0.671   1.129   4.837
12027TIP3    H136026   0.721   1.071   4.780
12027TIP3    H236027   0.649   1.075   4.913
12028TIP3   OH236028   8.254   3.009   2.894
12028TIP3    H136029   8.188   3.022   2.963
12028TIP3    H236030   8.260   2.914   2.884
12029TIP3   OH236031   0.290   6.201   5.400
12029TIP3    H136032   0.298   6.243   5.314
12029TIP3    H236033   0.372   6.221   5.444
12030TIP3   OH236034   5.056   4.490   1.143
12030TIP3    H136035   4.966   4.490   1.176
12030TIP3    H236036   5.048   4.459   1.053
12031TIP3   OH236037   4.286   5.304   5.867
12031TIP3    H136038   4.339   5.227   5.849
12031TIP3    H236039   4.340   5.357   5.926
12032TIP3   OH236040   6.535   5.919   2.576
12032TIP3    H136041   6.550   5.971   2.498
12032TIP3    H236042   6.582   5.836   2.559
12033TIP3   OH236043   2.319   0.976   4.053
12033TIP3    H136044   2.325   1.072   4.047
12033TIP3    H236045   2.276   0.960   4.137
12034TIP3   OH236046   1.919   4.849   4.706
12034TIP3    H136047   1.935   4.846   4.612
12034TIP3    H236048   1.931   4.941   4.729
12035TIP3   OH236049   1.727   3.991   3.097
12035TIP3    H136050   1.668   4.058   3.064
12035TIP3    H236051   1.672   3.914   3.110
12036TIP3   OH236052   5.787   5.899   2.630
12036TIP3    H136053   5.719   5.863   2.573
12036TIP3    H236054   5.869   5.874   2.588
12037TIP3   OH236055   3.117   5.467   4.236
12037TIP3    H136056   3.046   5.517   4.276
12037TIP3    H236057   3.186   5.466   4.303
12038TIP3   OH236058   5.626   6.410   4.960
12038TIP3    H136059   5.600   6.458   5.038
12038TIP3    H236060   5.721   6.421   4.955
12039TIP3   OH236061   5.758   2.235   4.342
12039TIP3    H136062   5.784   2.318   4.382
12039TIP3    H236063   5.733   2.258   4.253
12040TIP3   OH236064   6.725   5.118   1.742
12040TIP3    H136065   6.739   5.027   1.714
12040TIP3    H236066   6.722   5.167   1.660
12041TIP3   OH236067  -0.014   1.604   4.729
12041TIP3    H136068  -0.015   1.539   4.659
12041TIP3    H236069   0.078   1.621   4.745
12042TIP3   OH236070   2.403   6.528   6.218
12042TIP3    H136071   2.335   6.563   6.160
12042TIP3    H236072   2.419   6.440   6.186
12043TIP3   OH236073   3.801   7.356   2.119
12043TIP3    H136074   3.765   7.350   2.207
12043TIP3    H236075   3.876   7.297   2.120
12044TIP3   OH236076   0.862   1.144   4.517
12044TIP3    H136077   0.946   1.141   4.471
12044TIP3    H236078   0.856   1.058   4.560
12045TIP3   OH236079   2.106   5.760   1.635
12045TIP3    H136080   2.148   5.779   1.551
12045TIP3    H236081   2.174   5.776   1.700
12046TIP3   OH236082   4.520   7.212   3.699
12046TIP3    H136083   4.539   7.177   3.612
12046TIP3    H236084   4.482   7.298   3.683
12047TIP3   OH236085   8.290   1.786   4.375
12047TIP3    H136086   8.328   1.859   4.424
12047TIP3    H236087   8.197   1.806   4.370
12048TIP3   OH236088   7.908   4.679   1.980
12048TIP3    H136089   7.944   4.767   1.975
12048TIP3    H236090   7.838   4.685   2.045
12049TIP3   OH236091   5.632   6.765   4.825
12049TIP3    H136092   5.549   6.718   4.833
12049TIP3    H236093   5.683   6.738   4.901
12050TIP3   OH236094   5.971   1.263   5.471
12050TIP3    H136095   6.002   1.297   5.555
12050TIP3    H236096   6.036   1.198   5.446
12051TIP3   OH236097   3.390   5.018   1.419
12051TIP3    H136098   3.331   4.969   1.362
12051TIP3    H236099   3.458   5.050   1.360
12052TIP3   OH236100   4.552   2.551   0.539
12052TIP3    H136101   4.527   2.549   0.447
12052TIP3    H236102   4.487   2.608   0.580
12053TIP3   OH236103   6.681   0.738   0.578
12053TIP3    H136104   6.740   0.703   0.512
12053TIP3    H236105   6.655   0.823   0.545
12054TIP3   OH236106   0.710   2.980   4.194
12054TIP3    H136107   0.663   2.950   4.271
12054TIP3    H236108   0.747   3.065   4.218
12055TIP3   OH236109   4.897   4.893   5.285
12055TIP3    H136110   4.925   4.803   5.266
12055TIP3    H236111   4.810   4.883   5.323
12056TIP3   OH236112   3.862   7.021   5.083
12056TIP3    H136113   3.781   7.067   5.105
12056TIP3    H236114   3.928   7.061   5.139
12057TIP3   OH236115   7.625   3.436   6.350
12057TIP3    H136116   7.629   3.344   6.323
12057TIP3    H236117   7.666   3.437   6.436
12058TIP3   OH236118   1.079   5.058   0.512
12058TIP3    H136119   1.158   5.110   0.530
12058TIP3    H236120   1.112   4.971   0.491
12059TIP3   OH236121   6.848   7.124   5.006
12059TIP3    H136122   6.901   7.045   4.991
12059TIP3    H236123   6.809   7.110   5.092
12060TIP3   OH236124   5.962   4.168   0.990
12060TIP3    H136125   5.949   4.195   1.081
12060TIP3    H236126   6.051   4.131   0.988
12061TIP3   OH236127   1.189   1.183   5.935
12061TIP3    H136128   1.164   1.101   5.893
12061TIP3    H236129   1.122   1.198   6.001
12062TIP3   OH236130   3.699   2.110   5.188
12062TIP3    H136131   3.759   2.053   5.140
12062TIP3    H236132   3.649   2.051   5.244
12063TIP3   OH236133   3.607   7.174   5.601
12063TIP3    H136134   3.634   7.171   5.693
12063TIP3    H236135   3.674   7.227   5.558
12064TIP3   OH236136   7.146   4.458   3.476
12064TIP3    H136137   7.235   4.493   3.471
12064TIP3    H236138   7.157   4.366   3.500
12065TIP3   OH236139   5.027   6.497   3.985
12065TIP3    H136140   5.068   6.473   4.068
12065TIP3    H236141   4.960   6.560   4.007
12066TIP3   OH236142   3.857   7.395   1.468
12066TIP3    H136143   3.942   7.382   1.512
12066TIP3    H236144   3.835   7.486   1.485
12067TIP3   OH236145   2.825   3.728   6.157
12067TIP3    H136146   2.804   3.700   6.068
12067TIP3    H236147   2.863   3.815   6.148
12068TIP3   OH236148   2.691   5.774   5.918
12068TIP3    H136149   2.719   5.864   5.935
12068TIP3    H236150   2.757   5.720   5.961
12069TIP3   OH236151   8.293   3.047   0.964
12069TIP3    H136152   8.247   3.099   1.030
12069TIP3    H236153   8.321   2.968   1.010
12070TIP3   OH236154   6.237   4.844   4.580
12070TIP3    H136155   6.313   4.867   4.633
12070TIP3    H236156   6.260   4.873   4.491
12071TIP3   OH236157   2.470   0.895   3.829
12071TIP3    H136158   2.419   0.929   3.903
12071TIP3    H236159   2.407   0.849   3.775
12072TIP3   OH236160   1.434   0.958   0.101
12072TIP3    H136161   1.386   0.890   0.149
12072TIP3    H236162   1.496   0.910   0.046
12073TIP3   OH236163   5.466   5.975   1.894
12073TIP3    H136164   5.446   5.966   1.988
12073TIP3    H236165   5.405   6.041   1.863
12074TIP3   OH236166   4.056   5.756   1.175
12074TIP3    H136167   4.062   5.699   1.098
12074TIP3    H236168   4.127   5.726   1.232
12075TIP3   OH236169   3.878   4.413   4.922
12075TIP3    H136170   3.888   4.320   4.942
12075TIP3    H236171   3.811   4.416   4.854
12076TIP3   OH236172   0.476   5.146   6.205
12076TIP3    H136173   0.417   5.198   6.259
12076TIP3    H236174   0.529   5.097   6.268
12077TIP3   OH236175   6.347   1.401   0.102
12077TIP3    H136176   6.338   1.476   0.043
12077TIP3    H236177   6.290   1.423   0.177
12078TIP3   OH236178   4.984   4.795   3.867
12078TIP3    H136179   5.010   4.849   3.941
12078TIP3    H236180   4.985   4.854   3.792
12079TIP3   OH236181   6.340   3.933   5.323
12079TIP3    H136182   6.276   3.901   5.260
12079TIP3    H236183   6.420   3.885   5.302
12080TIP3   OH236184   4.132   7.404   2.553
12080TIP3    H136185   4.138   7.437   2.464
12080TIP3    H236186   4.193   7.457   2.603
12081TIP3   OH236187   0.974   5.417   2.518
12081TIP3    H136188   1.051   5.458   2.557
12081TIP3    H236189   1.006   5.334   2.483
12082TIP3   OH236190   2.278   4.171   3.093
12082TIP3    H136191   2.294   4.077   3.085
12082TIP3    H236192   2.266   4.185   3.187
12083TIP3   OH236193   6.599   2.114   1.908
12083TIP3    H136194   6.555   2.158   1.980
12083TIP3    H236195   6.536   2.049   1.876
12084TIP3   OH236196   2.154   3.449   3.835
12084TIP3    H136197   2.068   3.480   3.864
12084TIP3    H236198   2.155   3.356   3.859
12085TIP3   OH236199   6.049   7.489   0.328
12085TIP3    H136200   6.106   7.412   0.332
12085TIP3    H236201   6.098   7.557   0.375
12086TIP3   OH236202   3.362   5.733   5.864
12086TIP3    H136203   3.266   5.732   5.864
12086TIP3    H236204   3.387   5.661   5.807
12087TIP3   OH236205   5.079   2.359   6.453
12087TIP3    H136206   5.102   2.281   6.402
12087TIP3    H236207   5.001   2.393   6.410
12088TIP3   OH236208   5.559   3.866   1.583
12088TIP3    H136209   5.618   3.791   1.575
12088TIP3    H236210   5.472   3.827   1.593
12089TIP3   OH236211   6.473   4.227   1.839
12089TIP3    H136212   6.403   4.248   1.777
12089TIP3    H236213   6.552   4.267   1.801
12090TIP3   OH236214   5.208   2.222   1.963
12090TIP3    H136215   5.215   2.316   1.947
12090TIP3    H236216   5.114   2.207   1.977
12091TIP3   OH236217   0.352   0.400   0.118
12091TIP3    H136218   0.303   0.448   0.051
12091TIP3    H236219   0.343   0.452   0.197
12092TIP3   OH236220   2.890   0.476   0.081
12092TIP3    H136221   2.855   0.451  -0.005
12092TIP3    H236222   2.960   0.538   0.061
12093TIP3   OH236223   0.867   1.412   4.517
12093TIP3    H136224   0.779   1.443   4.535
12093TIP3    H236225   0.862   1.317   4.529
12094TIP3   OH236226   4.135   7.416   4.609
12094TIP3    H136227   4.211   7.427   4.666
12094TIP3    H236228   4.069   7.375   4.665
12095TIP3   OH236229   0.370   1.678   4.218
12095TIP3    H136230   0.427   1.729   4.160
12095TIP3    H236231   0.327   1.745   4.273
12096TIP3   OH236232   3.439   4.848   0.442
12096TIP3    H136233   3.393   4.924   0.477
12096TIP3    H236234   3.492   4.817   0.516
12097TIP3   OH236235   3.888   4.845   1.939
12097TIP3    H136236   3.968   4.880   1.899
12097TIP3    H236237   3.820   4.864   1.875
12098TIP3   OH236238   7.627   2.808   6.431
12098TIP3    H136239   7.533   2.816   6.451
12098TIP3    H236240   7.668   2.874   6.487
12099TIP3   OH236241   2.535   3.927   6.126
12099TIP3    H136242   2.487   3.857   6.170
12099TIP3    H236243   2.559   3.987   6.196
12100TIP3   OH236244   6.611   3.726   4.961
12100TIP3    H136245   6.575   3.735   5.050
12100TIP3    H236246   6.619   3.816   4.929
12101TIP3   OH236247   5.069   6.982   5.208
12101TIP3    H136248   5.163   6.980   5.189
12101TIP3    H236249   5.045   6.890   5.217
12102TIP3   OH236250   2.288   5.839   2.864
12102TIP3    H136251   2.302   5.788   2.943
12102TIP3    H236252   2.358   5.905   2.865
12103TIP3   OH236253   1.934   2.879   2.559
12103TIP3    H136254   1.910   2.850   2.471
12103TIP3    H236255   2.019   2.922   2.547
12104TIP3   OH236256   2.859   5.444   5.505
12104TIP3    H136257   2.885   5.534   5.521
12104TIP3    H236258   2.769   5.450   5.473
12105TIP3   OH236259   7.165   3.416   2.476
12105TIP3    H136260   7.122   3.359   2.540
12105TIP3    H236261   7.104   3.490   2.466
12106TIP3   OH236262   6.869   5.756   3.843
12106TIP3    H136263   6.862   5.751   3.748
12106TIP3    H236264   6.798   5.813   3.870
12107TIP3   OH236265   0.436   3.443   0.593
12107TIP3    H136266   0.430   3.537   0.606
12107TIP3    H236267   0.396   3.427   0.508
12108TIP3   OH236268   4.567   3.596   2.504
12108TIP3    H136269   4.512   3.531   2.547
12108TIP3    H236270   4.546   3.586   2.411
12109TIP3   OH236271   6.104   2.474   2.739
12109TIP3    H136272   6.157   2.412   2.689
12109TIP3    H236273   6.154   2.490   2.819
12110TIP3   OH236274   1.376   5.428   5.804
12110TIP3    H136275   1.460   5.472   5.786
12110TIP3    H236276   1.313   5.474   5.748
12111TIP3   OH236277   7.316   2.645   0.616
12111TIP3    H136278   7.346   2.559   0.588
12111TIP3    H236279   7.396   2.695   0.629
12112TIP3   OH236280   4.257   7.634   2.612
12112TIP3    H136281   4.283   7.677   2.530
12112TIP3    H236282   4.335   7.586   2.640
12113TIP3   OH236283   6.179   7.706   3.296
12113TIP3    H136284   6.111   7.686   3.360
12113TIP3    H236285   6.139   7.689   3.211
12114TIP3   OH236286   0.352   6.855   2.312
12114TIP3    H136287   0.302   6.937   2.312
12114TIP3    H236288   0.310   6.801   2.378
12115TIP3   OH236289   7.698   3.296   4.858
12115TIP3    H136290   7.621   3.241   4.862
12115TIP3    H236291   7.749   3.261   4.785
12116TIP3   OH236292   2.621   5.278   0.956
12116TIP3    H136293   2.581   5.310   0.875
12116TIP3    H236294   2.560   5.211   0.989
12117TIP3   OH236295   7.504   1.160   6.157
12117TIP3    H136296   7.532   1.251   6.164
12117TIP3    H236297   7.413   1.161   6.188
12118TIP3   OH236298   4.135   1.714   0.510
12118TIP3    H136299   4.060   1.751   0.464
12118TIP3    H236300   4.178   1.658   0.445
12119TIP3   OH236301   3.999   3.427   6.247
12119TIP3    H136302   4.034   3.464   6.329
12119TIP3    H236303   3.912   3.466   6.239
12120TIP3   OH236304   5.815   1.558   0.086
12120TIP3    H136305   5.860   1.639   0.063
12120TIP3    H236306   5.883   1.491   0.086
12121TIP3   OH236307   7.134   2.266   4.194
12121TIP3    H136308   7.212   2.268   4.248
12121TIP3    H236309   7.074   2.208   4.240
12122TIP3   OH236310   7.751   5.503   3.878
12122TIP3    H136311   7.775   5.440   3.811
12122TIP3    H236312   7.761   5.589   3.836
12123TIP3   OH236313   2.103   1.917   2.682
12123TIP3    H136314   2.194   1.895   2.702
12123TIP3    H236315   2.052   1.850   2.726
12124TIP3   OH236316   7.507   2.988   3.042
12124TIP3    H136317   7.442   3.058   3.034
12124TIP3    H236318   7.576   3.014   2.981
12125TIP3   OH236319   6.423   1.676   3.639
12125TIP3    H136320   6.517   1.663   3.633
12125TIP3    H236321   6.410   1.768   3.613
12126TIP3   OH236322   5.695   2.232   5.123
12126TIP3    H136323   5.700   2.196   5.034
12126TIP3    H236324   5.785   2.255   5.145
12127TIP3   OH236325   2.253   4.538   4.119
12127TIP3    H136326   2.343   4.513   4.099
12127TIP3    H236327   2.216   4.563   4.034
12128TIP3   OH236328   6.314   7.550   4.124
12128TIP3    H136329   6.366   7.475   4.096
12128TIP3    H236330   6.277   7.524   4.208
12129TIP3   OH236331   1.859   0.144   6.473
12129TIP3    H136332   1.814   0.074   6.520
12129TIP3    H236333   1.815   0.224   6.500
12130TIP3   OH236334   3.944   3.825   3.188
12130TIP3    H136335   4.017   3.865   3.142
12130TIP3    H236336   3.893   3.898   3.222
12131TIP3   OH236337   4.552   4.481   3.508
12131TIP3    H136338   4.573   4.574   3.508
12131TIP3    H236339   4.615   4.442   3.568
12132TIP3   OH236340   8.259   7.740   2.030
12132TIP3    H136341   8.276   7.834   2.020
12132TIP3    H236342   8.276   7.703   1.943
12133TIP3   OH236343   2.115   4.548   2.602
12133TIP3    H136344   2.175   4.484   2.639
12133TIP3    H236345   2.153   4.633   2.625
12134TIP3   OH236346   3.756   5.508   3.040
12134TIP3    H136347   3.770   5.578   2.976
12134TIP3    H236348   3.835   5.508   3.093
12135TIP3   OH236349   2.142   7.468   5.450
12135TIP3    H136350   2.203   7.541   5.437
12135TIP3    H236351   2.055   7.508   5.446
12136TIP3   OH236352   0.119   3.937   5.207
12136TIP3    H136353   0.139   3.966   5.118
12136TIP3    H236354   0.118   4.018   5.258
12137TIP3   OH236355   4.289   6.426   1.325
12137TIP3    H136356   4.268   6.333   1.338
12137TIP3    H236357   4.366   6.424   1.267
12138TIP3   OH236358   3.442   1.297   2.590
12138TIP3    H136359   3.533   1.269   2.590
12138TIP3    H236360   3.417   1.296   2.683
12139TIP3   OH236361   0.982   5.307   5.299
12139TIP3    H136362   1.009   5.394   5.328
12139TIP3    H236363   1.058   5.272   5.253
12140TIP3   OH236364   2.341   5.439   1.220
12140TIP3    H136365   2.375   5.518   1.177
12140TIP3    H236366   2.394   5.431   1.299
12141TIP3   OH236367   0.308   3.147   3.858
12141TIP3    H136368   0.340   3.229   3.822
12141TIP3    H236369   0.353   3.138   3.942
12142TIP3   OH236370   3.827   5.709   0.360
12142TIP3    H136371   3.867   5.635   0.316
12142TIP3    H236372   3.882   5.784   0.337
12143TIP3   OH236373   6.878   6.744   3.533
12143TIP3    H136374   6.895   6.680   3.603
12143TIP3    H236375   6.861   6.691   3.456
12144TIP3   OH236376   0.461   0.291   6.265
12144TIP3    H136377   0.469   0.361   6.200
12144TIP3    H236378   0.400   0.325   6.330
12145TIP3   OH236379   5.488   2.232   4.338
12145TIP3    H136380   5.442   2.255   4.418
12145TIP3    H236381   5.580   2.224   4.364
12146TIP3   OH236382   6.100   7.496   6.031
12146TIP3    H136383   6.081   7.563   5.965
12146TIP3    H236384   6.026   7.499   6.091
12147TIP3   OH236385   3.663   2.387   3.411
12147TIP3    H136386   3.630   2.354   3.328
12147TIP3    H236387   3.585   2.402   3.464
12148TIP3   OH236388   0.641   4.402   0.857
12148TIP3    H136389   0.577   4.453   0.907
12148TIP3    H236390   0.676   4.339   0.921
12149TIP3   OH236391   7.474   5.337   2.315
12149TIP3    H136392   7.461   5.256   2.267
12149TIP3    H236393   7.545   5.318   2.376
12150TIP3   OH236394   6.783   4.816   1.850
12150TIP3    H136395   6.714   4.850   1.908
12150TIP3    H236396   6.783   4.722   1.865
12151TIP3   OH236397   4.439   1.847   5.327
12151TIP3    H136398   4.358   1.801   5.347
12151TIP3    H236399   4.432   1.868   5.234
12152TIP3   OH236400   1.887   5.616   5.352
12152TIP3    H136401   1.895   5.578   5.440
12152TIP3    H236402   1.794   5.636   5.344
12153TIP3   OH236403   6.411   6.728   2.174
12153TIP3    H136404   6.452   6.642   2.180
12153TIP3    H236405   6.331   6.721   2.226
12154TIP3   OH236406   5.099   6.634   5.860
12154TIP3    H136407   5.014   6.666   5.890
12154TIP3    H236408   5.078   6.560   5.803
12155TIP3   OH236409   4.469   7.268   2.313
12155TIP3    H136410   4.446   7.328   2.384
12155TIP3    H236411   4.390   7.264   2.259
12156TIP3   OH236412   1.860   4.098   6.750
12156TIP3    H136413   1.778   4.136   6.782
12156TIP3    H236414   1.871   4.018   6.802
12157TIP3   OH236415   0.217   6.343   6.065
12157TIP3    H136416   0.215   6.414   6.129
12157TIP3    H236417   0.213   6.387   5.980
12158TIP3   OH236418   2.432   1.426   0.635
12158TIP3    H136419   2.405   1.351   0.690
12158TIP3    H236420   2.368   1.427   0.564
12159TIP3   OH236421   0.829   2.610   0.405
12159TIP3    H136422   0.851   2.629   0.496
12159TIP3    H236423   0.734   2.607   0.403
12160TIP3   OH236424   2.178   5.647   2.631
12160TIP3    H136425   2.170   5.558   2.665
12160TIP3    H236426   2.173   5.637   2.536
12161TIP3   OH236427   3.092   2.006   4.801
12161TIP3    H136428   3.016   2.052   4.766
12161TIP3    H236429   3.079   2.009   4.896
12162TIP3   OH236430   5.655   4.480   5.514
12162TIP3    H136431   5.634   4.497   5.422
12162TIP3    H236432   5.625   4.558   5.560
12163TIP3   OH236433   4.309   5.076   4.732
12163TIP3    H136434   4.373   5.005   4.742
12163TIP3    H236435   4.254   5.049   4.659
12164TIP3   OH236436   7.169   1.511   4.990
12164TIP3    H136437   7.122   1.438   5.030
12164TIP3    H236438   7.257   1.507   5.029
12165TIP3   OH236439   8.095   7.393   3.618
12165TIP3    H136440   8.189   7.408   3.614
12165TIP3    H236441   8.065   7.452   3.687
12166TIP3   OH236442   4.749   6.019   0.337
12166TIP3    H136443   4.687   6.080   0.378
12166TIP3    H236444   4.832   6.067   0.334
12167TIP3   OH236445   3.743   3.583   3.391
12167TIP3    H136446   3.818   3.568   3.333
12167TIP3    H236447   3.776   3.644   3.457
12168TIP3   OH236448   0.171   2.412   5.184
12168TIP3    H136449   0.256   2.445   5.157
12168TIP3    H236450   0.192   2.343   5.248
12169TIP3   OH236451   0.464   4.428   1.676
12169TIP3    H136452   0.437   4.508   1.630
12169TIP3    H236453   0.525   4.458   1.743
12170TIP3   OH236454   7.176   0.819   1.502
12170TIP3    H136455   7.211   0.869   1.428
12170TIP3    H236456   7.253   0.776   1.540
12171TIP3   OH236457   5.210   4.272   2.575
12171TIP3    H136458   5.267   4.318   2.637
12171TIP3    H236459   5.139   4.237   2.629
12172TIP3   OH236460   1.741   2.208   0.367
12172TIP3    H136461   1.687   2.181   0.441
12172TIP3    H236462   1.761   2.127   0.321
12173TIP3   OH236463   1.121   2.972   1.309
12173TIP3    H136464   1.068   3.051   1.323
12173TIP3    H236465   1.080   2.906   1.363
12174TIP3   OH236466   7.430   5.896   3.142
12174TIP3    H136467   7.445   5.849   3.224
12174TIP3    H236468   7.339   5.876   3.119
12175TIP3   OH236469   5.754   4.953   4.530
12175TIP3    H136470   5.765   4.969   4.624
12175TIP3    H236471   5.840   4.972   4.493
12176TIP3   OH236472   3.905   2.081   4.076
12176TIP3    H136473   3.929   2.172   4.091
12176TIP3    H236474   3.909   2.071   3.980
12177TIP3   OH236475   1.379   3.006   1.399
12177TIP3    H136476   1.311   2.978   1.338
12177TIP3    H236477   1.339   3.078   1.448
12178TIP3   OH236478   6.384   3.025   5.144
12178TIP3    H136479   6.414   3.106   5.103
12178TIP3    H236480   6.461   2.991   5.189
12179TIP3   OH236481   7.599   0.043   6.266
12179TIP3    H136482   7.518   0.011   6.227
12179TIP3    H236483   7.625  -0.025   6.328
12180TIP3   OH236484   7.177   0.577   3.837
12180TIP3    H136485   7.221   0.611   3.760
12180TIP3    H236486   7.107   0.640   3.855
12181TIP3   OH236487   4.485   6.669   1.603
12181TIP3    H136488   4.485   6.618   1.522
12181TIP3    H236489   4.570   6.712   1.605
12182TIP3   OH236490   0.306   5.869   0.692
12182TIP3    H136491   0.315   5.919   0.610
12182TIP3    H236492   0.382   5.895   0.744
12183TIP3   OH236493   5.904   0.352   1.828
12183TIP3    H136494   5.995   0.324   1.836
12183TIP3    H236495   5.909   0.434   1.780
12184TIP3   OH236496   5.432   4.612   6.013
12184TIP3    H136497   5.508   4.661   6.044
12184TIP3    H236498   5.469   4.534   5.972
12185TIP3   OH236499   1.789   7.106   4.524
12185TIP3    H136500   1.694   7.107   4.536
12185TIP3    H236501   1.824   7.077   4.608
12186TIP3   OH236502   8.064   2.460   4.876
12186TIP3    H136503   8.126   2.420   4.937
12186TIP3    H236504   7.998   2.501   4.932
12187TIP3   OH236505   4.392   6.391   2.093
12187TIP3    H136506   4.453   6.443   2.040
12187TIP3    H236507   4.363   6.321   2.035
12188TIP3   OH236508   4.369   6.225   0.825
12188TIP3    H136509   4.374   6.142   0.871
12188TIP3    H236510   4.417   6.210   0.743
12189TIP3   OH236511   6.251   5.281   4.465
12189TIP3    H136512   6.321   5.342   4.443
12189TIP3    H236513   6.235   5.293   4.558
12190TIP3   OH236514   5.656   2.499   1.777
12190TIP3    H136515   5.743   2.474   1.745
12190TIP3    H236516   5.673   2.548   1.857
12191TIP3   OH236517   5.458   0.463   3.016
12191TIP3    H136518   5.411   0.439   2.937
12191TIP3    H236519   5.391   0.466   3.084
12192TIP3   OH236520   5.214   0.567   3.665
12192TIP3    H136521   5.310   0.570   3.670
12192TIP3    H236522   5.184   0.588   3.753
12193TIP3   OH236523   6.978   3.236   4.762
12193TIP3    H136524   6.932   3.221   4.679
12193TIP3    H236525   7.051   3.293   4.740
12194TIP3   OH236526   3.380   1.183   5.857
12194TIP3    H136527   3.357   1.136   5.937
12194TIP3    H236528   3.315   1.155   5.793
12195TIP3   OH236529   3.942   4.210   0.866
12195TIP3    H136530   3.964   4.248   0.781
12195TIP3    H236531   3.993   4.262   0.929
12196TIP3   OH236532   3.472   7.384   1.416
12196TIP3    H136533   3.550   7.438   1.424
12196TIP3    H236534   3.483   7.314   1.480
12197TIP3   OH236535   6.936   2.905   3.869
12197TIP3    H136536   6.993   2.982   3.871
12197TIP3    H236537   6.848   2.940   3.856
12198TIP3   OH236538   0.367   7.379   0.436
12198TIP3    H136539   0.380   7.299   0.385
12198TIP3    H236540   0.310   7.433   0.380
12199TIP3   OH236541   5.376   6.496   2.039
12199TIP3    H136542   5.417   6.576   2.072
12199TIP3    H236543   5.282   6.514   2.043
12200TIP3   OH236544   4.601   4.004   3.679
12200TIP3    H136545   4.513   3.982   3.649
12200TIP3    H236546   4.592   4.021   3.772
12201TIP3   OH236547   5.226   2.642   1.650
12201TIP3    H136548   5.289   2.571   1.661
12201TIP3    H236549   5.276   2.722   1.664
12202TIP3   OH236550   7.345   3.103   4.552
12202TIP3    H136551   7.378   3.018   4.525
12202TIP3    H236552   7.340   3.098   4.647
12203TIP3   OH236553   7.148   4.138   2.345
12203TIP3    H136554   7.194   4.157   2.263
12203TIP3    H236555   7.072   4.197   2.345
12204TIP3   OH236556   8.027   5.711   1.468
12204TIP3    H136557   7.934   5.692   1.453
12204TIP3    H236558   8.059   5.635   1.517
12205TIP3   OH236559   7.970   4.952   6.271
12205TIP3    H136560   7.993   4.957   6.364
12205TIP3    H236561   7.889   5.002   6.264
12206TIP3   OH236562   2.138   7.477   2.318
12206TIP3    H136563   2.215   7.530   2.299
12206TIP3    H236564   2.117   7.497   2.410
12207TIP3   OH236565   7.576   7.221   4.337
12207TIP3    H136566   7.621   7.241   4.255
12207TIP3    H236567   7.639   7.170   4.387
12208TIP3   OH236568   1.015   3.221   1.931
12208TIP3    H136569   0.934   3.232   1.981
12208TIP3    H236570   1.084   3.247   1.992
12209TIP3   OH236571   1.960   7.531   5.959
12209TIP3    H136572   1.952   7.439   5.935
12209TIP3    H236573   1.974   7.530   6.053
12210TIP3   OH236574   6.128   5.900   0.770
12210TIP3    H136575   6.105   5.921   0.861
12210TIP3    H236576   6.096   5.974   0.719
12211TIP3   OH236577   4.922   1.829   5.581
12211TIP3    H136578   4.926   1.733   5.575
12211TIP3    H236579   5.013   1.857   5.572
12212TIP3   OH236580   3.901   7.510   2.663
12212TIP3    H136581   3.970   7.500   2.597
12212TIP3    H236582   3.830   7.555   2.618
12213TIP3   OH236583   6.028   0.404   4.509
12213TIP3    H136584   6.103   0.432   4.457
12213TIP3    H236585   6.015   0.312   4.486
12214TIP3   OH236586   1.137   4.554   1.883
12214TIP3    H136587   1.049   4.586   1.861
12214TIP3    H236588   1.163   4.503   1.806
12215TIP3   OH236589   7.097   5.508   2.145
12215TIP3    H136590   7.111   5.414   2.133
12215TIP3    H236591   7.182   5.541   2.175
12216TIP3   OH236592   2.461   2.759   1.136
12216TIP3    H136593   2.508   2.745   1.218
12216TIP3    H236594   2.381   2.805   1.161
12217TIP3   OH236595   3.507   0.711   3.553
12217TIP3    H136596   3.428   0.695   3.605
12217TIP3    H236597   3.568   0.752   3.614
12218TIP3   OH236598   4.389   3.529   5.435
12218TIP3    H136599   4.445   3.551   5.509
12218TIP3    H236600   4.309   3.495   5.474
12219TIP3   OH236601   0.647   2.562   3.046
12219TIP3    H136602   0.726   2.566   2.993
12219TIP3    H236603   0.625   2.468   3.049
12220TIP3   OH236604   0.655   4.962   5.558
12220TIP3    H136605   0.689   5.019   5.490
12220TIP3    H236606   0.654   5.016   5.637
12221TIP3   OH236607   5.505   0.151   5.857
12221TIP3    H136608   5.592   0.144   5.820
12221TIP3    H236609   5.461   0.070   5.832
12222TIP3   OH236610   4.821   5.569   0.729
12222TIP3    H136611   4.746   5.603   0.680
12222TIP3    H236612   4.814   5.610   0.815
12223TIP3   OH236613   1.550   2.313   5.413
12223TIP3    H136614   1.546   2.306   5.318
12223TIP3    H236615   1.627   2.261   5.438
12224TIP3   OH236616   1.802   3.059   5.158
12224TIP3    H136617   1.821   3.026   5.071
12224TIP3    H236618   1.840   3.146   5.161
12225TIP3   OH236619   7.974   4.957   3.426
12225TIP3    H136620   7.980   4.903   3.505
12225TIP3    H236621   7.934   5.039   3.456
12226TIP3   OH236622   6.450   2.616   1.506
12226TIP3    H136623   6.481   2.683   1.445
12226TIP3    H236624   6.488   2.642   1.590
12227TIP3   OH236625   5.449   4.690   0.547
12227TIP3    H136626   5.538   4.725   0.548
12227TIP3    H236627   5.444   4.637   0.468
12228TIP3   OH236628   1.197   3.477   2.854
12228TIP3    H136629   1.292   3.465   2.862
12228TIP3    H236630   1.185   3.517   2.768
12229TIP3   OH236631   4.827   6.990   6.726
12229TIP3    H136632   4.849   6.924   6.661
12229TIP3    H236633   4.781   7.058   6.677
12230TIP3   OH236634   2.769   1.943   1.681
12230TIP3    H136635   2.743   2.028   1.715
12230TIP3    H236636   2.865   1.946   1.681
12231TIP3   OH236637   6.670   5.406   4.551
12231TIP3    H136638   6.708   5.440   4.632
12231TIP3    H236639   6.744   5.397   4.492
12232TIP3   OH236640   0.399   5.008   4.568
12232TIP3    H136641   0.359   4.921   4.564
12232TIP3    H236642   0.390   5.042   4.479
12233TIP3   OH236643   1.831   7.036   3.229
12233TIP3    H136644   1.903   7.056   3.170
12233TIP3    H236645   1.844   6.943   3.252
12234TIP3   OH236646   1.131   1.532   0.063
12234TIP3    H136647   1.184   1.582   0.125
12234TIP3    H236648   1.061   1.494   0.116
12235TIP3   OH236649   3.780   5.641   5.991
12235TIP3    H136650   3.755   5.567   6.047
12235TIP3    H236651   3.738   5.717   6.031
12236TIP3   OH236652   0.642   3.222   3.344
12236TIP3    H136653   0.686   3.307   3.335
12236TIP3    H236654   0.701   3.160   3.301
12237TIP3   OH236655   7.537   1.140   4.076
12237TIP3    H136656   7.444   1.165   4.074
12237TIP3    H236657   7.535   1.044   4.078
12238TIP3   OH236658   6.652   4.261   4.185
12238TIP3    H136659   6.710   4.337   4.183
12238TIP3    H236660   6.700   4.195   4.236
12239TIP3   OH236661   1.698   6.916   0.544
12239TIP3    H136662   1.749   6.965   0.479
12239TIP3    H236663   1.617   6.894   0.499
12240TIP3   OH236664   5.352   5.865   5.493
12240TIP3    H136665   5.427   5.863   5.553
12240TIP3    H236666   5.291   5.928   5.533
12241TIP3   OH236667   5.148   0.225   3.868
12241TIP3    H136668   5.140   0.263   3.956
12241TIP3    H236669   5.241   0.209   3.857
12242TIP3   OH236670   5.938   7.508   6.724
12242TIP3    H136671   5.894   7.574   6.777
12242TIP3    H236672   6.019   7.551   6.695
12243TIP3   OH236673   6.023   7.277   5.580
12243TIP3    H136674   5.945   7.330   5.563
12243TIP3    H236675   6.017   7.254   5.673
12244TIP3   OH236676   0.302   2.426   0.057
12244TIP3    H136677   0.346   2.508   0.035
12244TIP3    H236678   0.219   2.430   0.010
12245TIP3   OH236679   8.162   4.860   3.218
12245TIP3    H136680   8.101   4.798   3.178
12245TIP3    H236681   8.111   4.903   3.287
12246TIP3   OH236682   5.792   4.861   5.150
12246TIP3    H136683   5.724   4.859   5.083
12246TIP3    H236684   5.813   4.768   5.166
12247TIP3   OH236685   5.011   0.338   0.419
12247TIP3    H136686   4.944   0.348   0.486
12247TIP3    H236687   4.967   0.293   0.347
12248TIP3   OH236688   5.550   0.704   1.086
12248TIP3    H136689   5.623   0.765   1.076
12248TIP3    H236690   5.591   0.617   1.080
12249TIP3   OH236691   2.563   2.793   6.435
12249TIP3    H136692   2.595   2.704   6.445
12249TIP3    H236693   2.573   2.813   6.342
12250TIP3   OH236694   6.861   0.546   1.754
12250TIP3    H136695   6.860   0.634   1.792
12250TIP3    H236696   6.892   0.490   1.825
12251TIP3   OH236697   7.793   1.566   1.424
12251TIP3    H136698   7.710   1.610   1.443
12251TIP3    H236699   7.815   1.521   1.505
12252TIP3   OH236700   1.723   7.845   2.840
12252TIP3    H136701   1.749   7.767   2.790
12252TIP3    H236702   1.695   7.908   2.773
12253TIP3   OH236703   2.218   4.242   2.382
12253TIP3    H136704   2.272   4.191   2.322
12253TIP3    H236705   2.280   4.294   2.433
12254TIP3   OH236706   6.721   2.504   0.222
12254TIP3    H136707   6.714   2.421   0.175
12254TIP3    H236708   6.630   2.526   0.244
12255TIP3   OH236709   3.806   6.454   0.477
12255TIP3    H136710   3.848   6.369   0.462
12255TIP3    H236711   3.791   6.489   0.389
12256TIP3   OH236712   0.112   7.751   6.113
12256TIP3    H136713   0.150   7.804   6.183
12256TIP3    H236714   0.019   7.749   6.132
12257TIP3   OH236715   7.892   1.407   5.765
12257TIP3    H136716   7.928   1.456   5.691
12257TIP3    H236717   7.813   1.454   5.789
12258TIP3   OH236718   5.305   7.466   4.295
12258TIP3    H136719   5.241   7.424   4.238
12258TIP3    H236720   5.343   7.394   4.346
12259TIP3   OH236721   5.211   6.671   4.302
12259TIP3    H136722   5.191   6.705   4.215
12259TIP3    H236723   5.281   6.728   4.335
12260TIP3   OH236724   6.514   0.760   0.889
12260TIP3    H136725   6.605   0.792   0.886
12260TIP3    H236726   6.521   0.671   0.923
12261TIP3   OH236727   0.683   2.618   6.505
12261TIP3    H136728   0.671   2.712   6.517
12261TIP3    H236729   0.773   2.601   6.532
12262TIP3   OH236730   2.311   1.966   0.908
12262TIP3    H136731   2.227   1.920   0.912
12262TIP3    H236732   2.377   1.897   0.898
12263TIP3   OH236733   5.118   3.160   1.475
12263TIP3    H136734   5.093   3.073   1.505
12263TIP3    H236735   5.108   3.155   1.379
12264TIP3   OH236736   3.983   4.275   5.566
12264TIP3    H136737   3.900   4.228   5.568
12264TIP3    H236738   3.980   4.327   5.486
12265TIP3   OH236739   5.133   7.296   4.592
12265TIP3    H136740   5.044   7.301   4.557
12265TIP3    H236741   5.126   7.325   4.682
12266TIP3   OH236742   3.760   6.785   3.537
12266TIP3    H136743   3.842   6.776   3.584
12266TIP3    H236744   3.707   6.710   3.564
12267TIP3   OH236745   3.756   2.850   0.515
12267TIP3    H136746   3.678   2.869   0.568
12267TIP3    H236747   3.725   2.847   0.425
12268TIP3   OH236748   0.994   7.254   3.004
12268TIP3    H136749   0.906   7.292   3.001
12268TIP3    H236750   1.022   7.266   3.095
12269TIP3   OH236751   5.342   3.898   3.457
12269TIP3    H136752   5.395   3.895   3.537
12269TIP3    H236753   5.312   3.988   3.452
12270TIP3   OH236754   0.157   5.881   0.248
12270TIP3    H136755   0.085   5.832   0.207
12270TIP3    H236756   0.114   5.951   0.297
12271TIP3   OH236757   0.366   3.758   3.932
12271TIP3    H136758   0.355   3.851   3.952
12271TIP3    H236759   0.312   3.713   3.996
12272TIP3   OH236760   6.388   6.848   4.675
12272TIP3    H136761   6.397   6.940   4.700
12272TIP3    H236762   6.299   6.841   4.641
12273TIP3   OH236763   0.808   0.671   0.673
12273TIP3    H136764   0.804   0.581   0.641
12273TIP3    H236765   0.768   0.668   0.760
12274TIP3   OH236766   5.057   0.281   4.776
12274TIP3    H136767   5.148   0.304   4.758
12274TIP3    H236768   5.059   0.242   4.863
12275TIP3   OH236769   5.738   1.160   5.618
12275TIP3    H136770   5.775   1.147   5.705
12275TIP3    H236771   5.812   1.187   5.564
12276TIP3   OH236772   4.111   0.880   5.606
12276TIP3    H136773   4.176   0.832   5.658
12276TIP3    H236774   4.141   0.870   5.516
12277TIP3   OH236775   0.033   0.150   0.242
12277TIP3    H136776   0.023   0.245   0.235
12277TIP3    H236777   0.013   0.117   0.155
12278TIP3   OH236778   3.475   7.187   2.946
12278TIP3    H136779   3.461   7.092   2.941
12278TIP3    H236780   3.396   7.225   2.906
12279TIP3   OH236781   4.843   7.680   0.618
12279TIP3    H136782   4.933   7.675   0.587
12279TIP3    H236783   4.844   7.639   0.704
12280TIP3   OH236784   8.265   4.334   3.898
12280TIP3    H136785   8.337   4.372   3.947
12280TIP3    H236786   8.188   4.385   3.924
12281TIP3   OH236787   0.522   1.009   1.624
12281TIP3    H136788   0.506   0.936   1.683
12281TIP3    H236789   0.612   1.036   1.644
12282TIP3   OH236790   5.992   6.868   3.145
12282TIP3    H136791   6.028   6.895   3.060
12282TIP3    H236792   5.931   6.796   3.123
12283TIP3   OH236793   3.822   3.061   1.821
12283TIP3    H136794   3.803   2.990   1.760
12283TIP3    H236795   3.738   3.105   1.834
12284TIP3   OH236796   5.194   0.290   2.466
12284TIP3    H136797   5.240   0.370   2.492
12284TIP3    H236798   5.117   0.321   2.418
12285TIP3   OH236799   6.567   6.424   4.273
12285TIP3    H136800   6.608   6.374   4.343
12285TIP3    H236801   6.479   6.388   4.265
12286TIP3   OH236802   6.830   4.519   3.945
12286TIP3    H136803   6.736   4.534   3.938
12286TIP3    H236804   6.865   4.543   3.860
12287TIP3   OH236805   3.414   2.207   1.515
12287TIP3    H136806   3.459   2.235   1.436
12287TIP3    H236807   3.483   2.169   1.570
12288TIP3   OH236808   2.537   4.179   4.226
12288TIP3    H136809   2.463   4.153   4.171
12288TIP3    H236810   2.498   4.203   4.309
12289TIP3   OH236811   3.536   2.774   1.333
12289TIP3    H136812   3.581   2.837   1.390
12289TIP3    H236813   3.518   2.699   1.390
12290TIP3   OH236814   2.796   5.162   1.343
12290TIP3    H136815   2.731   5.132   1.406
12290TIP3    H236816   2.784   5.257   1.338
12291TIP3   OH236817   6.311   5.491   1.616
12291TIP3    H136818   6.284   5.582   1.608
12291TIP3    H236819   6.263   5.458   1.692
12292TIP3   OH236820   6.175   2.987   1.508
12292TIP3    H136821   6.265   3.014   1.526
12292TIP3    H236822   6.176   2.961   1.416
12293TIP3   OH236823   5.668   4.727   1.288
12293TIP3    H136824   5.601   4.705   1.223
12293TIP3    H236825   5.678   4.821   1.281
12294TIP3   OH236826   7.014   7.576   0.625
12294TIP3    H136827   7.082   7.573   0.558
12294TIP3    H236828   7.031   7.499   0.680
12295TIP3   OH236829   7.784   7.121   6.468
12295TIP3    H136830   7.808   7.044   6.418
12295TIP3    H236831   7.785   7.193   6.404
12296TIP3   OH236832   5.954   1.419   4.101
12296TIP3    H136833   5.926   1.440   4.191
12296TIP3    H236834   5.992   1.500   4.068
12297TIP3   OH236835   4.657   7.060   4.321
12297TIP3    H136836   4.653   6.968   4.347
12297TIP3    H236837   4.570   7.079   4.285
12298TIP3   OH236838   4.907   5.630   4.209
12298TIP3    H136839   4.859   5.682   4.146
12298TIP3    H236840   4.997   5.662   4.203
12299TIP3   OH236841   6.318   0.267   1.442
12299TIP3    H136842   6.239   0.269   1.496
12299TIP3    H236843   6.346   0.358   1.437
12300TIP3   OH236844   3.892   5.026   3.867
12300TIP3    H136845   3.985   5.007   3.871
12300TIP3    H236846   3.850   4.952   3.912
12301TIP3   OH236847   7.661   5.339   0.558
12301TIP3    H136848   7.684   5.318   0.649
12301TIP3    H236849   7.687   5.262   0.508
12302TIP3   OH236850   3.284   4.044   1.879
12302TIP3    H136851   3.202   4.093   1.867
12302TIP3    H236852   3.257   3.953   1.884
12303TIP3   OH236853   3.454   4.363   5.615
12303TIP3    H136854   3.420   4.432   5.672
12303TIP3    H236855   3.453   4.284   5.669
12304TIP3   OH236856   7.987   5.691   0.068
12304TIP3    H136857   7.948   5.671   0.154
12304TIP3    H236858   7.921   5.662   0.005
12305TIP3   OH236859   0.862   2.669   4.167
12305TIP3    H136860   0.771   2.691   4.190
12305TIP3    H236861   0.915   2.731   4.218
12306TIP3   OH236862   3.935   3.751   1.024
12306TIP3    H136863   3.904   3.805   1.097
12306TIP3    H236864   3.917   3.803   0.946
12307TIP3   OH236865   7.368   4.250   4.408
12307TIP3    H136866   7.393   4.161   4.384
12307TIP3    H236867   7.303   4.238   4.478
12308TIP3   OH236868   1.739   2.300   4.358
12308TIP3    H136869   1.698   2.218   4.331
12308TIP3    H236870   1.800   2.274   4.427
12309TIP3   OH236871   5.964   1.569   3.002
12309TIP3    H136872   6.018   1.563   2.924
12309TIP3    H236873   6.018   1.532   3.072
12310TIP3   OH236874   5.095   5.284   4.886
12310TIP3    H136875   5.054   5.370   4.892
12310TIP3    H236876   5.188   5.302   4.876
12311TIP3   OH236877   7.145   1.754   1.108
12311TIP3    H136878   7.221   1.812   1.113
12311TIP3    H236879   7.073   1.804   1.145
12312TIP3   OH236880   7.612   1.422   6.210
12312TIP3    H136881   7.598   1.515   6.191
12312TIP3    H236882   7.707   1.411   6.212
12313TIP3   OH236883   2.626   2.482   1.676
12313TIP3    H136884   2.646   2.499   1.768
12313TIP3    H236885   2.709   2.496   1.630
12314TIP3   OH236886   1.530   6.331   3.848
12314TIP3    H136887   1.608   6.379   3.819
12314TIP3    H236888   1.516   6.360   3.938
12315TIP3   OH236889   4.385   0.788   0.571
12315TIP3    H136890   4.364   0.875   0.535
12315TIP3    H236891   4.433   0.744   0.501
12316TIP3   OH236892   7.428   6.243   2.545
12316TIP3    H136893   7.488   6.201   2.484
12316TIP3    H236894   7.413   6.177   2.613
12317TIP3   OH236895   1.151   3.108   6.282
12317TIP3    H136896   1.155   3.036   6.345
12317TIP3    H236897   1.241   3.117   6.250
12318TIP3   OH236898   5.115   6.900   0.941
12318TIP3    H136899   5.183   6.948   0.893
12318TIP3    H236900   5.050   6.967   0.963
12319TIP3   OH236901   2.683   2.578   0.169
12319TIP3    H136902   2.754   2.519   0.194
12319TIP3    H236903   2.630   2.527   0.108
12320TIP3   OH236904   5.821   2.646   4.970
12320TIP3    H136905   5.783   2.575   5.020
12320TIP3    H236906   5.795   2.726   5.017
12321TIP3   OH236907   8.036   6.720   3.199
12321TIP3    H136908   7.972   6.705   3.268
12321TIP3    H236909   8.039   6.815   3.189
12322TIP3   OH236910   3.281   6.313   3.025
12322TIP3    H136911   3.253   6.271   3.106
12322TIP3    H236912   3.217   6.283   2.959
12323TIP3   OH236913   5.140   5.268   6.001
12323TIP3    H136914   5.162   5.361   5.996
12323TIP3    H236915   5.219   5.226   6.036
12324TIP3   OH236916   3.300   1.919   5.199
12324TIP3    H136917   3.209   1.902   5.174
12324TIP3    H236918   3.319   2.005   5.162
12325TIP3   OH236919   6.805   7.094   4.192
12325TIP3    H136920   6.859   7.080   4.114
12325TIP3    H236921   6.836   7.177   4.228
12326TIP3   OH236922   7.669   4.187   4.242
12326TIP3    H136923   7.623   4.200   4.159
12326TIP3    H236924   7.754   4.229   4.229
12327TIP3   OH236925   7.376   4.020   4.776
12327TIP3    H136926   7.326   4.095   4.806
12327TIP3    H236927   7.441   4.005   4.845
12328TIP3   OH236928   2.622   4.438   5.776
12328TIP3    H136929   2.707   4.442   5.732
12328TIP3    H236930   2.636   4.377   5.848
12329TIP3   OH236931   4.284   5.795   6.002
12329TIP3    H136932   4.373   5.767   5.980
12329TIP3    H236933   4.282   5.888   5.982
12330TIP3   OH236934   1.372   7.640   2.889
12330TIP3    H136935   1.352   7.728   2.858
12330TIP3    H236936   1.304   7.585   2.850
12331TIP3   OH236937   0.030   2.304   2.166
12331TIP3    H136938  -0.029   2.270   2.233
12331TIP3    H236939   0.085   2.229   2.142
12332TIP3   OH236940   4.653   3.566   4.044
12332TIP3    H136941   4.595   3.642   4.050
12332TIP3    H236942   4.658   3.533   4.133
12333TIP3   OH236943   5.896   7.155   5.034
12333TIP3    H136944   5.988   7.170   5.056
12333TIP3    H236945   5.849   7.220   5.085
12334TIP3   OH236946   3.136   6.863   5.655
12334TIP3    H136947   3.219   6.911   5.648
12334TIP3    H236948   3.087   6.888   5.577
12335TIP3   OH236949   3.180   2.153   0.603
12335TIP3    H136950   3.242   2.152   0.530
12335TIP3    H236951   3.110   2.212   0.573
12336TIP3   OH236952   7.563   5.006   1.741
12336TIP3    H136953   7.632   4.941   1.757
12336TIP3    H236954   7.563   5.017   1.646
12337TIP3   OH236955   7.827   1.578   5.337
12337TIP3    H136956   7.789   1.661   5.306
12337TIP3    H236957   7.771   1.510   5.299
12338TIP3   OH236958   0.266   1.115   4.819
12338TIP3    H136959   0.309   1.056   4.881
12338TIP3    H236960   0.338   1.164   4.780
12339TIP3   OH236961   4.054   7.813   1.886
12339TIP3    H136962   4.124   7.842   1.828
12339TIP3    H236963   4.022   7.732   1.847
12340TIP3   OH236964   5.560   2.053   3.224
12340TIP3    H136965   5.626   2.069   3.157
12340TIP3    H236966   5.477   2.057   3.178
12341TIP3   OH236967   0.779   3.243   2.061
12341TIP3    H136968   0.797   3.219   2.152
12341TIP3    H236969   0.684   3.248   2.056
12342TIP3   OH236970   4.147   5.167   5.232
12342TIP3    H136971   4.217   5.144   5.171
12342TIP3    H236972   4.077   5.201   5.177
12343TIP3   OH236973   2.893   6.344   6.610
12343TIP3    H136974   2.815   6.395   6.589
12343TIP3    H236975   2.944   6.342   6.529
12344TIP3   OH236976   2.448   0.940   0.261
12344TIP3    H136977   2.423   0.993   0.338
12344TIP3    H236978   2.387   0.968   0.193
12345TIP3   OH236979   1.173   0.731   4.615
12345TIP3    H136980   1.237   0.719   4.685
12345TIP3    H236981   1.154   0.642   4.585
12346TIP3   OH236982   0.410   7.648   1.026
12346TIP3    H136983   0.475   7.597   1.075
12346TIP3    H236984   0.390   7.722   1.082
12347TIP3   OH236985   4.144   2.687   4.819
12347TIP3    H136986   4.205   2.745   4.864
12347TIP3    H236987   4.096   2.644   4.890
12348TIP3   OH236988   4.440   7.038   0.947
12348TIP3    H136989   4.502   6.965   0.957
12348TIP3    H236990   4.441   7.058   0.853
12349TIP3   OH236991   7.722   4.287   4.692
12349TIP3    H136992   7.728   4.352   4.623
12349TIP3    H236993   7.700   4.206   4.647
12350TIP3   OH236994   4.733   4.128   2.755
12350TIP3    H136995   4.692   4.215   2.757
12350TIP3    H236996   4.738   4.101   2.846
12351TIP3   OH236997   2.284   7.758   2.334
12351TIP3    H136998   2.195   7.738   2.362
12351TIP3    H236999   2.283   7.853   2.319
12352TIP3   OH237000   3.427   7.556   2.446
12352TIP3    H137001   3.340   7.518   2.438
12352TIP3    H237002   3.485   7.481   2.459
12353TIP3   OH237003   3.536   7.706   5.702
12353TIP3    H137004   3.585   7.632   5.738
12353TIP3    H237005   3.602   7.756   5.653
12354TIP3   OH237006   7.293   3.614   3.061
12354TIP3    H137007   7.352   3.602   3.136
12354TIP3    H237008   7.230   3.680   3.090
12355TIP3   OH237009   6.827   2.885   2.384
12355TIP3    H137010   6.918   2.860   2.367
12355TIP3    H237011   6.791   2.812   2.435
12356TIP3   OH237012   2.664   1.859   5.148
12356TIP3    H137013   2.600   1.927   5.169
12356TIP3    H237014   2.734   1.905   5.103
12357TIP3   OH237015   7.454   5.078   3.596
12357TIP3    H137016   7.483   5.154   3.544
12357TIP3    H237017   7.411   5.116   3.672
12358TIP3   OH237018   3.710   3.025   6.038
12358TIP3    H137019   3.757   3.104   6.066
12358TIP3    H237020   3.640   3.015   6.102
12359TIP3   OH237021   8.198   7.653   5.011
12359TIP3    H137022   8.289   7.683   5.019
12359TIP3    H237023   8.200   7.588   4.940
12360TIP3   OH237024   2.018   6.696   6.317
12360TIP3    H137025   2.069   6.710   6.397
12360TIP3    H237026   1.985   6.782   6.294
12361TIP3   OH237027   0.757   2.624   2.563
12361TIP3    H137028   0.699   2.691   2.527
12361TIP3    H237029   0.714   2.541   2.543
12362TIP3   OH237030   3.113   1.003   0.197
12362TIP3    H137031   3.113   0.983   0.291
12362TIP3    H237032   3.036   0.957   0.163
12363TIP3   OH237033   4.831   3.435   2.207
12363TIP3    H137034   4.822   3.422   2.302
12363TIP3    H237035   4.764   3.378   2.169
12364TIP3   OH237036   6.187   0.335   0.386
12364TIP3    H137037   6.177   0.251   0.341
12364TIP3    H237038   6.163   0.400   0.320
12365TIP3   OH237039   2.452   2.174   3.182
12365TIP3    H137040   2.378   2.139   3.132
12365TIP3    H237041   2.529   2.148   3.130
12366TIP3   OH237042   6.171   4.312   1.933
12366TIP3    H137043   6.110   4.384   1.916
12366TIP3    H237044   6.200   4.284   1.847
12367TIP3   OH237045   4.988   6.124   1.972
12367TIP3    H137046   4.936   6.150   2.048
12367TIP3    H237047   5.037   6.048   2.002
12368TIP3   OH237048   3.303   7.741   2.683
12368TIP3    H137049   3.221   7.693   2.696
12368TIP3    H237050   3.350   7.691   2.616
12369TIP3   OH237051   3.203   6.580   5.597
12369TIP3    H137052   3.144   6.565   5.522
12369TIP3    H237053   3.187   6.671   5.622
12370TIP3   OH237054   1.800   7.627   4.782
12370TIP3    H137055   1.721   7.644   4.833
12370TIP3    H237056   1.831   7.542   4.812
12371TIP3   OH237057   7.747   2.583   5.343
12371TIP3    H137058   7.826   2.563   5.292
12371TIP3    H237059   7.691   2.630   5.281
12372TIP3   OH237060   2.322   7.771   6.696
12372TIP3    H137061   2.298   7.776   6.788
12372TIP3    H237062   2.239   7.760   6.649
12373TIP3   OH237063   5.258   4.003   1.788
12373TIP3    H137064   5.316   4.063   1.741
12373TIP3    H237065   5.264   4.030   1.879
12374TIP3   OH237066   0.218   2.000   6.774
12374TIP3    H137067   0.291   2.058   6.751
12374TIP3    H237068   0.210   1.942   6.698
12375TIP3   OH237069   2.836   7.000   3.542
12375TIP3    H137070   2.810   7.039   3.625
12375TIP3    H237071   2.775   6.927   3.530
12376TIP3   OH237072   7.850   0.787   1.313
12376TIP3    H137073   7.896   0.870   1.304
12376TIP3    H237074   7.837   0.777   1.407
12377TIP3   OH237075   4.127   0.258   6.028
12377TIP3    H137076   4.203   0.314   6.043
12377TIP3    H237077   4.055   0.319   6.015
12378TIP3   OH237078   4.839   4.788   1.965
12378TIP3    H137079   4.760   4.735   1.977
12378TIP3    H237080   4.866   4.813   2.053
12379TIP3   OH237081   4.878   7.699   4.087
12379TIP3    H137082   4.936   7.742   4.150
12379TIP3    H237083   4.790   7.725   4.114
12380TIP3   OH237084   0.986   6.796   4.459
12380TIP3    H137085   0.978   6.701   4.448
12380TIP3    H237086   0.993   6.830   4.370
12381TIP3   OH237087   1.969   3.157   1.704
12381TIP3    H137088   1.976   3.110   1.787
12381TIP3    H237089   1.876   3.158   1.683
12382TIP3   OH237090   4.771   2.693   4.304
12382TIP3    H137091   4.747   2.759   4.369
12382TIP3    H237092   4.732   2.612   4.336
12383TIP3   OH237093   2.594   0.266   3.101
12383TIP3    H137094   2.619   0.233   3.015
12383TIP3    H237095   2.607   0.360   3.096
12384TIP3   OH237096   4.506   4.833   5.830
12384TIP3    H137097   4.479   4.765   5.768
12384TIP3    H237098   4.434   4.837   5.893
12385TIP3   OH237099   3.593   3.044   5.780
12385TIP3    H137100   3.511   2.996   5.770
12385TIP3    H237101   3.625   3.018   5.867
12386TIP3   OH237102   7.174   5.345   1.525
12386TIP3    H137103   7.178   5.344   1.430
12386TIP3    H237104   7.245   5.287   1.553
12387TIP3   OH237105   0.964   1.457   4.278
12387TIP3    H137106   0.886   1.450   4.224
12387TIP3    H237107   0.932   1.449   4.368
12388TIP3   OH237108   1.207   2.218   6.455
12388TIP3    H137109   1.210   2.156   6.528
12388TIP3    H237110   1.272   2.184   6.393
12389TIP3   OH237111   6.044   6.204   3.247
12389TIP3    H137112   6.123   6.161   3.278
12389TIP3    H237113   6.073   6.291   3.219
12390TIP3   OH237114   5.200   6.755   3.204
12390TIP3    H137115   5.205   6.845   3.236
12390TIP3    H237116   5.127   6.717   3.253
12391TIP3   OH237117   0.235   1.362   2.361
12391TIP3    H137118   0.147   1.398   2.348
12391TIP3    H237119   0.226   1.301   2.434
12392TIP3   OH237120   5.125   0.663   3.417
12392TIP3    H137121   5.149   0.595   3.481
12392TIP3    H237122   5.151   0.745   3.458
12393TIP3   OH237123   6.462   4.401   4.510
12393TIP3    H137124   6.425   4.378   4.596
12393TIP3    H237125   6.479   4.495   4.515
12394TIP3   OH237126   6.964   1.197   0.816
12394TIP3    H137127   6.956   1.213   0.910
12394TIP3    H237128   6.997   1.107   0.810
12395TIP3   OH237129   2.524   3.239   0.391
12395TIP3    H137130   2.523   3.183   0.314
12395TIP3    H237131   2.510   3.327   0.357
12396TIP3   OH237132   0.206   3.426   4.834
12396TIP3    H137133   0.172   3.358   4.775
12396TIP3    H237134   0.252   3.377   4.902
12397TIP3   OH237135   1.481   3.122   1.152
12397TIP3    H137136   1.437   3.204   1.175
12397TIP3    H237137   1.478   3.070   1.232
12398TIP3   OH237138   5.140   5.561   5.967
12398TIP3    H137139   5.112   5.649   5.990
12398TIP3    H237140   5.212   5.573   5.906
12399TIP3   OH237141   0.867   6.088   2.637
12399TIP3    H137142   0.929   6.018   2.659
12399TIP3    H237143   0.907   6.131   2.561
12400TIP3   OH237144   0.845   6.589   2.340
12400TIP3    H137145   0.771   6.643   2.313
12400TIP3    H237146   0.820   6.500   2.318
12401TIP3   OH237147   8.258   0.099   3.024
12401TIP3    H137148   8.297   0.015   3.002
12401TIP3    H237149   8.168   0.077   3.049
12402TIP3   OH237150   6.195   6.125   4.917
12402TIP3    H137151   6.269   6.185   4.903
12402TIP3    H237152   6.235   6.046   4.953
12403TIP3   OH237153   1.759   1.703   6.183
12403TIP3    H137154   1.807   1.678   6.103
12403TIP3    H237155   1.678   1.652   6.180
12404TIP3   OH237156   6.223   3.538   1.182
12404TIP3    H137157   6.296   3.475   1.176
12404TIP3    H237158   6.206   3.546   1.275
12405TIP3   OH237159   4.472   2.135   6.480
12405TIP3    H137160   4.565   2.113   6.469
12405TIP3    H237161   4.442   2.155   6.391
12406TIP3   OH237162   1.907   6.183   2.025
12406TIP3    H137163   1.993   6.221   2.006
12406TIP3    H237164   1.908   6.098   1.981
12407TIP3   OH237165   1.657   5.987   4.283
12407TIP3    H137166   1.610   6.032   4.213
12407TIP3    H237167   1.655   5.895   4.258
12408TIP3   OH237168   3.694   4.430   1.087
12408TIP3    H137169   3.756   4.487   1.041
12408TIP3    H237170   3.737   4.411   1.171
12409TIP3   OH237171  -0.021   0.453   5.873
12409TIP3    H137172   0.031   0.484   5.947
12409TIP3    H237173  -0.050   0.365   5.899
12410TIP3   OH237174   2.450   6.150   0.477
12410TIP3    H137175   2.413   6.183   0.559
12410TIP3    H237176   2.539   6.124   0.500
12411TIP3   OH237177   5.298   4.267   0.549
12411TIP3    H137178   5.340   4.191   0.590
12411TIP3    H237179   5.348   4.342   0.581
12412TIP3   OH237180   0.501   7.466   4.192
12412TIP3    H137181   0.551   7.507   4.121
12412TIP3    H237182   0.532   7.375   4.193
12413TIP3   OH237183   2.103   0.446   5.434
12413TIP3    H137184   2.123   0.355   5.415
12413TIP3    H237185   2.122   0.493   5.353
12414TIP3   OH237186   3.057   3.036   4.421
12414TIP3    H137187   3.114   3.011   4.348
12414TIP3    H237188   2.980   3.076   4.379
12415TIP3   OH237189   4.377   1.217   4.458
12415TIP3    H137190   4.321   1.286   4.493
12415TIP3    H237191   4.448   1.265   4.414
12416TIP3   OH237192   7.064   1.443   0.283
12416TIP3    H137193   7.135   1.381   0.300
12416TIP3    H237194   7.103   1.508   0.223
12417TIP3   OH237195   6.815   4.232   1.174
12417TIP3    H137196   6.725   4.210   1.197
12417TIP3    H237197   6.810   4.323   1.143
12418TIP3   OH237198   1.419   2.661   3.034
12418TIP3    H137199   1.420   2.738   2.978
12418TIP3    H237200   1.511   2.642   3.052
12419TIP3   OH237201   4.897   2.264   5.242
12419TIP3    H137202   4.897   2.259   5.147
12419TIP3    H237203   4.864   2.179   5.271
12420TIP3   OH237204   6.210   2.263   5.578
12420TIP3    H137205   6.183   2.183   5.533
12420TIP3    H237206   6.303   2.249   5.599
12421TIP3   OH237207   3.154   6.918   2.009
12421TIP3    H137208   3.076   6.865   1.993
12421TIP3    H237209   3.207   6.866   2.068
12422TIP3   OH237210   2.164   4.228   1.429
12422TIP3    H137211   2.140   4.313   1.394
12422TIP3    H237212   2.155   4.168   1.355
12423TIP3   OH237213   0.681   4.442   1.868
12423TIP3    H137214   0.675   4.505   1.940
12423TIP3    H237215   0.684   4.357   1.912
12424TIP3   OH237216   3.497   1.717   4.211
12424TIP3    H137217   3.420   1.769   4.188
12424TIP3    H237218   3.468   1.664   4.285
12425TIP3   OH237219   0.909   0.710   3.751
12425TIP3    H137220   0.923   0.712   3.845
12425TIP3    H237221   0.950   0.628   3.722
12426TIP3   OH237222   7.057   4.332   3.875
12426TIP3    H137223   7.080   4.299   3.788
12426TIP3    H237224   6.999   4.406   3.857
12427TIP3   OH237225   1.255   1.029   1.341
12427TIP3    H137226   1.335   1.034   1.289
12427TIP3    H237227   1.253   1.112   1.389
12428TIP3   OH237228   0.274   4.243   0.195
12428TIP3    H137229   0.188   4.266   0.229
12428TIP3    H237230   0.308   4.178   0.257
12429TIP3   OH237231   5.316   3.147   5.448
12429TIP3    H137232   5.363   3.066   5.430
12429TIP3    H237233   5.341   3.171   5.537
12430TIP3   OH237234   3.238   1.645   1.407
12430TIP3    H137235   3.209   1.626   1.496
12430TIP3    H237236   3.163   1.623   1.352
12431TIP3   OH237237   8.094   1.653   2.938
12431TIP3    H137238   8.008   1.621   2.912
12431TIP3    H237239   8.154   1.617   2.873
12432TIP3   OH237240   4.535   4.474   1.675
12432TIP3    H137241   4.625   4.497   1.697
12432TIP3    H237242   4.517   4.522   1.594
12433TIP3   OH237243   4.947   6.421   6.087
12433TIP3    H137244   4.879   6.355   6.076
12433TIP3    H237245   5.026   6.380   6.053
12434TIP3   OH237246   1.707   6.023   4.739
12434TIP3    H137247   1.688   6.089   4.805
12434TIP3    H237248   1.748   6.072   4.667
12435TIP3   OH237249   6.802   0.760   5.655
12435TIP3    H137250   6.762   0.729   5.574
12435TIP3    H237251   6.796   0.855   5.650
12436TIP3   OH237252   0.934   4.766   1.826
12436TIP3    H137253   0.892   4.711   1.761
12436TIP3    H237254   0.905   4.731   1.910
12437TIP3   OH237255   3.079   2.497   1.803
12437TIP3    H137256   2.989   2.500   1.771
12437TIP3    H237257   3.132   2.483   1.725
12438TIP3   OH237258   0.124   3.898   3.148
12438TIP3    H137259   0.153   3.874   3.236
12438TIP3    H237260   0.156   3.987   3.135
12439TIP3   OH237261   5.186   1.550   1.300
12439TIP3    H137262   5.251   1.558   1.230
12439TIP3    H237263   5.167   1.640   1.326
12440TIP3   OH237264   8.242   0.193   6.357
12440TIP3    H137265   8.279   0.258   6.417
12440TIP3    H237266   8.148   0.200   6.369
12441TIP3   OH237267   1.963   3.562   4.915
12441TIP3    H137268   1.883   3.604   4.946
12441TIP3    H237269   2.033   3.613   4.955
12442TIP3   OH237270   6.268   5.504   0.401
12442TIP3    H137271   6.313   5.431   0.359
12442TIP3    H237272   6.176   5.477   0.405
12443TIP3   OH237273   8.157   0.637   5.707
12443TIP3    H137274   8.081   0.619   5.652
12443TIP3    H237275   8.160   0.565   5.770
12444TIP3   OH237276   4.604   1.490   6.009
12444TIP3    H137277   4.648   1.453   6.085
12444TIP3    H237278   4.511   1.479   6.026
12445TIP3   OH237279   1.282   0.437   6.687
12445TIP3    H137280   1.237   0.515   6.722
12445TIP3    H237281   1.268   0.370   6.753
12446TIP3   OH237282   5.354   0.509   2.504
12446TIP3    H137283   5.440   0.469   2.486
12446TIP3    H237284   5.373   0.602   2.516
12447TIP3   OH237285   0.494   7.600   4.748
12447TIP3    H137286   0.484   7.536   4.677
12447TIP3    H237287   0.555   7.666   4.712
12448TIP3   OH237288   1.714   0.614   0.110
12448TIP3    H137289   1.698   0.593   0.202
12448TIP3    H237290   1.751   0.534   0.073
12449TIP3   OH237291   7.201   2.873   3.328
12449TIP3    H137292   7.261   2.842   3.395
12449TIP3    H237293   7.238   2.956   3.299
12450TIP3   OH237294   3.448   5.582   3.639
12450TIP3    H137295   3.460   5.667   3.682
12450TIP3    H237296   3.362   5.588   3.598
12451TIP3   OH237297   2.720   2.118   1.894
12451TIP3    H137298   2.815   2.108   1.886
12451TIP3    H237299   2.708   2.202   1.939
12452TIP3   OH237300   1.019   0.460   3.672
12452TIP3    H137301   1.020   0.368   3.643
12452TIP3    H237302   1.100   0.496   3.638
12453TIP3   OH237303   4.109   1.776   4.296
12453TIP3    H137304   4.145   1.750   4.212
12453TIP3    H237305   4.177   1.753   4.359
12454TIP3   OH237306   2.114   6.415   0.382
12454TIP3    H137307   2.047   6.365   0.428
12454TIP3    H237308   2.179   6.435   0.449
12455TIP3   OH237309   0.786   2.732   5.070
12455TIP3    H137310   0.705   2.751   5.023
12455TIP3    H237311   0.800   2.808   5.125
12456TIP3   OH237312   2.958   0.331   6.409
12456TIP3    H137313   3.037   0.367   6.450
12456TIP3    H237314   2.889   0.343   6.474
12457TIP3   OH237315   1.771   5.775   5.837
12457TIP3    H137316   1.727   5.788   5.921
12457TIP3    H237317   1.723   5.703   5.796
12458TIP3   OH237318   5.819   1.515   5.850
12458TIP3    H137319   5.878   1.488   5.921
12458TIP3    H237320   5.792   1.433   5.809
12459TIP3   OH237321   7.380   0.799   0.037
12459TIP3    H137322   7.403   0.787   0.129
12459TIP3    H237323   7.434   0.736  -0.010
12460TIP3   OH237324   1.283   6.590   0.353
12460TIP3    H137325   1.226   6.526   0.396
12460TIP3    H237326   1.257   6.587   0.261
12461TIP3   OH237327   6.466   7.470   1.568
12461TIP3    H137328   6.491   7.411   1.497
12461TIP3    H237329   6.514   7.438   1.644
12462TIP3   OH237330   5.770   4.814   6.615
12462TIP3    H137331   5.852   4.857   6.591
12462TIP3    H237332   5.702   4.877   6.590
12463TIP3   OH237333   2.055   5.057   3.995
12463TIP3    H137334   2.138   5.084   4.035
12463TIP3    H237335   2.024   5.136   3.950
12464TIP3   OH237336   1.002   5.730   0.765
12464TIP3    H137337   0.956   5.795   0.817
12464TIP3    H237338   0.934   5.670   0.736
12465TIP3   OH237339   0.437   4.398   3.558
12465TIP3    H137340   0.475   4.316   3.589
12465TIP3    H237341   0.364   4.415   3.617
12466TIP3   OH237342   7.175   4.355   6.545
12466TIP3    H137343   7.124   4.300   6.485
12466TIP3    H237344   7.262   4.360   6.504
12467TIP3   OH237345   7.194   4.359   1.890
12467TIP3    H137346   7.263   4.339   1.827
12467TIP3    H237347   7.128   4.291   1.875
12468TIP3   OH237348   7.379   5.553   2.167
12468TIP3    H137349   7.439   5.547   2.093
12468TIP3    H237350   7.402   5.480   2.224
12469TIP3   OH237351   0.246   5.383   5.331
12469TIP3    H137352   0.310   5.369   5.401
12469TIP3    H237353   0.172   5.327   5.355
12470TIP3   OH237354   7.810   2.976   6.563
12470TIP3    H137355   7.791   2.964   6.656
12470TIP3    H237356   7.848   3.064   6.558
12471TIP3   OH237357   4.531   1.160   0.651
12471TIP3    H137358   4.464   1.211   0.696
12471TIP3    H237359   4.493   1.073   0.639
12472TIP3   OH237360   6.441   2.553   0.365
12472TIP3    H137361   6.442   2.538   0.459
12472TIP3    H237362   6.367   2.611   0.350
12473TIP3   OH237363   4.823   4.164   4.442
12473TIP3    H137364   4.876   4.205   4.373
12473TIP3    H237365   4.856   4.075   4.448
12474TIP3   OH237366   2.643   0.378   3.365
12474TIP3    H137367   2.714   0.328   3.326
12474TIP3    H237368   2.670   0.392   3.456
12475TIP3   OH237369   8.268   1.979   1.670
12475TIP3    H137370   8.210   1.949   1.739
12475TIP3    H237371   8.303   1.898   1.631
12476TIP3   OH237372   2.071   6.912   2.753
12476TIP3    H137373   2.111   6.880   2.672
12476TIP3    H237374   1.977   6.904   2.737
12477TIP3   OH237375   2.880   4.810   4.819
12477TIP3    H137376   2.802   4.779   4.774
12477TIP3    H237377   2.864   4.791   4.911
12478TIP3   OH237378   7.192   1.130   2.089
12478TIP3    H137379   7.163   1.070   2.158
12478TIP3    H237380   7.114   1.182   2.068
12479TIP3   OH237381   4.642   5.476   1.813
12479TIP3    H137382   4.632   5.514   1.726
12479TIP3    H237383   4.735   5.489   1.834
12480TIP3   OH237384   4.612   4.379   0.242
12480TIP3    H137385   4.686   4.422   0.198
12480TIP3    H237386   4.535   4.428   0.213
12481TIP3   OH237387   2.807   7.301   1.754
12481TIP3    H137388   2.861   7.379   1.761
12481TIP3    H237389   2.830   7.263   1.670
12482TIP3   OH237390   3.945   4.522   6.062
12482TIP3    H137391   3.898   4.439   6.066
12482TIP3    H237392   3.911   4.572   6.137
12483TIP3   OH237393   1.768   0.214   3.595
12483TIP3    H137394   1.754   0.141   3.534
12483TIP3    H237395   1.731   0.290   3.550
12484TIP3   OH237396   7.694   0.446   3.470
12484TIP3    H137397   7.625   0.412   3.413
12484TIP3    H237398   7.715   0.373   3.528
12485TIP3   OH237399   2.936   1.232   5.804
12485TIP3    H137400   2.879   1.180   5.860
12485TIP3    H237401   2.903   1.217   5.715
12486TIP3   OH237402   8.300   0.592   2.042
12486TIP3    H137403   8.308   0.672   1.990
12486TIP3    H237404   8.258   0.529   1.984
12487TIP3   OH237405   0.363   7.200   0.227
12487TIP3    H137406   0.273   7.223   0.205
12487TIP3    H237407   0.402   7.173   0.144
12488TIP3   OH237408   5.448   7.414   4.673
12488TIP3    H137409   5.542   7.417   4.656
12488TIP3    H237410   5.427   7.321   4.683
12489TIP3   OH237411   5.835   7.698   0.571
12489TIP3    H137412   5.758   7.644   0.583
12489TIP3    H237413   5.879   7.698   0.656
12490TIP3   OH237414   6.143   5.459   6.585
12490TIP3    H137415   6.183   5.387   6.535
12490TIP3    H237416   6.214   5.521   6.600
12491TIP3   OH237417   6.699   2.731   5.646
12491TIP3    H137418   6.791   2.751   5.667
12491TIP3    H237419   6.655   2.730   5.731
12492TIP3   OH237420   0.591   4.630   3.483
12492TIP3    H137421   0.531   4.555   3.473
12492TIP3    H237422   0.536   4.701   3.515
12493TIP3   OH237423   5.759   3.076   3.640
12493TIP3    H137424   5.720   2.994   3.608
12493TIP3    H237425   5.685   3.123   3.680
12494TIP3   OH237426   2.975   5.500  -0.006
12494TIP3    H137427   3.066   5.505  -0.035
12494TIP3    H237428   2.979   5.459   0.080
12495TIP3   OH237429   3.503   1.403   2.123
12495TIP3    H137430   3.546   1.443   2.048
12495TIP3    H237431   3.413   1.389   2.095
12496TIP3   OH237432   1.973   3.427   2.987
12496TIP3    H137433   1.959   3.381   3.070
12496TIP3    H237434   2.021   3.365   2.933
12497TIP3   OH237435   0.949   2.444   3.746
12497TIP3    H137436   0.962   2.441   3.652
12497TIP3    H237437   0.977   2.358   3.777
12498TIP3   OH237438   4.978   5.520   0.178
12498TIP3    H137439   5.023   5.604   0.168
12498TIP3    H237440   5.046   5.460   0.207
12499TIP3   OH237441   2.254   7.556   5.792
12499TIP3    H137442   2.258   7.648   5.820
12499TIP3    H237443   2.167   7.527   5.819
12500TIP3   OH237444   4.837   7.428   3.605
12500TIP3    H137445   4.901   7.375   3.650
12500TIP3    H237446   4.765   7.368   3.585
12501TIP3   OH237447   0.292   4.492   4.833
12501TIP3    H137448   0.229   4.564   4.830
12501TIP3    H237449   0.357   4.520   4.898
12502TIP3   OH237450   4.885   4.823   2.948
12502TIP3    H137451   4.792   4.808   2.968
12502TIP3    H237452   4.929   4.743   2.979
12503TIP3   OH237453   7.070   7.766   6.492
12503TIP3    H137454   7.014   7.843   6.496
12503TIP3    H237455   7.127   7.774   6.568
12504TIP3   OH237456   6.288   4.109   5.518
12504TIP3    H137457   6.325   4.073   5.599
12504TIP3    H237458   6.311   4.046   5.450
12505TIP3   OH237459   4.559   0.264   0.646
12505TIP3    H137460   4.485   0.283   0.703
12505TIP3    H237461   4.581   0.172   0.665
12506TIP3   OH237462   5.854   7.536   5.481
12506TIP3    H137463   5.891   7.570   5.400
12506TIP3    H237464   5.793   7.604   5.510
12507TIP3   OH237465   2.308   4.078   2.177
12507TIP3    H137466   2.378   4.020   2.207
12507TIP3    H237467   2.287   4.047   2.090
12508TIP3   OH237468   7.617   0.565   1.671
12508TIP3    H137469   7.702   0.560   1.627
12508TIP3    H237470   7.628   0.513   1.750
12509TIP3   OH237471   1.970   1.967   0.393
12509TIP3    H137472   1.876   1.950   0.392
12509TIP3    H237473   1.988   1.995   0.483
12510TIP3   OH237474   5.774   2.592   0.763
12510TIP3    H137475   5.844   2.644   0.802
12510TIP3    H237476   5.807   2.502   0.766
12511TIP3   OH237477   7.029   4.919   2.431
12511TIP3    H137478   7.057   5.008   2.448
12511TIP3    H237479   7.110   4.868   2.428
12512TIP3   OH237480   2.817   4.010   6.746
12512TIP3    H137481   2.831   3.928   6.699
12512TIP3    H237482   2.804   4.075   6.678
12513TIP3   OH237483   1.436   1.251   6.054
12513TIP3    H137484   1.478   1.233   5.970
12513TIP3    H237485   1.346   1.221   6.043
12514TIP3   OH237486   4.381   6.099   5.255
12514TIP3    H137487   4.321   6.026   5.272
12514TIP3    H237488   4.334   6.177   5.284
12515TIP3   OH237489   3.349   6.042   6.346
12515TIP3    H137490   3.302   6.061   6.427
12515TIP3    H237491   3.299   6.089   6.278
12516TIP3   OH237492   6.804   1.370   0.347
12516TIP3    H137493   6.830   1.325   0.427
12516TIP3    H237494   6.878   1.428   0.326
12517TIP3   OH237495   8.100   3.227   4.891
12517TIP3    H137496   8.021   3.234   4.944
12517TIP3    H237497   8.148   3.307   4.908
12518TIP3   OH237498   4.737   5.096   2.900
12518TIP3    H137499   4.700   5.008   2.900
12518TIP3    H237500   4.728   5.126   2.810
12519TIP3   OH237501   7.531   1.812   1.407
12519TIP3    H137502   7.487   1.893   1.433
12519TIP3    H237503   7.565   1.831   1.320
12520TIP3   OH237504   3.759   0.427   0.402
12520TIP3    H137505   3.669   0.412   0.373
12520TIP3    H237506   3.809   0.355   0.365
12521TIP3   OH237507   2.224   6.733   3.137
12521TIP3    H137508   2.212   6.731   3.232
12521TIP3    H237509   2.167   6.664   3.105
12522TIP3   OH237510   5.091   5.325   1.873
12522TIP3    H137511   5.012   5.365   1.909
12522TIP3    H237512   5.107   5.373   1.792
12523TIP3   OH237513   4.161   0.290   2.578
12523TIP3    H137514   4.158   0.372   2.626
12523TIP3    H237515   4.086   0.293   2.518
12524TIP3   OH237516   1.694   2.959   5.444
12524TIP3    H137517   1.766   2.907   5.409
12524TIP3    H237518   1.672   2.916   5.527
12525TIP3   OH237519   5.520   3.808   2.365
12525TIP3    H137520   5.476   3.770   2.441
12525TIP3    H237521   5.529   3.901   2.386
12526TIP3   OH237522   8.335   4.304   2.507
12526TIP3    H137523   8.389   4.267   2.576
12526TIP3    H237524   8.270   4.357   2.552
12527TIP3   OH237525   5.150   6.037   5.485
12527TIP3    H137526   5.057   6.036   5.507
12527TIP3    H237527   5.152   6.033   5.389
12528TIP3   OH237528   4.204   6.376   0.510
12528TIP3    H137529   4.274   6.441   0.515
12528TIP3    H237530   4.141   6.403   0.577
12529TIP3   OH237531   2.486   5.873   4.112
12529TIP3    H137532   2.543   5.859   4.188
12529TIP3    H237533   2.428   5.944   4.139
12530TIP3   OH237534   3.215   7.669   5.050
12530TIP3    H137535   3.243   7.578   5.050
12530TIP3    H237536   3.248   7.705   4.968
12531TIP3   OH237537   4.554   6.668   1.993
12531TIP3    H137538   4.612   6.607   1.947
12531TIP3    H237539   4.529   6.732   1.926
12532TIP3   OH237540   6.614   6.614   6.292
12532TIP3    H137541   6.627   6.636   6.199
12532TIP3    H237542   6.613   6.699   6.337
12533TIP3   OH237543   7.813   1.109   6.568
12533TIP3    H137544   7.732   1.071   6.532
12533TIP3    H237545   7.786   1.145   6.652
12534TIP3   OH237546   0.303   4.523   0.530
12534TIP3    H137547   0.214   4.554   0.511
12534TIP3    H237548   0.350   4.534   0.447
12535TIP3   OH237549   6.779   6.950   2.657
12535TIP3    H137550   6.690   6.973   2.685
12535TIP3    H237551   6.770   6.929   2.564
12536TIP3   OH237552   6.568   0.518   0.701
12536TIP3    H137553   6.503   0.451   0.680
12536TIP3    H237554   6.566   0.578   0.627
12537TIP3   OH237555   1.902   3.230   0.295
12537TIP3    H137556   1.850   3.270   0.226
12537TIP3    H237557   1.937   3.304   0.346
12538TIP3   OH237558   1.755   5.599   3.146
12538TIP3    H137559   1.740   5.601   3.051
12538TIP3    H237560   1.813   5.524   3.159
12539TIP3   OH237561   0.496   2.699   0.418
12539TIP3    H137562   0.463   2.610   0.406
12539TIP3    H237563   0.468   2.746   0.340
12540TIP3   OH237564   3.552   5.766   1.885
12540TIP3    H137565   3.529   5.722   1.968
12540TIP3    H237566   3.478   5.823   1.867
12541TIP3   OH237567   7.105   3.761   3.168
12541TIP3    H137568   7.122   3.748   3.262
12541TIP3    H237569   7.026   3.813   3.165
12542TIP3   OH237570   3.311   0.266   5.415
12542TIP3    H137571   3.278   0.354   5.401
12542TIP3    H237572   3.232   0.212   5.425
12543TIP3   OH237573   8.205   5.351   5.839
12543TIP3    H137574   8.288   5.360   5.792
12543TIP3    H237575   8.230   5.341   5.931
12544TIP3   OH237576   1.010   5.860   2.189
12544TIP3    H137577   1.096   5.870   2.230
12544TIP3    H237578   0.951   5.839   2.261
12545TIP3   OH237579   2.217   3.614   5.446
12545TIP3    H137580   2.154   3.641   5.513
12545TIP3    H237581   2.167   3.615   5.364
12546TIP3   OH237582   3.542   0.194   4.263
12546TIP3    H137583   3.625   0.146   4.265
12546TIP3    H237584   3.509   0.181   4.173
12547TIP3   OH237585   6.611   1.814   1.334
12547TIP3    H137586   6.652   1.828   1.248
12547TIP3    H237587   6.571   1.898   1.355
12548TIP3   OH237588   4.005   1.137   5.106
12548TIP3    H137589   3.969   1.181   5.028
12548TIP3    H237590   3.927   1.113   5.157
12549TIP3   OH237591   8.074   0.128   0.036
12549TIP3    H137592   8.067   0.197  -0.029
12549TIP3    H237593   8.150   0.077   0.009
12550TIP3   OH237594   1.779   2.729   6.264
12550TIP3    H137595   1.855   2.718   6.207
12550TIP3    H237596   1.777   2.823   6.283
12551TIP3   OH237597   4.881   0.643   1.031
12551TIP3    H137598   4.960   0.612   1.076
12551TIP3    H237599   4.905   0.729   0.997
12552TIP3   OH237600   6.889   6.925   6.273
12552TIP3    H137601   6.879   6.887   6.360
12552TIP3    H237602   6.973   6.890   6.241
12553TIP3   OH237603   2.908   3.785   6.605
12553TIP3    H137604   2.851   3.721   6.563
12553TIP3    H237605   2.975   3.805   6.539
12554TIP3   OH237606   2.802   0.468   1.346
12554TIP3    H137607   2.821   0.549   1.299
12554TIP3    H237608   2.719   0.486   1.392
12555TIP3   OH237609   6.032   2.436   4.934
12555TIP3    H137610   6.012   2.365   4.994
12555TIP3    H237611   5.956   2.494   4.939
12556TIP3   OH237612   6.160   2.711   0.765
12556TIP3    H137613   6.069   2.735   0.785
12556TIP3    H237614   6.213   2.769   0.820
12557TIP3   OH237615   0.458   3.247   4.646
12557TIP3    H137616   0.373   3.277   4.614
12557TIP3    H237617   0.485   3.314   4.708
12558TIP3   OH237618   0.620   4.256   4.565
12558TIP3    H137619   0.553   4.275   4.630
12558TIP3    H237620   0.603   4.165   4.540
12559TIP3   OH237621   6.785   3.888   4.087
12559TIP3    H137622   6.793   3.967   4.033
12559TIP3    H237623   6.858   3.895   4.149
12560TIP3   OH237624   2.471   2.899   1.411
12560TIP3    H137625   2.509   2.859   1.489
12560TIP3    H237626   2.377   2.878   1.416
12561TIP3   OH237627   0.402   4.654   1.512
12561TIP3    H137628   0.335   4.652   1.443
12561TIP3    H237629   0.354   4.681   1.590
12562TIP3   OH237630   0.526   7.479   5.728
12562TIP3    H137631   0.508   7.571   5.745
12562TIP3    H237632   0.443   7.443   5.698
12563TIP3   OH237633   2.332   0.160   3.186
12563TIP3    H137634   2.269   0.208   3.132
12563TIP3    H237635   2.363   0.089   3.130
12564TIP3   OH237636   5.164   7.851   5.328
12564TIP3    H137637   5.163   7.769   5.377
12564TIP3    H237638   5.114   7.912   5.382
12565TIP3   OH237639   8.106   0.821   0.475
12565TIP3    H137640   8.118   0.726   0.482
12565TIP3    H237641   8.136   0.855   0.559
12566TIP3   OH237642   3.591   5.466   3.419
12566TIP3    H137643   3.548   5.503   3.496
12566TIP3    H237644   3.629   5.383   3.449
12567TIP3   OH237645   2.832   2.752   6.320
12567TIP3    H137646   2.882   2.700   6.383
12567TIP3    H237647   2.823   2.838   6.361
12568TIP3   OH237648   5.924   3.142   0.545
12568TIP3    H137649   5.971   3.084   0.486
12568TIP3    H237650   5.978   3.221   0.548
12569TIP3   OH237651   3.084   3.098   2.596
12569TIP3    H137652   3.126   3.122   2.678
12569TIP3    H237653   3.098   3.003   2.589
12570TIP3   OH237654   6.785   3.156   2.435
12570TIP3    H137655   6.859   3.170   2.494
12570TIP3    H237656   6.789   3.063   2.414
12571TIP3   OH237657   5.898   7.828   3.467
12571TIP3    H137658   5.962   7.766   3.502
12571TIP3    H237659   5.826   7.774   3.435
12572TIP3   OH237660   2.226   1.853   6.111
12572TIP3    H137661   2.296   1.803   6.152
12572TIP3    H237662   2.189   1.905   6.182
12573TIP3   OH237663   1.266   2.546   1.465
12573TIP3    H137664   1.260   2.531   1.371
12573TIP3    H237665   1.340   2.607   1.475
12574TIP3   OH237666   5.921   2.018   3.802
12574TIP3    H137667   5.880   1.934   3.779
12574TIP3    H237668   6.007   1.995   3.836
12575TIP3   OH237669   7.353   0.128   1.744
12575TIP3    H137670   7.363   0.202   1.685
12575TIP3    H237671   7.390   0.158   1.827
12576TIP3   OH237672   5.244   3.450   2.290
12576TIP3    H137673   5.203   3.476   2.373
12576TIP3    H237674   5.229   3.525   2.232
12577TIP3   OH237675   8.178   0.920   5.973
12577TIP3    H137676   8.137   0.942   5.889
12577TIP3    H237677   8.176   1.001   6.023
12578TIP3   OH237678   4.299   4.532   4.251
12578TIP3    H137679   4.232   4.543   4.319
12578TIP3    H237680   4.354   4.460   4.283
12579TIP3   OH237681   6.448   3.862   4.525
12579TIP3    H137682   6.414   3.836   4.611
12579TIP3    H237683   6.541   3.877   4.539
12580TIP3   OH237684   0.301   4.709   2.675
12580TIP3    H137685   0.309   4.789   2.727
12580TIP3    H237686   0.388   4.695   2.638
12581TIP3   OH237687   5.366   3.593   0.485
12581TIP3    H137688   5.432   3.661   0.500
12581TIP3    H237689   5.341   3.603   0.393
12582TIP3   OH237690   7.192   7.337   0.532
12582TIP3    H137691   7.168   7.247   0.512
12582TIP3    H237692   7.147   7.390   0.466
12583TIP3   OH237693   1.993   3.395   2.526
12583TIP3    H137694   1.942   3.349   2.593
12583TIP3    H237695   2.015   3.327   2.462
12584TIP3   OH237696   1.894   0.604   3.433
12584TIP3    H137697   1.972   0.584   3.484
12584TIP3    H237698   1.824   0.554   3.476
12585TIP3   OH237699   0.362   6.530   1.245
12585TIP3    H137700   0.309   6.604   1.273
12585TIP3    H237701   0.448   6.546   1.283
12586TIP3   OH237702   6.214   0.995   2.732
12586TIP3    H137703   6.127   1.001   2.771
12586TIP3    H237704   6.210   1.054   2.657
12587TIP3   OH237705   3.767   3.938   4.648
12587TIP3    H137706   3.763   3.907   4.557
12587TIP3    H237707   3.684   3.908   4.686
12588TIP3   OH237708   6.608   1.762   3.295
12588TIP3    H137709   6.532   1.757   3.236
12588TIP3    H237710   6.662   1.831   3.258
12589TIP3   OH237711   6.178   6.567   6.249
12589TIP3    H137712   6.197   6.475   6.270
12589TIP3    H237713   6.225   6.583   6.168
12590TIP3   OH237714   7.783   1.682   6.581
12590TIP3    H137715   7.837   1.617   6.535
12590TIP3    H237716   7.808   1.673   6.673
12591TIP3   OH237717   7.744   4.193   0.561
12591TIP3    H137718   7.761   4.276   0.516
12591TIP3    H237719   7.741   4.128   0.491
12592TIP3   OH237720   7.299   2.752   3.093
12592TIP3    H137721   7.257   2.791   3.170
12592TIP3    H237722   7.380   2.801   3.083
12593TIP3   OH237723   6.510   7.448   4.919
12593TIP3    H137724   6.431   7.442   4.974
12593TIP3    H237725   6.582   7.454   4.981
12594TIP3   OH237726   7.137   1.017   0.269
12594TIP3    H137727   7.197   1.023   0.195
12594TIP3    H237728   7.071   1.084   0.252
12595TIP3   OH237729   4.227   7.251   6.498
12595TIP3    H137730   4.248   7.298   6.578
12595TIP3    H237731   4.268   7.165   6.508
12596TIP3   OH237732   1.552   4.143   2.953
12596TIP3    H137733   1.566   4.129   2.859
12596TIP3    H237734   1.533   4.236   2.961
12597TIP3   OH237735   7.831   4.724   6.571
12597TIP3    H137736   7.875   4.809   6.568
12597TIP3    H237737   7.738   4.745   6.577
12598TIP3   OH237738   6.276   4.566   4.815
12598TIP3    H137739   6.212   4.559   4.743
12598TIP3    H237740   6.290   4.660   4.825
12599TIP3   OH237741   6.837   5.224   2.252
12599TIP3    H137742   6.800   5.178   2.176
12599TIP3    H237743   6.932   5.225   2.236
12600TIP3   OH237744   6.637   4.403   0.979
12600TIP3    H137745   6.589   4.333   1.023
12600TIP3    H237746   6.583   4.480   0.991
12601TIP3   OH237747   4.255   2.621   4.595
12601TIP3    H137748   4.304   2.552   4.640
12601TIP3    H237749   4.195   2.654   4.661
12602TIP3   OH237750   2.697   3.225   3.359
12602TIP3    H137751   2.665   3.167   3.290
12602TIP3    H237752   2.773   3.181   3.395
12603TIP3   OH237753   4.274   3.773   2.448
12603TIP3    H137754   4.293   3.793   2.356
12603TIP3    H237755   4.299   3.681   2.458
12604TIP3   OH237756   5.988   0.417   4.967
12604TIP3    H137757   6.041   0.443   4.892
12604TIP3    H237758   6.050   0.377   5.028
12605TIP3   OH237759   2.328   6.555   4.509
12605TIP3    H137760   2.358   6.518   4.592
12605TIP3    H237761   2.237   6.581   4.527
12606TIP3   OH237762   3.456   4.769   4.892
12606TIP3    H137763   3.427   4.718   4.967
12606TIP3    H237764   3.428   4.858   4.911
12607TIP3   OH237765   0.012   5.370   6.137
12607TIP3    H137766  -0.081   5.361   6.156
12607TIP3    H237767   0.050   5.399   6.220
12608TIP3   OH237768   2.648   5.770   2.789
12608TIP3    H137769   2.586   5.711   2.746
12608TIP3    H237770   2.718   5.712   2.821
12609TIP3   OH237771   5.755   2.911   5.272
12609TIP3    H137772   5.675   2.858   5.276
12609TIP3    H237773   5.772   2.937   5.362
12610TIP3   OH237774   6.312   5.017   4.339
12610TIP3    H137775   6.396   5.021   4.384
12610TIP3    H237776   6.259   5.085   4.380
12611TIP3   OH237777   5.613   6.929   3.730
12611TIP3    H137778   5.644   6.888   3.649
12611TIP3    H237779   5.686   6.982   3.760
12612TIP3   OH237780   2.403   6.303   3.759
12612TIP3    H137781   2.369   6.330   3.845
12612TIP3    H237782   2.443   6.218   3.776
12613TIP3   OH237783   4.399   5.948   4.190
12613TIP3    H137784   4.309   5.973   4.172
12613TIP3    H237785   4.452   6.015   4.147
12614TIP3   OH237786   7.983   6.515   0.632
12614TIP3    H137787   7.919   6.476   0.692
12614TIP3    H237788   8.011   6.596   0.675
12615TIP3   OH237789   3.715   7.098   3.105
12615TIP3    H137790   3.745   7.186   3.129
12615TIP3    H237791   3.657   7.112   3.030
12616TIP3   OH237792   8.212   6.482   2.822
12616TIP3    H137793   8.222   6.409   2.760
12616TIP3    H237794   8.131   6.525   2.793
12617TIP3   OH237795   8.227   2.599   1.222
12617TIP3    H137796   8.202   2.690   1.241
12617TIP3    H237797   8.146   2.557   1.193
12618TIP3   OH237798   1.860   0.373   1.216
12618TIP3    H137799   1.811   0.450   1.241
12618TIP3    H237800   1.911   0.400   1.139
12619TIP3   OH237801   3.681   5.587   5.218
12619TIP3    H137802   3.625   5.584   5.296
12619TIP3    H237803   3.685   5.496   5.188
12620TIP3   OH237804   6.031   3.516   2.459
12620TIP3    H137805   6.017   3.591   2.402
12620TIP3    H237806   5.980   3.446   2.419
12621TIP3   OH237807   6.060   4.602   6.583
12621TIP3    H137808   6.039   4.683   6.629
12621TIP3    H237809   6.104   4.548   6.649
12622TIP3   OH237810   0.758   5.724   2.144
12622TIP3    H137811   0.682   5.765   2.184
12622TIP3    H237812   0.783   5.654   2.205
12623TIP3   OH237813   5.216   1.204   3.868
12623TIP3    H137814   5.180   1.292   3.857
12623TIP3    H237815   5.245   1.201   3.959
12624TIP3   OH237816   1.013   2.620   6.323
12624TIP3    H137817   1.035   2.530   6.299
12624TIP3    H237818   0.931   2.637   6.277
12625TIP3   OH237819   2.659   5.539   6.302
12625TIP3    H137820   2.592   5.531   6.369
12625TIP3    H237821   2.625   5.605   6.241
12626TIP3   OH237822   3.289   6.406   6.495
12626TIP3    H137823   3.360   6.410   6.432
12626TIP3    H237824   3.280   6.314   6.517
12627TIP3   OH237825   6.165   4.872   2.933
12627TIP3    H137826   6.180   4.787   2.973
12627TIP3    H237827   6.195   4.862   2.842
12628TIP3   OH237828   7.050   4.876   4.293
12628TIP3    H137829   7.055   4.845   4.383
12628TIP3    H237830   7.025   4.968   4.301
12629TIP3   OH237831   0.834   4.960   0.159
12629TIP3    H137832   0.794   4.910   0.230
12629TIP3    H237833   0.760   4.989   0.105
12630TIP3   OH237834   1.350   0.369   6.128
12630TIP3    H137835   1.326   0.289   6.080
12630TIP3    H237836   1.417   0.410   6.073
12631TIP3   OH237837   6.680   0.057   5.969
12631TIP3    H137838   6.638   0.139   5.991
12631TIP3    H237839   6.751   0.081   5.909
12632TIP3   OH237840   1.981   5.665   4.856
12632TIP3    H137841   2.075   5.682   4.862
12632TIP3    H237842   1.963   5.664   4.762
12633TIP3   OH237843   0.576   7.515   0.588
12633TIP3    H137844   0.489   7.493   0.553
12633TIP3    H237845   0.564   7.517   0.682
12634TIP3   OH237846   5.151   1.394   0.590
12634TIP3    H137847   5.223   1.344   0.628
12634TIP3    H237848   5.072   1.349   0.620
12635TIP3   OH237849   2.412   1.156   1.557
12635TIP3    H137850   2.355   1.209   1.501
12635TIP3    H237851   2.494   1.150   1.508
12636TIP3   OH237852   7.163   4.141   1.692
12636TIP3    H137853   7.253   4.145   1.660
12636TIP3    H237854   7.132   4.053   1.669
12637TIP3   OH237855   5.571   7.156   1.193
12637TIP3    H137856   5.635   7.088   1.214
12637TIP3    H237857   5.618   7.238   1.210
12638TIP3   OH237858   7.991   2.926   2.965
12638TIP3    H137859   8.045   2.848   2.956
12638TIP3    H237860   7.906   2.893   2.996
12639TIP3   OH237861   5.644   1.818   1.066
12639TIP3    H137862   5.731   1.793   1.035
12639TIP3    H237863   5.660   1.868   1.146
12640TIP3   OH237864   4.274   3.353   6.120
12640TIP3    H137865   4.206   3.391   6.064
12640TIP3    H237866   4.251   3.380   6.209
12641TIP3   OH237867   2.307   4.160   6.401
12641TIP3    H137868   2.280   4.250   6.421
12641TIP3    H237869   2.294   4.151   6.306
12642TIP3   OH237870   5.500   4.501   6.310
12642TIP3    H137871   5.559   4.440   6.266
12642TIP3    H237872   5.426   4.510   6.250
12643TIP3   OH237873   6.643   5.144   0.347
12643TIP3    H137874   6.713   5.130   0.283
12643TIP3    H237875   6.586   5.210   0.307
12644TIP3   OH237876   1.531   0.991   1.951
12644TIP3    H137877   1.500   0.988   2.042
12644TIP3    H237878   1.455   1.018   1.900
12645TIP3   OH237879   6.021   1.497   2.723
12645TIP3    H137880   6.027   1.478   2.630
12645TIP3    H237881   5.974   1.422   2.760
12646TIP3   OH237882   7.851   5.971   5.823
12646TIP3    H137883   7.923   5.907   5.819
12646TIP3    H237884   7.889   6.046   5.869
12647TIP3   OH237885   2.302   4.810   4.260
12647TIP3    H137886   2.366   4.820   4.189
12647TIP3    H237887   2.247   4.737   4.232
12648TIP3   OH237888   1.644   4.109   2.458
12648TIP3    H137889   1.705   4.042   2.428
12648TIP3    H237890   1.633   4.091   2.551
12649TIP3   OH237891   5.829   2.937   4.530
12649TIP3    H137892   5.752   2.969   4.578
12649TIP3    H237893   5.845   2.849   4.564
12650TIP3   OH237894   6.065   1.450   2.461
12650TIP3    H137895   6.000   1.399   2.413
12650TIP3    H237896   6.133   1.387   2.483
12651TIP3   OH237897   1.386   1.493   4.458
12651TIP3    H137898   1.400   1.484   4.364
12651TIP3    H237899   1.292   1.506   4.467
12652TIP3   OH237900   2.464   3.432   6.537
12652TIP3    H137901   2.406   3.414   6.463
12652TIP3    H237902   2.417   3.399   6.613
12653TIP3   OH237903   7.533   7.732   5.592
12653TIP3    H137904   7.539   7.824   5.619
12653TIP3    H237905   7.467   7.732   5.522
12654TIP3   OH237906   7.474   0.150   2.012
12654TIP3    H137907   7.416   0.093   2.063
12654TIP3    H237908   7.560   0.111   2.021
12655TIP3   OH237909   3.534   2.591   1.533
12655TIP3    H137910   3.521   2.548   1.618
12655TIP3    H237911   3.603   2.539   1.491
12656TIP3   OH237912   1.344   0.059   3.709
12656TIP3    H137913   1.288   0.005   3.653
12656TIP3    H237914   1.334   0.147   3.674
12657TIP3   OH237915   4.994   3.186   6.125
12657TIP3    H137916   4.900   3.189   6.141
12657TIP3    H237917   5.025   3.116   6.182
12658TIP3   OH237918   3.504   6.113   0.593
12658TIP3    H137919   3.511   6.079   0.504
12658TIP3    H237920   3.591   6.148   0.613
12659TIP3   OH237921   6.385   7.525   1.855
12659TIP3    H137922   6.472   7.486   1.869
12659TIP3    H237923   6.403   7.617   1.835
12660TIP3   OH237924   7.451   5.272   6.451
12660TIP3    H137925   7.507   5.336   6.495
12660TIP3    H237926   7.452   5.195   6.508
12661TIP3   OH237927   0.896   4.198   5.310
12661TIP3    H137928   0.983   4.190   5.349
12661TIP3    H237929   0.912   4.235   5.223
12662TIP3   OH237930   4.726   1.988   5.654
12662TIP3    H137931   4.807   1.954   5.617
12662TIP3    H237932   4.656   1.941   5.607
12663TIP3   OH237933   6.828   0.159   5.721
12663TIP3    H137934   6.758   0.222   5.742
12663TIP3    H237935   6.903   0.214   5.699
12664TIP3   OH237936   1.979   3.733   4.368
12664TIP3    H137937   1.957   3.683   4.446
12664TIP3    H237938   1.896   3.769   4.338
12665TIP3   OH237939   2.443   2.584   3.959
12665TIP3    H137940   2.372   2.551   4.013
12665TIP3    H237941   2.506   2.512   3.954
12666TIP3   OH237942   5.553   2.961   1.580
12666TIP3    H137943   5.485   2.923   1.524
12666TIP3    H237944   5.632   2.910   1.561
12667TIP3   OH237945   3.224   7.380   3.192
12667TIP3    H137946   3.286   7.361   3.262
12667TIP3    H237947   3.169   7.449   3.227
12668TIP3   OH237948   6.842   0.087   6.246
12668TIP3    H137949   6.818  -0.003   6.223
12668TIP3    H237950   6.870   0.126   6.163
12669TIP3   OH237951   6.841   1.102   5.219
12669TIP3    H137952   6.762   1.085   5.168
12669TIP3    H237953   6.838   1.196   5.236
12670TIP3   OH237954   4.207   7.019   2.196
12670TIP3    H137955   4.279   7.030   2.259
12670TIP3    H237956   4.141   6.968   2.243
12671TIP3   OH237957   1.995   2.929   3.810
12671TIP3    H137958   2.082   2.900   3.839
12671TIP3    H237959   1.964   2.859   3.752
12672TIP3   OH237960   6.853   0.209   6.502
12672TIP3    H137961   6.855   0.163   6.418
12672TIP3    H237962   6.913   0.159   6.557
12673TIP3   OH237963   6.535   6.682   1.340
12673TIP3    H137964   6.582   6.677   1.423
12673TIP3    H237965   6.471   6.751   1.353
12674TIP3   OH237966   6.215   6.232   1.121
12674TIP3    H137967   6.298   6.278   1.118
12674TIP3    H237968   6.229   6.153   1.068
12675TIP3   OH237969   7.295   6.269   6.661
12675TIP3    H137970   7.224   6.260   6.724
12675TIP3    H237971   7.350   6.339   6.698
12676TIP3   OH237972   6.082   4.763   1.194
12676TIP3    H137973   6.053   4.836   1.140
12676TIP3    H237974   6.042   4.686   1.155
12677TIP3   OH237975   1.446   4.236   5.096
12677TIP3    H137976   1.474   4.173   5.162
12677TIP3    H237977   1.490   4.317   5.121
12678TIP3   OH237978   7.343   2.980   4.824
12678TIP3    H137979   7.289   2.902   4.811
12678TIP3    H237980   7.341   2.996   4.918
12679TIP3   OH237981   1.943   5.652   4.598
12679TIP3    H137982   1.952   5.624   4.507
12679TIP3    H237983   1.870   5.714   4.597
12680TIP3   OH237984   2.349   6.073   2.160
12680TIP3    H137985   2.320   6.012   2.092
12680TIP3    H237986   2.413   6.129   2.116
12681TIP3   OH237987   1.128   1.736   3.247
12681TIP3    H137988   1.122   1.818   3.198
12681TIP3    H237989   1.195   1.685   3.201
12682TIP3   OH237990   1.821   7.333   5.301
12682TIP3    H137991   1.809   7.418   5.258
12682TIP3    H237992   1.907   7.304   5.272
12683TIP3   OH237993   3.398   1.284   0.786
12683TIP3    H137994   3.481   1.319   0.755
12683TIP3    H237995   3.343   1.278   0.708
12684TIP3   OH237996   3.285   5.491   2.987
12684TIP3    H137997   3.374   5.485   3.023
12684TIP3    H237998   3.230   5.446   3.050
12685TIP3   OH237999   6.185   6.707   5.598
12685TIP3    H138000   6.113   6.654   5.562
12685TIP3    H238001   6.141   6.780   5.642
12686TIP3   OH238002   6.832   4.420   0.797
12686TIP3    H138003   6.770   4.389   0.862
12686TIP3    H238004   6.812   4.513   0.787
12687TIP3   OH238005   6.485   3.527   0.380
12687TIP3    H138006   6.523   3.499   0.463
12687TIP3    H238007   6.521   3.466   0.315
12688TIP3   OH238008   8.133   4.285   2.757
12688TIP3    H138009   8.154   4.377   2.741
12688TIP3    H238010   8.042   4.276   2.728
12689TIP3   OH238011   2.810   0.096   4.283
12689TIP3    H138012   2.798   0.120   4.191
12689TIP3    H238013   2.771   0.170   4.331
12690TIP3   OH238014   0.098   0.000   1.238
12690TIP3    H138015   0.064   0.033   1.155
12690TIP3    H238016   0.061   0.059   1.305
12691TIP3   OH238017   0.456   3.141   1.829
12691TIP3    H138018   0.432   3.064   1.881
12691TIP3    H238019   0.531   3.179   1.876
12692TIP3   OH238020   5.197   2.976   5.930
12692TIP3    H138021   5.187   2.979   6.026
12692TIP3    H238022   5.140   2.904   5.902
12693TIP3   OH238023   1.586   6.203   4.910
12693TIP3    H138024   1.503   6.157   4.897
12693TIP3    H238025   1.569   6.264   4.981
12694TIP3   OH238026   2.645   4.126   1.822
12694TIP3    H138027   2.686   4.179   1.891
12694TIP3    H238028   2.663   4.036   1.847
12695TIP3   OH238029   5.589   4.727   3.667
12695TIP3    H138030   5.617   4.670   3.739
12695TIP3    H238031   5.628   4.687   3.589
12696TIP3   OH238032   3.893   4.998   1.318
12696TIP3    H138033   3.880   5.071   1.379
12696TIP3    H238034   3.935   4.930   1.370
12697TIP3   OH238035   0.278   1.985   5.830
12697TIP3    H138036   0.185   1.965   5.836
12697TIP3    H238037   0.283   2.080   5.835
12698TIP3   OH238038   4.906   5.763   1.701
12698TIP3    H138039   4.983   5.754   1.645
12698TIP3    H238040   4.837   5.714   1.657
12699TIP3   OH238041   5.234   2.544   2.402
12699TIP3    H138042   5.226   2.468   2.459
12699TIP3    H238043   5.230   2.619   2.461
12700TIP3   OH238044   7.465   7.066   5.363
12700TIP3    H138045   7.465   7.017   5.446
12700TIP3    H238046   7.411   7.013   5.305
12701TIP3   OH238047   7.625   6.486   2.206
12701TIP3    H138048   7.700   6.538   2.235
12701TIP3    H238049   7.657   6.396   2.207
12702TIP3   OH238050   1.739   5.082   4.355
12702TIP3    H138051   1.736   4.987   4.367
12702TIP3    H238052   1.749   5.094   4.260
12703TIP3   OH238053   4.041   5.713   1.697
12703TIP3    H138054   4.076   5.664   1.771
12703TIP3    H238055   3.987   5.650   1.650
12704TIP3   OH238056   4.477   0.940   4.144
12704TIP3    H138057   4.524   0.969   4.222
12704TIP3    H238058   4.389   0.974   4.156
12705TIP3   OH238059   1.242   2.902   3.639
12705TIP3    H138060   1.162   2.942   3.672
12705TIP3    H238061   1.223   2.808   3.637
12706TIP3   OH238062   5.774   0.306   2.352
12706TIP3    H138063   5.788   0.296   2.258
12706TIP3    H238064   5.852   0.268   2.392
12707TIP3   OH238065   8.194   0.444   4.730
12707TIP3    H138066   8.123   0.486   4.779
12707TIP3    H238067   8.273   0.493   4.754
12708TIP3   OH238068   4.410   2.656   5.894
12708TIP3    H138069   4.453   2.594   5.835
12708TIP3    H238070   4.355   2.709   5.837
12709TIP3   OH238071   1.980   6.227   6.566
12709TIP3    H138072   2.013   6.141   6.540
12709TIP3    H238073   1.929   6.257   6.491
12710TIP3   OH238074   6.392   7.739   5.024
12710TIP3    H138075   6.476   7.778   5.047
12710TIP3    H238076   6.400   7.718   4.931
12711TIP3   OH238077   1.486   6.077   5.443
12711TIP3    H138078   1.463   6.013   5.374
12711TIP3    H238079   1.522   6.151   5.395
12712TIP3   OH238080   1.545   1.493   6.131
12712TIP3    H138081   1.554   1.490   6.226
12712TIP3    H238082   1.480   1.426   6.111
12713TIP3   OH238083   1.170   5.858   1.559
12713TIP3    H138084   1.218   5.791   1.607
12713TIP3    H238085   1.236   5.925   1.539
12714TIP3   OH238086   7.202   4.862   0.740
12714TIP3    H138087   7.213   4.810   0.661
12714TIP3    H238088   7.116   4.903   0.731
12715TIP3   OH238089   6.583   2.161   0.865
12715TIP3    H138090   6.616   2.143   0.777
12715TIP3    H238091   6.558   2.253   0.863
12716TIP3   OH238092   3.448   3.531   0.844
12716TIP3    H138093   3.448   3.450   0.793
12716TIP3    H238094   3.362   3.569   0.830
12717TIP3   OH238095   5.255   5.668   6.592
12717TIP3    H138096   5.238   5.694   6.501
12717TIP3    H238097   5.181   5.704   6.641
12718TIP3   OH238098   3.720   2.536   3.729
12718TIP3    H138099   3.687   2.618   3.692
12718TIP3    H238100   3.803   2.560   3.770
12719TIP3   OH238101   2.067   6.441   4.011
12719TIP3    H138102   2.087   6.425   3.919
12719TIP3    H238103   2.055   6.535   4.017
12720TIP3   OH238104   7.575   2.495   1.928
12720TIP3    H138105   7.666   2.482   1.955
12720TIP3    H238106   7.574   2.585   1.893
12721TIP3   OH238107   7.343   7.437   0.066
12721TIP3    H138108   7.342   7.430   0.161
12721TIP3    H238109   7.403   7.508   0.047
12722TIP3   OH238110   3.012   7.158   2.078
12722TIP3    H138111   3.055   7.123   1.999
12722TIP3    H238112   2.950   7.089   2.103
12723TIP3   OH238113   2.496   4.147   5.539
12723TIP3    H138114   2.530   4.211   5.602
12723TIP3    H238115   2.558   4.150   5.467
12724TIP3   OH238116   8.170   4.547   2.380
12724TIP3    H138117   8.236   4.523   2.316
12724TIP3    H238118   8.128   4.625   2.344
12725TIP3   OH238119   3.716   2.387   5.929
12725TIP3    H138120   3.643   2.325   5.932
12725TIP3    H238121   3.703   2.445   6.003
12726TIP3   OH238122   3.400   7.220   5.370
12726TIP3    H138123   3.441   7.192   5.451
12726TIP3    H238124   3.306   7.206   5.384
12727TIP3   OH238125   6.083   4.272   4.276
12727TIP3    H138126   6.122   4.192   4.239
12727TIP3    H238127   5.991   4.268   4.248
12728TIP3   OH238128   6.649   6.157   1.094
12728TIP3    H138129   6.732   6.204   1.102
12728TIP3    H238130   6.666   6.073   1.136
12729TIP3   OH238131   4.820   5.209   3.861
12729TIP3    H138132   4.798   5.298   3.888
12729TIP3    H238133   4.877   5.220   3.785
12730TIP3   OH238134   6.069   3.373   4.159
12730TIP3    H138135   6.130   3.413   4.096
12730TIP3    H238136   6.075   3.279   4.142
12731TIP3   OH238137   3.146   0.079   5.505
12731TIP3    H138138   3.162   0.080   5.599
12731TIP3    H238139   3.124  -0.012   5.485
12732TIP3   OH238140   2.381   5.517   0.371
12732TIP3    H138141   2.310   5.582   0.367
12732TIP3    H238142   2.461   5.569   0.380
12733TIP3   OH238143   0.187   1.229   4.574
12733TIP3    H138144   0.199   1.199   4.664
12733TIP3    H238145   0.273   1.262   4.548
12734TIP3   OH238146   7.440   1.537   1.499
12734TIP3    H138147   7.374   1.526   1.566
12734TIP3    H238148   7.441   1.631   1.481
12735TIP3   OH238149   6.850   0.769   1.921
12735TIP3    H138150   6.863   0.840   1.857
12735TIP3    H238151   6.756   0.769   1.938
12736TIP3   OH238152   2.232   3.069   1.555
12736TIP3    H138153   2.272   3.112   1.479
12736TIP3    H238154   2.227   3.138   1.621
12737TIP3   OH238155   7.507   1.874   5.822
12737TIP3    H138156   7.445   1.811   5.858
12737TIP3    H238157   7.561   1.823   5.761
12738TIP3   OH238158   6.150   7.189   6.123
12738TIP3    H138159   6.060   7.218   6.113
12738TIP3    H238160   6.203   7.267   6.105
12739TIP3   OH238161   6.410   2.121   5.296
12739TIP3    H138162   6.483   2.113   5.357
12739TIP3    H238163   6.419   2.045   5.238
12740TIP3   OH238164   6.241   1.623   5.674
12740TIP3    H138165   6.330   1.643   5.702
12740TIP3    H238166   6.188   1.695   5.708
12741TIP3   OH238167   4.598   6.523   5.533
12741TIP3    H138168   4.614   6.433   5.506
12741TIP3    H238169   4.505   6.525   5.555
12742TIP3   OH238170   6.227   2.927   2.676
12742TIP3    H138171   6.173   2.851   2.694
12742TIP3    H238172   6.167   2.991   2.636
12743TIP3   OH238173   6.771   2.674   2.882
12743TIP3    H138174   6.716   2.659   2.959
12743TIP3    H238175   6.727   2.745   2.836
12744TIP3   OH238176   6.352   2.345   6.326
12744TIP3    H138177   6.319   2.418   6.378
12744TIP3    H238178   6.279   2.283   6.324
12745TIP3   OH238179   3.932   1.318   4.887
12745TIP3    H138180   3.961   1.387   4.827
12745TIP3    H238181   3.851   1.352   4.925
12746TIP3   OH238182   2.809   1.743   5.949
12746TIP3    H138183   2.732   1.775   5.995
12746TIP3    H238184   2.821   1.804   5.876
12747TIP3   OH238185   2.250   4.266   4.340
12747TIP3    H138186   2.242   4.262   4.435
12747TIP3    H238187   2.214   4.351   4.316
12748TIP3   OH238188   7.416   5.908   6.416
12748TIP3    H138189   7.508   5.918   6.390
12748TIP3    H238190   7.377   5.994   6.398
12749TIP3   OH238191   2.399   5.669   2.401
12749TIP3    H138192   2.441   5.753   2.417
12749TIP3    H238193   2.329   5.687   2.339
12750TIP3   OH238194   6.431   2.538   3.519
12750TIP3    H138195   6.351   2.591   3.518
12750TIP3    H238196   6.433   2.495   3.434
12751TIP3   OH238197   2.898   7.306   5.807
12751TIP3    H138198   2.943   7.358   5.740
12751TIP3    H238199   2.805   7.328   5.796
12752TIP3   OH238200   0.605   6.443   3.922
12752TIP3    H138201   0.643   6.508   3.864
12752TIP3    H238202   0.658   6.364   3.907
12753TIP3   OH238203   6.691   3.504   4.835
12753TIP3    H138204   6.676   3.577   4.894
12753TIP3    H238205   6.613   3.502   4.779
12754TIP3   OH238206   6.343   2.801   2.027
12754TIP3    H138207   6.396   2.812   2.106
12754TIP3    H238208   6.268   2.749   2.055
12755TIP3   OH238209   0.914   2.090   0.526
12755TIP3    H138210   0.903   2.097   0.431
12755TIP3    H238211   0.859   2.159   0.562
12756TIP3   OH238212   6.036   2.132   2.386
12756TIP3    H138213   5.979   2.097   2.318
12756TIP3    H238214   5.987   2.205   2.424
12757TIP3   OH238215   0.312   5.175   2.941
12757TIP3    H138216   0.396   5.157   2.983
12757TIP3    H238217   0.336   5.214   2.857
12758TIP3   OH238218   7.888   3.028   2.219
12758TIP3    H138219   7.826   2.977   2.270
12758TIP3    H238220   7.973   3.012   2.262
12759TIP3   OH238221   6.905   7.757   5.270
12759TIP3    H138222   6.983   7.730   5.222
12759TIP3    H238223   6.885   7.684   5.329
12760TIP3   OH238224   3.618   2.961   2.101
12760TIP3    H138225   3.703   2.931   2.070
12760TIP3    H238226   3.607   3.047   2.062
12761TIP3   OH238227   2.623   5.886   3.591
12761TIP3    H138228   2.706   5.882   3.543
12761TIP3    H238229   2.614   5.979   3.614
12762TIP3   OH238230   5.206   6.340   3.335
12762TIP3    H138231   5.144   6.362   3.266
12762TIP3    H238232   5.157   6.351   3.416
12763TIP3   OH238233   7.057   1.415   6.115
12763TIP3    H138234   7.139   1.373   6.138
12763TIP3    H238235   7.006   1.415   6.196
12764TIP3   OH238236   6.762   4.605   6.125
12764TIP3    H138237   6.669   4.620   6.140
12764TIP3    H238238   6.805   4.683   6.160
12765TIP3   OH238239   2.469   7.502   5.652
12765TIP3    H138240   2.469   7.591   5.618
12765TIP3    H238241   2.384   7.492   5.695
12766TIP3   OH238242   6.197   6.583   0.451
12766TIP3    H138243   6.139   6.533   0.394
12766TIP3    H238244   6.281   6.538   0.446
12767TIP3   OH238245   3.474   0.192   4.543
12767TIP3    H138246   3.391   0.144   4.543
12767TIP3    H238247   3.484   0.222   4.452
12768TIP3   OH238248   0.686   4.199   3.001
12768TIP3    H138249   0.764   4.149   2.975
12768TIP3    H238250   0.708   4.290   2.981
12769TIP3   OH238251   7.985   4.542   3.705
12769TIP3    H138252   8.050   4.476   3.679
12769TIP3    H238253   8.002   4.558   3.798
12770TIP3   OH238254   1.703   4.198   1.409
12770TIP3    H138255   1.678   4.118   1.455
12770TIP3    H238256   1.696   4.177   1.316
12771TIP3   OH238257   4.138   1.059   4.650
12771TIP3    H138258   4.194   1.101   4.716
12771TIP3    H238259   4.098   0.986   4.697
12772TIP3   OH238260   6.764   0.529   2.733
12772TIP3    H138261   6.844   0.491   2.769
12772TIP3    H238262   6.708   0.544   2.808
12773TIP3   OH238263   8.093   4.338   1.191
12773TIP3    H138264   8.130   4.424   1.215
12773TIP3    H238265   8.066   4.300   1.275
12774TIP3   OH238266   3.865   6.658   4.889
12774TIP3    H138267   3.891   6.707   4.967
12774TIP3    H238268   3.947   6.645   4.841
12775TIP3   OH238269   4.401   3.720   2.722
12775TIP3    H138270   4.441   3.693   2.639
12775TIP3    H238271   4.317   3.675   2.724
12776TIP3   OH238272   5.372   3.993   3.752
12776TIP3    H138273   5.353   4.009   3.845
12776TIP3    H238274   5.467   3.981   3.748
12777TIP3   OH238275   6.098   5.685   6.751
12777TIP3    H138276   6.192   5.678   6.730
12777TIP3    H238277   6.087   5.628   6.827
12778TIP3   OH238278   1.527   2.052   2.157
12778TIP3    H138279   1.495   1.976   2.109
12778TIP3    H238280   1.464   2.064   2.228
12779TIP3   OH238281   2.277   4.653   6.027
12779TIP3    H138282   2.194   4.617   5.998
12779TIP3    H238283   2.314   4.695   5.949
12780TIP3   OH238284   3.173   0.290   1.102
12780TIP3    H138285   3.184   0.370   1.154
12780TIP3    H238286   3.097   0.308   1.047
12781TIP3   OH238287   2.438   7.256   6.751
12781TIP3    H138288   2.498   7.322   6.786
12781TIP3    H238289   2.381   7.305   6.691
12782TIP3   OH238290   1.403   3.225   5.324
12782TIP3    H138291   1.319   3.184   5.347
12782TIP3    H238292   1.414   3.295   5.388
12783TIP3   OH238293   0.673   6.243   4.729
12783TIP3    H138294   0.716   6.274   4.650
12783TIP3    H238295   0.583   6.225   4.702
12784TIP3   OH238296   6.775   1.772   2.885
12784TIP3    H138297   6.694   1.821   2.869
12784TIP3    H238298   6.844   1.837   2.875
12785TIP3   OH238299   2.940   5.264   2.420
12785TIP3    H138300   2.863   5.301   2.462
12785TIP3    H238301   2.993   5.230   2.492
12786TIP3   OH238302   0.290   3.734   2.032
12786TIP3    H138303   0.220   3.696   1.979
12786TIP3    H238304   0.268   3.711   2.122
12787TIP3   OH238305   5.756   4.729   2.396
12787TIP3    H138306   5.672   4.710   2.354
12787TIP3    H238307   5.757   4.825   2.405
12788TIP3   OH238308   0.413   5.382   5.602
12788TIP3    H138309   0.450   5.345   5.682
12788TIP3    H238310   0.489   5.413   5.552
12789TIP3   OH238311   7.529   0.688   6.491
12789TIP3    H138312   7.566   0.613   6.443
12789TIP3    H238313   7.436   0.686   6.469
12790TIP3   OH238314   0.730   0.481   6.157
12790TIP3    H138315   0.677   0.515   6.086
12790TIP3    H238316   0.820   0.491   6.127
12791TIP3   OH238317   3.794   1.557   3.813
12791TIP3    H138318   3.738   1.584   3.885
12791TIP3    H238319   3.821   1.639   3.771
12792TIP3   OH238320   1.853   6.510   4.383
12792TIP3    H138321   1.883   6.590   4.427
12792TIP3    H238322   1.819   6.540   4.299
12793TIP3   OH238323   0.239   0.029   3.208
12793TIP3    H138324   0.161   0.044   3.261
12793TIP3    H238325   0.307   0.080   3.252
12794TIP3   OH238326   1.533   6.771   0.848
12794TIP3    H138327   1.561   6.834   0.781
12794TIP3    H238328   1.572   6.688   0.820
12795TIP3   OH238329   8.297   2.154   0.183
12795TIP3    H138330   8.320   2.061   0.172
12795TIP3    H238331   8.260   2.180   0.099
12796TIP3   OH238332   8.257   1.124   1.043
12796TIP3    H138333   8.270   1.069   1.120
12796TIP3    H238334   8.185   1.082   0.996
12797TIP3   OH238335   1.491   0.493   2.724
12797TIP3    H138336   1.573   0.511   2.678
12797TIP3    H238337   1.483   0.398   2.723
12798TIP3   OH238338   8.101   5.766   4.434
12798TIP3    H138339   8.044   5.831   4.475
12798TIP3    H238340   8.076   5.683   4.476
12799TIP3   OH238341   6.072   5.319   4.252
12799TIP3    H138342   6.066   5.415   4.253
12799TIP3    H238343   6.140   5.298   4.316
12800TIP3   OH238344   2.283   3.754   3.936
12800TIP3    H138345   2.356   3.703   3.900
12800TIP3    H238346   2.321   3.798   4.013
12801TIP3   OH238347   6.244   4.757   0.964
12801TIP3    H138348   6.238   4.758   0.868
12801TIP3    H238349   6.173   4.814   0.993
12802TIP3   OH238350   3.171   7.682   1.778
12802TIP3    H138351   3.233   7.613   1.803
12802TIP3    H238352   3.112   7.689   1.853
12803TIP3   OH238353   3.519   2.301   5.207
12803TIP3    H138354   3.577   2.225   5.202
12803TIP3    H238355   3.439   2.267   5.248
12804TIP3   OH238356   6.690   4.607   4.885
12804TIP3    H138357   6.630   4.533   4.875
12804TIP3    H238358   6.639   4.683   4.857
12805TIP3   OH238359   5.565   6.818   5.445
12805TIP3    H138360   5.475   6.806   5.476
12805TIP3    H238361   5.604   6.879   5.507
12806TIP3   OH238362   4.305   4.838   4.037
12806TIP3    H138363   4.366   4.773   4.001
12806TIP3    H238364   4.274   4.799   4.119
12807TIP3   OH238365   0.605   4.330   1.249
12807TIP3    H138366   0.603   4.350   1.343
12807TIP3    H238367   0.644   4.243   1.243
12808TIP3   OH238368   0.743   5.907   1.157
12808TIP3    H138369   0.798   5.956   1.218
12808TIP3    H238370   0.700   5.841   1.212
12809TIP3   OH238371   3.477   6.902   5.104
12809TIP3    H138372   3.523   6.818   5.101
12809TIP3    H238373   3.384   6.879   5.103
12810TIP3   OH238374   7.891   1.382   1.716
12810TIP3    H138375   7.930   1.416   1.797
12810TIP3    H238376   7.848   1.301   1.743
12811TIP3   OH238377   4.027   0.439   6.509
12811TIP3    H138378   4.025   0.363   6.452
12811TIP3    H238379   4.094   0.495   6.471
12812TIP3   OH238380   1.835   4.400   3.577
12812TIP3    H138381   1.788   4.317   3.585
12812TIP3    H238382   1.904   4.382   3.513
12813TIP3   OH238383   4.620   1.510   0.911
12813TIP3    H138384   4.623   1.416   0.927
12813TIP3    H238385   4.693   1.526   0.852
12814TIP3   OH238386   1.349   7.447   4.386
12814TIP3    H138387   1.335   7.378   4.321
12814TIP3    H238388   1.269   7.447   4.438
12815TIP3   OH238389   5.703   1.543   6.456
12815TIP3    H138390   5.708   1.568   6.364
12815TIP3    H238391   5.770   1.475   6.466
12816TIP3   OH238392   4.786   5.381   6.709
12816TIP3    H138393   4.797   5.476   6.708
12816TIP3    H238394   4.706   5.366   6.658
12817TIP3   OH238395   5.391   7.449   5.013
12817TIP3    H138396   5.305   7.420   5.043
12817TIP3    H238397   5.375   7.492   4.929
12818TIP3   OH238398   1.655   0.281   4.134
12818TIP3    H138399   1.566   0.310   4.112
12818TIP3    H238400   1.662   0.294   4.229
12819TIP3   OH238401   0.114   5.336   2.334
12819TIP3    H138402   0.067   5.356   2.415
12819TIP3    H238403   0.070   5.388   2.267
12820TIP3   OH238404   4.175   6.894   5.622
12820TIP3    H138405   4.156   6.816   5.674
12820TIP3    H238406   4.201   6.859   5.537
12821TIP3   OH238407   3.467   4.985   3.832
12821TIP3    H138408   3.466   4.922   3.905
12821TIP3    H238409   3.470   4.930   3.754
12822TIP3   OH238410   3.105   4.455   5.577
12822TIP3    H138411   3.176   4.519   5.565
12822TIP3    H238412   3.124   4.386   5.513
12823TIP3   OH238413   6.841   5.371   4.327
12823TIP3    H138414   6.925   5.397   4.287
12823TIP3    H238415   6.778   5.380   4.255
12824TIP3   OH238416   1.107   6.285   0.688
12824TIP3    H138417   1.135   6.235   0.765
12824TIP3    H238418   1.061   6.361   0.724
12825TIP3   OH238419   2.974   3.310   2.089
12825TIP3    H138420   3.031   3.236   2.067
12825TIP3    H238421   3.034   3.383   2.105
12826TIP3   OH238422   2.639   5.960   0.358
12826TIP3    H138423   2.679   6.029   0.412
12826TIP3    H238424   2.664   5.878   0.401
12827TIP3   OH238425   0.844   6.865   3.788
12827TIP3    H138426   0.936   6.881   3.811
12827TIP3    H238427   0.842   6.876   3.693
12828TIP3   OH238428   6.625   6.530   3.988
12828TIP3    H138429   6.629   6.622   4.016
12828TIP3    H238430   6.670   6.482   4.057
12829TIP3   OH238431   5.817   2.562   5.838
12829TIP3    H138432   5.783   2.508   5.768
12829TIP3    H238433   5.912   2.563   5.823
12830TIP3   OH238434   7.120   3.859   1.670
12830TIP3    H138435   7.167   3.811   1.738
12830TIP3    H238436   7.091   3.791   1.609
12831TIP3   OH238437   7.678   6.760   2.737
12831TIP3    H138438   7.698   6.756   2.831
12831TIP3    H238439   7.744   6.821   2.702
12832TIP3   OH238440   5.412   1.521   2.585
12832TIP3    H138441   5.399   1.498   2.678
12832TIP3    H238442   5.326   1.552   2.556
12833TIP3   OH238443  -0.024   3.995   1.233
12833TIP3    H138444   0.016   4.041   1.307
12833TIP3    H238445   0.026   4.025   1.157
12834TIP3   OH238446   6.034   2.023   5.455
12834TIP3    H138447   6.099   2.025   5.525
12834TIP3    H238448   6.063   1.953   5.397
12835TIP3   OH238449   1.783   1.362   3.525
12835TIP3    H138450   1.703   1.415   3.515
12835TIP3    H238451   1.765   1.282   3.476
12836TIP3   OH238452   3.059   4.263   1.862
12836TIP3    H138453   3.139   4.315   1.859
12836TIP3    H238454   3.014   4.283   1.779
12837TIP3   OH238455   2.382   0.843   2.478
12837TIP3    H138456   2.304   0.816   2.431
12837TIP3    H238457   2.366   0.817   2.568
12838TIP3   OH238458   5.246   5.036   0.670
12838TIP3    H138459   5.282   5.085   0.743
12838TIP3    H238460   5.219   5.104   0.607
12839TIP3   OH238461   4.099   4.201   5.188
12839TIP3    H138462   4.151   4.234   5.116
12839TIP3    H238463   4.153   4.213   5.266
12840TIP3   OH238464   1.611   7.252   6.105
12840TIP3    H138465   1.617   7.345   6.125
12840TIP3    H238466   1.573   7.249   6.017
12841TIP3   OH238467   5.255   1.388   4.117
12841TIP3    H138468   5.162   1.377   4.137
12841TIP3    H238469   5.258   1.472   4.070
12842TIP3   OH238470   1.514   2.090   2.450
12842TIP3    H138471   1.575   2.056   2.515
12842TIP3    H238472   1.512   2.184   2.465
12843TIP3   OH238473   1.347   5.720   1.711
12843TIP3    H138474   1.345   5.730   1.806
12843TIP3    H238475   1.314   5.632   1.695
12844TIP3   OH238476   6.665   6.355   2.231
12844TIP3    H138477   6.627   6.429   2.277
12844TIP3    H238478   6.758   6.378   2.221
12845TIP3   OH238479   1.578  -0.020   0.348
12845TIP3    H138480   1.488  -0.023   0.318
12845TIP3    H238481   1.579   0.046   0.417
12846TIP3   OH238482   7.539   2.948   6.038
12846TIP3    H138483   7.507   2.912   5.955
12846TIP3    H238484   7.465   2.943   6.098
12847TIP3   OH238485   2.378   6.023   6.695
12847TIP3    H138486   2.443   6.056   6.757
12847TIP3    H238487   2.363   6.097   6.635
12848TIP3   OH238488   3.666   3.134   4.630
12848TIP3    H138489   3.572   3.151   4.628
12848TIP3    H238490   3.673   3.039   4.624
12849TIP3   OH238491   4.000   3.927   6.263
12849TIP3    H138492   3.905   3.936   6.265
12849TIP3    H238493   4.024   3.904   6.353
12850TIP3   OH238494   4.997   6.415   6.728
12850TIP3    H138495   5.000   6.504   6.764
12850TIP3    H238496   5.089   6.394   6.711
12851TIP3   OH238497   1.919   2.197   0.896
12851TIP3    H138498   1.883   2.271   0.848
12851TIP3    H238499   1.958   2.236   0.975
12852TIP3   OH238500   6.365   5.246   6.687
12852TIP3    H138501   6.305   5.301   6.737
12852TIP3    H238502   6.312   5.212   6.615
12853TIP3   OH238503   7.785   5.214   5.697
12853TIP3    H138504   7.858   5.166   5.736
12853TIP3    H238505   7.760   5.162   5.620
12854TIP3   OH238506   4.092   1.999   5.732
12854TIP3    H138507   4.087   1.922   5.788
12854TIP3    H238508   4.182   2.030   5.741
12855TIP3   OH238509   4.538   3.214   4.612
12855TIP3    H138510   4.555   3.301   4.648
12855TIP3    H238511   4.550   3.155   4.687
12856TIP3   OH238512   0.919   0.611   2.264
12856TIP3    H138513   0.856   0.586   2.196
12856TIP3    H238514   0.981   0.539   2.266
12857TIP3   OH238515   0.448   6.466   2.814
12857TIP3    H138516   0.537   6.483   2.782
12857TIP3    H238517   0.393   6.471   2.735
12858TIP3   OH238518   2.420   7.299   5.987
12858TIP3    H138519   2.359   7.252   5.930
12858TIP3    H238520   2.375   7.303   6.072
12859TIP3   OH238521   0.076   1.242   6.076
12859TIP3    H138522   0.089   1.201   6.161
12859TIP3    H238523   0.152   1.214   6.024
12860TIP3   OH238524   4.641   2.122   2.374
12860TIP3    H138525   4.679   2.052   2.320
12860TIP3    H238526   4.605   2.077   2.450
12861TIP3   OH238527   4.950   3.964   5.096
12861TIP3    H138528   4.873   3.950   5.150
12861TIP3    H238529   5.023   3.967   5.159
12862TIP3   OH238530   0.815   0.601   1.503
12862TIP3    H138531   0.741   0.539   1.506
12862TIP3    H238532   0.805   0.645   1.418
12863TIP3   OH238533   0.617   3.668   2.190
12863TIP3    H138534   0.640   3.741   2.132
12863TIP3    H238535   0.532   3.638   2.158
12864TIP3   OH238536   0.942   2.348   3.478
12864TIP3    H138537   0.905   2.411   3.415
12864TIP3    H238538   0.970   2.274   3.425
12865TIP3   OH238539   3.012   7.617   2.008
12865TIP3    H138540   2.920   7.598   1.992
12865TIP3    H238541   3.044   7.543   2.059
12866TIP3   OH238542   5.136   2.870   2.048
12866TIP3    H138543   5.125   2.779   2.074
12866TIP3    H238544   5.085   2.920   2.112
12867TIP3   OH238545   5.671   5.361   5.083
12867TIP3    H138546   5.758   5.324   5.097
12867TIP3    H238547   5.616   5.318   5.149
12868TIP3   OH238548   5.407   2.372   2.266
12868TIP3    H138549   5.366   2.446   2.310
12868TIP3    H238550   5.484   2.352   2.320
12869TIP3   OH238551   0.082   7.774   3.570
12869TIP3    H138552   0.169   7.733   3.572
12869TIP3    H238553   0.067   7.793   3.478
12870TIP3   OH238554   2.094   3.075   5.293
12870TIP3    H138555   2.114   3.061   5.201
12870TIP3    H238556   2.019   3.135   5.292
12871TIP3   OH238557   2.081   1.039   1.633
12871TIP3    H138558   1.998   1.006   1.667
12871TIP3    H238559   2.082   1.131   1.660
12872TIP3   OH238560   4.725   2.496   5.897
12872TIP3    H138561   4.819   2.476   5.900
12872TIP3    H238562   4.683   2.410   5.900
12873TIP3   OH238563   4.805   0.364   0.612
12873TIP3    H138564   4.726   0.325   0.576
12873TIP3    H238565   4.777   0.448   0.648
12874TIP3   OH238566   5.431   5.422   1.006
12874TIP3    H138567   5.446   5.403   1.098
12874TIP3    H238568   5.390   5.509   1.005
12875TIP3   OH238569   6.109   2.791   1.105
12875TIP3    H138570   6.036   2.820   1.159
12875TIP3    H238571   6.113   2.696   1.117
12876TIP3   OH238572   3.005   3.759   0.119
12876TIP3    H138573   2.989   3.678   0.167
12876TIP3    H238574   2.927   3.770   0.064
12877TIP3   OH238575   4.535   2.739   4.095
12877TIP3    H138576   4.568   2.821   4.058
12877TIP3    H238577   4.613   2.686   4.110
12878TIP3   OH238578   6.892   0.834   2.854
12878TIP3    H138579   6.815   0.782   2.831
12878TIP3    H238580   6.952   0.823   2.780
12879TIP3   OH238581   3.437   5.576   6.639
12879TIP3    H138582   3.456   5.651   6.696
12879TIP3    H238583   3.403   5.509   6.698
12880TIP3   OH238584   6.557   4.905   5.294
12880TIP3    H138585   6.478   4.889   5.347
12880TIP3    H238586   6.585   4.818   5.267
12881TIP3   OH238587   3.259   6.129   1.996
12881TIP3    H138588   3.301   6.166   2.073
12881TIP3    H238589   3.251   6.203   1.935
12882TIP3   OH238590   1.527   5.795   3.182
12882TIP3    H138591   1.598   5.732   3.195
12882TIP3    H238592   1.571   5.880   3.178
12883TIP3   OH238593   6.403   0.329   6.483
12883TIP3    H138594   6.410   0.285   6.399
12883TIP3    H238595   6.459   0.278   6.542
12884TIP3   OH238596   4.904   7.607   5.699
12884TIP3    H138597   4.867   7.624   5.612
12884TIP3    H238598   4.829   7.614   5.758
12885TIP3   OH238599   3.658   5.848   6.523
12885TIP3    H138600   3.679   5.784   6.591
12885TIP3    H238601   3.704   5.928   6.550
12886TIP3   OH238602   2.337   4.612   0.540
12886TIP3    H138603   2.321   4.552   0.613
12886TIP3    H238604   2.328   4.699   0.578
12887TIP3   OH238605   7.468   7.028   6.802
12887TIP3    H138606   7.502   6.946   6.765
12887TIP3    H238607   7.434   7.076   6.727
12888TIP3   OH238608   7.758   7.751   2.543
12888TIP3    H138609   7.668   7.739   2.571
12888TIP3    H238610   7.789   7.663   2.522
12889TIP3   OH238611   4.991   6.598   3.691
12889TIP3    H138612   4.951   6.684   3.677
12889TIP3    H238613   5.017   6.598   3.783
12890TIP3   OH238614   5.071   2.164   4.910
12890TIP3    H138615   4.993   2.215   4.932
12890TIP3    H238616   5.054   2.077   4.945
12891TIP3   OH238617   7.787   6.649   0.164
12891TIP3    H138618   7.735   6.569   0.169
12891TIP3    H238619   7.825   6.659   0.251
12892TIP3   OH238620   6.443   1.366   5.907
12892TIP3    H138621   6.477   1.285   5.868
12892TIP3    H238622   6.417   1.340   5.995
12893TIP3   OH238623   2.146   0.662   1.027
12893TIP3    H138624   2.180   0.750   1.042
12893TIP3    H238625   2.184   0.635   0.943
12894TIP3   OH238626   8.114   7.307   2.284
12894TIP3    H138627   8.031   7.295   2.238
12894TIP3    H238628   8.133   7.401   2.276
12895TIP3   OH238629   1.559   4.040   6.585
12895TIP3    H138630   1.476   4.025   6.629
12895TIP3    H238631   1.613   3.965   6.611
12896TIP3   OH238632   3.345   1.982   3.760
12896TIP3    H138633   3.380   1.895   3.738
12896TIP3    H238634   3.361   1.991   3.854
12897TIP3   OH238635   6.715   0.456   2.327
12897TIP3    H138636   6.625   0.485   2.341
12897TIP3    H238637   6.738   0.490   2.240
12898TIP3   OH238638   3.530   6.354   2.562
12898TIP3    H138639   3.452   6.379   2.612
12898TIP3    H238640   3.495   6.307   2.486
12899TIP3   OH238641   0.619   3.573   6.516
12899TIP3    H138642   0.664   3.621   6.447
12899TIP3    H238643   0.592   3.640   6.579
12900TIP3   OH238644   2.443   3.821   3.008
12900TIP3    H138645   2.516   3.790   2.954
12900TIP3    H238646   2.479   3.827   3.096
12901TIP3   OH238647   1.441   6.065   2.620
12901TIP3    H138648   1.422   6.077   2.526
12901TIP3    H238649   1.417   5.974   2.637
12902TIP3   OH238650   7.184   3.904   5.943
12902TIP3    H138651   7.180   3.808   5.945
12902TIP3    H238652   7.160   3.931   6.031
12903TIP3   OH238653   3.664   5.955   2.539
12903TIP3    H138654   3.677   6.049   2.550
12903TIP3    H238655   3.578   5.948   2.498
12904TIP3   OH238656   6.482   2.234   5.629
12904TIP3    H138657   6.511   2.263   5.715
12904TIP3    H238658   6.533   2.155   5.612
12905TIP3   OH238659   1.798   7.263   3.739
12905TIP3    H138660   1.829   7.238   3.652
12905TIP3    H238661   1.734   7.196   3.762
12906TIP3   OH238662   7.398   4.643   2.745
12906TIP3    H138663   7.404   4.652   2.840
12906TIP3    H238664   7.488   4.659   2.714
12907TIP3   OH238665   5.101   5.904   4.948
12907TIP3    H138666   5.023   5.891   4.894
12907TIP3    H238667   5.130   5.816   4.970
12908TIP3   OH238668   4.568   3.355   3.911
12908TIP3    H138669   4.646   3.337   3.859
12908TIP3    H238670   4.591   3.432   3.963
12909TIP3   OH238671   2.210   4.327   3.314
12909TIP3    H138672   2.115   4.338   3.324
12909TIP3    H238673   2.245   4.416   3.313
12910TIP3   OH238674   7.115   6.246   4.173
12910TIP3    H138675   7.113   6.167   4.227
12910TIP3    H238676   7.056   6.227   4.100
12911TIP3   OH238677   5.181   1.304   5.783
12911TIP3    H138678   5.167   1.399   5.772
12911TIP3    H238679   5.254   1.284   5.725
12912TIP3   OH238680   5.569   6.162   0.214
12912TIP3    H138681   5.560   6.185   0.121
12912TIP3    H238682   5.563   6.067   0.215
12913TIP3   OH238683   6.223   1.446   0.792
12913TIP3    H138684   6.230   1.541   0.804
12913TIP3    H238685   6.313   1.418   0.771
12914TIP3   OH238686   1.693   1.833   5.485
12914TIP3    H138687   1.752   1.834   5.561
12914TIP3    H238688   1.726   1.763   5.429
12915TIP3   OH238689   0.468   3.637   1.120
12915TIP3    H138690   0.434   3.548   1.105
12915TIP3    H238691   0.561   3.625   1.136
12916TIP3   OH238692   6.005   3.192   5.962
12916TIP3    H138693   6.013   3.239   5.879
12916TIP3    H238694   5.969   3.257   6.023
12917TIP3   OH238695   1.221   0.800   4.881
12917TIP3    H138696   1.228   0.891   4.909
12917TIP3    H238697   1.126   0.782   4.882
12918TIP3   OH238698   2.453   3.925   5.295
12918TIP3    H138699   2.494   3.840   5.308
12918TIP3    H238700   2.526   3.986   5.288
12919TIP3   OH238701   0.009   6.148   6.648
12919TIP3    H138702   0.053   6.208   6.588
12919TIP3    H238703   0.053   6.064   6.634
12920TIP3   OH238704   7.093   6.614   2.289
12920TIP3    H138705   7.026   6.658   2.342
12920TIP3    H238706   7.163   6.679   2.281
12921TIP3   OH238707   0.778   3.041   2.998
12921TIP3    H138708   0.831   3.096   3.056
12921TIP3    H238709   0.774   3.089   2.916
12922TIP3   OH238710   1.564   6.927   5.602
12922TIP3    H138711   1.525   6.946   5.517
12922TIP3    H238712   1.606   7.009   5.628
12923TIP3   OH238713   5.961   4.420   2.750
12923TIP3    H138714   5.917   4.335   2.750
12923TIP3    H238715   5.892   4.484   2.768
12924TIP3   OH238716   6.072   5.860   2.521
12924TIP3    H138717   6.152   5.905   2.545
12924TIP3    H238718   6.086   5.769   2.550
12925TIP3   OH238719   1.022   0.152   1.578
12925TIP3    H138720   1.067   0.221   1.627
12925TIP3    H238721   0.968   0.107   1.644
12926TIP3   OH238722   7.500   5.313   4.517
12926TIP3    H138723   7.509   5.352   4.604
12926TIP3    H238724   7.557   5.366   4.461
12927TIP3   OH238725   2.068   4.080   5.682
12927TIP3    H138726   2.118   4.134   5.621
12927TIP3    H238727   2.038   4.006   5.629
12928TIP3   OH238728   0.791   0.386   6.564
12928TIP3    H138729   0.822   0.361   6.477
12928TIP3    H238730   0.749   0.471   6.551
12929TIP3   OH238731   5.372   2.089   5.650
12929TIP3    H138732   5.429   2.119   5.580
12929TIP3    H238733   5.421   2.105   5.730
12930TIP3   OH238734   0.589   7.507   0.860
12930TIP3    H138735   0.543   7.576   0.908
12930TIP3    H238736   0.682   7.524   0.879
12931TIP3   OH238737   3.898   0.156   0.356
12931TIP3    H138738   3.841   0.145   0.433
12931TIP3    H238739   3.865   0.093   0.293
12932TIP3   OH238740   1.425   7.310   2.511
12932TIP3    H138741   1.419   7.249   2.584
12932TIP3    H238742   1.499   7.277   2.459
12933TIP3   OH238743   3.314   0.768   1.925
12933TIP3    H138744   3.313   0.782   1.831
12933TIP3    H238745   3.266   0.842   1.961
12934TIP3   OH238746   4.635   3.007   6.461
12934TIP3    H138747   4.725   2.986   6.488
12934TIP3    H238748   4.626   2.967   6.375
12935TIP3   OH238749   3.309   7.506   1.952
12935TIP3    H138750   3.289   7.490   2.044
12935TIP3    H238751   3.387   7.453   1.935
12936TIP3   OH238752   2.144   1.318   2.642
12936TIP3    H138753   2.098   1.389   2.598
12936TIP3    H238754   2.108   1.318   2.731
12937TIP3   OH238755   0.551   0.728   5.260
12937TIP3    H138756   0.556   0.654   5.200
12937TIP3    H238757   0.477   0.706   5.318
12938TIP3   OH238758   3.869   7.784   1.217
12938TIP3    H138759   3.808   7.718   1.184
12938TIP3    H238760   3.955   7.754   1.187
12939TIP3   OH238761   6.522   4.402   4.835
12939TIP3    H138762   6.446   4.459   4.843
12939TIP3    H238763   6.486   4.313   4.832
12940TIP3   OH238764   4.070   2.293   3.223
12940TIP3    H138765   4.110   2.342   3.152
12940TIP3    H238766   4.072   2.202   3.193
12941TIP3   OH238767   3.554   4.005   3.871
12941TIP3    H138768   3.505   3.936   3.826
12941TIP3    H238769   3.615   4.037   3.804
12942TIP3   OH238770   0.875   4.385   2.179
12942TIP3    H138771   0.902   4.325   2.109
12942TIP3    H238772   0.957   4.411   2.221
12943TIP3   OH238773   0.547   0.806   0.541
12943TIP3    H138774   0.640   0.808   0.566
12943TIP3    H238775   0.501   0.841   0.617
12944TIP3   OH238776   4.089   1.787   5.937
12944TIP3    H138777   4.037   1.707   5.949
12944TIP3    H238778   4.082   1.832   6.021
12945TIP3   OH238779   3.724   5.437   6.459
12945TIP3    H138780   3.764   5.437   6.373
12945TIP3    H238781   3.630   5.448   6.442
12946TIP3   OH238782   3.381   0.785   4.941
12946TIP3    H138783   3.387   0.698   4.981
12946TIP3    H238784   3.382   0.768   4.847
12947TIP3   OH238785   6.680   1.495   6.478
12947TIP3    H138786   6.624   1.447   6.417
12947TIP3    H238787   6.663   1.587   6.459
12948TIP3   OH238788   0.384   1.484   5.225
12948TIP3    H138789   0.300   1.456   5.188
12948TIP3    H238790   0.394   1.574   5.196
12949TIP3   OH238791   4.984   6.204   3.898
12949TIP3    H138792   5.078   6.187   3.902
12949TIP3    H238793   4.976   6.299   3.895
12950TIP3   OH238794   0.909   1.479   2.170
12950TIP3    H138795   0.891   1.385   2.173
12950TIP3    H238796   0.920   1.505   2.261
12951TIP3   OH238797   2.508   5.558   1.458
12951TIP3    H138798   2.528   5.639   1.412
12951TIP3    H238799   2.518   5.580   1.551
12952TIP3   OH238800   6.871   6.309   1.064
12952TIP3    H138801   6.875   6.294   0.970
12952TIP3    H238802   6.871   6.405   1.074
12953TIP3   OH238803   6.087   2.523   5.402
12953TIP3    H138804   6.096   2.603   5.455
12953TIP3    H238805   6.152   2.463   5.440
12954TIP3   OH238806   5.229   4.598   2.214
12954TIP3    H138807   5.267   4.527   2.162
12954TIP3    H238808   5.238   4.676   2.160
12955TIP3   OH238809   2.904   2.795   1.092
12955TIP3    H138810   2.869   2.732   1.156
12955TIP3    H238811   2.961   2.852   1.144
12956TIP3   OH238812   1.740   6.035   6.371
12956TIP3    H138813   1.724   6.120   6.329
12956TIP3    H238814   1.830   6.041   6.403
12957TIP3   OH238815   4.091   7.641   6.640
12957TIP3    H138816   4.118   7.708   6.703
12957TIP3    H238817   4.075   7.563   6.693
12958TIP3   OH238818   6.400   7.674   0.861
12958TIP3    H138819   6.380   7.602   0.802
12958TIP3    H238820   6.446   7.633   0.934
12959TIP3   OH238821   5.934   6.957   4.829
12959TIP3    H138822   5.908   7.025   4.890
12959TIP3    H238823   5.866   6.958   4.762
12960TIP3   OH238824   0.248   7.596   0.608
12960TIP3    H138825   0.177   7.571   0.549
12960TIP3    H238826   0.248   7.527   0.675
12961TIP3   OH238827   3.041   5.946   3.047
12961TIP3    H138828   2.976   5.929   3.115
12961TIP3    H238829   3.120   5.902   3.078
12962TIP3   OH238830   4.968   3.948   4.812
12962TIP3    H138831   4.958   3.933   4.907
12962TIP3    H238832   4.992   4.040   4.805
12963TIP3   OH238833   5.703   6.955   4.648
12963TIP3    H138834   5.652   6.902   4.709
12963TIP3    H238835   5.754   6.891   4.598
12964TIP3   OH238836   7.820   4.030   3.197
12964TIP3    H138837   7.898   4.023   3.142
12964TIP3    H238838   7.818   3.948   3.246
12965TIP3   OH238839   0.599   0.710   1.679
12965TIP3    H138840   0.571   0.657   1.604
12965TIP3    H238841   0.571   0.660   1.755
12966TIP3   OH238842   0.369   0.810   4.229
12966TIP3    H138843   0.437   0.787   4.165
12966TIP3    H238844   0.362   0.905   4.224
12967TIP3   OH238845   0.505   3.129   5.215
12967TIP3    H138846   0.524   3.113   5.123
12967TIP3    H238847   0.537   3.050   5.260
12968TIP3   OH238848   4.413   6.464   3.272
12968TIP3    H138849   4.394   6.447   3.180
12968TIP3    H238850   4.423   6.377   3.311
12969TIP3   OH238851   1.409   3.730   6.124
12969TIP3    H138852   1.404   3.639   6.095
12969TIP3    H238853   1.482   3.768   6.074
12970TIP3   OH238854   6.789   1.520   2.055
12970TIP3    H138855   6.714   1.574   2.029
12970TIP3    H238856   6.863   1.558   2.008
12971TIP3   OH238857   5.277   4.161   0.129
12971TIP3    H138858   5.197   4.212   0.135
12971TIP3    H238859   5.301   4.163   0.037
12972TIP3   OH238860   7.903   2.421   0.602
12972TIP3    H138861   7.867   2.334   0.619
12972TIP3    H238862   7.832   2.468   0.558
12973TIP3   OH238863   3.938   6.787   6.278
12973TIP3    H138864   4.019   6.745   6.250
12973TIP3    H238865   3.919   6.745   6.362
12974TIP3   OH238866   6.804   3.755   5.593
12974TIP3    H138867   6.818   3.725   5.503
12974TIP3    H238868   6.877   3.814   5.611
12975TIP3   OH238869   4.299   0.966   2.201
12975TIP3    H138870   4.276   0.887   2.151
12975TIP3    H238871   4.258   1.038   2.153
12976TIP3   OH238872   0.973   4.666   4.400
12976TIP3    H138873   0.982   4.663   4.495
12976TIP3    H238874   0.896   4.721   4.385
12977TIP3   OH238875   4.974   0.280   5.928
12977TIP3    H138876   4.918   0.256   5.854
12977TIP3    H238877   5.058   0.304   5.888
12978TIP3   OH238878   7.005   2.692   3.742
12978TIP3    H138879   7.034   2.634   3.812
12978TIP3    H238880   6.999   2.778   3.784
12979TIP3   OH238881   8.191   4.568   4.987
12979TIP3    H138882   8.102   4.596   4.964
12979TIP3    H238883   8.218   4.629   5.055
12980TIP3   OH238884   2.703   7.810   4.896
12980TIP3    H138885   2.741   7.887   4.853
12980TIP3    H238886   2.779   7.757   4.920
12981TIP3   OH238887   0.663   2.878   1.999
12981TIP3    H138888   0.647   2.907   2.089
12981TIP3    H238889   0.596   2.923   1.947
12982TIP3   OH238890   6.191   0.882   0.510
12982TIP3    H138891   6.241   0.800   0.505
12982TIP3    H238892   6.255   0.946   0.540
12983TIP3   OH238893   2.505   6.575   0.862
12983TIP3    H138894   2.513   6.597   0.955
12983TIP3    H238895   2.417   6.607   0.838
12984TIP3   OH238896   3.581   7.403   1.951
12984TIP3    H138897   3.664   7.392   1.998
12984TIP3    H238898   3.605   7.404   1.859
12985TIP3   OH238899   2.812   3.127   0.984
12985TIP3    H138900   2.743   3.186   0.956
12985TIP3    H238901   2.776   3.081   1.060
12986TIP3   OH238902   4.306   2.184   3.112
12986TIP3    H138903   4.393   2.145   3.117
12986TIP3    H238904   4.322   2.279   3.112
12987TIP3   OH238905   3.629   6.487   0.276
12987TIP3    H138906   3.544   6.471   0.318
12987TIP3    H238907   3.639   6.414   0.215
12988TIP3   OH238908   7.249   1.964   4.376
12988TIP3    H138909   7.267   1.928   4.290
12988TIP3    H238910   7.185   1.904   4.415
12989TIP3   OH238911   3.151   6.771   6.231
12989TIP3    H138912   3.159   6.866   6.220
12989TIP3    H238913   3.140   6.738   6.143
12990TIP3   OH238914   0.682   4.659   6.662
12990TIP3    H138915   0.625   4.616   6.600
12990TIP3    H238916   0.637   4.741   6.684
12991TIP3   OH238917   0.209   0.444   2.707
12991TIP3    H138918   0.164   0.376   2.757
12991TIP3    H238919   0.151   0.462   2.632
12992TIP3   OH238920   1.083   2.756   1.482
12992TIP3    H138921   1.026   2.681   1.501
12992TIP3    H238922   1.162   2.717   1.446
12993TIP3   OH238923   2.998   4.144   5.713
12993TIP3    H138924   3.023   4.067   5.764
12993TIP3    H238925   3.050   4.138   5.633
12994TIP3   OH238926   7.421   5.998   2.683
12994TIP3    H138927   7.460   5.979   2.768
12994TIP3    H238928   7.329   5.976   2.693
12995TIP3   OH238929   1.951   4.954   1.143
12995TIP3    H138930   1.895   4.897   1.196
12995TIP3    H238931   1.950   5.037   1.189
12996TIP3   OH238932   4.209   5.877   3.351
12996TIP3    H138933   4.202   5.973   3.352
12996TIP3    H238934   4.246   5.858   3.264
12997TIP3   OH238935   5.115   5.446   2.576
12997TIP3    H138936   5.114   5.350   2.576
12997TIP3    H238937   5.130   5.470   2.484
12998TIP3   OH238938   2.131   3.696   6.118
12998TIP3    H138939   2.180   3.735   6.046
12998TIP3    H238940   2.076   3.629   6.076
12999TIP3   OH238941   0.347   3.056   3.514
12999TIP3    H138942   0.324   3.073   3.605
12999TIP3    H238943   0.265   3.065   3.466
13000TIP3   OH238944   1.537   7.697   0.850
13000TIP3    H138945   1.505   7.696   0.941
13000TIP3    H238946   1.629   7.723   0.858
13001TIP3   OH238947   6.829   1.485   4.830
13001TIP3    H138948   6.862   1.575   4.837
13001TIP3    H238949   6.774   1.473   4.907
13002TIP3   OH238950   5.981   7.316   0.739
13002TIP3    H138951   5.992   7.411   0.734
13002TIP3    H238952   5.892   7.301   0.707
13003TIP3   OH238953   0.509   3.726   3.581
13003TIP3    H138954   0.416   3.717   3.601
13003TIP3    H238955   0.554   3.700   3.662
13004TIP3   OH238956   1.437   3.375   1.285
13004TIP3    H138957   1.486   3.456   1.300
13004TIP3    H238958   1.364   3.380   1.346
13005TIP3   OH238959   7.614   1.096   1.378
13005TIP3    H138960   7.612   1.044   1.297
13005TIP3    H238961   7.707   1.109   1.396
13006TIP3   OH238962   2.409   5.198   0.632
13006TIP3    H138963   2.389   5.220   0.541
13006TIP3    H238964   2.386   5.277   0.681
13007TIP3   OH238965   1.172   0.272   3.385
13007TIP3    H138966   1.086   0.235   3.405
13007TIP3    H238967   1.176   0.352   3.438
13008TIP3   OH238968   7.366   1.153   1.468
13008TIP3    H138969   7.454   1.164   1.432
13008TIP3    H238970   7.379   1.107   1.551
13009TIP3   OH238971   5.256   6.747   2.143
13009TIP3    H138972   5.181   6.803   2.125
13009TIP3    H238973   5.222   6.681   2.204
13010TIP3   OH238974   4.756   1.671   4.558
13010TIP3    H138975   4.790   1.630   4.478
13010TIP3    H238976   4.748   1.764   4.536
13011TIP3   OH238977   4.751   6.563   3.410
13011TIP3    H138978   4.724   6.563   3.501
13011TIP3    H238979   4.752   6.471   3.385
13012TIP3   OH238980   4.684   1.475   1.207
13012TIP3    H138981   4.668   1.502   1.116
13012TIP3    H238982   4.769   1.514   1.228
13013TIP3   OH238983   3.395   5.983   3.905
13013TIP3    H138984   3.348   5.968   3.987
13013TIP3    H238985   3.366   6.069   3.876
13014TIP3   OH238986   7.634   3.984   2.420
13014TIP3    H138987   7.577   4.061   2.422
13014TIP3    H238988   7.683   3.987   2.502
13015TIP3   OH238989   7.308   3.796   4.604
13015TIP3    H138990   7.340   3.865   4.662
13015TIP3    H238991   7.373   3.790   4.534
13016TIP3   OH238992   6.047   7.233   5.271
13016TIP3    H138993   6.081   7.258   5.357
13016TIP3    H238994   5.988   7.304   5.246
13017TIP3   OH238995   5.155   3.639   5.286
13017TIP3    H138996   5.196   3.676   5.207
13017TIP3    H238997   5.073   3.600   5.254
13018TIP3   OH238998   3.068   1.238   3.288
13018TIP3    H138999   2.983   1.273   3.261
13018TIP3    H239000   3.047   1.156   3.332
13019TIP3   OH239001   2.838   5.906   5.470
13019TIP3    H139002   2.853   6.001   5.463
13019TIP3    H239003   2.751   5.893   5.432
13020TIP3   OH239004   7.737   3.399   6.579
13020TIP3    H139005   7.824   3.363   6.593
13020TIP3    H239006   7.689   3.378   6.660
13021TIP3   OH239007   3.863   5.195   0.566
13021TIP3    H139008   3.835   5.105   0.552
13021TIP3    H239009   3.831   5.242   0.489
13022TIP3   OH239010   2.680   5.116   5.282
13022TIP3    H139011   2.614   5.175   5.319
13022TIP3    H239012   2.636   5.075   5.208
13023TIP3   OH239013   4.655   1.338   5.031
13023TIP3    H139014   4.576   1.389   5.050
13023TIP3    H239015   4.628   1.273   4.967
13024TIP3   OH239016   6.026   5.535   5.584
13024TIP3    H139017   5.958   5.515   5.519
13024TIP3    H239018   6.017   5.628   5.600
13025TIP3   OH239019   4.953   1.852   0.739
13025TIP3    H139020   4.913   1.792   0.802
13025TIP3    H239021   5.042   1.863   0.770
13026TIP3   OH239022   2.012   5.116   3.070
13026TIP3    H139023   2.058   5.085   2.992
13026TIP3    H239024   2.073   5.178   3.110
13027TIP3   OH239025   5.524   0.836   0.375
13027TIP3    H139026   5.606   0.881   0.355
13027TIP3    H239027   5.459   0.906   0.383
13028TIP3   OH239028   2.228   2.897   1.174
13028TIP3    H139029   2.206   2.968   1.113
13028TIP3    H239030   2.143   2.868   1.207
13029TIP3   OH239031   6.045   2.534   1.122
13029TIP3    H139032   5.968   2.487   1.091
13029TIP3    H239033   6.110   2.466   1.138
13030TIP3   OH239034   6.652   3.134   3.011
13030TIP3    H139035   6.711   3.059   3.022
13030TIP3    H239036   6.577   3.099   2.963
13031TIP3   OH239037   4.426   7.774   4.906
13031TIP3    H139038   4.447   7.784   4.999
13031TIP3    H239039   4.502   7.729   4.869
13032TIP3   OH239040   7.960   5.853   5.498
13032TIP3    H139041   7.952   5.949   5.503
13032TIP3    H239042   8.022   5.831   5.567
13033TIP3   OH239043   3.248   1.045   1.717
13033TIP3    H139044   3.200   1.089   1.647
13033TIP3    H239045   3.321   1.002   1.674
13034TIP3   OH239046   0.926   5.250   0.745
13034TIP3    H139047   0.933   5.297   0.829
13034TIP3    H239048   0.958   5.162   0.764
13035TIP3   OH239049   2.677   3.878   5.881
13035TIP3    H139050   2.621   3.898   5.957
13035TIP3    H239051   2.684   3.782   5.881
13036TIP3   OH239052   0.833   7.315   5.475
13036TIP3    H139053   0.790   7.247   5.527
13036TIP3    H239054   0.852   7.385   5.538
13037TIP3   OH239055   1.438   5.038   2.655
13037TIP3    H139056   1.493   5.092   2.599
13037TIP3    H239057   1.382   5.100   2.702
13038TIP3   OH239058   1.892   6.108   4.455
13038TIP3    H139059   1.807   6.085   4.417
13038TIP3    H239060   1.941   6.145   4.382
13039TIP3   OH239061   7.796   2.292   0.206
13039TIP3    H139062   7.891   2.289   0.220
13039TIP3    H239063   7.785   2.329   0.119
13040TIP3   OH239064   2.893   4.379   1.659
13040TIP3    H139065   2.908   4.443   1.589
13040TIP3    H239066   2.847   4.307   1.615
13041TIP3   OH239067   3.612   0.483   4.660
13041TIP3    H139068   3.661   0.402   4.647
13041TIP3    H239069   3.602   0.519   4.572
13042TIP3   OH239070   3.550   0.791   6.602
13042TIP3    H139071   3.635   0.764   6.638
13042TIP3    H239072   3.554   0.765   6.510
13043TIP3   OH239073   1.882   5.829   0.218
13043TIP3    H139074   1.838   5.906   0.254
13043TIP3    H239075   1.895   5.850   0.125
13044TIP3   OH239076   5.947   3.784   2.317
13044TIP3    H139077   5.931   3.808   2.408
13044TIP3    H239078   5.872   3.729   2.294
13045TIP3   OH239079   2.821   7.651   0.642
13045TIP3    H139080   2.907   7.691   0.657
13045TIP3    H239081   2.836   7.589   0.571
13046TIP3   OH239082   5.285   4.805   6.161
13046TIP3    H139083   5.229   4.803   6.083
13046TIP3    H239084   5.356   4.745   6.141
13047TIP3   OH239085   4.670   4.119   0.874
13047TIP3    H139086   4.670   4.061   0.798
13047TIP3    H239087   4.661   4.059   0.949
13048TIP3   OH239088   1.430   5.538   6.643
13048TIP3    H139089   1.389   5.553   6.728
13048TIP3    H239090   1.406   5.449   6.621
13049TIP3   OH239091   4.177   3.522   0.160
13049TIP3    H139092   4.206   3.534   0.070
13049TIP3    H239093   4.082   3.520   0.155
13050TIP3   OH239094   4.309   7.502   1.360
13050TIP3    H139095   4.269   7.447   1.292
13050TIP3    H239096   4.368   7.561   1.311
13051TIP3   OH239097   7.935   6.540   5.424
13051TIP3    H139098   7.961   6.551   5.515
13051TIP3    H239099   7.870   6.609   5.409
13052TIP3   OH239100   1.420   1.907   3.543
13052TIP3    H139101   1.374   1.987   3.518
13052TIP3    H239102   1.442   1.920   3.635
13053TIP3   OH239103   4.864   6.974   3.502
13053TIP3    H139104   4.859   7.023   3.419
13053TIP3    H239105   4.879   7.041   3.568
13054TIP3   OH239106   2.047   1.732   0.044
13054TIP3    H139107   2.072   1.768   0.129
13054TIP3    H239108   1.955   1.755   0.034
13055TIP3   OH239109   1.378   0.709   1.857
13055TIP3    H139110   1.380   0.791   1.905
13055TIP3    H239111   1.430   0.648   1.910
13056TIP3   OH239112   7.489   0.947   0.542
13056TIP3    H139113   7.472   0.961   0.635
13056TIP3    H239114   7.515   0.855   0.536
13057TIP3   OH239115   7.360   2.611  -0.024
13057TIP3    H139116   7.323   2.524  -0.010
13057TIP3    H239117   7.301   2.670   0.022
13058TIP3   OH239118   7.234   3.457   4.084
13058TIP3    H139119   7.325   3.430   4.099
13058TIP3    H239120   7.215   3.519   4.154
13059TIP3   OH239121   6.495   0.646   4.996
13059TIP3    H139122   6.451   0.728   5.017
13059TIP3    H239123   6.430   0.578   5.014
13060TIP3   OH239124   6.299   0.180   1.827
13060TIP3    H139125   6.237   0.173   1.756
13060TIP3    H239126   6.365   0.113   1.808
13061TIP3   OH239127   8.193   3.246   5.302
13061TIP3    H139128   8.255   3.238   5.374
13061TIP3    H239129   8.189   3.159   5.263
13062TIP3   OH239130   6.669   4.916   0.120
13062TIP3    H139131   6.606   4.977   0.082
13062TIP3    H239132   6.748   4.967   0.133
13063TIP3   OH239133   2.447   1.957   4.037
13063TIP3    H139134   2.414   2.026   3.979
13063TIP3    H239135   2.539   1.947   4.012
13064TIP3   OH239136   1.818   1.943   5.772
13064TIP3    H139137   1.841   1.855   5.742
13064TIP3    H239138   1.738   1.930   5.823
13065TIP3   OH239139   6.692   0.393   5.223
13065TIP3    H139140   6.732   0.464   5.172
13065TIP3    H239141   6.748   0.384   5.300
13066TIP3   OH239142   6.539   7.144   0.071
13066TIP3    H139143   6.623   7.182   0.099
13066TIP3    H239144   6.534   7.162  -0.022
13067TIP3   OH239145   4.366   3.773   5.258
13067TIP3    H139146   4.333   3.685   5.237
13067TIP3    H239147   4.331   3.791   5.345
13068TIP3   OH239148   0.884   7.309   3.805
13068TIP3    H139149   0.950   7.242   3.785
13068TIP3    H239150   0.831   7.269   3.874
13069TIP3   OH239151   2.503   0.438   0.676
13069TIP3    H139152   2.502   0.534   0.679
13069TIP3    H239153   2.513   0.418   0.583
13070TIP3   OH239154   0.228   6.507   4.900
13070TIP3    H139155   0.205   6.595   4.931
13070TIP3    H239156   0.244   6.518   4.807
13071TIP3   OH239157   2.574   4.989   0.635
13071TIP3    H139158   2.504   5.054   0.635
13071TIP3    H239159   2.550   4.927   0.566
13072TIP3   OH239160   5.524   1.481   5.153
13072TIP3    H139161   5.586   1.409   5.163
13072TIP3    H239162   5.443   1.439   5.124
13073TIP3   OH239163   6.030   7.375   6.453
13073TIP3    H139164   5.988   7.402   6.534
13073TIP3    H239165   6.020   7.450   6.394
13074TIP3   OH239166   6.278   6.969   0.560
13074TIP3    H139167   6.360   6.966   0.512
13074TIP3    H239168   6.275   7.057   0.597
13075TIP3   OH239169   6.826   7.019   5.264
13075TIP3    H139170   6.797   6.933   5.234
13075TIP3    H239171   6.892   7.001   5.330
13076TIP3   OH239172   0.137   6.303   1.568
13076TIP3    H139173   0.124   6.235   1.502
13076TIP3    H239174   0.139   6.256   1.651
13077TIP3   OH239175   2.992   3.599   2.835
13077TIP3    H139176   2.928   3.564   2.898
13077TIP3    H239177   3.000   3.530   2.769
13078TIP3   OH239178   2.505   4.211   6.615
13078TIP3    H139179   2.466   4.171   6.538
13078TIP3    H239180   2.556   4.285   6.581
13079TIP3   OH239181   4.086   7.605   4.345
13079TIP3    H139182   4.023   7.602   4.273
13079TIP3    H239183   4.080   7.695   4.377
13080TIP3   OH239184   1.075   5.417   1.199
13080TIP3    H139185   1.005   5.483   1.200
13080TIP3    H239186   1.062   5.368   1.280
13081TIP3   OH239187   4.917   0.084   0.677
13081TIP3    H139188   4.825   0.059   0.691
13081TIP3    H239189   4.913   0.173   0.643
13082TIP3   OH239190   5.356   5.279   3.917
13082TIP3    H139191   5.384   5.301   3.828
13082TIP3    H239192   5.276   5.329   3.930
13083TIP3   OH239193   6.588   3.384   2.793
13083TIP3    H139194   6.619   3.434   2.718
13083TIP3    H239195   6.665   3.373   2.849
13084TIP3   OH239196   4.286   0.287   0.137
13084TIP3    H139197   4.335   0.350   0.084
13084TIP3    H239198   4.335   0.205   0.129
13085TIP3   OH239199   7.479   4.221   2.387
13085TIP3    H139200   7.480   4.307   2.430
13085TIP3    H239201   7.387   4.195   2.388
13086TIP3   OH239202   2.871   6.208   4.117
13086TIP3    H139203   2.869   6.186   4.210
13086TIP3    H239204   2.793   6.260   4.103
13087TIP3   OH239205   2.607   6.328   0.843
13087TIP3    H139206   2.568   6.416   0.849
13087TIP3    H239207   2.688   6.342   0.793
13088TIP3   OH239208   1.927   2.701   0.044
13088TIP3    H139209   1.960   2.611   0.044
13088TIP3    H239210   1.832   2.692   0.040
13089TIP3   OH239211   3.490   6.181   6.642
13089TIP3    H139212   3.543   6.134   6.706
13089TIP3    H239213   3.401   6.149   6.658
13090TIP3   OH239214   2.738   5.753   6.683
13090TIP3    H139215   2.816   5.733   6.632
13090TIP3    H239216   2.738   5.687   6.753
13091TIP3   OH239217   6.471   1.423   2.551
13091TIP3    H139218   6.433   1.423   2.639
13091TIP3    H239219   6.397   1.444   2.493
13092TIP3   OH239220   3.539   4.025   2.952
13092TIP3    H139221   3.586   3.999   3.031
13092TIP3    H239222   3.564   4.116   2.937
13093TIP3   OH239223   5.499   5.516   2.428
13093TIP3    H139224   5.545   5.484   2.350
13093TIP3    H239225   5.498   5.611   2.416
13094TIP3   OH239226   2.250   1.537   6.062
13094TIP3    H139227   2.257   1.626   6.095
13094TIP3    H239228   2.180   1.497   6.114
13095TIP3   OH239229   3.604   2.046   1.694
13095TIP3    H139230   3.633   1.966   1.651
13095TIP3    H239231   3.520   2.024   1.734
13096TIP3   OH239232   6.422   6.298   4.829
13096TIP3    H139233   6.466   6.363   4.884
13096TIP3    H239234   6.493   6.243   4.796
13097TIP3   OH239235   7.172   6.269   0.303
13097TIP3    H139236   7.115   6.298   0.374
13097TIP3    H239237   7.207   6.350   0.266
13098TIP3   OH239238   3.655   3.298   4.038
13098TIP3    H139239   3.736   3.287   4.089
13098TIP3    H239240   3.650   3.219   3.984
13099TIP3   OH239241   2.202   0.149   6.062
13099TIP3    H139242   2.150   0.140   6.142
13099TIP3    H239243   2.236   0.238   6.065
13100TIP3   OH239244   4.660   0.882   0.080
13100TIP3    H139245   4.658   0.909   0.172
13100TIP3    H239246   4.671   0.964   0.032
13101TIP3   OH239247   0.212   4.795   0.158
13101TIP3    H139248   0.198   4.839   0.242
13101TIP3    H239249   0.206   4.865   0.093
13102TIP3   OH239250   0.232   4.541   0.030
13102TIP3    H139251   0.312   4.513  -0.015
13102TIP3    H239252   0.247   4.633   0.051
13103TIP3   OH239253   1.430   3.207   2.013
13103TIP3    H139254   1.437   3.302   2.010
13103TIP3    H239255   1.356   3.186   1.957
13104TIP3   OH239256   7.318   2.470   2.016
13104TIP3    H139257   7.389   2.482   1.953
13104TIP3    H239258   7.300   2.559   2.049
13105TIP3   OH239259   2.671   1.552   0.517
13105TIP3    H139260   2.598   1.513   0.566
13105TIP3    H239261   2.654   1.528   0.426
13106TIP3   OH239262   7.095   2.891   6.323
13106TIP3    H139263   7.045   2.829   6.377
13106TIP3    H239264   7.029   2.953   6.292
13107TIP3   OH239265   2.741   1.713   4.788
13107TIP3    H139266   2.792   1.660   4.726
13107TIP3    H239267   2.720   1.653   4.860
13108TIP3   OH239268   4.505   1.038   3.377
13108TIP3    H139269   4.532   1.089   3.453
13108TIP3    H239270   4.502   1.101   3.305
13109TIP3   OH239271   3.034   1.710   2.028
13109TIP3    H139272   2.960   1.728   2.086
13109TIP3    H239273   3.092   1.654   2.080
13110TIP3   OH239274   1.661   0.792   2.476
13110TIP3    H139275   1.702   0.808   2.391
13110TIP3    H239276   1.589   0.855   2.480
13111TIP3   OH239277   6.553   3.712   4.089
13111TIP3    H139278   6.610   3.774   4.044
13111TIP3    H239279   6.609   3.670   4.154
13112TIP3   OH239280   7.530   3.461   4.210
13112TIP3    H139281   7.537   3.380   4.261
13112TIP3    H239282   7.517   3.431   4.120
13113TIP3   OH239283   4.981   1.312   5.423
13113TIP3    H139284   4.982   1.262   5.341
13113TIP3    H239285   5.074   1.320   5.446
13114TIP3   OH239286   7.545   2.850   0.641
13114TIP3    H139287   7.596   2.874   0.718
13114TIP3    H239288   7.610   2.820   0.577
13115TIP3   OH239289   0.326   4.143   6.669
13115TIP3    H139290   0.415   4.109   6.675
13115TIP3    H239291   0.270   4.065   6.671
13116TIP3   OH239292   2.908   3.967   3.932
13116TIP3    H139293   2.830   3.991   3.982
13116TIP3    H239294   2.897   3.873   3.915
13117TIP3   OH239295   6.424   6.055   3.554
13117TIP3    H139296   6.400   5.962   3.552
13117TIP3    H239297   6.479   6.066   3.476
13118TIP3   OH239298   2.013   3.542   0.178
13118TIP3    H139299   2.040   3.526   0.268
13118TIP3    H239300   1.934   3.595   0.184
13119TIP3   OH239301   0.022   1.251   2.783
13119TIP3    H139302   0.065   1.324   2.829
13119TIP3    H239303   0.075   1.240   2.704
13120TIP3   OH239304   4.742   2.737   5.763
13120TIP3    H139305   4.680   2.706   5.697
13120TIP3    H239306   4.750   2.664   5.825
13121TIP3   OH239307   1.629   3.659   6.328
13121TIP3    H139308   1.560   3.718   6.299
13121TIP3    H239309   1.644   3.683   6.419
13122TIP3   OH239310   4.986   0.256   2.715
13122TIP3    H139311   5.073   0.250   2.677
13122TIP3    H239312   4.971   0.349   2.728
13123TIP3   OH239313   6.457   6.805   3.925
13123TIP3    H139314   6.406   6.840   3.998
13123TIP3    H239315   6.405   6.733   3.891
13124TIP3   OH239316   3.754   2.229   4.678
13124TIP3    H139317   3.823   2.292   4.658
13124TIP3    H239318   3.771   2.154   4.621
13125TIP3   OH239319   6.518   7.746   1.401
13125TIP3    H139320   6.509   7.666   1.452
13125TIP3    H239321   6.584   7.797   1.447
13126TIP3   OH239322   4.271   2.283   3.705
13126TIP3    H139323   4.252   2.246   3.618
13126TIP3    H239324   4.246   2.375   3.697
13127TIP3   OH239325   7.403   3.668   5.917
13127TIP3    H139326   7.422   3.745   5.863
13127TIP3    H239327   7.459   3.599   5.882
13128TIP3   OH239328   5.964   0.038   6.497
13128TIP3    H139329   6.006   0.043   6.582
13128TIP3    H239330   6.036   0.039   6.434
13129TIP3   OH239331   3.773   5.204   4.579
13129TIP3    H139332   3.721   5.162   4.648
13129TIP3    H239333   3.707   5.236   4.516
13130TIP3   OH239334   3.142   7.503   0.060
13130TIP3    H139335   3.165   7.494   0.153
13130TIP3    H239336   3.158   7.595   0.040
13131TIP3   OH239337   1.672   2.805   0.337
13131TIP3    H139338   1.719   2.829   0.257
13131TIP3    H239339   1.740   2.779   0.398
13132TIP3   OH239340   6.107   3.008   0.955
13132TIP3    H139341   6.037   3.009   0.889
13132TIP3    H239342   6.105   2.920   0.992
13133TIP3   OH239343   7.969   6.760   4.925
13133TIP3    H139344   7.925   6.830   4.878
13133TIP3    H239345   7.901   6.720   4.979
13134TIP3   OH239346   0.938   5.510   3.341
13134TIP3    H139347   0.882   5.461   3.281
13134TIP3    H239348   0.881   5.579   3.374
13135TIP3   OH239349   4.938   3.665   3.342
13135TIP3    H139350   4.940   3.689   3.435
13135TIP3    H239351   5.015   3.707   3.305
13136TIP3   OH239352   6.137   3.454   2.172
13136TIP3    H139353   6.121   3.414   2.087
13136TIP3    H239354   6.233   3.460   2.178
13137TIP3   OH239355   8.073   4.771   2.947
13137TIP3    H139356   8.118   4.686   2.949
13137TIP3    H239357   8.100   4.811   2.864
13138TIP3   OH239358   2.398   7.363   3.719
13138TIP3    H139359   2.448   7.299   3.668
13138TIP3    H239360   2.351   7.414   3.652
13139TIP3   OH239361   5.853   5.597   2.253
13139TIP3    H139362   5.935   5.638   2.280
13139TIP3    H239363   5.821   5.651   2.181
13140TIP3   OH239364   3.081   3.703   3.395
13140TIP3    H139365   3.088   3.649   3.473
13140TIP3    H239366   3.074   3.641   3.323
13141TIP3   OH239367   6.510   4.697   5.548
13141TIP3    H139368   6.451   4.649   5.490
13141TIP3    H239369   6.570   4.630   5.582
13142TIP3   OH239370   0.082   0.539   3.575
13142TIP3    H139371   0.090   0.445   3.557
13142TIP3    H239372   0.078   0.580   3.489
13143TIP3   OH239373   4.679   0.542   5.123
13143TIP3    H139374   4.717   0.584   5.200
13143TIP3    H239375   4.661   0.452   5.150
13144TIP3   OH239376   2.239   5.674   4.713
13144TIP3    H139377   2.160   5.636   4.674
13144TIP3    H239378   2.282   5.721   4.641
13145TIP3   OH239379   6.499   5.715   2.939
13145TIP3    H139380   6.427   5.702   3.000
13145TIP3    H239381   6.514   5.629   2.900
13146TIP3   OH239382   0.419   6.035   2.185
13146TIP3    H139383   0.390   6.126   2.194
13146TIP3    H239384   0.424   6.020   2.091
13147TIP3   OH239385   7.493   1.408   0.475
13147TIP3    H139386   7.418   1.352   0.453
13147TIP3    H239387   7.533   1.428   0.391
13148TIP3   OH239388   0.786   7.489   3.532
13148TIP3    H139389   0.823   7.424   3.591
13148TIP3    H239390   0.862   7.529   3.489
13149TIP3   OH239391   5.335   5.129   3.141
13149TIP3    H139392   5.339   5.111   3.047
13149TIP3    H239393   5.355   5.045   3.182
13150TIP3   OH239394   5.902   0.765   6.357
13150TIP3    H139395   5.918   0.854   6.388
13150TIP3    H239396   5.807   0.756   6.359
13151TIP3   OH239397   1.857   4.256   3.057
13151TIP3    H139398   1.912   4.327   3.024
13151TIP3    H239399   1.780   4.257   3.000
13152TIP3   OH239400   3.620   5.856   4.753
13152TIP3    H139401   3.710   5.889   4.749
13152TIP3    H239402   3.622   5.787   4.820
13153TIP3   OH239403   1.040   1.185   2.741
13153TIP3    H139404   0.981   1.257   2.720
13153TIP3    H239405   1.127   1.223   2.736
13154TIP3   OH239406   0.089   1.641   0.485
13154TIP3    H139407   0.077   1.729   0.522
13154TIP3    H239408   0.000   1.609   0.470
13155TIP3   OH239409   7.590   6.284   0.326
13155TIP3    H139410   7.686   6.280   0.333
13155TIP3    H239411   7.559   6.264   0.414
13156TIP3   OH239412   3.280   2.351   6.099
13156TIP3    H139413   3.185   2.354   6.094
13156TIP3    H239414   3.308   2.442   6.093
13157TIP3   OH239415   1.918   0.495   5.638
13157TIP3    H139416   1.989   0.483   5.575
13157TIP3    H239417   1.939   0.577   5.683
13158TIP3   OH239418   8.256   5.504   0.610
13158TIP3    H139419   8.164   5.529   0.605
13158TIP3    H239420   8.281   5.486   0.519
13159TIP3   OH239421   0.244   2.839   4.864
13159TIP3    H139422   0.213   2.903   4.800
13159TIP3    H239423   0.327   2.876   4.895
13160TIP3   OH239424   3.731   3.973   6.296
13160TIP3    H139425   3.679   4.041   6.255
13160TIP3    H239426   3.668   3.907   6.324
13161TIP3   OH239427   2.238   3.415   2.253
13161TIP3    H139428   2.267   3.470   2.326
13161TIP3    H239429   2.312   3.357   2.236
13162TIP3   OH239430   5.599   5.332   2.951
13162TIP3    H139431   5.575   5.389   3.025
13162TIP3    H239432   5.664   5.383   2.902
13163TIP3   OH239433   7.814   1.629   6.038
13163TIP3    H139434   7.838   1.571   6.109
13163TIP3    H239435   7.898   1.655   5.999
13164TIP3   OH239436   2.555   2.791   3.481
13164TIP3    H139437   2.650   2.804   3.479
13164TIP3    H239438   2.543   2.697   3.486
13165TIP3   OH239439   8.098   1.871   5.060
13165TIP3    H139440   8.140   1.789   5.085
13165TIP3    H239441   8.078   1.861   4.967
13166TIP3   OH239442   3.572   5.506   0.203
13166TIP3    H139443   3.639   5.494   0.135
13166TIP3    H239444   3.592   5.438   0.267
13167TIP3   OH239445   4.649   7.400   2.138
13167TIP3    H139446   4.629   7.369   2.050
13167TIP3    H239447   4.593   7.348   2.196
13168TIP3   OH239448   3.660   6.410   1.963
13168TIP3    H139449   3.733   6.371   1.913
13168TIP3    H239450   3.693   6.416   2.053
13169TIP3   OH239451   0.891   5.815   1.480
13169TIP3    H139452   0.904   5.731   1.524
13169TIP3    H239453   0.978   5.841   1.451
13170TIP3   OH239454   1.955   7.080   4.753
13170TIP3    H139455   1.993   7.042   4.674
13170TIP3    H239456   1.914   7.007   4.798
13171TIP3   OH239457   7.305   4.843   3.835
13171TIP3    H139458   7.351   4.793   3.903
13171TIP3    H239459   7.325   4.797   3.754
13172TIP3   OH239460   6.029   2.680   6.401
13172TIP3    H139461   6.082   2.686   6.321
13172TIP3    H239462   5.944   2.718   6.376
13173TIP3   OH239463   1.823   6.283   6.337
13173TIP3    H139464   1.800   6.374   6.318
13173TIP3    H239465   1.872   6.254   6.260
13174TIP3   OH239466   6.679   6.134   0.557
13174TIP3    H139467   6.637   6.109   0.640
13174TIP3    H239468   6.638   6.078   0.491
13175TIP3   OH239469   3.214   4.823   5.261
13175TIP3    H139470   3.184   4.890   5.199
13175TIP3    H239471   3.307   4.843   5.273
13176TIP3   OH239472   0.678   4.070   5.087
13176TIP3    H139473   0.717   3.982   5.086
13176TIP3    H239474   0.729   4.118   5.022
13177TIP3   OH239475   1.034   0.846   2.245
13177TIP3    H139476   1.097   0.819   2.178
13177TIP3    H239477   0.983   0.767   2.263
13178TIP3   OH239478   1.891   0.343   0.340
13178TIP3    H139479   1.810   0.327   0.291
13178TIP3    H239480   1.925   0.256   0.360
13179TIP3   OH239481   4.129   6.845   5.997
13179TIP3    H139482   4.158   6.863   6.086
13179TIP3    H239483   4.196   6.884   5.941
13180TIP3   OH239484   5.143   0.960   3.827
13180TIP3    H139485   5.158   1.052   3.850
13180TIP3    H239486   5.231   0.925   3.810
13181TIP3   OH239487   5.051   6.081   3.517
13181TIP3    H139488   5.058   6.097   3.423
13181TIP3    H239489   5.044   6.169   3.555
13182TIP3   OH239490   5.463   3.004   4.079
13182TIP3    H139491   5.507   2.986   4.162
13182TIP3    H239492   5.468   3.099   4.068
13183TIP3   OH239493   0.615   6.988   5.119
13183TIP3    H139494   0.548   6.970   5.186
13183TIP3    H239495   0.614   7.083   5.109
13184TIP3   OH239496   0.734   4.774   3.253
13184TIP3    H139497   0.696   4.725   3.326
13184TIP3    H239498   0.661   4.787   3.193
13185TIP3   OH239499   3.118   3.309   6.575
13185TIP3    H139500   3.097   3.353   6.493
13185TIP3    H239501   3.052   3.239   6.582
13186TIP3   OH239502   3.633   0.780   5.985
13186TIP3    H139503   3.673   0.800   5.901
13186TIP3    H239504   3.703   0.739   6.036
13187TIP3   OH239505   6.696   4.399   6.457
13187TIP3    H139506   6.786   4.385   6.487
13187TIP3    H239507   6.684   4.336   6.386
13188TIP3   OH239508   3.675   4.437   0.785
13188TIP3    H139509   3.632   4.386   0.854
13188TIP3    H239510   3.704   4.517   0.828
13189TIP3   OH239511   4.358   1.611   5.602
13189TIP3    H139512   4.297   1.632   5.532
13189TIP3    H239513   4.329   1.526   5.635
13190TIP3   OH239514   2.406   5.544   3.355
13190TIP3    H139515   2.365   5.567   3.439
13190TIP3    H239516   2.389   5.619   3.299
13191TIP3   OH239517   6.215   3.749   2.958
13191TIP3    H139518   6.155   3.802   2.905
13191TIP3    H239519   6.170   3.665   2.966
13192TIP3   OH239520   0.988   1.780   4.098
13192TIP3    H139521   1.070   1.738   4.126
13192TIP3    H239522   0.983   1.763   4.004
13193TIP3   OH239523   4.103   5.315   0.186
13193TIP3    H139524   4.160   5.314   0.110
13193TIP3    H239525   4.036   5.250   0.167
13194TIP3   OH239526   4.445   2.733   0.709
13194TIP3    H139527   4.527   2.759   0.752
13194TIP3    H239528   4.395   2.815   0.702
13195TIP3   OH239529   5.851   1.231   0.303
13195TIP3    H139530   5.887   1.311   0.341
13195TIP3    H239531   5.875   1.236   0.210
13196TIP3   OH239532   0.904   2.299   6.141
13196TIP3    H139533   0.851   2.220   6.142
13196TIP3    H239534   0.851   2.364   6.188
13197TIP3   OH239535   7.376   2.415   0.288
13197TIP3    H139536   7.333   2.401   0.203
13197TIP3    H239537   7.453   2.468   0.268
13198TIP3   OH239538   5.901   3.018   5.509
13198TIP3    H139539   5.821   3.033   5.560
13198TIP3    H239540   5.962   3.086   5.540
13199TIP3   OH239541   4.259   6.622   0.984
13199TIP3    H139542   4.236   6.710   0.954
13199TIP3    H239543   4.338   6.635   1.037
13200TIP3   OH239544   7.123   6.962   2.769
13200TIP3    H139545   7.124   6.889   2.707
13200TIP3    H239546   7.164   7.034   2.722
13201TIP3   OH239547   0.347   1.070   5.191
13201TIP3    H139548   0.417   1.080   5.128
13201TIP3    H239549   0.312   0.982   5.175
13202TIP3   OH239550   5.481   1.248   5.649
13202TIP3    H139551   5.497   1.258   5.743
13202TIP3    H239552   5.566   1.221   5.613
13203TIP3   OH239553   4.038   0.547   0.356
13203TIP3    H139554   3.972   0.504   0.410
13203TIP3    H239555   4.090   0.476   0.319
13204TIP3   OH239556   2.058   3.015   0.209
13204TIP3    H139557   2.057   3.013   0.113
13204TIP3    H239558   1.991   3.079   0.232
13205TIP3   OH239559   4.308   3.673   0.610
13205TIP3    H139560   4.384   3.677   0.552
13205TIP3    H239561   4.317   3.749   0.667
13206TIP3   OH239562   2.678   1.776   3.986
13206TIP3    H139563   2.738   1.798   3.915
13206TIP3    H239564   2.724   1.708   4.035
13207TIP3   OH239565   4.629   6.689   3.195
13207TIP3    H139566   4.651   6.615   3.252
13207TIP3    H239567   4.554   6.658   3.145
13208TIP3   OH239568   6.126   7.216   1.973
13208TIP3    H139569   6.076   7.183   1.899
13208TIP3    H239570   6.204   7.160   1.976
13209TIP3   OH239571   3.642   3.928   0.434
13209TIP3    H139572   3.549   3.908   0.429
13209TIP3    H239573   3.651   4.012   0.388
13210TIP3   OH239574   5.048   0.027   1.643
13210TIP3    H139575   5.126   0.062   1.687
13210TIP3    H239576   5.081  -0.049   1.595
13211TIP3   OH239577   2.081   0.304   3.415
13211TIP3    H139578   2.099   0.215   3.386
13211TIP3    H239579   2.041   0.294   3.501
13212TIP3   OH239580   5.094   1.451   0.150
13212TIP3    H139581   5.138   1.375   0.187
13212TIP3    H239582   5.016   1.463   0.204
13213TIP3   OH239583   7.015   4.115   4.321
13213TIP3    H139584   7.057   4.084   4.400
13213TIP3    H239585   7.039   4.208   4.315
13214TIP3   OH239586   4.798   4.763   2.426
13214TIP3    H139587   4.840   4.775   2.511
13214TIP3    H239588   4.757   4.677   2.430
13215TIP3   OH239589   3.840   4.915   3.389
13215TIP3    H139590   3.773   4.971   3.350
13215TIP3    H239591   3.920   4.937   3.341
13216TIP3   OH239592   6.089   7.557   4.911
13216TIP3    H139593   6.129   7.566   4.998
13216TIP3    H239594   6.163   7.559   4.851
13217TIP3   OH239595   2.121   5.258   0.763
13217TIP3    H139596   2.144   5.251   0.671
13217TIP3    H239597   2.093   5.170   0.788
13218TIP3   OH239598   7.141   4.382   4.306
13218TIP3    H139599   7.227   4.342   4.295
13218TIP3    H239600   7.159   4.468   4.343
13219TIP3   OH239601   5.677   0.827   3.353
13219TIP3    H139602   5.727   0.854   3.276
13219TIP3    H239603   5.585   0.838   3.328
13220TIP3   OH239604   7.507   5.428   2.726
13220TIP3    H139605   7.589   5.413   2.773
13220TIP3    H239606   7.465   5.341   2.724
13221TIP3   OH239607   1.980   5.558   1.094
13221TIP3    H139608   2.043   5.624   1.125
13221TIP3    H239609   2.035   5.486   1.064
13222TIP3   OH239610   7.734   3.004   4.337
13222TIP3    H139611   7.813   2.981   4.386
13222TIP3    H239612   7.756   2.982   4.246
13223TIP3   OH239613   5.041   2.737   6.091
13223TIP3    H139614   5.092   2.726   6.171
13223TIP3    H239615   5.060   2.658   6.040
13224TIP3   OH239616   7.018   2.025   4.887
13224TIP3    H139617   7.000   1.984   4.972
13224TIP3    H239618   7.065   2.105   4.909
13225TIP3   OH239619   5.244   1.288   5.492
13225TIP3    H139620   5.292   1.371   5.496
13225TIP3    H239621   5.310   1.221   5.509
13226TIP3   OH239622   2.633   7.178   3.259
13226TIP3    H139623   2.587   7.095   3.268
13226TIP3    H239624   2.569   7.244   3.287
13227TIP3   OH239625   4.224   1.331   5.653
13227TIP3    H139626   4.236   1.394   5.724
13227TIP3    H239627   4.169   1.263   5.690
13228TIP3   OH239628   7.675   7.273   0.142
13228TIP3    H139629   7.630   7.357   0.138
13228TIP3    H239630   7.616   7.217   0.194
13229TIP3   OH239631   3.461   3.446   2.658
13229TIP3    H139632   3.549   3.418   2.635
13229TIP3    H239633   3.411   3.365   2.670
13230TIP3   OH239634   4.417   6.164   3.395
13230TIP3    H139635   4.341   6.164   3.453
13230TIP3    H239636   4.490   6.136   3.450
13231TIP3   OH239637   2.893   1.336   0.509
13231TIP3    H139638   2.840   1.408   0.476
13231TIP3    H239639   2.884   1.267   0.444
13232TIP3   OH239640   6.910   5.813   0.320
13232TIP3    H139641   6.941   5.881   0.261
13232TIP3    H239642   6.884   5.861   0.400
13233TIP3   OH239643   6.685   6.231   4.716
13233TIP3    H139644   6.739   6.216   4.793
13233TIP3    H239645   6.630   6.153   4.709
13234TIP3   OH239646   0.286   7.603   2.456
13234TIP3    H139647   0.298   7.630   2.547
13234TIP3    H239648   0.314   7.679   2.405
13235TIP3   OH239649   3.422   0.569   0.010
13235TIP3    H139650   3.410   0.600   0.099
13235TIP3    H239651   3.450   0.478   0.019
13236TIP3   OH239652   7.864   6.295   0.290
13236TIP3    H139653   7.945   6.296   0.341
13236TIP3    H239654   7.861   6.207   0.253
13237TIP3   OH239655   5.218   1.093   4.878
13237TIP3    H139656   5.287   1.079   4.943
13237TIP3    H239657   5.239   1.178   4.839
13238TIP3   OH239658   3.078   4.422   2.632
13238TIP3    H139659   3.038   4.359   2.692
13238TIP3    H239660   3.010   4.440   2.567
13239TIP3   OH239661   1.357   5.387   5.160
13239TIP3    H139662   1.401   5.400   5.076
13239TIP3    H239663   1.365   5.293   5.177
13240TIP3   OH239664   7.753   2.753   5.831
13240TIP3    H139665   7.732   2.842   5.802
13240TIP3    H239666   7.783   2.708   5.752
13241TIP3   OH239667   3.372   3.762   3.427
13241TIP3    H139668   3.278   3.745   3.438
13241TIP3    H239669   3.400   3.703   3.358
13242TIP3   OH239670   6.168   5.112   6.133
13242TIP3    H139671   6.197   5.056   6.205
13242TIP3    H239672   6.154   5.053   6.060
13243TIP3   OH239673   7.431   1.169   4.364
13243TIP3    H139674   7.340   1.184   4.388
13243TIP3    H239675   7.435   1.187   4.270
13244TIP3   OH239676   6.300   0.837   5.916
13244TIP3    H139677   6.376   0.873   5.961
13244TIP3    H239678   6.299   0.882   5.831
13245TIP3   OH239679   0.514   2.396   1.327
13245TIP3    H139680   0.491   2.347   1.248
13245TIP3    H239681   0.545   2.481   1.295
13246TIP3   OH239682   4.584   3.291   2.656
13246TIP3    H139683   4.662   3.287   2.600
13246TIP3    H239684   4.586   3.379   2.694
13247TIP3   OH239685   4.902   6.587   1.496
13247TIP3    H139686   4.844   6.520   1.533
13247TIP3    H239687   4.942   6.543   1.421
13248TIP3   OH239688   0.989   1.193   1.534
13248TIP3    H139689   1.039   1.241   1.600
13248TIP3    H239690   1.048   1.123   1.506
13249TIP3   OH239691   7.701   0.532   2.696
13249TIP3    H139692   7.660   0.617   2.713
13249TIP3    H239693   7.628   0.470   2.696
13250TIP3   OH239694   6.394   7.231   4.268
13250TIP3    H139695   6.363   7.298   4.328
13250TIP3    H239696   6.457   7.276   4.212
13251TIP3   OH239697   1.800   6.551   6.256
13251TIP3    H139698   1.771   6.608   6.185
13251TIP3    H239699   1.887   6.585   6.280
13252TIP3   OH239700   1.827   6.389   0.097
13252TIP3    H139701   1.881   6.432   0.031
13252TIP3    H239702   1.752   6.354   0.048
13253TIP3   OH239703   2.480   0.140   3.428
13253TIP3    H139704   2.505   0.147   3.521
13253TIP3    H239705   2.407   0.078   3.428
13254TIP3   OH239706   6.787   6.478   2.729
13254TIP3    H139707   6.791   6.557   2.782
13254TIP3    H239708   6.716   6.427   2.766
13255TIP3   OH239709   3.672   7.255   6.244
13255TIP3    H139710   3.739   7.315   6.213
13255TIP3    H239711   3.673   7.265   6.339
13256TIP3   OH239712   4.260   6.150   1.327
13256TIP3    H139713   4.323   6.143   1.399
13256TIP3    H239714   4.309   6.120   1.250
13257TIP3   OH239715   2.591   4.549   2.813
13257TIP3    H139716   2.655   4.584   2.750
13257TIP3    H239717   2.636   4.553   2.897
13258TIP3   OH239718   4.222   7.636  -0.030
13258TIP3    H139719   4.148   7.689  -0.059
13258TIP3    H239720   4.214   7.634   0.066
13259TIP3   OH239721   0.405   7.253   6.663
13259TIP3    H139722   0.315   7.248   6.696
13259TIP3    H239723   0.459   7.224   6.737
13260TIP3   OH239724   7.926   7.211   4.443
13260TIP3    H139725   7.977   7.162   4.508
13260TIP3    H239726   7.882   7.280   4.494
13261TIP3   OH239727   7.799   3.614   5.912
13261TIP3    H139728   7.720   3.571   5.879
13261TIP3    H239729   7.863   3.603   5.842
13262TIP3   OH239730   1.178   4.877   2.650
13262TIP3    H139731   1.267   4.912   2.657
13262TIP3    H239732   1.178   4.826   2.569
13263TIP3   OH239733   6.158   3.625   3.269
13263TIP3    H139734   6.224   3.651   3.204
13263TIP3    H239735   6.191   3.544   3.306
13264TIP3   OH239736   6.217   2.362   1.223
13264TIP3    H139737   6.225   2.375   1.317
13264TIP3    H239738   6.221   2.267   1.211
13265TIP3   OH239739   4.439   0.828   6.362
13265TIP3    H139740   4.522   0.783   6.348
13265TIP3    H239741   4.432   0.889   6.288
13266TIP3   OH239742   5.332   0.508   6.447
13266TIP3    H139743   5.317   0.576   6.512
13266TIP3    H239744   5.427   0.495   6.448
13267TIP3   OH239745   7.302   4.451   5.501
13267TIP3    H139746   7.223   4.416   5.543
13267TIP3    H239747   7.276   4.539   5.472
13268TIP3   OH239748   0.080   3.160   2.483
13268TIP3    H139749   0.012   3.141   2.546
13268TIP3    H239750   0.033   3.194   2.406
13269TIP3   OH239751   1.567   6.896   0.025
13269TIP3    H139752   1.483   6.932   0.055
13269TIP3    H239753   1.544   6.813  -0.016
13270TIP3   OH239754   4.879   2.800   5.364
13270TIP3    H139755   4.934   2.776   5.289
13270TIP3    H239756   4.899   2.892   5.379
13271TIP3   OH239757   2.286   6.144   4.537
13271TIP3    H139758   2.233   6.220   4.513
13271TIP3    H239759   2.226   6.085   4.581
13272TIP3   OH239760   1.605   2.322   6.711
13272TIP3    H139761   1.689   2.361   6.736
13272TIP3    H239762   1.539   2.385   6.741
13273TIP3   OH239763   1.802   0.880   0.655
13273TIP3    H139764   1.780   0.811   0.593
13273TIP3    H239765   1.744   0.952   0.632
13274TIP3   OH239766   2.232   2.953   4.564
13274TIP3    H139767   2.297   2.998   4.510
13274TIP3    H239768   2.194   3.021   4.619
13275TIP3   OH239769   0.892   5.137   4.670
13275TIP3    H139770   0.952   5.095   4.608
13275TIP3    H239771   0.947   5.202   4.715
13276TIP3   OH239772   7.861   4.746   3.101
13276TIP3    H139773   7.928   4.786   3.046
13276TIP3    H239774   7.894   4.659   3.122
13277TIP3   OH239775   6.994   0.188   4.987
13277TIP3    H139776   6.991   0.114   5.048
13277TIP3    H239777   6.967   0.151   4.903
13278TIP3   OH239778   1.290   3.395   6.743
13278TIP3    H139779   1.330   3.404   6.829
13278TIP3    H239780   1.325   3.468   6.692
13279TIP3   OH239781   6.466   6.737   0.860
13279TIP3    H139782   6.448   6.828   0.881
13279TIP3    H239783   6.388   6.706   0.814
13280TIP3   OH239784   7.486   3.301   1.873
13280TIP3    H139785   7.429   3.339   1.806
13280TIP3    H239786   7.551   3.368   1.891
13281TIP3   OH239787   7.794   0.471   1.502
13281TIP3    H139788   7.857   0.533   1.465
13281TIP3    H239789   7.724   0.468   1.437
13282TIP3   OH239790   6.350   5.662   6.622
13282TIP3    H139791   6.364   5.664   6.527
13282TIP3    H239792   6.437   5.676   6.659
13283TIP3   OH239793   3.522   1.461   5.359
13283TIP3    H139794   3.506   1.407   5.436
13283TIP3    H239795   3.466   1.423   5.291
13284TIP3   OH239796   7.301   6.370   2.865
13284TIP3    H139797   7.240   6.385   2.937
13284TIP3    H239798   7.274   6.286   2.828
13285TIP3   OH239799   3.207   7.416   4.044
13285TIP3    H139800   3.154   7.474   3.991
13285TIP3    H239801   3.182   7.328   4.016
13286TIP3   OH239802   8.225   4.561   1.260
13286TIP3    H139803   8.278   4.561   1.340
13286TIP3    H239804   8.274   4.616   1.198
13287TIP3   OH239805   0.584   6.536   0.393
13287TIP3    H139806   0.618   6.460   0.440
13287TIP3    H239807   0.497   6.550   0.430
13288TIP3   OH239808   8.159   7.459   6.647
13288TIP3    H139809   8.221   7.386   6.648
13288TIP3    H239810   8.193   7.520   6.713
13289TIP3   OH239811   6.904   1.366   5.276
13289TIP3    H139812   6.975   1.302   5.274
13289TIP3    H239813   6.875   1.366   5.367
13290TIP3   OH239814   8.251   7.063   2.366
13290TIP3    H139815   8.344   7.085   2.364
13290TIP3    H239816   8.209   7.133   2.317
13291TIP3   OH239817   2.037   6.524   1.218
13291TIP3    H139818   2.119   6.554   1.178
13291TIP3    H239819   2.046   6.428   1.222
13292TIP3   OH239820   3.320   4.580   4.685
13292TIP3    H139821   3.386   4.539   4.629
13292TIP3    H239822   3.286   4.652   4.632
13293TIP3   OH239823   2.776   1.217   5.078
13293TIP3    H139824   2.848   1.188   5.134
13293TIP3    H239825   2.816   1.280   5.018
13294TIP3   OH239826   4.884   1.305   5.670
13294TIP3    H139827   4.884   1.331   5.578
13294TIP3    H239828   4.976   1.289   5.691
13295TIP3   OH239829   4.644   4.377   3.188
13295TIP3    H139830   4.659   4.459   3.141
13295TIP3    H239831   4.560   4.390   3.232
13296TIP3   OH239832   5.227   5.972   2.743
13296TIP3    H139833   5.210   5.950   2.834
13296TIP3    H239834   5.226   5.887   2.698
13297TIP3   OH239835   0.584   4.252   5.562
13297TIP3    H139836   0.499   4.248   5.518
13297TIP3    H239837   0.577   4.188   5.633
13298TIP3   OH239838   7.229   6.816   1.909
13298TIP3    H139839   7.261   6.878   1.974
13298TIP3    H239840   7.134   6.826   1.910
13299TIP3   OH239841   1.456   4.271   2.343
13299TIP3    H139842   1.512   4.199   2.370
13299TIP3    H239843   1.511   4.323   2.284
13300TIP3   OH239844   6.191   5.181   0.917
13300TIP3    H139845   6.275   5.140   0.894
13300TIP3    H239846   6.209   5.275   0.912
13301TIP3   OH239847   0.745   6.669   4.776
13301TIP3    H139848   0.675   6.642   4.717
13301TIP3    H239849   0.806   6.595   4.775
13302TIP3   OH239850   5.197   7.337   3.435
13302TIP3    H139851   5.202   7.417   3.487
13302TIP3    H239852   5.113   7.343   3.388
13303TIP3   OH239853   3.304   6.389   0.376
13303TIP3    H139854   3.247   6.396   0.452
13303TIP3    H239855   3.306   6.477   0.339
13304TIP3   OH239856   2.406   4.101   0.704
13304TIP3    H139857   2.368   4.146   0.779
13304TIP3    H239858   2.492   4.142   0.693
13305TIP3   OH239859   5.240   3.841   6.445
13305TIP3    H139860   5.306   3.795   6.497
13305TIP3    H239861   5.184   3.883   6.510
13306TIP3   OH239862   0.821   7.059   6.515
13306TIP3    H139863   0.863   7.012   6.442
13306TIP3    H239864   0.750   7.001   6.542
13307TIP3   OH239865   7.462   5.086   0.310
13307TIP3    H139866   7.397   5.156   0.295
13307TIP3    H239867   7.488   5.058   0.222
13308TIP3   OH239868   1.680   6.574   5.759
13308TIP3    H139869   1.711   6.489   5.729
13308TIP3    H239870   1.749   6.635   5.734
13309TIP3   OH239871   0.898   7.451   2.334
13309TIP3    H139872   0.922   7.535   2.296
13309TIP3    H239873   0.821   7.469   2.387
13310TIP3   OH239874   3.408   3.557   1.616
13310TIP3    H139875   3.501   3.542   1.604
13310TIP3    H239876   3.379   3.486   1.674
13311TIP3   OH239877   7.203   7.786   4.049
13311TIP3    H139878   7.148   7.714   4.080
13311TIP3    H239879   7.289   7.769   4.088
13312TIP3   OH239880   6.117   5.228   5.794
13312TIP3    H139881   6.124   5.225   5.698
13312TIP3    H239882   6.186   5.288   5.821
13313TIP3   OH239883   2.461   5.683   3.727
13313TIP3    H139884   2.521   5.619   3.767
13313TIP3    H239885   2.519   5.746   3.685
13314TIP3   OH239886   3.145   1.495   4.928
13314TIP3    H139887   3.111   1.585   4.934
13314TIP3    H239888   3.091   1.453   4.861
13315TIP3   OH239889   8.234   7.613   6.432
13315TIP3    H139890   8.211   7.571   6.515
13315TIP3    H239891   8.278   7.544   6.381
13316TIP3   OH239892   0.335   0.036   2.115
13316TIP3    H139893   0.423  -0.002   2.119
13316TIP3    H239894   0.340   0.113   2.172
13317TIP3   OH239895   2.322   3.132   2.396
13317TIP3    H139896   2.375   3.130   2.316
13317TIP3    H239897   2.379   3.170   2.462
13318TIP3   OH239898   4.296   4.699   6.297
13318TIP3    H139899   4.340   4.620   6.330
13318TIP3    H239900   4.234   4.723   6.365
13319TIP3   OH239901   3.543   1.194   4.273
13319TIP3    H139902   3.616   1.246   4.307
13319TIP3    H239903   3.582   1.139   4.204
13320TIP3   OH239904   6.897   6.568   6.301
13320TIP3    H139905   6.813   6.522   6.290
13320TIP3    H239906   6.903   6.625   6.226
13321TIP3   OH239907   6.442   6.429   2.076
13321TIP3    H139908   6.425   6.366   2.006
13321TIP3    H239909   6.482   6.377   2.146
13322TIP3   OH239910   3.541   7.438   2.822
13322TIP3    H139911   3.566   7.349   2.850
13322TIP3    H239912   3.464   7.458   2.874
13323TIP3   OH239913   1.654   2.385   1.091
13323TIP3    H139914   1.623   2.445   1.023
13323TIP3    H239915   1.590   2.314   1.092
13324TIP3   OH239916   1.570   4.406   0.671
13324TIP3    H139917   1.595   4.441   0.586
13324TIP3    H239918   1.608   4.467   0.734
13325TIP3   OH239919   0.315   5.987   1.523
13325TIP3    H139920   0.222   5.998   1.506
13325TIP3    H239921   0.336   5.900   1.488
13326TIP3   OH239922   3.159   7.002   3.166
13326TIP3    H139923   3.191   7.087   3.133
13326TIP3    H239924   3.109   7.024   3.244
13327TIP3   OH239925   6.571   7.284   0.668
13327TIP3    H139926   6.491   7.313   0.712
13327TIP3    H239927   6.621   7.365   0.653
13328TIP3   OH239928   1.623   0.864   2.823
13328TIP3    H139929   1.668   0.888   2.904
13328TIP3    H239930   1.686   0.811   2.775
13329TIP3   OH239931   5.170   1.974   5.261
13329TIP3    H139932   5.111   1.957   5.188
13329TIP3    H239933   5.134   2.052   5.303
13330TIP3   OH239934   5.327   6.037   3.268
13330TIP3    H139935   5.418   6.027   3.240
13330TIP3    H239936   5.324   6.125   3.306
13331TIP3   OH239937   7.038   7.113   3.755
13331TIP3    H139938   7.012   7.078   3.670
13331TIP3    H239939   7.133   7.120   3.750
13332TIP3   OH239940   0.574   0.351   0.774
13332TIP3    H139941   0.567   0.256   0.775
13332TIP3    H239942   0.534   0.379   0.857
13333TIP3   OH239943   3.740   0.407   4.327
13333TIP3    H139944   3.743   0.498   4.296
13333TIP3    H239945   3.650   0.379   4.309
13334TIP3   OH239946   0.500   4.747   0.318
13334TIP3    H139947   0.444   4.798   0.260
13334TIP3    H239948   0.497   4.658   0.283
13335TIP3   OH239949   1.855   1.320   2.426
13335TIP3    H139950   1.816   1.365   2.351
13335TIP3    H239951   1.929   1.272   2.390
13336TIP3   OH239952   7.058   5.003   1.237
13336TIP3    H139953   7.070   4.979   1.329
13336TIP3    H239954   7.095   5.091   1.230
13337TIP3   OH239955   2.438   3.574   1.136
13337TIP3    H139956   2.387   3.514   1.189
13337TIP3    H239957   2.485   3.628   1.199
13338TIP3   OH239958   4.573   2.159   0.145
13338TIP3    H139959   4.553   2.134   0.055
13338TIP3    H239960   4.668   2.171   0.147
13339TIP3   OH239961   3.730   1.576   5.218
13339TIP3    H139962   3.648   1.537   5.249
13339TIP3    H239963   3.787   1.502   5.199
13340TIP3   OH239964   2.065   0.073   6.318
13340TIP3    H139965   2.066  -0.014   6.359
13340TIP3    H239966   1.989   0.116   6.358
13341TIP3   OH239967   3.840   6.810   2.937
13341TIP3    H139968   3.851   6.898   2.973
13341TIP3    H239969   3.845   6.822   2.842
13342TIP3   OH239970   2.464   1.528   1.454
13342TIP3    H139971   2.480   1.463   1.522
13342TIP3    H239972   2.525   1.599   1.474
13343TIP3   OH239973   2.360   5.292   2.261
13343TIP3    H139974   2.369   5.216   2.202
13343TIP3    H239975   2.439   5.290   2.314
13344TIP3   OH239976   2.438   0.139   0.302
13344TIP3    H139977   2.344   0.143   0.288
13344TIP3    H239978   2.449   0.146   0.397
13345TIP3   OH239979   1.889   2.698   3.679
13345TIP3    H139980   1.817   2.640   3.700
13345TIP3    H239981   1.951   2.642   3.631
13346TIP3   OH239982   3.217   5.124   5.820
13346TIP3    H139983   3.189   5.168   5.740
13346TIP3    H239984   3.145   5.065   5.841
13347TIP3   OH239985   4.396   1.362   0.777
13347TIP3    H139986   4.331   1.432   0.763
13347TIP3    H239987   4.467   1.405   0.825
13348TIP3   OH239988   6.655   1.084   2.626
13348TIP3    H139989   6.617   1.080   2.538
13348TIP3    H239990   6.611   1.015   2.675
13349TIP3   OH239991   7.932   4.170   1.370
13349TIP3    H139992   8.007   4.137   1.419
13349TIP3    H239993   7.919   4.105   1.301
13350TIP3   OH239994   6.477   0.741   1.271
13350TIP3    H139995   6.411   0.807   1.291
13350TIP3    H239996   6.560   0.788   1.275
13351TIP3   OH239997   2.977   6.442   1.775
13351TIP3    H139998   2.900   6.462   1.723
13351TIP3    H239999   2.945   6.384   1.844
13352TIP3   OH240000   4.787   7.814   0.113
13352TIP3    H140001   4.876   7.810   0.148
13352TIP3    H240002   4.739   7.869   0.175
13353TIP3   OH240003   3.305   7.474   2.954
13353TIP3    H140004   3.282   7.415   3.025
13353TIP3    H240005   3.228   7.473   2.897
13354TIP3   OH240006   7.440   6.802   6.034
13354TIP3    H140007   7.432   6.744   5.957
13354TIP3    H240008   7.380   6.763   6.098
13355TIP3   OH240009   3.782   1.177   0.553
13355TIP3    H140010   3.875   1.202   0.551
13355TIP3    H240011   3.773   1.113   0.483
13356TIP3   OH240012   7.527   1.421   2.644
13356TIP3    H140013   7.549   1.460   2.559
13356TIP3    H240014   7.572   1.477   2.708
13357TIP3   OH240015   1.449   2.753   1.524
13357TIP3    H140016   1.534   2.723   1.490
13357TIP3    H240017   1.434   2.837   1.481
13358TIP3   OH240018   6.159   1.462   5.197
13358TIP3    H140019   6.082   1.481   5.143
13358TIP3    H240020   6.166   1.537   5.256
13359TIP3   OH240021   3.505   2.820   5.326
13359TIP3    H140022   3.583   2.792   5.277
13359TIP3    H240023   3.537   2.887   5.386
13360TIP3   OH240024   4.482   5.049   6.107
13360TIP3    H140025   4.573   5.028   6.125
13360TIP3    H240026   4.474   5.142   6.129
13361TIP3   OH240027   1.605   7.414   2.164
13361TIP3    H140028   1.583   7.495   2.210
13361TIP3    H240029   1.604   7.347   2.232
13362TIP3   OH240030   4.818   2.647   2.067
13362TIP3    H140031   4.839   2.717   2.128
13362TIP3    H240032   4.896   2.640   2.011
13363TIP3   OH240033   6.323   2.903   0.493
13363TIP3    H140034   6.231   2.924   0.507
13363TIP3    H240035   6.323   2.839   0.422
13364TIP3   OH240036   6.548   3.193   2.577
13364TIP3    H140037   6.558   3.249   2.654
13364TIP3    H240038   6.624   3.213   2.523
13365TIP3   OH240039   1.803   2.510   4.734
13365TIP3    H140040   1.776   2.526   4.825
13365TIP3    H240041   1.759   2.579   4.684
13366TIP3   OH240042   6.340   7.592   4.766
13366TIP3    H140043   6.381   7.643   4.696
13366TIP3    H240044   6.407   7.529   4.793
13367TIP3   OH240045   1.399   3.605   3.214
13367TIP3    H140046   1.483   3.575   3.248
13367TIP3    H240047   1.334   3.567   3.273
13368TIP3   OH240048   2.482   3.823   4.797
13368TIP3    H140049   2.481   3.762   4.723
13368TIP3    H240050   2.393   3.823   4.830
13369TIP3   OH240051   1.405   5.489   4.312
13369TIP3    H140052   1.383   5.535   4.394
13369TIP3    H240053   1.460   5.416   4.339
13370TIP3   OH240054   4.314   2.598   0.948
13370TIP3    H140055   4.386   2.580   1.008
13370TIP3    H240056   4.354   2.647   0.876
13371TIP3   OH240057   5.603   3.033   5.569
13371TIP3    H140058   5.550   3.075   5.637
13371TIP3    H240059   5.611   3.100   5.501
13372TIP3   OH240060   3.031   3.944   2.685
13372TIP3    H140061   3.014   3.924   2.777
13372TIP3    H240062   3.124   3.966   2.682
13373TIP3   OH240063   1.570   6.287   1.116
13373TIP3    H140064   1.603   6.199   1.097
13373TIP3    H240065   1.542   6.321   1.031
13374TIP3   OH240066   7.089   7.395   6.350
13374TIP3    H140067   7.017   7.457   6.365
13374TIP3    H240068   7.047   7.320   6.309
13375TIP3   OH240069   0.611   7.509   6.612
13375TIP3    H140070   0.571   7.434   6.656
13375TIP3    H240071   0.663   7.470   6.541
13376TIP3   OH240072   7.900   2.673   0.777
13376TIP3    H140073   7.896   2.583   0.744
13376TIP3    H240074   7.920   2.726   0.700
13377TIP3   OH240075   1.365   2.144   3.079
13377TIP3    H140076   1.354   2.235   3.103
13377TIP3    H240077   1.369   2.097   3.162
13378TIP3   OH240078   3.410   4.619   5.119
13378TIP3    H140079   3.371   4.635   5.205
13378TIP3    H240080   3.479   4.556   5.135
13379TIP3   OH240081   0.143   6.841   3.067
13379TIP3    H140082   0.134   6.824   3.161
13379TIP3    H240083   0.179   6.759   3.032
13380TIP3   OH240084   4.212   4.655   2.420
13380TIP3    H140085   4.124   4.624   2.442
13380TIP3    H240086   4.198   4.729   2.362
13381TIP3   OH240087   5.571   4.648   1.036
13381TIP3    H140088   5.661   4.616   1.029
13381TIP3    H240089   5.539   4.653   0.946
13382TIP3   OH240090   3.673   5.887   0.480
13382TIP3    H140091   3.666   5.895   0.575
13382TIP3    H240092   3.718   5.803   0.467
13383TIP3   OH240093   1.639   0.982   5.902
13383TIP3    H140094   1.696   1.053   5.873
13383TIP3    H240095   1.676   0.904   5.861
13384TIP3   OH240096   6.199   4.370   5.541
13384TIP3    H140097   6.240   4.283   5.542
13384TIP3    H240098   6.126   4.362   5.603
13385TIP3   OH240099   2.769   2.052   1.177
13385TIP3    H140100   2.816   2.108   1.239
13385TIP3    H240101   2.732   2.112   1.113
13386TIP3   OH240102   2.744   7.161   0.603
13386TIP3    H140103   2.713   7.246   0.634
13386TIP3    H240104   2.704   7.098   0.663
13387TIP3   OH240105   6.350   5.063   0.415
13387TIP3    H140106   6.445   5.071   0.417
13387TIP3    H240107   6.320   5.106   0.495
13388TIP3   OH240108   1.427   0.280   5.737
13388TIP3    H140109   1.378   0.211   5.782
13388TIP3    H240110   1.494   0.234   5.687
13389TIP3   OH240111   1.411   2.438   3.183
13389TIP3    H140112   1.354   2.515   3.182
13389TIP3    H240113   1.472   2.455   3.255
13390TIP3   OH240114   2.582   3.763   3.253
13390TIP3    H140115   2.620   3.675   3.251
13390TIP3    H240116   2.639   3.813   3.312
13391TIP3   OH240117   8.136   6.605   2.385
13391TIP3    H140118   8.176   6.588   2.300
13391TIP3    H240119   8.088   6.525   2.406
13392TIP3   OH240120   3.188   6.386   4.444
13392TIP3    H140121   3.115   6.338   4.404
13392TIP3    H240122   3.267   6.341   4.411
13393TIP3   OH240123   1.665   5.744   5.315
13393TIP3    H140124   1.618   5.743   5.232
13393TIP3    H240125   1.708   5.829   5.317
13394TIP3   OH240126   6.885   1.147   4.926
13394TIP3    H140127   6.925   1.062   4.911
13394TIP3    H240128   6.792   1.133   4.912
13395TIP3   OH240129   5.929   7.801   1.841
13395TIP3    H140130   5.957   7.721   1.798
13395TIP3    H240131   5.927   7.779   1.934
13396TIP3   OH240132   6.395   4.678   2.159
13396TIP3    H140133   6.473   4.734   2.155
13396TIP3    H240134   6.396   4.642   2.247
13397TIP3   OH240135   6.604   2.095   1.569
13397TIP3    H140136   6.580   2.177   1.614
13397TIP3    H240137   6.527   2.074   1.516
13398TIP3   OH240138   7.843   6.701   1.167
13398TIP3    H140139   7.813   6.739   1.249
13398TIP3    H240140   7.787   6.741   1.100
13399TIP3   OH240141   5.856   0.606   3.701
13399TIP3    H140142   5.940   0.625   3.660
13399TIP3    H240143   5.858   0.511   3.715
13400TIP3   OH240144   6.275   3.196   4.704
13400TIP3    H140145   6.232   3.269   4.659
13400TIP3    H240146   6.355   3.181   4.654
13401TIP3   OH240147   7.967   1.614   2.608
13401TIP3    H140148   8.041   1.560   2.635
13401TIP3    H240149   7.899   1.596   2.674
13402TIP3   OH240150   6.581   7.037   3.898
13402TIP3    H140151   6.535   7.085   3.967
13402TIP3    H240152   6.558   6.945   3.914
13403TIP3   OH240153   4.771   7.026   1.034
13403TIP3    H140154   4.770   6.984   1.120
13403TIP3    H240155   4.721   6.967   0.978
13404TIP3   OH240156   4.381   6.173   3.855
13404TIP3    H140157   4.325   6.242   3.890
13404TIP3    H240158   4.361   6.171   3.761
13405TIP3   OH240159   6.556   4.903   1.046
13405TIP3    H140160   6.525   4.823   1.090
13405TIP3    H240161   6.649   4.906   1.064
13406TIP3   OH240162   5.377   5.384   2.690
13406TIP3    H140163   5.322   5.359   2.616
13406TIP3    H240164   5.420   5.465   2.663
13407TIP3   OH240165   7.631   4.845   4.054
13407TIP3    H140166   7.552   4.792   4.061
13407TIP3    H240167   7.632   4.897   4.135
13408TIP3   OH240168   1.799   4.789   3.100
13408TIP3    H140169   1.771   4.878   3.121
13408TIP3    H240170   1.719   4.737   3.105
13409TIP3   OH240171   4.046   7.164   2.638
13409TIP3    H140172   4.093   7.236   2.597
13409TIP3    H240173   4.033   7.100   2.568
13410TIP3   OH240174   1.994   4.536  -0.001
13410TIP3    H140175   1.987   4.450  -0.044
13410TIP3    H240176   2.062   4.582  -0.050
13411TIP3   OH240177   4.820   5.163   0.250
13411TIP3    H140178   4.781   5.239   0.294
13411TIP3    H240179   4.790   5.171   0.159
13412TIP3   OH240180   4.559   5.747   1.303
13412TIP3    H140181   4.601   5.714   1.382
13412TIP3    H240182   4.556   5.672   1.243
13413TIP3   OH240183   2.732   2.623   1.342
13413TIP3    H140184   2.771   2.703   1.377
13413TIP3    H240185   2.639   2.631   1.363
13414TIP3   OH240186   0.666   4.358   0.191
13414TIP3    H140187   0.748   4.364   0.142
13414TIP3    H240188   0.617   4.289   0.146
13415TIP3   OH240189   1.992   7.728   2.132
13415TIP3    H140190   2.004   7.716   2.226
13415TIP3    H240191   2.080   7.737   2.097
13416TIP3   OH240192   6.799   0.758   2.557
13416TIP3    H140193   6.781   0.684   2.616
13416TIP3    H240194   6.893   0.751   2.538
13417TIP3   OH240195   5.965   5.878   2.275
13417TIP3    H140196   6.009   5.886   2.359
13417TIP3    H240197   5.893   5.941   2.279
13418TIP3   OH240198   1.724   1.474   3.914
13418TIP3    H140199   1.653   1.498   3.855
13418TIP3    H240200   1.737   1.551   3.970
13419TIP3   OH240201   2.131   2.119   0.216
13419TIP3    H140202   2.219   2.091   0.194
13419TIP3    H240203   2.110   2.074   0.298
13420TIP3   OH240204   2.228   7.186   1.158
13420TIP3    H140205   2.194   7.241   1.088
13420TIP3    H240206   2.247   7.246   1.229
13421TIP3   OH240207   3.622   6.431   2.239
13421TIP3    H140208   3.572   6.472   2.309
13421TIP3    H240209   3.598   6.338   2.244
13422TIP3   OH240210   4.919   5.529   1.189
13422TIP3    H140211   4.864   5.571   1.255
13422TIP3    H240212   4.867   5.456   1.157
13423TIP3   OH240213   7.742   3.863   6.256
13423TIP3    H140214   7.694   3.944   6.274
13423TIP3    H240215   7.762   3.828   6.343
13424TIP3   OH240216   4.886   3.588   5.248
13424TIP3    H140217   4.835   3.583   5.167
13424TIP3    H240218   4.823   3.569   5.317
13425TIP3   OH240219   3.211   5.681   1.963
13425TIP3    H140220   3.244   5.682   2.053
13425TIP3    H240221   3.223   5.770   1.932
13426TIP3   OH240222   0.855   7.566   0.883
13426TIP3    H140223   0.947   7.548   0.868
13426TIP3    H240224   0.850   7.662   0.885
13427TIP3   OH240225   1.031   3.054   3.764
13427TIP3    H140226   1.082   3.133   3.783
13427TIP3    H240227   0.942   3.076   3.791
13428TIP3   OH240228   3.718   6.530   6.752
13428TIP3    H140229   3.688   6.554   6.665
13428TIP3    H240230   3.809   6.558   6.756
13429TIP3   OH240231   4.579   5.980   3.810
13429TIP3    H140232   4.511   6.040   3.840
13429TIP3    H240233   4.562   5.899   3.857
13430TIP3   OH240234   1.015   4.844   3.280
13430TIP3    H140235   0.920   4.843   3.291
13430TIP3    H240236   1.033   4.767   3.225
13431TIP3   OH240237   5.533   0.273   0.459
13431TIP3    H140238   5.464   0.318   0.411
13431TIP3    H240239   5.490   0.196   0.496
13432TIP3   OH240240   4.380   6.226   4.818
13432TIP3    H140241   4.441   6.199   4.749
13432TIP3    H240242   4.423   6.201   4.899
13433TIP3   OH240243   1.198   7.744   1.440
13433TIP3    H140244   1.158   7.811   1.495
13433TIP3    H240245   1.292   7.760   1.448
13434TIP3   OH240246   7.044   3.251   2.013
13434TIP3    H140247   7.049   3.167   2.059
13434TIP3    H240248   7.038   3.316   2.083
13435TIP3   OH240249   4.249   0.575   5.004
13435TIP3    H140250   4.268   0.521   4.928
13435TIP3    H240251   4.261   0.665   4.974
13436TIP3   OH240252   5.891   3.347   2.232
13436TIP3    H140253   5.959   3.388   2.180
13436TIP3    H240254   5.873   3.264   2.187
13437TIP3   OH240255   0.163   0.891   4.541
13437TIP3    H140256   0.237   0.848   4.584
13437TIP3    H240257   0.188   0.899   4.449
13438TIP3   OH240258   2.665   1.683   1.836
13438TIP3    H140259   2.720   1.604   1.836
13438TIP3    H240260   2.711   1.743   1.777
13439TIP3   OH240261   8.269   7.444   4.453
13439TIP3    H140262   8.309   7.524   4.490
13439TIP3    H240263   8.344   7.391   4.426
13440TIP3   OH240264   7.041   6.296   4.975
13440TIP3    H140265   7.135   6.281   4.962
13440TIP3    H240266   7.022   6.374   4.923
13441TIP3   OH240267   6.140   0.578   4.792
13441TIP3    H140268   6.069   0.591   4.729
13441TIP3    H240269   6.216   0.556   4.738
13442TIP3   OH240270   0.035   5.753   2.764
13442TIP3    H140271   0.009   5.837   2.803
13442TIP3    H240272  -0.030   5.691   2.795
13443TIP3   OH240273  -0.004   6.321   5.083
13443TIP3    H140274  -0.032   6.371   5.006
13443TIP3    H240275  -0.030   6.374   5.158
13444TIP3   OH240276   1.406   3.759   4.340
13444TIP3    H140277   1.485   3.790   4.296
13444TIP3    H240278   1.438   3.701   4.409
13445TIP3   OH240279   6.552   1.211   6.402
13445TIP3    H140280   6.565   1.131   6.452
13445TIP3    H240281   6.468   1.246   6.433
13446TIP3   OH240282   6.998   6.302   5.994
13446TIP3    H140283   6.933   6.234   6.008
13446TIP3    H240284   6.989   6.326   5.901
13447TIP3   OH240285   2.973   2.102   0.807
13447TIP3    H140286   3.042   2.164   0.784
13447TIP3    H240287   2.899   2.158   0.832
13448TIP3   OH240288   1.195   4.799   6.549
13448TIP3    H140289   1.107   4.785   6.514
13448TIP3    H240290   1.190   4.883   6.594
13449TIP3   OH240291   6.221   3.236   1.709
13449TIP3    H140292   6.261   3.301   1.766
13449TIP3    H240293   6.273   3.157   1.723
13450TIP3   OH240294   2.534   7.548   0.854
13450TIP3    H140295   2.529   7.476   0.918
13450TIP3    H240296   2.448   7.589   0.858
13451TIP3   OH240297   7.522   7.384   2.021
13451TIP3    H140298   7.464   7.457   1.996
13451TIP3    H240299   7.595   7.426   2.066
13452TIP3   OH240300   6.379   7.681   3.705
13452TIP3    H140301   6.418   7.594   3.718
13452TIP3    H240302   6.401   7.705   3.615
13453TIP3   OH240303   5.575   5.137   1.521
13453TIP3    H140304   5.610   5.127   1.610
13453TIP3    H240305   5.489   5.178   1.534
13454TIP3   OH240306   0.824   0.017   6.524
13454TIP3    H140307   0.829  -0.027   6.439
13454TIP3    H240308   0.820   0.110   6.502
13455TIP3   OH240309   3.637   5.282   1.708
13455TIP3    H140310   3.558   5.321   1.747
13455TIP3    H240311   3.628   5.188   1.725
13456TIP3   OH240312   1.871   2.828   0.926
13456TIP3    H140313   1.878   2.904   0.984
13456TIP3    H240314   1.904   2.858   0.842
13457TIP3   OH240315   0.731   6.175   5.097
13457TIP3    H140316   0.681   6.246   5.058
13457TIP3    H240317   0.823   6.201   5.084
13458TIP3   OH240318   2.018   1.177   5.459
13458TIP3    H140319   1.974   1.261   5.476
13458TIP3    H240320   2.054   1.151   5.544
13459TIP3   OH240321   0.043   4.031   1.538
13459TIP3    H140322   0.037   4.126   1.540
13459TIP3    H240323   0.042   4.005   1.630
13460TIP3   OH240324   2.217   2.863   3.571
13460TIP3    H140325   2.299   2.868   3.619
13460TIP3    H240326   2.182   2.952   3.574
13461TIP3   OH240327   5.996   3.657   5.695
13461TIP3    H140328   6.057   3.729   5.679
13461TIP3    H240329   6.025   3.618   5.777
13462TIP3   OH240330   0.762   2.033   4.809
13462TIP3    H140331   0.702   2.031   4.735
13462TIP3    H240332   0.763   2.125   4.837
13463TIP3   OH240333   5.355   0.406   4.710
13463TIP3    H140334   5.369   0.490   4.667
13463TIP3    H240335   5.398   0.342   4.653
13464TIP3   OH240336   6.378   7.278   5.702
13464TIP3    H140337   6.422   7.327   5.773
13464TIP3    H240338   6.290   7.316   5.698
13465TIP3   OH240339   1.577   4.818   2.691
13465TIP3    H140340   1.505   4.755   2.686
13465TIP3    H240341   1.534   4.904   2.687
13466TIP3   OH240342   3.970   1.246   1.844
13466TIP3    H140343   3.911   1.220   1.775
13466TIP3    H240344   4.058   1.228   1.809
13467TIP3   OH240345   3.997   2.392   2.763
13467TIP3    H140346   3.943   2.429   2.833
13467TIP3    H240347   3.952   2.416   2.682
13468TIP3   OH240348   6.062   4.362   0.373
13468TIP3    H140349   6.129   4.429   0.386
13468TIP3    H240350   6.103   4.297   0.316
13469TIP3   OH240351   0.114   3.732   2.555
13469TIP3    H140352   0.020   3.748   2.562
13469TIP3    H240353   0.152   3.818   2.540
13470TIP3   OH240354   7.027   0.656   5.801
13470TIP3    H140355   6.939   0.677   5.770
13470TIP3    H240356   7.081   0.656   5.722
13471TIP3   OH240357   1.117   4.143   0.650
13471TIP3    H140358   1.164   4.149   0.733
13471TIP3    H240359   1.161   4.206   0.593
13472TIP3   OH240360   7.384   5.623   6.497
13472TIP3    H140361   7.366   5.711   6.465
13472TIP3    H240362   7.475   5.606   6.471
13473TIP3   OH240363   7.574   6.236   2.822
13473TIP3    H140364   7.586   6.175   2.895
13473TIP3    H240365   7.483   6.264   2.829
13474TIP3   OH240366   3.144   0.787   4.291
13474TIP3    H140367   3.168   0.786   4.198
13474TIP3    H240368   3.049   0.789   4.291
13475TIP3   OH240369   0.031   7.263   0.584
13475TIP3    H140370   0.008   7.170   0.588
13475TIP3    H240371   0.127   7.264   0.587
13476TIP3   OH240372   1.956   0.725   5.106
13476TIP3    H140373   1.874   0.706   5.152
13476TIP3    H240374   1.953   0.819   5.091
13477TIP3   OH240375   1.294   6.042   2.881
13477TIP3    H140376   1.386   6.063   2.898
13477TIP3    H240377   1.247   6.083   2.954
13478TIP3   OH240378   0.465   7.509   4.462
13478TIP3    H140379   0.462   7.417   4.487
13478TIP3    H240380   0.491   7.509   4.370
13479TIP3   OH240381   4.630   4.538   4.232
13479TIP3    H140382   4.663   4.459   4.189
13479TIP3    H240383   4.641   4.521   4.325
13480TIP3   OH240384   8.041   5.378   6.139
13480TIP3    H140385   8.027   5.327   6.219
13480TIP3    H240386   7.976   5.344   6.077
13481TIP3   OH240387   6.620   1.836   3.823
13481TIP3    H140388   6.569   1.916   3.810
13481TIP3    H240389   6.676   1.830   3.746
13482TIP3   OH240390   6.059   1.070   0.869
13482TIP3    H140391   6.010   0.991   0.893
13482TIP3    H240392   6.048   1.077   0.774
13483TIP3   OH240393   4.996   0.446   2.972
13483TIP3    H140394   5.054   0.511   2.931
13483TIP3    H240395   5.055   0.377   3.001
13484TIP3   OH240396   6.223   4.045   4.987
13484TIP3    H140397   6.166   4.096   4.931
13484TIP3    H240398   6.164   4.004   5.051
13485TIP3   OH240399   3.220   7.513   2.202
13485TIP3    H140400   3.183   7.593   2.237
13485TIP3    H240401   3.298   7.496   2.255
13486TIP3   OH240402   3.665   7.073   1.904
13486TIP3    H140403   3.671   7.115   1.990
13486TIP3    H240404   3.754   7.078   1.868
13487TIP3   OH240405   4.231   3.589   1.467
13487TIP3    H140406   4.306   3.648   1.471
13487TIP3    H240407   4.181   3.618   1.391
13488TIP3   OH240408   8.102   6.437   1.485
13488TIP3    H140409   8.096   6.343   1.502
13488TIP3    H240410   8.098   6.478   1.571
13489TIP3   OH240411   6.322   2.514   0.628
13489TIP3    H140412   6.268   2.585   0.663
13489TIP3    H240413   6.260   2.446   0.604
13490TIP3   OH240414   2.235   1.085   5.291
13490TIP3    H140415   2.272   1.102   5.205
13490TIP3    H240416   2.281   1.007   5.322
13491TIP3   OH240417   2.029   4.369   5.510
13491TIP3    H140418   1.955   4.316   5.537
13491TIP3    H240419   2.105   4.312   5.521
13492TIP3   OH240420   8.026   4.362   0.071
13492TIP3    H140421   8.112   4.369   0.112
13492TIP3    H240422   8.001   4.271   0.083
13493TIP3   OH240423   3.236   7.157   2.302
13493TIP3    H140424   3.288   7.093   2.350
13493TIP3    H240425   3.176   7.105   2.249
13494TIP3   OH240426   5.168   5.780   1.556
13494TIP3    H140427   5.169   5.721   1.480
13494TIP3    H240428   5.258   5.779   1.588
13495TIP3   OH240429   3.473   2.852   0.610
13495TIP3    H140430   3.418   2.825   0.683
13495TIP3    H240431   3.432   2.815   0.532
13496TIP3   OH240432   1.667   3.461   4.751
13496TIP3    H140433   1.618   3.521   4.806
13496TIP3    H240434   1.610   3.443   4.677
13497TIP3   OH240435   3.995   0.478   5.936
13497TIP3    H140436   4.068   0.469   5.874
13497TIP3    H240437   3.928   0.527   5.887
13498TIP3   OH240438   5.599   0.845   4.514
13498TIP3    H140439   5.607   0.808   4.602
13498TIP3    H240440   5.527   0.908   4.521
13499TIP3   OH240441   3.678   4.420   0.486
13499TIP3    H140442   3.690   4.445   0.578
13499TIP3    H240443   3.685   4.324   0.487
13500TIP3   OH240444   7.707   0.891   2.905
13500TIP3    H140445   7.681   0.799   2.906
13500TIP3    H240446   7.693   0.921   2.995
13501TIP3   OH240447   6.935   4.576   6.539
13501TIP3    H140448   6.999   4.616   6.598
13501TIP3    H240449   6.986   4.548   6.463
13502TIP3   OH240450   4.814   3.745   2.972
13502TIP3    H140451   4.835   3.669   3.026
13502TIP3    H240452   4.888   3.753   2.912
13503TIP3   OH240453   5.156   4.694   1.584
13503TIP3    H140454   5.229   4.746   1.551
13503TIP3    H240455   5.126   4.645   1.507
13504TIP3   OH240456   2.407   0.584   4.045
13504TIP3    H140457   2.494   0.601   4.081
13504TIP3    H240458   2.389   0.493   4.069
13505TIP3   OH240459   2.476   5.176   1.726
13505TIP3    H140460   2.495   5.096   1.775
13505TIP3    H240461   2.528   5.168   1.646
13506TIP3   OH240462   2.469   7.146   4.132
13506TIP3    H140463   2.499   7.229   4.094
13506TIP3    H240464   2.542   7.117   4.187
13507TIP3   OH240465   7.962   1.019   2.599
13507TIP3    H140466   7.997   1.032   2.511
13507TIP3    H240467   7.875   0.981   2.585
13508TIP3   OH240468   1.243   0.169   5.337
13508TIP3    H140469   1.172   0.132   5.389
13508TIP3    H240470   1.297   0.093   5.313
13509TIP3   OH240471   5.174   2.970   2.377
13509TIP3    H140472   5.223   2.949   2.297
13509TIP3    H240473   5.141   2.886   2.407
13510TIP3   OH240474   3.426   2.877   2.632
13510TIP3    H140475   3.492   2.890   2.564
13510TIP3    H240476   3.389   2.964   2.646
13511TIP3   OH240477   2.755   7.231   2.429
13511TIP3    H140478   2.812   7.308   2.424
13511TIP3    H240479   2.804   7.162   2.385
13512TIP3   OH240480   1.718   4.060   2.703
13512TIP3    H140481   1.744   3.967   2.702
13512TIP3    H240482   1.784   4.102   2.759
13513TIP3   OH240483   2.094   7.056   1.378
13513TIP3    H140484   2.094   7.129   1.439
13513TIP3    H240485   2.090   7.097   1.291
13514TIP3   OH240486   5.341   1.344   6.445
13514TIP3    H140487   5.373   1.330   6.356
13514TIP3    H240488   5.258   1.298   6.448
13515TIP3   OH240489   7.464   2.474   2.388
13515TIP3    H140490   7.540   2.447   2.440
13515TIP3    H240491   7.501   2.509   2.307
13516TIP3   OH240492   1.759   7.079   1.074
13516TIP3    H140493   1.836   7.023   1.064
13516TIP3    H240494   1.788   7.165   1.044
13517TIP3   OH240495   6.431   4.249   2.289
13517TIP3    H140496   6.406   4.329   2.335
13517TIP3    H240497   6.525   4.240   2.305
13518TIP3   OH240498   0.841   1.495   5.787
13518TIP3    H140499   0.826   1.407   5.752
13518TIP3    H240500   0.757   1.521   5.823
13519TIP3   OH240501   0.767   1.112   1.673
13519TIP3    H140502   0.767   1.183   1.737
13519TIP3    H240503   0.850   1.122   1.626
13520TIP3   OH240504   7.411   7.272   1.303
13520TIP3    H140505   7.453   7.356   1.286
13520TIP3    H240506   7.338   7.268   1.241
13521TIP3   OH240507   5.990   4.207   3.932
13521TIP3    H140508   5.997   4.302   3.930
13521TIP3    H240509   6.059   4.177   3.872
13522TIP3   OH240510   1.744   5.581   2.831
13522TIP3    H140511   1.731   5.636   2.754
13522TIP3    H240512   1.818   5.524   2.808
13523TIP3   OH240513   6.834   5.271   2.704
13523TIP3    H140514   6.794   5.239   2.785
13523TIP3    H240515   6.924   5.238   2.706
13524TIP3   OH240516   0.757   4.372   3.810
13524TIP3    H140517   0.800   4.286   3.815
13524TIP3    H240518   0.663   4.352   3.808
13525TIP3   OH240519   6.868   6.517   2.476
13525TIP3    H140520   6.849   6.499   2.568
13525TIP3    H240521   6.784   6.544   2.439
13526TIP3   OH240522   5.864   3.131   6.519
13526TIP3    H140523   5.959   3.148   6.516
13526TIP3    H240524   5.841   3.107   6.430
13527TIP3   OH240525   8.119   5.199   3.781
13527TIP3    H140526   8.172   5.210   3.702
13527TIP3    H240527   8.138   5.276   3.834
13528TIP3   OH240528   7.206   3.131   5.501
13528TIP3    H140529   7.187   3.039   5.483
13528TIP3    H240530   7.287   3.148   5.452
13529TIP3   OH240531   2.755   0.818   3.322
13529TIP3    H140532   2.827   0.768   3.283
13529TIP3    H240533   2.765   0.807   3.416
13530TIP3   OH240534   5.398   3.015   0.867
13530TIP3    H140535   5.326   2.954   0.882
13530TIP3    H240536   5.466   2.963   0.824
13531TIP3   OH240537   1.756   1.452   4.949
13531TIP3    H140538   1.703   1.528   4.924
13531TIP3    H240539   1.776   1.408   4.867
13532TIP3   OH240540   8.234   3.372   1.440
13532TIP3    H140541   8.203   3.411   1.358
13532TIP3    H240542   8.217   3.439   1.506
13533TIP3   OH240543   6.521   5.436   6.167
13533TIP3    H140544   6.431   5.423   6.136
13533TIP3    H240545   6.571   5.455   6.088
13534TIP3   OH240546   0.669   2.466   0.788
13534TIP3    H140547   0.589   2.430   0.751
13534TIP3    H240548   0.723   2.489   0.713
13535TIP3   OH240549   4.914   3.725   0.253
13535TIP3    H140550   4.970   3.789   0.209
13535TIP3    H240551   4.874   3.772   0.325
13536TIP3   OH240552   3.426   1.451   5.823
13536TIP3    H140553   3.351   1.505   5.850
13536TIP3    H240554   3.426   1.378   5.885
13537TIP3   OH240555   5.441   2.147   5.115
13537TIP3    H140556   5.536   2.161   5.120
13537TIP3    H240557   5.416   2.182   5.029
13538TIP3   OH240558   4.802   3.320   2.459
13538TIP3    H140559   4.839   3.234   2.479
13538TIP3    H240560   4.867   3.382   2.492
13539TIP3   OH240561   5.253   5.016   4.166
13539TIP3    H140562   5.167   4.974   4.152
13539TIP3    H240563   5.287   4.975   4.246
13540TIP3   OH240564   5.950   2.060   6.732
13540TIP3    H140565   5.910   1.974   6.748
13540TIP3    H240566   5.878   2.115   6.702
13541TIP3   OH240567   8.032   3.679   3.944
13541TIP3    H140568   8.036   3.610   4.010
13541TIP3    H240569   7.978   3.642   3.874
13542TIP3   OH240570   4.916   1.943   1.513
13542TIP3    H140571   4.885   2.033   1.511
13542TIP3    H240572   4.838   1.891   1.533
13543TIP3   OH240573   7.357   7.133   6.534
13543TIP3    H140574   7.290   7.066   6.520
13543TIP3    H240575   7.313   7.202   6.584
13544TIP3   OH240576   0.220   4.784   4.601
13544TIP3    H140577   0.142   4.780   4.546
13544TIP3    H240578   0.187   4.786   4.691
13545TIP3   OH240579   1.716   3.556   5.371
13545TIP3    H140580   1.726   3.652   5.372
13545TIP3    H240581   1.663   3.537   5.449
13546TIP3   OH240582   7.063   3.950   2.820
13546TIP3    H140583   7.091   4.041   2.819
13546TIP3    H240584   7.144   3.899   2.818
13547TIP3   OH240585   0.033   2.858   6.282
13547TIP3    H140586  -0.056   2.836   6.309
13547TIP3    H240587   0.063   2.922   6.346
13548TIP3   OH240588   7.457   3.524   3.677
13548TIP3    H140589   7.452   3.540   3.771
13548TIP3    H240590   7.391   3.582   3.639
13549TIP3   OH240591   6.354   4.047   5.783
13549TIP3    H140592   6.446   4.025   5.794
13549TIP3    H240593   6.338   4.116   5.848
13550TIP3   OH240594   5.201   6.430   4.454
13550TIP3    H140595   5.188   6.524   4.466
13550TIP3    H240596   5.220   6.397   4.542
13551TIP3   OH240597   6.406   1.888   5.098
13551TIP3    H140598   6.450   1.914   5.018
13551TIP3    H240599   6.383   1.796   5.086
13552TIP3   OH240600   4.731   3.359   5.669
13552TIP3    H140601   4.776   3.403   5.741
13552TIP3    H240602   4.651   3.324   5.708
13553TIP3   OH240603   7.489   6.152   3.328
13553TIP3    H140604   7.448   6.212   3.266
13553TIP3    H240605   7.428   6.078   3.334
13554TIP3   OH240606   0.790   2.949   5.306
13554TIP3    H140607   0.849   2.940   5.381
13554TIP3    H240608   0.706   2.915   5.338
13555TIP3   OH240609   4.492   2.118   1.172
13555TIP3    H140610   4.432   2.073   1.231
13555TIP3    H240611   4.451   2.203   1.157
13556TIP3   OH240612   2.003   2.190   3.706
13556TIP3    H140613   2.047   2.153   3.630
13556TIP3    H240614   2.065   2.252   3.743
13557TIP3   OH240615   6.018   4.912   0.988
13557TIP3    H140616   5.976   4.886   0.905
13557TIP3    H240617   6.032   5.006   0.979
13558TIP3   OH240618   2.126   0.680   1.504
13558TIP3    H140619   2.218   0.702   1.493
13558TIP3    H240620   2.086   0.702   1.420
13559TIP3   OH240621   5.840   3.852   4.767
13559TIP3    H140622   5.798   3.795   4.703
13559TIP3    H240623   5.920   3.881   4.723
13560TIP3   OH240624   0.125   5.686   2.514
13560TIP3    H140625   0.143   5.593   2.531
13560TIP3    H240626   0.104   5.722   2.600
13561TIP3   OH240627   0.986   1.336   5.212
13561TIP3    H140628   0.972   1.418   5.260
13561TIP3    H240629   0.921   1.338   5.142
13562TIP3   OH240630   3.740   4.162   5.783
13562TIP3    H140631   3.791   4.239   5.807
13562TIP3    H240632   3.654   4.197   5.759
13563TIP3   OH240633   7.446   1.888   4.550
13563TIP3    H140634   7.394   1.941   4.610
13563TIP3    H240635   7.392   1.880   4.472
13564TIP3   OH240636   1.397   7.236   3.920
13564TIP3    H140637   1.471   7.295   3.934
13564TIP3    H240638   1.392   7.226   3.825
13565TIP3   OH240639   1.172   3.278   3.876
13565TIP3    H140640   1.251   3.312   3.834
13565TIP3    H240641   1.116   3.356   3.887
13566TIP3   OH240642   7.772   7.419   5.955
13566TIP3    H140643   7.728   7.416   5.870
13566TIP3    H240644   7.758   7.331   5.992
13567TIP3   OH240645   0.125   1.987   1.186
13567TIP3    H140646   0.138   1.894   1.166
13567TIP3    H240647   0.050   1.989   1.246
13568TIP3   OH240648   1.099   6.415   0.442
13568TIP3    H140649   1.037   6.362   0.393
13568TIP3    H240650   1.117   6.364   0.521
13569TIP3   OH240651   3.449   0.228   6.463
13569TIP3    H140652   3.511   0.283   6.416
13569TIP3    H240653   3.488   0.216   6.549
13570TIP3   OH240654   3.457   5.989   5.871
13570TIP3    H140655   3.420   5.901   5.865
13570TIP3    H240656   3.381   6.046   5.878
13571TIP3   OH240657   7.171   3.795   3.959
13571TIP3    H140658   7.085   3.757   3.980
13571TIP3    H240659   7.153   3.889   3.947
13572TIP3   OH240660   5.336   4.246   6.120
13572TIP3    H140661   5.428   4.265   6.134
13572TIP3    H240662   5.335   4.188   6.044
13573TIP3   OH240663   2.261   2.833   3.927
13573TIP3    H140664   2.310   2.787   3.859
13573TIP3    H240665   2.248   2.767   3.995
13574TIP3   OH240666   0.859   3.859   5.996
13574TIP3    H140667   0.880   3.780   5.947
13574TIP3    H240668   0.855   3.928   5.929
13575TIP3   OH240669   0.123   5.019   4.816
13575TIP3    H140670   0.122   5.039   4.723
13575TIP3    H240671   0.213   5.039   4.844
13576TIP3   OH240672   4.826   7.628   5.088
13576TIP3    H140673   4.901   7.661   5.037
13576TIP3    H240674   4.844   7.535   5.099
13577TIP3   OH240675   3.531   6.461   1.603
13577TIP3    H140676   3.504   6.369   1.598
13577TIP3    H240677   3.608   6.466   1.546
13578TIP3   OH240678   4.306   0.158   2.981
13578TIP3    H140679   4.255   0.090   3.025
13578TIP3    H240680   4.367   0.110   2.925
13579TIP3   OH240681   0.849   1.182   2.526
13579TIP3    H140682   0.938   1.157   2.501
13579TIP3    H240683   0.833   1.137   2.609
13580TIP3   OH240684   1.567   2.884   4.958
13580TIP3    H140685   1.660   2.863   4.971
13580TIP3    H240686   1.542   2.931   5.037
13581TIP3   OH240687   4.552   0.308   3.801
13581TIP3    H140688   4.619   0.314   3.870
13581TIP3    H240689   4.528   0.399   3.784
13582TIP3   OH240690   6.790   6.722   0.795
13582TIP3    H140691   6.801   6.681   0.709
13582TIP3    H240692   6.704   6.763   0.790
13583TIP3   OH240693   5.616   0.605   0.796
13583TIP3    H140694   5.680   0.573   0.859
13583TIP3    H240695   5.531   0.582   0.834
13584TIP3   OH240696   6.162   5.762   0.478
13584TIP3    H140697   6.154   5.671   0.449
13584TIP3    H240698   6.121   5.813   0.409
13585TIP3   OH240699   7.700   5.740   2.375
13585TIP3    H140700   7.632   5.756   2.310
13585TIP3    H240701   7.684   5.806   2.443
13586TIP3   OH240702   4.885   0.644   0.551
13586TIP3    H140703   4.925   0.557   0.543
13586TIP3    H240704   4.919   0.679   0.633
13587TIP3   OH240705   4.437   1.531   5.092
13587TIP3    H140706   4.373   1.478   5.139
13587TIP3    H240707   4.407   1.531   5.001
13588TIP3   OH240708   2.146   3.083   3.150
13588TIP3    H140709   2.152   3.009   3.210
13588TIP3    H240710   2.189   3.155   3.195
13589TIP3   OH240711   5.843   7.343   3.756
13589TIP3    H140712   5.773   7.404   3.733
13589TIP3    H240713   5.864   7.364   3.847
13590TIP3   OH240714   5.236   7.042   3.542
13590TIP3    H140715   5.235   7.074   3.452
13590TIP3    H240716   5.250   7.121   3.595
13591TIP3   OH240717   6.492   1.680   0.992
13591TIP3    H140718   6.410   1.665   1.037
13591TIP3    H240719   6.528   1.759   1.033
13592TIP3   OH240720   1.651   1.983   2.674
13592TIP3    H140721   1.570   1.962   2.722
13592TIP3    H240722   1.708   2.023   2.740
13593TIP3   OH240723   6.547   7.274   1.391
13593TIP3    H140724   6.641   7.264   1.406
13593TIP3    H240725   6.509   7.193   1.423
13594TIP3   OH240726   2.727   6.192   5.803
13594TIP3    H140727   2.798   6.246   5.769
13594TIP3    H240728   2.661   6.255   5.832
13595TIP3   OH240729   2.165   2.152   3.469
13595TIP3    H140730   2.166   2.190   3.382
13595TIP3    H240731   2.143   2.059   3.455
13596TIP3   OH240732  -0.016   6.098   0.598
13596TIP3    H140733   0.010   6.160   0.666
13596TIP3    H240734   0.011   6.139   0.516
13597TIP3   OH240735   1.419   7.576   5.127
13597TIP3    H140736   1.397   7.599   5.217
13597TIP3    H240737   1.342   7.531   5.094
13598TIP3   OH240738   1.820   2.869   4.018
13598TIP3    H140739   1.855   2.870   4.107
13598TIP3    H240740   1.886   2.914   3.966
13599TIP3   OH240741   7.368   7.730   0.296
13599TIP3    H140742   7.276   7.747   0.314
13599TIP3    H240743   7.393   7.798   0.233
13600TIP3   OH240744   5.756   3.450   6.011
13600TIP3    H140745   5.777   3.419   5.923
13600TIP3    H240746   5.829   3.421   6.065
13601TIP3   OH240747   2.631   3.974   4.065
13601TIP3    H140748   2.622   4.047   4.126
13601TIP3    H240749   2.611   3.896   4.117
13602TIP3   OH240750   2.619   5.830   1.417
13602TIP3    H140751   2.576   5.911   1.446
13602TIP3    H240752   2.573   5.807   1.335
13603TIP3   OH240753   4.542   6.420   0.557
13603TIP3    H140754   4.620   6.399   0.608
13603TIP3    H240755   4.488   6.473   0.616
13604TIP3   OH240756   5.956   6.807   1.989
13604TIP3    H140757   6.011   6.741   1.946
13604TIP3    H240758   5.910   6.759   2.058
13605TIP3   OH240759   4.906   1.318   3.016
13605TIP3    H140760   4.977   1.306   2.953
13605TIP3    H240761   4.950   1.331   3.100
13606TIP3   OH240762   3.198   7.357   2.468
13606TIP3    H140763   3.111   7.369   2.507
13606TIP3    H240764   3.188   7.283   2.408
13607TIP3   OH240765   6.758   2.392   3.135
13607TIP3    H140766   6.702   2.335   3.083
13607TIP3    H240767   6.709   2.475   3.141
13608TIP3   OH240768   3.323   5.990   5.321
13608TIP3    H140769   3.357   5.976   5.233
13608TIP3    H240770   3.250   5.928   5.329
13609TIP3   OH240771   2.649   1.367   0.903
13609TIP3    H140772   2.700   1.287   0.913
13609TIP3    H240773   2.593   1.371   0.980
13610TIP3   OH240774   7.026   0.220   1.404
13610TIP3    H140775   7.016   0.257   1.317
13610TIP3    H240776   6.958   0.263   1.456
13611TIP3   OH240777   5.381   4.367   0.291
13611TIP3    H140778   5.352   4.323   0.370
13611TIP3    H240779   5.389   4.296   0.226
13612TIP3   OH240780   5.601   6.545   5.751
13612TIP3    H140781   5.531   6.610   5.742
13612TIP3    H240782   5.681   6.597   5.763
13613TIP3   OH240783   5.436   6.774   0.224
13613TIP3    H140784   5.359   6.830   0.230
13613TIP3    H240785   5.427   6.714   0.298
13614TIP3   OH240786   0.298   5.643   4.154
13614TIP3    H140787   0.388   5.670   4.172
13614TIP3    H240788   0.273   5.692   4.075
13615TIP3   OH240789   3.767   7.331   4.992
13615TIP3    H140790   3.707   7.261   5.017
13615TIP3    H240791   3.794   7.370   5.075
13616TIP3   OH240792   4.581   4.660   4.772
13616TIP3    H140793   4.522   4.602   4.723
13616TIP3    H240794   4.619   4.717   4.706
13617TIP3   OH240795   3.225   3.591   2.641
13617TIP3    H140796   3.240   3.667   2.697
13617TIP3    H240797   3.313   3.559   2.620
13618TIP3   OH240798   3.370   2.900   4.631
13618TIP3    H140799   3.411   2.853   4.558
13618TIP3    H240800   3.294   2.846   4.654
13619TIP3   OH240801   2.478   6.945   0.155
13619TIP3    H140802   2.534   6.868   0.142
13619TIP3    H240803   2.516   6.990   0.230
13620TIP3   OH240804   4.312   7.609   5.621
13620TIP3    H140805   4.304   7.661   5.701
13620TIP3    H240806   4.369   7.536   5.645
13621TIP3   OH240807   4.326   3.538   6.386
13621TIP3    H140808   4.403   3.587   6.415
13621TIP3    H240809   4.292   3.589   6.312
13622TIP3   OH240810   5.837   3.069   0.803
13622TIP3    H140811   5.755   3.020   0.809
13622TIP3    H240812   5.839   3.103   0.714
13623TIP3   OH240813   6.645   2.878   3.830
13623TIP3    H140814   6.646   2.818   3.905
13623TIP3    H240815   6.613   2.961   3.865
13624TIP3   OH240816   1.759   0.849   4.196
13624TIP3    H140817   1.720   0.781   4.141
13624TIP3    H240818   1.728   0.931   4.158
13625TIP3   OH240819   3.423   0.748   1.648
13625TIP3    H140820   3.478   0.818   1.684
13625TIP3    H240821   3.419   0.767   1.555
13626TIP3   OH240822   1.402   1.133   3.140
13626TIP3    H140823   1.417   1.122   3.046
13626TIP3    H240824   1.310   1.111   3.152
13627TIP3   OH240825   4.439   1.998   3.966
13627TIP3    H140826   4.345   1.998   3.947
13627TIP3    H240827   4.474   2.069   3.913
13628TIP3   OH240828   6.583   5.320   0.664
13628TIP3    H140829   6.606   5.228   0.659
13628TIP3    H240830   6.608   5.356   0.579
13629TIP3   OH240831   0.818   4.468   6.819
13629TIP3    H140832   0.793   4.534   6.754
13629TIP3    H240833   0.782   4.386   6.785
13630TIP3   OH240834   7.754   6.487   6.007
13630TIP3    H140835   7.765   6.409   6.061
13630TIP3    H240836   7.662   6.485   5.980
13631TIP3   OH240837   8.048   6.105   4.320
13631TIP3    H140838   8.020   6.113   4.229
13631TIP3    H240839   8.142   6.118   4.318
13632TIP3   OH240840   2.772   3.007   2.915
13632TIP3    H140841   2.764   2.995   2.820
13632TIP3    H240842   2.828   3.084   2.924
13633TIP3   OH240843   6.587   0.229   5.038
13633TIP3    H140844   6.658   0.206   4.979
13633TIP3    H240845   6.627   0.286   5.103
13634TIP3   OH240846   6.870   6.367   5.503
13634TIP3    H140847   6.888   6.394   5.413
13634TIP3    H240848   6.779   6.392   5.518
13635TIP3   OH240849   0.590   4.047   3.941
13635TIP3    H140850   0.677   4.042   3.981
13635TIP3    H240851   0.597   3.997   3.860
13636TIP3   OH240852   7.944   5.516   3.046
13636TIP3    H140853   7.989   5.532   3.129
13636TIP3    H240854   7.908   5.428   3.055
13637TIP3   OH240855   2.317   1.029   2.839
13637TIP3    H140856   2.327   1.059   2.749
13637TIP3    H240857   2.372   1.089   2.890
13638TIP3   OH240858   2.744   4.992   2.797
13638TIP3    H140859   2.814   4.935   2.831
13638TIP3    H240860   2.703   4.941   2.728
13639TIP3   OH240861   4.874   4.200   6.234
13639TIP3    H140862   4.788   4.210   6.275
13639TIP3    H240863   4.882   4.275   6.176
13640TIP3   OH240864   0.489   0.375   1.911
13640TIP3    H140865   0.417   0.319   1.882
13640TIP3    H240866   0.460   0.464   1.890
13641TIP3   OH240867   0.371   4.382   2.759
13641TIP3    H140868   0.402   4.470   2.783
13641TIP3    H240869   0.446   4.341   2.716
13642TIP3   OH240870   2.982   4.639   5.858
13642TIP3    H140871   3.051   4.580   5.887
13642TIP3    H240872   2.929   4.587   5.797
13643TIP3   OH240873   7.421   3.072   2.106
13643TIP3    H140874   7.440   3.158   2.070
13643TIP3    H240875   7.481   3.063   2.180
13644TIP3   OH240876   7.754   5.390   0.188
13644TIP3    H140877   7.739   5.296   0.201
13644TIP3    H240878   7.679   5.419   0.135
13645TIP3   OH240879   7.755   2.801   2.301
13645TIP3    H140880   7.758   2.733   2.233
13645TIP3    H240881   7.793   2.759   2.378
13646TIP3   OH240882   5.306   1.334   4.801
13646TIP3    H140883   5.243   1.400   4.775
13646TIP3    H240884   5.322   1.352   4.894
13647TIP3   OH240885   0.314   0.429   6.465
13647TIP3    H140886   0.337   0.518   6.493
13647TIP3    H240887   0.219   0.430   6.460
13648TIP3   OH240888   3.592   6.768   3.050
13648TIP3    H140889   3.598   6.732   3.139
13648TIP3    H240890   3.683   6.780   3.023
13649TIP3   OH240891   5.460   7.339   2.340
13649TIP3    H140892   5.522   7.395   2.387
13649TIP3    H240893   5.374   7.370   2.366
13650TIP3   OH240894   0.266   3.046   1.151
13650TIP3    H140895   0.283   3.053   1.245
13650TIP3    H240896   0.170   3.049   1.144
13651TIP3   OH240897   6.704   5.290   1.484
13651TIP3    H140898   6.743   5.363   1.533
13651TIP3    H240899   6.610   5.304   1.492
13652TIP3   OH240900   7.830   2.423   1.909
13652TIP3    H140901   7.898   2.376   1.957
13652TIP3    H240902   7.862   2.426   1.818
13653TIP3   OH240903   2.822   3.267   5.229
13653TIP3    H140904   2.728   3.256   5.222
13653TIP3    H240905   2.842   3.249   5.321
13654TIP3   OH240906   6.544   4.056   3.425
13654TIP3    H140907   6.510   3.967   3.417
13654TIP3    H240908   6.630   4.053   3.383
13655TIP3   OH240909   0.185   6.755   4.060
13655TIP3    H140910   0.195   6.727   3.968
13655TIP3    H240911   0.103   6.804   4.061
13656TIP3   OH240912   6.682   6.174   4.001
13656TIP3    H140913   6.708   6.086   4.027
13656TIP3    H240914   6.587   6.177   4.017
13657TIP3   OH240915   4.189   6.035   6.317
13657TIP3    H140916   4.224   5.951   6.288
13657TIP3    H240917   4.107   6.013   6.361
13658TIP3   OH240918   4.734   0.789   1.760
13658TIP3    H140919   4.661   0.768   1.819
13658TIP3    H240920   4.779   0.706   1.747
13659TIP3   OH240921   3.959   0.777   1.027
13659TIP3    H140922   3.934   0.696   1.072
13659TIP3    H240923   3.884   0.796   0.970
13660TIP3   OH240924   5.329   5.058   6.022
13660TIP3    H140925   5.291   4.996   6.084
13660TIP3    H240926   5.377   5.121   6.077
13661TIP3   OH240927   1.006   3.825   2.449
13661TIP3    H140928   1.059   3.891   2.494
13661TIP3    H240929   1.003   3.854   2.358
13662TIP3   OH240930   7.019   3.858   0.803
13662TIP3    H140931   7.011   3.954   0.804
13662TIP3    H240932   7.090   3.840   0.864
13663TIP3   OH240933   5.398   3.171   5.693
13663TIP3    H140934   5.421   3.247   5.747
13663TIP3    H240935   5.405   3.096   5.752
13664TIP3   OH240936   6.217   5.192   0.612
13664TIP3    H140937   6.275   5.228   0.680
13664TIP3    H240938   6.134   5.177   0.657
13665TIP3   OH240939   6.883   5.427   1.278
13665TIP3    H140940   6.844   5.341   1.297
13665TIP3    H240941   6.975   5.408   1.260
13666TIP3   OH240942   5.289   6.025   5.846
13666TIP3    H140943   5.377   6.026   5.883
13666TIP3    H240944   5.231   6.028   5.922
13667TIP3   OH240945   0.202   5.892   1.189
13667TIP3    H140946   0.216   5.822   1.126
13667TIP3    H240947   0.107   5.892   1.205
13668TIP3   OH240948   1.932   6.586   4.869
13668TIP3    H140949   1.991   6.517   4.900
13668TIP3    H240950   1.852   6.573   4.920
13669TIP3   OH240951   3.462   5.352   4.175
13669TIP3    H140952   3.507   5.341   4.091
13669TIP3    H240953   3.389   5.411   4.155
13670TIP3   OH240954   6.698   3.305   1.089
13670TIP3    H140955   6.697   3.382   1.032
13670TIP3    H240956   6.786   3.268   1.077
13671TIP3   OH240957   4.752   6.601   0.854
13671TIP3    H140958   4.811   6.610   0.779
13671TIP3    H240959   4.738   6.507   0.864
13672TIP3   OH240960   2.203   0.570   2.064
13672TIP3    H140961   2.172   0.653   2.027
13672TIP3    H240962   2.139   0.505   2.035
13673TIP3   OH240963   3.041   0.642   0.354
13673TIP3    H140964   2.955   0.603   0.368
13673TIP3    H240965   3.046   0.656   0.259
13674TIP3   OH240966   6.202   5.220   6.465
13674TIP3    H140967   6.254   5.201   6.386
13674TIP3    H240968   6.114   5.188   6.444
13675TIP3   OH240969   7.529   2.890   0.208
13675TIP3    H140970   7.569   2.949   0.272
13675TIP3    H240971   7.442   2.926   0.193
13676TIP3   OH240972   4.961   3.495   2.618
13676TIP3    H140973   4.932   3.478   2.708
13676TIP3    H240974   5.056   3.503   2.624
13677TIP3   OH240975   2.229   6.384   0.933
13677TIP3    H140976   2.148   6.377   0.984
13677TIP3    H240977   2.280   6.450   0.978
13678TIP3   OH240978   5.978   4.191   3.479
13678TIP3    H140979   5.955   4.144   3.400
13678TIP3    H240980   6.068   4.221   3.464
13679TIP3   OH240981   3.201   6.899   1.246
13679TIP3    H140982   3.157   6.837   1.304
13679TIP3    H240983   3.200   6.857   1.160
13680TIP3   OH240984   4.742   0.066   6.220
13680TIP3    H140985   4.801   0.041   6.292
13680TIP3    H240986   4.800   0.106   6.155
13681TIP3   OH240987   0.582   1.216   1.278
13681TIP3    H140988   0.670   1.240   1.309
13681TIP3    H240989   0.533   1.298   1.280
13682TIP3   OH240990   0.146   5.815   3.655
13682TIP3    H140991   0.093   5.735   3.658
13682TIP3    H240992   0.111   5.870   3.725
13683TIP3   OH240993   1.198   3.924   1.315
13683TIP3    H140994   1.208   3.832   1.290
13683TIP3    H240995   1.192   3.923   1.410
13684TIP3   OH240996   1.448   1.953   2.834
13684TIP3    H140997   1.367   1.997   2.809
13684TIP3    H240998   1.453   1.965   2.929
13685TIP3   OH240999   4.906   7.216   1.555
13685TIP3    H141000   4.991   7.188   1.588
13685TIP3    H241001   4.907   7.193   1.462
13686TIP3   OH241002   7.888   0.943   5.067
13686TIP3    H141003   7.869   0.947   4.973
13686TIP3    H241004   7.876   1.033   5.098
13687TIP3   OH241005   2.882   1.180   2.713
13687TIP3    H141006   2.893   1.128   2.792
13687TIP3    H241007   2.788   1.188   2.702
13688TIP3   OH241008   1.571   6.348   5.382
13688TIP3    H141009   1.664   6.349   5.400
13688TIP3    H241010   1.531   6.394   5.456
13689TIP3   OH241011   4.638   1.355   3.278
13689TIP3    H141012   4.627   1.316   3.365
13689TIP3    H241013   4.619   1.285   3.217
13690TIP3   OH241014   6.398   2.560   5.633
13690TIP3    H141015   6.436   2.521   5.554
13690TIP3    H241016   6.388   2.487   5.694
13691TIP3   OH241017   7.410   6.340   6.101
13691TIP3    H141018   7.355   6.408   6.063
13691TIP3    H241019   7.478   6.387   6.149
13692TIP3   OH241020   1.142   6.936   5.750
13692TIP3    H141021   1.189   7.000   5.696
13692TIP3    H241022   1.068   6.985   5.787
13693TIP3   OH241023   5.714   5.874   6.121
13693TIP3    H141024   5.718   5.921   6.038
13693TIP3    H241025   5.757   5.932   6.184
13694TIP3   OH241026   2.717   1.578   1.238
13694TIP3    H141027   2.738   1.654   1.184
13694TIP3    H241028   2.655   1.528   1.186
13695TIP3   OH241029   0.847   6.172   1.127
13695TIP3    H141030   0.791   6.126   1.065
13695TIP3    H241031   0.930   6.125   1.124
13696TIP3   OH241032   4.849   1.503   5.101
13696TIP3    H141033   4.792   1.549   5.162
13696TIP3    H241034   4.791   1.441   5.056
13697TIP3   OH241035   6.934   4.279   3.241
13697TIP3    H141036   6.854   4.306   3.286
13697TIP3    H241037   6.952   4.351   3.180
13698TIP3   OH241038   6.441   1.405   1.465
13698TIP3    H141039   6.431   1.410   1.370
13698TIP3    H241040   6.352   1.395   1.498
13699TIP3   OH241041   5.187   3.656   3.820
13699TIP3    H141042   5.126   3.648   3.894
13699TIP3    H241043   5.261   3.704   3.856
13700TIP3   OH241044   6.891   0.422   5.426
13700TIP3    H141045   6.921   0.430   5.516
13700TIP3    H241046   6.963   0.456   5.373
13701TIP3   OH241047   0.235   5.391   5.062
13701TIP3    H141048   0.154   5.347   5.037
13701TIP3    H241049   0.238   5.385   5.157
13702TIP3   OH241050   7.267   7.714   4.707
13702TIP3    H141051   7.213   7.770   4.762
13702TIP3    H241052   7.254   7.749   4.618
13703TIP3   OH241053   4.904   3.112   4.323
13703TIP3    H141054   4.817   3.149   4.311
13703TIP3    H241055   4.911   3.045   4.255
13704TIP3   OH241056   4.121   4.788   4.288
13704TIP3    H141057   4.044   4.817   4.238
13704TIP3    H241058   4.102   4.697   4.312
13705TIP3   OH241059   0.482   0.196   3.752
13705TIP3    H141060   0.532   0.254   3.694
13705TIP3    H241061   0.534   0.116   3.756
13706TIP3   OH241062   8.168   6.443   4.873
13706TIP3    H141063   8.134   6.532   4.877
13706TIP3    H241064   8.213   6.439   4.788
13707TIP3   OH241065   7.984   0.750   1.822
13707TIP3    H141066   8.058   0.808   1.835
13707TIP3    H241067   7.944   0.742   1.908
13708TIP3   OH241068   1.997   3.264   4.447
13708TIP3    H141069   1.997   3.289   4.540
13708TIP3    H241070   1.953   3.179   4.446
13709TIP3   OH241071   8.115   5.055   6.055
13709TIP3    H141072   8.199   5.043   6.099
13709TIP3    H241073   8.050   5.033   6.121
13710TIP3   OH241074   1.818   0.419   5.918
13710TIP3    H141075   1.850   0.359   5.985
13710TIP3    H241076   1.893   0.432   5.860
13711TIP3   OH241077   7.711   0.185   3.056
13711TIP3    H141078   7.768   0.194   3.132
13711TIP3    H241079   7.712   0.091   3.036
13712TIP3   OH241080   1.275   6.229   5.948
13712TIP3    H141081   1.370   6.232   5.937
13712TIP3    H241082   1.259   6.270   6.033
13713TIP3   OH241083   1.976   0.023   2.080
13713TIP3    H141084   2.051   0.066   2.123
13713TIP3    H241085   1.987   0.042   1.987
13714TIP3   OH241086   5.743   2.133   5.822
13714TIP3    H141087   5.752   2.083   5.740
13714TIP3    H241088   5.825   2.116   5.869
13715TIP3   OH241089   0.049   5.477   6.662
13715TIP3    H141090   0.082   5.401   6.711
13715TIP3    H241091   0.081   5.553   6.710
13716TIP3   OH241092   5.855   6.808   4.479
13716TIP3    H141093   5.892   6.720   4.476
13716TIP3    H241094   5.903   6.856   4.412
13717TIP3   OH241095   1.547   5.799   3.718
13717TIP3    H141096   1.534   5.709   3.687
13717TIP3    H241097   1.460   5.839   3.711
13718TIP3   OH241098   4.565   1.258   1.014
13718TIP3    H141099   4.560   1.253   1.109
13718TIP3    H241100   4.567   1.166   0.986
13719TIP3   OH241101   7.602   4.637   5.838
13719TIP3    H141102   7.545   4.576   5.790
13719TIP3    H241103   7.546   4.670   5.909
13720TIP3   OH241104   5.582   7.121   6.229
13720TIP3    H141105   5.549   7.125   6.318
13720TIP3    H241106   5.511   7.079   6.180
13721TIP3   OH241107   1.571   2.373   3.602
13721TIP3    H141108   1.609   2.332   3.525
13721TIP3    H241109   1.487   2.409   3.572
13722TIP3   OH241110   0.743   0.450   2.073
13722TIP3    H141111   0.791   0.491   2.001
13722TIP3    H241112   0.663   0.417   2.032
13723TIP3   OH241113   5.511   7.747   6.460
13723TIP3    H141114   5.586   7.691   6.437
13723TIP3    H241115   5.539   7.836   6.439
13724TIP3   OH241116   2.026   3.035   0.485
13724TIP3    H141117   2.120   3.050   0.475
13724TIP3    H241118   2.001   2.984   0.408
13725TIP3   OH241119   5.968   0.584   4.105
13725TIP3    H141120   5.924   0.658   4.062
13725TIP3    H241121   5.920   0.572   4.187
13726TIP3   OH241122   0.570   3.975   5.705
13726TIP3    H141123   0.660   3.959   5.733
13726TIP3    H241124   0.553   3.907   5.640
13727TIP3   OH241125   3.944   1.989   5.377
13727TIP3    H141126   3.914   1.942   5.300
13727TIP3    H241127   4.028   2.028   5.351
13728TIP3   OH241128   2.831   1.285   6.200
13728TIP3    H141129   2.787   1.320   6.123
13728TIP3    H241130   2.803   1.194   6.205
13729TIP3   OH241131   2.792   7.089   1.017
13729TIP3    H141132   2.843   7.167   1.039
13729TIP3    H241133   2.791   7.087   0.922
13730TIP3   OH241134   0.719   4.339   3.394
13730TIP3    H141135   0.690   4.425   3.422
13730TIP3    H241136   0.782   4.311   3.460
13731TIP3   OH241137   1.041   4.950   0.001
13731TIP3    H141138   0.979   4.976   0.069
13731TIP3    H241139   1.090   5.030  -0.019
13732TIP3   OH241140   0.215   3.061   4.673
13732TIP3    H141141   0.245   3.093   4.758
13732TIP3    H241142   0.152   3.127   4.643
13733TIP3   OH241143   0.594   0.852   5.614
13733TIP3    H141144   0.620   0.930   5.662
13733TIP3    H241145   0.531   0.882   5.550
13734TIP3   OH241146   4.183   2.535   2.456
13734TIP3    H141147   4.195   2.455   2.405
13734TIP3    H241148   4.103   2.518   2.507
13735TIP3   OH241149   1.529   6.422   4.116
13735TIP3    H141150   1.617   6.451   4.142
13735TIP3    H241151   1.512   6.347   4.174
13736TIP3   OH241152   3.367   1.677   5.544
13736TIP3    H141153   3.417   1.598   5.524
13736TIP3    H241154   3.396   1.741   5.479
13737TIP3   OH241155   1.030   1.640   6.311
13737TIP3    H141156   1.125   1.634   6.322
13737TIP3    H241157   1.016   1.624   6.218
13738TIP3   OH241158   2.864   4.284   6.072
13738TIP3    H141159   2.945   4.267   6.023
13738TIP3    H241160   2.879   4.368   6.115
13739TIP3   OH241161   5.081   6.313   0.770
13739TIP3    H141162   5.168   6.285   0.741
13739TIP3    H241163   5.023   6.290   0.698
13740TIP3   OH241164   4.495   0.410   1.130
13740TIP3    H141165   4.435   0.436   1.200
13740TIP3    H241166   4.525   0.323   1.156
13741TIP3   OH241167   0.500   1.999   2.099
13741TIP3    H141168   0.415   2.021   2.061
13741TIP3    H241169   0.489   1.910   2.131
13742TIP3   OH241170   0.321   3.147   4.930
13742TIP3    H141171   0.416   3.145   4.941
13742TIP3    H241172   0.287   3.097   5.004
13743TIP3   OH241173   5.696   3.121   3.170
13743TIP3    H141174   5.609   3.091   3.143
13743TIP3    H241175   5.689   3.133   3.264
13744TIP3   OH241176   3.368   7.061   6.565
13744TIP3    H141177   3.382   6.969   6.541
13744TIP3    H241178   3.295   7.089   6.511
13745TIP3   OH241179   3.386   6.691   4.630
13745TIP3    H141180   3.310   6.713   4.575
13745TIP3    H241181   3.412   6.774   4.670
13746TIP3   OH241182   3.303   6.580   2.481
13746TIP3    H141183   3.214   6.589   2.514
13746TIP3    H241184   3.321   6.486   2.486
13747TIP3   OH241185   5.926   4.480   5.578
13747TIP3    H141186   5.934   4.503   5.671
13747TIP3    H241187   5.833   4.491   5.559
13748TIP3   OH241188   3.427   7.849   2.362
13748TIP3    H141189   3.508   7.870   2.315
13748TIP3    H241190   3.434   7.755   2.380
13749TIP3   OH241191   0.812   7.730   0.601
13749TIP3    H141192   0.880   7.688   0.550
13749TIP3    H241193   0.744   7.663   0.611
13750TIP3   OH241194   6.878   5.391   4.819
13750TIP3    H141195   6.825   5.311   4.827
13750TIP3    H241196   6.818   5.461   4.844
13751TIP3   OH241197   6.573   7.695   5.803
13751TIP3    H141198   6.489   7.741   5.802
13751TIP3    H241199   6.638   7.764   5.794
13752TIP3   OH241200   3.957   1.247   1.252
13752TIP3    H141201   3.945   1.229   1.159
13752TIP3    H241202   3.868   1.257   1.286
13753TIP3   OH241203   3.041   1.723   5.162
13753TIP3    H141204   3.022   1.757   5.249
13753TIP3    H241205   3.017   1.631   5.166
13754TIP3   OH241206   0.813   0.051   1.086
13754TIP3    H141207   0.880   0.086   1.145
13754TIP3    H241208   0.813   0.111   1.011
13755TIP3   OH241209   1.165   6.863   0.808
13755TIP3    H141210   1.143   6.825   0.724
13755TIP3    H241211   1.082   6.897   0.842
13756TIP3   OH241212   6.902   2.134   4.663
13756TIP3    H141213   6.934   2.093   4.744
13756TIP3    H241214   6.921   2.227   4.674
13757TIP3   OH241215   1.513   7.660   1.632
13757TIP3    H141216   1.493   7.582   1.580
13757TIP3    H241217   1.536   7.727   1.567
13758TIP3   OH241218   1.812   7.747   1.695
13758TIP3    H141219   1.906   7.754   1.678
13758TIP3    H241220   1.780   7.685   1.629
13759TIP3   OH241221   2.729   2.031   2.601
13759TIP3    H141222   2.705   1.976   2.676
13759TIP3    H241223   2.645   2.056   2.563
13760TIP3   OH241224   4.182   7.001   0.623
13760TIP3    H141225   4.125   7.078   0.627
13760TIP3    H241226   4.134   6.938   0.569
13761TIP3   OH241227   5.216   0.044   1.100
13761TIP3    H141228   5.125   0.028   1.125
13761TIP3    H241229   5.214   0.126   1.051
13762TIP3   OH241230   2.288   2.718   5.710
13762TIP3    H141231   2.322   2.737   5.623
13762TIP3    H241232   2.310   2.626   5.725
13763TIP3   OH241233   5.611   3.254   5.389
13763TIP3    H141234   5.689   3.280   5.340
13763TIP3    H241235   5.547   3.230   5.321
13764TIP3   OH241236   5.706   0.690   2.195
13764TIP3    H141237   5.743   0.742   2.124
13764TIP3    H241238   5.639   0.637   2.154
13765TIP3   OH241239   4.865   5.375   2.766
13765TIP3    H141240   4.947   5.355   2.812
13765TIP3    H241241   4.891   5.441   2.700
13766TIP3   OH241242   3.632   0.234   3.945
13766TIP3    H141243   3.721   0.204   3.964
13766TIP3    H241244   3.638   0.330   3.950
13767TIP3   OH241245   0.808   2.670   4.455
13767TIP3    H141246   0.845   2.618   4.384
13767TIP3    H241247   0.881   2.723   4.487
13768TIP3   OH241248   4.000   3.103   5.556
13768TIP3    H141249   3.915   3.095   5.514
13768TIP3    H241250   4.042   3.178   5.513
13769TIP3   OH241251   4.430   3.021   3.360
13769TIP3    H141252   4.482   2.976   3.426
13769TIP3    H241253   4.493   3.051   3.295
13770TIP3   OH241254   4.685   1.042   3.974
13770TIP3    H141255   4.763   0.989   3.960
13770TIP3    H241256   4.634   0.993   4.038
13771TIP3   OH241257   6.583   5.402   3.667
13771TIP3    H141258   6.523   5.449   3.609
13771TIP3    H241259   6.573   5.446   3.752
13772TIP3   OH241260   3.824   3.292   4.266
13772TIP3    H141261   3.894   3.266   4.327
13772TIP3    H241262   3.766   3.216   4.263
13773TIP3   OH241263   0.543   5.724   2.797
13773TIP3    H141264   0.548   5.805   2.748
13773TIP3    H241265   0.476   5.740   2.863
13774TIP3   OH241266   0.491   5.932   3.804
13774TIP3    H141267   0.550   5.937   3.729
13774TIP3    H241268   0.549   5.930   3.880
13775TIP3   OH241269   3.467   0.058   3.286
13775TIP3    H141270   3.532   0.063   3.356
13775TIP3    H241271   3.481   0.136   3.233
13776TIP3   OH241272   8.278   3.685   3.705
13776TIP3    H141273   8.238   3.657   3.623
13776TIP3    H241274   8.218   3.653   3.773
13777TIP3   OH241275   1.996   5.737   2.883
13777TIP3    H141276   1.999   5.691   2.967
13777TIP3    H241277   1.914   5.787   2.887
13778TIP3   OH241278   7.198   6.188   6.163
13778TIP3    H141279   7.113   6.212   6.127
13778TIP3    H241280   7.257   6.258   6.136
13779TIP3   OH241281   1.385   1.906   4.696
13779TIP3    H141282   1.441   1.842   4.740
13779TIP3    H241283   1.446   1.969   4.658
13780TIP3   OH241284   2.367   2.599   1.786
13780TIP3    H141285   2.330   2.632   1.867
13780TIP3    H241286   2.454   2.568   1.810
13781TIP3   OH241287   2.146   2.849   1.655
13781TIP3    H141288   2.154   2.931   1.607
13781TIP3    H241289   2.185   2.784   1.596
13782TIP3   OH241290   7.500   5.818   5.781
13782TIP3    H141291   7.564   5.817   5.710
13782TIP3    H241292   7.479   5.726   5.795
13783TIP3   OH241293   7.472   6.793   6.658
13783TIP3    H141294   7.399   6.758   6.708
13783TIP3    H241295   7.490   6.727   6.591
13784TIP3   OH241296   4.121   2.121   0.562
13784TIP3    H141297   4.072   2.053   0.607
13784TIP3    H241298   4.195   2.075   0.522
13785TIP3   OH241299   6.496   2.354   5.148
13785TIP3    H141300   6.446   2.273   5.142
13785TIP3    H241301   6.430   2.422   5.159
13786TIP3   OH241302   2.544   0.706   2.261
13786TIP3    H141303   2.516   0.708   2.353
13786TIP3    H241304   2.639   0.720   2.265
13787TIP3   OH241305   0.740   1.750   4.245
13787TIP3    H141306   0.678   1.686   4.210
13787TIP3    H241307   0.740   1.736   4.339
13788TIP3   OH241308   3.416   2.947   4.892
13788TIP3    H141309   3.415   2.962   4.798
13788TIP3    H241310   3.335   2.898   4.910
13789TIP3   OH241311   6.945   1.709   0.155
13789TIP3    H141312   7.029   1.678   0.119
13789TIP3    H241313   6.970   1.782   0.213
13790TIP3   OH241314   0.163   0.571   2.941
13790TIP3    H141315   0.121   0.656   2.935
13790TIP3    H241316   0.167   0.540   2.851
13791TIP3   OH241317   0.433   1.818   0.312
13791TIP3    H141318   0.508   1.814   0.372
13791TIP3    H241319   0.373   1.880   0.353
13792TIP3   OH241320   3.951   0.474   4.509
13792TIP3    H141321   4.012   0.401   4.502
13792TIP3    H241322   3.880   0.453   4.448
13793TIP3   OH241323   5.386   3.560   6.028
13793TIP3    H141324   5.419   3.635   5.978
13793TIP3    H241325   5.294   3.581   6.042
13794TIP3   OH241326   6.905   4.526   3.682
13794TIP3    H141327   6.906   4.620   3.665
13794TIP3    H241328   6.971   4.490   3.623
13795TIP3   OH241329   6.058   3.281   6.745
13795TIP3    H141330   6.123   3.307   6.680
13795TIP3    H241331   6.056   3.185   6.741
13796TIP3   OH241332   5.073   7.825   0.075
13796TIP3    H141333   5.084   7.736   0.043
13796TIP3    H241334   5.151   7.872   0.045
13797TIP3   OH241335   1.523   3.749   1.092
13797TIP3    H141336   1.586   3.815   1.123
13797TIP3    H241337   1.578   3.675   1.065
13798TIP3   OH241338   6.651   0.900   3.617
13798TIP3    H141339   6.659   0.838   3.690
13798TIP3    H241340   6.603   0.974   3.654
13799TIP3   OH241341   0.855   6.884   2.196
13799TIP3    H141342   0.825   6.885   2.287
13799TIP3    H241343   0.775   6.887   2.144
13800TIP3   OH241344   4.362   2.947   1.712
13800TIP3    H141345   4.326   2.994   1.637
13800TIP3    H241346   4.354   3.008   1.785
13801TIP3   OH241347   0.982   5.344   1.451
13801TIP3    H141348   0.918   5.273   1.461
13801TIP3    H241349   1.057   5.317   1.503
13802TIP3   OH241350   0.552   1.251   0.179
13802TIP3    H141351   0.597   1.167   0.181
13802TIP3    H241352   0.485   1.244   0.246
13803TIP3   OH241353   2.571   5.630   1.734
13803TIP3    H141354   2.547   5.590   1.817
13803TIP3    H241355   2.663   5.657   1.746
13804TIP3   OH241356   1.766   6.275   3.385
13804TIP3    H141357   1.848   6.314   3.354
13804TIP3    H241358   1.738   6.218   3.313
13805TIP3   OH241359   8.029   2.824   0.573
13805TIP3    H141360   8.102   2.866   0.618
13805TIP3    H241361   8.071   2.771   0.505
13806TIP3   OH241362   6.968   1.489   2.595
13806TIP3    H141363   6.909   1.422   2.629
13806TIP3    H241364   6.964   1.479   2.499
13807TIP3   OH241365   8.055   4.460   5.639
13807TIP3    H141366   7.997   4.532   5.664
13807TIP3    H241367   8.018   4.427   5.557
13808TIP3   OH241368   2.971   2.235   1.212
13808TIP3    H141369   2.893   2.236   1.156
13808TIP3    H241370   3.042   2.264   1.155
13809TIP3   OH241371   7.996   1.323   5.414
13809TIP3    H141372   8.064   1.346   5.350
13809TIP3    H241373   7.955   1.407   5.436
13810TIP3   OH241374   8.269   5.288   1.136
13810TIP3    H141375   8.330   5.247   1.197
13810TIP3    H241376   8.186   5.289   1.183
13811TIP3   OH241377   0.571   2.369   3.857
13811TIP3    H141378   0.604   2.332   3.774
13811TIP3    H241379   0.477   2.379   3.843
13812TIP3   OH241380   1.392   2.869   3.312
13812TIP3    H141381   1.326   2.825   3.258
13812TIP3    H241382   1.341   2.927   3.369
13813TIP3   OH241383   7.086   0.656   4.151
13813TIP3    H141384   7.122   0.725   4.096
13813TIP3    H241385   7.148   0.584   4.142
13814TIP3   OH241386   5.488   1.824   4.058
13814TIP3    H141387   5.576   1.790   4.075
13814TIP3    H241388   5.501   1.916   4.034
13815TIP3   OH241389   6.828   4.760   3.013
13815TIP3    H141390   6.834   4.691   3.079
13815TIP3    H241391   6.756   4.733   2.956
13816TIP3   OH241392   3.963   5.427   4.664
13816TIP3    H141393   3.895   5.430   4.731
13816TIP3    H241394   3.935   5.357   4.605
13817TIP3   OH241395   0.669   7.561   4.003
13817TIP3    H141396   0.719   7.632   3.962
13817TIP3    H241397   0.631   7.514   3.929
13818TIP3   OH241398   7.894   1.875   1.486
13818TIP3    H141399   7.860   1.857   1.398
13818TIP3    H241400   7.816   1.884   1.540
13819TIP3   OH241401   3.066   4.174   3.180
13819TIP3    H141402   3.108   4.165   3.094
13819TIP3    H241403   2.984   4.125   3.172
13820TIP3   OH241404   1.134   5.723   2.441
13820TIP3    H141405   1.138   5.666   2.365
13820TIP3    H241406   1.042   5.720   2.469
13821TIP3   OH241407   3.349   7.512   5.643
13821TIP3    H141408   3.397   7.594   5.655
13821TIP3    H241409   3.328   7.482   5.731
13822TIP3   OH241410   6.664   3.816   2.379
13822TIP3    H141411   6.582   3.773   2.357
13822TIP3    H241412   6.699   3.846   2.295
13823TIP3   OH241413   1.481   6.732   3.946
13823TIP3    H141414   1.507   6.640   3.954
13823TIP3    H241415   1.563   6.780   3.950
13824TIP3   OH241416   5.461   0.496   1.824
13824TIP3    H141417   5.426   0.432   1.886
13824TIP3    H241418   5.539   0.453   1.788
13825TIP3   OH241419   3.172   2.298   1.058
13825TIP3    H141420   3.240   2.366   1.066
13825TIP3    H241421   3.211   2.231   1.002
13826TIP3   OH241422   2.958   3.971   6.070
13826TIP3    H141423   2.876   4.020   6.068
13826TIP3    H241424   2.967   3.936   5.981
13827TIP3   OH241425   7.768   1.580   0.202
13827TIP3    H141426   7.728   1.667   0.201
13827TIP3    H241427   7.802   1.570   0.290
13828TIP3   OH241428   5.084   7.416   5.803
13828TIP3    H141429   5.066   7.377   5.889
13828TIP3    H241430   5.009   7.474   5.787
13829TIP3   OH241431   5.960   6.815   0.226
13829TIP3    H141432   5.872   6.847   0.208
13829TIP3    H241433   5.973   6.831   0.320
13830TIP3   OH241434   0.314   0.207   2.557
13830TIP3    H141435   0.324   0.293   2.598
13830TIP3    H241436   0.403   0.183   2.529
13831TIP3   OH241437   0.210   3.710   5.866
13831TIP3    H141438   0.128   3.661   5.865
13831TIP3    H241439   0.257   3.678   5.943
13832TIP3   OH241440   4.714   3.027   2.057
13832TIP3    H141441   4.668   2.969   1.995
13832TIP3    H241442   4.775   3.076   2.003
13833TIP3   OH241443   6.179   1.166   2.476
13833TIP3    H141444   6.086   1.153   2.455
13833TIP3    H241445   6.226   1.112   2.412
13834TIP3   OH241446   2.337   1.935   6.400
13834TIP3    H141447   2.315   1.994   6.472
13834TIP3    H241448   2.368   1.855   6.442
13835TIP3   OH241449   1.034   1.867   0.893
13835TIP3    H141450   1.079   1.817   0.961
13835TIP3    H241451   0.997   1.942   0.939
13836TIP3   OH241452   4.305   7.135   5.650
13836TIP3    H141453   4.263   7.056   5.614
13836TIP3    H241454   4.256   7.154   5.730
13837TIP3   OH241455   0.000   4.839   5.011
13837TIP3    H141456  -0.027   4.917   4.962
13837TIP3    H241457   0.080   4.865   5.056
13838TIP3   OH241458   2.192   0.615   5.233
13838TIP3    H141459   2.134   0.652   5.166
13838TIP3    H241460   2.277   0.608   5.190
13839TIP3   OH241461   7.863   7.654   5.753
13839TIP3    H141462   7.816   7.598   5.815
13839TIP3    H241463   7.831   7.627   5.667
13840TIP3   OH241464   1.859   0.238   5.361
13840TIP3    H141465   1.851   0.172   5.292
13840TIP3    H241466   1.881   0.188   5.440
13841TIP3   OH241467   7.321   4.618   4.444
13841TIP3    H141468   7.387   4.576   4.388
13841TIP3    H241469   7.324   4.710   4.419
13842TIP3   OH241470   2.972   4.517   6.233
13842TIP3    H141471   2.945   4.609   6.226
13842TIP3    H241472   3.067   4.519   6.222
13843TIP3   OH241473   1.965   2.052   5.269
13843TIP3    H141474   1.990   2.058   5.361
13843TIP3    H241475   1.986   1.962   5.245
13844TIP3   OH241476   3.213  -0.042  -0.015
13844TIP3    H141477   3.130   0.004  -0.005
13844TIP3    H241478   3.258  -0.028   0.068
13845TIP3   OH241479   4.045   5.624   5.879
13845TIP3    H141480   3.962   5.625   5.927
13845TIP3    H241481   4.106   5.672   5.935
13846TIP3   OH241482   1.711   6.569   5.029
13846TIP3    H141483   1.642   6.533   5.086
13846TIP3    H241484   1.732   6.654   5.069
13847TIP3   OH241485   2.096   1.993   3.106
13847TIP3    H141486   2.061   2.013   3.193
13847TIP3    H241487   2.024   1.953   3.059
13848TIP3   OH241488   7.459   1.192   3.276
13848TIP3    H141489   7.366   1.199   3.253
13848TIP3    H241490   7.502   1.172   3.193
13849TIP3   OH241491   7.163   4.810   2.101
13849TIP3    H141492   7.219   4.763   2.040
13849TIP3    H241493   7.212   4.890   2.121
13850TIP3   OH241494   6.981   7.095   6.717
13850TIP3    H141495   7.045   7.161   6.690
13850TIP3    H241496   7.014   7.061   6.800
13851TIP3   OH241497   7.315   3.015   0.124
13851TIP3    H141498   7.360   3.073   0.062
13851TIP3    H241499   7.297   2.936   0.073
13852TIP3   OH241500   5.980   6.887   1.544
13852TIP3    H141501   6.044   6.956   1.529
13852TIP3    H241502   5.993   6.825   1.472
13853TIP3   OH241503   0.119   6.661   6.026
13853TIP3    H141504   0.123   6.751   6.059
13853TIP3    H241505   0.209   6.640   6.001
13854TIP3   OH241506   7.411   1.059   4.617
13854TIP3    H141507   7.442   1.087   4.532
13854TIP3    H241508   7.320   1.033   4.602
13855TIP3   OH241509   5.215   4.523   4.959
13855TIP3    H141510   5.283   4.456   4.962
13855TIP3    H241511   5.138   4.477   4.926
13856TIP3   OH241512   1.798   5.886   3.597
13856TIP3    H141513   1.713   5.865   3.636
13856TIP3    H241514   1.838   5.800   3.582
13857TIP3   OH241515   4.111   5.730   2.134
13857TIP3    H141516   4.094   5.813   2.090
13857TIP3    H241517   4.149   5.674   2.066
13858TIP3   OH241518   2.374   2.384   5.490
13858TIP3    H141519   2.461   2.406   5.455
13858TIP3    H241520   2.361   2.446   5.562
13859TIP3   OH241521   1.247   1.906   0.055
13859TIP3    H141522   1.305   1.911   0.131
13859TIP3    H241523   1.278   1.829   0.007
13860TIP3   OH241524   6.698   4.342   1.721
13860TIP3    H141525   6.650   4.383   1.649
13860TIP3    H241526   6.729   4.259   1.685
13861TIP3   OH241527   6.148   5.029   3.176
13861TIP3    H141528   6.153   4.965   3.105
13861TIP3    H241529   6.186   5.109   3.139
13862TIP3   OH241530   2.900   0.815   3.788
13862TIP3    H141531   2.926   0.813   3.880
13862TIP3    H241532   2.944   0.740   3.748
13863TIP3   OH241533   4.990   4.748   4.647
13863TIP3    H141534   4.928   4.686   4.685
13863TIP3    H241535   5.047   4.773   4.720
13864TIP3   OH241536   8.092   7.585   5.249
13864TIP3    H141537   8.142   7.615   5.173
13864TIP3    H241538   8.011   7.549   5.212
13865TIP3   OH241539   5.420   3.589   6.677
13865TIP3    H141540   5.474   3.665   6.655
13865TIP3    H241541   5.392   3.554   6.592
13866TIP3   OH241542   6.165   6.805   3.917
13866TIP3    H141543   6.203   6.874   3.971
13866TIP3    H241544   6.089   6.774   3.967
13867TIP3   OH241545   7.872   6.954   0.895
13867TIP3    H141546   7.832   6.994   0.972
13867TIP3    H241547   7.808   6.890   0.865
13868TIP3   OH241548   1.178   5.575   2.213
13868TIP3    H141549   1.273   5.579   2.220
13868TIP3    H241550   1.157   5.629   2.137
13869TIP3   OH241551   2.900   1.848   6.723
13869TIP3    H141552   2.988   1.816   6.702
13869TIP3    H241553   2.866   1.879   6.639
13870TIP3   OH241554   3.193   5.587   3.262
13870TIP3    H141555   3.229   5.671   3.232
13870TIP3    H241556   3.137   5.558   3.189
13871TIP3   OH241557   4.220   4.916   0.847
13871TIP3    H141558   4.246   4.925   0.755
13871TIP3    H241559   4.232   5.004   0.884
13872TIP3   OH241560   4.770   0.477   3.965
13872TIP3    H141561   4.789   0.538   3.893
13872TIP3    H241562   4.724   0.530   4.030
13873TIP3   OH241563   6.184   2.616   0.342
13873TIP3    H141564   6.123   2.569   0.284
13873TIP3    H241565   6.158   2.708   0.333
13874TIP3   OH241566   6.878   6.861   6.540
13874TIP3    H141567   6.914   6.940   6.581
13874TIP3    H241568   6.943   6.793   6.558
13875TIP3   OH241569   4.769   0.417   1.596
13875TIP3    H141570   4.778   0.430   1.691
13875TIP3    H241571   4.858   0.420   1.563
13876TIP3   OH241572   5.553   2.887   6.373
13876TIP3    H141573   5.516   2.872   6.461
13876TIP3    H241574   5.573   2.980   6.371
13877TIP3   OH241575   6.052   7.620   3.561
13877TIP3    H141576   6.060   7.529   3.535
13877TIP3    H241577   6.030   7.617   3.654
13878TIP3   OH241578   6.666   5.604   0.783
13878TIP3    H141579   6.695   5.633   0.870
13878TIP3    H241580   6.596   5.541   0.801
13879TIP3   OH241581   4.661   4.809   5.455
13879TIP3    H141582   4.591   4.758   5.496
13879TIP3    H241583   4.648   4.795   5.361
13880TIP3   OH241584   2.301   7.676   0.783
13880TIP3    H141585   2.268   7.763   0.758
13880TIP3    H241586   2.222   7.623   0.796
13881TIP3   OH241587   6.959   4.130   1.409
13881TIP3    H141588   6.931   4.156   1.322
13881TIP3    H241589   6.878   4.124   1.460
13882TIP3   OH241590   5.230   3.711   2.410
13882TIP3    H141591   5.141   3.713   2.375
13882TIP3    H241592   5.285   3.734   2.336
13883TIP3   OH241593   0.702   3.648   3.399
13883TIP3    H141594   0.736   3.737   3.389
13883TIP3    H241595   0.635   3.655   3.467
13884TIP3   OH241596   0.628   5.047   6.403
13884TIP3    H141597   0.704   5.102   6.424
13884TIP3    H241598   0.556   5.087   6.451
13885TIP3   OH241599   1.079   3.367   0.800
13885TIP3    H141600   1.144   3.400   0.862
13885TIP3    H241601   0.996   3.405   0.830
13886TIP3   OH241602   6.044   0.023   4.842
13886TIP3    H141603   5.970  -0.020   4.799
13886TIP3    H241604   6.102   0.048   4.769
13887TIP3   OH241605   4.885   6.012   0.805
13887TIP3    H141606   4.876   5.967   0.721
13887TIP3    H241607   4.965   5.977   0.843
13888TIP3   OH241608   7.542   6.680   5.200
13888TIP3    H141609   7.478   6.716   5.261
13888TIP3    H241610   7.492   6.662   5.120
13889TIP3   OH241611   4.715   6.413   5.781
13889TIP3    H141612   4.666   6.458   5.712
13889TIP3    H241613   4.656   6.343   5.810
13890TIP3   OH241614   3.274   3.144   3.984
13890TIP3    H141615   3.320   3.223   4.014
13890TIP3    H241616   3.246   3.165   3.895
13891TIP3   OH241617   7.475   4.291   3.742
13891TIP3    H141618   7.448   4.374   3.703
13891TIP3    H241619   7.541   4.256   3.682
13892TIP3   OH241620   2.267   0.906   1.443
13892TIP3    H141621   2.337   0.956   1.485
13892TIP3    H241622   2.188   0.932   1.489
13893TIP3   OH241623   1.285   3.378   4.828
13893TIP3    H141624   1.265   3.330   4.909
13893TIP3    H241625   1.353   3.327   4.785
13894TIP3   OH241626   3.800   0.242   4.667
13894TIP3    H141627   3.742   0.169   4.647
13894TIP3    H241628   3.885   0.201   4.684
13895TIP3   OH241629   0.887   2.486   3.197
13895TIP3    H141630   0.858   2.415   3.139
13895TIP3    H241631   0.810   2.543   3.205
13896TIP3   OH241632   4.302   5.026   5.487
13896TIP3    H141633   4.208   5.014   5.480
13896TIP3    H241634   4.334   5.022   5.397
13897TIP3   OH241635   2.883   3.880   5.227
13897TIP3    H141636   2.957   3.832   5.189
13897TIP3    H241637   2.808   3.854   5.173
13898TIP3   OH241638   4.855   2.918   6.031
13898TIP3    H141639   4.783   2.860   6.007
13898TIP3    H241640   4.929   2.859   6.045
13899TIP3   OH241641   5.031   3.315   3.233
13899TIP3    H141642   5.087   3.280   3.301
13899TIP3    H241643   4.942   3.303   3.267
13900TIP3   OH241644   0.245   5.253   6.045
13900TIP3    H141645   0.286   5.337   6.065
13900TIP3    H241646   0.166   5.252   6.099
13901TIP3   OH241647   3.683   4.238   5.478
13901TIP3    H141648   3.600   4.280   5.501
13901TIP3    H241649   3.703   4.270   5.390
13902TIP3   OH241650   1.207   4.479   0.801
13902TIP3    H141651   1.249   4.550   0.850
13902TIP3    H241652   1.114   4.488   0.822
13903TIP3   OH241653   3.045   0.678   5.634
13903TIP3    H141654   3.114   0.688   5.700
13903TIP3    H241655   3.032   0.583   5.628
13904TIP3   OH241656   6.037   7.074   4.584
13904TIP3    H141657   6.041   7.054   4.678
13904TIP3    H241658   6.095   7.010   4.543
13905TIP3   OH241659   0.912   7.538   4.451
13905TIP3    H141660   0.917   7.501   4.363
13905TIP3    H241661   0.825   7.513   4.482
13906TIP3   OH241662   1.010   7.531   1.713
13906TIP3    H141663   0.998   7.455   1.655
13906TIP3    H241664   1.095   7.515   1.754
13907TIP3   OH241665   0.343   6.436   3.737
13907TIP3    H141666   0.328   6.343   3.754
13907TIP3    H241667   0.420   6.458   3.791
13908TIP3   OH241668   7.625   7.838   3.383
13908TIP3    H141669   7.612   7.758   3.332
13908TIP3    H241670   7.585   7.819   3.468
13909TIP3   OH241671   2.727   5.948   1.909
13909TIP3    H141672   2.656   5.978   1.852
13909TIP3    H241673   2.742   5.858   1.883
13910TIP3   OH241674   7.376   5.909   3.853
13910TIP3    H141675   7.429   5.883   3.929
13910TIP3    H241676   7.286   5.888   3.879
13911TIP3   OH241677   3.192   0.597   4.484
13911TIP3    H141678   3.117   0.540   4.498
13911TIP3    H241679   3.167   0.650   4.408
13912TIP3   OH241680   1.796   0.975   3.025
13912TIP3    H141681   1.888   0.953   3.011
13912TIP3    H241682   1.792   1.070   3.018
13913TIP3   OH241683   1.140   2.272   5.218
13913TIP3    H141684   1.183   2.225   5.290
13913TIP3    H241685   1.113   2.203   5.158
13914TIP3   OH241686   6.027   0.765   5.496
13914TIP3    H141687   5.960   0.833   5.487
13914TIP3    H241688   6.023   0.717   5.413
13915TIP3   OH241689   6.576   6.648   4.605
13915TIP3    H141690   6.653   6.704   4.592
13915TIP3    H241691   6.513   6.703   4.651
13916TIP3   OH241692   3.476   1.984   6.205
13916TIP3    H141693   3.428   1.908   6.239
13916TIP3    H241694   3.474   1.974   6.110
13917TIP3   OH241695   4.317   5.367   0.002
13917TIP3    H141696   4.405   5.394   0.027
13917TIP3    H241697   4.325   5.274  -0.018
13918TIP3   OH241698   4.890   1.432   5.908
13918TIP3    H141699   4.879   1.375   5.831
13918TIP3    H241700   4.801   1.461   5.928
13919TIP3   OH241701   3.156   2.523   2.678
13919TIP3    H141702   3.148   2.517   2.583
13919TIP3    H241703   3.073   2.488   2.711
13920TIP3   OH241704   8.194   2.656   1.691
13920TIP3    H141705   8.117   2.677   1.638
13920TIP3    H241706   8.249   2.603   1.633
13921TIP3   OH241707   2.827   3.584   1.775
13921TIP3    H141708   2.848   3.643   1.702
13921TIP3    H241709   2.894   3.602   1.840
13922TIP3   OH241710   3.366   6.105   3.209
13922TIP3    H141711   3.282   6.065   3.188
13922TIP3    H241712   3.384   6.078   3.299
13923TIP3   OH241713   0.389   0.764   4.591
13923TIP3    H141714   0.431   0.731   4.670
13923TIP3    H241715   0.380   0.687   4.535
13924TIP3   OH241716   1.204   1.628   2.866
13924TIP3    H141717   1.194   1.712   2.822
13924TIP3    H241718   1.114   1.597   2.879
13925TIP3   OH241719   6.350   3.789   1.168
13925TIP3    H141720   6.290   3.714   1.167
13925TIP3    H241721   6.387   3.789   1.256
13926TIP3   OH241722   1.061   7.449   0.726
13926TIP3    H141723   1.059   7.495   0.642
13926TIP3    H241724   1.127   7.380   0.714
13927TIP3   OH241725   2.070   7.851   3.840
13927TIP3    H141726   2.016   7.900   3.903
13927TIP3    H241727   2.071   7.761   3.875
13928TIP3   OH241728   2.056   0.732   5.731
13928TIP3    H141729   2.033   0.825   5.740
13928TIP3    H241730   2.138   0.732   5.681
13929TIP3   OH241731   0.179   5.814   2.283
13929TIP3    H141732   0.167   5.752   2.355
13929TIP3    H241733   0.092   5.821   2.243
13930TIP3   OH241734   7.963   7.172   3.710
13930TIP3    H141735   7.872   7.200   3.703
13930TIP3    H241736   8.013   7.246   3.676
13931TIP3   OH241737   3.369   0.889   3.293
13931TIP3    H141738   3.379   0.960   3.357
13931TIP3    H241739   3.350   0.934   3.211
13932TIP3   OH241740   3.578   7.837   5.371
13932TIP3    H141741   3.486   7.812   5.359
13932TIP3    H241742   3.620   7.816   5.288
13933TIP3   OH241743   2.394   3.340   0.890
13933TIP3    H141744   2.366   3.408   0.951
13933TIP3    H241745   2.409   3.263   0.945
13934TIP3   OH241746   3.681   6.966   6.099
13934TIP3    H141747   3.760   6.917   6.074
13934TIP3    H241748   3.713   7.051   6.127
13935TIP3   OH241749   5.338   6.717   2.942
13935TIP3    H141750   5.265   6.695   3.000
13935TIP3    H241751   5.309   6.796   2.896
13936TIP3   OH241752   5.160   0.921   5.304
13936TIP3    H141753   5.218   0.846   5.297
13936TIP3    H241754   5.137   0.926   5.396
13937TIP3   OH241755   5.102   5.367   1.014
13937TIP3    H141756   5.039   5.414   1.068
13937TIP3    H241757   5.186   5.380   1.058
13938TIP3   OH241758   5.802   5.514   2.868
13938TIP3    H141759   5.792   5.605   2.898
13938TIP3    H241760   5.869   5.478   2.925
13939TIP3   OH241761   1.753   3.539   2.826
13939TIP3    H141762   1.809   3.617   2.833
13939TIP3    H241763   1.786   3.480   2.894
13940TIP3   OH241764   6.053   4.500   3.975
13940TIP3    H141765   6.010   4.562   4.035
13940TIP3    H241766   6.146   4.504   3.999
13941TIP3   OH241767   2.642   5.148   3.859
13941TIP3    H141768   2.631   5.190   3.945
13941TIP3    H241769   2.736   5.150   3.843
13942TIP3   OH241770   3.184   2.670   2.258
13942TIP3    H141771   3.248   2.724   2.305
13942TIP3    H241772   3.178   2.590   2.310
13943TIP3   OH241773   2.987   7.760   5.399
13943TIP3    H141774   2.953   7.695   5.461
13943TIP3    H241775   2.973   7.720   5.313
13944TIP3   OH241776   3.217   6.013   3.476
13944TIP3    H141777   3.249   6.079   3.538
13944TIP3    H241778   3.261   5.932   3.504
13945TIP3   OH241779   5.130   6.098   4.132
13945TIP3    H141780   5.184   6.105   4.211
13945TIP3    H241781   5.111   6.189   4.108
13946TIP3   OH241782   3.636   5.342   5.103
13946TIP3    H141783   3.634   5.275   5.172
13946TIP3    H241784   3.559   5.325   5.050
13947TIP3   OH241785   0.173   0.937   6.680
13947TIP3    H141786   0.081   0.933   6.654
13947TIP3    H241787   0.174   0.993   6.758
13948TIP3   OH241788   4.712   1.703   5.837
13948TIP3    H141789   4.679   1.703   5.747
13948TIP3    H241790   4.659   1.636   5.881
13949TIP3   OH241791   3.830   1.599   6.217
13949TIP3    H141792   3.830   1.519   6.269
13949TIP3    H241793   3.751   1.646   6.242
13950TIP3   OH241794   6.546   5.530   1.518
13950TIP3    H141795   6.550   5.622   1.546
13950TIP3    H241796   6.468   5.495   1.561
13951TIP3   OH241797   0.307   3.696   0.321
13951TIP3    H141798   0.240   3.628   0.311
13951TIP3    H241799   0.390   3.651   0.304
13952TIP3   OH241800   2.605   7.742   5.798
13952TIP3    H141801   2.541   7.719   5.865
13952TIP3    H241802   2.551   7.762   5.720
13953TIP3   OH241803   6.205   2.200   4.517
13953TIP3    H141804   6.226   2.238   4.431
13953TIP3    H241805   6.109   2.197   4.518
13954TIP3   OH241806   3.512   5.773   5.602
13954TIP3    H141807   3.577   5.731   5.658
13954TIP3    H241808   3.558   5.846   5.561
13955TIP3   OH241809   5.135   2.784   4.435
13955TIP3    H141810   5.088   2.863   4.463
13955TIP3    H241811   5.098   2.763   4.349
13956TIP3   OH241812   3.994   6.849   1.312
13956TIP3    H141813   4.078   6.894   1.311
13956TIP3    H241814   4.015   6.758   1.287
13957TIP3   OH241815   0.588   5.502   5.415
13957TIP3    H141816   0.615   5.551   5.337
13957TIP3    H241817   0.655   5.522   5.481
13958TIP3   OH241818   1.731   1.016   6.586
13958TIP3    H141819   1.792   1.055   6.524
13958TIP3    H241820   1.730   0.923   6.564
13959TIP3   OH241821   6.913   3.090   6.260
13959TIP3    H141822   6.981   3.154   6.239
13959TIP3    H241823   6.883   3.116   6.348
13960TIP3   OH241824   5.899   2.932   6.023
13960TIP3    H141825   5.966   2.880   5.979
13960TIP3    H241826   5.931   3.022   6.017
13961TIP3   OH241827   2.525   0.965   3.552
13961TIP3    H141828   2.476   0.883   3.544
13961TIP3    H241829   2.469   1.022   3.604
13962TIP3   OH241830   5.991   1.503   6.417
13962TIP3    H141831   6.006   1.597   6.407
13962TIP3    H241832   5.989   1.489   6.511
13963TIP3   OH241833   6.570   4.483   1.514
13963TIP3    H141834   6.648   4.518   1.471
13963TIP3    H241835   6.500   4.544   1.490
13964TIP3   OH241836   4.669   7.163   0.764
13964TIP3    H141837   4.580   7.147   0.733
13964TIP3    H241838   4.723   7.104   0.710
13965TIP3   OH241839   7.673   3.161   5.924
13965TIP3    H141840   7.663   3.085   5.982
13965TIP3    H241841   7.706   3.125   5.842
13966TIP3   OH241842   0.852   1.403   1.775
13966TIP3    H141843   0.762   1.370   1.775
13966TIP3    H241844   0.846   1.491   1.811
13967TIP3   OH241845   7.666   2.346   3.109
13967TIP3    H141846   7.661   2.299   3.193
13967TIP3    H241847   7.583   2.395   3.105
13968TIP3   OH241848   0.843   6.986   2.685
13968TIP3    H141849   0.857   6.893   2.664
13968TIP3    H241850   0.836   7.029   2.599
13969TIP3   OH241851   4.375   0.882   0.287
13969TIP3    H141852   4.400   0.805   0.235
13969TIP3    H241853   4.457   0.928   0.304
13970TIP3   OH241854   7.611   2.066   2.794
13970TIP3    H141855   7.545   2.014   2.748
13970TIP3    H241856   7.670   2.001   2.832
13971TIP3   OH241857   4.843   5.856   5.274
13971TIP3    H141858   4.807   5.932   5.320
13971TIP3    H241859   4.766   5.806   5.247
13972TIP3   OH241860   0.498   7.006   4.516
13972TIP3    H141861   0.451   6.923   4.519
13972TIP3    H241862   0.585   6.984   4.482
13973TIP3   OH241863   5.256   3.499   6.449
13973TIP3    H141864   5.284   3.418   6.407
13973TIP3    H241865   5.167   3.513   6.417
13974TIP3   OH241866   4.720   2.558   6.600
13974TIP3    H141867   4.688   2.610   6.527
13974TIP3    H241868   4.751   2.622   6.664
13975TIP3   OH241869   6.192   4.421   3.424
13975TIP3    H141870   6.147   4.490   3.374
13975TIP3    H241871   6.169   4.440   3.515
13976TIP3   OH241872   4.850   3.518   4.738
13976TIP3    H141873   4.768   3.486   4.700
13976TIP3    H241874   4.823   3.562   4.819
13977TIP3   OH241875   6.411   0.024   5.115
13977TIP3    H141876   6.468   0.091   5.077
13977TIP3    H241877   6.396  -0.037   5.043
13978TIP3   OH241878   1.830   3.182   3.622
13978TIP3    H141879   1.859   3.210   3.709
13978TIP3    H241880   1.809   3.090   3.633
13979TIP3   OH241881   1.429   4.010   0.674
13979TIP3    H141882   1.410   4.086   0.620
13979TIP3    H241883   1.523   3.994   0.660
13980TIP3   OH241884   7.836   7.630   6.114
13980TIP3    H141885   7.822   7.544   6.074
13980TIP3    H241886   7.924   7.655   6.085
13981TIP3   OH241887   3.701   1.580   1.383
13981TIP3    H141888   3.636   1.525   1.339
13981TIP3    H241889   3.748   1.521   1.441
13982TIP3   OH241890   7.039   3.316   6.441
13982TIP3    H141891   6.981   3.305   6.517
13982TIP3    H241892   6.998   3.385   6.389
13983TIP3   OH241893   0.232   5.606   0.439
13983TIP3    H141894   0.325   5.604   0.415
13983TIP3    H241895   0.186   5.609   0.355
13984TIP3   OH241896   5.664   2.676   1.998
13984TIP3    H141897   5.585   2.729   1.991
13984TIP3    H241898   5.736   2.739   1.988
13985TIP3   OH241899   5.442   0.593   3.348
13985TIP3    H141900   5.382   0.546   3.290
13985TIP3    H241901   5.414   0.685   3.342
13986TIP3   OH241902   7.613   3.926   1.708
13986TIP3    H141903   7.574   4.013   1.721
13986TIP3    H241904   7.665   3.912   1.788
13987TIP3   OH241905   7.667   2.209   6.708
13987TIP3    H141906   7.658   2.236   6.800
13987TIP3    H241907   7.656   2.291   6.659
13988TIP3   OH241908   0.188   3.914   0.530
13988TIP3    H141909   0.112   3.862   0.504
13988TIP3    H241910   0.232   3.935   0.447
13989TIP3   OH241911   3.902   0.159   6.693
13989TIP3    H141912   3.918   0.253   6.698
13989TIP3    H241913   3.979   0.119   6.733
13990TIP3   OH241914   8.114   1.820   0.866
13990TIP3    H141915   8.075   1.905   0.885
13990TIP3    H241916   8.132   1.782   0.952
13991TIP3   OH241917   3.238   5.376   0.171
13991TIP3    H141918   3.261   5.461   0.209
13991TIP3    H241919   3.266   5.382   0.080
13992TIP3   OH241920   6.636   2.728   4.060
13992TIP3    H141921   6.622   2.644   4.105
13992TIP3    H241922   6.725   2.754   4.085
13993TIP3   OH241923   2.959   4.825   2.911
13993TIP3    H141924   3.010   4.835   2.991
13993TIP3    H241925   3.007   4.759   2.860
13994TIP3   OH241926   1.038   6.184   1.442
13994TIP3    H141927   0.964   6.238   1.413
13994TIP3    H241928   1.000   6.126   1.508
13995TIP3   OH241929   4.794   6.905   3.165
13995TIP3    H141930   4.867   6.878   3.109
13995TIP3    H241931   4.738   6.827   3.170
13996TIP3   OH241932   4.403   6.093   1.575
13996TIP3    H141933   4.442   6.180   1.581
13996TIP3    H241934   4.339   6.091   1.647
13997TIP3   OH241935   2.693   1.440   4.582
13997TIP3    H141936   2.720   1.368   4.525
13997TIP3    H241937   2.688   1.516   4.524
13998TIP3   OH241938   0.762   2.088   3.691
13998TIP3    H141939   0.821   2.161   3.671
13998TIP3    H241940   0.676   2.118   3.662
13999TIP3   OH241941   3.736   3.657   6.472
13999TIP3    H141942   3.784   3.740   6.467
13999TIP3    H241943   3.749   3.627   6.562
14000TIP3   OH241944   4.228   7.319   3.050
14000TIP3    H141945   4.192   7.269   3.123
14000TIP3    H241946   4.239   7.254   2.980
14001TIP3   OH241947   2.559   7.802   1.362
14001TIP3    H141948   2.642   7.848   1.376
14001TIP3    H241949   2.537   7.817   1.271
14002TIP3   OH241950   7.061   1.907   3.009
14002TIP3    H141951   7.046   1.986   3.060
14002TIP3    H241952   7.012   1.839   3.056
14003TIP3   OH241953   2.549   1.172   5.230
14003TIP3    H141954   2.550   1.256   5.277
14003TIP3    H241955   2.610   1.184   5.158
14004TIP3   OH241956   7.884   7.725   3.524
14004TIP3    H141957   7.798   7.748   3.561
14004TIP3    H241958   7.871   7.638   3.486
14005TIP3   OH241959   7.335   3.035   1.268
14005TIP3    H141960   7.283   3.027   1.188
14005TIP3    H241961   7.406   3.095   1.244
14006TIP3   OH241962   6.388   0.151   2.988
14006TIP3    H141963   6.464   0.113   2.944
14006TIP3    H241964   6.425   0.195   3.065
14007TIP3   OH241965   6.008   0.824   5.868
14007TIP3    H141966   5.938   0.766   5.840
14007TIP3    H241967   5.969   0.912   5.864
14008TIP3   OH241968   1.466   3.475   5.198
14008TIP3    H141969   1.421   3.397   5.165
14008TIP3    H241970   1.557   3.448   5.207
14009TIP3   OH241971   6.804   5.481   6.662
14009TIP3    H141972   6.874   5.481   6.727
14009TIP3    H241973   6.832   5.545   6.596
14010TIP3   OH241974   7.237   6.732   4.001
14010TIP3    H141975   7.213   6.640   4.009
14010TIP3    H241976   7.154   6.778   3.984
14011TIP3   OH241977   8.306   7.267   2.854
14011TIP3    H141978   8.300   7.171   2.852
14011TIP3    H241979   8.400   7.285   2.848
14012TIP3   OH241980   2.590   7.059   0.379
14012TIP3    H141981   2.674   7.052   0.425
14012TIP3    H241982   2.532   7.105   0.440
14013TIP3   OH241983   6.949   0.074   0.595
14013TIP3    H141984   7.001   0.034   0.525
14013TIP3    H241985   7.002   0.062   0.674
14014TIP3   OH241986   1.991   7.680   3.274
14014TIP3    H141987   2.034   7.663   3.357
14014TIP3    H241988   1.971   7.774   3.276
14015TIP3   OH241989   5.449   1.447   3.584
14015TIP3    H141990   5.528   1.482   3.624
14015TIP3    H241991   5.379   1.471   3.644
14016TIP3   OH241992   1.580   1.358   5.146
14016TIP3    H141993   1.527   1.279   5.132
14016TIP3    H241994   1.594   1.394   5.059
14017TIP3   OH241995   6.737   3.748   4.353
14017TIP3    H141996   6.806   3.770   4.290
14017TIP3    H241997   6.732   3.652   4.351
14018TIP3   OH241998   4.734   5.007   2.330
14018TIP3    H141999   4.761   4.926   2.373
14018TIP3    H242000   4.639   5.002   2.326
14019TIP3   OH242001   3.693   5.254   0.362
14019TIP3    H142002   3.605   5.235   0.394
14019TIP3    H242003   3.703   5.198   0.285
14020TIP3   OH242004   7.407   6.835   2.725
14020TIP3    H142005   7.499   6.862   2.727
14020TIP3    H242006   7.402   6.764   2.788
14021TIP3   OH242007   2.763   3.976   2.515
14021TIP3    H142008   2.724   3.898   2.555
14021TIP3    H242009   2.847   3.986   2.559
14022TIP3   OH242010   2.732   5.879   0.952
14022TIP3    H142011   2.694   5.966   0.941
14022TIP3    H242012   2.746   5.871   1.047
14023TIP3   OH242013   1.984   7.281   3.956
14023TIP3    H142014   1.932   7.247   4.030
14023TIP3    H242015   1.932   7.259   3.879
14024TIP3   OH242016   6.756   1.218   5.466
14024TIP3    H142017   6.751   1.159   5.541
14024TIP3    H242018   6.688   1.186   5.406
14025TIP3   OH242019   7.469   4.370   4.860
14025TIP3    H142020   7.527   4.354   4.786
14025TIP3    H242021   7.527   4.378   4.935
14026TIP3   OH242022   4.983   0.298   1.242
14026TIP3    H142023   4.965   0.345   1.323
14026TIP3    H242024   5.078   0.305   1.231
14027TIP3   OH242025   5.132   7.205   2.258
14027TIP3    H142026   5.049   7.204   2.306
14027TIP3    H242027   5.198   7.193   2.326
14028TIP3   OH242028   4.498   0.452   2.742
14028TIP3    H142029   4.560   0.458   2.814
14028TIP3    H242030   4.424   0.506   2.769
14029TIP3   OH242031   4.794   6.106   2.512
14029TIP3    H142032   4.878   6.096   2.556
14029TIP3    H242033   4.744   6.165   2.569
14030TIP3   OH242034   8.227   5.389   3.935
14030TIP3    H142035   8.266   5.402   4.022
14030TIP3    H242036   8.249   5.469   3.887
14031TIP3   OH242037   8.083   3.246   0.645
14031TIP3    H142038   8.114   3.335   0.626
14031TIP3    H242039   8.146   3.212   0.708
14032TIP3   OH242040   4.589   5.371   0.087
14032TIP3    H142041   4.612   5.326   0.006
14032TIP3    H242042   4.635   5.455   0.082
14033TIP3   OH242043   0.512   2.418   6.575
14033TIP3    H142044   0.596   2.384   6.545
14033TIP3    H242045   0.521   2.513   6.569
14034TIP3   OH242046   2.188   0.654   6.200
14034TIP3    H142047   2.239   0.685   6.125
14034TIP3    H242048   2.103   0.630   6.163
14035TIP3   OH242049   2.320   3.773   1.543
14035TIP3    H142050   2.332   3.821   1.461
14035TIP3    H242051   2.366   3.690   1.529
14036TIP3   OH242052   0.798   4.542   2.626
14036TIP3    H142053   0.853   4.579   2.557
14036TIP3    H242054   0.839   4.458   2.646
14037TIP3   OH242055   6.071   3.708   4.539
14037TIP3    H142056   6.125   3.664   4.473
14037TIP3    H242057   6.098   3.800   4.534
14038TIP3   OH242058   6.205   4.717   2.651
14038TIP3    H142059   6.287   4.717   2.601
14038TIP3    H242060   6.156   4.792   2.617
14039TIP3   OH242061   2.036   4.195   2.005
14039TIP3    H142062   2.033   4.210   1.910
14039TIP3    H242063   2.123   4.160   2.021
14040TIP3   OH242064   5.901   4.235   6.063
14040TIP3    H142065   5.869   4.323   6.079
14040TIP3    H242066   5.986   4.231   6.106
14041TIP3   OH242067   0.417   4.502   0.224
14041TIP3    H142068   0.340   4.488   0.167
14041TIP3    H242069   0.473   4.427   0.205
14042TIP3   OH242070   4.545   7.583   4.695
14042TIP3    H142071   4.533   7.502   4.745
14042TIP3    H242072   4.539   7.556   4.604
14043TIP3   OH242073   0.624   0.235   1.235
14043TIP3    H142074   0.683   0.196   1.170
14043TIP3    H242075   0.581   0.160   1.276
14044TIP3   OH242076   6.988   6.077   1.793
14044TIP3    H142077   6.908   6.083   1.742
14044TIP3    H242078   6.964   6.027   1.871
14045TIP3   OH242079   5.609   0.518   4.222
14045TIP3    H142080   5.685   0.521   4.281
14045TIP3    H242081   5.534   0.510   4.281
14046TIP3   OH242082   6.677   4.182   4.988
14046TIP3    H142083   6.663   4.259   5.044
14046TIP3    H242084   6.729   4.215   4.915
14047TIP3   OH242085   3.324   1.372   3.818
14047TIP3    H142086   3.333   1.292   3.766
14047TIP3    H242087   3.353   1.346   3.906
14048TIP3   OH242088   2.693   3.420   1.445
14048TIP3    H142089   2.768   3.370   1.477
14048TIP3    H242090   2.704   3.421   1.350
14049TIP3   OH242091   7.366   2.207   1.853
14049TIP3    H142092   7.368   2.294   1.814
14049TIP3    H242093   7.315   2.217   1.933
14050TIP3   OH242094   1.591   4.414   2.171
14050TIP3    H142095   1.666   4.387   2.118
14050TIP3    H242096   1.586   4.509   2.160
14051TIP3   OH242097   3.969   1.191   3.566
14051TIP3    H142098   4.049   1.240   3.551
14051TIP3    H242099   3.934   1.226   3.648
14052TIP3   OH242100   6.907   5.970   0.581
14052TIP3    H142101   6.821   5.991   0.545
14052TIP3    H242102   6.890   5.951   0.673
14053TIP3   OH242103   8.128   4.730   5.280
14053TIP3    H142104   8.139   4.817   5.319
14053TIP3    H242105   8.056   4.741   5.218
14054TIP3   OH242106   5.030   5.009   5.072
14054TIP3    H142107   4.976   4.956   5.130
14054TIP3    H242108   4.969   5.073   5.033
14055TIP3   OH242109   0.276   5.458   3.926
14055TIP3    H142110   0.311   5.482   4.012
14055TIP3    H242111   0.309   5.527   3.867
14056TIP3   OH242112   1.145   7.531   0.997
14056TIP3    H142113   1.109   7.517   0.909
14056TIP3    H242114   1.105   7.463   1.051
14057TIP3   OH242115   5.616   0.761   6.355
14057TIP3    H142116   5.525   0.769   6.330
14057TIP3    H242117   5.627   0.826   6.425
14058TIP3   OH242118   4.456   4.887   4.907
14058TIP3    H142119   4.548   4.864   4.895
14058TIP3    H242120   4.408   4.811   4.873
14059TIP3   OH242121   1.578   6.879   1.091
14059TIP3    H142122   1.572   6.832   1.008
14059TIP3    H242123   1.664   6.921   1.088
14060TIP3   OH242124   5.822   6.653   3.047
14060TIP3    H142125   5.763   6.654   2.971
14060TIP3    H242126   5.764   6.664   3.122
14061TIP3   OH242127   0.997   0.573   0.923
14061TIP3    H142128   1.018   0.519   0.847
14061TIP3    H242129   0.917   0.619   0.897
14062TIP3   OH242130   5.864   0.598   1.692
14062TIP3    H142131   5.798   0.631   1.754
14062TIP3    H242132   5.813   0.569   1.616
14063TIP3   OH242133   1.109   2.322   2.285
14063TIP3    H142134   1.176   2.384   2.313
14063TIP3    H242135   1.131   2.301   2.195
14064TIP3   OH242136   6.507   1.443   4.416
14064TIP3    H142137   6.593   1.415   4.448
14064TIP3    H242138   6.452   1.443   4.494
14065TIP3   OH242139   5.820   2.053   0.072
14065TIP3    H142140   5.854   2.114   0.007
14065TIP3    H242141   5.833   2.098   0.156
14066TIP3   OH242142   0.164   6.357   6.460
14066TIP3    H142143   0.134   6.433   6.510
14066TIP3    H242144   0.100   6.348   6.390
14067TIP3   OH242145   1.862   6.271   5.411
14067TIP3    H142146   1.942   6.307   5.449
14067TIP3    H242147   1.892   6.197   5.359
14068TIP3   OH242148   1.648   4.342   3.950
14068TIP3    H142149   1.602   4.283   3.891
14068TIP3    H242150   1.583   4.365   4.017
14069TIP3   OH242151   3.438   3.990   0.145
14069TIP3    H142152   3.522   3.947   0.129
14069TIP3    H242153   3.427   4.048   0.070
14070TIP3   OH242154   2.647   2.430   4.618
14070TIP3    H142155   2.739   2.444   4.641
14070TIP3    H242156   2.598   2.478   4.684
14071TIP3   OH242157   0.281   7.153   4.113
14071TIP3    H142158   0.245   7.139   4.201
14071TIP3    H242159   0.358   7.097   4.109
14072TIP3   OH242160   4.921   1.978   5.092
14072TIP3    H142161   4.882   1.964   5.006
14072TIP3    H242162   4.868   1.925   5.151
14073TIP3   OH242163   1.008   2.460   2.700
14073TIP3    H142164   0.935   2.513   2.733
14073TIP3    H242165   0.968   2.376   2.676
14074TIP3   OH242166   2.998   4.806   2.162
14074TIP3    H142167   3.058   4.778   2.231
14074TIP3    H242168   3.039   4.776   2.081
14075TIP3   OH242169   1.113   6.516   2.069
14075TIP3    H142170   1.134   6.537   1.978
14075TIP3    H242171   1.109   6.601   2.113
14076TIP3   OH242172   3.410   3.012   3.023
14076TIP3    H142173   3.499   3.003   3.058
14076TIP3    H242174   3.353   2.975   3.090
14077TIP3   OH242175   5.399   4.307   4.948
14077TIP3    H142176   5.474   4.346   4.992
14077TIP3    H242177   5.355   4.257   5.017
14078TIP3   OH242178   0.922   7.490   2.625
14078TIP3    H142179   0.854   7.427   2.649
14078TIP3    H242180   0.987   7.438   2.578
14079TIP3   OH242181   4.616   2.836   4.974
14079TIP3    H142182   4.551   2.797   5.033
14079TIP3    H242183   4.629   2.925   5.009
14080TIP3   OH242184   7.475   0.494   4.242
14080TIP3    H142185   7.415   0.443   4.188
14080TIP3    H242186   7.430   0.505   4.325
14081TIP3   OH242187   3.303   7.176   0.974
14081TIP3    H142188   3.356   7.102   0.943
14081TIP3    H242189   3.328   7.249   0.917
14082TIP3   OH242190   7.844   4.794   5.385
14082TIP3    H142191   7.922   4.847   5.402
14082TIP3    H242192   7.859   4.757   5.297
14083TIP3   OH242193   2.726   3.622   4.884
14083TIP3    H142194   2.650   3.635   4.827
14083TIP3    H242195   2.783   3.698   4.866
14084TIP3   OH242196   3.952   2.689   0.678
14084TIP3    H142197   3.863   2.673   0.645
14084TIP3    H242198   3.940   2.757   0.745
14085TIP3   OH242199   7.389   6.675   4.215
14085TIP3    H142200   7.339   6.707   4.139
14085TIP3    H242201   7.465   6.732   4.220
14086TIP3   OH242202   5.532   1.780   4.399
14086TIP3    H142203   5.600   1.727   4.358
14086TIP3    H242204   5.580   1.854   4.438
14087TIP3   OH242205   2.864   5.074   5.639
14087TIP3    H142206   2.929   5.025   5.690
14087TIP3    H242207   2.784   5.022   5.647
14088TIP3   OH242208   3.430   1.483   0.535
14088TIP3    H142209   3.451   1.431   0.458
14088TIP3    H242210   3.507   1.474   0.592
14089TIP3   OH242211   5.121   2.225   1.357
14089TIP3    H142212   5.142   2.219   1.450
14089TIP3    H242213   5.041   2.277   1.354
14090TIP3   OH242214   3.481   4.560   1.168
14090TIP3    H142215   3.535   4.494   1.125
14090TIP3    H242216   3.399   4.560   1.119
14091TIP3   OH242217   1.680   3.136   1.994
14091TIP3    H142218   1.586   3.149   1.993
14091TIP3    H242219   1.710   3.183   2.072
14092TIP3   OH242220   1.550   3.793   2.557
14092TIP3    H142221   1.597   3.710   2.546
14092TIP3    H242222   1.542   3.804   2.652
14093TIP3   OH242223   0.915   7.476   0.093
14093TIP3    H142224   0.974   7.417   0.047
14093TIP3    H242225   0.970   7.518   0.160
14094TIP3   OH242226   3.066   2.405   2.054
14094TIP3    H142227   3.132   2.341   2.080
14094TIP3    H242228   3.080   2.417   1.960
14095TIP3   OH242229   4.695   0.678   4.705
14095TIP3    H142230   4.743   0.693   4.624
14095TIP3    H242231   4.715   0.753   4.760
14096TIP3   OH242232   4.034   1.142   5.759
14096TIP3    H142233   4.025   1.047   5.754
14096TIP3    H242234   3.946   1.175   5.741
14097TIP3   OH242235   1.898   0.323   6.179
14097TIP3    H142236   1.988   0.308   6.209
14097TIP3    H242237   1.848   0.337   6.260
14098TIP3   OH242238   7.452   1.870   2.683
14098TIP3    H142239   7.480   1.898   2.596
14098TIP3    H242240   7.358   1.891   2.686
14099TIP3   OH242241   0.347   0.942   0.264
14099TIP3    H142242   0.298   1.024   0.268
14099TIP3    H242243   0.323   0.896   0.345
14100TIP3   OH242244   3.876   0.158   4.348
14100TIP3    H142245   3.826   0.107   4.412
14100TIP3    H242246   3.872   0.248   4.381
14101TIP3   OH242247   4.767   7.144   6.113
14101TIP3    H142248   4.736   7.075   6.172
14101TIP3    H242249   4.818   7.202   6.169
14102TIP3   OH242250   5.444   0.775   6.023
14102TIP3    H142251   5.530   0.793   6.062
14102TIP3    H242252   5.436   0.680   6.026
14103TIP3   OH242253   3.958   0.635   1.866
14103TIP3    H142254   3.912   0.719   1.874
14103TIP3    H242255   4.026   0.652   1.800
14104TIP3   OH242256   0.617   5.726   4.874
14104TIP3    H142257   0.550   5.728   4.806
14104TIP3    H242258   0.648   5.817   4.879
14105TIP3   OH242259   2.933   7.818   6.538
14105TIP3    H142260   2.906   7.884   6.602
14105TIP3    H242261   3.028   7.831   6.529
14106TIP3   OH242262   1.524   7.685   4.435
14106TIP3    H142263   1.545   7.762   4.487
14106TIP3    H242264   1.596   7.624   4.450
14107TIP3   OH242265   5.624   6.611   1.586
14107TIP3    H142266   5.612   6.549   1.658
14107TIP3    H242267   5.691   6.570   1.531
14108TIP3   OH242268   2.594   6.902   1.851
14108TIP3    H142269   2.662   6.924   1.915
14108TIP3    H242270   2.599   6.973   1.786
14109TIP3   OH242271   7.129   3.122   6.034
14109TIP3    H142272   7.222   3.102   6.032
14109TIP3    H242273   7.125   3.217   6.041
14110TIP3   OH242274   2.515   3.279   2.195
14110TIP3    H142275   2.583   3.344   2.211
14110TIP3    H242276   2.499   3.283   2.101
14111TIP3   OH242277   8.083   3.761   4.569
14111TIP3    H142278   8.015   3.804   4.517
14111TIP3    H242279   8.035   3.718   4.640
14112TIP3   OH242280   4.550   0.169   5.840
14112TIP3    H142281   4.505   0.088   5.816
14112TIP3    H242282   4.543   0.172   5.936
14113TIP3   OH242283   0.927   1.837   1.961
14113TIP3    H142284   1.021   1.823   1.977
14113TIP3    H242285   0.896   1.880   2.041
14114TIP3   OH242286   1.816   1.217   3.864
14114TIP3    H142287   1.800   1.305   3.898
14114TIP3    H242288   1.911   1.206   3.868
14115TIP3   OH242289   7.803   5.518   4.404
14115TIP3    H142290   7.892   5.485   4.412
14115TIP3    H242291   7.800   5.559   4.318
14116TIP3   OH242292   7.601   1.766   2.280
14116TIP3    H142293   7.537   1.791   2.346
14116TIP3    H242294   7.683   1.758   2.328
14117TIP3   OH242295   0.611   3.579   5.928
14117TIP3    H142296   0.693   3.625   5.945
14117TIP3    H242297   0.572   3.626   5.854
14118TIP3   OH242298   1.895   5.516   3.934
14118TIP3    H142299   1.874   5.457   4.007
14118TIP3    H242300   1.844   5.595   3.952
14119TIP3   OH242301   2.193   0.657   0.510
14119TIP3    H142302   2.265   0.689   0.456
14119TIP3    H242303   2.119   0.649   0.450
14120TIP3   OH242304   6.854   0.275   2.472
14120TIP3    H142305   6.770   0.232   2.487
14120TIP3    H242306   6.831   0.358   2.430
14121TIP3   OH242307   2.221   6.672   5.625
14121TIP3    H142308   2.283   6.615   5.579
14121TIP3    H242309   2.263   6.758   5.625
14122TIP3   OH242310   4.315   1.953   0.474
14122TIP3    H142311   4.332   1.863   0.505
14122TIP3    H242312   4.343   1.952   0.383
14123TIP3   OH242313   2.955   1.322   0.821
14123TIP3    H142314   2.920   1.354   0.738
14123TIP3    H242315   2.980   1.401   0.869
14124TIP3   OH242316   5.878   2.356   2.146
14124TIP3    H142317   5.972   2.371   2.153
14124TIP3    H242318   5.838   2.441   2.166
14125TIP3   OH242319   4.723   5.176   6.308
14125TIP3    H142320   4.764   5.091   6.325
14125TIP3    H242321   4.635   5.168   6.345
14126TIP3   OH242322   0.710   1.181   5.418
14126TIP3    H142323   0.616   1.185   5.403
14126TIP3    H242324   0.747   1.169   5.330
14127TIP3   OH242325   4.206   1.396   5.147
14127TIP3    H142326   4.186   1.365   5.235
14127TIP3    H242327   4.213   1.317   5.094
14128TIP3   OH242328   7.631   6.540   3.178
14128TIP3    H142329   7.546   6.582   3.191
14128TIP3    H242330   7.656   6.509   3.264
14129TIP3   OH242331   5.115   2.755   6.589
14129TIP3    H142332   5.069   2.760   6.673
14129TIP3    H242333   5.156   2.669   6.589
14130TIP3   OH242334   1.995   7.069   0.664
14130TIP3    H142335   1.968   7.160   0.648
14130TIP3    H242336   2.042   7.044   0.585
14131TIP3   OH242337   2.295   3.051   0.543
14131TIP3    H142338   2.321   2.980   0.602
14131TIP3    H242339   2.376   3.098   0.524
14132TIP3   OH242340   3.648   4.581   6.247
14132TIP3    H142341   3.564   4.574   6.292
14132TIP3    H242342   3.709   4.534   6.304
14133TIP3   OH242343   7.628   5.218   1.160
14133TIP3    H142344   7.685   5.142   1.150
14133TIP3    H242345   7.563   5.208   1.090
14134TIP3   OH242346   2.702   2.034   3.118
14134TIP3    H142347   2.728   2.016   3.028
14134TIP3    H242348   2.775   2.084   3.154
14135TIP3   OH242349   4.344   5.561   2.981
14135TIP3    H142350   4.398   5.483   2.967
14135TIP3    H242351   4.260   5.539   2.941
14136TIP3   OH242352   5.579   3.450   6.294
14136TIP3    H142353   5.560   3.438   6.201
14136TIP3    H242354   5.579   3.545   6.306
14137TIP3   OH242355   3.797   7.376   1.780
14137TIP3    H142356   3.834   7.340   1.700
14137TIP3    H242357   3.868   7.425   1.820
14138TIP3   OH242358   3.073   7.401   5.613
14138TIP3    H142359   3.035   7.474   5.565
14138TIP3    H242360   3.167   7.409   5.599
14139TIP3   OH242361   1.203   1.208   5.336
14139TIP3    H142362   1.200   1.200   5.431
14139TIP3    H242363   1.112   1.223   5.310
14140TIP3   OH242364   3.560   4.735   6.644
14140TIP3    H142365   3.546   4.776   6.729
14140TIP3    H242366   3.535   4.643   6.657
14141TIP3   OH242367   8.266   1.164   2.049
14141TIP3    H142368   8.360   1.173   2.062
14141TIP3    H242369   8.257   1.092   1.987
14142TIP3   OH242370   4.524   2.679   3.470
14142TIP3    H142371   4.525   2.706   3.378
14142TIP3    H242372   4.577   2.599   3.471
14143TIP3   OH242373   7.271   6.546   4.462
14143TIP3    H142374   7.334   6.541   4.534
14143TIP3    H242375   7.323   6.575   4.387
14144TIP3   OH242376   5.113   6.956   3.782
14144TIP3    H142377   5.167   7.019   3.830
14144TIP3    H242378   5.160   6.941   3.700
14145TIP3   OH242379   1.067   4.846   2.899
14145TIP3    H142380   1.125   4.840   2.823
14145TIP3    H242381   1.102   4.783   2.961
14146TIP3   OH242382   4.566   0.822   2.504
14146TIP3    H142383   4.570   0.918   2.496
14146TIP3    H242384   4.583   0.805   2.596
14147TIP3   OH242385   3.457   2.631   2.774
14147TIP3    H142386   3.381   2.574   2.762
14147TIP3    H242387   3.430   2.714   2.734
14148TIP3   OH242388   7.545   1.690   6.195
14148TIP3    H142389   7.607   1.762   6.201
14148TIP3    H242390   7.476   1.721   6.137
14149TIP3   OH242391   0.910   0.338   6.812
14149TIP3    H142392   0.856   0.354   6.735
14149TIP3    H242393   0.953   0.422   6.830
14150TIP3   OH242394   8.065   3.950   3.102
14150TIP3    H142395   8.110   3.866   3.103
14150TIP3    H242396   8.105   4.000   3.173
14151TIP3   OH242397   4.009   3.698   2.450
14151TIP3    H142398   4.097   3.735   2.456
14151TIP3    H242399   3.953   3.764   2.490
14152TIP3   OH242400   2.119   5.663   3.910
14152TIP3    H142401   2.049   5.605   3.941
14152TIP3    H242402   2.134   5.636   3.819
14153TIP3   OH242403   3.291   0.879  -0.006
14153TIP3    H142404   3.376   0.862   0.034
14153TIP3    H242405   3.250   0.943   0.052
14154TIP3   OH242406   3.502   3.555   1.325
14154TIP3    H142407   3.462   3.503   1.395
14154TIP3    H242408   3.496   3.645   1.355
14155TIP3   OH242409   1.100   7.206   4.892
14155TIP3    H142410   1.013   7.215   4.932
14155TIP3    H242411   1.082   7.173   4.804
14156TIP3   OH242412   3.882   2.353   4.183
14156TIP3    H142413   3.903   2.427   4.240
14156TIP3    H242414   3.894   2.388   4.094
14157TIP3   OH242415   0.880   7.570   5.570
14157TIP3    H142416   0.803   7.623   5.588
14157TIP3    H242417   0.941   7.630   5.527
14158TIP3   OH242418   7.079   4.670   0.207
14158TIP3    H142419   7.024   4.727   0.260
14158TIP3    H242420   7.027   4.591   0.195
14159TIP3   OH242421   7.100   5.941   4.954
14159TIP3    H142422   7.038   5.876   4.921
14159TIP3    H242423   7.169   5.889   4.996
14160TIP3   OH242424   7.992   3.632   0.543
14160TIP3    H142425   8.026   3.663   0.627
14160TIP3    H242426   7.902   3.664   0.541
14161TIP3   OH242427   1.432   6.087   3.802
14161TIP3    H142428   1.350   6.126   3.772
14161TIP3    H242429   1.496   6.158   3.796
14162TIP3   OH242430   2.634   7.679   2.148
14162TIP3    H142431   2.684   7.704   2.226
14162TIP3    H242432   2.645   7.753   2.088
14163TIP3   OH242433   1.870   0.806   3.813
14163TIP3    H142434   1.938   0.813   3.745
14163TIP3    H242435   1.918   0.807   3.895
14164TIP3   OH242436   1.226   7.247   0.185
14164TIP3    H142437   1.281   7.325   0.196
14164TIP3    H242438   1.181   7.262   0.102
14165TIP3   OH242439   3.863   4.055   2.890
14165TIP3    H142440   3.804   4.131   2.880
14165TIP3    H242441   3.931   4.086   2.949
14166TIP3   OH242442   0.831   6.921   1.129
14166TIP3    H142443   0.915   6.897   1.167
14166TIP3    H242444   0.776   6.844   1.142
14167TIP3   OH242445   1.958   6.921   2.436
14167TIP3    H142446   1.932   6.833   2.411
14167TIP3    H242447   2.017   6.950   2.367
14168TIP3   OH242448   6.322   4.979   1.667
14168TIP3    H142449   6.279   4.993   1.751
14168TIP3    H242450   6.379   4.903   1.682
14169TIP3   OH242451   6.533   6.446   3.463
14169TIP3    H142452   6.520   6.449   3.368
14169TIP3    H242453   6.621   6.411   3.475
14170TIP3   OH242454   6.346   2.700   4.345
14170TIP3    H142455   6.432   2.719   4.384
14170TIP3    H242456   6.292   2.775   4.369
14171TIP3   OH242457   4.764   6.291   4.481
14171TIP3    H142458   4.788   6.306   4.572
14171TIP3    H242459   4.847   6.271   4.437
14172TIP3   OH242460   2.052   1.860   1.174
14172TIP3    H142461   2.046   1.952   1.199
14172TIP3    H242462   2.144   1.837   1.188
14173TIP3   OH242463   0.702   6.316   4.451
14173TIP3    H142464   0.627   6.333   4.394
14173TIP3    H242465   0.730   6.228   4.427
14174TIP3   OH242466   4.556   0.080   2.059
14174TIP3    H142467   4.503   0.017   2.010
14174TIP3    H242468   4.646   0.048   2.049
14175TIP3   OH242469   0.622   0.457   2.495
14175TIP3    H142470   0.676   0.515   2.440
14175TIP3    H242471   0.685   0.416   2.555
14176TIP3   OH242472   7.420   2.846   5.331
14176TIP3    H142473   7.375   2.844   5.415
14176TIP3    H242474   7.352   2.829   5.266
14177TIP3   OH242475   7.822   0.408   5.899
14177TIP3    H142476   7.792   0.490   5.937
14177TIP3    H242477   7.764   0.341   5.935
14178TIP3   OH242478   3.877   2.496   2.546
14178TIP3    H142479   3.803   2.468   2.600
14178TIP3    H242480   3.843   2.494   2.456
14179TIP3   OH242481   5.700   3.713   6.085
14179TIP3    H142482   5.682   3.710   6.179
14179TIP3    H242483   5.708   3.621   6.059
14180TIP3   OH242484   1.507   7.455   5.816
14180TIP3    H142485   1.555   7.377   5.789
14180TIP3    H242486   1.572   7.509   5.861
14181TIP3   OH242487   7.431   4.400   1.628
14181TIP3    H142488   7.510   4.435   1.588
14181TIP3    H242489   7.371   4.385   1.554
14182TIP3   OH242490   5.356   7.477   2.696
14182TIP3    H142491   5.352   7.560   2.742
14182TIP3    H242492   5.297   7.488   2.621
14183TIP3   OH242493   4.519   1.645   1.419
14183TIP3    H142494   4.528   1.688   1.334
14183TIP3    H242495   4.481   1.559   1.398
14184TIP3   OH242496   4.008   0.949   3.189
14184TIP3    H142497   3.953   0.872   3.177
14184TIP3    H242498   4.065   0.926   3.263
14185TIP3   OH242499   0.687   2.164   1.424
14185TIP3    H142500   0.656   2.167   1.514
14185TIP3    H242501   0.672   2.253   1.391
14186TIP3   OH242502   2.754   3.095   2.241
14186TIP3    H142503   2.788   3.105   2.153
14186TIP3    H242504   2.660   3.077   2.229
14187TIP3   OH242505   4.540   6.486   4.684
14187TIP3    H142506   4.595   6.409   4.698
14187TIP3    H242507   4.472   6.481   4.751
14188TIP3   OH242508   1.765   6.082   0.235
14188TIP3    H142509   1.780   6.083   0.330
14188TIP3    H242510   1.688   6.137   0.223
14189TIP3   OH242511   0.069   4.333   4.255
14189TIP3    H142512   0.159   4.358   4.277
14189TIP3    H242513   0.063   4.240   4.280
14190TIP3   OH242514   5.862   1.101   4.562
14190TIP3    H142515   5.952   1.118   4.535
14190TIP3    H242516   5.811   1.108   4.481
14191TIP3   OH242517   8.245   6.015   2.946
14191TIP3    H142518   8.289   6.098   2.927
14191TIP3    H242519   8.262   5.999   3.039
14192TIP3   OH242520   2.654   0.302   0.873
14192TIP3    H142521   2.723   0.249   0.832
14192TIP3    H242522   2.618   0.354   0.801
14193TIP3   OH242523   5.271   1.519   3.789
14193TIP3    H142524   5.244   1.595   3.840
14193TIP3    H242525   5.189   1.481   3.758
14194TIP3   OH242526   4.648   0.385   0.322
14194TIP3    H142527   4.683   0.394   0.233
14194TIP3    H242528   4.640   0.291   0.335
14195TIP3   OH242529   4.670   5.923   5.007
14195TIP3    H142530   4.670   5.847   5.066
14195TIP3    H242531   4.606   5.900   4.940
14196TIP3   OH242532   6.271   7.084   2.599
14196TIP3    H142533   6.246   7.067   2.508
14196TIP3    H242534   6.283   6.997   2.637
14197TIP3   OH242535   5.333   0.271   2.230
14197TIP3    H142536   5.327   0.291   2.323
14197TIP3    H242537   5.251   0.225   2.210
14198TIP3   OH242538   7.176   7.228   5.163
14198TIP3    H142539   7.259   7.275   5.151
14198TIP3    H242540   7.198   7.137   5.147
14199TIP3   OH242541   6.970   0.624   3.593
14199TIP3    H142542   7.023   0.556   3.550
14199TIP3    H242543   6.889   0.626   3.543
14200TIP3   OH242544   3.019   6.147   3.728
14200TIP3    H142545   2.942   6.189   3.691
14200TIP3    H242546   2.984   6.082   3.789
14201TIP3   OH242547   2.002   5.297   6.562
14201TIP3    H142548   2.052   5.270   6.485
14201TIP3    H242549   2.061   5.358   6.608
14202TIP3   OH242550   7.929   0.049   0.767
14202TIP3    H142551   7.950   0.061   0.859
14202TIP3    H242552   7.854   0.107   0.752
14203TIP3   OH242553   3.766   1.578   2.418
14203TIP3    H142554   3.842   1.636   2.424
14203TIP3    H242555   3.731   1.573   2.507
14204TIP3   OH242556   0.775   6.157   0.230
14204TIP3    H142557   0.693   6.188   0.269
14204TIP3    H242558   0.747   6.105   0.155
14205TIP3   OH242559   4.040   7.213   2.029
14205TIP3    H142560   4.132   7.188   2.029
14205TIP3    H242561   4.000   7.158   1.961
14206TIP3   OH242562   0.901   5.373   0.386
14206TIP3    H142563   0.830   5.407   0.441
14206TIP3    H242564   0.951   5.316   0.444
14207TIP3   OH242565   7.039   0.500   5.214
14207TIP3    H142566   7.130   0.526   5.199
14207TIP3    H242567   7.002   0.491   5.126
14208TIP3   OH242568   7.578   4.887   0.961
14208TIP3    H142569   7.595   4.941   0.884
14208TIP3    H242570   7.572   4.798   0.927
14209TIP3   OH242571   0.371   7.018   6.408
14209TIP3    H142572   0.386   7.100   6.456
14209TIP3    H242573   0.291   6.982   6.447
14210TIP3   OH242574   0.599   0.278   1.526
14210TIP3    H142575   0.668   0.318   1.578
14210TIP3    H242576   0.578   0.344   1.459
14211TIP3   OH242577   2.886   4.326   4.138
14211TIP3    H142578   2.811   4.373   4.172
14211TIP3    H242579   2.901   4.256   4.202
14212TIP3   OH242580   3.035   2.275   3.697
14212TIP3    H142581   3.131   2.265   3.698
14212TIP3    H242582   3.019   2.359   3.739
14213TIP3   OH242583   3.246   7.079   4.954
14213TIP3    H142584   3.200   7.118   4.879
14213TIP3    H242585   3.336   7.109   4.946
14214TIP3   OH242586   0.132   6.901   2.677
14214TIP3    H142587   0.060   6.907   2.615
14214TIP3    H242588   0.126   6.813   2.714
14215TIP3   OH242589   5.495   2.627   3.142
14215TIP3    H142590   5.507   2.538   3.173
14215TIP3    H242591   5.418   2.659   3.188
14216TIP3   OH242592   0.730   1.015   0.055
14216TIP3    H142593   0.818   1.050   0.067
14216TIP3    H242594   0.695   1.005   0.143
14217TIP3   OH242595   0.318   6.345   1.867
14217TIP3    H142596   0.305   6.439   1.853
14217TIP3    H242597   0.412   6.332   1.859
14218TIP3   OH242598   0.987   4.050   6.131
14218TIP3    H142599   0.943   3.985   6.076
14218TIP3    H242600   1.068   4.008   6.159
14219TIP3   OH242601   7.366   6.435   1.024
14219TIP3    H142602   7.317   6.355   1.002
14219TIP3    H242603   7.361   6.441   1.119
14220TIP3   OH242604   4.403   0.400   4.609
14220TIP3    H142605   4.487   0.380   4.567
14220TIP3    H242606   4.406   0.495   4.624
14221TIP3   OH242607   4.473   0.067   0.075
14221TIP3    H142608   4.484  -0.012   0.022
14221TIP3    H242609   4.561   0.090   0.103
14222TIP3   OH242610   5.716   4.559   3.881
14222TIP3    H142611   5.742   4.623   3.947
14222TIP3    H242612   5.799   4.535   3.838
14223TIP3   OH242613   2.949   5.999   3.468
14223TIP3    H142614   2.893   6.063   3.514
14223TIP3    H242615   3.035   6.041   3.464
14224TIP3   OH242616   6.873   4.464   4.221
14224TIP3    H142617   6.967   4.474   4.237
14224TIP3    H242618   6.861   4.488   4.130
14225TIP3   OH242619   4.615   0.186   2.321
14225TIP3    H142620   4.542   0.242   2.348
14225TIP3    H242621   4.581   0.137   2.246
14226TIP3   OH242622   3.213   6.839   4.441
14226TIP3    H142623   3.150   6.816   4.510
14226TIP3    H242624   3.201   6.772   4.374
14227TIP3   OH242625   0.731   4.937   3.539
14227TIP3    H142626   0.806   4.899   3.585
14227TIP3    H242627   0.685   4.987   3.607
14228TIP3   OH242628   2.484   7.624   6.025
14228TIP3    H142629   2.467   7.530   6.033
14228TIP3    H242630   2.566   7.638   6.072
14229TIP3   OH242631   2.058   0.998   5.907
14229TIP3    H142632   2.132   0.996   5.967
14229TIP3    H242633   1.983   1.022   5.962
14230TIP3   OH242634   6.968   1.128   4.286
14230TIP3    H142635   6.959   1.072   4.209
14230TIP3    H242636   6.917   1.083   4.353
14231TIP3   OH242637   0.515   3.488   4.070
14231TIP3    H142638   0.526   3.468   3.977
14231TIP3    H242639   0.577   3.560   4.086
14232TIP3   OH242640   4.786   4.148   3.322
14232TIP3    H142641   4.819   4.079   3.264
14232TIP3    H242642   4.712   4.186   3.274
14233TIP3   OH242643   4.619   6.709   3.750
14233TIP3    H142644   4.600   6.762   3.673
14233TIP3    H242645   4.701   6.745   3.784
14234TIP3   OH242646   4.632   2.237   5.806
14234TIP3    H142647   4.649   2.261   5.715
14234TIP3    H242648   4.559   2.175   5.802
14235TIP3   OH242649   2.230   2.844   2.588
14235TIP3    H142650   2.301   2.888   2.635
14235TIP3    H242651   2.165   2.825   2.655
14236TIP3   OH242652   7.546   4.449   4.393
14236TIP3    H142653   7.610   4.387   4.356
14236TIP3    H242654   7.472   4.395   4.419
14237TIP3   OH242655   5.694   0.155   5.205
14237TIP3    H142656   5.603   0.128   5.221
14237TIP3    H242657   5.726   0.094   5.140
14238TIP3   OH242658   6.156   1.955   4.774
14238TIP3    H142659   6.212   2.033   4.777
14238TIP3    H242660   6.218   1.882   4.761
14239TIP3   OH242661   3.502   4.828   3.600
14239TIP3    H142662   3.420   4.801   3.560
14239TIP3    H242663   3.557   4.750   3.598
14240TIP3   OH242664   8.023   2.205   5.773
14240TIP3    H142665   8.049   2.124   5.729
14240TIP3    H242666   8.104   2.237   5.814
14241TIP3   OH242667   8.061   5.678   0.930
14241TIP3    H142668   8.139   5.631   0.959
14241TIP3    H242669   8.027   5.720   1.009
14242TIP3   OH242670   0.752   6.611   4.112
14242TIP3    H142671   0.785   6.569   4.032
14242TIP3    H242672   0.681   6.668   4.082
14243TIP3   OH242673   1.888   1.449   1.579
14243TIP3    H142674   1.918   1.417   1.493
14243TIP3    H242675   1.852   1.536   1.560
14244TIP3   OH242676   4.996   0.989   2.411
14244TIP3    H142677   4.952   0.979   2.327
14244TIP3    H242678   5.061   1.057   2.397
14245TIP3   OH242679   6.223   0.854   4.542
14245TIP3    H142680   6.183   0.881   4.625
14245TIP3    H242681   6.148   0.834   4.486
14246TIP3   OH242682   0.609   6.904   2.912
14246TIP3    H142683   0.667   6.913   2.835
14246TIP3    H242684   0.521   6.909   2.876
14247TIP3   OH242685   3.107   2.201   5.870
14247TIP3    H142686   3.030   2.204   5.926
14247TIP3    H242687   3.170   2.147   5.918
14248TIP3   OH242688   6.546   4.962   4.489
14248TIP3    H142689   6.619   5.010   4.529
14248TIP3    H242690   6.586   4.913   4.417
14249TIP3   OH242691   5.463   4.116   2.550
14249TIP3    H142692   5.455   4.211   2.539
14249TIP3    H242693   5.556   4.098   2.539
14250TIP3   OH242694   0.770   3.592   4.779
14250TIP3    H142695   0.841   3.608   4.841
14250TIP3    H242696   0.727   3.513   4.812
14251TIP3   OH242697   3.482   4.436   6.687
14251TIP3    H142698   3.507   4.359   6.637
14251TIP3    H242699   3.465   4.402   6.775
14252TIP3   OH242700   5.315   4.250   4.199
14252TIP3    H142701   5.235   4.229   4.249
14252TIP3    H242702   5.361   4.313   4.254
14253TIP3   OH242703   6.709   1.503   5.088
14253TIP3    H142704   6.629   1.497   5.140
14253TIP3    H242705   6.780   1.509   5.153
14254TIP3   OH242706   1.676   0.561   4.971
14254TIP3    H142707   1.688   0.624   5.043
14254TIP3    H242708   1.604   0.597   4.920
14255TIP3   OH242709   0.160   7.565   2.043
14255TIP3    H142710   0.210   7.629   1.992
14255TIP3    H242711   0.073   7.603   2.051
14256TIP3   OH242712   0.283   7.454   5.552
14256TIP3    H142713   0.256   7.535   5.508
14256TIP3    H242714   0.229   7.450   5.630
14257TIP3   OH242715   7.324   7.724   1.275
14257TIP3    H142716   7.241   7.763   1.248
14257TIP3    H242717   7.390   7.767   1.221
14258TIP3   OH242718   1.492   5.481   2.869
14258TIP3    H142719   1.430   5.528   2.924
14258TIP3    H242720   1.557   5.546   2.844
14259TIP3   OH242721   6.504   3.715   5.242
14259TIP3    H142722   6.464   3.634   5.210
14259TIP3    H242723   6.552   3.689   5.321
14260TIP3   OH242724   6.658   3.787   3.253
14260TIP3    H142725   6.570   3.822   3.238
14260TIP3    H242726   6.710   3.864   3.276
14261TIP3   OH242727   6.737   1.611   0.662
14261TIP3    H142728   6.794   1.683   0.692
14261TIP3    H242729   6.742   1.615   0.566
14262TIP3   OH242730   4.069   1.276   0.495
14262TIP3    H142731   4.063   1.365   0.459
14262TIP3    H242732   4.114   1.226   0.428
14263TIP3   OH242733   3.259   3.620   3.158
14263TIP3    H142734   3.353   3.630   3.174
14263TIP3    H242735   3.253   3.541   3.103
14264TIP3   OH242736   6.462   0.250   4.260
14264TIP3    H142737   6.391   0.188   4.244
14264TIP3    H242738   6.540   0.196   4.268
14265TIP3   OH242739   1.911   6.275   3.134
14265TIP3    H142740   1.933   6.280   3.041
14265TIP3    H242741   1.995   6.271   3.178
14266TIP3   OH242742   6.848   2.210   1.765
14266TIP3    H142743   6.754   2.192   1.761
14266TIP3    H242744   6.886   2.130   1.802
14267TIP3   OH242745   0.077   5.500   3.082
14267TIP3    H142746   0.120   5.563   3.139
14267TIP3    H242747   0.110   5.415   3.110
14268TIP3   OH242748   5.681   5.033   3.290
14268TIP3    H142749   5.773   5.009   3.303
14268TIP3    H242750   5.676   5.056   3.197
14269TIP3   OH242751   0.836   4.524   1.311
14269TIP3    H142752   0.840   4.495   1.402
14269TIP3    H242753   0.905   4.475   1.267
14270TIP3   OH242754   7.676   3.996   2.053
14270TIP3    H142755   7.683   3.906   2.022
14270TIP3    H242756   7.744   4.003   2.120
14271TIP3   OH242757   2.385   3.289   6.110
14271TIP3    H142758   2.348   3.283   6.199
14271TIP3    H242759   2.419   3.378   6.104
14272TIP3   OH242760   8.033   7.681   0.227
14272TIP3    H142761   8.104   7.664   0.290
14272TIP3    H242762   8.018   7.775   0.233
14273TIP3   OH242763   6.147   3.676   3.638
14273TIP3    H142764   6.134   3.732   3.561
14273TIP3    H242765   6.240   3.656   3.638
14274TIP3   OH242766   3.929   1.848   2.309
14274TIP3    H142767   3.857   1.868   2.369
14274TIP3    H242768   3.890   1.855   2.222
14275TIP3   OH242769   5.621   6.689   1.885
14275TIP3    H142770   5.595   6.598   1.900
14275TIP3    H242771   5.577   6.714   1.804
14276TIP3   OH242772   8.160   0.913   5.673
14276TIP3    H142773   8.147   0.818   5.672
14276TIP3    H242774   8.097   0.946   5.609
14277TIP3   OH242775   2.983   0.094   6.293
14277TIP3    H142776   2.964   0.175   6.342
14277TIP3    H242777   3.004   0.030   6.360
14278TIP3   OH242778   0.090   0.070   2.621
14278TIP3    H142779   0.043   0.131   2.678
14278TIP3    H242780   0.176   0.111   2.609
14279TIP3   OH242781   4.245   0.599   6.427
14279TIP3    H142782   4.259   0.692   6.410
14279TIP3    H242783   4.329   0.566   6.458
14280TIP3   OH242784   5.537   3.369   0.326
14280TIP3    H142785   5.467   3.405   0.383
14280TIP3    H242786   5.575   3.298   0.377
14281TIP3   OH242787   8.082   4.173   0.968
14281TIP3    H142788   8.031   4.202   0.892
14281TIP3    H242789   8.083   4.250   1.026
14282TIP3   OH242790   1.346   1.684   2.200
14282TIP3    H142791   1.366   1.692   2.107
14282TIP3    H242792   1.431   1.681   2.243
14283TIP3   OH242793   6.410   7.256   2.273
14283TIP3    H142794   6.454   7.286   2.194
14283TIP3    H242795   6.470   7.193   2.312
14284TIP3   OH242796   4.954   0.523   1.400
14284TIP3    H142797   4.907   0.589   1.351
14284TIP3    H242798   5.038   0.563   1.422
14285TIP3   OH242799   2.286   6.930   1.076
14285TIP3    H142800   2.249   7.010   1.113
14285TIP3    H242801   2.362   6.959   1.025
14286TIP3   OH242802   0.289   1.464   6.269
14286TIP3    H142803   0.321   1.473   6.179
14286TIP3    H242804   0.356   1.414   6.314
14287TIP3   OH242805   0.853   7.818   4.918
14287TIP3    H142806   0.934   7.784   4.879
14287TIP3    H242807   0.833   7.758   4.990
14288TIP3   OH242808   5.679   2.750   5.549
14288TIP3    H142809   5.623   2.827   5.564
14288TIP3    H242810   5.626   2.676   5.579
14289TIP3   OH242811   2.945   5.927   4.564
14289TIP3    H142812   2.854   5.956   4.561
14289TIP3    H242813   2.984   5.978   4.635
14290TIP3   OH242814   4.634   2.714   5.483
14290TIP3    H142815   4.558   2.771   5.493
14290TIP3    H242816   4.701   2.769   5.443
14291TIP3   OH242817   4.862   1.272   3.983
14291TIP3    H142818   4.924   1.275   4.055
14291TIP3    H242819   4.807   1.196   4.001
14292TIP3   OH242820   0.753   3.808   5.032
14292TIP3    H142821   0.669   3.765   5.021
14292TIP3    H242822   0.781   3.784   5.121
14293TIP3   OH242823   6.589   4.488   3.823
14293TIP3    H142824   6.605   4.579   3.798
14293TIP3    H242825   6.599   4.439   3.742
14294TIP3   OH242826   2.388   5.181   1.108
14294TIP3    H142827   2.459   5.125   1.137
14294TIP3    H242828   2.379   5.247   1.177
14295TIP3   OH242829   0.163   5.601   5.975
14295TIP3    H142830   0.124   5.540   6.038
14295TIP3    H242831   0.171   5.550   5.895
14296TIP3   OH242832   7.954   4.888   1.614
14296TIP3    H142833   7.911   4.846   1.688
14296TIP3    H242834   7.985   4.816   1.559
14297TIP3   OH242835   2.307   5.502   5.123
14297TIP3    H142836   2.215   5.531   5.127
14297TIP3    H242837   2.302   5.408   5.111
14298TIP3   OH242838   0.807   3.438   0.855
14298TIP3    H142839   0.766   3.517   0.820
14298TIP3    H242840   0.783   3.369   0.793
14299TIP3   OH242841   7.391   5.708   3.616
14299TIP3    H142842   7.429   5.749   3.694
14299TIP3    H242843   7.373   5.618   3.643
14300TIP3   OH242844   0.989   2.788   3.388
14300TIP3    H142845   0.985   2.795   3.483
14300TIP3    H242846   0.898   2.779   3.361
14301TIP3   OH242847   1.948   4.247   2.522
14301TIP3    H142848   2.010   4.271   2.453
14301TIP3    H242849   1.992   4.176   2.570
14302TIP3   OH242850   0.674   6.492   3.240
14302TIP3    H142851   0.646   6.564   3.183
14302TIP3    H242852   0.605   6.427   3.232
14303TIP3   OH242853   5.048   0.976   3.113
14303TIP3    H142854   4.985   0.991   3.043
14303TIP3    H242855   5.076   0.885   3.102
14304TIP3   OH242856   4.552   0.292   5.177
14304TIP3    H142857   4.531   0.247   5.259
14304TIP3    H242858   4.506   0.242   5.110
14305TIP3   OH242859   0.509   6.250   0.300
14305TIP3    H142860   0.465   6.178   0.253
14305TIP3    H242861   0.483   6.329   0.252
14306TIP3   OH242862   0.247   3.715   3.656
14306TIP3    H142863   0.153   3.705   3.675
14306TIP3    H242864   0.288   3.723   3.742
14307TIP3   OH242865   5.351   1.573   4.525
14307TIP3    H142866   5.426   1.564   4.584
14307TIP3    H242867   5.386   1.617   4.448
14308TIP3   OH242868   6.210   3.171   6.207
14308TIP3    H142869   6.142   3.207   6.150
14308TIP3    H242870   6.219   3.234   6.278
14309TIP3   OH242871   7.068   5.259   3.484
14309TIP3    H142872   7.092   5.327   3.547
14309TIP3    H242873   7.100   5.178   3.523
14310TIP3   OH242874   2.243   1.503   1.165
14310TIP3    H142875   2.254   1.590   1.126
14310TIP3    H242876   2.269   1.514   1.256
14311TIP3   OH242877   1.584   2.085   0.042
14311TIP3    H142878   1.666   2.089   0.090
14311TIP3    H242879   1.519   2.057   0.107
14312TIP3   OH242880   5.593   0.504   6.505
14312TIP3    H142881   5.606   0.599   6.511
14312TIP3    H242882   5.674   0.467   6.539
14313TIP3   OH242883   4.779   0.020   0.980
14313TIP3    H142884   4.689   0.051   0.996
14313TIP3    H242885   4.833   0.098   0.987
14314TIP3   OH242886   6.730   1.781   6.422
14314TIP3    H142887   6.732   1.761   6.328
14314TIP3    H242888   6.784   1.859   6.431
14315TIP3   OH242889   1.968   0.367   4.294
14315TIP3    H142890   1.907   0.372   4.367
14315TIP3    H242891   2.042   0.318   4.328
14316TIP3   OH242892   0.083   0.058   3.760
14316TIP3    H142893   0.013   0.105   3.805
14316TIP3    H242894   0.152   0.124   3.749
14317TIP3   OH242895   4.029   4.226   2.419
14317TIP3    H142896   4.066   4.301   2.372
14317TIP3    H242897   4.089   4.213   2.493
14318TIP3   OH242898   7.839   5.177   6.688
14318TIP3    H142899   7.783   5.246   6.651
14318TIP3    H242900   7.911   5.225   6.728
14319TIP3   OH242901   4.947   1.535   1.165
14319TIP3    H142902   4.994   1.576   1.093
14319TIP3    H242903   5.014   1.521   1.232
14320TIP3   OH242904   0.783   5.169   1.774
14320TIP3    H142905   0.836   5.105   1.726
14320TIP3    H242906   0.807   5.156   1.866
14321TIP3   OH242907   0.768   2.278   3.058
14321TIP3    H142908   0.782   2.235   3.143
14321TIP3    H242909   0.755   2.206   2.996
14322TIP3   OH242910   0.747   0.753   2.537
14322TIP3    H142911   0.799   0.693   2.590
14322TIP3    H242912   0.768   0.840   2.572
14323TIP3   OH242913   4.562   5.454   4.015
14323TIP3    H142914   4.478   5.445   3.970
14323TIP3    H242915   4.552   5.400   4.094
14324TIP3   OH242916   5.957   2.826   2.202
14324TIP3    H142917   5.951   2.875   2.120
14324TIP3    H242918   6.015   2.753   2.182
14325TIP3   OH242919   6.028   4.796   0.081
14325TIP3    H142920   6.112   4.810   0.125
14325TIP3    H242921   6.004   4.882   0.047
14326TIP3   OH242922   7.403   3.979   4.360
14326TIP3    H142923   7.344   4.001   4.288
14326TIP3    H242924   7.427   3.888   4.344
14327TIP3   OH242925   4.515   5.897   4.417
14327TIP3    H142926   4.468   5.904   4.334
14327TIP3    H242927   4.605   5.921   4.395
14328TIP3   OH242928   6.565   0.117   1.828
14328TIP3    H142929   6.653   0.087   1.853
14328TIP3    H242930   6.555   0.201   1.874
14329TIP3   OH242931   3.101   4.526   0.695
14329TIP3    H142932   3.164   4.482   0.751
14329TIP3    H242933   3.079   4.463   0.627
14330TIP3   OH242934   3.636   0.919   3.401
14330TIP3    H142935   3.638   0.985   3.470
14330TIP3    H242936   3.563   0.862   3.424
14331TIP3   OH242937   5.044   0.104   6.164
14331TIP3    H142938   5.020   0.168   6.230
14331TIP3    H242939   5.047   0.153   6.082
14332TIP3   OH242940   2.133   0.369   1.514
14332TIP3    H142941   2.119   0.459   1.486
14332TIP3    H242942   2.166   0.376   1.604
14333TIP3   OH242943   2.207   1.557   6.640
14333TIP3    H142944   2.131   1.569   6.584
14333TIP3    H242945   2.183   1.484   6.697
14334TIP3   OH242946   0.529   4.312   5.038
14334TIP3    H142947   0.436   4.297   5.049
14334TIP3    H242948   0.570   4.227   5.054
14335TIP3   OH242949   1.306   4.490   6.650
14335TIP3    H142950   1.290   4.584   6.652
14335TIP3    H242951   1.363   4.477   6.573
14336TIP3   OH242952   3.610   1.940   3.543
14336TIP3    H142953   3.564   2.019   3.572
14336TIP3    H242954   3.669   1.971   3.474
14337TIP3   OH242955   8.161   1.173   1.393
14337TIP3    H142956   8.198   1.090   1.361
14337TIP3    H242957   8.074   1.178   1.351
14338TIP3   OH242958   3.759   1.945   5.831
14338TIP3    H142959   3.817   2.010   5.791
14338TIP3    H242960   3.776   1.864   5.781
14339TIP3   OH242961   7.671   1.275   4.733
14339TIP3    H142962   7.631   1.337   4.672
14339TIP3    H242963   7.711   1.208   4.677
14340TIP3   OH242964   8.049   6.916   5.556
14340TIP3    H142965   7.989   6.964   5.613
14340TIP3    H242966   8.070   6.978   5.486
14341TIP3   OH242967   4.313   1.634   4.393
14341TIP3    H142968   4.369   1.564   4.426
14341TIP3    H242969   4.371   1.708   4.380
14342TIP3   OH242970   5.858   1.472   1.545
14342TIP3    H142971   5.924   1.524   1.499
14342TIP3    H242972   5.782   1.473   1.487
14343TIP3   OH242973   4.052   6.312   4.904
14343TIP3    H142974   4.070   6.383   4.842
14343TIP3    H242975   4.126   6.314   4.965
14344TIP3   OH242976   2.805   7.356   6.558
14344TIP3    H142977   2.731   7.414   6.541
14344TIP3    H242978   2.813   7.356   6.654
14345TIP3   OH242979   4.203   6.557   2.399
14345TIP3    H142980   4.140   6.594   2.337
14345TIP3    H242981   4.227   6.472   2.361
14346TIP3   OH242982   4.125   0.720   0.136
14346TIP3    H142983   4.215   0.702   0.162
14346TIP3    H242984   4.072   0.658   0.186
14347TIP3   OH242985   8.089   4.893   1.952
14347TIP3    H142986   8.067   4.982   1.921
14347TIP3    H242987   8.180   4.899   1.980
14348TIP3   OH242988   5.272   3.054   5.087
14348TIP3    H142989   5.247   2.979   5.034
14348TIP3    H242990   5.193   3.106   5.095
14349TIP3   OH242991   3.593   4.302   2.233
14349TIP3    H142992   3.519   4.241   2.233
14349TIP3    H242993   3.631   4.294   2.145
14350TIP3   OH242994   1.213   6.346   6.188
14350TIP3    H142995   1.154   6.310   6.254
14350TIP3    H242996   1.220   6.439   6.209
14351TIP3   OH242997   0.173   2.435   2.975
14351TIP3    H142998   0.166   2.380   3.053
14351TIP3    H242999   0.083   2.462   2.956
14352TIP3   OH243000   5.753   4.129   1.238
14352TIP3    H143001   5.697   4.145   1.314
14352TIP3    H243002   5.695   4.088   1.174
14353TIP3   OH243003   5.239   6.300   5.093
14353TIP3    H143004   5.199   6.293   5.007
14353TIP3    H243005   5.320   6.249   5.085
14354TIP3   OH243006   3.158   1.455   5.413
14354TIP3    H143007   3.201   1.488   5.335
14354TIP3    H243008   3.174   1.523   5.479
14355TIP3   OH243009   4.534   6.188   4.129
14355TIP3    H143010   4.523   6.280   4.150
14355TIP3    H243011   4.524   6.184   4.033
14356TIP3   OH243012   2.183   5.231   2.465
14356TIP3    H143013   2.218   5.142   2.459
14356TIP3    H243014   2.235   5.282   2.403
14357TIP3   OH243015   0.738   1.338   6.643
14357TIP3    H143016   0.671   1.406   6.633
14357TIP3    H243017   0.797   1.352   6.569
14358TIP3   OH243018   7.834   7.586   4.174
14358TIP3    H143019   7.767   7.606   4.240
14358TIP3    H243020   7.901   7.537   4.222
14359TIP3   OH243021   3.496   0.777   2.260
14359TIP3    H143022   3.492   0.722   2.182
14359TIP3    H243023   3.412   0.761   2.304
14360TIP3   OH243024   2.314   3.810   3.396
14360TIP3    H143025   2.405   3.816   3.367
14360TIP3    H243026   2.302   3.886   3.454
14361TIP3   OH243027   5.870   0.583   4.366
14361TIP3    H143028   5.907   0.544   4.445
14361TIP3    H243029   5.864   0.677   4.386
14362TIP3   OH243030   6.931   7.281   4.769
14362TIP3    H143031   6.838   7.301   4.761
14362TIP3    H243032   6.939   7.241   4.855
14363TIP3   OH243033   2.765   6.159   1.751
14363TIP3    H143034   2.823   6.090   1.783
14363TIP3    H243035   2.729   6.199   1.830
14364TIP3   OH243036   7.882   1.700   1.835
14364TIP3    H143037   7.905   1.614   1.801
14364TIP3    H243038   7.845   1.746   1.760
14365TIP3   OH243039   1.564   4.843   5.640
14365TIP3    H143040   1.497   4.868   5.576
14365TIP3    H243041   1.607   4.926   5.663
14366TIP3   OH243042   1.336   4.850   0.085
14366TIP3    H143043   1.375   4.926   0.128
14366TIP3    H243044   1.244   4.875   0.072
14367TIP3   OH243045   5.473   7.674   4.208
14367TIP3    H143046   5.410   7.746   4.208
14367TIP3    H243047   5.429   7.603   4.253
14368TIP3   OH243048   0.429   2.673   6.269
14368TIP3    H143049   0.363   2.722   6.221
14368TIP3    H243050   0.388   2.655   6.354
14369TIP3   OH243051   2.713   4.930   2.120
14369TIP3    H143052   2.796   4.891   2.147
14369TIP3    H243053   2.656   4.855   2.103
14370TIP3   OH243054   4.996   7.578   1.984
14370TIP3    H143055   5.069   7.528   1.948
14370TIP3    H243056   4.936   7.589   1.911
14371TIP3   OH243057   8.230   7.788   0.709
14371TIP3    H143058   8.299   7.770   0.773
14371TIP3    H243059   8.159   7.727   0.733
14372TIP3   OH243060   0.831   7.636   5.857
14372TIP3    H143061   0.821   7.626   5.762
14372TIP3    H243062   0.778   7.712   5.879
14373TIP3   OH243063   7.518   1.988   6.703
14373TIP3    H143064   7.436   2.038   6.701
14373TIP3    H243065   7.586   2.054   6.695
14374TIP3   OH243066   1.221   2.129   6.716
14374TIP3    H143067   1.291   2.065   6.726
14374TIP3    H243068   1.141   2.081   6.737
14375TIP3   OH243069   4.760   1.170   3.492
14375TIP3    H143070   4.795   1.171   3.581
14375TIP3    H243071   4.824   1.119   3.442
14376TIP3   OH243072   0.542   0.945   5.988
14376TIP3    H143073   0.458   0.926   6.030
14376TIP3    H243074   0.603   0.957   6.061
14377TIP3   OH243075   5.788   4.065   3.295
14377TIP3    H143076   5.841   4.040   3.219
14377TIP3    H243077   5.758   4.154   3.275
14378TIP3   OH243078   1.899   1.608   5.964
14378TIP3    H143079   1.829   1.591   5.901
14378TIP3    H243080   1.949   1.680   5.927
14379TIP3   OH243081   1.854   1.751   3.797
14379TIP3    H143082   1.760   1.744   3.814
14379TIP3    H243083   1.882   1.826   3.850
14380TIP3   OH243084   1.744   7.403   0.418
14380TIP3    H143085   1.699   7.481   0.384
14380TIP3    H243086   1.673   7.348   0.453
14381TIP3   OH243087   0.106   3.437   3.581
14381TIP3    H143088   0.145   3.418   3.667
14381TIP3    H243089   0.146   3.520   3.554
14382TIP3   OH243090   3.454   6.476   2.796
14382TIP3    H143091   3.441   6.449   2.887
14382TIP3    H243092   3.541   6.443   2.774
14383TIP3   OH243093   1.299   3.931   6.694
14383TIP3    H143094   1.262   4.005   6.743
14383TIP3    H243095   1.227   3.903   6.637
14384TIP3   OH243096   3.221   5.083   2.507
14384TIP3    H143097   3.231   5.062   2.414
14384TIP3    H243098   3.307   5.067   2.545
14385TIP3   OH243099   2.656   0.274   4.407
14385TIP3    H143100   2.666   0.368   4.397
14385TIP3    H243101   2.612   0.263   4.491
14386TIP3   OH243102   0.881   4.839   1.127
14386TIP3    H143103   0.894   4.857   1.033
14386TIP3    H243104   0.787   4.842   1.139
14387TIP3   OH243105   4.010   3.261   4.471
14387TIP3    H143106   4.101   3.265   4.440
14387TIP3    H243107   3.994   3.168   4.486
14388TIP3   OH243108   5.737   5.777   2.099
14388TIP3    H143109   5.701   5.733   2.022
14388TIP3    H243110   5.719   5.870   2.084
14389TIP3   OH243111   6.479   3.729   0.090
14389TIP3    H143112   6.388   3.755   0.104
14389TIP3    H243113   6.501   3.764   0.004
14390TIP3   OH243114   1.177   5.331   1.663
14390TIP3    H143115   1.207   5.254   1.615
14390TIP3    H243116   1.233   5.334   1.740
14391TIP3   OH243117   0.362   0.103   5.238
14391TIP3    H143118   0.286   0.049   5.216
14391TIP3    H243119   0.363   0.104   5.334
14392TIP3   OH243120   6.552   5.121   2.344
14392TIP3    H143121   6.599   5.201   2.366
14392TIP3    H243122   6.490   5.148   2.276
14393TIP3   OH243123   6.597   2.348   1.674
14393TIP3    H143124   6.507   2.362   1.702
14393TIP3    H243125   6.643   2.321   1.754
14394TIP3   OH243126   2.129   0.646   3.920
14394TIP3    H143127   2.154   0.691   4.000
14394TIP3    H243128   2.073   0.574   3.950
14395TIP3   OH243129   2.725   4.817   3.935
14395TIP3    H143130   2.796   4.880   3.920
14395TIP3    H243131   2.690   4.799   3.847
14396TIP3   OH243132   0.255   6.711   3.802
14396TIP3    H143133   0.250   6.617   3.785
14396TIP3    H243134   0.187   6.749   3.747
14397TIP3   OH243135   5.567   3.724   6.328
14397TIP3    H143136   5.600   3.790   6.390
14397TIP3    H243137   5.478   3.752   6.308
14398TIP3   OH243138   5.713   0.574   3.465
14398TIP3    H143139   5.772   0.500   3.452
14398TIP3    H243140   5.662   0.579   3.384
14399TIP3   OH243141   1.349  -0.005   4.658
14399TIP3    H143142   1.417   0.001   4.726
14399TIP3    H243143   1.377  -0.077   4.602
14400TIP3   OH243144   3.405   0.867   4.351
14400TIP3    H143145   3.441   0.858   4.263
14400TIP3    H243146   3.318   0.827   4.345
14401TIP3   OH243147   5.206   1.671   5.228
14401TIP3    H143148   5.273   1.731   5.195
14401TIP3    H243149   5.162   1.638   5.150
14402TIP3   OH243150   0.062   0.485   6.434
14402TIP3    H143151   0.024   0.568   6.403
14402TIP3    H243152   0.023   0.472   6.521
14403TIP3   OH243153   3.985   0.672   4.965
14403TIP3    H143154   3.940   0.604   4.913
14403TIP3    H243155   4.062   0.627   5.000
14404TIP3   OH243156   4.121   0.683   0.573
14404TIP3    H143157   4.130   0.670   0.479
14404TIP3    H243158   4.210   0.699   0.604
14405TIP3   OH243159   3.407   1.405   3.106
14405TIP3    H143160   3.418   1.388   3.199
14405TIP3    H243161   3.465   1.343   3.062
14406TIP3   OH243162   0.705   0.174   4.010
14406TIP3    H143163   0.696   0.227   3.930
14406TIP3    H243164   0.786   0.204   4.050
14407TIP3   OH243165   3.265   7.497   1.264
14407TIP3    H143166   3.265   7.548   1.183
14407TIP3    H243167   3.357   7.496   1.291
14408TIP3   OH243168   4.510   3.675   1.770
14408TIP3    H143169   4.604   3.687   1.757
14408TIP3    H243170   4.503   3.606   1.836
14409TIP3   OH243171   8.085   2.891   4.243
14409TIP3    H143172   8.039   2.809   4.265
14409TIP3    H243173   8.092   2.938   4.325
14410TIP3   OH243174   7.926   1.658   1.205
14410TIP3    H143175   7.870   1.635   1.279
14410TIP3    H243176   7.908   1.591   1.140
14411TIP3   OH243177   5.580   3.999   4.831
14411TIP3    H143178   5.612   4.083   4.866
14411TIP3    H243179   5.659   3.946   4.821
14412TIP3   OH243180   6.202   6.732   3.656
14412TIP3    H143181   6.234   6.810   3.611
14412TIP3    H243182   6.207   6.755   3.749
14413TIP3   OH243183   6.702   5.487   5.172
14413TIP3    H143184   6.627   5.439   5.207
14413TIP3    H243185   6.777   5.456   5.224
14414TIP3   OH243186   7.740   5.660   2.913
14414TIP3    H143187   7.786   5.639   2.995
14414TIP3    H243188   7.717   5.575   2.876
14415TIP3   OH243189   8.006   0.684   3.451
14415TIP3    H143190   7.911   0.677   3.445
14415TIP3    H243191   8.039   0.614   3.394
14416TIP3   OH243192   5.072   4.638   1.841
14416TIP3    H143193   5.092   4.718   1.891
14416TIP3    H243194   5.091   4.662   1.750
14417TIP3   OH243195   3.329   0.632   6.682
14417TIP3    H143196   3.304   0.701   6.744
14417TIP3    H243197   3.424   0.638   6.676
14418TIP3   OH243198   0.257   6.897   4.717
14418TIP3    H143199   0.292   6.888   4.806
14418TIP3    H243200   0.190   6.829   4.711
14419TIP3   OH243201   6.725   1.673   0.397
14419TIP3    H143202   6.712   1.762   0.366
14419TIP3    H243203   6.808   1.646   0.359
14420TIP3   OH243204   5.646   6.805   6.254
14420TIP3    H143205   5.598   6.799   6.171
14420TIP3    H243206   5.682   6.894   6.255
14421TIP3   OH243207   5.596   1.897   3.436
14421TIP3    H143208   5.607   1.954   3.359
14421TIP3    H243209   5.547   1.950   3.498
14422TIP3   OH243210   0.370   2.979   5.782
14422TIP3    H143211   0.466   2.981   5.781
14422TIP3    H243212   0.348   2.886   5.785
14423TIP3   OH243213   5.207   1.829   4.877
14423TIP3    H143214   5.278   1.872   4.829
14423TIP3    H243215   5.251   1.782   4.947
14424TIP3   OH243216   4.255   3.857   3.921
14424TIP3    H143217   4.230   3.837   3.831
14424TIP3    H243218   4.178   3.900   3.959
14425TIP3   OH243219   6.345   2.154   4.759
14425TIP3    H143220   6.289   2.209   4.705
14425TIP3    H243221   6.429   2.153   4.714
14426TIP3   OH243222   2.923   3.591   1.006
14426TIP3    H143223   3.012   3.574   0.974
14426TIP3    H243224   2.932   3.665   1.065
14427TIP3   OH243225   2.740   0.224   2.024
14427TIP3    H143226   2.658   0.239   2.071
14427TIP3    H243227   2.785   0.308   2.025
14428TIP3   OH243228   0.785   1.177   2.259
14428TIP3    H143229   0.787   1.082   2.245
14428TIP3    H243230   0.799   1.188   2.353
14429TIP3   OH243231   5.745   0.797   5.213
14429TIP3    H143232   5.794   0.715   5.220
14429TIP3    H243233   5.771   0.847   5.291
14430TIP3   OH243234   0.466   5.604   6.342
14430TIP3    H143235   0.462   5.654   6.424
14430TIP3    H243236   0.418   5.658   6.279
14431TIP3   OH243237   0.640   7.646   2.122
14431TIP3    H143238   0.685   7.565   2.097
14431TIP3    H243239   0.613   7.685   2.039
14432TIP3   OH243240   7.663   7.520   3.910
14432TIP3    H143241   7.590   7.581   3.899
14432TIP3    H243242   7.706   7.549   3.991
14433TIP3   OH243243   3.620   3.310   6.200
14433TIP3    H143244   3.540   3.310   6.147
14433TIP3    H243245   3.648   3.401   6.200
14434TIP3   OH243246   3.289   2.059   1.811
14434TIP3    H143247   3.290   1.980   1.865
14434TIP3    H243248   3.270   2.028   1.722
14435TIP3   OH243249   0.547   2.130   0.598
14435TIP3    H143250   0.455   2.155   0.586
14435TIP3    H243251   0.555   2.110   0.691
14436TIP3   OH243252   1.296   6.938   1.112
14436TIP3    H143253   1.376   6.888   1.099
14436TIP3    H243254   1.264   6.957   1.024
14437TIP3   OH243255   6.988   5.623   6.089
14437TIP3    H143256   6.897   5.594   6.096
14437TIP3    H243257   7.005   5.668   6.172
14438TIP3   OH243258   6.268   0.523   6.642
14438TIP3    H143259   6.226   0.471   6.710
14438TIP3    H243260   6.328   0.462   6.598
14439TIP3   OH243261   3.877   3.638   1.317
14439TIP3    H143262   3.834   3.640   1.231
14439TIP3    H243263   3.958   3.687   1.304
14440TIP3   OH243264   8.182   2.004   2.987
14440TIP3    H143265   8.171   1.933   3.051
14440TIP3    H243266   8.096   2.046   2.985
14441TIP3   OH243267   1.649   7.763   5.788
14441TIP3    H143268   1.649   7.709   5.866
14441TIP3    H243269   1.568   7.739   5.742
14442TIP3   OH243270   3.993   6.733   3.673
14442TIP3    H143271   4.033   6.806   3.722
14442TIP3    H243272   4.052   6.659   3.687
14443TIP3   OH243273   0.077   5.415   6.401
14443TIP3    H143274   0.014   5.351   6.432
14443TIP3    H243275   0.084   5.479   6.472
14444TIP3   OH243276   7.812   6.350   6.455
14444TIP3    H143277   7.882   6.403   6.418
14444TIP3    H243278   7.857   6.283   6.506
14445TIP3   OH243279   1.953   5.356   0.296
14445TIP3    H143280   1.927   5.269   0.329
14445TIP3    H243281   2.015   5.337   0.226
14446TIP3   OH243282   6.800   5.995   3.535
14446TIP3    H143283   6.804   5.925   3.470
14446TIP3    H243284   6.737   5.962   3.600
14447TIP3   OH243285   6.630   0.720   5.870
14447TIP3    H143286   6.691   0.719   5.797
14447TIP3    H243287   6.685   0.730   5.947
14448TIP3   OH243288   2.448   1.264   3.244
14448TIP3    H143289   2.522   1.285   3.187
14448TIP3    H243290   2.488   1.216   3.317
14449TIP3   OH243291   2.329   6.968   6.626
14449TIP3    H143292   2.277   6.905   6.677
14449TIP3    H243293   2.377   7.019   6.692
14450TIP3   OH243294   3.098   3.282   0.307
14450TIP3    H143295   3.173   3.244   0.353
14450TIP3    H243296   3.133   3.312   0.224
14451TIP3   OH243297   5.890   5.598   5.960
14451TIP3    H143298   5.810   5.611   6.010
14451TIP3    H243299   5.937   5.528   6.007
14452TIP3   OH243300   4.888   3.534   1.970
14452TIP3    H143301   4.856   3.486   2.046
14452TIP3    H243302   4.866   3.479   1.895
14453TIP3   OH243303   3.347   5.307   5.209
14453TIP3    H143304   3.271   5.270   5.252
14453TIP3    H243305   3.412   5.318   5.279
14454TIP3   OH243306   4.008   0.194   6.423
14454TIP3    H143307   3.973   0.128   6.363
14454TIP3    H243308   3.987   0.160   6.510
14455TIP3   OH243309   4.294   2.266   5.348
14455TIP3    H143310   4.275   2.300   5.436
14455TIP3    H243311   4.356   2.330   5.312
14456TIP3   OH243312   3.166   1.174   5.376
14456TIP3    H143313   3.249   1.156   5.420
14456TIP3    H243314   3.161   1.270   5.373
14457TIP3   OH243315   2.654   1.196   0.640
14457TIP3    H143316   2.616   1.282   0.653
14457TIP3    H243317   2.744   1.213   0.612
14458TIP3   OH243318   3.208   6.086   0.100
14458TIP3    H143319   3.220   6.176   0.070
14458TIP3    H243320   3.184   6.094   0.192
14459TIP3   OH243321   6.727   4.169   0.206
14459TIP3    H143322   6.634   4.192   0.202
14459TIP3    H243323   6.768   4.220   0.136
14460TIP3   OH243324   1.092   3.247   3.461
14460TIP3    H143325   1.014   3.257   3.516
14460TIP3    H243326   1.118   3.337   3.439
14461TIP3   OH243327   7.035   1.167   3.111
14461TIP3    H143328   7.075   1.218   3.041
14461TIP3    H243329   7.094   1.179   3.186
14462TIP3   OH243330   3.769   1.478   5.564
14462TIP3    H143331   3.752   1.407   5.503
14462TIP3    H243332   3.738   1.445   5.648
14463TIP3   OH243333   5.329   1.007   0.299
14463TIP3    H143334   5.258   0.987   0.238
14463TIP3    H243335   5.354   1.097   0.279
14464TIP3   OH243336   3.890   5.812   3.434
14464TIP3    H143337   3.891   5.718   3.452
14464TIP3    H243338   3.983   5.835   3.428
14465TIP3   OH243339   1.737   7.776   3.489
14465TIP3    H143340   1.683   7.825   3.551
14465TIP3    H243341   1.827   7.799   3.512
14466TIP3   OH243342   5.343   6.630   3.938
14466TIP3    H143343   5.382   6.682   4.009
14466TIP3    H243344   5.331   6.543   3.975
14467TIP3   OH243345   0.311   3.573   4.232
14467TIP3    H143346   0.354   3.526   4.160
14467TIP3    H243347   0.377   3.574   4.302
14468TIP3   OH243348   7.809   5.068   6.021
14468TIP3    H143349   7.791   4.994   5.963
14468TIP3    H243350   7.722   5.103   6.041
14469TIP3   OH243351   6.790   7.324   0.317
14469TIP3    H143352   6.719   7.384   0.294
14469TIP3    H243353   6.814   7.349   0.406
14470TIP3   OH243354   7.964   5.440   1.510
14470TIP3    H143355   7.882   5.438   1.560
14470TIP3    H243356   7.940   5.408   1.423
14471TIP3   OH243357   0.009   2.211   1.824
14471TIP3    H143358  -0.001   2.129   1.775
14471TIP3    H243359   0.066   2.187   1.898
14472TIP3   OH243360   2.525   2.716   0.540
14472TIP3    H143361   2.436   2.735   0.511
14472TIP3    H243362   2.580   2.739   0.465
14473TIP3   OH243363   1.553   2.306   5.962
14473TIP3    H143364   1.580   2.285   5.872
14473TIP3    H243365   1.612   2.256   6.018
14474TIP3   OH243366   2.681   7.546   6.200
14474TIP3    H143367   2.700   7.591   6.282
14474TIP3    H243368   2.666   7.455   6.225
14475TIP3   OH243369   6.703   0.397   3.779
14475TIP3    H143370   6.649   0.320   3.763
14475TIP3    H243371   6.698   0.410   3.874
14476TIP3   OH243372   1.268   5.647   6.166
14476TIP3    H143373   1.351   5.665   6.211
14476TIP3    H243374   1.205   5.636   6.237
14477TIP3   OH243375   5.982   1.316   0.080
14477TIP3    H143376   6.031   1.350   0.005
14477TIP3    H243377   5.918   1.256   0.041
14478TIP3   OH243378   4.759   0.489   0.054
14478TIP3    H143379   4.847   0.453   0.049
14478TIP3    H243380   4.768   0.578   0.021
14479TIP3   OH243381   6.405   3.412   2.169
14479TIP3    H143382   6.458   3.332   2.159
14479TIP3    H243383   6.470   3.483   2.172
14480TIP3   OH243384   6.573   7.097   3.231
14480TIP3    H143385   6.642   7.081   3.296
14480TIP3    H243386   6.529   7.176   3.263
14481TIP3   OH243387   2.068   2.821   6.161
14481TIP3    H143388   2.160   2.813   6.185
14481TIP3    H243389   2.068   2.877   6.083
14482TIP3   OH243390   1.047   3.133   6.703
14482TIP3    H143391   1.087   3.220   6.707
14482TIP3    H243392   0.960   3.149   6.668
14483TIP3   OH243393   6.673   7.320   4.706
14483TIP3    H143394   6.585   7.289   4.686
14483TIP3    H243395   6.660   7.388   4.772
14484TIP3   OH243396   7.730   1.664   3.420
14484TIP3    H143397   7.772   1.615   3.349
14484TIP3    H243398   7.638   1.639   3.416
14485TIP3   OH243399   2.543   1.916   1.956
14485TIP3    H143400   2.590   1.977   1.898
14485TIP3    H243401   2.586   1.832   1.941
14486TIP3   OH243402   5.826   1.413   3.352
14486TIP3    H143403   5.748   1.379   3.307
14486TIP3    H243404   5.796   1.494   3.393
14487TIP3   OH243405   6.421   4.686   5.821
14487TIP3    H143406   6.461   4.723   5.742
14487TIP3    H243407   6.337   4.650   5.791
14488TIP3   OH243408   6.703   3.516   3.174
14488TIP3    H143409   6.707   3.612   3.173
14488TIP3    H243410   6.793   3.490   3.195
14489TIP3   OH243411   4.924   4.288   2.435
14489TIP3    H143412   4.937   4.213   2.376
14489TIP3    H243413   4.953   4.258   2.520
14490TIP3   OH243414   1.665   0.441   5.386
14490TIP3    H143415   1.743   0.401   5.426
14490TIP3    H243416   1.643   0.382   5.314
14491TIP3   OH243417   0.953   1.739   6.574
14491TIP3    H143418   0.986   1.667   6.627
14491TIP3    H243419   0.963   1.710   6.484
14492TIP3   OH243420   7.045   2.852   4.604
14492TIP3    H143421   7.099   2.875   4.528
14492TIP3    H243422   6.956   2.852   4.571
14493TIP3   OH243423   8.161   6.518   3.681
14493TIP3    H143424   8.222   6.444   3.684
14493TIP3    H243425   8.139   6.526   3.588
14494TIP3   OH243426   5.428   3.019   0.421
14494TIP3    H143427   5.414   2.981   0.335
14494TIP3    H243428   5.394   2.953   0.483
14495TIP3   OH243429   4.784   5.864   4.553
14495TIP3    H143430   4.812   5.868   4.461
14495TIP3    H243431   4.841   5.926   4.598
14496TIP3   OH243432   6.769   6.114   6.004
14496TIP3    H143433   6.682   6.076   6.015
14496TIP3    H243434   6.802   6.125   6.094
14497TIP3   OH243435   1.216   6.212   3.067
14497TIP3    H143436   1.252   6.215   3.155
14497TIP3    H243437   1.175   6.297   3.054
14498TIP3   OH243438   7.209   4.236   4.893
14498TIP3    H143439   7.184   4.221   4.984
14498TIP3    H243440   7.295   4.278   4.899
14499TIP3   OH243441   5.072   2.985   3.232
14499TIP3    H143442   5.139   3.050   3.253
14499TIP3    H243443   4.998   3.008   3.289
14500TIP3   OH243444   5.664   2.327   6.456
14500TIP3    H143445   5.572   2.345   6.438
14500TIP3    H243446   5.703   2.314   6.369
14501TIP3   OH243447   6.730   7.144   5.490
14501TIP3    H143448   6.751   7.147   5.397
14501TIP3    H243449   6.638   7.116   5.492
14502TIP3   OH243450   5.762   1.416   2.376
14502TIP3    H143451   5.673   1.422   2.343
14502TIP3    H243452   5.762   1.337   2.431
14503TIP3   OH243453   6.721   4.312   3.573
14503TIP3    H143454   6.694   4.353   3.491
14503TIP3    H243455   6.768   4.381   3.620
14504TIP3   OH243456   6.234   0.966   6.577
14504TIP3    H143457   6.167   0.900   6.596
14504TIP3    H243458   6.275   0.935   6.496
14505TIP3   OH243459  -0.006   6.018   5.011
14505TIP3    H143460  -0.015   6.112   5.026
14505TIP3    H243461   0.087   6.001   5.020
14506TIP3   OH243462   0.172   5.380   1.868
14506TIP3    H143463   0.258   5.367   1.827
14506TIP3    H243464   0.178   5.468   1.906
14507TIP3   OH243465   1.554   3.200   3.618
14507TIP3    H143466   1.523   3.111   3.635
14507TIP3    H243467   1.646   3.190   3.595
14508TIP3   OH243468   5.496   7.728   2.297
14508TIP3    H143469   5.464   7.676   2.223
14508TIP3    H243470   5.551   7.668   2.346
14509TIP3   OH243471   8.094   1.113   6.134
14509TIP3    H143472   8.132   1.169   6.202
14509TIP3    H243473   8.005   1.095   6.166
14510TIP3   OH243474   2.774   5.723   0.404
14510TIP3    H143475   2.835   5.754   0.338
14510TIP3    H243476   2.768   5.629   0.390
14511TIP3   OH243477   3.410   3.100   4.431
14511TIP3    H143478   3.402   3.056   4.516
14511TIP3    H243479   3.338   3.064   4.379
14512TIP3   OH243480   7.098   1.029   5.655
14512TIP3    H143481   7.115   1.051   5.747
14512TIP3    H243482   7.183   1.002   5.621
14513TIP3   OH243483   2.379   2.700   5.143
14513TIP3    H143484   2.402   2.626   5.086
14513TIP3    H243485   2.330   2.759   5.086
14514TIP3   OH243486   3.991   2.636   5.779
14514TIP3    H143487   3.918   2.679   5.823
14514TIP3    H243488   3.951   2.564   5.731
14515TIP3   OH243489   6.174   6.492   4.074
14515TIP3    H143490   6.225   6.527   4.001
14515TIP3    H243491   6.138   6.410   4.042
14516TIP3   OH243492   0.735   1.696   4.529
14516TIP3    H143493   0.827   1.684   4.554
14516TIP3    H243494   0.710   1.779   4.568
14517TIP3   OH243495   7.834   2.693   2.784
14517TIP3    H143496   7.835   2.782   2.748
14517TIP3    H243497   7.925   2.663   2.775
14518TIP3   OH243498   8.123   3.142   0.365
14518TIP3    H143499   8.194   3.202   0.386
14518TIP3    H243500   8.071   3.137   0.445
14519TIP3   OH243501   2.541   0.934   5.019
14519TIP3    H143502   2.447   0.938   5.037
14519TIP3    H243503   2.578   1.006   5.069
14520TIP3   OH243504   1.961   5.135   2.108
14520TIP3    H143505   2.039   5.124   2.054
14520TIP3    H243506   1.942   5.229   2.103
14521TIP3   OH243507   0.465   5.624   0.626
14521TIP3    H143508   0.512   5.679   0.689
14521TIP3    H243509   0.387   5.676   0.603
14522TIP3   OH243510   4.104   4.145   3.464
14522TIP3    H143511   4.110   4.171   3.556
14522TIP3    H243512   4.026   4.090   3.459
14523TIP3   OH243513   6.669   5.171   3.799
14523TIP3    H143514   6.648   5.244   3.741
14523TIP3    H243515   6.709   5.106   3.741
14524TIP3   OH243516   5.615   5.626   4.985
14524TIP3    H143517   5.698   5.652   4.944
14524TIP3    H243518   5.625   5.532   5.000
14525TIP3   OH243519   8.170   1.086   5.400
14525TIP3    H143520   8.204   1.147   5.466
14525TIP3    H243521   8.139   1.142   5.329
14526TIP3   OH243522   0.173   7.179   4.711
14526TIP3    H143523   0.130   7.095   4.726
14526TIP3    H243524   0.266   7.163   4.728
14527TIP3   OH243525   7.378   1.578   4.646
14527TIP3    H143526   7.449   1.543   4.593
14527TIP3    H243527   7.349   1.503   4.699
14528TIP3   OH243528   7.103   0.491   4.586
14528TIP3    H143529   7.085   0.409   4.542
14528TIP3    H243530   7.027   0.547   4.565
14529TIP3   OH243531   4.378   1.964   6.684
14529TIP3    H143532   4.458   2.005   6.716
14529TIP3    H243533   4.371   1.992   6.593
14530TIP3   OH243534   6.206   4.175   3.796
14530TIP3    H143535   6.249   4.150   3.877
14530TIP3    H243536   6.254   4.129   3.727
14531TIP3   OH243537   1.198   5.545   5.618
14531TIP3    H143538   1.194   5.532   5.523
14531TIP3    H243539   1.111   5.575   5.642
14532TIP3   OH243540   1.558   5.272   4.382
14532TIP3    H143541   1.498   5.257   4.455
14532TIP3    H243542   1.632   5.214   4.400
14533TIP3   OH243543   6.036   1.005   4.772
14533TIP3    H143544   5.992   0.933   4.818
14533TIP3    H243545   5.970   1.073   4.764
14534TIP3   OH243546   5.272   2.529   6.589
14534TIP3    H143547   5.351   2.514   6.538
14534TIP3    H243548   5.210   2.463   6.558
14535TIP3   OH243549   8.202   6.499   3.129
14535TIP3    H143550   8.142   6.572   3.138
14535TIP3    H243551   8.217   6.491   3.035
14536TIP3   OH243552   0.500   0.905   2.678
14536TIP3    H143553   0.580   0.883   2.726
14536TIP3    H243554   0.521   0.986   2.632
14537TIP3   OH243555   3.123   6.261   4.018
14537TIP3    H143556   3.031   6.243   4.038
14537TIP3    H243557   3.165   6.175   4.018
14538TIP3   OH243558   1.217   3.303   4.450
14538TIP3    H143559   1.192   3.338   4.536
14538TIP3    H243560   1.259   3.377   4.405
14539TIP3   OH243561   5.207   2.978   3.936
14539TIP3    H143562   5.224   3.061   3.891
14539TIP3    H243563   5.288   2.960   3.985
14540TIP3   OH243564   2.093   7.583   3.931
14540TIP3    H143565   2.180   7.601   3.966
14540TIP3    H243566   2.046   7.543   4.004
14541TIP3   OH243567   3.580   4.596   0.055
14541TIP3    H143568   3.670   4.568   0.038
14541TIP3    H243569   3.557   4.554   0.138
14542TIP3   OH243570   3.268   2.735   1.541
14542TIP3    H143571   3.357   2.723   1.574
14542TIP3    H243572   3.234   2.646   1.529
14543TIP3   OH243573   3.078   1.129   6.296
14543TIP3    H143574   3.023   1.208   6.292
14543TIP3    H243575   3.021   1.058   6.267
14544TIP3   OH243576   3.457   4.826   1.869
14544TIP3    H143577   3.439   4.862   1.956
14544TIP3    H243578   3.373   4.830   1.824
14545TIP3   OH243579   4.105   5.346   1.411
14545TIP3    H143580   4.175   5.398   1.372
14545TIP3    H243581   4.024   5.392   1.386
14546TIP3   OH243582   5.978   6.992   5.517
14546TIP3    H143583   5.991   7.086   5.512
14546TIP3    H243584   6.031   6.964   5.592
14547TIP3   OH243585   1.005   7.243   1.927
14547TIP3    H143586   1.013   7.232   2.021
14547TIP3    H243587   0.967   7.330   1.915
14548TIP3   OH243588   8.116   3.286   2.379
14548TIP3    H143589   8.039   3.295   2.435
14548TIP3    H243590   8.103   3.203   2.333
14549TIP3   OH243591   6.112   6.812   4.969
14549TIP3    H143592   6.081   6.798   5.058
14549TIP3    H243593   6.033   6.835   4.919
14550TIP3   OH243594   6.593   7.070   4.429
14550TIP3    H143595   6.646   7.047   4.352
14550TIP3    H243596   6.511   7.101   4.393
14551TIP3   OH243597   3.637   2.579   0.761
14551TIP3    H143598   3.630   2.668   0.793
14551TIP3    H243599   3.617   2.585   0.668
14552TIP3   OH243600   3.901   1.776   3.692
14552TIP3    H143601   3.851   1.844   3.738
14552TIP3    H243602   3.872   1.783   3.601
14553TIP3   OH243603   0.216   6.439   5.757
14553TIP3    H143604   0.192   6.530   5.744
14553TIP3    H243605   0.189   6.395   5.676
14554TIP3   OH243606   5.007   1.591   6.402
14554TIP3    H143607   5.067   1.594   6.477
14554TIP3    H243608   5.047   1.649   6.337
14555TIP3   OH243609   5.671   3.114   6.042
14555TIP3    H143610   5.746   3.082   5.992
14555TIP3    H243611   5.600   3.055   6.017
14556TIP3   OH243612   3.948   7.174   0.332
14556TIP3    H143613   3.946   7.079   0.333
14556TIP3    H243614   4.026   7.196   0.282
14557TIP3   OH243615   7.110   5.512   0.229
14557TIP3    H143616   7.119   5.421   0.201
14557TIP3    H243617   7.016   5.525   0.241
14558TIP3   OH243618   5.896   5.286   0.165
14558TIP3    H143619   5.817   5.298   0.112
14558TIP3    H243620   5.865   5.247   0.247
14559TIP3   OH243621   7.852   4.569   4.445
14559TIP3    H143622   7.765   4.558   4.406
14559TIP3    H243623   7.892   4.483   4.439
14560TIP3   OH243624   1.383   6.617   4.916
14560TIP3    H143625   1.449   6.568   4.867
14560TIP3    H243626   1.335   6.550   4.965
14561TIP3   OH243627   5.735   3.982   6.450
14561TIP3    H143628   5.718   4.070   6.416
14561TIP3    H243629   5.810   3.951   6.399
14562TIP3   OH243630   3.160   4.317   2.231
14562TIP3    H143631   3.213   4.372   2.172
14562TIP3    H243632   3.073   4.357   2.228
14563TIP3   OH243633   0.611   7.053   0.644
14563TIP3    H143634   0.663   7.133   0.637
14563TIP3    H243635   0.640   6.999   0.570
14564TIP3   OH243636   6.812   1.044   5.699
14564TIP3    H143637   6.837   1.037   5.792
14564TIP3    H243638   6.895   1.040   5.652
14565TIP3   OH243639   3.549   5.868   6.262
14565TIP3    H143640   3.588   5.859   6.349
14565TIP3    H243641   3.468   5.917   6.277
14566TIP3   OH243642   7.111   1.500   2.941
14566TIP3    H143643   7.096   1.422   2.887
14566TIP3    H243644   7.024   1.523   2.974
14567TIP3   OH243645   2.735   7.167   1.996
14567TIP3    H143646   2.738   7.158   1.901
14567TIP3    H243647   2.770   7.255   2.013
14568TIP3   OH243648   5.713   0.348   4.603
14568TIP3    H143649   5.709   0.253   4.592
14568TIP3    H243650   5.708   0.361   4.698
14569TIP3   OH243651   1.531   4.042   4.073
14569TIP3    H143652   1.471   4.071   4.004
14569TIP3    H243653   1.475   4.027   4.149
14570TIP3   OH243654   7.692   5.606   0.621
14570TIP3    H143655   7.676   5.651   0.539
14570TIP3    H243656   7.654   5.519   0.609
14571TIP3   OH243657   2.881   6.865   5.121
14571TIP3    H143658   2.861   6.780   5.083
14571TIP3    H243659   2.827   6.927   5.072
14572TIP3   OH243660   1.626   3.121   2.512
14572TIP3    H143661   1.588   3.041   2.548
14572TIP3    H243662   1.608   3.116   2.418
14573TIP3   OH243663   2.406   0.422   0.403
14573TIP3    H143664   2.449   0.422   0.317
14573TIP3    H243665   2.362   0.507   0.408
14574TIP3   OH243666   0.944   4.818   3.727
14574TIP3    H143667   0.920   4.726   3.712
14574TIP3    H243668   1.029   4.814   3.770
14575TIP3   OH243669   6.708   0.543   3.518
14575TIP3    H143670   6.716   0.508   3.606
14575TIP3    H243671   6.715   0.467   3.460
14576TIP3   OH243672   5.875   2.406   2.871
14576TIP3    H143673   5.951   2.464   2.859
14576TIP3    H243674   5.828   2.443   2.946
14577TIP3   OH243675   6.539   0.631   4.332
14577TIP3    H143676   6.630   0.643   4.306
14577TIP3    H243677   6.542   0.570   4.406
14578TIP3   OH243678   1.212   3.030   2.115
14578TIP3    H143679   1.160   2.971   2.170
14578TIP3    H243680   1.210   3.114   2.161
14579TIP3   OH243681   4.649   0.857   2.197
14579TIP3    H143682   4.735   0.829   2.226
14579TIP3    H243683   4.589   0.827   2.267
14580TIP3   OH243684   4.415   4.739   6.732
14580TIP3    H143685   4.457   4.660   6.767
14580TIP3    H243686   4.451   4.747   6.643
14581TIP3   OH243687   1.046   2.040   5.109
14581TIP3    H143688   1.044   1.994   5.025
14581TIP3    H243689   0.967   2.012   5.154
14582TIP3   OH243690   3.043   6.528  -0.012
14582TIP3    H143691   3.092   6.596   0.034
14582TIP3    H243692   3.016   6.467   0.056
14583TIP3   OH243693   7.216   0.336   5.500
14583TIP3    H143694   7.221   0.266   5.435
14583TIP3    H243695   7.295   0.388   5.487
14584TIP3   OH243696   7.504   6.585   5.870
14584TIP3    H143697   7.568   6.620   5.808
14584TIP3    H243698   7.462   6.513   5.822
14585TIP3   OH243699   6.992   1.784   4.746
14585TIP3    H143700   6.960   1.874   4.740
14585TIP3    H243701   7.019   1.775   4.837
14586TIP3   OH243702   1.239   1.169   0.133
14586TIP3    H143703   1.311   1.107   0.139
14586TIP3    H243704   1.234   1.192   0.040
14587TIP3   OH243705   8.080   5.405   6.611
14587TIP3    H143706   8.112   5.332   6.664
14587TIP3    H243707   8.160   5.450   6.582
14588TIP3   OH243708   2.321   3.299   6.757
14588TIP3    H143709   2.389   3.289   6.824
14588TIP3    H243710   2.240   3.314   6.806
14589TIP3   OH243711   2.618   1.804   2.728
14589TIP3    H143712   2.552   1.785   2.795
14589TIP3    H243713   2.696   1.757   2.757
14590TIP3   OH243714   6.557   4.635   1.181
14590TIP3    H143715   6.600   4.613   1.264
14590TIP3    H243716   6.471   4.594   1.187
14591TIP3   OH243717   3.901   0.742   2.304
14591TIP3    H143718   3.848   0.748   2.225
14591TIP3    H243719   3.924   0.832   2.325
14592TIP3   OH243720   4.203   5.558   1.922
14592TIP3    H143721   4.275   5.618   1.901
14592TIP3    H243722   4.242   5.471   1.917
14593TIP3   OH243723   0.783   2.495   5.495
14593TIP3    H143724   0.816   2.460   5.577
14593TIP3    H243725   0.851   2.473   5.431
14594TIP3   OH243726   7.753   2.908   6.197
14594TIP3    H143727   7.708   2.889   6.279
14594TIP3    H243728   7.683   2.925   6.134
14595TIP3   OH243729   8.185   0.299   2.181
14595TIP3    H143730   8.263   0.267   2.226
14595TIP3    H243731   8.205   0.289   2.088
14596TIP3   OH243732   7.108   4.477   6.023
14596TIP3    H143733   7.170   4.547   6.003
14596TIP3    H243734   7.160   4.396   6.013
14597TIP3   OH243735   0.700   2.988   2.413
14597TIP3    H143736   0.672   2.905   2.452
14597TIP3    H243737   0.624   3.018   2.363
14598TIP3   OH243738   3.918   7.075   5.906
14598TIP3    H143739   3.946   7.044   5.992
14598TIP3    H243740   3.912   6.995   5.853
14599TIP3   OH243741   5.497   3.850   6.580
14599TIP3    H143742   5.555   3.827   6.652
14599TIP3    H243743   5.535   3.931   6.544
14600TIP3   OH243744   0.661   4.789   5.837
14600TIP3    H143745   0.674   4.751   5.923
14600TIP3    H243746   0.741   4.768   5.788
14601TIP3   OH243747   0.618   2.091   5.204
14601TIP3    H143748   0.702   2.118   5.242
14601TIP3    H243749   0.583   2.171   5.165
14602TIP3   OH243750   2.651   7.473   5.280
14602TIP3    H143751   2.562   7.437   5.288
14602TIP3    H243752   2.703   7.420   5.342
14603TIP3   OH243753   3.354   1.728   6.389
14603TIP3    H143754   3.353   1.756   6.481
14603TIP3    H243755   3.283   1.665   6.382
14604TIP3   OH243756   7.467   0.814   5.824
14604TIP3    H143757   7.529   0.813   5.751
14604TIP3    H243758   7.389   0.857   5.788
14605TIP3   OH243759   6.637   1.238   4.127
14605TIP3    H143760   6.671   1.221   4.039
14605TIP3    H243761   6.680   1.319   4.154
14606TIP3   OH243762   0.744   5.372   6.146
14606TIP3    H143763   0.760   5.279   6.156
14606TIP3    H243764   0.814   5.414   6.195
14607TIP3   OH243765   5.396   7.604   3.834
14607TIP3    H143766   5.431   7.561   3.912
14607TIP3    H243767   5.328   7.662   3.867
14608TIP3   OH243768   0.089   4.096   4.337
14608TIP3    H143769   0.092   4.066   4.246
14608TIP3    H243770  -0.002   4.085   4.363
14609TIP3   OH243771   7.955   5.330   4.618
14609TIP3    H143772   7.939   5.270   4.546
14609TIP3    H243773   7.898   5.405   4.601
14610TIP3   OH243774   0.996   4.126   1.424
14610TIP3    H143775   1.043   4.055   1.467
14610TIP3    H243776   0.951   4.171   1.496
14611TIP3   OH243777   5.841   6.377   1.650
14611TIP3    H143778   5.821   6.394   1.558
14611TIP3    H243779   5.881   6.459   1.681
14612TIP3   OH243780   3.584   0.226   6.097
14612TIP3    H143781   3.555   0.136   6.081
14612TIP3    H243782   3.515   0.280   6.059
14613TIP3   OH243783   6.277   7.632   4.400
14613TIP3    H143784   6.245   7.705   4.346
14613TIP3    H243785   6.356   7.666   4.442
14614TIP3   OH243786   5.570   2.291   2.933
14614TIP3    H143787   5.610   2.321   2.851
14614TIP3    H243788   5.641   2.298   2.997
14615TIP3   OH243789   2.390   5.800   5.545
14615TIP3    H143790   2.388   5.877   5.601
14615TIP3    H243791   2.461   5.816   5.483
14616TIP3   OH243792   4.631   3.231   4.336
14616TIP3    H143793   4.565   3.189   4.282
14616TIP3    H243794   4.599   3.220   4.426
14617TIP3   OH243795   5.307   3.201   1.745
14617TIP3    H143796   5.262   3.264   1.801
14617TIP3    H243797   5.296   3.236   1.657
14618TIP3   OH243798   0.137   6.776   2.090
14618TIP3    H143799   0.197   6.799   2.161
14618TIP3    H243800   0.184   6.710   2.039
14619TIP3   OH243801   1.421   0.079   3.969
14619TIP3    H143802   1.493   0.023   3.997
14619TIP3    H243803   1.410   0.059   3.876
14620TIP3   OH243804   8.077   2.643   6.194
14620TIP3    H143805   8.005   2.623   6.134
14620TIP3    H243806   8.036   2.693   6.265
14621TIP3   OH243807   0.067   5.612   5.011
14621TIP3    H143808   0.110   5.695   4.987
14621TIP3    H243809   0.138   5.548   5.011
14622TIP3   OH243810   0.312   6.547   4.625
14622TIP3    H143811   0.349   6.617   4.572
14622TIP3    H243812   0.241   6.511   4.571
14623TIP3   OH243813   2.134   3.208   6.588
14623TIP3    H143814   2.172   3.147   6.525
14623TIP3    H243815   2.202   3.218   6.655
14624TIP3   OH243816   1.453   5.057   2.037
14624TIP3    H143817   1.510   5.111   1.981
14624TIP3    H243818   1.461   4.969   2.001
14625TIP3   OH243819   3.081   5.155   0.564
14625TIP3    H143820   3.021   5.081   0.564
14625TIP3    H243821   3.095   5.174   0.657
14626TIP3   OH243822   1.356   0.793   3.063
14626TIP3    H143823   1.440   0.830   3.091
14626TIP3    H243824   1.367   0.777   2.969
14627TIP3   OH243825   0.349   6.820   1.117
14627TIP3    H143826   0.409   6.880   1.161
14627TIP3    H243827   0.379   6.818   1.026
14628TIP3   OH243828   5.784   6.341   3.190
14628TIP3    H143829   5.876   6.348   3.217
14628TIP3    H243830   5.735   6.334   3.273
14629TIP3   OH243831   6.244   2.074   1.154
14629TIP3    H143832   6.165   2.019   1.155
14629TIP3    H243833   6.258   2.094   1.061
14630TIP3   OH243834   3.987   6.455   5.278
14630TIP3    H143835   3.928   6.387   5.246
14630TIP3    H243836   3.930   6.516   5.323
14631TIP3   OH243837   2.017   6.875   1.154
14631TIP3    H143838   2.109   6.888   1.131
14631TIP3    H243839   2.019   6.816   1.229
14632TIP3   OH243840   6.416   1.116   1.662
14632TIP3    H143841   6.433   1.177   1.590
14632TIP3    H243842   6.447   1.162   1.740
14633TIP3   OH243843   5.140   1.043   2.799
14633TIP3    H143844   5.057   1.029   2.844
14633TIP3    H243845   5.145   0.973   2.734
14634TIP3   OH243846   4.955   0.276   6.353
14634TIP3    H143847   4.863   0.295   6.373
14634TIP3    H243848   5.002   0.301   6.433
14635TIP3   OH243849   0.656   0.623   6.465
14635TIP3    H143850   0.608   0.635   6.383
14635TIP3    H243851   0.728   0.687   6.460
14636TIP3   OH243852   4.251   4.970   1.831
14636TIP3    H143853   4.258   5.039   1.898
14636TIP3    H243854   4.173   4.993   1.780
14637TIP3   OH243855   1.167   2.464   4.917
14637TIP3    H143856   1.106   2.538   4.910
14637TIP3    H243857   1.217   2.482   4.997
14638TIP3   OH243858   5.021   0.911   6.540
14638TIP3    H143859   5.065   0.892   6.458
14638TIP3    H243860   5.062   0.853   6.604
14639TIP3   OH243861   7.910   0.073   5.878
14639TIP3    H143862   7.833   0.069   5.935
14639TIP3    H243863   7.897   0.003   5.814
14640TIP3   OH243864   7.571   5.520   3.225
14640TIP3    H143865   7.501   5.537   3.162
14640TIP3    H243866   7.609   5.605   3.243
14641TIP3   OH243867   5.320   1.949   6.184
14641TIP3    H143868   5.379   1.874   6.176
14641TIP3    H243869   5.351   2.011   6.117
14642TIP3   OH243870   2.252   5.841   5.116
14642TIP3    H143871   2.208   5.756   5.122
14642TIP3    H243872   2.316   5.829   5.045
14643TIP3   OH243873   7.571   0.416   2.351
14643TIP3    H143874   7.503   0.350   2.365
14643TIP3    H243875   7.529   0.499   2.377
14644TIP3   OH243876   7.391   4.427   5.803
14644TIP3    H143877   7.304   4.388   5.793
14644TIP3    H243878   7.451   4.352   5.802
14645TIP3   OH243879   4.197   6.761   3.971
14645TIP3    H143880   4.108   6.749   4.003
14645TIP3    H243881   4.187   6.816   3.893
14646TIP3   OH243882   1.346   1.163   4.807
14646TIP3    H143883   1.350   1.170   4.902
14646TIP3    H243884   1.252   1.156   4.788
14647TIP3   OH243885   2.882   5.286   1.051
14647TIP3    H143886   2.848   5.248   1.132
14647TIP3    H243887   2.809   5.279   0.989
14648TIP3   OH243888   1.312   2.960   1.835
14648TIP3    H143889   1.231   2.965   1.784
14648TIP3    H243890   1.286   2.992   1.922
14649TIP3   OH243891   7.194   0.108   4.624
14649TIP3    H143892   7.262   0.174   4.608
14649TIP3    H243893   7.219   0.066   4.706
14650TIP3   OH243894   3.904   5.412   5.433
14650TIP3    H143895   3.989   5.368   5.441
14650TIP3    H243896   3.916   5.476   5.362
14651TIP3   OH243897   6.552   5.581   6.410
14651TIP3    H143898   6.562   5.554   6.318
14651TIP3    H243899   6.641   5.581   6.445
14652TIP3   OH243900   1.609   3.790   3.387
14652TIP3    H143901   1.576   3.789   3.477
14652TIP3    H243902   1.704   3.781   3.395
14653TIP3   OH243903   3.632   7.097   0.565
14653TIP3    H143904   3.645   7.050   0.483
14653TIP3    H243905   3.547   7.140   0.555
14654TIP3   OH243906   5.370   6.355   3.054
14654TIP3    H143907   5.391   6.265   3.078
14654TIP3    H243908   5.356   6.400   3.137
14655TIP3   OH243909   2.449   3.153   3.519
14655TIP3    H143910   2.467   3.155   3.613
14655TIP3    H243911   2.534   3.171   3.478
14656TIP3   OH243912   6.481   2.930   2.528
14656TIP3    H143913   6.402   2.931   2.581
14656TIP3    H243914   6.515   3.020   2.534
14657TIP3   OH243915   2.678   4.471   4.277
14657TIP3    H143916   2.606   4.500   4.332
14657TIP3    H243917   2.756   4.511   4.315
14658TIP3   OH243918   5.269   3.688   5.045
14658TIP3    H143919   5.278   3.780   5.023
14658TIP3    H243920   5.180   3.665   5.019
14659TIP3   OH243921   1.835   1.251   1.963
14659TIP3    H143922   1.899   1.318   1.986
14659TIP3    H243923   1.766   1.259   2.029
14660TIP3   OH243924   0.161   3.582   6.543
14660TIP3    H143925   0.192   3.673   6.545
14660TIP3    H243926   0.071   3.588   6.513
14661TIP3   OH243927   8.184   5.858   0.441
14661TIP3    H143928   8.132   5.920   0.390
14661TIP3    H243929   8.212   5.792   0.377
14662TIP3   OH243930   6.521   2.446   1.256
14662TIP3    H143931   6.426   2.453   1.246
14662TIP3    H243932   6.542   2.500   1.332
14663TIP3   OH243933   7.088   0.183   6.632
14663TIP3    H143934   7.100   0.191   6.726
14663TIP3    H243935   7.099   0.272   6.598
14664TIP3   OH243936   6.396   5.195   1.274
14664TIP3    H143937   6.361   5.109   1.295
14664TIP3    H243938   6.424   5.231   1.358
14665TIP3   OH243939   2.494   7.161   3.591
14665TIP3    H143940   2.507   7.091   3.655
14665TIP3    H243941   2.437   7.122   3.524
14666TIP3   OH243942   2.366   6.692   1.376
14666TIP3    H143943   2.426   6.715   1.305
14666TIP3    H243944   2.301   6.762   1.377
14667TIP3   OH243945   0.798   0.163   4.731
14667TIP3    H143946   0.757   0.182   4.816
14667TIP3    H243947   0.866   0.100   4.751
14668TIP3   OH243948   3.789   0.592   5.793
14668TIP3    H143949   3.837   0.623   5.716
14668TIP3    H243950   3.704   0.563   5.758
14669TIP3   OH243951   7.433   7.509   1.529
14669TIP3    H143952   7.493   7.482   1.459
14669TIP3    H243953   7.351   7.465   1.508
14670TIP3   OH243954   1.947   3.586   1.434
14670TIP3    H143955   2.035   3.553   1.454
14670TIP3    H243956   1.891   3.510   1.438
14671TIP3   OH243957   2.505   0.251   4.626
14671TIP3    H143958   2.566   0.206   4.685
14671TIP3    H243959   2.431   0.275   4.682
14672TIP3   OH243960   8.252   0.300   4.520
14672TIP3    H143961   8.279   0.223   4.570
14672TIP3    H243962   8.204   0.354   4.582
14673TIP3   OH243963   2.423   1.684   6.225
14673TIP3    H143964   2.467   1.710   6.306
14673TIP3    H243965   2.462   1.600   6.202
14674TIP3   OH243966   4.464   7.266   3.241
14674TIP3    H143967   4.483   7.177   3.213
14674TIP3    H243968   4.453   7.316   3.160
14675TIP3   OH243969   7.432   3.444   2.570
14675TIP3    H143970   7.403   3.470   2.657
14675TIP3    H243971   7.365   3.382   2.540
14676TIP3   OH243972   1.011   6.820   1.983
14676TIP3    H143973   0.960   6.837   2.062
14676TIP3    H243974   0.960   6.755   1.935
14677TIP3   OH243975   6.528   6.026   0.357
14677TIP3    H143976   6.448   6.000   0.312
14677TIP3    H243977   6.588   6.053   0.287
14678TIP3   OH243978   8.070   7.434   4.252
14678TIP3    H143979   8.151   7.441   4.301
14678TIP3    H243980   8.071   7.346   4.215
14679TIP3   OH243981   2.381   2.696   5.431
14679TIP3    H143982   2.287   2.694   5.446
14679TIP3    H243983   2.390   2.706   5.336
14680TIP3   OH243984   0.946   3.629   2.708
14680TIP3    H143985   0.971   3.557   2.650
14680TIP3    H243986   0.949   3.707   2.652
14681TIP3   OH243987   4.928   2.472   0.870
14681TIP3    H143988   4.844   2.436   0.841
14681TIP3    H243989   4.958   2.412   0.939
14682TIP3   OH243990   7.887   7.441   1.859
14682TIP3    H143991   7.937   7.522   1.872
14682TIP3    H243992   7.805   7.469   1.819
14683TIP3   OH243993   6.612   0.352   5.779
14683TIP3    H143994   6.549   0.315   5.840
14683TIP3    H243995   6.561   0.373   5.700
14684TIP3   OH243996   6.292   4.871   4.899
14684TIP3    H143997   6.210   4.850   4.854
14684TIP3    H243998   6.299   4.966   4.894
14685TIP3   OH243999   7.079   5.754   6.622
14685TIP3    H144000   7.062   5.660   6.613
14685TIP3    H244001   7.072   5.788   6.533
14686TIP3   OH244002   2.951   5.755   3.788
14686TIP3    H144003   3.042   5.785   3.794
14686TIP3    H244004   2.898   5.833   3.805
14687TIP3   OH244005   6.585   0.951   6.526
14687TIP3    H144006   6.509   0.931   6.470
14687TIP3    H244007   6.547   0.992   6.604
14688TIP3   OH244008   1.405   4.249   0.050
14688TIP3    H144009   1.374   4.289  -0.031
14688TIP3    H244010   1.404   4.320   0.114
14689TIP3   OH244011   0.308   0.770   3.477
14689TIP3    H144012   0.276   0.858   3.500
14689TIP3    H244013   0.230   0.715   3.478
14690TIP3   OH244014   8.199   7.003   3.931
14690TIP3    H144015   8.209   6.944   4.006
14690TIP3    H244016   8.151   6.951   3.866
14691TIP3   OH244017   3.876   2.489   3.010
14691TIP3    H144018   3.817   2.561   2.988
14691TIP3    H244019   3.888   2.497   3.104
14692TIP3   OH244020   3.796   5.542   1.960
14692TIP3    H144021   3.798   5.623   1.911
14692TIP3    H244022   3.838   5.563   2.044
14693TIP3   OH244023   1.643   7.694   6.467
14693TIP3    H144024   1.652   7.790   6.464
14693TIP3    H244025   1.715   7.665   6.524
14694TIP3   OH244026   6.719   5.500   5.982
14694TIP3    H144027   6.705   5.583   5.936
14694TIP3    H244028   6.713   5.433   5.914
14695TIP3   OH244029   3.058   1.705   0.430
14695TIP3    H144030   3.048   1.612   0.408
14695TIP3    H244031   3.146   1.710   0.469
14696TIP3   OH244032   4.031   0.732   4.506
14696TIP3    H144033   4.066   0.752   4.592
14696TIP3    H244034   4.001   0.641   4.513
14697TIP3   OH244035   7.392   7.067   2.924
14697TIP3    H144036   7.361   7.084   3.013
14697TIP3    H244037   7.408   6.973   2.921
14698TIP3   OH244038   0.060   1.351   1.115
14698TIP3    H144039   0.142   1.366   1.068
14698TIP3    H244040   0.024   1.272   1.075
14699TIP3   OH244041   2.828   6.788   5.593
14699TIP3    H144042   2.873   6.776   5.677
14699TIP3    H244043   2.898   6.788   5.528
14700TIP3   OH244044   7.345   4.618   4.935
14700TIP3    H144045   7.265   4.613   4.883
14700TIP3    H244046   7.399   4.545   4.904
14701TIP3   OH244047   5.120   2.122   6.306
14701TIP3    H144048   5.183   2.071   6.256
14701TIP3    H244049   5.062   2.160   6.239
14702TIP3   OH244050   0.124   0.168   1.998
14702TIP3    H144051   0.211   0.133   2.019
14702TIP3    H244052   0.136   0.263   1.999
14703TIP3   OH244053   5.383   5.943   0.402
14703TIP3    H144054   5.372   5.904   0.315
14703TIP3    H244055   5.478   5.949   0.413
14704TIP3   OH244056   3.901   7.792   0.818
14704TIP3    H144057   3.994   7.801   0.839
14704TIP3    H244058   3.875   7.878   0.785
14705TIP3   OH244059   1.903   6.264   4.821
14705TIP3    H144060   1.847   6.263   4.898
14705TIP3    H244061   1.976   6.207   4.843
14706TIP3   OH244062   2.122   7.096   6.485
14706TIP3    H144063   2.205   7.049   6.491
14706TIP3    H244064   2.143   7.175   6.434
14707TIP3   OH244065   4.952   1.236   0.689
14707TIP3    H144066   4.983   1.147   0.707
14707TIP3    H244067   4.911   1.264   0.771
14708TIP3   OH244068   0.353   2.452   5.919
14708TIP3    H144069   0.309   2.481   5.999
14708TIP3    H244070   0.341   2.524   5.857
14709TIP3   OH244071   2.069   2.381   3.885
14709TIP3    H144072   2.102   2.455   3.835
14709TIP3    H244073   1.973   2.389   3.879
14710TIP3   OH244074   5.756   0.505   1.003
14710TIP3    H144075   5.828   0.507   1.065
14710TIP3    H244076   5.732   0.413   0.996
14711TIP3   OH244077   6.271   7.723   2.368
14711TIP3    H144078   6.240   7.634   2.353
14711TIP3    H244079   6.361   7.713   2.398
14712TIP3   OH244080   7.599   1.237   1.045
14712TIP3    H144081   7.549   1.271   1.119
14712TIP3    H244082   7.533   1.224   0.976
14713TIP3   OH244083   0.413   1.723   2.165
14713TIP3    H144084   0.447   1.651   2.219
14713TIP3    H244085   0.428   1.695   2.075
14714TIP3   OH244086   8.048   5.849   2.847
14714TIP3    H144087   8.059   5.762   2.885
14714TIP3    H244088   8.127   5.896   2.872
14715TIP3   OH244089   1.866   6.426   2.705
14715TIP3    H144090   1.917   6.346   2.697
14715TIP3    H244091   1.931   6.496   2.701
14716TIP3   OH244092   6.434   5.788   4.769
14716TIP3    H144093   6.433   5.882   4.751
14716TIP3    H244094   6.453   5.747   4.685
14717TIP3   OH244095   4.930   6.065   3.230
14717TIP3    H144096   4.950   5.984   3.183
14717TIP3    H244097   4.835   6.070   3.230
14718TIP3   OH244098   4.634   3.270   2.118
14718TIP3    H144099   4.639   3.176   2.101
14718TIP3    H244100   4.548   3.284   2.156
14719TIP3   OH244101   4.542   7.781   3.222
14719TIP3    H144102   4.613   7.723   3.194
14719TIP3    H244103   4.467   7.723   3.232
14720TIP3   OH244104   2.281   7.633   6.213
14720TIP3    H144105   2.350   7.632   6.147
14720TIP3    H244106   2.251   7.723   6.215
14721TIP3   OH244107   6.216   4.133   2.164
14721TIP3    H144108   6.278   4.169   2.227
14721TIP3    H244109   6.197   4.205   2.104
14722TIP3   OH244110   8.228   1.443   3.362
14722TIP3    H144111   8.307   1.474   3.318
14722TIP3    H244112   8.249   1.352   3.387
14723TIP3   OH244113   8.063   2.304   0.225
14723TIP3    H144114   8.120   2.230   0.203
14723TIP3    H244115   8.122   2.369   0.262
14724TIP3   OH244116   7.872   3.002   4.743
14724TIP3    H144117   7.909   2.960   4.821
14724TIP3    H244118   7.782   2.969   4.739
14725TIP3   OH244119   4.813   2.322   1.116
14725TIP3    H144120   4.848   2.353   1.199
14725TIP3    H244121   4.835   2.229   1.114
14726TIP3   OH244122   2.599   7.627   4.234
14726TIP3    H144123   2.630   7.637   4.324
14726TIP3    H244124   2.594   7.716   4.200
14727TIP3   OH244125   0.078   4.544   2.202
14727TIP3    H144126   0.148   4.598   2.236
14727TIP3    H244127   0.118   4.458   2.189
14728TIP3   OH244128   2.231   1.088   3.298
14728TIP3    H144129   2.233   1.054   3.387
14728TIP3    H244130   2.308   1.144   3.292
14729TIP3   OH244131   2.591   6.227   1.085
14729TIP3    H144132   2.601   6.232   0.990
14729TIP3    H244133   2.681   6.216   1.118
14730TIP3   OH244134   4.593   2.294   1.401
14730TIP3    H144135   4.574   2.240   1.325
14730TIP3    H244136   4.576   2.384   1.372
14731TIP3   OH244137   6.187   4.448   3.688
14731TIP3    H144138   6.199   4.357   3.716
14731TIP3    H244139   6.198   4.499   3.768
14732TIP3   OH244140   7.308   0.740   6.039
14732TIP3    H144141   7.371   0.776   5.976
14732TIP3    H244142   7.302   0.806   6.107
14733TIP3   OH244143   2.834   6.423   4.685
14733TIP3    H144144   2.771   6.365   4.729
14733TIP3    H244145   2.916   6.408   4.730
14734TIP3   OH244146   4.207   4.526   6.512
14734TIP3    H144147   4.200   4.546   6.606
14734TIP3    H244148   4.117   4.513   6.484
14735TIP3   OH244149   2.859   5.692   1.788
14735TIP3    H144150   2.886   5.661   1.874
14735TIP3    H244151   2.933   5.672   1.731
14736TIP3   OH244152   1.577   1.039   0.615
14736TIP3    H144153   1.487   1.009   0.601
14736TIP3    H244154   1.610   1.056   0.527
14737TIP3   OH244155   0.866   5.887   2.404
14737TIP3    H144156   0.783   5.889   2.452
14737TIP3    H244157   0.891   5.979   2.396
14738TIP3   OH244158   4.067   1.283   1.510
14738TIP3    H144159   4.002   1.294   1.440
14738TIP3    H244160   4.146   1.326   1.477
14739TIP3   OH244161   5.903   0.839   0.676
14739TIP3    H144162   5.848   0.911   0.706
14739TIP3    H244163   5.861   0.760   0.712
14740TIP3   OH244164   8.240   5.041   2.352
14740TIP3    H144165   8.197   5.073   2.431
14740TIP3    H244166   8.333   5.043   2.373
14741TIP3   OH244167   5.777   6.020   6.652
14741TIP3    H144168   5.868   6.015   6.680
14741TIP3    H244169   5.726   6.019   6.733
14742TIP3   OH244170   0.291   2.528   5.510
14742TIP3    H144171   0.204   2.515   5.549
14742TIP3    H244172   0.288   2.480   5.428
14743TIP3   OH244173   6.194   5.516   3.869
14743TIP3    H144174   6.242   5.498   3.950
14743TIP3    H244175   6.157   5.603   3.883
14744TIP3   OH244176   2.696   6.134   5.487
14744TIP3    H144177   2.637   6.142   5.412
14744TIP3    H244178   2.647   6.085   5.552
14745TIP3   OH244179   2.670   3.702   1.210
14745TIP3    H144180   2.730   3.757   1.260
14745TIP3    H244181   2.717   3.620   1.197
14746TIP3   OH244182   7.864   2.824   5.186
14746TIP3    H144183   7.776   2.806   5.152
14746TIP3    H244184   7.859   2.915   5.217
14747TIP3   OH244185   0.794   3.061   0.622
14747TIP3    H144186   0.791   3.152   0.595
14747TIP3    H244187   0.713   3.048   0.671
14748TIP3   OH244188   5.385   0.026   2.795
14748TIP3    H144189   5.300   0.020   2.839
14748TIP3    H244190   5.363   0.047   2.704
14749TIP3   OH244191   2.190   4.573   3.862
14749TIP3    H144192   2.202   4.487   3.822
14749TIP3    H244193   2.133   4.620   3.801
14750TIP3   OH244194   7.758   2.018   5.630
14750TIP3    H144195   7.777   2.047   5.541
14750TIP3    H244196   7.835   2.044   5.681
14751TIP3   OH244197   3.846   6.252   5.130
14751TIP3    H144198   3.808   6.325   5.082
14751TIP3    H244199   3.920   6.224   5.076
14752TIP3   OH244200   7.723   6.037   4.006
14752TIP3    H144201   7.686   5.977   3.942
14752TIP3    H244202   7.653   6.050   4.071
14753TIP3   OH244203   0.250   3.006   5.140
14753TIP3    H144204   0.160   3.019   5.171
14753TIP3    H244205   0.304   3.052   5.204
14754TIP3   OH244206   8.024   6.016   0.293
14754TIP3    H144207   8.084   6.028   0.219
14754TIP3    H244208   7.938   6.005   0.253
14755TIP3   OH244209   1.604   6.295  -0.038
14755TIP3    H144210   1.552   6.281   0.041
14755TIP3    H244211   1.540   6.322  -0.104
14756TIP3   OH244212   3.369   3.310   6.004
14756TIP3    H144213   3.320   3.302   5.923
14756TIP3    H244214   3.342   3.233   6.056
14757TIP3   OH244215   1.932   7.337   0.230
14757TIP3    H144216   1.999   7.324   0.297
14757TIP3    H244217   1.853   7.359   0.280
14758TIP3   OH244218   3.222   3.375   0.091
14758TIP3    H144219   3.184   3.446   0.040
14758TIP3    H244220   3.290   3.339   0.035
14759TIP3   OH244221   4.481   3.577   4.954
14759TIP3    H144222   4.479   3.543   5.044
14759TIP3    H244223   4.389   3.588   4.930
14760TIP3   OH244224   2.286   0.439   6.557
14760TIP3    H144225   2.340   0.473   6.486
14760TIP3    H244226   2.278   0.513   6.618
14761TIP3   OH244227   1.031   1.265   3.366
14761TIP3    H144228   1.076   1.197   3.316
14761TIP3    H244229   0.953   1.222   3.401
14762TIP3   OH244230   0.168   7.449   3.806
14762TIP3    H144231   0.216   7.472   3.726
14762TIP3    H244232   0.145   7.357   3.795
14763TIP3   OH244233   6.036   5.119   1.531
14763TIP3    H144234   6.077   5.204   1.518
14763TIP3    H244235   6.104   5.056   1.509
14764TIP3   OH244236   3.409   5.296   4.929
14764TIP3    H144237   3.384   5.311   5.021
14764TIP3    H244238   3.400   5.383   4.888
14765TIP3   OH244239   6.089   0.428   6.340
14765TIP3    H144240   6.089   0.482   6.261
14765TIP3    H244241   6.173   0.447   6.381
14766TIP3   OH244242   0.096   4.507   4.052
14766TIP3    H144243   0.062   4.452   4.122
14766TIP3    H244244   0.049   4.590   4.063
14767TIP3   OH244245   5.077   6.940   2.090
14767TIP3    H144246   5.153   6.997   2.095
14767TIP3    H244247   5.032   6.965   2.009
14768TIP3   OH244248   3.486   0.648   0.854
14768TIP3    H144249   3.457   0.653   0.945
14768TIP3    H244250   3.551   0.718   0.845
14769TIP3   OH244251   3.133   2.824   4.752
14769TIP3    H144252   3.135   2.851   4.844
14769TIP3    H244253   3.104   2.902   4.705
14770TIP3   OH244254   1.969   4.907   2.369
14770TIP3    H144255   2.064   4.911   2.371
14770TIP3    H244256   1.944   4.880   2.457
14771TIP3   OH244257   4.902   0.312   3.769
14771TIP3    H144258   4.876   0.370   3.840
14771TIP3    H244259   4.922   0.370   3.696
14772TIP3   OH244260   1.226   1.280   0.986
14772TIP3    H144261   1.269   1.198   1.010
14772TIP3    H244262   1.146   1.282   1.040
14773TIP3   OH244263   1.466   6.862   6.604
14773TIP3    H144264   1.558   6.870   6.578
14773TIP3    H244265   1.436   6.953   6.613
14774TIP3   OH244266   5.619   7.497   0.890
14774TIP3    H144267   5.588   7.568   0.946
14774TIP3    H244268   5.569   7.506   0.809
14775TIP3   OH244269   2.269   4.663   1.813
14775TIP3    H144270   2.210   4.674   1.738
14775TIP3    H244271   2.298   4.572   1.808
14776TIP3   OH244272   4.801   7.544   6.081
14776TIP3    H144273   4.844   7.460   6.097
14776TIP3    H244274   4.708   7.526   6.092
14777TIP3   OH244275   5.240   6.961   4.828
14777TIP3    H144276   5.319   6.911   4.811
14777TIP3    H244277   5.177   6.897   4.862
14778TIP3   OH244278   5.775   0.693   5.799
14778TIP3    H144279   5.697   0.641   5.812
14778TIP3    H244280   5.838   0.633   5.759
14779TIP3   OH244281   0.044   2.405   5.599
14779TIP3    H144282   0.020   2.320   5.562
14779TIP3    H244283  -0.039   2.449   5.615
14780TIP3   OH244284   8.050   7.204   1.037
14780TIP3    H144285   8.011   7.288   1.057
14780TIP3    H244286   8.012   7.143   1.100
14781TIP3   OH244287   2.493   1.416   6.491
14781TIP3    H144288   2.408   1.459   6.502
14781TIP3    H244289   2.537   1.467   6.423
14782TIP3   OH244290   4.175   0.383   2.856
14782TIP3    H144291   4.214   0.296   2.864
14782TIP3    H244292   4.130   0.397   2.939
14783TIP3   OH244293   3.698   2.257   1.068
14783TIP3    H144294   3.685   2.342   1.026
14783TIP3    H244295   3.731   2.200   0.999
14784TIP3   OH244296   6.352   0.409   5.025
14784TIP3    H144297   6.424   0.346   5.019
14784TIP3    H244298   6.276   0.356   5.050
14785TIP3   OH244299   2.340   0.079   0.763
14785TIP3    H144300   2.361   0.142   0.832
14785TIP3    H244301   2.400   0.100   0.692
14786TIP3   OH244302   1.898   4.940   3.736
14786TIP3    H144303   1.954   4.928   3.813
14786TIP3    H244304   1.923   5.026   3.701
14787TIP3   OH244305   1.151   7.689   2.623
14787TIP3    H144306   1.072   7.743   2.614
14787TIP3    H244307   1.217   7.750   2.658
14788TIP3   OH244308   7.780   7.743   1.733
14788TIP3    H144309   7.808   7.807   1.667
14788TIP3    H244310   7.859   7.723   1.782
14789TIP3   OH244311   3.754   7.653   2.089
14789TIP3    H144312   3.800   7.667   2.007
14789TIP3    H244313   3.762   7.559   2.106
14790TIP3   OH244314   0.239   1.190   2.572
14790TIP3    H144315   0.201   1.103   2.558
14790TIP3    H244316   0.333   1.175   2.578
14791TIP3   OH244317   7.743   2.995   5.670
14791TIP3    H144318   7.693   3.041   5.602
14791TIP3    H244319   7.832   2.988   5.633
14792TIP3   OH244320   3.611   0.734   6.328
14792TIP3    H144321   3.663   0.697   6.257
14792TIP3    H244322   3.656   0.816   6.351
14793TIP3   OH244323   5.948   3.803   2.811
14793TIP3    H144324   5.903   3.719   2.822
14793TIP3    H244325   5.909   3.860   2.877
14794TIP3   OH244326   8.078   1.200   6.627
14794TIP3    H144327   8.119   1.115   6.635
14794TIP3    H244328   7.985   1.181   6.616
14795TIP3   OH244329   2.097   5.460   1.364
14795TIP3    H144330   2.174   5.462   1.308
14795TIP3    H244331   2.127   5.420   1.446
14796TIP3   OH244332   1.009   5.720   5.696
14796TIP3    H144333   1.053   5.733   5.780
14796TIP3    H244334   0.990   5.809   5.665
14797TIP3   OH244335   7.765   6.950   6.691
14797TIP3    H144336   7.838   6.888   6.691
14797TIP3    H244337   7.688   6.897   6.671
14798TIP3   OH244338   7.516   5.308   4.858
14798TIP3    H144339   7.517   5.310   4.954
14798TIP3    H244340   7.460   5.234   4.836
14799TIP3   OH244341   0.614   5.817   0.778
14799TIP3    H144342   0.574   5.866   0.849
14799TIP3    H244343   0.708   5.826   0.792
14800TIP3   OH244344   4.470   4.616   0.955
14800TIP3    H144345   4.543   4.601   0.895
14800TIP3    H244346   4.492   4.697   1.000
14801TIP3   OH244347   5.059   0.891   5.053
14801TIP3    H144348   5.068   0.899   5.148
14801TIP3    H244349   5.126   0.951   5.018
14802TIP3   OH244350   1.548   3.780   2.832
14802TIP3    H144351   1.512   3.806   2.917
14802TIP3    H244352   1.564   3.686   2.840
14803TIP3   OH244353   5.247   4.968   2.693
14803TIP3    H144354   5.256   4.984   2.787
14803TIP3    H244355   5.308   4.896   2.675
14804TIP3   OH244356   7.594   5.730   5.043
14804TIP3    H144357   7.674   5.678   5.040
14804TIP3    H244358   7.523   5.667   5.031
14805TIP3   OH244359   2.117   5.278   6.188
14805TIP3    H144360   2.090   5.369   6.197
14805TIP3    H244361   2.047   5.228   6.231
14806TIP3   OH244362   0.127   4.261   4.551
14806TIP3    H144363   0.217   4.289   4.533
14806TIP3    H244364   0.108   4.197   4.482
14807TIP3   OH244365   2.039   2.372   0.107
14807TIP3    H144366   2.096   2.398   0.034
14807TIP3    H244367   2.058   2.280   0.121
14808TIP3   OH244368   4.216   5.341   6.403
14808TIP3    H144369   4.224   5.251   6.434
14808TIP3    H244370   4.125   5.365   6.422
14809TIP3   OH244371   4.991   2.888   4.117
14809TIP3    H144372   5.008   2.794   4.121
14809TIP3    H244373   5.036   2.917   4.038
14810TIP3   OH244374   0.295   0.894   1.835
14810TIP3    H144375   0.209   0.890   1.875
14810TIP3    H244376   0.278   0.886   1.741
14811TIP3   OH244377   6.046   4.505   6.318
14811TIP3    H144378   6.047   4.588   6.271
14811TIP3    H244379   6.046   4.530   6.410
14812TIP3   OH244380   8.082   0.318   2.500
14812TIP3    H144381   8.003   0.304   2.449
14812TIP3    H244382   8.053   0.369   2.576
14813TIP3   OH244383   5.019   6.184   6.488
14813TIP3    H144384   5.077   6.158   6.559
14813TIP3    H244385   5.035   6.278   6.477
14814TIP3   OH244386   5.495   2.116   3.565
14814TIP3    H144387   5.417   2.138   3.616
14814TIP3    H244388   5.558   2.185   3.587
14815TIP3   OH244389   7.184   2.030   1.347
14815TIP3    H144390   7.222   2.027   1.435
14815TIP3    H244391   7.098   1.990   1.357
14816TIP3   OH244392   2.749   2.484   5.117
14816TIP3    H144393   2.734   2.395   5.087
14816TIP3    H244394   2.841   2.501   5.097
14817TIP3   OH244395   7.489   7.341   3.314
14817TIP3    H144396   7.513   7.258   3.274
14817TIP3    H244397   7.393   7.340   3.318
14818TIP3   OH244398   1.464   1.965   1.591
14818TIP3    H144399   1.374   1.933   1.600
14818TIP3    H244400   1.454   2.059   1.578
14819TIP3   OH244401   4.530   2.325   3.370
14819TIP3    H144402   4.540   2.231   3.380
14819TIP3    H244403   4.524   2.340   3.276
14820TIP3   OH244404   5.893   1.898   2.890
14820TIP3    H144405   5.825   1.835   2.867
14820TIP3    H244406   5.915   1.878   2.981
14821TIP3   OH244407   7.555   4.099   3.498
14821TIP3    H144408   7.534   4.106   3.404
14821TIP3    H244409   7.473   4.069   3.538
14822TIP3   OH244410   6.698   4.434   3.346
14822TIP3    H144411   6.749   4.514   3.364
14822TIP3    H244412   6.648   4.455   3.268
14823TIP3   OH244413   4.776   3.890   5.377
14823TIP3    H144414   4.736   3.850   5.299
14823TIP3    H244415   4.800   3.815   5.432
14824TIP3   OH244416   6.345   6.141   1.427
14824TIP3    H144417   6.367   6.121   1.518
14824TIP3    H244418   6.257   6.179   1.432
14825TIP3   OH244419   3.490   2.637   3.353
14825TIP3    H144420   3.442   2.629   3.270
14825TIP3    H244421   3.436   2.590   3.416
14826TIP3   OH244422   6.203   5.932   6.240
14826TIP3    H144423   6.111   5.952   6.256
14826TIP3    H244424   6.213   5.840   6.267
14827TIP3   OH244425   0.650   0.736   4.123
14827TIP3    H144426   0.622   0.657   4.077
14827TIP3    H244427   0.744   0.743   4.105
14828TIP3   OH244428   3.344   2.664   3.112
14828TIP3    H144429   3.323   2.744   3.160
14828TIP3    H244430   3.326   2.686   3.020
14829TIP3   OH244431   3.432   1.712   5.047
14829TIP3    H144432   3.409   1.790   5.098
14829TIP3    H244433   3.393   1.639   5.096
14830TIP3   OH244434   6.444   5.447   2.479
14830TIP3    H144435   6.519   5.386   2.477
14830TIP3    H244436   6.482   5.532   2.457
14831TIP3   OH244437   0.894   3.829   4.077
14831TIP3    H144438   0.859   3.895   4.136
14831TIP3    H244439   0.982   3.811   4.110
14832TIP3   OH244440   1.729   7.536   4.530
14832TIP3    H144441   1.766   7.448   4.529
14832TIP3    H244442   1.751   7.570   4.617
14833TIP3   OH244443   7.241   6.930   0.131
14833TIP3    H144444   7.194   6.932   0.048
14833TIP3    H244445   7.328   6.895   0.109
14834TIP3   OH244446   2.577   4.046   1.326
14834TIP3    H144447   2.668   4.026   1.303
14834TIP3    H244448   2.566   4.008   1.414
14835TIP3   OH244449   8.286   4.770   4.045
14835TIP3    H144450   8.215   4.808   4.097
14835TIP3    H244451   8.336   4.846   4.015
14836TIP3   OH244452   2.175   1.739   5.560
14836TIP3    H144453   2.153   1.685   5.484
14836TIP3    H244454   2.199   1.677   5.629
14837TIP3   OH244455   4.255   1.568   0.026
14837TIP3    H144456   4.317   1.508  -0.017
14837TIP3    H244457   4.296   1.589   0.110
14838TIP3   OH244458   1.557   5.205   0.749
14838TIP3    H144459   1.491   5.264   0.786
14838TIP3    H244460   1.566   5.135   0.814
14839TIP3   OH244461   6.595   1.228   6.131
14839TIP3    H144462   6.595   1.235   6.226
14839TIP3    H244463   6.688   1.225   6.107
   8.29941   7.82476   6.77644   0.00000   0.00000  -2.76647   0.00000  -2.76647  -3.91238
