Title t= 310.00000 step= 155000
19942
    1ASP      N    1   1.168   2.497   3.496
    1ASP    HT1    2   1.192   2.543   3.586
    1ASP    HT2    3   1.083   2.441   3.518
    1ASP    HT3    4   1.147   2.573   3.428
    1ASP     CA    5   1.277   2.417   3.446
    1ASP     HA    6   1.370   2.472   3.451
    1ASP     CB    7   1.313   2.298   3.539
    1ASP    HB1    8   1.233   2.224   3.558
    1ASP    HB2    9   1.319   2.339   3.643
    1ASP     CG   10   1.444   2.233   3.521
    1ASP    OD1   11   1.472   2.131   3.593
    1ASP    OD2   12   1.528   2.282   3.441
    1ASP      C   13   1.265   2.382   3.293
    1ASP      O   14   1.256   2.479   3.217
    2ALA      N   15   1.257   2.260   3.241
    2ALA     HN   16   1.257   2.178   3.298
    2ALA     CA   17   1.271   2.244   3.099
    2ALA     HA   18   1.248   2.327   3.034
    2ALA     CB   19   1.425   2.218   3.067
    2ALA    HB1   20   1.446   2.204   2.958
    2ALA    HB2   21   1.464   2.125   3.113
    2ALA    HB3   22   1.479   2.310   3.097
    2ALA      C   23   1.190   2.123   3.061
    2ALA      O   24   1.189   2.026   3.134
    3ASP      N   25   1.117   2.125   2.941
    3ASP     HN   26   1.114   2.205   2.881
    3ASP     CA   27   1.043   2.019   2.883
    3ASP     HA   28   0.974   1.990   2.961
    3ASP     CB   29   0.966   2.067   2.749
    3ASP    HB1   30   0.901   1.992   2.699
    3ASP    HB2   31   1.043   2.088   2.672
    3ASP     CG   32   0.881   2.189   2.766
    3ASP    OD1   33   0.828   2.208   2.882
    3ASP    OD2   34   0.854   2.271   2.670
    3ASP      C   35   1.121   1.897   2.863
    3ASP      O   36   1.240   1.901   2.830
    4GLY      N   37   1.065   1.775   2.884
    4GLY     HN   38   0.970   1.776   2.912
    4GLY     CA   39   1.130   1.646   2.864
    4GLY    HA1   40   1.052   1.574   2.886
    4GLY    HA2   41   1.215   1.638   2.929
    4GLY      C   42   1.182   1.609   2.720
    4GLY      O   43   1.149   1.673   2.621
    5PRO      N   44   1.269   1.507   2.699
    5PRO     CD   45   1.354   1.425   2.796
    5PRO    HD1   46   1.292   1.354   2.856
    5PRO    HD2   47   1.420   1.479   2.867
    5PRO     CA   48   1.311   1.463   2.560
    5PRO     HA   49   1.384   1.538   2.531
    5PRO     CB   50   1.362   1.326   2.578
    5PRO    HB1   51   1.409   1.290   2.484
    5PRO    HB2   52   1.288   1.250   2.609
    5PRO     CG   53   1.451   1.350   2.701
    5PRO    HG1   54   1.471   1.249   2.744
    5PRO    HG2   55   1.541   1.411   2.683
    5PRO      C   56   1.209   1.462   2.448
    5PRO      O   57   1.099   1.410   2.463
    6GLY      N   58   1.239   1.517   2.324
    6GLY     HN   59   1.326   1.567   2.323
    6GLY     CA   60   1.166   1.519   2.199
    6GLY    HA1   61   1.202   1.600   2.137
    6GLY    HA2   62   1.060   1.531   2.216
    6GLY      C   63   1.199   1.400   2.115
    6GLY      O   64   1.126   1.365   2.021
    7ASP      N   65   1.302   1.324   2.149
    7ASP     HN   66   1.360   1.355   2.224
    7ASP     CA   67   1.335   1.193   2.096
    7ASP     HA   68   1.274   1.170   2.010
    7ASP     CB   69   1.482   1.197   2.045
    7ASP    HB1   70   1.544   1.237   2.127
    7ASP    HB2   71   1.488   1.258   1.953
    7ASP     CG   72   1.550   1.062   2.013
    7ASP    OD1   73   1.477   0.963   1.989
    7ASP    OD2   74   1.674   1.060   2.020
    7ASP      C   75   1.304   1.093   2.204
    7ASP      O   76   1.361   1.106   2.309
    8PRO      N   77   1.219   0.993   2.188
    8PRO     CD   78   1.104   1.010   2.106
    8PRO    HD1   79   1.134   0.978   2.004
    8PRO    HD2   80   1.058   1.111   2.102
    8PRO     CA   81   1.207   0.881   2.277
    8PRO     HA   82   1.178   0.915   2.375
    8PRO     CB   83   1.093   0.802   2.207
    8PRO    HB1   84   1.036   0.729   2.269
    8PRO    HB2   85   1.132   0.752   2.116
    8PRO     CG   86   1.001   0.914   2.163
    8PRO    HG1   87   0.918   0.870   2.103
    8PRO    HG2   88   0.960   0.958   2.257
    8PRO      C   89   1.330   0.803   2.314
    8PRO      O   90   1.329   0.731   2.419
    9ASP      N   91   1.441   0.817   2.241
    9ASP     HN   92   1.442   0.875   2.160
    9ASP     CA   93   1.566   0.740   2.262
    9ASP     HA   94   1.548   0.669   2.341
    9ASP     CB   95   1.613   0.664   2.136
    9ASP    HB1   96   1.703   0.608   2.168
    9ASP    HB2   97   1.638   0.726   2.047
    9ASP     CG   98   1.510   0.561   2.091
    9ASP    OD1   99   1.485   0.557   1.965
    9ASP    OD2  100   1.456   0.484   2.168
    9ASP      C  101   1.671   0.822   2.327
    9ASP      O  102   1.784   0.775   2.341
   10ALA      N  103   1.637   0.938   2.379
   10ALA     HN  104   1.547   0.976   2.360
   10ALA     CA  105   1.719   1.032   2.452
   10ALA     HA  106   1.825   1.016   2.441
   10ALA     CB  107   1.685   1.167   2.367
   10ALA    HB1  108   1.714   1.156   2.260
   10ALA    HB2  109   1.747   1.241   2.423
   10ALA    HB3  110   1.577   1.185   2.387
   10ALA      C  111   1.673   1.041   2.597
   10ALA      O  112   1.555   1.021   2.626
   11GLY      N  113   1.774   1.076   2.680
   11GLY     HN  114   1.855   1.108   2.631
   11GLY     CA  115   1.772   1.099   2.818
   11GLY    HA1  116   1.672   1.115   2.856
   11GLY    HA2  117   1.830   1.188   2.836
   11GLY      C  118   1.833   0.987   2.909
   11GLY    OT1  119   1.761   0.882   2.932
   11GLY    OT2  120   1.940   0.997   2.975
   12LIT    LIT  121   4.877   4.919   2.200
   13LIT    LIT  122   1.530   2.604   0.500
   14LIT    LIT  123   1.547   5.800   4.861
   15LIT    LIT  124   5.021   0.544   4.214
   16LIT    LIT  125   0.324   0.879   4.469
   17LIT    LIT  126   1.978   5.704   3.983
   18LIT    LIT  127   1.892   3.317   3.619
   19LIT    LIT  128   4.643   5.946   1.490
   20LIT    LIT  129   1.398   2.013   4.481
   21LIT    LIT  130   4.726   3.149   0.754
   22LIT    LIT  131   0.080   3.623   1.812
   23LIT    LIT  132   0.426   0.692   2.657
   24LIT    LIT  133   0.323   5.106   4.733
   25LIT    LIT  134   1.291   4.504   2.257
   26LIT    LIT  135   3.378   2.053   5.055
   27LIT    LIT  136   5.905   5.318   4.254
   28LIT    LIT  137   1.662   2.155   3.401
   29LIT    LIT  138   2.686   5.368   2.587
   30LIT    LIT  139   2.642   0.376   4.553
   31LIT    LIT  140   4.733   3.424   1.976
   32LIT    LIT  141   5.221   5.903   2.240
   33LIT    LIT  142   4.011   0.421   0.252
   34CLA    CLA  143   2.202   4.461   1.782
   35CLA    CLA  144   4.882   5.983   3.184
   36CLA    CLA  145   5.210   3.382   2.675
   37CLA    CLA  146   4.560   1.936   3.284
   38CLA    CLA  147   1.518   2.765   3.551
   39CLA    CLA  148   1.375   5.490   2.028
   40CLA    CLA  149   2.580   3.391   0.094
   41CLA    CLA  150   1.080   3.207   0.635
   42CLA    CLA  151   5.776   5.742   1.213
   43CLA    CLA  152   0.555   1.646   4.702
   44CLA    CLA  153   1.930   5.772   0.829
   45CLA    CLA  154   1.505   2.557   4.225
   46CLA    CLA  155   4.596   2.549   3.684
   47CLA    CLA  156   3.454   2.257   4.949
   48CLA    CLA  157   5.377   3.433   0.069
   49CLA    CLA  158   5.203   5.770   2.599
   50CLA    CLA  159   2.455   4.628   1.305
   51CLA    CLA  160   2.736   5.728   1.056
   52TIP3   OH2  161   3.428   1.436   4.047
   52TIP3    H1  162   3.495   1.387   3.999
   52TIP3    H2  163   3.448   1.528   4.029
   53TIP3   OH2  164   0.960   2.508   1.559
   53TIP3    H1  165   1.016   2.437   1.590
   53TIP3    H2  166   0.916   2.471   1.482
   54TIP3   OH2  167   1.523   0.982   4.073
   54TIP3    H1  168   1.468   1.046   4.028
   54TIP3    H2  169   1.611   0.997   4.038
   55TIP3   OH2  170   1.426   0.062   1.570
   55TIP3    H1  171   1.367   0.132   1.596
   55TIP3    H2  172   1.385   0.023   1.493
   56TIP3   OH2  173   5.160   4.681   4.344
   56TIP3    H1  174   5.235   4.643   4.389
   56TIP3    H2  175   5.088   4.673   4.407
   57TIP3   OH2  176   4.321   4.306   3.109
   57TIP3    H1  177   4.348   4.247   3.179
   57TIP3    H2  178   4.299   4.387   3.153
   58TIP3   OH2  179   0.131   2.614   4.885
   58TIP3    H1  180   0.139   2.694   4.935
   58TIP3    H2  181   0.078   2.556   4.940
   59TIP3   OH2  182   1.794   4.293   2.713
   59TIP3    H1  183   1.808   4.381   2.677
   59TIP3    H2  184   1.840   4.295   2.797
   60TIP3   OH2  185   2.033   0.185   5.213
   60TIP3    H1  186   2.031   0.280   5.221
   60TIP3    H2  187   2.055   0.170   5.121
   61TIP3   OH2  188   3.796   0.566   0.641
   61TIP3    H1  189   3.777   0.630   0.573
   61TIP3    H2  190   3.719   0.568   0.698
   62TIP3   OH2  191   4.013   2.437   0.710
   62TIP3    H1  192   3.970   2.512   0.750
   62TIP3    H2  193   3.996   2.445   0.617
   63TIP3   OH2  194   1.583   1.188   0.278
   63TIP3    H1  195   1.509   1.129   0.283
   63TIP3    H2  196   1.579   1.224   0.189
   64TIP3   OH2  197   1.631   4.136   3.041
   64TIP3    H1  198   1.582   4.192   3.101
   64TIP3    H2  199   1.598   4.159   2.954
   65TIP3   OH2  200   5.324   1.324   2.220
   65TIP3    H1  201   5.327   1.363   2.133
   65TIP3    H2  202   5.233   1.296   2.230
   66TIP3   OH2  203   2.203   4.516   4.283
   66TIP3    H1  204   2.135   4.511   4.216
   66TIP3    H2  205   2.166   4.573   4.351
   67TIP3   OH2  206   1.452   0.327   4.398
   67TIP3    H1  207   1.381   0.301   4.339
   67TIP3    H2  208   1.448   0.423   4.399
   68TIP3   OH2  209   3.881   1.404   2.925
   68TIP3    H1  210   3.938   1.388   2.850
   68TIP3    H2  211   3.804   1.349   2.910
   69TIP3   OH2  212   1.776   4.955   0.417
   69TIP3    H1  213   1.844   4.903   0.376
   69TIP3    H2  214   1.747   4.903   0.492
   70TIP3   OH2  215   4.402   0.511   4.061
   70TIP3    H1  216   4.409   0.605   4.041
   70TIP3    H2  217   4.444   0.468   3.986
   71TIP3   OH2  218   5.064   1.938   2.684
   71TIP3    H1  219   5.112   1.878   2.626
   71TIP3    H2  220   4.983   1.891   2.705
   72TIP3   OH2  221   5.140   4.316   1.506
   72TIP3    H1  222   5.143   4.379   1.578
   72TIP3    H2  223   5.096   4.239   1.543
   73TIP3   OH2  224   0.408   3.718   4.507
   73TIP3    H1  225   0.454   3.635   4.518
   73TIP3    H2  226   0.459   3.780   4.560
   74TIP3   OH2  227   4.768   1.502   2.615
   74TIP3    H1  228   4.822   1.460   2.681
   74TIP3    H2  229   4.713   1.432   2.580
   75TIP3   OH2  230   5.828   0.730   1.540
   75TIP3    H1  231   5.800   0.680   1.463
   75TIP3    H2  232   5.824   0.821   1.513
   76TIP3   OH2  233   2.899   4.777   4.359
   76TIP3    H1  234   2.837   4.735   4.418
   76TIP3    H2  235   2.902   4.868   4.389
   77TIP3   OH2  236   1.451   2.617   3.059
   77TIP3    H1  237   1.407   2.549   3.111
   77TIP3    H2  238   1.386   2.685   3.049
   78TIP3   OH2  239   5.694   3.208   2.793
   78TIP3    H1  240   5.633   3.265   2.747
   78TIP3    H2  241   5.776   3.215   2.744
   79TIP3   OH2  242   2.706   0.314   1.081
   79TIP3    H1  243   2.629   0.346   1.034
   79TIP3    H2  244   2.698   0.218   1.078
   80TIP3   OH2  245   0.161   5.504   0.818
   80TIP3    H1  246   0.196   5.452   0.891
   80TIP3    H2  247   0.094   5.558   0.858
   81TIP3   OH2  248   1.168   2.161   4.831
   81TIP3    H1  249   1.131   2.214   4.902
   81TIP3    H2  250   1.115   2.081   4.832
   82TIP3   OH2  251   0.239   1.079   3.520
   82TIP3    H1  252   0.255   1.128   3.601
   82TIP3    H2  253   0.206   0.994   3.550
   83TIP3   OH2  254   4.330   3.659   2.475
   83TIP3    H1  255   4.309   3.753   2.471
   83TIP3    H2  256   4.272   3.625   2.543
   84TIP3   OH2  257   1.483   2.055   1.795
   84TIP3    H1  258   1.441   2.057   1.709
   84TIP3    H2  259   1.551   1.988   1.787
   85TIP3   OH2  260   1.325   1.460   0.127
   85TIP3    H1  261   1.378   1.506   0.063
   85TIP3    H2  262   1.373   1.469   0.209
   86TIP3   OH2  263   3.017   3.913   0.964
   86TIP3    H1  264   2.986   3.874   0.882
   86TIP3    H2  265   3.107   3.940   0.945
   87TIP3   OH2  266   0.341   1.483   1.499
   87TIP3    H1  267   0.280   1.479   1.572
   87TIP3    H2  268   0.423   1.448   1.534
   88TIP3   OH2  269   2.175   1.951   3.064
   88TIP3    H1  270   2.153   1.883   3.000
   88TIP3    H2  271   2.214   2.021   3.012
   89TIP3   OH2  272   1.300   5.435   1.725
   89TIP3    H1  273   1.341   5.479   1.800
   89TIP3    H2  274   1.247   5.366   1.764
   90TIP3   OH2  275   5.461   5.320   2.155
   90TIP3    H1  276   5.513   5.244   2.182
   90TIP3    H2  277   5.489   5.338   2.066
   91TIP3   OH2  278   2.953   2.425   1.963
   91TIP3    H1  279   2.896   2.443   2.037
   91TIP3    H2  280   3.034   2.391   2.002
   92TIP3   OH2  281   5.184   2.750   0.725
   92TIP3    H1  282   5.261   2.706   0.760
   92TIP3    H2  283   5.118   2.681   0.716
   93TIP3   OH2  284   3.217   5.086   3.437
   93TIP3    H1  285   3.201   5.102   3.530
   93TIP3    H2  286   3.255   5.168   3.404
   94TIP3   OH2  287   5.527   4.225   2.334
   94TIP3    H1  288   5.505   4.296   2.395
   94TIP3    H2  289   5.532   4.147   2.389
   95TIP3   OH2  290   3.972   3.980   2.473
   95TIP3    H1  291   4.005   4.031   2.399
   95TIP3    H2  292   3.889   4.021   2.496
   96TIP3   OH2  293   6.361   4.705   1.470
   96TIP3    H1  294   6.403   4.760   1.535
   96TIP3    H2  295   6.324   4.766   1.406
   97TIP3   OH2  296   6.120   2.132   4.151
   97TIP3    H1  297   6.036   2.163   4.119
   97TIP3    H2  298   6.121   2.038   4.130
   98TIP3   OH2  299   2.831   4.575   0.378
   98TIP3    H1  300   2.874   4.571   0.293
   98TIP3    H2  301   2.852   4.493   0.421
   99TIP3   OH2  302   1.201   1.837   2.098
   99TIP3    H1  303   1.222   1.768   2.036
   99TIP3    H2  304   1.217   1.918   2.050
  100TIP3   OH2  305   5.628   4.203   3.619
  100TIP3    H1  306   5.537   4.215   3.647
  100TIP3    H2  307   5.674   4.280   3.652
  101TIP3   OH2  308   0.049   0.171   3.126
  101TIP3    H1  309   0.098   0.215   3.196
  101TIP3    H2  310   0.018   0.090   3.167
  102TIP3   OH2  311   4.570   2.343   3.187
  102TIP3    H1  312   4.579   2.305   3.275
  102TIP3    H2  313   4.476   2.353   3.175
  103TIP3   OH2  314   0.785   5.745   3.746
  103TIP3    H1  315   0.737   5.810   3.797
  103TIP3    H2  316   0.730   5.729   3.670
  104TIP3   OH2  317   1.963   4.863   0.240
  104TIP3    H1  318   1.874   4.848   0.209
  104TIP3    H2  319   2.005   4.912   0.169
  105TIP3   OH2  320   3.898   0.809   3.691
  105TIP3    H1  321   3.882   0.898   3.662
  105TIP3    H2  322   3.828   0.792   3.755
  106TIP3   OH2  323   0.650   5.271   2.546
  106TIP3    H1  324   0.729   5.305   2.590
  106TIP3    H2  325   0.584   5.269   2.615
  107TIP3   OH2  326   6.295   2.363   3.586
  107TIP3    H1  327   6.325   2.312   3.510
  107TIP3    H2  328   6.224   2.418   3.553
  108TIP3   OH2  329   5.867   2.140   3.252
  108TIP3    H1  330   5.940   2.158   3.311
  108TIP3    H2  331   5.897   2.170   3.166
  109TIP3   OH2  332   4.192   0.487   3.235
  109TIP3    H1  333   4.147   0.436   3.302
  109TIP3    H2  334   4.121   0.524   3.181
  110TIP3   OH2  335   3.853   1.631   3.346
  110TIP3    H1  336   3.873   1.578   3.268
  110TIP3    H2  337   3.883   1.578   3.419
  111TIP3   OH2  338   0.673   3.223   2.522
  111TIP3    H1  339   0.590   3.271   2.517
  111TIP3    H2  340   0.732   3.270   2.464
  112TIP3   OH2  341   4.338   5.325   1.466
  112TIP3    H1  342   4.327   5.367   1.551
  112TIP3    H2  343   4.250   5.295   1.442
  113TIP3   OH2  344   1.386   0.462   1.441
  113TIP3    H1  345   1.414   0.516   1.515
  113TIP3    H2  346   1.381   0.373   1.478
  114TIP3   OH2  347   5.609   0.866   2.660
  114TIP3    H1  348   5.696   0.845   2.627
  114TIP3    H2  349   5.565   0.910   2.588
  115TIP3   OH2  350   3.382   2.771   2.240
  115TIP3    H1  351   3.440   2.706   2.279
  115TIP3    H2  352   3.438   2.848   2.228
  116TIP3   OH2  353   3.036   2.545   2.328
  116TIP3    H1  354   3.026   2.572   2.420
  116TIP3    H2  355   3.110   2.484   2.329
  117TIP3   OH2  356   4.983   5.987   0.622
  117TIP3    H1  357   5.006   6.014   0.711
  117TIP3    H2  358   4.917   5.918   0.634
  118TIP3   OH2  359   6.117   0.508   4.134
  118TIP3    H1  360   6.187   0.442   4.136
  118TIP3    H2  361   6.082   0.503   4.046
  119TIP3   OH2  362   1.831   4.678   1.652
  119TIP3    H1  363   1.802   4.754   1.601
  119TIP3    H2  364   1.761   4.614   1.643
  120TIP3   OH2  365   0.451   1.594   2.625
  120TIP3    H1  366   0.525   1.535   2.612
  120TIP3    H2  367   0.482   1.679   2.594
  121TIP3   OH2  368   5.207   0.451   3.865
  121TIP3    H1  369   5.270   0.420   3.931
  121TIP3    H2  370   5.261   0.482   3.793
  122TIP3   OH2  371   4.394   0.049   0.522
  122TIP3    H1  372   4.480   0.085   0.501
  122TIP3    H2  373   4.359   0.108   0.589
  123TIP3   OH2  374   4.187   1.583   3.393
  123TIP3    H1  375   4.243   1.554   3.321
  123TIP3    H2  376   4.168   1.675   3.373
  124TIP3   OH2  377   4.781   3.860   1.933
  124TIP3    H1  378   4.819   3.857   2.020
  124TIP3    H2  379   4.753   3.770   1.915
  125TIP3   OH2  380   3.331   4.191   0.999
  125TIP3    H1  381   3.279   4.244   0.938
  125TIP3    H2  382   3.317   4.232   1.084
  126TIP3   OH2  383   0.174   5.605   3.787
  126TIP3    H1  384   0.161   5.684   3.839
  126TIP3    H2  385   0.248   5.626   3.730
  127TIP3   OH2  386   3.828   3.770   4.207
  127TIP3    H1  387   3.888   3.816   4.149
  127TIP3    H2  388   3.818   3.829   4.282
  128TIP3   OH2  389   3.740   4.042   1.287
  128TIP3    H1  390   3.695   3.959   1.303
  128TIP3    H2  391   3.738   4.052   1.192
  129TIP3   OH2  392   2.941   1.068   2.485
  129TIP3    H1  393   2.906   1.154   2.463
  129TIP3    H2  394   2.881   1.006   2.445
  130TIP3   OH2  395   5.190   4.494   4.634
  130TIP3    H1  396   5.137   4.418   4.657
  130TIP3    H2  397   5.239   4.467   4.557
  131TIP3   OH2  398   3.754   5.203   0.164
  131TIP3    H1  399   3.675   5.250   0.137
  131TIP3    H2  400   3.808   5.201   0.085
  132TIP3   OH2  401   4.986   1.195   1.078
  132TIP3    H1  402   5.048   1.250   1.126
  132TIP3    H2  403   4.906   1.248   1.072
  133TIP3   OH2  404   3.222   1.678   3.747
  133TIP3    H1  405   3.314   1.652   3.748
  133TIP3    H2  406   3.224   1.771   3.771
  134TIP3   OH2  407   2.210   3.090   4.621
  134TIP3    H1  408   2.268   3.058   4.690
  134TIP3    H2  409   2.237   3.042   4.543
  135TIP3   OH2  410   4.809   0.444   1.342
  135TIP3    H1  411   4.819   0.529   1.299
  135TIP3    H2  412   4.835   0.459   1.433
  136TIP3   OH2  413   4.521   3.034   4.856
  136TIP3    H1  414   4.427   3.022   4.851
  136TIP3    H2  415   4.557   2.946   4.852
  137TIP3   OH2  416   0.004   1.383   0.306
  137TIP3    H1  417   0.046   1.454   0.354
  137TIP3    H2  418   0.024   1.400   0.214
  138TIP3   OH2  419   4.894   5.876   4.963
  138TIP3    H1  420   4.887   5.782   4.979
  138TIP3    H2  421   4.988   5.893   4.959
  139TIP3   OH2  422   4.105   0.849   2.419
  139TIP3    H1  423   4.088   0.845   2.325
  139TIP3    H2  424   4.042   0.788   2.457
  140TIP3   OH2  425   6.006   0.301   2.420
  140TIP3    H1  426   6.024   0.372   2.359
  140TIP3    H2  427   6.014   0.222   2.367
  141TIP3   OH2  428   5.153   0.256   3.095
  141TIP3    H1  429   5.159   0.335   3.042
  141TIP3    H2  430   5.068   0.219   3.074
  142TIP3   OH2  431   3.458   0.051   0.516
  142TIP3    H1  432   3.485  -0.036   0.488
  142TIP3    H2  433   3.451   0.101   0.435
  143TIP3   OH2  434   4.127   0.409   2.103
  143TIP3    H1  435   4.222   0.418   2.112
  143TIP3    H2  436   4.115   0.325   2.059
  144TIP3   OH2  437   0.408   5.140   3.699
  144TIP3    H1  438   0.456   5.221   3.681
  144TIP3    H2  439   0.473   5.082   3.738
  145TIP3   OH2  440   2.460   0.796   4.820
  145TIP3    H1  441   2.513   0.854   4.874
  145TIP3    H2  442   2.384   0.850   4.795
  146TIP3   OH2  443   1.529   4.974   4.766
  146TIP3    H1  444   1.461   5.024   4.720
  146TIP3    H2  445   1.547   4.900   4.709
  147TIP3   OH2  446   4.712   2.882   2.827
  147TIP3    H1  447   4.730   2.965   2.871
  147TIP3    H2  448   4.747   2.816   2.886
  148TIP3   OH2  449   1.184   3.229   2.852
  148TIP3    H1  450   1.199   3.136   2.837
  148TIP3    H2  451   1.142   3.260   2.772
  149TIP3   OH2  452   6.220   1.936   3.812
  149TIP3    H1  453   6.208   1.893   3.897
  149TIP3    H2  454   6.170   2.017   3.818
  150TIP3   OH2  455   1.182   0.750   2.764
  150TIP3    H1  456   1.147   0.776   2.849
  150TIP3    H2  457   1.229   0.827   2.732
  151TIP3   OH2  458   5.288   1.598   2.668
  151TIP3    H1  459   5.304   1.660   2.738
  151TIP3    H2  460   5.218   1.637   2.616
  152TIP3   OH2  461   3.831   5.326   4.784
  152TIP3    H1  462   3.899   5.292   4.727
  152TIP3    H2  463   3.762   5.355   4.724
  153TIP3   OH2  464   6.200   0.461   3.835
  153TIP3    H1  465   6.145   0.524   3.790
  153TIP3    H2  466   6.278   0.510   3.860
  154TIP3   OH2  467   1.435   3.526   3.418
  154TIP3    H1  468   1.381   3.553   3.492
  154TIP3    H2  469   1.373   3.492   3.354
  155TIP3   OH2  470   2.259   4.035   0.706
  155TIP3    H1  471   2.251   4.074   0.793
  155TIP3    H2  472   2.213   4.096   0.648
  156TIP3   OH2  473   6.292   3.865   3.118
  156TIP3    H1  474   6.343   3.793   3.155
  156TIP3    H2  475   6.202   3.831   3.113
  157TIP3   OH2  476   0.973   3.513   1.871
  157TIP3    H1  477   1.031   3.523   1.795
  157TIP3    H2  478   1.032   3.500   1.945
  158TIP3   OH2  479   5.259   0.154   4.803
  158TIP3    H1  480   5.241   0.242   4.835
  158TIP3    H2  481   5.349   0.158   4.771
  159TIP3   OH2  482   5.374   3.716   4.786
  159TIP3    H1  483   5.404   3.635   4.744
  159TIP3    H2  484   5.403   3.786   4.728
  160TIP3   OH2  485   0.475   4.085   0.772
  160TIP3    H1  486   0.415   4.011   0.761
  160TIP3    H2  487   0.545   4.069   0.709
  161TIP3   OH2  488   4.047   0.584   2.805
  161TIP3    H1  489   4.034   0.622   2.718
  161TIP3    H2  490   4.105   0.645   2.850
  162TIP3   OH2  491   0.094   1.856   3.691
  162TIP3    H1  492   0.006   1.875   3.723
  162TIP3    H2  493   0.101   1.907   3.610
  163TIP3   OH2  494   1.923   1.561   3.778
  163TIP3    H1  495   1.884   1.647   3.795
  163TIP3    H2  496   1.849   1.505   3.754
  164TIP3   OH2  497   5.618   0.929   3.781
  164TIP3    H1  498   5.587   0.839   3.784
  164TIP3    H2  499   5.711   0.922   3.759
  165TIP3   OH2  500   2.874   1.628   1.248
  165TIP3    H1  501   2.914   1.665   1.169
  165TIP3    H2  502   2.818   1.698   1.281
  166TIP3   OH2  503   3.945   0.943   4.354
  166TIP3    H1  504   3.853   0.967   4.356
  166TIP3    H2  505   3.947   0.851   4.380
  167TIP3   OH2  506   1.656   0.124   4.262
  167TIP3    H1  507   1.609   0.189   4.209
  167TIP3    H2  508   1.681   0.172   4.341
  168TIP3   OH2  509   0.002   1.806   4.358
  168TIP3    H1  510   0.001   1.842   4.269
  168TIP3    H2  511   0.093   1.818   4.387
  169TIP3   OH2  512   4.578   0.552   2.773
  169TIP3    H1  513   4.641   0.515   2.834
  169TIP3    H2  514   4.573   0.489   2.701
  170TIP3   OH2  515   5.438   2.518   3.280
  170TIP3    H1  516   5.375   2.559   3.339
  170TIP3    H2  517   5.493   2.590   3.249
  171TIP3   OH2  518   5.995   0.675   1.282
  171TIP3    H1  519   6.025   0.599   1.332
  171TIP3    H2  520   5.905   0.654   1.258
  172TIP3   OH2  521   2.083   4.080   3.564
  172TIP3    H1  522   2.120   4.081   3.476
  172TIP3    H2  523   2.152   4.044   3.619
  173TIP3   OH2  524   3.120   0.570   1.577
  173TIP3    H1  525   3.188   0.626   1.539
  173TIP3    H2  526   3.045   0.629   1.590
  174TIP3   OH2  527   4.834   1.691   2.421
  174TIP3    H1  528   4.806   1.637   2.347
  174TIP3    H2  529   4.812   1.639   2.498
  175TIP3   OH2  530   5.110   1.603   0.857
  175TIP3    H1  531   5.176   1.666   0.887
  175TIP3    H2  532   5.067   1.574   0.937
  176TIP3   OH2  533   6.352   3.599   3.185
  176TIP3    H1  534   6.323   3.572   3.098
  176TIP3    H2  535   6.347   3.518   3.237
  177TIP3   OH2  536  -0.022   4.486   0.707
  177TIP3    H1  537   0.037   4.528   0.769
  177TIP3    H2  538  -0.007   4.393   0.719
  178TIP3   OH2  539   1.599   2.009   2.650
  178TIP3    H1  540   1.676   2.059   2.679
  178TIP3    H2  541   1.628   1.963   2.572
  179TIP3   OH2  542   5.010   5.844   0.888
  179TIP3    H1  543   5.075   5.788   0.845
  179TIP3    H2  544   4.995   5.802   0.973
  180TIP3   OH2  545   0.816   3.759   4.624
  180TIP3    H1  546   0.726   3.753   4.655
  180TIP3    H2  547   0.838   3.852   4.628
  181TIP3   OH2  548   5.862   3.642   2.202
  181TIP3    H1  549   5.859   3.643   2.297
  181TIP3    H2  550   5.773   3.665   2.175
  182TIP3   OH2  551   5.962   0.439   0.113
  182TIP3    H1  552   6.043   0.489   0.117
  182TIP3    H2  553   5.904   0.493   0.059
  183TIP3   OH2  554   5.684   4.600   1.642
  183TIP3    H1  555   5.727   4.518   1.617
  183TIP3    H2  556   5.649   4.583   1.729
  184TIP3   OH2  557   4.938   4.581   1.012
  184TIP3    H1  558   4.971   4.513   0.953
  184TIP3    H2  559   4.917   4.655   0.955
  185TIP3   OH2  560   4.451   5.791   3.479
  185TIP3    H1  561   4.443   5.863   3.540
  185TIP3    H2  562   4.503   5.826   3.407
  186TIP3   OH2  563   3.985   3.446   2.682
  186TIP3    H1  564   3.957   3.489   2.602
  186TIP3    H2  565   4.049   3.380   2.654
  187TIP3   OH2  566   4.625   5.779   1.581
  187TIP3    H1  567   4.696   5.747   1.636
  187TIP3    H2  568   4.548   5.730   1.610
  188TIP3   OH2  569   1.014   5.394   2.405
  188TIP3    H1  570   1.078   5.436   2.462
  188TIP3    H2  571   1.060   5.381   2.322
  189TIP3   OH2  572   2.536   1.439   0.581
  189TIP3    H1  573   2.441   1.449   0.579
  189TIP3    H2  574   2.563   1.475   0.665
  190TIP3   OH2  575   5.646   1.180   1.741
  190TIP3    H1  576   5.699   1.110   1.778
  190TIP3    H2  577   5.621   1.149   1.654
  191TIP3   OH2  578   5.431   2.838   4.724
  191TIP3    H1  579   5.361   2.864   4.784
  191TIP3    H2  580   5.508   2.885   4.756
  192TIP3   OH2  581   0.646   1.156   3.581
  192TIP3    H1  582   0.568   1.187   3.534
  192TIP3    H2  583   0.709   1.227   3.571
  193TIP3   OH2  584   0.908   0.341   5.128
  193TIP3    H1  585   0.880   0.399   5.198
  193TIP3    H2  586   0.942   0.400   5.060
  194TIP3   OH2  587   3.450   5.726   4.057
  194TIP3    H1  588   3.371   5.719   4.003
  194TIP3    H2  589   3.466   5.636   4.086
  195TIP3   OH2  590   4.020   0.907   0.691
  195TIP3    H1  591   3.961   0.851   0.741
  195TIP3    H2  592   4.076   0.845   0.643
  196TIP3   OH2  593   3.161   5.674   3.417
  196TIP3    H1  594   3.100   5.704   3.485
  196TIP3    H2  595   3.241   5.654   3.465
  197TIP3   OH2  596   3.801   5.687   1.309
  197TIP3    H1  597   3.794   5.722   1.398
  197TIP3    H2  598   3.733   5.620   1.305
  198TIP3   OH2  599   5.926   0.325   1.612
  198TIP3    H1  600   5.893   0.384   1.679
  198TIP3    H2  601   5.982   0.262   1.659
  199TIP3   OH2  602   1.912   3.463   4.920
  199TIP3    H1  603   1.997   3.502   4.941
  199TIP3    H2  604   1.921   3.371   4.943
  200TIP3   OH2  605   5.358   3.449   0.781
  200TIP3    H1  606   5.438   3.417   0.739
  200TIP3    H2  607   5.385   3.527   0.829
  201TIP3   OH2  608   0.787   3.221   3.107
  201TIP3    H1  609   0.883   3.216   3.108
  201TIP3    H2  610   0.761   3.214   3.199
  202TIP3   OH2  611   1.782   5.666   3.968
  202TIP3    H1  612   1.720   5.667   3.896
  202TIP3    H2  613   1.729   5.686   4.046
  203TIP3   OH2  614   2.366   3.839   4.367
  203TIP3    H1  615   2.320   3.852   4.284
  203TIP3    H2  616   2.452   3.807   4.342
  204TIP3   OH2  617   0.265   4.625   2.519
  204TIP3    H1  618   0.292   4.581   2.600
  204TIP3    H2  619   0.170   4.627   2.523
  205TIP3   OH2  620   5.740   0.621   1.325
  205TIP3    H1  621   5.768   0.529   1.320
  205TIP3    H2  622   5.672   0.629   1.258
  206TIP3   OH2  623   6.165   5.299   0.188
  206TIP3    H1  624   6.221   5.336   0.121
  206TIP3    H2  625   6.180   5.204   0.183
  207TIP3   OH2  626   3.876   0.049   0.359
  207TIP3    H1  627   3.908  -0.002   0.284
  207TIP3    H2  628   3.873   0.139   0.327
  208TIP3   OH2  629   2.674   3.207   3.547
  208TIP3    H1  630   2.640   3.119   3.566
  208TIP3    H2  631   2.732   3.227   3.620
  209TIP3   OH2  632   2.489   4.858   2.173
  209TIP3    H1  633   2.451   4.912   2.241
  209TIP3    H2  634   2.435   4.875   2.095
  210TIP3   OH2  635   3.170   2.072   1.819
  210TIP3    H1  636   3.152   2.030   1.903
  210TIP3    H2  637   3.262   2.098   1.824
  211TIP3   OH2  638   5.878   4.065   2.208
  211TIP3    H1  639   5.838   4.022   2.283
  211TIP3    H2  640   5.833   4.030   2.132
  212TIP3   OH2  641   2.219   5.821   0.677
  212TIP3    H1  642   2.130   5.804   0.707
  212TIP3    H2  643   2.218   5.912   0.647
  213TIP3   OH2  644   2.932   2.448   0.651
  213TIP3    H1  645   2.999   2.484   0.592
  213TIP3    H2  646   2.934   2.506   0.727
  214TIP3   OH2  647   2.915   4.197   4.373
  214TIP3    H1  648   2.910   4.236   4.460
  214TIP3    H2  649   2.939   4.105   4.389
  215TIP3   OH2  650   5.484   1.636   3.590
  215TIP3    H1  651   5.492   1.724   3.628
  215TIP3    H2  652   5.468   1.579   3.665
  216TIP3   OH2  653   5.084   1.250   2.465
  216TIP3    H1  654   5.149   1.250   2.535
  216TIP3    H2  655   5.002   1.226   2.510
  217TIP3   OH2  656   4.165   2.399   0.920
  217TIP3    H1  657   4.147   2.418   0.828
  217TIP3    H2  658   4.187   2.484   0.958
  218TIP3   OH2  659   2.804   3.519   3.637
  218TIP3    H1  660   2.792   3.588   3.570
  218TIP3    H2  661   2.860   3.454   3.594
  219TIP3   OH2  662   2.686   5.375   0.626
  219TIP3    H1  663   2.758   5.320   0.595
  219TIP3    H2  664   2.726   5.462   0.637
  220TIP3   OH2  665   4.161   3.902   3.696
  220TIP3    H1  666   4.100   3.845   3.744
  220TIP3    H2  667   4.115   3.922   3.615
  221TIP3   OH2  668   2.294   1.234   5.078
  221TIP3    H1  669   2.326   1.253   5.167
  221TIP3    H2  670   2.199   1.229   5.088
  222TIP3   OH2  671   4.088   2.855   0.575
  222TIP3    H1  672   4.040   2.868   0.493
  222TIP3    H2  673   4.026   2.880   0.643
  223TIP3   OH2  674   5.736   4.241   4.000
  223TIP3    H1  675   5.741   4.146   3.992
  223TIP3    H2  676   5.794   4.274   3.932
  224TIP3   OH2  677   5.059   3.303   0.848
  224TIP3    H1  678   5.109   3.252   0.783
  224TIP3    H2  679   5.046   3.241   0.920
  225TIP3   OH2  680   4.395   3.840   0.281
  225TIP3    H1  681   4.483   3.863   0.252
  225TIP3    H2  682   4.349   3.924   0.285
  226TIP3   OH2  683   6.081   3.990   2.429
  226TIP3    H1  684   6.063   4.070   2.381
  226TIP3    H2  685   6.008   3.932   2.409
  227TIP3   OH2  686   1.242   2.222   2.369
  227TIP3    H1  687   1.252   2.273   2.449
  227TIP3    H2  688   1.291   2.141   2.385
  228TIP3   OH2  689   5.257   4.551   0.368
  228TIP3    H1  690   5.296   4.464   0.361
  228TIP3    H2  691   5.325   4.604   0.410
  229TIP3   OH2  692   2.411   2.568   3.910
  229TIP3    H1  693   2.494   2.540   3.948
  229TIP3    H2  694   2.347   2.504   3.942
  230TIP3   OH2  695   0.500   0.602   2.474
  230TIP3    H1  696   0.550   0.649   2.407
  230TIP3    H2  697   0.513   0.509   2.453
  231TIP3   OH2  698   1.780   0.329   0.573
  231TIP3    H1  699   1.715   0.348   0.640
  231TIP3    H2  700   1.837   0.263   0.613
  232TIP3   OH2  701   2.655   2.641   1.967
  232TIP3    H1  702   2.678   2.566   2.021
  232TIP3    H2  703   2.728   2.702   1.978
  233TIP3   OH2  704   5.544   1.028   1.317
  233TIP3    H1  705   5.561   0.975   1.395
  233TIP3    H2  706   5.450   1.020   1.302
  234TIP3   OH2  707   4.109   0.042   4.317
  234TIP3    H1  708   4.131   0.133   4.298
  234TIP3    H2  709   4.188   0.008   4.360
  235TIP3   OH2  710   5.985   3.191   3.579
  235TIP3    H1  711   6.004   3.235   3.662
  235TIP3    H2  712   5.889   3.187   3.576
  236TIP3   OH2  713   3.002   4.851   1.880
  236TIP3    H1  714   3.065   4.924   1.879
  236TIP3    H2  715   3.046   4.781   1.832
  237TIP3   OH2  716   3.040   5.787   1.556
  237TIP3    H1  717   3.042   5.880   1.578
  237TIP3    H2  718   3.006   5.785   1.466
  238TIP3   OH2  719   4.765   4.492   2.651
  238TIP3    H1  720   4.733   4.578   2.625
  238TIP3    H2  721   4.744   4.434   2.578
  239TIP3   OH2  722   2.134   0.550   2.560
  239TIP3    H1  723   2.055   0.560   2.506
  239TIP3    H2  724   2.190   0.491   2.510
  240TIP3   OH2  725   3.044   4.475   4.939
  240TIP3    H1  726   2.956   4.508   4.924
  240TIP3    H2  727   3.096   4.512   4.867
  241TIP3   OH2  728   3.359   3.237   1.744
  241TIP3    H1  729   3.448   3.245   1.781
  241TIP3    H2  730   3.308   3.304   1.791
  242TIP3   OH2  731   2.601   3.445   1.423
  242TIP3    H1  732   2.679   3.427   1.372
  242TIP3    H2  733   2.544   3.493   1.363
  243TIP3   OH2  734   4.502   5.730   1.124
  243TIP3    H1  735   4.596   5.750   1.125
  243TIP3    H2  736   4.491   5.664   1.192
  244TIP3   OH2  737   3.098   2.959   4.373
  244TIP3    H1  738   3.050   3.024   4.425
  244TIP3    H2  739   3.077   2.980   4.282
  245TIP3   OH2  740   3.674   2.669   3.372
  245TIP3    H1  741   3.756   2.673   3.323
  245TIP3    H2  742   3.606   2.674   3.305
  246TIP3   OH2  743   1.420   5.329   2.510
  246TIP3    H1  744   1.405   5.315   2.417
  246TIP3    H2  745   1.341   5.374   2.541
  247TIP3   OH2  746   3.646   3.313   3.095
  247TIP3    H1  747   3.718   3.306   3.158
  247TIP3    H2  748   3.690   3.332   3.011
  248TIP3   OH2  749   4.032   3.904   0.391
  248TIP3    H1  750   4.100   3.963   0.359
  248TIP3    H2  751   3.982   3.957   0.454
  249TIP3   OH2  752   5.599   0.259   0.651
  249TIP3    H1  753   5.541   0.332   0.673
  249TIP3    H2  754   5.562   0.184   0.699
  250TIP3   OH2  755   3.432   5.223   1.450
  250TIP3    H1  756   3.477   5.211   1.367
  250TIP3    H2  757   3.498   5.264   1.507
  251TIP3   OH2  758   0.844   5.942   0.207
  251TIP3    H1  759   0.848   5.900   0.121
  251TIP3    H2  760   0.751   5.946   0.228
  252TIP3   OH2  761   4.713   5.501   3.886
  252TIP3    H1  762   4.667   5.429   3.843
  252TIP3    H2  763   4.760   5.459   3.959
  253TIP3   OH2  764   0.728   1.700   0.466
  253TIP3    H1  765   0.695   1.611   0.479
  253TIP3    H2  766   0.823   1.692   0.475
  254TIP3   OH2  767   1.614   5.670   0.382
  254TIP3    H1  768   1.649   5.582   0.364
  254TIP3    H2  769   1.659   5.697   0.462
  255TIP3   OH2  770   4.015   2.388   3.046
  255TIP3    H1  771   3.949   2.406   2.979
  255TIP3    H2  772   4.097   2.378   2.997
  256TIP3   OH2  773   0.642   0.196   3.718
  256TIP3    H1  774   0.737   0.205   3.729
  256TIP3    H2  775   0.605   0.273   3.762
  257TIP3   OH2  776   0.092   1.521   2.007
  257TIP3    H1  777   0.004   1.516   1.968
  257TIP3    H2  778   0.079   1.567   2.089
  258TIP3   OH2  779   5.152   2.716   2.846
  258TIP3    H1  780   5.183   2.625   2.840
  258TIP3    H2  781   5.061   2.712   2.818
  259TIP3   OH2  782   0.893   1.753   2.575
  259TIP3    H1  783   0.925   1.793   2.494
  259TIP3    H2  784   0.969   1.708   2.611
  260TIP3   OH2  785   2.987   5.623   3.004
  260TIP3    H1  786   3.008   5.687   3.072
  260TIP3    H2  787   3.050   5.640   2.934
  261TIP3   OH2  788   3.191   0.357   2.472
  261TIP3    H1  789   3.249   0.307   2.529
  261TIP3    H2  790   3.246   0.426   2.435
  262TIP3   OH2  791   2.015   2.860   4.288
  262TIP3    H1  792   1.952   2.929   4.268
  262TIP3    H2  793   1.992   2.789   4.229
  263TIP3   OH2  794   3.588   2.155   4.115
  263TIP3    H1  795   3.604   2.127   4.205
  263TIP3    H2  796   3.624   2.243   4.111
  264TIP3   OH2  797   1.077   2.489   4.806
  264TIP3    H1  798   1.050   2.436   4.880
  264TIP3    H2  799   1.172   2.498   4.815
  265TIP3   OH2  800   3.927   2.559   0.108
  265TIP3    H1  801   3.910   2.621   0.180
  265TIP3    H2  802   3.967   2.612   0.040
  266TIP3   OH2  803   6.059   1.686   0.010
  266TIP3    H1  804   5.982   1.641   0.045
  266TIP3    H2  805   6.120   1.689   0.083
  267TIP3   OH2  806   2.389   5.550   1.586
  267TIP3    H1  807   2.331   5.474   1.580
  267TIP3    H2  808   2.334   5.620   1.621
  268TIP3   OH2  809   2.455   1.844   1.984
  268TIP3    H1  810   2.402   1.773   2.020
  268TIP3    H2  811   2.430   1.921   2.036
  269TIP3   OH2  812   5.215   1.918   3.282
  269TIP3    H1  813   5.241   2.006   3.309
  269TIP3    H2  814   5.287   1.862   3.312
  270TIP3   OH2  815   0.948   0.088   1.240
  270TIP3    H1  816   0.908   0.150   1.300
  270TIP3    H2  817   0.986   0.020   1.296
  271TIP3   OH2  818   6.121   0.296   0.653
  271TIP3    H1  819   6.116   0.205   0.623
  271TIP3    H2  820   6.053   0.341   0.603
  272TIP3   OH2  821   1.412   3.931   4.386
  272TIP3    H1  822   1.374   3.900   4.303
  272TIP3    H2  823   1.503   3.952   4.365
  273TIP3   OH2  824   4.964   2.331   5.125
  273TIP3    H1  825   4.949   2.322   5.031
  273TIP3    H2  826   4.887   2.379   5.157
  274TIP3   OH2  827   1.812   0.325   4.818
  274TIP3    H1  828   1.761   0.291   4.744
  274TIP3    H2  829   1.757   0.393   4.855
  275TIP3   OH2  830   1.018   4.502   2.880
  275TIP3    H1  831   1.058   4.587   2.860
  275TIP3    H2  832   0.924   4.519   2.875
  276TIP3   OH2  833   4.290   5.063   5.119
  276TIP3    H1  834   4.345   5.109   5.182
  276TIP3    H2  835   4.231   5.130   5.085
  277TIP3   OH2  836   0.086   3.252   3.722
  277TIP3    H1  837   0.012   3.201   3.688
  277TIP3    H2  838   0.046   3.329   3.761
  278TIP3   OH2  839   5.734   3.473   1.142
  278TIP3    H1  840   5.679   3.461   1.066
  278TIP3    H2  841   5.807   3.527   1.111
  279TIP3   OH2  842   5.304   1.001   2.708
  279TIP3    H1  843   5.356   1.041   2.638
  279TIP3    H2  844   5.340   0.913   2.718
  280TIP3   OH2  845   5.535   5.935   1.348
  280TIP3    H1  846   5.595   5.864   1.325
  280TIP3    H2  847   5.502   5.966   1.264
  281TIP3   OH2  848   3.862   5.146   4.322
  281TIP3    H1  849   3.863   5.072   4.383
  281TIP3    H2  850   3.913   5.116   4.247
  282TIP3   OH2  851   1.622   3.684   3.895
  282TIP3    H1  852   1.600   3.592   3.908
  282TIP3    H2  853   1.680   3.706   3.968
  283TIP3   OH2  854   3.533   5.727   0.563
  283TIP3    H1  855   3.614   5.728   0.511
  283TIP3    H2  856   3.466   5.696   0.501
  284TIP3   OH2  857   1.819   2.202   1.283
  284TIP3    H1  858   1.864   2.118   1.281
  284TIP3    H2  859   1.865   2.252   1.350
  285TIP3   OH2  860   4.167   4.097   2.082
  285TIP3    H1  861   4.253   4.087   2.121
  285TIP3    H2  862   4.167   4.038   2.007
  286TIP3   OH2  863   3.503   0.503   3.612
  286TIP3    H1  864   3.526   0.583   3.659
  286TIP3    H2  865   3.421   0.524   3.567
  287TIP3   OH2  866   4.107   4.709   3.251
  287TIP3    H1  867   4.035   4.647   3.262
  287TIP3    H2  868   4.068   4.795   3.270
  288TIP3   OH2  869   6.000   2.194   2.885
  288TIP3    H1  870   5.928   2.131   2.894
  288TIP3    H2  871   6.077   2.141   2.867
  289TIP3   OH2  872   3.238   3.720   0.508
  289TIP3    H1  873   3.233   3.648   0.571
  289TIP3    H2  874   3.210   3.681   0.426
  290TIP3   OH2  875   2.559   1.994   3.908
  290TIP3    H1  876   2.608   1.923   3.948
  290TIP3    H2  877   2.552   1.970   3.816
  291TIP3   OH2  878   1.261   5.783   1.030
  291TIP3    H1  879   1.190   5.832   0.989
  291TIP3    H2  880   1.218   5.710   1.073
  292TIP3   OH2  881  -0.019   0.882   1.494
  292TIP3    H1  882   0.007   0.838   1.414
  292TIP3    H2  883  -0.102   0.841   1.519
  293TIP3   OH2  884   0.351   5.377   5.107
  293TIP3    H1  885   0.380   5.468   5.110
  293TIP3    H2  886   0.306   5.364   5.190
  294TIP3   OH2  887   3.928   5.953   3.045
  294TIP3    H1  888   3.909   5.902   3.124
  294TIP3    H2  889   3.847   6.001   3.027
  295TIP3   OH2  890   0.350   3.681   5.091
  295TIP3    H1  891   0.373   3.598   5.132
  295TIP3    H2  892   0.417   3.693   5.023
  296TIP3   OH2  893   0.788   4.543   2.694
  296TIP3    H1  894   0.765   4.549   2.787
  296TIP3    H2  895   0.704   4.553   2.649
  297TIP3   OH2  896   5.211   5.899   4.667
  297TIP3    H1  897   5.242   5.890   4.576
  297TIP3    H2  898   5.130   5.849   4.670
  298TIP3   OH2  899   0.660   2.956   0.070
  298TIP3    H1  900   0.581   2.939   0.018
  298TIP3    H2  901   0.732   2.949   0.008
  299TIP3   OH2  902   1.586   5.044   1.397
  299TIP3    H1  903   1.576   5.093   1.315
  299TIP3    H2  904   1.541   4.961   1.380
  300TIP3   OH2  905   3.520   4.352   1.301
  300TIP3    H1  906   3.449   4.384   1.356
  300TIP3    H2  907   3.500   4.259   1.289
  301TIP3   OH2  908   4.862   4.341   0.187
  301TIP3    H1  909   4.902   4.259   0.215
  301TIP3    H2  910   4.785   4.351   0.243
  302TIP3   OH2  911   5.573   0.594   2.565
  302TIP3    H1  912   5.534   0.681   2.577
  302TIP3    H2  913   5.649   0.593   2.623
  303TIP3   OH2  914   1.840   4.817   4.297
  303TIP3    H1  915   1.865   4.903   4.262
  303TIP3    H2  916   1.788   4.778   4.227
  304TIP3   OH2  917   5.690   5.702   3.280
  304TIP3    H1  918   5.642   5.622   3.260
  304TIP3    H2  919   5.632   5.751   3.337
  305TIP3   OH2  920   4.280   5.610   0.762
  305TIP3    H1  921   4.248   5.545   0.700
  305TIP3    H2  922   4.360   5.572   0.797
  306TIP3   OH2  923   2.494   0.624   3.244
  306TIP3    H1  924   2.404   0.594   3.255
  306TIP3    H2  925   2.488   0.719   3.252
  307TIP3   OH2  926   3.366   1.656   4.747
  307TIP3    H1  927   3.307   1.697   4.683
  307TIP3    H2  928   3.437   1.620   4.694
  308TIP3   OH2  929   3.937   5.601   5.115
  308TIP3    H1  930   3.966   5.546   5.188
  308TIP3    H2  931   4.013   5.656   5.095
  309TIP3   OH2  932   3.808   4.404   1.310
  309TIP3    H1  933   3.719   4.371   1.298
  309TIP3    H2  934   3.830   4.445   1.227
  310TIP3   OH2  935   2.329   1.775  -0.019
  310TIP3    H1  936   2.413   1.810  -0.050
  310TIP3    H2  937   2.352   1.724   0.059
  311TIP3   OH2  938   3.318   5.308   4.404
  311TIP3    H1  939   3.314   5.401   4.426
  311TIP3    H2  940   3.399   5.297   4.356
  312TIP3   OH2  941   1.115   4.909   2.353
  312TIP3    H1  942   1.175   4.984   2.353
  312TIP3    H2  943   1.057   4.925   2.427
  313TIP3   OH2  944   5.698   4.302   1.356
  313TIP3    H1  945   5.752   4.277   1.281
  313TIP3    H2  946   5.762   4.324   1.424
  314TIP3   OH2  947   0.849   0.725   3.430
  314TIP3    H1  948   0.923   0.774   3.392
  314TIP3    H2  949   0.808   0.786   3.491
  315TIP3   OH2  950   0.308   1.187   0.129
  315TIP3    H1  951   0.286   1.232   0.048
  315TIP3    H2  952   0.364   1.114   0.102
  316TIP3   OH2  953   0.769   3.091   4.998
  316TIP3    H1  954   0.788   3.080   4.905
  316TIP3    H2  955   0.680   3.057   5.008
  317TIP3   OH2  956   5.689   2.809   4.785
  317TIP3    H1  957   5.657   2.793   4.873
  317TIP3    H2  958   5.784   2.818   4.794
  318TIP3   OH2  959   2.137   5.550   2.678
  318TIP3    H1  960   2.144   5.457   2.702
  318TIP3    H2  961   2.200   5.594   2.736
  319TIP3   OH2  962   1.578   4.953   3.109
  319TIP3    H1  963   1.654   4.988   3.155
  319TIP3    H2  964   1.503   5.001   3.145
  320TIP3   OH2  965   5.319   3.608   1.131
  320TIP3    H1  966   5.378   3.564   1.193
  320TIP3    H2  967   5.376   3.640   1.062
  321TIP3   OH2  968   1.567   0.636   0.038
  321TIP3    H1  969   1.481   0.595   0.025
  321TIP3    H2  970   1.552   0.703   0.105
  322TIP3   OH2  971   6.325   3.047   3.115
  322TIP3    H1  972   6.299   2.968   3.067
  322TIP3    H2  973   6.257   3.058   3.182
  323TIP3   OH2  974   4.134   1.700   4.287
  323TIP3    H1  975   4.161   1.744   4.367
  323TIP3    H2  976   4.108   1.770   4.227
  324TIP3   OH2  977   3.542   0.537   0.749
  324TIP3    H1  978   3.490   0.460   0.772
  324TIP3    H2  979   3.503   0.608   0.800
  325TIP3   OH2  980   2.727   1.199   4.593
  325TIP3    H1  981   2.820   1.220   4.583
  325TIP3    H2  982   2.726   1.106   4.617
  326TIP3   OH2  983   3.141   2.163   2.485
  326TIP3    H1  984   3.096   2.160   2.570
  326TIP3    H2  985   3.073   2.142   2.421
  327TIP3   OH2  986   3.074   5.521   0.446
  327TIP3    H1  987   3.092   5.615   0.449
  327TIP3    H2  988   3.066   5.495   0.537
  328TIP3   OH2  989   0.072   0.796   1.237
  328TIP3    H1  990   0.151   0.839   1.269
  328TIP3    H2  991   0.050   0.843   1.157
  329TIP3   OH2  992   5.182   4.696   5.035
  329TIP3    H1  993   5.221   4.654   5.112
  329TIP3    H2  994   5.120   4.759   5.071
  330TIP3   OH2  995   3.701   2.153   3.554
  330TIP3    H1  996   3.737   2.066   3.573
  330TIP3    H2  997   3.732   2.174   3.466
  331TIP3   OH2  998   2.335   2.722   2.955
  331TIP3    H1  999   2.295   2.699   2.871
  331TIP3    H2 1000   2.313   2.815   2.967
  332TIP3   OH2 1001   4.094   2.075   0.910
  332TIP3    H1 1002   4.010   2.063   0.954
  332TIP3    H2 1003   4.098   2.169   0.892
  333TIP3   OH2 1004   4.807   0.959   1.163
  333TIP3    H1 1005   4.814   1.053   1.148
  333TIP3    H2 1006   4.876   0.940   1.227
  334TIP3   OH2 1007   3.878   0.092   1.366
  334TIP3    H1 1008   3.822   0.029   1.321
  334TIP3    H2 1009   3.962   0.086   1.320
  335TIP3   OH2 1010   0.692   0.689   4.063
  335TIP3    H1 1011   0.779   0.708   4.099
  335TIP3    H2 1012   0.666   0.606   4.105
  336TIP3   OH2 1013   2.720   5.196   2.512
  336TIP3    H1 1014   2.757   5.122   2.561
  336TIP3    H2 1015   2.665   5.156   2.445
  337TIP3   OH2 1016   0.392   3.501   0.838
  337TIP3    H1 1017   0.434   3.539   0.915
  337TIP3    H2 1018   0.460   3.499   0.771
  338TIP3   OH2 1019   3.512   2.699   4.605
  338TIP3    H1 1020   3.446   2.717   4.537
  338TIP3    H2 1021   3.527   2.605   4.599
  339TIP3   OH2 1022   3.095   0.787   2.666
  339TIP3    H1 1023   3.011   0.828   2.683
  339TIP3    H2 1024   3.074   0.707   2.618
  340TIP3   OH2 1025   0.876   0.063   0.373
  340TIP3    H1 1026   0.907   0.152   0.360
  340TIP3    H2 1027   0.865   0.055   0.468
  341TIP3   OH2 1028   2.848   0.655   2.825
  341TIP3    H1 1029   2.782   0.615   2.768
  341TIP3    H2 1030   2.847   0.748   2.800
  342TIP3   OH2 1031   1.009   0.676   0.952
  342TIP3    H1 1032   0.958   0.755   0.971
  342TIP3    H2 1033   0.970   0.608   1.006
  343TIP3   OH2 1034   6.331   4.935   0.775
  343TIP3    H1 1035   6.411   4.974   0.809
  343TIP3    H2 1036   6.288   4.896   0.852
  344TIP3   OH2 1037   4.964   1.025   4.667
  344TIP3    H1 1038   4.905   1.076   4.611
  344TIP3    H2 1039   5.027   1.088   4.701
  345TIP3   OH2 1040   0.316   5.165   4.926
  345TIP3    H1 1041   0.351   5.238   4.977
  345TIP3    H2 1042   0.301   5.096   4.990
  346TIP3   OH2 1043   3.414   0.955   4.978
  346TIP3    H1 1044   3.361   1.028   4.947
  346TIP3    H2 1045   3.359   0.912   5.044
  347TIP3   OH2 1046   1.168   3.185   4.428
  347TIP3    H1 1047   1.171   3.281   4.434
  347TIP3    H2 1048   1.260   3.159   4.419
  348TIP3   OH2 1049   4.650   1.920   2.380
  348TIP3    H1 1050   4.714   1.930   2.309
  348TIP3    H2 1051   4.678   1.842   2.428
  349TIP3   OH2 1052   5.591   3.153   0.678
  349TIP3    H1 1053   5.577   3.059   0.688
  349TIP3    H2 1054   5.622   3.164   0.588
  350TIP3   OH2 1055   2.548   5.750   1.862
  350TIP3    H1 1056   2.624   5.796   1.900
  350TIP3    H2 1057   2.533   5.677   1.922
  351TIP3   OH2 1058   5.391   4.593   4.803
  351TIP3    H1 1059   5.360   4.680   4.775
  351TIP3    H2 1060   5.327   4.532   4.765
  352TIP3   OH2 1061   4.368   4.658   0.734
  352TIP3    H1 1062   4.375   4.639   0.640
  352TIP3    H2 1063   4.458   4.659   0.765
  353TIP3   OH2 1064   3.696   2.369   1.605
  353TIP3    H1 1065   3.739   2.392   1.522
  353TIP3    H2 1066   3.637   2.442   1.622
  354TIP3   OH2 1067   4.851   5.438   4.124
  354TIP3    H1 1068   4.894   5.436   4.209
  354TIP3    H2 1069   4.907   5.495   4.071
  355TIP3   OH2 1070   1.311   4.114   2.192
  355TIP3    H1 1071   1.239   4.084   2.135
  355TIP3    H2 1072   1.269   4.129   2.277
  356TIP3   OH2 1073   5.212   1.941   3.691
  356TIP3    H1 1074   5.163   1.879   3.636
  356TIP3    H2 1075   5.299   1.903   3.699
  357TIP3   OH2 1076   2.344   1.315   3.119
  357TIP3    H1 1077   2.291   1.389   3.092
  357TIP3    H2 1078   2.420   1.354   3.162
  358TIP3   OH2 1079   4.435   5.340   0.487
  358TIP3    H1 1080   4.346   5.349   0.523
  358TIP3    H2 1081   4.460   5.250   0.509
  359TIP3   OH2 1082   4.107   1.352   3.528
  359TIP3    H1 1083   4.116   1.439   3.490
  359TIP3    H2 1084   4.068   1.299   3.459
  360TIP3   OH2 1085   3.180   1.079   2.225
  360TIP3    H1 1086   3.263   1.117   2.195
  360TIP3    H2 1087   3.149   1.139   2.293
  361TIP3   OH2 1088   2.312   1.104   1.220
  361TIP3    H1 1089   2.327   1.058   1.303
  361TIP3    H2 1090   2.400   1.116   1.184
  362TIP3   OH2 1091   3.765   1.269   2.441
  362TIP3    H1 1092   3.718   1.321   2.506
  362TIP3    H2 1093   3.784   1.331   2.370
  363TIP3   OH2 1094   6.060   4.399   0.740
  363TIP3    H1 1095   6.094   4.373   0.825
  363TIP3    H2 1096   6.111   4.477   0.716
  364TIP3   OH2 1097   1.761   1.456   2.946
  364TIP3    H1 1098   1.782   1.480   2.856
  364TIP3    H2 1099   1.839   1.411   2.978
  365TIP3   OH2 1100   3.059   5.663   4.645
  365TIP3    H1 1101   2.992   5.648   4.578
  365TIP3    H2 1102   3.047   5.755   4.670
  366TIP3   OH2 1103   3.145   3.614   4.309
  366TIP3    H1 1104   3.084   3.644   4.242
  366TIP3    H2 1105   3.093   3.558   4.366
  367TIP3   OH2 1106   0.923   2.417   2.999
  367TIP3    H1 1107   0.898   2.338   2.952
  367TIP3    H2 1108   0.943   2.387   3.088
  368TIP3   OH2 1109   2.047   4.155   2.127
  368TIP3    H1 1110   1.980   4.087   2.132
  368TIP3    H2 1111   2.021   4.209   2.053
  369TIP3   OH2 1112   5.581   2.705   3.155
  369TIP3    H1 1113   5.659   2.679   3.107
  369TIP3    H2 1114   5.552   2.786   3.113
  370TIP3   OH2 1115   6.334   4.631   4.602
  370TIP3    H1 1116   6.332   4.610   4.508
  370TIP3    H2 1117   6.284   4.561   4.643
  371TIP3   OH2 1118   3.071   1.034   4.096
  371TIP3    H1 1119   3.092   1.065   4.184
  371TIP3    H2 1120   3.038   0.945   4.109
  372TIP3   OH2 1121   4.354   3.004   2.623
  372TIP3    H1 1122   4.263   3.012   2.651
  372TIP3    H2 1123   4.380   2.917   2.652
  373TIP3   OH2 1124   6.229   5.254   4.943
  373TIP3    H1 1125   6.154   5.267   5.001
  373TIP3    H2 1126   6.284   5.331   4.957
  374TIP3   OH2 1127   3.712   1.234   1.351
  374TIP3    H1 1128   3.635   1.182   1.327
  374TIP3    H2 1129   3.693   1.265   1.439
  375TIP3   OH2 1130   0.213   2.917   3.937
  375TIP3    H1 1131   0.255   2.991   3.892
  375TIP3    H2 1132   0.173   2.957   4.014
  376TIP3   OH2 1133   3.959   4.480   3.186
  376TIP3    H1 1134   3.995   4.494   3.098
  376TIP3    H2 1135   3.937   4.387   3.188
  377TIP3   OH2 1136   4.872   2.425   4.134
  377TIP3    H1 1137   4.933   2.424   4.059
  377TIP3    H2 1138   4.802   2.365   4.108
  378TIP3   OH2 1139   5.024   5.289   3.744
  378TIP3    H1 1140   4.950   5.240   3.709
  378TIP3    H2 1141   5.044   5.245   3.827
  379TIP3   OH2 1142   4.911   1.275   1.841
  379TIP3    H1 1143   4.882   1.186   1.819
  379TIP3    H2 1144   4.935   1.314   1.758
  380TIP3   OH2 1145   2.505   3.245   4.570
  380TIP3    H1 1146   2.543   3.175   4.623
  380TIP3    H2 1147   2.554   3.243   4.489
  381TIP3   OH2 1148   2.045   2.364   4.094
  381TIP3    H1 1149   2.127   2.335   4.053
  381TIP3    H2 1150   1.977   2.340   4.031
  382TIP3   OH2 1151   1.042   0.432   2.831
  382TIP3    H1 1152   1.088   0.348   2.823
  382TIP3    H2 1153   1.023   0.458   2.741
  383TIP3   OH2 1154   2.371   1.974   4.383
  383TIP3    H1 1155   2.346   1.884   4.405
  383TIP3    H2 1156   2.293   2.026   4.402
  384TIP3   OH2 1157   6.300   1.344   3.709
  384TIP3    H1 1158   6.323   1.277   3.645
  384TIP3    H2 1159   6.362   1.415   3.693
  385TIP3   OH2 1160   0.969   2.463   0.704
  385TIP3    H1 1161   0.910   2.477   0.778
  385TIP3    H2 1162   0.913   2.467   0.627
  386TIP3   OH2 1163   3.530   1.370   0.720
  386TIP3    H1 1164   3.466   1.382   0.790
  386TIP3    H2 1165   3.612   1.348   0.765
  387TIP3   OH2 1166   4.690   4.031   4.726
  387TIP3    H1 1167   4.657   3.943   4.707
  387TIP3    H2 1168   4.773   4.017   4.772
  388TIP3   OH2 1169   6.005   4.291   4.177
  388TIP3    H1 1170   6.044   4.220   4.227
  388TIP3    H2 1171   5.916   4.299   4.210
  389TIP3   OH2 1172   3.580   2.866   4.247
  389TIP3    H1 1173   3.661   2.816   4.259
  389TIP3    H2 1174   3.511   2.800   4.251
  390TIP3   OH2 1175   3.746   5.780   4.336
  390TIP3    H1 1176   3.744   5.691   4.302
  390TIP3    H2 1177   3.819   5.822   4.291
  391TIP3   OH2 1178   5.306   0.392   2.321
  391TIP3    H1 1179   5.297   0.299   2.298
  391TIP3    H2 1180   5.260   0.438   2.251
  392TIP3   OH2 1181   2.456   3.332   2.537
  392TIP3    H1 1182   2.533   3.325   2.481
  392TIP3    H2 1183   2.382   3.334   2.475
  393TIP3   OH2 1184   5.006   2.482   1.028
  393TIP3    H1 1185   5.027   2.398   0.986
  393TIP3    H2 1186   4.974   2.457   1.115
  394TIP3   OH2 1187   4.596   2.353   2.166
  394TIP3    H1 1188   4.647   2.282   2.207
  394TIP3    H2 1189   4.584   2.325   2.076
  395TIP3   OH2 1190   3.989   2.610   3.553
  395TIP3    H1 1191   3.994   2.562   3.636
  395TIP3    H2 1192   3.924   2.562   3.502
  396TIP3   OH2 1193   0.134   3.130   0.380
  396TIP3    H1 1194   0.140   3.042   0.418
  396TIP3    H2 1195   0.126   3.189   0.455
  397TIP3   OH2 1196   4.092   5.085   4.659
  397TIP3    H1 1197   4.187   5.076   4.658
  397TIP3    H2 1198   4.076   5.179   4.665
  398TIP3   OH2 1199   5.618   4.476   3.894
  398TIP3    H1 1200   5.527   4.459   3.920
  398TIP3    H2 1201   5.668   4.411   3.943
  399TIP3   OH2 1202   3.598   2.385   2.591
  399TIP3    H1 1203   3.694   2.388   2.585
  399TIP3    H2 1204   3.580   2.366   2.683
  400TIP3   OH2 1205   4.870   4.094   2.494
  400TIP3    H1 1206   4.788   4.055   2.463
  400TIP3    H2 1207   4.903   4.142   2.419
  401TIP3   OH2 1208   3.383   2.155   2.652
  401TIP3    H1 1209   3.343   2.161   2.565
  401TIP3    H2 1210   3.311   2.174   2.713
  402TIP3   OH2 1211   2.154   4.669   2.315
  402TIP3    H1 1212   2.174   4.746   2.262
  402TIP3    H2 1213   2.145   4.598   2.252
  403TIP3   OH2 1214   2.060   1.427   1.632
  403TIP3    H1 1215   2.092   1.385   1.552
  403TIP3    H2 1216   2.078   1.362   1.701
  404TIP3   OH2 1217   4.378   1.291   3.517
  404TIP3    H1 1218   4.412   1.286   3.606
  404TIP3    H2 1219   4.292   1.332   3.526
  405TIP3   OH2 1220   3.588   0.433   0.393
  405TIP3    H1 1221   3.520   0.373   0.423
  405TIP3    H2 1222   3.567   0.517   0.435
  406TIP3   OH2 1223   5.870   2.935   4.445
  406TIP3    H1 1224   5.905   2.981   4.521
  406TIP3    H2 1225   5.849   2.848   4.477
  407TIP3   OH2 1226   3.790   0.120   0.612
  407TIP3    H1 1227   3.694   0.120   0.618
  407TIP3    H2 1228   3.808   0.094   0.521
  408TIP3   OH2 1229   2.612   1.062   2.766
  408TIP3    H1 1230   2.588   0.969   2.763
  408TIP3    H2 1231   2.602   1.093   2.676
  409TIP3   OH2 1232   1.222   1.824   4.991
  409TIP3    H1 1233   1.311   1.842   4.962
  409TIP3    H2 1234   1.167   1.861   4.921
  410TIP3   OH2 1235   4.002   3.085   2.529
  410TIP3    H1 1236   3.924   3.140   2.522
  410TIP3    H2 1237   4.032   3.075   2.438
  411TIP3   OH2 1238   5.175   0.465   4.308
  411TIP3    H1 1239   5.265   0.492   4.293
  411TIP3    H2 1240   5.175   0.428   4.397
  412TIP3   OH2 1241   0.971   2.806   1.562
  412TIP3    H1 1242   1.067   2.810   1.563
  412TIP3    H2 1243   0.951   2.713   1.563
  413TIP3   OH2 1244   1.160   0.179   3.151
  413TIP3    H1 1245   1.093   0.156   3.087
  413TIP3    H2 1246   1.213   0.245   3.108
  414TIP3   OH2 1247   5.195   0.383   4.567
  414TIP3    H1 1248   5.230   0.430   4.642
  414TIP3    H2 1249   5.124   0.329   4.602
  415TIP3   OH2 1250   6.105   3.693   4.321
  415TIP3    H1 1251   6.185   3.715   4.369
  415TIP3    H2 1252   6.112   3.599   4.305
  416TIP3   OH2 1253   5.189   3.064   4.061
  416TIP3    H1 1254   5.208   2.989   4.006
  416TIP3    H2 1255   5.272   3.110   4.068
  417TIP3   OH2 1256   0.612   5.988   4.337
  417TIP3    H1 1257   0.525   5.948   4.341
  417TIP3    H2 1258   0.650   5.970   4.423
  418TIP3   OH2 1259   1.505   0.998   1.217
  418TIP3    H1 1260   1.454   0.958   1.146
  418TIP3    H2 1261   1.529   0.925   1.273
  419TIP3   OH2 1262   3.792   1.886   3.592
  419TIP3    H1 1263   3.826   1.839   3.516
  419TIP3    H2 1264   3.843   1.852   3.666
  420TIP3   OH2 1265   5.471   1.970   4.772
  420TIP3    H1 1266   5.490   2.055   4.733
  420TIP3    H2 1267   5.410   1.929   4.711
  421TIP3   OH2 1268   2.846   0.909   3.543
  421TIP3    H1 1269   2.810   0.831   3.501
  421TIP3    H2 1270   2.863   0.882   3.633
  422TIP3   OH2 1271   1.392   2.429   0.161
  422TIP3    H1 1272   1.383   2.486   0.084
  422TIP3    H2 1273   1.303   2.397   0.177
  423TIP3   OH2 1274   5.454   1.386   1.770
  423TIP3    H1 1275   5.446   1.463   1.714
  423TIP3    H2 1276   5.522   1.333   1.729
  424TIP3   OH2 1277   5.679   4.137   2.680
  424TIP3    H1 1278   5.610   4.115   2.616
  424TIP3    H2 1279   5.726   4.054   2.693
  425TIP3   OH2 1280   1.426   1.778   3.772
  425TIP3    H1 1281   1.442   1.820   3.687
  425TIP3    H2 1282   1.442   1.847   3.836
  426TIP3   OH2 1283   0.059   0.145   4.542
  426TIP3    H1 1284  -0.001   0.118   4.611
  426TIP3    H2 1285   0.135   0.178   4.588
  427TIP3   OH2 1286   0.651   3.807   0.610
  427TIP3    H1 1287   0.680   3.781   0.523
  427TIP3    H2 1288   0.677   3.734   0.667
  428TIP3   OH2 1289   5.042   4.851   4.141
  428TIP3    H1 1290   5.103   4.838   4.068
  428TIP3    H2 1291   5.075   4.794   4.210
  429TIP3   OH2 1292   2.054   2.615   4.730
  429TIP3    H1 1293   1.987   2.574   4.785
  429TIP3    H2 1294   2.007   2.682   4.681
  430TIP3   OH2 1295   5.711   5.047   3.356
  430TIP3    H1 1296   5.778   5.063   3.289
  430TIP3    H2 1297   5.642   5.000   3.309
  431TIP3   OH2 1298   4.377   3.029   4.271
  431TIP3    H1 1299   4.315   2.971   4.228
  431TIP3    H2 1300   4.420   2.973   4.336
  432TIP3   OH2 1301   0.487   0.051   4.785
  432TIP3    H1 1302   0.539  -0.016   4.829
  432TIP3    H2 1303   0.500   0.131   4.836
  433TIP3   OH2 1304   1.716   1.012  -0.034
  433TIP3    H1 1305   1.764   0.949   0.020
  433TIP3    H2 1306   1.624   0.998  -0.010
  434TIP3   OH2 1307   1.796   4.225   5.021
  434TIP3    H1 1308   1.701   4.239   5.016
  434TIP3    H2 1309   1.806   4.156   5.087
  435TIP3   OH2 1310   2.573   0.371   2.831
  435TIP3    H1 1311   2.566   0.385   2.736
  435TIP3    H2 1312   2.534   0.449   2.870
  436TIP3   OH2 1313   4.649   3.755   4.675
  436TIP3    H1 1314   4.578   3.700   4.710
  436TIP3    H2 1315   4.686   3.703   4.603
  437TIP3   OH2 1316   3.517   2.648   3.146
  437TIP3    H1 1317   3.462   2.714   3.103
  437TIP3    H2 1318   3.479   2.564   3.119
  438TIP3   OH2 1319   0.726   5.305   1.575
  438TIP3    H1 1320   0.657   5.317   1.509
  438TIP3    H2 1321   0.759   5.217   1.558
  439TIP3   OH2 1322   1.986   5.902   4.069
  439TIP3    H1 1323   2.002   5.979   4.014
  439TIP3    H2 1324   2.000   5.933   4.158
  440TIP3   OH2 1325   4.138   1.873   4.044
  440TIP3    H1 1326   4.126   1.921   4.127
  440TIP3    H2 1327   4.139   1.942   3.977
  441TIP3   OH2 1328   6.183   0.430   2.225
  441TIP3    H1 1329   6.236   0.441   2.146
  441TIP3    H2 1330   6.102   0.477   2.206
  442TIP3   OH2 1331   4.175   3.547   4.240
  442TIP3    H1 1332   4.223   3.610   4.186
  442TIP3    H2 1333   4.229   3.469   4.241
  443TIP3   OH2 1334   6.113   3.131   4.313
  443TIP3    H1 1335   6.090   3.123   4.221
  443TIP3    H2 1336   6.197   3.085   4.321
  444TIP3   OH2 1337   3.004   3.760   1.206
  444TIP3    H1 1338   2.973   3.697   1.141
  444TIP3    H2 1339   3.015   3.841   1.157
  445TIP3   OH2 1340   5.324   2.297   2.683
  445TIP3    H1 1341   5.259   2.248   2.633
  445TIP3    H2 1342   5.273   2.345   2.749
  446TIP3   OH2 1343   6.317   4.622   4.342
  446TIP3    H1 1344   6.411   4.622   4.324
  446TIP3    H2 1345   6.277   4.643   4.258
  447TIP3   OH2 1346   1.970   5.478   2.134
  447TIP3    H1 1347   1.901   5.465   2.200
  447TIP3    H2 1348   1.935   5.438   2.054
  448TIP3   OH2 1349   1.705   5.815   0.612
  448TIP3    H1 1350   1.661   5.888   0.656
  448TIP3    H2 1351   1.758   5.774   0.681
  449TIP3   OH2 1352   3.090   0.560   4.059
  449TIP3    H1 1353   3.155   0.630   4.063
  449TIP3    H2 1354   3.141   0.479   4.067
  450TIP3   OH2 1355   0.496   2.759   3.194
  450TIP3    H1 1356   0.473   2.747   3.102
  450TIP3    H2 1357   0.411   2.765   3.239
  451TIP3   OH2 1358   3.770   2.128   1.407
  451TIP3    H1 1359   3.719   2.109   1.485
  451TIP3    H2 1360   3.812   2.045   1.384
  452TIP3   OH2 1361   0.997   3.572   0.868
  452TIP3    H1 1362   1.075   3.582   0.923
  452TIP3    H2 1363   0.940   3.513   0.918
  453TIP3   OH2 1364   0.376   1.349   0.580
  453TIP3    H1 1365   0.437   1.299   0.635
  453TIP3    H2 1366   0.295   1.353   0.631
  454TIP3   OH2 1367   1.520   5.443   3.926
  454TIP3    H1 1368   1.572   5.403   3.856
  454TIP3    H2 1369   1.442   5.477   3.881
  455TIP3   OH2 1370   1.929   3.537   0.156
  455TIP3    H1 1371   1.973   3.606   0.106
  455TIP3    H2 1372   1.839   3.568   0.167
  456TIP3   OH2 1373   2.645   1.978   4.313
  456TIP3    H1 1374   2.550   1.970   4.321
  456TIP3    H2 1375   2.670   1.909   4.251
  457TIP3   OH2 1376   4.832   5.638   0.722
  457TIP3    H1 1377   4.908   5.666   0.773
  457TIP3    H2 1378   4.758   5.643   0.784
  458TIP3   OH2 1379   0.152   5.610   1.707
  458TIP3    H1 1380   0.219   5.644   1.647
  458TIP3    H2 1381   0.083   5.577   1.649
  459TIP3   OH2 1382   5.963   0.968   0.992
  459TIP3    H1 1383   6.025   0.895   0.979
  459TIP3    H2 1384   5.898   0.933   1.053
  460TIP3   OH2 1385   1.716   2.528   3.521
  460TIP3    H1 1386   1.688   2.617   3.544
  460TIP3    H2 1387   1.650   2.498   3.459
  461TIP3   OH2 1388   5.246   5.633   4.315
  461TIP3    H1 1389   5.340   5.624   4.294
  461TIP3    H2 1390   5.215   5.702   4.256
  462TIP3   OH2 1391   5.950   3.137  -0.022
  462TIP3    H1 1392   6.007   3.161   0.051
  462TIP3    H2 1393   5.952   3.214  -0.079
  463TIP3   OH2 1394   3.100   2.912   3.641
  463TIP3    H1 1395   3.103   2.817   3.651
  463TIP3    H2 1396   3.183   2.943   3.677
  464TIP3   OH2 1397   2.454   4.833   0.817
  464TIP3    H1 1398   2.451   4.867   0.906
  464TIP3    H2 1399   2.407   4.750   0.820
  465TIP3   OH2 1400   6.238   2.108   0.409
  465TIP3    H1 1401   6.190   2.107   0.492
  465TIP3    H2 1402   6.330   2.100   0.435
  466TIP3   OH2 1403   2.062   3.953   4.938
  466TIP3    H1 1404   2.099   3.998   5.014
  466TIP3    H2 1405   2.051   3.862   4.968
  467TIP3   OH2 1406   1.837  -0.009   4.087
  467TIP3    H1 1407   1.776   0.022   4.154
  467TIP3    H2 1408   1.782  -0.024   4.010
  468TIP3   OH2 1409   0.493   3.560   4.835
  468TIP3    H1 1410   0.515   3.652   4.825
  468TIP3    H2 1411   0.538   3.532   4.915
  469TIP3   OH2 1412   1.009   5.906   2.979
  469TIP3    H1 1413   1.011   5.846   2.903
  469TIP3    H2 1414   1.032   5.991   2.942
  470TIP3   OH2 1415   3.956   4.155   1.388
  470TIP3    H1 1416   3.950   4.248   1.367
  470TIP3    H2 1417   3.871   4.118   1.362
  471TIP3   OH2 1418   2.727   3.484   2.701
  471TIP3    H1 1419   2.750   3.403   2.656
  471TIP3    H2 1420   2.809   3.533   2.706
  472TIP3   OH2 1421   1.702   0.125   1.534
  472TIP3    H1 1422   1.697   0.072   1.455
  472TIP3    H2 1423   1.613   0.122   1.570
  473TIP3   OH2 1424   5.083   2.589   4.913
  473TIP3    H1 1425   5.031   2.548   4.844
  473TIP3    H2 1426   5.171   2.552   4.902
  474TIP3   OH2 1427   0.858   4.027   3.364
  474TIP3    H1 1428   0.851   3.953   3.304
  474TIP3    H2 1429   0.768   4.049   3.386
  475TIP3   OH2 1430   2.170   1.748   2.476
  475TIP3    H1 1431   2.195   1.750   2.384
  475TIP3    H2 1432   2.163   1.654   2.497
  476TIP3   OH2 1433   0.315   3.493   1.321
  476TIP3    H1 1434   0.252   3.500   1.393
  476TIP3    H2 1435   0.295   3.409   1.279
  477TIP3   OH2 1436   3.180   1.942   4.763
  477TIP3    H1 1437   3.170   2.035   4.742
  477TIP3    H2 1438   3.091   1.912   4.783
  478TIP3   OH2 1439   1.356   2.259   0.501
  478TIP3    H1 1440   1.378   2.320   0.571
  478TIP3    H2 1441   1.270   2.286   0.470
  479TIP3   OH2 1442   0.915   4.029   3.657
  479TIP3    H1 1443   0.931   4.123   3.668
  479TIP3    H2 1444   0.900   4.017   3.564
  480TIP3   OH2 1445   0.673   1.067   4.749
  480TIP3    H1 1446   0.731   1.139   4.775
  480TIP3    H2 1447   0.619   1.051   4.826
  481TIP3   OH2 1448   3.009   3.653   2.700
  481TIP3    H1 1449   3.016   3.740   2.738
  481TIP3    H2 1450   3.075   3.601   2.746
  482TIP3   OH2 1451   2.511   1.539   3.297
  482TIP3    H1 1452   2.555   1.606   3.349
  482TIP3    H2 1453   2.497   1.580   3.212
  483TIP3   OH2 1454   0.228   1.664   0.700
  483TIP3    H1 1455   0.138   1.632   0.695
  483TIP3    H2 1456   0.249   1.665   0.794
  484TIP3   OH2 1457   4.744   2.886   2.392
  484TIP3    H1 1458   4.762   2.973   2.429
  484TIP3    H2 1459   4.703   2.905   2.307
  485TIP3   OH2 1460   1.499   1.828   2.130
  485TIP3    H1 1461   1.463   1.758   2.075
  485TIP3    H2 1462   1.440   1.832   2.205
  486TIP3   OH2 1463   1.123   0.684   3.249
  486TIP3    H1 1464   1.084   0.631   3.319
  486TIP3    H2 1465   1.217   0.669   3.257
  487TIP3   OH2 1466   1.580   1.173   1.697
  487TIP3    H1 1467   1.539   1.091   1.725
  487TIP3    H2 1468   1.511   1.220   1.650
  488TIP3   OH2 1469   1.311   1.885   4.017
  488TIP3    H1 1470   1.307   1.943   3.942
  488TIP3    H2 1471   1.222   1.851   4.026
  489TIP3   OH2 1472   4.160   0.650   4.229
  489TIP3    H1 1473   4.135   0.738   4.258
  489TIP3    H2 1474   4.225   0.665   4.161
  490TIP3   OH2 1475   1.817   4.173   1.759
  490TIP3    H1 1476   1.866   4.091   1.754
  490TIP3    H2 1477   1.875   4.233   1.805
  491TIP3   OH2 1478   6.345   4.836   3.886
  491TIP3    H1 1479   6.276   4.861   3.826
  491TIP3    H2 1480   6.393   4.918   3.903
  492TIP3   OH2 1481   5.676   4.722   2.155
  492TIP3    H1 1482   5.751   4.663   2.151
  492TIP3    H2 1483   5.677   4.757   2.244
  493TIP3   OH2 1484   2.325   0.597   3.940
  493TIP3    H1 1485   2.351   0.551   3.860
  493TIP3    H2 1486   2.272   0.534   3.988
  494TIP3   OH2 1487   0.558   4.667   2.555
  494TIP3    H1 1488   0.549   4.730   2.626
  494TIP3    H2 1489   0.469   4.634   2.541
  495TIP3   OH2 1490   0.771   2.766   0.257
  495TIP3    H1 1491   0.849   2.735   0.210
  495TIP3    H2 1492   0.730   2.827   0.197
  496TIP3   OH2 1493   2.826   4.006   0.529
  496TIP3    H1 1494   2.767   4.072   0.492
  496TIP3    H2 1495   2.830   4.027   0.622
  497TIP3   OH2 1496   1.249   1.736   1.856
  497TIP3    H1 1497   1.267   1.754   1.763
  497TIP3    H2 1498   1.330   1.698   1.889
  498TIP3   OH2 1499   0.492   3.321   2.794
  498TIP3    H1 1500   0.468   3.296   2.883
  498TIP3    H2 1501   0.585   3.303   2.788
  499TIP3   OH2 1502   0.734   5.610   0.645
  499TIP3    H1 1503   0.738   5.678   0.578
  499TIP3    H2 1504   0.645   5.575   0.638
  500TIP3   OH2 1505   3.676   4.373   1.685
  500TIP3    H1 1506   3.755   4.427   1.685
  500TIP3    H2 1507   3.699   4.297   1.631
  501TIP3   OH2 1508   1.850   0.265   1.310
  501TIP3    H1 1509   1.792   0.311   1.371
  501TIP3    H2 1510   1.886   0.193   1.361
  502TIP3   OH2 1511   6.000   2.068   0.033
  502TIP3    H1 1512   6.017   2.074  -0.061
  502TIP3    H2 1513   5.918   2.116   0.045
  503TIP3   OH2 1514   3.567   5.109   0.656
  503TIP3    H1 1515   3.578   5.126   0.750
  503TIP3    H2 1516   3.563   5.196   0.616
  504TIP3   OH2 1517   1.597   3.965   4.735
  504TIP3    H1 1518   1.689   3.969   4.758
  504TIP3    H2 1519   1.579   4.048   4.691
  505TIP3   OH2 1520   2.238   3.173   0.771
  505TIP3    H1 1521   2.175   3.226   0.820
  505TIP3    H2 1522   2.194   3.154   0.688
  506TIP3   OH2 1523   0.233   3.226   1.185
  506TIP3    H1 1524   0.217   3.250   1.094
  506TIP3    H2 1525   0.315   3.178   1.183
  507TIP3   OH2 1526   2.435   2.824   1.681
  507TIP3    H1 1527   2.383   2.799   1.604
  507TIP3    H2 1528   2.453   2.741   1.726
  508TIP3   OH2 1529   0.434   5.182   0.191
  508TIP3    H1 1530   0.436   5.140   0.277
  508TIP3    H2 1531   0.360   5.141   0.146
  509TIP3   OH2 1532   5.241   0.965   3.241
  509TIP3    H1 1533   5.258   0.873   3.223
  509TIP3    H2 1534   5.325   1.009   3.222
  510TIP3   OH2 1535   3.701   5.247   2.368
  510TIP3    H1 1536   3.634   5.199   2.416
  510TIP3    H2 1537   3.665   5.335   2.358
  511TIP3   OH2 1538   5.272   3.749   1.596
  511TIP3    H1 1539   5.242   3.739   1.506
  511TIP3    H2 1540   5.251   3.666   1.638
  512TIP3   OH2 1541   1.891   0.554   0.992
  512TIP3    H1 1542   1.849   0.640   0.993
  512TIP3    H2 1543   1.985   0.574   0.998
  513TIP3   OH2 1544   3.532   0.699   1.352
  513TIP3    H1 1545   3.530   0.612   1.314
  513TIP3    H2 1546   3.595   0.748   1.299
  514TIP3   OH2 1547   3.714   3.139   2.798
  514TIP3    H1 1548   3.623   3.169   2.789
  514TIP3    H2 1549   3.767   3.210   2.762
  515TIP3   OH2 1550   2.857   4.927   0.122
  515TIP3    H1 1551   2.777   4.906   0.074
  515TIP3    H2 1552   2.835   4.912   0.214
  516TIP3   OH2 1553   1.023   4.968   0.252
  516TIP3    H1 1554   0.989   4.954   0.341
  516TIP3    H2 1555   1.114   4.941   0.257
  517TIP3   OH2 1556   2.751   2.361   0.344
  517TIP3    H1 1557   2.822   2.400   0.395
  517TIP3    H2 1558   2.703   2.435   0.308
  518TIP3   OH2 1559   5.414   0.694   0.232
  518TIP3    H1 1560   5.457   0.608   0.231
  518TIP3    H2 1561   5.437   0.730   0.318
  519TIP3   OH2 1562   0.503   5.609   3.313
  519TIP3    H1 1563   0.480   5.668   3.240
  519TIP3    H2 1564   0.419   5.583   3.349
  520TIP3   OH2 1565   5.949   5.996   1.265
  520TIP3    H1 1566   6.044   5.994   1.255
  520TIP3    H2 1567   5.925   5.905   1.282
  521TIP3   OH2 1568   0.063   3.307   2.964
  521TIP3    H1 1569   0.125   3.353   3.020
  521TIP3    H2 1570   0.034   3.232   3.016
  522TIP3   OH2 1571   5.458   2.561   3.575
  522TIP3    H1 1572   5.395   2.496   3.544
  522TIP3    H2 1573   5.541   2.533   3.536
  523TIP3   OH2 1574   5.161   0.290   0.212
  523TIP3    H1 1575   5.147   0.376   0.172
  523TIP3    H2 1576   5.196   0.310   0.299
  524TIP3   OH2 1577   5.806   4.401   0.880
  524TIP3    H1 1578   5.844   4.475   0.927
  524TIP3    H2 1579   5.844   4.405   0.793
  525TIP3   OH2 1580   3.371   4.236   2.163
  525TIP3    H1 1581   3.305   4.200   2.104
  525TIP3    H2 1582   3.343   4.327   2.178
  526TIP3   OH2 1583   0.590   2.974   0.733
  526TIP3    H1 1584   0.494   2.973   0.732
  526TIP3    H2 1585   0.615   2.909   0.667
  527TIP3   OH2 1586   4.976   0.127   4.544
  527TIP3    H1 1587   4.966   0.184   4.621
  527TIP3    H2 1588   4.894   0.137   4.496
  528TIP3   OH2 1589   2.183   2.648   0.040
  528TIP3    H1 1590   2.128   2.675  -0.033
  528TIP3    H2 1591   2.269   2.633   0.002
  529TIP3   OH2 1592   5.332   5.327   1.814
  529TIP3    H1 1593   5.390   5.342   1.739
  529TIP3    H2 1594   5.356   5.396   1.876
  530TIP3   OH2 1595   3.392   2.569   0.452
  530TIP3    H1 1596   3.445   2.512   0.397
  530TIP3    H2 1597   3.429   2.656   0.440
  531TIP3   OH2 1598   0.553   0.942   4.091
  531TIP3    H1 1599   0.504   0.954   4.009
  531TIP3    H2 1600   0.595   0.857   4.082
  532TIP3   OH2 1601   5.616   3.706   3.551
  532TIP3    H1 1602   5.539   3.652   3.537
  532TIP3    H2 1603   5.581   3.789   3.585
  533TIP3   OH2 1604   0.947   3.754   2.067
  533TIP3    H1 1605   0.962   3.695   1.993
  533TIP3    H2 1606   1.035   3.784   2.091
  534TIP3   OH2 1607   5.994   0.177   2.671
  534TIP3    H1 1608   6.070   0.127   2.641
  534TIP3    H2 1609   5.979   0.241   2.602
  535TIP3   OH2 1610   4.407   6.009   3.666
  535TIP3    H1 1611   4.494   6.010   3.705
  535TIP3    H2 1612   4.349   5.985   3.738
  536TIP3   OH2 1613   4.233   4.168   5.163
  536TIP3    H1 1614   4.150   4.214   5.177
  536TIP3    H2 1615   4.208   4.088   5.117
  537TIP3   OH2 1616   3.884   0.360   5.036
  537TIP3    H1 1617   3.865   0.323   4.949
  537TIP3    H2 1618   3.966   0.406   5.024
  538TIP3   OH2 1619   3.972   2.414   0.412
  538TIP3    H1 1620   3.968   2.386   0.320
  538TIP3    H2 1621   4.064   2.400   0.437
  539TIP3   OH2 1622   3.538   1.431   1.210
  539TIP3    H1 1623   3.615   1.436   1.267
  539TIP3    H2 1624   3.472   1.387   1.262
  540TIP3   OH2 1625   6.023   3.806   3.910
  540TIP3    H1 1626   6.112   3.819   3.943
  540TIP3    H2 1627   6.036   3.772   3.822
  541TIP3   OH2 1628   5.465   0.944   2.429
  541TIP3    H1 1629   5.399   0.908   2.371
  541TIP3    H2 1630   5.511   1.009   2.376
  542TIP3   OH2 1631   0.853   1.267   1.972
  542TIP3    H1 1632   0.916   1.331   1.939
  542TIP3    H2 1633   0.859   1.275   2.067
  543TIP3   OH2 1634   3.311   1.872   0.442
  543TIP3    H1 1635   3.377   1.807   0.464
  543TIP3    H2 1636   3.342   1.952   0.484
  544TIP3   OH2 1637   0.238   4.496   1.690
  544TIP3    H1 1638   0.152   4.522   1.721
  544TIP3    H2 1639   0.278   4.578   1.659
  545TIP3   OH2 1640   2.803   1.568   4.906
  545TIP3    H1 1641   2.810   1.512   4.983
  545TIP3    H2 1642   2.719   1.543   4.867
  546TIP3   OH2 1643   6.128   5.636   0.031
  546TIP3    H1 1644   6.132   5.709   0.093
  546TIP3    H2 1645   6.220   5.616   0.011
  547TIP3   OH2 1646   5.416   2.165   1.740
  547TIP3    H1 1647   5.490   2.168   1.679
  547TIP3    H2 1648   5.397   2.257   1.760
  548TIP3   OH2 1649   5.582   5.991   0.146
  548TIP3    H1 1650   5.568   6.069   0.092
  548TIP3    H2 1651   5.515   5.996   0.213
  549TIP3   OH2 1652   4.991   4.274   4.699
  549TIP3    H1 1653   4.999   4.300   4.791
  549TIP3    H2 1654   4.897   4.272   4.683
  550TIP3   OH2 1655   5.257   0.115   2.350
  550TIP3    H1 1656   5.197   0.165   2.405
  550TIP3    H2 1657   5.200   0.076   2.283
  551TIP3   OH2 1658   5.246   3.256   0.654
  551TIP3    H1 1659   5.266   3.323   0.719
  551TIP3    H2 1660   5.312   3.270   0.585
  552TIP3   OH2 1661   2.541   3.993   1.331
  552TIP3    H1 1662   2.541   4.057   1.260
  552TIP3    H2 1663   2.482   4.030   1.397
  553TIP3   OH2 1664   3.967   2.573   4.909
  553TIP3    H1 1665   4.002   2.578   4.998
  553TIP3    H2 1666   3.888   2.520   4.916
  554TIP3   OH2 1667   2.554   4.767   4.312
  554TIP3    H1 1668   2.539   4.824   4.388
  554TIP3    H2 1669   2.601   4.822   4.249
  555TIP3   OH2 1670   4.256   1.206   1.503
  555TIP3    H1 1671   4.274   1.151   1.578
  555TIP3    H2 1672   4.161   1.223   1.507
  556TIP3   OH2 1673   5.962   1.411   0.222
  556TIP3    H1 1674   5.908   1.340   0.185
  556TIP3    H2 1675   6.043   1.368   0.249
  557TIP3   OH2 1676   1.333   2.528   1.728
  557TIP3    H1 1677   1.272   2.600   1.741
  557TIP3    H2 1678   1.284   2.464   1.676
  558TIP3   OH2 1679   2.991   0.209   0.734
  558TIP3    H1 1680   2.901   0.193   0.764
  558TIP3    H2 1681   2.990   0.186   0.642
  559TIP3   OH2 1682   3.740   0.086   2.630
  559TIP3    H1 1683   3.823   0.094   2.676
  559TIP3    H2 1684   3.709  -0.003   2.652
  560TIP3   OH2 1685   3.660   2.719   4.835
  560TIP3    H1 1686   3.609   2.670   4.771
  560TIP3    H2 1687   3.751   2.711   4.805
  561TIP3   OH2 1688   1.007   0.430   1.714
  561TIP3    H1 1689   0.944   0.468   1.653
  561TIP3    H2 1690   1.045   0.505   1.759
  562TIP3   OH2 1691   5.341   4.297   0.373
  562TIP3    H1 1692   5.422   4.249   0.355
  562TIP3    H2 1693   5.297   4.246   0.441
  563TIP3   OH2 1694   6.330   0.645   3.609
  563TIP3    H1 1695   6.311   0.571   3.551
  563TIP3    H2 1696   6.244   0.675   3.638
  564TIP3   OH2 1697   0.694   0.497   1.370
  564TIP3    H1 1698   0.604   0.487   1.402
  564TIP3    H2 1699   0.735   0.556   1.434
  565TIP3   OH2 1700   6.048   1.640   0.891
  565TIP3    H1 1701   5.958   1.612   0.876
  565TIP3    H2 1702   6.048   1.733   0.869
  566TIP3   OH2 1703   1.741   2.397   5.058
  566TIP3    H1 1704   1.646   2.410   5.052
  566TIP3    H2 1705   1.757   2.315   5.011
  567TIP3   OH2 1706   3.115   2.862   0.677
  567TIP3    H1 1707   3.098   2.888   0.587
  567TIP3    H2 1708   3.167   2.782   0.670
  568TIP3   OH2 1709   6.006   2.635   1.743
  568TIP3    H1 1710   6.047   2.617   1.659
  568TIP3    H2 1711   5.988   2.549   1.781
  569TIP3   OH2 1712   4.822   4.650   3.581
  569TIP3    H1 1713   4.772   4.655   3.500
  569TIP3    H2 1714   4.853   4.559   3.585
  570TIP3   OH2 1715   3.255   0.749   4.675
  570TIP3    H1 1716   3.345   0.754   4.641
  570TIP3    H2 1717   3.201   0.738   4.597
  571TIP3   OH2 1718   4.104   5.257   3.326
  571TIP3    H1 1719   4.029   5.314   3.340
  571TIP3    H2 1720   4.175   5.297   3.376
  572TIP3   OH2 1721   2.677   2.801   4.652
  572TIP3    H1 1722   2.738   2.765   4.716
  572TIP3    H2 1723   2.723   2.792   4.568
  573TIP3   OH2 1724   1.678   0.351   0.057
  573TIP3    H1 1725   1.616   0.421   0.035
  573TIP3    H2 1726   1.654   0.323   0.145
  574TIP3   OH2 1727   1.363   0.369   3.452
  574TIP3    H1 1728   1.358   0.449   3.505
  574TIP3    H2 1729   1.374   0.401   3.362
  575TIP3   OH2 1730   4.136   3.059   5.107
  575TIP3    H1 1731   4.160   3.079   5.198
  575TIP3    H2 1732   4.066   3.120   5.086
  576TIP3   OH2 1733   0.095   5.320   1.836
  576TIP3    H1 1734   0.159   5.254   1.808
  576TIP3    H2 1735   0.147   5.387   1.880
  577TIP3   OH2 1736   2.565   3.644   3.299
  577TIP3    H1 1737   2.653   3.641   3.260
  577TIP3    H2 1738   2.556   3.560   3.344
  578TIP3   OH2 1739   3.506   1.094   3.603
  578TIP3    H1 1740   3.466   1.154   3.539
  578TIP3    H2 1741   3.584   1.139   3.634
  579TIP3   OH2 1742   1.504   3.348   2.063
  579TIP3    H1 1743   1.502   3.283   2.133
  579TIP3    H2 1744   1.500   3.296   1.983
  580TIP3   OH2 1745   3.079   5.906   2.635
  580TIP3    H1 1746   3.040   5.989   2.610
  580TIP3    H2 1747   3.173   5.923   2.639
  581TIP3   OH2 1748   3.555   0.318   0.976
  581TIP3    H1 1749   3.648   0.323   0.956
  581TIP3    H2 1750   3.519   0.262   0.906
  582TIP3   OH2 1751   5.701   4.037   3.225
  582TIP3    H1 1752   5.743   3.971   3.281
  582TIP3    H2 1753   5.760   4.113   3.230
  583TIP3   OH2 1754   1.056   5.337   1.845
  583TIP3    H1 1755   1.037   5.284   1.767
  583TIP3    H2 1756   0.998   5.413   1.836
  584TIP3   OH2 1757   5.820   0.373   1.284
  584TIP3    H1 1758   5.755   0.306   1.264
  584TIP3    H2 1759   5.901   0.325   1.299
  585TIP3   OH2 1760   3.960   1.835   3.805
  585TIP3    H1 1761   4.026   1.890   3.763
  585TIP3    H2 1762   3.916   1.894   3.867
  586TIP3   OH2 1763   0.524   0.716   1.197
  586TIP3    H1 1764   0.439   0.744   1.164
  586TIP3    H2 1765   0.524   0.621   1.187
  587TIP3   OH2 1766   5.134   3.188   3.677
  587TIP3    H1 1767   5.112   3.095   3.669
  587TIP3    H2 1768   5.122   3.208   3.770
  588TIP3   OH2 1769   4.857   2.721   2.995
  588TIP3    H1 1770   4.776   2.679   3.024
  588TIP3    H2 1771   4.897   2.659   2.934
  589TIP3   OH2 1772   0.486   0.439   2.057
  589TIP3    H1 1773   0.405   0.455   2.106
  589TIP3    H2 1774   0.550   0.414   2.123
  590TIP3   OH2 1775   3.760   2.341   4.927
  590TIP3    H1 1776   3.802   2.276   4.984
  590TIP3    H2 1777   3.669   2.312   4.920
  591TIP3   OH2 1778   2.537   4.496   4.625
  591TIP3    H1 1779   2.474   4.436   4.666
  591TIP3    H2 1780   2.501   4.512   4.537
  592TIP3   OH2 1781   1.971   0.600   3.901
  592TIP3    H1 1782   2.031   0.538   3.942
  592TIP3    H2 1783   1.903   0.545   3.862
  593TIP3   OH2 1784   2.494   0.177   2.167
  593TIP3    H1 1785   2.403   0.208   2.171
  593TIP3    H2 1786   2.520   0.189   2.076
  594TIP3   OH2 1787   0.363   5.954   4.435
  594TIP3    H1 1788   0.302   5.907   4.379
  594TIP3    H2 1789   0.369   5.902   4.515
  595TIP3   OH2 1790   3.761   1.105   0.622
  595TIP3    H1 1791   3.771   1.147   0.537
  595TIP3    H2 1792   3.842   1.056   0.634
  596TIP3   OH2 1793   0.553   2.074   0.470
  596TIP3    H1 1794   0.608   2.051   0.395
  596TIP3    H2 1795   0.472   2.025   0.455
  597TIP3   OH2 1796   3.459   4.837   4.564
  597TIP3    H1 1797   3.509   4.907   4.606
  597TIP3    H2 1798   3.493   4.756   4.604
  598TIP3   OH2 1799   1.216   5.561   2.529
  598TIP3    H1 1800   1.229   5.651   2.498
  598TIP3    H2 1801   1.247   5.562   2.620
  599TIP3   OH2 1802   1.784   1.168   4.555
  599TIP3    H1 1803   1.820   1.196   4.470
  599TIP3    H2 1804   1.725   1.240   4.580
  600TIP3   OH2 1805   3.118   0.475   4.547
  600TIP3    H1 1806   3.116   0.396   4.492
  600TIP3    H2 1807   3.074   0.542   4.494
  601TIP3   OH2 1808   1.356   4.272   0.208
  601TIP3    H1 1809   1.305   4.341   0.166
  601TIP3    H2 1810   1.403   4.316   0.278
  602TIP3   OH2 1811   5.897   5.380   1.643
  602TIP3    H1 1812   5.955   5.387   1.567
  602TIP3    H2 1813   5.809   5.374   1.605
  603TIP3   OH2 1814   3.397   1.431   2.414
  603TIP3    H1 1815   3.405   1.507   2.471
  603TIP3    H2 1816   3.449   1.452   2.337
  604TIP3   OH2 1817   3.018   1.056   3.340
  604TIP3    H1 1818   2.949   1.036   3.403
  604TIP3    H2 1819   2.986   1.134   3.294
  605TIP3   OH2 1820   6.218   0.676   2.928
  605TIP3    H1 1821   6.192   0.677   2.836
  605TIP3    H2 1822   6.176   0.598   2.964
  606TIP3   OH2 1823   4.912   1.191   3.517
  606TIP3    H1 1824   4.915   1.190   3.421
  606TIP3    H2 1825   4.974   1.123   3.544
  607TIP3   OH2 1826   0.045   0.493   4.571
  607TIP3    H1 1827  -0.037   0.508   4.523
  607TIP3    H2 1828   0.018   0.487   4.663
  608TIP3   OH2 1829   2.863   5.676   2.404
  608TIP3    H1 1830   2.941   5.640   2.361
  608TIP3    H2 1831   2.790   5.641   2.353
  609TIP3   OH2 1832   2.306   3.953   3.707
  609TIP3    H1 1833   2.340   3.911   3.786
  609TIP3    H2 1834   2.334   3.896   3.635
  610TIP3   OH2 1835   0.353   0.683   0.000
  610TIP3    H1 1836   0.389   0.594  -0.001
  610TIP3    H2 1837   0.391   0.724  -0.078
  611TIP3   OH2 1838   2.095   3.741   5.117
  611TIP3    H1 1839   2.161   3.797   5.156
  611TIP3    H2 1840   2.144   3.664   5.087
  612TIP3   OH2 1841   5.283   4.574   2.392
  612TIP3    H1 1842   5.199   4.529   2.388
  612TIP3    H2 1843   5.339   4.516   2.443
  613TIP3   OH2 1844   5.845   6.020   4.575
  613TIP3    H1 1845   5.881   5.944   4.529
  613TIP3    H2 1846   5.758   6.032   4.536
  614TIP3   OH2 1847   5.427   3.355   1.832
  614TIP3    H1 1848   5.479   3.382   1.907
  614TIP3    H2 1849   5.345   3.322   1.869
  615TIP3   OH2 1850   5.013   3.156   2.686
  615TIP3    H1 1851   5.071   3.231   2.676
  615TIP3    H2 1852   5.058   3.084   2.643
  616TIP3   OH2 1853   1.905   5.454   2.926
  616TIP3    H1 1854   1.966   5.409   2.984
  616TIP3    H2 1855   1.958   5.483   2.852
  617TIP3   OH2 1856   0.959   4.886   0.506
  617TIP3    H1 1857   0.952   4.923   0.594
  617TIP3    H2 1858   0.931   4.795   0.517
  618TIP3   OH2 1859   1.640   3.003   2.056
  618TIP3    H1 1860   1.582   3.056   2.111
  618TIP3    H2 1861   1.694   2.954   2.118
  619TIP3   OH2 1862   0.898   1.033   4.074
  619TIP3    H1 1863   0.827   1.085   4.112
  619TIP3    H2 1864   0.978   1.078   4.101
  620TIP3   OH2 1865   5.145   1.500   4.470
  620TIP3    H1 1866   5.053   1.527   4.468
  620TIP3    H2 1867   5.194   1.581   4.456
  621TIP3   OH2 1868   5.969   5.454   1.891
  621TIP3    H1 1869   5.943   5.383   1.950
  621TIP3    H2 1870   5.937   5.427   1.805
  622TIP3   OH2 1871   0.532   1.802   4.412
  622TIP3    H1 1872   0.530   1.773   4.503
  622TIP3    H2 1873   0.623   1.793   4.386
  623TIP3   OH2 1874   3.473   3.112   3.151
  623TIP3    H1 1875   3.548   3.053   3.147
  623TIP3    H2 1876   3.505   3.195   3.115
  624TIP3   OH2 1877   2.488   5.705   3.622
  624TIP3    H1 1878   2.468   5.683   3.531
  624TIP3    H2 1879   2.530   5.791   3.617
  625TIP3   OH2 1880   3.403   4.598   2.401
  625TIP3    H1 1881   3.428   4.633   2.487
  625TIP3    H2 1882   3.442   4.660   2.338
  626TIP3   OH2 1883   4.481   2.699   0.190
  626TIP3    H1 1884   4.543   2.648   0.242
  626TIP3    H2 1885   4.527   2.781   0.172
  627TIP3   OH2 1886   1.301   4.157   1.844
  627TIP3    H1 1887   1.244   4.118   1.910
  627TIP3    H2 1888   1.259   4.135   1.760
  628TIP3   OH2 1889   5.187   5.408   5.062
  628TIP3    H1 1890   5.128   5.392   5.136
  628TIP3    H2 1891   5.162   5.494   5.029
  629TIP3   OH2 1892   0.222   4.437   4.415
  629TIP3    H1 1893   0.283   4.363   4.419
  629TIP3    H2 1894   0.224   4.474   4.504
  630TIP3   OH2 1895   4.519   3.315   4.998
  630TIP3    H1 1896   4.481   3.330   4.911
  630TIP3    H2 1897   4.565   3.232   4.990
  631TIP3   OH2 1898   4.699   4.463   1.114
  631TIP3    H1 1899   4.743   4.378   1.107
  631TIP3    H2 1900   4.757   4.524   1.069
  632TIP3   OH2 1901   4.007   0.655   4.716
  632TIP3    H1 1902   3.920   0.634   4.749
  632TIP3    H2 1903   4.063   0.658   4.794
  633TIP3   OH2 1904   2.798   4.986   3.033
  633TIP3    H1 1905   2.709   4.967   3.064
  633TIP3    H2 1906   2.819   4.912   2.977
  634TIP3   OH2 1907   5.809   3.227   1.222
  634TIP3    H1 1908   5.795   3.320   1.204
  634TIP3    H2 1909   5.738   3.182   1.175
  635TIP3   OH2 1910   4.056   0.082   0.723
  635TIP3    H1 1911   3.982   0.077   0.663
  635TIP3    H2 1912   4.082  -0.010   0.735
  636TIP3   OH2 1913   3.766   2.779   2.387
  636TIP3    H1 1914   3.714   2.762   2.466
  636TIP3    H2 1915   3.826   2.705   2.382
  637TIP3   OH2 1916   0.076   2.861   5.037
  637TIP3    H1 1917   0.135   2.928   5.073
  637TIP3    H2 1918   0.053   2.807   5.112
  638TIP3   OH2 1919   0.634   1.439   0.499
  638TIP3    H1 1920   0.691   1.421   0.574
  638TIP3    H2 1921   0.545   1.426   0.533
  639TIP3   OH2 1922   5.047   1.402   3.730
  639TIP3    H1 1923   5.056   1.317   3.774
  639TIP3    H2 1924   5.137   1.430   3.713
  640TIP3   OH2 1925   5.866   2.812   2.217
  640TIP3    H1 1926   5.865   2.747   2.147
  640TIP3    H2 1927   5.782   2.857   2.209
  641TIP3   OH2 1928   5.789   1.542   3.954
  641TIP3    H1 1929   5.782   1.633   3.983
  641TIP3    H2 1930   5.853   1.503   4.014
  642TIP3   OH2 1931   5.712   4.482   0.584
  642TIP3    H1 1932   5.650   4.539   0.629
  642TIP3    H2 1933   5.789   4.537   0.571
  643TIP3   OH2 1934   4.192   3.787   4.087
  643TIP3    H1 1935   4.212   3.748   4.001
  643TIP3    H2 1936   4.118   3.845   4.071
  644TIP3   OH2 1937   2.730   2.876   2.648
  644TIP3    H1 1938   2.658   2.890   2.586
  644TIP3    H2 1939   2.801   2.931   2.615
  645TIP3   OH2 1940   3.799   2.229   2.729
  645TIP3    H1 1941   3.822   2.168   2.799
  645TIP3    H2 1942   3.841   2.193   2.651
  646TIP3   OH2 1943   6.104   3.093   1.789
  646TIP3    H1 1944   6.085   3.077   1.696
  646TIP3    H2 1945   6.065   3.018   1.834
  647TIP3   OH2 1946   5.989   4.932   0.717
  647TIP3    H1 1947   6.042   4.929   0.797
  647TIP3    H2 1948   5.951   5.020   0.717
  648TIP3   OH2 1949   3.956   2.847   4.072
  648TIP3    H1 1950   3.890   2.904   4.114
  648TIP3    H2 1951   4.011   2.907   4.022
  649TIP3   OH2 1952   2.903   3.827   2.115
  649TIP3    H1 1953   2.919   3.887   2.188
  649TIP3    H2 1954   2.816   3.851   2.082
  650TIP3   OH2 1955   6.213   5.288   1.981
  650TIP3    H1 1956   6.165   5.233   1.918
  650TIP3    H2 1957   6.293   5.312   1.935
  651TIP3   OH2 1958   4.326   5.877   4.807
  651TIP3    H1 1959   4.272   5.946   4.768
  651TIP3    H2 1960   4.319   5.803   4.747
  652TIP3   OH2 1961   2.322   4.710   4.075
  652TIP3    H1 1962   2.285   4.647   4.137
  652TIP3    H2 1963   2.390   4.662   4.029
  653TIP3   OH2 1964   3.223   1.498   1.613
  653TIP3    H1 1965   3.183   1.428   1.665
  653TIP3    H2 1966   3.262   1.557   1.678
  654TIP3   OH2 1967   1.252   2.825   4.987
  654TIP3    H1 1968   1.298   2.823   5.071
  654TIP3    H2 1969   1.234   2.918   4.972
  655TIP3   OH2 1970   5.123   2.280   0.372
  655TIP3    H1 1971   5.076   2.196   0.370
  655TIP3    H2 1972   5.136   2.298   0.465
  656TIP3   OH2 1973   1.841   1.746   0.086
  656TIP3    H1 1974   1.835   1.814   0.152
  656TIP3    H2 1975   1.925   1.762   0.043
  657TIP3   OH2 1976   3.248   2.321   1.481
  657TIP3    H1 1977   3.301   2.246   1.454
  657TIP3    H2 1978   3.242   2.312   1.576
  658TIP3   OH2 1979   1.470   0.314   1.847
  658TIP3    H1 1980   1.552   0.264   1.846
  658TIP3    H2 1981   1.489   0.389   1.903
  659TIP3   OH2 1982   2.916   1.745   2.948
  659TIP3    H1 1983   2.975   1.796   2.892
  659TIP3    H2 1984   2.843   1.805   2.965
  660TIP3   OH2 1985   3.910   1.632   0.834
  660TIP3    H1 1986   3.861   1.671   0.762
  660TIP3    H2 1987   3.846   1.577   0.879
  661TIP3   OH2 1988   2.136   3.384   2.671
  661TIP3    H1 1989   2.112   3.429   2.752
  661TIP3    H2 1990   2.171   3.452   2.615
  662TIP3   OH2 1991   5.087   2.836   1.584
  662TIP3    H1 1992   5.006   2.798   1.617
  662TIP3    H2 1993   5.071   2.850   1.491
  663TIP3   OH2 1994   4.104   5.279   5.073
  663TIP3    H1 1995   4.011   5.262   5.055
  663TIP3    H2 1996   4.104   5.327   5.155
  664TIP3   OH2 1997   2.713   0.023   1.086
  664TIP3    H1 1998   2.753   0.009   1.000
  664TIP3    H2 1999   2.787   0.048   1.142
  665TIP3   OH2 2000   1.864   5.585   3.165
  665TIP3    H1 2001   1.901   5.521   3.105
  665TIP3    H2 2002   1.860   5.666   3.114
  666TIP3   OH2 2003   4.841   5.087   2.308
  666TIP3    H1 2004   4.906   5.133   2.361
  666TIP3    H2 2005   4.757   5.122   2.338
  667TIP3   OH2 2006   5.333   4.203   1.830
  667TIP3    H1 2007   5.407   4.160   1.787
  667TIP3    H2 2008   5.339   4.294   1.803
  668TIP3   OH2 2009   5.263   1.306   2.717
  668TIP3    H1 2010   5.285   1.396   2.692
  668TIP3    H2 2011   5.289   1.300   2.810
  669TIP3   OH2 2012   2.182   1.907   5.227
  669TIP3    H1 2013   2.180   1.815   5.201
  669TIP3    H2 2014   2.262   1.941   5.188
  670TIP3   OH2 2015   5.780   0.417   5.023
  670TIP3    H1 2016   5.818   0.329   5.022
  670TIP3    H2 2017   5.759   0.432   5.115
  671TIP3   OH2 2018   2.197   2.195   4.629
  671TIP3    H1 2019   2.287   2.193   4.662
  671TIP3    H2 2020   2.194   2.272   4.573
  672TIP3   OH2 2021   5.495   2.663   4.172
  672TIP3    H1 2022   5.585   2.656   4.206
  672TIP3    H2 2023   5.503   2.719   4.095
  673TIP3   OH2 2024   1.844   1.127   1.254
  673TIP3    H1 2025   1.822   1.065   1.185
  673TIP3    H2 2026   1.789   1.103   1.328
  674TIP3   OH2 2027   4.644   5.934   0.302
  674TIP3    H1 2028   4.735   5.947   0.273
  674TIP3    H2 2029   4.642   5.844   0.335
  675TIP3   OH2 2030   6.387   5.913   0.896
  675TIP3    H1 2031   6.306   5.926   0.847
  675TIP3    H2 2032   6.419   6.001   0.914
  676TIP3   OH2 2033   2.821   3.719   1.436
  676TIP3    H1 2034   2.907   3.719   1.394
  676TIP3    H2 2035   2.798   3.626   1.442
  677TIP3   OH2 2036   2.080   4.725   3.925
  677TIP3    H1 2037   2.075   4.637   3.888
  677TIP3    H2 2038   2.168   4.732   3.961
  678TIP3   OH2 2039   0.220   1.957   4.971
  678TIP3    H1 2040   0.305   1.920   4.994
  678TIP3    H2 2041   0.165   1.880   4.953
  679TIP3   OH2 2042   6.152   5.963   0.416
  679TIP3    H1 2043   6.135   5.873   0.387
  679TIP3    H2 2044   6.241   5.960   0.450
  680TIP3   OH2 2045   1.320   5.134   1.177
  680TIP3    H1 2046   1.272   5.140   1.095
  680TIP3    H2 2047   1.383   5.205   1.173
  681TIP3   OH2 2048   2.125   3.905   1.959
  681TIP3    H1 2049   2.035   3.903   1.991
  681TIP3    H2 2050   2.164   3.982   2.000
  682TIP3   OH2 2051   1.134   2.365   4.289
  682TIP3    H1 2052   1.123   2.357   4.384
  682TIP3    H2 2053   1.114   2.457   4.271
  683TIP3   OH2 2054   5.507   3.591   4.140
  683TIP3    H1 2055   5.543   3.616   4.225
  683TIP3    H2 2056   5.548   3.652   4.079
  684TIP3   OH2 2057   2.150   0.681   0.898
  684TIP3    H1 2058   2.203   0.638   0.831
  684TIP3    H2 2059   2.135   0.769   0.864
  685TIP3   OH2 2060   3.908   4.060   0.028
  685TIP3    H1 2061   3.938   4.014  -0.051
  685TIP3    H2 2062   3.822   4.095   0.004
  686TIP3   OH2 2063   1.335  -0.019   4.296
  686TIP3    H1 2064   1.331  -0.074   4.218
  686TIP3    H2 2065   1.308   0.068   4.265
  687TIP3   OH2 2066   1.711   4.592   2.687
  687TIP3    H1 2067   1.789   4.618   2.639
  687TIP3    H2 2068   1.706   4.654   2.761
  688TIP3   OH2 2069   2.500   4.584   0.366
  688TIP3    H1 2070   2.567   4.600   0.300
  688TIP3    H2 2071   2.538   4.618   0.448
  689TIP3   OH2 2072   2.332   3.175   4.125
  689TIP3    H1 2073   2.319   3.202   4.216
  689TIP3    H2 2074   2.425   3.188   4.109
  690TIP3   OH2 2075   2.509   5.451   5.051
  690TIP3    H1 2076   2.495   5.466   4.958
  690TIP3    H2 2077   2.526   5.357   5.057
  691TIP3   OH2 2078   5.395   0.436   0.722
  691TIP3    H1 2079   5.363   0.445   0.632
  691TIP3    H2 2080   5.460   0.505   0.732
  692TIP3   OH2 2081   3.979   3.214   0.662
  692TIP3    H1 2082   3.936   3.296   0.684
  692TIP3    H2 2083   3.912   3.147   0.680
  693TIP3   OH2 2084   2.520   5.703   2.668
  693TIP3    H1 2085   2.614   5.690   2.660
  693TIP3    H2 2086   2.500   5.771   2.604
  694TIP3   OH2 2087   6.265   3.743   3.442
  694TIP3    H1 2088   6.257   3.648   3.446
  694TIP3    H2 2089   6.217   3.767   3.362
  695TIP3   OH2 2090   0.769   1.633   2.766
  695TIP3    H1 2091   0.819   1.688   2.705
  695TIP3    H2 2092   0.720   1.696   2.819
  696TIP3   OH2 2093   6.014   3.132   4.592
  696TIP3    H1 2094   6.023   3.142   4.497
  696TIP3    H2 2095   5.979   3.216   4.622
  697TIP3   OH2 2096   1.534   3.281   5.165
  697TIP3    H1 2097   1.624   3.298   5.195
  697TIP3    H2 2098   1.499   3.368   5.146
  698TIP3   OH2 2099   3.046   2.690   4.301
  698TIP3    H1 2100   3.073   2.774   4.339
  698TIP3    H2 2101   3.125   2.636   4.303
  699TIP3   OH2 2102   1.938   4.656   4.748
  699TIP3    H1 2103   1.952   4.730   4.807
  699TIP3    H2 2104   1.990   4.585   4.785
  700TIP3   OH2 2105   4.747   0.284   1.123
  700TIP3    H1 2106   4.740   0.198   1.165
  700TIP3    H2 2107   4.779   0.342   1.191
  701TIP3   OH2 2108   6.118   2.514   3.442
  701TIP3    H1 2109   6.124   2.608   3.426
  701TIP3    H2 2110   6.089   2.478   3.358
  702TIP3   OH2 2111   2.340   2.054   2.123
  702TIP3    H1 2112   2.371   2.144   2.125
  702TIP3    H2 2113   2.244   2.061   2.115
  703TIP3   OH2 2114   2.424   3.821   0.770
  703TIP3    H1 2115   2.398   3.788   0.856
  703TIP3    H2 2116   2.349   3.871   0.740
  704TIP3   OH2 2117   3.568   4.560   2.785
  704TIP3    H1 2118   3.527   4.479   2.753
  704TIP3    H2 2119   3.614   4.534   2.865
  705TIP3   OH2 2120   2.877   3.573   1.816
  705TIP3    H1 2121   2.899   3.527   1.735
  705TIP3    H2 2122   2.957   3.622   1.837
  706TIP3   OH2 2123   0.757   2.997   2.949
  706TIP3    H1 2124   0.772   3.086   2.979
  706TIP3    H2 2125   0.759   3.003   2.853
  707TIP3   OH2 2126   4.035   1.489   4.704
  707TIP3    H1 2127   4.032   1.514   4.611
  707TIP3    H2 2128   4.093   1.413   4.706
  708TIP3   OH2 2129   4.013   1.105   5.191
  708TIP3    H1 2130   4.108   1.113   5.178
  708TIP3    H2 2131   3.985   1.194   5.214
  709TIP3   OH2 2132   5.445   3.789   2.790
  709TIP3    H1 2133   5.453   3.841   2.870
  709TIP3    H2 2134   5.351   3.774   2.781
  710TIP3   OH2 2135   6.214   1.707   5.102
  710TIP3    H1 2136   6.304   1.727   5.130
  710TIP3    H2 2137   6.192   1.777   5.041
  711TIP3   OH2 2138   2.795   0.550   4.556
  711TIP3    H1 2139   2.841   0.513   4.631
  711TIP3    H2 2140   2.766   0.636   4.585
  712TIP3   OH2 2141   2.170   5.097   1.009
  712TIP3    H1 2142   2.181   5.085   0.915
  712TIP3    H2 2143   2.159   5.008   1.044
  713TIP3   OH2 2144   4.901   0.388   4.230
  713TIP3    H1 2145   4.865   0.334   4.301
  713TIP3    H2 2146   4.851   0.362   4.152
  714TIP3   OH2 2147   2.367   3.511   4.153
  714TIP3    H1 2148   2.411   3.475   4.230
  714TIP3    H2 2149   2.274   3.490   4.166
  715TIP3   OH2 2150   4.065   0.764   1.458
  715TIP3    H1 2151   4.082   0.847   1.412
  715TIP3    H2 2152   4.023   0.709   1.393
  716TIP3   OH2 2153   4.410   1.371   1.932
  716TIP3    H1 2154   4.475   1.364   2.001
  716TIP3    H2 2155   4.439   1.309   1.865
  717TIP3   OH2 2156   1.352  -0.006   3.740
  717TIP3    H1 2157   1.415   0.059   3.708
  717TIP3    H2 2158   1.268   0.040   3.739
  718TIP3   OH2 2159   2.874   0.720   4.828
  718TIP3    H1 2160   2.827   0.787   4.780
  718TIP3    H2 2161   2.953   0.765   4.861
  719TIP3   OH2 2162   0.745   4.369   0.904
  719TIP3    H1 2163   0.728   4.300   0.968
  719TIP3    H2 2164   0.840   4.381   0.906
  720TIP3   OH2 2165   3.765   4.556   2.564
  720TIP3    H1 2166   3.731   4.515   2.644
  720TIP3    H2 2167   3.765   4.650   2.584
  721TIP3   OH2 2168   5.185   5.742   0.083
  721TIP3    H1 2169   5.280   5.737   0.093
  721TIP3    H2 2170   5.154   5.784   0.164
  722TIP3   OH2 2171   0.928   2.326   1.813
  722TIP3    H1 2172   0.862   2.273   1.857
  722TIP3    H2 2173   0.933   2.407   1.863
  723TIP3   OH2 2174   5.040   1.333   1.396
  723TIP3    H1 2175   5.023   1.383   1.477
  723TIP3    H2 2176   4.953   1.309   1.365
  724TIP3   OH2 2177   5.045   5.190   2.483
  724TIP3    H1 2178   5.052   5.279   2.520
  724TIP3    H2 2179   5.134   5.169   2.457
  725TIP3   OH2 2180   0.857   3.936   2.645
  725TIP3    H1 2181   0.847   3.978   2.560
  725TIP3    H2 2182   0.904   4.000   2.698
  726TIP3   OH2 2183   2.336   4.850   0.328
  726TIP3    H1 2184   2.350   4.939   0.360
  726TIP3    H2 2185   2.384   4.846   0.246
  727TIP3   OH2 2186   6.294   5.292   0.704
  727TIP3    H1 2187   6.306   5.278   0.798
  727TIP3    H2 2188   6.381   5.312   0.671
  728TIP3   OH2 2189   0.376   1.927   2.951
  728TIP3    H1 2190   0.468   1.925   2.925
  728TIP3    H2 2191   0.378   1.930   3.047
  729TIP3   OH2 2192   1.750   1.215   3.278
  729TIP3    H1 2193   1.788   1.240   3.363
  729TIP3    H2 2194   1.825   1.202   3.221
  730TIP3   OH2 2195   5.514   5.253   3.477
  730TIP3    H1 2196   5.592   5.205   3.451
  730TIP3    H2 2197   5.536   5.345   3.459
  731TIP3   OH2 2198   3.839   4.224   2.896
  731TIP3    H1 2199   3.806   4.150   2.846
  731TIP3    H2 2200   3.934   4.218   2.889
  732TIP3   OH2 2201   2.164   1.228   3.578
  732TIP3    H1 2202   2.231   1.236   3.646
  732TIP3    H2 2203   2.134   1.317   3.563
  733TIP3   OH2 2204   0.380   5.109   2.431
  733TIP3    H1 2205   0.365   5.200   2.458
  733TIP3    H2 2206   0.293   5.070   2.432
  734TIP3   OH2 2207   0.929   5.585   2.607
  734TIP3    H1 2208   0.996   5.581   2.539
  734TIP3    H2 2209   0.898   5.495   2.616
  735TIP3   OH2 2210   4.628   1.554   2.890
  735TIP3    H1 2211   4.604   1.639   2.928
  735TIP3    H2 2212   4.653   1.500   2.965
  736TIP3   OH2 2213   4.029   4.986   3.334
  736TIP3    H1 2214   3.962   4.974   3.402
  736TIP3    H2 2215   4.018   5.077   3.306
  737TIP3   OH2 2216   3.601   4.055   2.199
  737TIP3    H1 2217   3.612   4.139   2.155
  737TIP3    H2 2218   3.510   4.030   2.182
  738TIP3   OH2 2219   0.861   5.476   4.908
  738TIP3    H1 2220   0.898   5.426   4.835
  738TIP3    H2 2221   0.938   5.502   4.960
  739TIP3   OH2 2222   2.951   5.219   0.527
  739TIP3    H1 2223   2.972   5.295   0.581
  739TIP3    H2 2224   2.984   5.144   0.577
  740TIP3   OH2 2225   2.392   3.515   2.016
  740TIP3    H1 2226   2.338   3.569   1.958
  740TIP3    H2 2227   2.481   3.524   1.983
  741TIP3   OH2 2228   3.034   2.553   2.623
  741TIP3    H1 2229   3.115   2.577   2.669
  741TIP3    H2 2230   2.974   2.528   2.692
  742TIP3   OH2 2231   5.141   0.948   4.331
  742TIP3    H1 2232   5.050   0.959   4.359
  742TIP3    H2 2233   5.185   0.906   4.405
  743TIP3   OH2 2234   3.294   0.584   3.466
  743TIP3    H1 2235   3.265   0.558   3.378
  743TIP3    H2 2236   3.275   0.677   3.471
  744TIP3   OH2 2237   0.381   3.084   4.768
  744TIP3    H1 2238   0.428   3.004   4.793
  744TIP3    H2 2239   0.353   3.122   4.851
  745TIP3   OH2 2240   6.196   2.894   2.774
  745TIP3    H1 2241   6.214   2.823   2.712
  745TIP3    H2 2242   6.236   2.865   2.856
  746TIP3   OH2 2243   3.032   3.202   4.526
  746TIP3    H1 2244   2.983   3.187   4.607
  746TIP3    H2 2245   3.123   3.210   4.554
  747TIP3   OH2 2246   1.405   2.829   2.045
  747TIP3    H1 2247   1.489   2.874   2.054
  747TIP3    H2 2248   1.369   2.828   2.134
  748TIP3   OH2 2249   0.351   1.222   4.221
  748TIP3    H1 2250   0.386   1.234   4.134
  748TIP3    H2 2251   0.258   1.201   4.207
  749TIP3   OH2 2252   0.273   1.909   4.420
  749TIP3    H1 2253   0.362   1.876   4.408
  749TIP3    H2 2254   0.277   1.961   4.500
  750TIP3   OH2 2255   4.235   2.998   1.607
  750TIP3    H1 2256   4.148   3.036   1.595
  750TIP3    H2 2257   4.222   2.926   1.667
  751TIP3   OH2 2258   1.757   3.042   3.339
  751TIP3    H1 2259   1.832   3.052   3.280
  751TIP3    H2 2260   1.736   2.949   3.337
  752TIP3   OH2 2261   5.942   5.478   0.158
  752TIP3    H1 2262   6.007   5.410   0.174
  752TIP3    H2 2263   5.978   5.527   0.084
  753TIP3   OH2 2264   6.062   5.339   0.445
  753TIP3    H1 2265   6.090   5.295   0.364
  753TIP3    H2 2266   6.144   5.365   0.487
  754TIP3   OH2 2267   0.360   4.256   2.425
  754TIP3    H1 2268   0.288   4.311   2.457
  754TIP3    H2 2269   0.390   4.300   2.345
  755TIP3   OH2 2270   4.565   0.686   1.750
  755TIP3    H1 2271   4.484   0.638   1.736
  755TIP3    H2 2272   4.579   0.684   1.844
  756TIP3   OH2 2273   0.140   3.818   1.426
  756TIP3    H1 2274   0.094   3.844   1.505
  756TIP3    H2 2275   0.231   3.844   1.441
  757TIP3   OH2 2276   5.316   4.299   4.382
  757TIP3    H1 2277   5.401   4.324   4.420
  757TIP3    H2 2278   5.334   4.216   4.338
  758TIP3   OH2 2279   3.511   5.071   2.471
  758TIP3    H1 2280   3.452   5.007   2.432
  758TIP3    H2 2281   3.546   5.027   2.548
  759TIP3   OH2 2282   0.703   1.670   1.607
  759TIP3    H1 2283   0.692   1.615   1.530
  759TIP3    H2 2284   0.740   1.752   1.573
  760TIP3   OH2 2285   1.905   5.779   5.016
  760TIP3    H1 2286   1.817   5.748   5.040
  760TIP3    H2 2287   1.893   5.870   4.990
  761TIP3   OH2 2288   1.051   3.732   2.752
  761TIP3    H1 2289   0.999   3.745   2.673
  761TIP3    H2 2290   1.008   3.786   2.818
  762TIP3   OH2 2291   2.613   3.838   2.394
  762TIP3    H1 2292   2.651   3.771   2.338
  762TIP3    H2 2293   2.673   3.844   2.468
  763TIP3   OH2 2294   1.031   2.363   5.025
  763TIP3    H1 2295   1.072   2.364   5.112
  763TIP3    H2 2296   0.940   2.341   5.042
  764TIP3   OH2 2297   3.197   4.731   0.507
  764TIP3    H1 2298   3.228   4.805   0.454
  764TIP3    H2 2299   3.135   4.770   0.568
  765TIP3   OH2 2300   6.255   1.034   4.353
  765TIP3    H1 2301   6.270   0.949   4.394
  765TIP3    H2 2302   6.245   1.095   4.426
  766TIP3   OH2 2303   0.840   1.739   1.937
  766TIP3    H1 2304   0.877   1.809   1.883
  766TIP3    H2 2305   0.861   1.659   1.891
  767TIP3   OH2 2306   0.443   3.355   2.523
  767TIP3    H1 2307   0.368   3.310   2.483
  767TIP3    H2 2308   0.428   3.346   2.617
  768TIP3   OH2 2309   2.333   5.447   3.539
  768TIP3    H1 2310   2.313   5.532   3.500
  768TIP3    H2 2311   2.420   5.425   3.504
  769TIP3   OH2 2312   6.268   2.459   4.642
  769TIP3    H1 2313   6.275   2.447   4.737
  769TIP3    H2 2314   6.359   2.464   4.612
  770TIP3   OH2 2315   3.298   3.453   0.016
  770TIP3    H1 2316   3.391   3.435   0.028
  770TIP3    H2 2317   3.282   3.436  -0.077
  771TIP3   OH2 2318   0.399   1.533   1.221
  771TIP3    H1 2319   0.353   1.545   1.305
  771TIP3    H2 2320   0.486   1.503   1.246
  772TIP3   OH2 2321   2.637   1.394   1.753
  772TIP3    H1 2322   2.605   1.484   1.751
  772TIP3    H2 2323   2.731   1.402   1.766
  773TIP3   OH2 2324   1.594   0.643   3.533
  773TIP3    H1 2325   1.639   0.681   3.457
  773TIP3    H2 2326   1.502   0.641   3.507
  774TIP3   OH2 2327   5.914   0.188   4.213
  774TIP3    H1 2328   5.905   0.226   4.125
  774TIP3    H2 2329   5.925   0.094   4.197
  775TIP3   OH2 2330   6.201   2.875   3.393
  775TIP3    H1 2331   6.138   2.864   3.322
  775TIP3    H2 2332   6.151   2.860   3.473
  776TIP3   OH2 2333   6.156   2.073   4.960
  776TIP3    H1 2334   6.221   2.074   4.890
  776TIP3    H2 2335   6.106   2.153   4.948
  777TIP3   OH2 2336   6.285   1.030   3.759
  777TIP3    H1 2337   6.196   1.044   3.789
  777TIP3    H2 2338   6.281   1.040   3.664
  778TIP3   OH2 2339   3.954   2.686   0.799
  778TIP3    H1 2340   4.029   2.673   0.857
  778TIP3    H2 2341   3.893   2.740   0.849
  779TIP3   OH2 2342   4.226   1.248   0.621
  779TIP3    H1 2343   4.283   1.301   0.564
  779TIP3    H2 2344   4.226   1.294   0.704
  780TIP3   OH2 2345   4.887   4.561   1.491
  780TIP3    H1 2346   4.955   4.502   1.524
  780TIP3    H2 2347   4.812   4.544   1.548
  781TIP3   OH2 2348   5.781   2.719   4.129
  781TIP3    H1 2349   5.810   2.711   4.038
  781TIP3    H2 2350   5.779   2.814   4.145
  782TIP3   OH2 2351   0.772   3.522   3.368
  782TIP3    H1 2352   0.812   3.473   3.296
  782TIP3    H2 2353   0.836   3.590   3.389
  783TIP3   OH2 2354   0.250   0.443   5.013
  783TIP3    H1 2355   0.155   0.445   4.996
  783TIP3    H2 2356   0.259   0.482   5.100
  784TIP3   OH2 2357   3.354   2.478   0.789
  784TIP3    H1 2358   3.332   2.421   0.715
  784TIP3    H2 2359   3.382   2.560   0.748
  785TIP3   OH2 2360   3.179   5.495   0.867
  785TIP3    H1 2361   3.148   5.443   0.941
  785TIP3    H2 2362   3.274   5.487   0.869
  786TIP3   OH2 2363   3.295   4.010   4.426
  786TIP3    H1 2364   3.335   4.062   4.495
  786TIP3    H2 2365   3.202   4.029   4.432
  787TIP3   OH2 2366   2.350   1.305   0.804
  787TIP3    H1 2367   2.284   1.264   0.749
  787TIP3    H2 2368   2.409   1.234   0.828
  788TIP3   OH2 2369   3.959   4.206   3.205
  788TIP3    H1 2370   4.004   4.206   3.120
  788TIP3    H2 2371   3.891   4.139   3.196
  789TIP3   OH2 2372   5.750   3.112   3.896
  789TIP3    H1 2373   5.703   3.053   3.956
  789TIP3    H2 2374   5.763   3.192   3.947
  790TIP3   OH2 2375   2.670   4.958   3.368
  790TIP3    H1 2376   2.712   4.896   3.309
  790TIP3    H2 2377   2.678   5.042   3.324
  791TIP3   OH2 2378   3.328   3.959   0.601
  791TIP3    H1 2379   3.302   3.876   0.563
  791TIP3    H2 2380   3.410   3.981   0.556
  792TIP3   OH2 2381   1.086   2.054   0.196
  792TIP3    H1 2382   0.993   2.062   0.177
  792TIP3    H2 2383   1.125   2.135   0.164
  793TIP3   OH2 2384   4.242   4.051   4.841
  793TIP3    H1 2385   4.182   4.126   4.846
  793TIP3    H2 2386   4.218   3.996   4.916
  794TIP3   OH2 2387   0.388   3.875   3.208
  794TIP3    H1 2388   0.368   3.924   3.128
  794TIP3    H2 2389   0.442   3.802   3.178
  795TIP3   OH2 2390   3.002   2.235   1.654
  795TIP3    H1 2391   3.069   2.170   1.675
  795TIP3    H2 2392   2.994   2.289   1.733
  796TIP3   OH2 2393   0.243   4.134   1.519
  796TIP3    H1 2394   0.188   4.186   1.461
  796TIP3    H2 2395   0.295   4.079   1.460
  797TIP3   OH2 2396   5.062   5.994   2.760
  797TIP3    H1 2397   5.117   5.945   2.699
  797TIP3    H2 2398   5.007   5.927   2.801
  798TIP3   OH2 2399   2.344   3.658   3.931
  798TIP3    H1 2400   2.376   3.594   3.867
  798TIP3    H2 2401   2.358   3.616   4.016
  799TIP3   OH2 2402   3.509   3.441   0.423
  799TIP3    H1 2403   3.489   3.372   0.360
  799TIP3    H2 2404   3.541   3.394   0.500
  800TIP3   OH2 2405   0.315   4.174   0.314
  800TIP3    H1 2406   0.305   4.161   0.219
  800TIP3    H2 2407   0.250   4.116   0.353
  801TIP3   OH2 2408   5.891   3.677   1.103
  801TIP3    H1 2409   5.828   3.738   1.066
  801TIP3    H2 2410   5.946   3.731   1.160
  802TIP3   OH2 2411   5.295   1.085   5.024
  802TIP3    H1 2412   5.314   1.008   4.971
  802TIP3    H2 2413   5.380   1.127   5.036
  803TIP3   OH2 2414   1.876   3.729   4.795
  803TIP3    H1 2415   1.816   3.789   4.840
  803TIP3    H2 2416   1.875   3.650   4.848
  804TIP3   OH2 2417   5.367   1.684   4.693
  804TIP3    H1 2418   5.321   1.628   4.756
  804TIP3    H2 2419   5.460   1.666   4.709
  805TIP3   OH2 2420   1.540   5.774   1.949
  805TIP3    H1 2421   1.499   5.841   2.003
  805TIP3    H2 2422   1.500   5.692   1.979
  806TIP3   OH2 2423   0.559   0.241   1.877
  806TIP3    H1 2424   0.526   0.303   1.943
  806TIP3    H2 2425   0.600   0.172   1.928
  807TIP3   OH2 2426   4.865   1.151   2.629
  807TIP3    H1 2427   4.784   1.187   2.665
  807TIP3    H2 2428   4.925   1.149   2.704
  808TIP3   OH2 2429   3.636   4.449   4.947
  808TIP3    H1 2430   3.719   4.464   4.902
  808TIP3    H2 2431   3.572   4.502   4.899
  809TIP3   OH2 2432   4.647   2.590   3.131
  809TIP3    H1 2433   4.712   2.598   3.201
  809TIP3    H2 2434   4.586   2.524   3.162
  810TIP3   OH2 2435   1.744   3.677   0.402
  810TIP3    H1 2436   1.781   3.659   0.489
  810TIP3    H2 2437   1.656   3.710   0.421
  811TIP3   OH2 2438   4.592   3.284   0.064
  811TIP3    H1 2439   4.678   3.243   0.050
  811TIP3    H2 2440   4.603   3.335   0.144
  812TIP3   OH2 2441   2.582   3.840   3.580
  812TIP3    H1 2442   2.562   3.776   3.648
  812TIP3    H2 2443   2.529   3.813   3.505
  813TIP3   OH2 2444   6.332   3.341   3.307
  813TIP3    H1 2445   6.279   3.263   3.293
  813TIP3    H2 2446   6.308   3.371   3.395
  814TIP3   OH2 2447   4.867   4.255   1.118
  814TIP3    H1 2448   4.956   4.245   1.152
  814TIP3    H2 2449   4.844   4.167   1.087
  815TIP3   OH2 2450   4.528   5.573   5.078
  815TIP3    H1 2451   4.561   5.639   5.017
  815TIP3    H2 2452   4.506   5.498   5.023
  816TIP3   OH2 2453   3.421   2.492   3.476
  816TIP3    H1 2454   3.368   2.571   3.463
  816TIP3    H2 2455   3.507   2.515   3.441
  817TIP3   OH2 2456   5.192   1.374   0.650
  817TIP3    H1 2457   5.284   1.368   0.623
  817TIP3    H2 2458   5.194   1.431   0.727
  818TIP3   OH2 2459   4.857   0.923   4.349
  818TIP3    H1 2460   4.780   0.945   4.297
  818TIP3    H2 2461   4.864   0.994   4.413
  819TIP3   OH2 2462   4.441   5.523   4.133
  819TIP3    H1 2463   4.499   5.470   4.078
  819TIP3    H2 2464   4.492   5.542   4.211
  820TIP3   OH2 2465   6.307   4.370   2.992
  820TIP3    H1 2466   6.374   4.302   2.999
  820TIP3    H2 2467   6.230   4.326   2.956
  821TIP3   OH2 2468   0.713   3.408   1.853
  821TIP3    H1 2469   0.806   3.423   1.867
  821TIP3    H2 2470   0.670   3.465   1.916
  822TIP3   OH2 2471   2.089   4.192   0.287
  822TIP3    H1 2472   2.083   4.264   0.225
  822TIP3    H2 2473   2.032   4.124   0.250
  823TIP3   OH2 2474   1.319   4.740   2.689
  823TIP3    H1 2475   1.322   4.828   2.726
  823TIP3    H2 2476   1.225   4.721   2.681
  824TIP3   OH2 2477   1.103   5.119   0.920
  824TIP3    H1 2478   1.048   5.184   0.964
  824TIP3    H2 2479   1.043   5.073   0.862
  825TIP3   OH2 2480   5.790   4.004   0.325
  825TIP3    H1 2481   5.733   3.968   0.257
  825TIP3    H2 2482   5.769   4.097   0.328
  826TIP3   OH2 2483   2.637   1.742   3.995
  826TIP3    H1 2484   2.638   1.691   4.076
  826TIP3    H2 2485   2.615   1.677   3.927
  827TIP3   OH2 2486   3.556   4.726   4.855
  827TIP3    H1 2487   3.585   4.816   4.865
  827TIP3    H2 2488   3.619   4.688   4.793
  828TIP3   OH2 2489   3.008   4.157   3.641
  828TIP3    H1 2490   2.975   4.098   3.709
  828TIP3    H2 2491   3.078   4.207   3.684
  829TIP3   OH2 2492   2.381   0.661   0.122
  829TIP3    H1 2493   2.301   0.649   0.173
  829TIP3    H2 2494   2.450   0.665   0.187
  830TIP3   OH2 2495   5.490   1.810   1.128
  830TIP3    H1 2496   5.537   1.817   1.211
  830TIP3    H2 2497   5.492   1.899   1.092
  831TIP3   OH2 2498   1.007   3.100   0.983
  831TIP3    H1 2499   1.087   3.145   0.957
  831TIP3    H2 2500   0.993   3.034   0.915
  832TIP3   OH2 2501   5.627   3.572   0.229
  832TIP3    H1 2502   5.546   3.529   0.200
  832TIP3    H2 2503   5.597   3.641   0.289
  833TIP3   OH2 2504   1.569   3.000   0.125
  833TIP3    H1 2505   1.498   2.941   0.147
  833TIP3    H2 2506   1.646   2.944   0.116
  834TIP3   OH2 2507   1.361   2.334   1.329
  834TIP3    H1 2508   1.394   2.408   1.279
  834TIP3    H2 2509   1.436   2.277   1.341
  835TIP3   OH2 2510   3.712   4.726   3.096
  835TIP3    H1 2511   3.776   4.727   3.167
  835TIP3    H2 2512   3.735   4.649   3.044
  836TIP3   OH2 2513   5.563   1.259   5.119
  836TIP3    H1 2514   5.639   1.240   5.063
  836TIP3    H2 2515   5.601   1.288   5.202
  837TIP3   OH2 2516   6.139   0.715   2.680
  837TIP3    H1 2517   6.220   0.760   2.656
  837TIP3    H2 2518   6.112   0.671   2.599
  838TIP3   OH2 2519   0.317   5.929   2.552
  838TIP3    H1 2520   0.397   5.981   2.553
  838TIP3    H2 2521   0.252   5.984   2.508
  839TIP3   OH2 2522   2.481   2.284   0.404
  839TIP3    H1 2523   2.456   2.366   0.447
  839TIP3    H2 2524   2.575   2.293   0.388
  840TIP3   OH2 2525   2.571   0.959   3.981
  840TIP3    H1 2526   2.630   0.892   3.946
  840TIP3    H2 2527   2.629   1.025   4.018
  841TIP3   OH2 2528   1.473   1.086   0.839
  841TIP3    H1 2529   1.497   1.170   0.799
  841TIP3    H2 2530   1.507   1.092   0.929
  842TIP3   OH2 2531   0.972   4.315   1.789
  842TIP3    H1 2532   0.975   4.376   1.716
  842TIP3    H2 2533   1.016   4.237   1.757
  843TIP3   OH2 2534   4.052   3.572   2.231
  843TIP3    H1 2535   4.068   3.666   2.234
  843TIP3    H2 2536   3.983   3.561   2.165
  844TIP3   OH2 2537   2.478   2.505   1.529
  844TIP3    H1 2538   2.434   2.587   1.504
  844TIP3    H2 2539   2.411   2.438   1.515
  845TIP3   OH2 2540   5.953   3.889   0.046
  845TIP3    H1 2541   5.997   3.828   0.106
  845TIP3    H2 2542   6.013   3.963   0.039
  846TIP3   OH2 2543   5.392   4.911   0.715
  846TIP3    H1 2544   5.336   4.984   0.688
  846TIP3    H2 2545   5.471   4.953   0.748
  847TIP3   OH2 2546   0.913   0.758   4.835
  847TIP3    H1 2547   0.888   0.741   4.926
  847TIP3    H2 2548   0.845   0.716   4.783
  848TIP3   OH2 2549   1.974   4.446   4.095
  848TIP3    H1 2550   1.898   4.487   4.054
  848TIP3    H2 2551   1.937   4.395   4.168
  849TIP3   OH2 2552   0.948   5.707   2.150
  849TIP3    H1 2553   0.894   5.671   2.220
  849TIP3    H2 2554   1.035   5.714   2.189
  850TIP3   OH2 2555   2.701   1.747   3.378
  850TIP3    H1 2556   2.741   1.693   3.311
  850TIP3    H2 2557   2.718   1.837   3.350
  851TIP3   OH2 2558   0.663   3.379   0.399
  851TIP3    H1 2559   0.687   3.314   0.333
  851TIP3    H2 2560   0.740   3.386   0.455
  852TIP3   OH2 2561   4.532   5.159   0.883
  852TIP3    H1 2562   4.436   5.157   0.876
  852TIP3    H2 2563   4.550   5.128   0.971
  853TIP3   OH2 2564   2.339   1.822   2.259
  853TIP3    H1 2565   2.293   1.777   2.188
  853TIP3    H2 2566   2.354   1.910   2.226
  854TIP3   OH2 2567   0.093   0.494   2.860
  854TIP3    H1 2568   0.168   0.491   2.918
  854TIP3    H2 2569   0.059   0.583   2.869
  855TIP3   OH2 2570   2.446   5.731   0.027
  855TIP3    H1 2571   2.359   5.690   0.025
  855TIP3    H2 2572   2.500   5.671   0.078
  856TIP3   OH2 2573   1.045   2.636   4.237
  856TIP3    H1 2574   1.111   2.706   4.235
  856TIP3    H2 2575   0.967   2.678   4.272
  857TIP3   OH2 2576   0.300   2.630   2.442
  857TIP3    H1 2577   0.235   2.697   2.464
  857TIP3    H2 2578   0.264   2.549   2.477
  858TIP3   OH2 2579   0.687   0.311   2.209
  858TIP3    H1 2580   0.653   0.313   2.299
  858TIP3    H2 2581   0.782   0.312   2.219
  859TIP3   OH2 2582   1.322   0.751   1.930
  859TIP3    H1 2583   1.396   0.693   1.949
  859TIP3    H2 2584   1.360   0.838   1.923
  860TIP3   OH2 2585   6.107   3.174   4.975
  860TIP3    H1 2586   6.157   3.252   5.001
  860TIP3    H2 2587   6.020   3.208   4.953
  861TIP3   OH2 2588   0.464   3.304   1.610
  861TIP3    H1 2589   0.431   3.394   1.618
  861TIP3    H2 2590   0.394   3.257   1.565
  862TIP3   OH2 2591   1.163   5.465   0.879
  862TIP3    H1 2592   1.130   5.387   0.924
  862TIP3    H2 2593   1.253   5.474   0.908
  863TIP3   OH2 2594   2.369   2.819   4.004
  863TIP3    H1 2595   2.366   2.737   3.955
  863TIP3    H2 2596   2.438   2.870   3.962
  864TIP3   OH2 2597   3.393   4.251   5.038
  864TIP3    H1 2598   3.302   4.232   5.016
  864TIP3    H2 2599   3.421   4.317   4.974
  865TIP3   OH2 2600   2.239   0.518   3.230
  865TIP3    H1 2601   2.216   0.470   3.150
  865TIP3    H2 2602   2.158   0.561   3.257
  866TIP3   OH2 2603   4.426   3.976   2.109
  866TIP3    H1 2604   4.504   4.028   2.129
  866TIP3    H2 2605   4.459   3.901   2.061
  867TIP3   OH2 2606   3.786   2.092   5.049
  867TIP3    H1 2607   3.858   2.038   5.017
  867TIP3    H2 2608   3.786   2.079   5.144
  868TIP3   OH2 2609   5.328   2.962   1.342
  868TIP3    H1 2610   5.364   2.922   1.421
  868TIP3    H2 2611   5.242   2.922   1.331
  869TIP3   OH2 2612   0.785   2.338   5.115
  869TIP3    H1 2613   0.759   2.343   5.207
  869TIP3    H2 2614   0.713   2.380   5.067
  870TIP3   OH2 2615   2.980   1.269   4.604
  870TIP3    H1 2616   3.065   1.304   4.630
  870TIP3    H2 2617   2.919   1.303   4.669
  871TIP3   OH2 2618   4.407   5.754   3.916
  871TIP3    H1 2619   4.360   5.689   3.968
  871TIP3    H2 2620   4.345   5.826   3.907
  872TIP3   OH2 2621   2.102   5.258   1.913
  872TIP3    H1 2622   2.026   5.316   1.924
  872TIP3    H2 2623   2.064   5.172   1.896
  873TIP3   OH2 2624   1.081   4.986   4.848
  873TIP3    H1 2625   0.993   5.008   4.818
  873TIP3    H2 2626   1.088   5.026   4.935
  874TIP3   OH2 2627   5.916   5.126   4.299
  874TIP3    H1 2628   5.900   5.055   4.361
  874TIP3    H2 2629   5.872   5.099   4.219
  875TIP3   OH2 2630   5.157   5.901   4.961
  875TIP3    H1 2631   5.186   5.873   4.874
  875TIP3    H2 2632   5.229   5.876   5.019
  876TIP3   OH2 2633   2.975   4.657   1.507
  876TIP3    H1 2634   2.947   4.740   1.468
  876TIP3    H2 2635   2.893   4.610   1.524
  877TIP3   OH2 2636   1.036   3.931   1.228
  877TIP3    H1 2637   0.986   3.850   1.218
  877TIP3    H2 2638   1.049   3.962   1.139
  878TIP3   OH2 2639   0.484   2.675   2.229
  878TIP3    H1 2640   0.527   2.739   2.285
  878TIP3    H2 2641   0.424   2.628   2.287
  879TIP3   OH2 2642   0.825   3.434   1.399
  879TIP3    H1 2643   0.823   3.345   1.436
  879TIP3    H2 2644   0.748   3.438   1.342
  880TIP3   OH2 2645   3.168   0.058   5.029
  880TIP3    H1 2646   3.226   0.087   5.099
  880TIP3    H2 2647   3.115   0.136   5.009
  881TIP3   OH2 2648   5.100   0.221   3.376
  881TIP3    H1 2649   5.147   0.253   3.299
  881TIP3    H2 2650   5.010   0.250   3.363
  882TIP3   OH2 2651   4.676   0.216   1.754
  882TIP3    H1 2652   4.738   0.148   1.780
  882TIP3    H2 2653   4.731   0.286   1.720
  883TIP3   OH2 2654   4.715   2.131   3.737
  883TIP3    H1 2655   4.795   2.079   3.745
  883TIP3    H2 2656   4.732   2.208   3.791
  884TIP3   OH2 2657   2.437   1.566   3.877
  884TIP3    H1 2658   2.435   1.470   3.879
  884TIP3    H2 2659   2.359   1.590   3.828
  885TIP3   OH2 2660   5.358   0.981   4.119
  885TIP3    H1 2661   5.425   0.930   4.164
  885TIP3    H2 2662   5.281   0.974   4.175
  886TIP3   OH2 2663   4.445   5.046   0.328
  886TIP3    H1 2664   4.474   5.049   0.419
  886TIP3    H2 2665   4.510   5.099   0.281
  887TIP3   OH2 2666   2.900   0.695   1.864
  887TIP3    H1 2667   2.881   0.654   1.780
  887TIP3    H2 2668   2.878   0.787   1.851
  888TIP3   OH2 2669   3.708   4.459   2.987
  888TIP3    H1 2670   3.670   4.442   3.073
  888TIP3    H2 2671   3.751   4.377   2.963
  889TIP3   OH2 2672   4.353   4.506   3.398
  889TIP3    H1 2673   4.344   4.423   3.446
  889TIP3    H2 2674   4.295   4.567   3.444
  890TIP3   OH2 2675   0.477   3.581   0.389
  890TIP3    H1 2676   0.485   3.645   0.318
  890TIP3    H2 2677   0.550   3.521   0.374
  891TIP3   OH2 2678   2.707   3.402   2.294
  891TIP3    H1 2679   2.773   3.470   2.302
  891TIP3    H2 2680   2.626   3.449   2.274
  892TIP3   OH2 2681   3.857   4.304   4.427
  892TIP3    H1 2682   3.880   4.389   4.389
  892TIP3    H2 2683   3.915   4.294   4.503
  893TIP3   OH2 2684   2.817  -0.031   3.435
  893TIP3    H1 2685   2.902   0.009   3.450
  893TIP3    H2 2686   2.755   0.024   3.481
  894TIP3   OH2 2687   1.533   1.454   0.342
  894TIP3    H1 2688   1.619   1.488   0.316
  894TIP3    H2 2689   1.533   1.363   0.310
  895TIP3   OH2 2690   0.512   2.170   2.259
  895TIP3    H1 2691   0.586   2.134   2.309
  895TIP3    H2 2692   0.449   2.197   2.326
  896TIP3   OH2 2693   2.854   5.360   4.446
  896TIP3    H1 2694   2.817   5.275   4.471
  896TIP3    H2 2695   2.926   5.338   4.387
  897TIP3   OH2 2696   2.355   1.677   0.400
  897TIP3    H1 2697   2.443   1.687   0.437
  897TIP3    H2 2698   2.324   1.593   0.433
  898TIP3   OH2 2699   5.966   0.659   0.558
  898TIP3    H1 2700   5.923   0.575   0.572
  898TIP3    H2 2701   6.037   0.640   0.496
  899TIP3   OH2 2702   4.040   0.990   3.882
  899TIP3    H1 2703   4.005   0.917   3.831
  899TIP3    H2 2704   4.005   1.068   3.839
  900TIP3   OH2 2705   0.081   2.285   3.355
  900TIP3    H1 2706   0.061   2.235   3.275
  900TIP3    H2 2707   0.125   2.364   3.324
  901TIP3   OH2 2708   3.279   3.459   1.883
  901TIP3    H1 2709   3.333   3.530   1.850
  901TIP3    H2 2710   3.217   3.501   1.943
  902TIP3   OH2 2711   0.121   5.281   2.897
  902TIP3    H1 2712   0.137   5.248   2.809
  902TIP3    H2 2713   0.203   5.324   2.921
  903TIP3   OH2 2714   3.088   1.993   3.781
  903TIP3    H1 2715   3.009   1.955   3.743
  903TIP3    H2 2716   3.148   2.002   3.706
  904TIP3   OH2 2717   4.592   4.474   2.332
  904TIP3    H1 2718   4.556   4.498   2.247
  904TIP3    H2 2719   4.527   4.415   2.371
  905TIP3   OH2 2720   4.536   4.228   2.473
  905TIP3    H1 2721   4.446   4.235   2.505
  905TIP3    H2 2722   4.587   4.200   2.549
  906TIP3   OH2 2723   2.777   5.829   2.016
  906TIP3    H1 2724   2.819   5.913   1.999
  906TIP3    H2 2725   2.845   5.763   1.999
  907TIP3   OH2 2726   2.327   2.451   4.883
  907TIP3    H1 2727   2.338   2.534   4.836
  907TIP3    H2 2728   2.373   2.387   4.830
  908TIP3   OH2 2729   1.876   1.727   2.454
  908TIP3    H1 2730   1.919   1.722   2.369
  908TIP3    H2 2731   1.937   1.777   2.509
  909TIP3   OH2 2732   5.352   2.609   1.379
  909TIP3    H1 2733   5.264   2.628   1.412
  909TIP3    H2 2734   5.403   2.686   1.402
  910TIP3   OH2 2735   5.877   3.064   3.211
  910TIP3    H1 2736   5.850   3.136   3.153
  910TIP3    H2 2737   5.826   3.079   3.291
  911TIP3   OH2 2738   3.153   2.592   1.508
  911TIP3    H1 2739   3.108   2.569   1.589
  911TIP3    H2 2740   3.203   2.514   1.484
  912TIP3   OH2 2741   4.640   1.385   4.583
  912TIP3    H1 2742   4.559   1.386   4.532
  912TIP3    H2 2743   4.621   1.439   4.660
  913TIP3   OH2 2744   1.356   5.431   1.458
  913TIP3    H1 2745   1.325   5.418   1.547
  913TIP3    H2 2746   1.430   5.492   1.467
  914TIP3   OH2 2747   4.231   2.674   2.035
  914TIP3    H1 2748   4.258   2.728   2.110
  914TIP3    H2 2749   4.256   2.585   2.058
  915TIP3   OH2 2750   2.702   0.299   0.227
  915TIP3    H1 2751   2.610   0.289   0.201
  915TIP3    H2 2752   2.752   0.279   0.148
  916TIP3   OH2 2753   0.657   3.971   4.294
  916TIP3    H1 2754   0.613   3.969   4.209
  916TIP3    H2 2755   0.725   3.904   4.287
  917TIP3   OH2 2756   2.590   1.691   3.627
  917TIP3    H1 2757   2.642   1.730   3.556
  917TIP3    H2 2758   2.649   1.626   3.666
  918TIP3   OH2 2759   2.667   0.299   3.772
  918TIP3    H1 2760   2.758   0.292   3.801
  918TIP3    H2 2761   2.666   0.256   3.686
  919TIP3   OH2 2762   6.020   1.233   3.407
  919TIP3    H1 2763   5.993   1.293   3.338
  919TIP3    H2 2764   5.965   1.255   3.482
  920TIP3   OH2 2765   0.007   0.908   2.734
  920TIP3    H1 2766  -0.072   0.956   2.712
  920TIP3    H2 2767   0.046   0.956   2.807
  921TIP3   OH2 2768   5.903   1.236   0.981
  921TIP3    H1 2769   5.824   1.233   1.036
  921TIP3    H2 2770   5.943   1.149   0.992
  922TIP3   OH2 2771   0.378   4.441   0.206
  922TIP3    H1 2772   0.321   4.368   0.231
  922TIP3    H2 2773   0.369   4.504   0.278
  923TIP3   OH2 2774   6.129   5.180   1.736
  923TIP3    H1 2775   6.170   5.133   1.665
  923TIP3    H2 2776   6.049   5.216   1.698
  924TIP3   OH2 2777   0.708   4.494   2.941
  924TIP3    H1 2778   0.620   4.457   2.945
  924TIP3    H2 2779   0.742   4.485   3.030
  925TIP3   OH2 2780   0.279   0.690   4.515
  925TIP3    H1 2781   0.333   0.647   4.581
  925TIP3    H2 2782   0.205   0.631   4.502
  926TIP3   OH2 2783   5.722   5.500   2.837
  926TIP3    H1 2784   5.816   5.521   2.843
  926TIP3    H2 2785   5.696   5.531   2.750
  927TIP3   OH2 2786   4.563   3.666   2.880
  927TIP3    H1 2787   4.472   3.682   2.904
  927TIP3    H2 2788   4.594   3.603   2.945
  928TIP3   OH2 2789   6.147   4.326   1.873
  928TIP3    H1 2790   6.162   4.354   1.783
  928TIP3    H2 2791   6.057   4.294   1.874
  929TIP3   OH2 2792   0.867   2.529   0.446
  929TIP3    H1 2793   0.823   2.444   0.441
  929TIP3    H2 2794   0.798   2.593   0.433
  930TIP3   OH2 2795   4.836   1.791   2.759
  930TIP3    H1 2796   4.778   1.729   2.802
  930TIP3    H2 2797   4.795   1.876   2.772
  931TIP3   OH2 2798   4.033   5.589   3.549
  931TIP3    H1 2799   3.977   5.541   3.487
  931TIP3    H2 2800   4.117   5.597   3.504
  932TIP3   OH2 2801   4.433   3.031   2.320
  932TIP3    H1 2802   4.472   3.116   2.299
  932TIP3    H2 2803   4.415   3.036   2.414
  933TIP3   OH2 2804   1.001   5.244   0.412
  933TIP3    H1 2805   1.020   5.155   0.442
  933TIP3    H2 2806   1.012   5.299   0.490
  934TIP3   OH2 2807   1.872   4.438   2.961
  934TIP3    H1 2808   1.961   4.472   2.967
  934TIP3    H2 2809   1.867   4.372   3.030
  935TIP3   OH2 2810   4.532   4.464   5.059
  935TIP3    H1 2811   4.443   4.496   5.042
  935TIP3    H2 2812   4.529   4.371   5.037
  936TIP3   OH2 2813   5.053   1.144   2.220
  936TIP3    H1 2814   5.077   1.158   2.312
  936TIP3    H2 2815   4.958   1.134   2.221
  937TIP3   OH2 2816   0.354   1.493   4.287
  937TIP3    H1 2817   0.394   1.531   4.209
  937TIP3    H2 2818   0.377   1.400   4.282
  938TIP3   OH2 2819   5.466   4.750   1.185
  938TIP3    H1 2820   5.526   4.695   1.235
  938TIP3    H2 2821   5.380   4.708   1.195
  939TIP3   OH2 2822   4.691   1.185   4.007
  939TIP3    H1 2823   4.636   1.107   4.000
  939TIP3    H2 2824   4.720   1.202   3.918
  940TIP3   OH2 2825   6.024   2.978   3.834
  940TIP3    H1 2826   6.043   2.885   3.843
  940TIP3    H2 2827   5.938   2.982   3.792
  941TIP3   OH2 2828   4.710   4.897   3.355
  941TIP3    H1 2829   4.660   4.815   3.354
  941TIP3    H2 2830   4.799   4.871   3.379
  942TIP3   OH2 2831   1.483   5.132   1.645
  942TIP3    H1 2832   1.522   5.085   1.571
  942TIP3    H2 2833   1.397   5.159   1.613
  943TIP3   OH2 2834   4.222   2.470   2.856
  943TIP3    H1 2835   4.156   2.523   2.811
  943TIP3    H2 2836   4.217   2.385   2.812
  944TIP3   OH2 2837   3.547   5.021   0.405
  944TIP3    H1 2838   3.573   5.054   0.491
  944TIP3    H2 2839   3.451   5.024   0.407
  945TIP3   OH2 2840   3.437   4.783   0.295
  945TIP3    H1 2841   3.438   4.864   0.346
  945TIP3    H2 2842   3.414   4.811   0.207
  946TIP3   OH2 2843   4.637   5.151   5.126
  946TIP3    H1 2844   4.570   5.192   5.180
  946TIP3    H2 2845   4.594   5.076   5.085
  947TIP3   OH2 2846   0.802   2.052   5.070
  947TIP3    H1 2847   0.801   2.139   5.110
  947TIP3    H2 2848   0.768   1.994   5.139
  948TIP3   OH2 2849   4.026   0.604   3.946
  948TIP3    H1 2850   3.977   0.586   3.866
  948TIP3    H2 2851   4.093   0.667   3.919
  949TIP3   OH2 2852   3.354   4.418   4.831
  949TIP3    H1 2853   3.321   4.505   4.856
  949TIP3    H2 2854   3.324   4.406   4.741
  950TIP3   OH2 2855   0.497   1.402   3.700
  950TIP3    H1 2856   0.476   1.487   3.661
  950TIP3    H2 2857   0.590   1.407   3.721
  951TIP3   OH2 2858   3.758   3.589   4.975
  951TIP3    H1 2859   3.744   3.614   5.066
  951TIP3    H2 2860   3.820   3.654   4.941
  952TIP3   OH2 2861   4.848   3.449   3.239
  952TIP3    H1 2862   4.837   3.355   3.224
  952TIP3    H2 2863   4.813   3.462   3.327
  953TIP3   OH2 2864   5.090   4.408   2.524
  953TIP3    H1 2865   5.066   4.468   2.596
  953TIP3    H2 2866   5.006   4.372   2.495
  954TIP3   OH2 2867   6.045   2.603   4.845
  954TIP3    H1 2868   6.136   2.618   4.873
  954TIP3    H2 2869   6.043   2.635   4.755
  955TIP3   OH2 2870   0.441   1.106   2.120
  955TIP3    H1 2871   0.500   1.118   2.045
  955TIP3    H2 2872   0.355   1.133   2.087
  956TIP3   OH2 2873   4.751   1.335   0.207
  956TIP3    H1 2874   4.713   1.249   0.188
  956TIP3    H2 2875   4.734   1.386   0.128
  957TIP3   OH2 2876   4.924   4.430   4.334
  957TIP3    H1 2877   4.932   4.503   4.396
  957TIP3    H2 2878   4.831   4.409   4.333
  958TIP3   OH2 2879   6.007   5.462   4.340
  958TIP3    H1 2880   5.938   5.521   4.370
  958TIP3    H2 2881   6.086   5.495   4.383
  959TIP3   OH2 2882   4.113   4.430   2.700
  959TIP3    H1 2883   4.090   4.476   2.781
  959TIP3    H2 2884   4.147   4.499   2.643
  960TIP3   OH2 2885   4.936   2.294   2.788
  960TIP3    H1 2886   4.981   2.241   2.723
  960TIP3    H2 2887   4.847   2.258   2.792
  961TIP3   OH2 2888   1.743   5.792   3.370
  961TIP3    H1 2889   1.740   5.875   3.323
  961TIP3    H2 2890   1.761   5.727   3.302
  962TIP3   OH2 2891   0.266   1.872   1.693
  962TIP3    H1 2892   0.344   1.833   1.733
  962TIP3    H2 2893   0.299   1.945   1.641
  963TIP3   OH2 2894   2.606   0.788   1.524
  963TIP3    H1 2895   2.582   0.763   1.435
  963TIP3    H2 2896   2.618   0.883   1.520
  964TIP3   OH2 2897   1.666   0.160   1.930
  964TIP3    H1 2898   1.706   0.194   2.009
  964TIP3    H2 2899   1.734   0.168   1.863
  965TIP3   OH2 2900   0.724   5.653   5.059
  965TIP3    H1 2901   0.780   5.700   5.121
  965TIP3    H2 2902   0.785   5.597   5.011
  966TIP3   OH2 2903   5.729   4.725   0.964
  966TIP3    H1 2904   5.818   4.715   0.931
  966TIP3    H2 2905   5.725   4.669   1.041
  967TIP3   OH2 2906   3.555   1.484   3.757
  967TIP3    H1 2907   3.542   1.536   3.678
  967TIP3    H2 2908   3.637   1.437   3.742
  968TIP3   OH2 2909   0.062   2.788   4.472
  968TIP3    H1 2910   0.022   2.794   4.559
  968TIP3    H2 2911   0.065   2.694   4.454
  969TIP3   OH2 2912   4.801   3.365   4.352
  969TIP3    H1 2913   4.867   3.352   4.284
  969TIP3    H2 2914   4.834   3.316   4.427
  970TIP3   OH2 2915   0.119   3.075   4.138
  970TIP3    H1 2916   0.160   3.106   4.219
  970TIP3    H2 2917   0.093   3.155   4.093
  971TIP3   OH2 2918   0.195   2.574   4.608
  971TIP3    H1 2919   0.256   2.646   4.595
  971TIP3    H2 2920   0.162   2.587   4.697
  972TIP3   OH2 2921   4.000   0.976   3.166
  972TIP3    H1 2922   3.948   0.907   3.126
  972TIP3    H2 2923   4.089   0.961   3.136
  973TIP3   OH2 2924   0.171   3.716   0.932
  973TIP3    H1 2925   0.097   3.682   0.982
  973TIP3    H2 2926   0.248   3.693   0.985
  974TIP3   OH2 2927   1.804   5.217   0.805
  974TIP3    H1 2928   1.770   5.267   0.731
  974TIP3    H2 2929   1.883   5.264   0.831
  975TIP3   OH2 2930   5.513   3.361   4.938
  975TIP3    H1 2931   5.549   3.450   4.947
  975TIP3    H2 2932   5.473   3.343   5.023
  976TIP3   OH2 2933   3.700   2.399   4.123
  976TIP3    H1 2934   3.682   2.461   4.053
  976TIP3    H2 2935   3.761   2.446   4.181
  977TIP3   OH2 2936   2.085   2.004   2.035
  977TIP3    H1 2937   2.040   2.084   2.009
  977TIP3    H2 2938   2.077   1.946   1.959
  978TIP3   OH2 2939   1.116   3.643   1.432
  978TIP3    H1 2940   1.141   3.728   1.466
  978TIP3    H2 2941   1.081   3.662   1.345
  979TIP3   OH2 2942   5.644   4.727   5.038
  979TIP3    H1 2943   5.603   4.791   4.980
  979TIP3    H2 2944   5.714   4.689   4.986
  980TIP3   OH2 2945   5.518   1.884   2.770
  980TIP3    H1 2946   5.464   1.962   2.782
  980TIP3    H2 2947   5.529   1.848   2.858
  981TIP3   OH2 2948   3.733   5.530   0.279
  981TIP3    H1 2949   3.802   5.565   0.224
  981TIP3    H2 2950   3.779   5.480   0.347
  982TIP3   OH2 2951   2.579   4.379   1.363
  982TIP3    H1 2952   2.552   4.321   1.292
  982TIP3    H2 2953   2.535   4.462   1.344
  983TIP3   OH2 2954   6.198   3.194   2.199
  983TIP3    H1 2955   6.242   3.110   2.214
  983TIP3    H2 2956   6.106   3.170   2.183
  984TIP3   OH2 2957   4.355   0.458   1.838
  984TIP3    H1 2958   4.268   0.453   1.799
  984TIP3    H2 2959   4.382   0.366   1.847
  985TIP3   OH2 2960  -0.020   3.925   1.219
  985TIP3    H1 2961   0.061   3.942   1.172
  985TIP3    H2 2962   0.003   3.857   1.283
  986TIP3   OH2 2963   5.621   1.329   3.030
  986TIP3    H1 2964   5.636   1.268   2.958
  986TIP3    H2 2965   5.681   1.401   3.014
  987TIP3   OH2 2966   4.435   3.382   3.711
  987TIP3    H1 2967   4.344   3.410   3.718
  987TIP3    H2 2968   4.483   3.462   3.688
  988TIP3   OH2 2969   0.552   2.755   4.780
  988TIP3    H1 2970   0.511   2.812   4.845
  988TIP3    H2 2971   0.642   2.745   4.812
  989TIP3   OH2 2972   5.968   5.246   0.703
  989TIP3    H1 2973   6.039   5.304   0.732
  989TIP3    H2 2974   5.967   5.255   0.608
  990TIP3   OH2 2975   4.464   5.375   1.143
  990TIP3    H1 2976   4.455   5.395   1.236
  990TIP3    H2 2977   4.558   5.382   1.126
  991TIP3   OH2 2978   5.364   5.691   2.033
  991TIP3    H1 2979   5.317   5.769   2.004
  991TIP3    H2 2980   5.296   5.623   2.035
  992TIP3   OH2 2981   4.063   3.669   0.611
  992TIP3    H1 2982   4.085   3.597   0.552
  992TIP3    H2 2983   4.065   3.747   0.556
  993TIP3   OH2 2984   2.245   0.965   2.690
  993TIP3    H1 2985   2.169   0.910   2.670
  993TIP3    H2 2986   2.321   0.908   2.677
  994TIP3   OH2 2987   1.869   2.642   1.962
  994TIP3    H1 2988   1.931   2.663   2.032
  994TIP3    H2 2989   1.784   2.671   1.996
  995TIP3   OH2 2990   3.745   0.864   2.498
  995TIP3    H1 2991   3.667   0.885   2.448
  995TIP3    H2 2992   3.817   0.878   2.437
  996TIP3   OH2 2993   0.230   5.854   3.422
  996TIP3    H1 2994   0.172   5.930   3.429
  996TIP3    H2 2995   0.261   5.856   3.332
  997TIP3   OH2 2996   4.521   1.448   3.899
  997TIP3    H1 2997   4.568   1.528   3.878
  997TIP3    H2 2998   4.446   1.476   3.952
  998TIP3   OH2 2999   5.351   2.322   1.493
  998TIP3    H1 3000   5.325   2.363   1.576
  998TIP3    H2 3001   5.353   2.395   1.431
  999TIP3   OH2 3002   1.635   2.201   3.803
  999TIP3    H1 3003   1.600   2.178   3.717
  999TIP3    H2 3004   1.587   2.280   3.829
 1000TIP3   OH2 3005   0.863   3.402   4.060
 1000TIP3    H1 3006   0.913   3.468   4.108
 1000TIP3    H2 3007   0.907   3.319   4.080
 1001TIP3   OH2 3008   4.184   2.513   1.351
 1001TIP3    H1 3009   4.276   2.518   1.377
 1001TIP3    H2 3010   4.152   2.603   1.358
 1002TIP3   OH2 3011   1.416   0.371   4.782
 1002TIP3    H1 3012   1.454   0.388   4.696
 1002TIP3    H2 3013   1.453   0.439   4.839
 1003TIP3   OH2 3014   3.959   2.801   0.295
 1003TIP3    H1 3015   3.970   2.881   0.243
 1003TIP3    H2 3016   4.046   2.759   0.293
 1004TIP3   OH2 3017   3.087   5.601   2.261
 1004TIP3    H1 3018   3.148   5.668   2.231
 1004TIP3    H2 3019   3.143   5.528   2.286
 1005TIP3   OH2 3020   1.312   4.418   3.360
 1005TIP3    H1 3021   1.338   4.384   3.274
 1005TIP3    H2 3022   1.292   4.339   3.411
 1006TIP3   OH2 3023   0.989   0.858   5.130
 1006TIP3    H1 3024   0.934   0.780   5.136
 1006TIP3    H2 3025   0.998   0.888   5.221
 1007TIP3   OH2 3026   5.313   3.178   2.876
 1007TIP3    H1 3027   5.330   3.093   2.837
 1007TIP3    H2 3028   5.296   3.236   2.801
 1008TIP3   OH2 3029   2.270   5.092   0.447
 1008TIP3    H1 3030   2.288   5.065   0.537
 1008TIP3    H2 3031   2.184   5.133   0.451
 1009TIP3   OH2 3032   1.785   1.698   3.081
 1009TIP3    H1 3033   1.774   1.628   3.017
 1009TIP3    H2 3034   1.703   1.699   3.131
 1010TIP3   OH2 3035   2.205   3.291   3.036
 1010TIP3    H1 3036   2.255   3.240   2.972
 1010TIP3    H2 3037   2.159   3.356   2.983
 1011TIP3   OH2 3038   2.376   5.689   1.094
 1011TIP3    H1 3039   2.376   5.688   1.190
 1011TIP3    H2 3040   2.467   5.673   1.070
 1012TIP3   OH2 3041   2.473   4.848   0.080
 1012TIP3    H1 3042   2.547   4.789   0.092
 1012TIP3    H2 3043   2.505   4.915   0.019
 1013TIP3   OH2 3044   6.160   3.370   2.434
 1013TIP3    H1 3045   6.159   3.300   2.500
 1013TIP3    H2 3046   6.163   3.324   2.350
 1014TIP3   OH2 3047   5.260   4.102   2.118
 1014TIP3    H1 3048   5.310   4.173   2.159
 1014TIP3    H2 3049   5.294   4.097   2.029
 1015TIP3   OH2 3050   4.674   2.883   4.149
 1015TIP3    H1 3051   4.767   2.904   4.144
 1015TIP3    H2 3052   4.669   2.810   4.211
 1016TIP3   OH2 3053   2.429   4.609   1.638
 1016TIP3    H1 3054   2.337   4.612   1.662
 1016TIP3    H2 3055   2.429   4.604   1.542
 1017TIP3   OH2 3056   3.545   1.016   4.632
 1017TIP3    H1 3057   3.496   1.098   4.620
 1017TIP3    H2 3058   3.580   1.022   4.720
 1018TIP3   OH2 3059   0.577   0.441   3.831
 1018TIP3    H1 3060   0.590   0.519   3.778
 1018TIP3    H2 3061   0.626   0.458   3.912
 1019TIP3   OH2 3062   2.819   3.907   4.211
 1019TIP3    H1 3063   2.769   3.980   4.175
 1019TIP3    H2 3064   2.805   3.913   4.305
 1020TIP3   OH2 3065   6.175   3.474   3.510
 1020TIP3    H1 3066   6.143   3.420   3.582
 1020TIP3    H2 3067   6.109   3.463   3.441
 1021TIP3   OH2 3068   2.887   5.058   4.438
 1021TIP3    H1 3069   2.892   5.101   4.353
 1021TIP3    H2 3070   2.954   5.101   4.491
 1022TIP3   OH2 3071   2.705   1.804   0.593
 1022TIP3    H1 3072   2.746   1.735   0.541
 1022TIP3    H2 3073   2.765   1.878   0.585
 1023TIP3   OH2 3074   4.392   4.808   1.298
 1023TIP3    H1 3075   4.385   4.755   1.219
 1023TIP3    H2 3076   4.303   4.813   1.332
 1024TIP3   OH2 3077   2.041   3.169   4.884
 1024TIP3    H1 3078   2.101   3.213   4.824
 1024TIP3    H2 3079   2.064   3.077   4.877
 1025TIP3   OH2 3080   6.268   1.924   3.382
 1025TIP3    H1 3081   6.358   1.937   3.411
 1025TIP3    H2 3082   6.268   1.838   3.340
 1026TIP3   OH2 3083   2.884   1.925   1.824
 1026TIP3    H1 3084   2.860   1.891   1.909
 1026TIP3    H2 3085   2.923   2.011   1.843
 1027TIP3   OH2 3086   0.312   0.554   0.866
 1027TIP3    H1 3087   0.239   0.608   0.837
 1027TIP3    H2 3088   0.282   0.464   0.857
 1028TIP3   OH2 3089   3.831   3.745   1.788
 1028TIP3    H1 3090   3.894   3.682   1.753
 1028TIP3    H2 3091   3.790   3.700   1.861
 1029TIP3   OH2 3092   2.891   6.004   2.271
 1029TIP3    H1 3093   2.898   5.909   2.270
 1029TIP3    H2 3094   2.840   6.023   2.350
 1030TIP3   OH2 3095   5.959   4.213   0.564
 1030TIP3    H1 3096   5.977   4.127   0.602
 1030TIP3    H2 3097   5.989   4.275   0.629
 1031TIP3   OH2 3098   4.316   5.441   4.915
 1031TIP3    H1 3099   4.245   5.386   4.949
 1031TIP3    H2 3100   4.274   5.495   4.848
 1032TIP3   OH2 3101   5.955   3.227   0.634
 1032TIP3    H1 3102   5.932   3.141   0.600
 1032TIP3    H2 3103   6.007   3.267   0.565
 1033TIP3   OH2 3104   2.531   5.485   2.983
 1033TIP3    H1 3105   2.619   5.508   3.013
 1033TIP3    H2 3106   2.546   5.419   2.916
 1034TIP3   OH2 3107   6.023   1.912   1.089
 1034TIP3    H1 3108   6.078   1.930   1.013
 1034TIP3    H2 3109   6.080   1.864   1.149
 1035TIP3   OH2 3110   0.993   2.980   3.396
 1035TIP3    H1 3111   0.997   2.921   3.471
 1035TIP3    H2 3112   0.985   2.922   3.320
 1036TIP3   OH2 3113   4.479   1.846   0.739
 1036TIP3    H1 3114   4.465   1.766   0.789
 1036TIP3    H2 3115   4.571   1.869   0.754
 1037TIP3   OH2 3116   3.149   4.904   3.748
 1037TIP3    H1 3117   3.224   4.964   3.747
 1037TIP3    H2 3118   3.079   4.954   3.790
 1038TIP3   OH2 3119   6.317   1.058   4.759
 1038TIP3    H1 3120   6.231   1.019   4.744
 1038TIP3    H2 3121   6.328   1.121   4.688
 1039TIP3   OH2 3122   0.802   2.043   0.832
 1039TIP3    H1 3123   0.797   1.994   0.914
 1039TIP3    H2 3124   0.774   1.979   0.766
 1040TIP3   OH2 3125   2.835   0.397   3.985
 1040TIP3    H1 3126   2.921   0.436   3.974
 1040TIP3    H2 3127   2.773   0.466   3.960
 1041TIP3   OH2 3128   0.693   5.938   4.605
 1041TIP3    H1 3129   0.765   5.892   4.649
 1041TIP3    H2 3130   0.616   5.885   4.623
 1042TIP3   OH2 3131   5.448   2.330   3.041
 1042TIP3    H1 3132   5.460   2.376   3.124
 1042TIP3    H2 3133   5.366   2.282   3.052
 1043TIP3   OH2 3134   1.191   2.380   2.604
 1043TIP3    H1 3135   1.136   2.397   2.680
 1043TIP3    H2 3136   1.280   2.404   2.633
 1044TIP3   OH2 3137   2.786   3.196   0.772
 1044TIP3    H1 3138   2.835   3.248   0.835
 1044TIP3    H2 3139   2.702   3.242   0.763
 1045TIP3   OH2 3140   6.094   2.820   4.100
 1045TIP3    H1 3141   6.154   2.844   4.170
 1045TIP3    H2 3142   6.010   2.858   4.127
 1046TIP3   OH2 3143   3.595   1.008   2.786
 1046TIP3    H1 3144   3.544   0.951   2.844
 1046TIP3    H2 3145   3.551   1.001   2.701
 1047TIP3   OH2 3146   2.856   2.780   0.564
 1047TIP3    H1 3147   2.809   2.772   0.647
 1047TIP3    H2 3148   2.791   2.759   0.497
 1048TIP3   OH2 3149   0.705   0.968   2.530
 1048TIP3    H1 3150   0.697   1.033   2.600
 1048TIP3    H2 3151   0.799   0.956   2.519
 1049TIP3   OH2 3152   5.618   2.856   3.410
 1049TIP3    H1 3153   5.612   2.950   3.394
 1049TIP3    H2 3154   5.609   2.816   3.323
 1050TIP3   OH2 3155   1.493   5.238   2.758
 1050TIP3    H1 3156   1.460   5.291   2.831
 1050TIP3    H2 3157   1.450   5.273   2.681
 1051TIP3   OH2 3158   4.089   0.310   3.436
 1051TIP3    H1 3159   4.025   0.375   3.466
 1051TIP3    H2 3160   4.072   0.233   3.490
 1052TIP3   OH2 3161   3.008   5.048   2.737
 1052TIP3    H1 3162   3.086   5.085   2.697
 1052TIP3    H2 3163   2.970   5.120   2.787
 1053TIP3   OH2 3164   1.782   4.552   2.257
 1053TIP3    H1 3165   1.745   4.639   2.243
 1053TIP3    H2 3166   1.721   4.510   2.317
 1054TIP3   OH2 3167   5.556   4.178   4.731
 1054TIP3    H1 3168   5.646   4.161   4.703
 1054TIP3    H2 3169   5.566   4.223   4.815
 1055TIP3   OH2 3170   0.120   1.306   0.976
 1055TIP3    H1 3171   0.056   1.236   0.989
 1055TIP3    H2 3172   0.136   1.307   0.881
 1056TIP3   OH2 3173   0.629   0.920   1.038
 1056TIP3    H1 3174   0.578   0.974   1.099
 1056TIP3    H2 3175   0.627   0.833   1.076
 1057TIP3   OH2 3176   5.805   1.170   4.646
 1057TIP3    H1 3177   5.725   1.131   4.612
 1057TIP3    H2 3178   5.853   1.198   4.568
 1058TIP3   OH2 3179   2.295   3.893   0.420
 1058TIP3    H1 3180   2.324   3.983   0.433
 1058TIP3    H2 3181   2.357   3.840   0.469
 1059TIP3   OH2 3182   4.784   1.935   2.158
 1059TIP3    H1 3183   4.872   1.898   2.153
 1059TIP3    H2 3184   4.762   1.957   2.068
 1060TIP3   OH2 3185   6.108   3.753   2.073
 1060TIP3    H1 3186   6.018   3.786   2.067
 1060TIP3    H2 3187   6.099   3.666   2.112
 1061TIP3   OH2 3188   1.024   0.540   3.857
 1061TIP3    H1 3189   0.958   0.503   3.798
 1061TIP3    H2 3190   0.973   0.585   3.924
 1062TIP3   OH2 3191   4.872   3.401   2.575
 1062TIP3    H1 3192   4.855   3.482   2.623
 1062TIP3    H2 3193   4.899   3.338   2.642
 1063TIP3   OH2 3194   6.346   0.375   4.930
 1063TIP3    H1 3195   6.385   0.294   4.898
 1063TIP3    H2 3196   6.291   0.349   5.004
 1064TIP3   OH2 3197   6.361   2.276   0.825
 1064TIP3    H1 3198   6.428   2.254   0.761
 1064TIP3    H2 3199   6.391   2.237   0.907
 1065TIP3   OH2 3200   2.708   4.972   3.674
 1065TIP3    H1 3201   2.659   4.917   3.735
 1065TIP3    H2 3202   2.691   4.934   3.588
 1066TIP3   OH2 3203   3.430   2.033   0.929
 1066TIP3    H1 3204   3.357   2.029   0.867
 1066TIP3    H2 3205   3.499   1.980   0.887
 1067TIP3   OH2 3206   0.058   4.761   0.508
 1067TIP3    H1 3207   0.001   4.830   0.542
 1067TIP3    H2 3208  -0.003   4.695   0.473
 1068TIP3   OH2 3209   1.446   1.255   1.119
 1068TIP3    H1 3210   1.477   1.172   1.155
 1068TIP3    H2 3211   1.526   1.307   1.107
 1069TIP3   OH2 3212   5.432   2.624   2.898
 1069TIP3    H1 3213   5.402   2.556   2.958
 1069TIP3    H2 3214   5.527   2.628   2.912
 1070TIP3   OH2 3215   5.513   3.356   2.642
 1070TIP3    H1 3216   5.529   3.438   2.594
 1070TIP3    H2 3217   5.418   3.354   2.655
 1071TIP3   OH2 3218   1.882   2.212   2.187
 1071TIP3    H1 3219   1.918   2.153   2.254
 1071TIP3    H2 3220   1.813   2.161   2.145
 1072TIP3   OH2 3221   1.486   5.297   4.935
 1072TIP3    H1 3222   1.467   5.248   5.015
 1072TIP3    H2 3223   1.409   5.353   4.922
 1073TIP3   OH2 3224   1.431   2.198   5.081
 1073TIP3    H1 3225   1.405   2.290   5.078
 1073TIP3    H2 3226   1.489   2.186   5.005
 1074TIP3   OH2 3227   1.403   4.132   2.864
 1074TIP3    H1 3228   1.356   4.067   2.812
 1074TIP3    H2 3229   1.351   4.211   2.857
 1075TIP3   OH2 3230   2.344   4.937   2.407
 1075TIP3    H1 3231   2.300   4.961   2.488
 1075TIP3    H2 3232   2.273   4.904   2.350
 1076TIP3   OH2 3233   4.716   4.591   4.174
 1076TIP3    H1 3234   4.670   4.586   4.090
 1076TIP3    H2 3235   4.770   4.512   4.176
 1077TIP3   OH2 3236   1.706   0.458   1.450
 1077TIP3    H1 3237   1.719   0.540   1.498
 1077TIP3    H2 3238   1.632   0.476   1.392
 1078TIP3   OH2 3239   4.515   2.351   1.074
 1078TIP3    H1 3240   4.438   2.306   1.109
 1078TIP3    H2 3241   4.493   2.444   1.080
 1079TIP3   OH2 3242   3.327   3.203   1.122
 1079TIP3    H1 3243   3.377   3.250   1.188
 1079TIP3    H2 3244   3.259   3.157   1.172
 1080TIP3   OH2 3245   5.027   4.357   0.896
 1080TIP3    H1 3246   4.976   4.296   0.949
 1080TIP3    H2 3247   5.107   4.310   0.875
 1081TIP3   OH2 3248   2.463   2.404   4.403
 1081TIP3    H1 3249   2.500   2.468   4.464
 1081TIP3    H2 3250   2.369   2.404   4.421
 1082TIP3   OH2 3251   3.291   0.773   1.492
 1082TIP3    H1 3252   3.302   0.864   1.517
 1082TIP3    H2 3253   3.375   0.748   1.452
 1083TIP3   OH2 3254   3.237   0.457   1.125
 1083TIP3    H1 3255   3.161   0.470   1.068
 1083TIP3    H2 3256   3.242   0.536   1.178
 1084TIP3   OH2 3257   3.137   4.534   0.954
 1084TIP3    H1 3258   3.180   4.460   0.912
 1084TIP3    H2 3259   3.046   4.505   0.965
 1085TIP3   OH2 3260   0.920   0.306   2.358
 1085TIP3    H1 3261   0.903   0.389   2.402
 1085TIP3    H2 3262   0.995   0.323   2.302
 1086TIP3   OH2 3263   1.545   2.709   1.723
 1086TIP3    H1 3264   1.469   2.653   1.706
 1086TIP3    H2 3265   1.516   2.766   1.795
 1087TIP3   OH2 3266   3.844   5.846   0.918
 1087TIP3    H1 3267   3.756   5.815   0.895
 1087TIP3    H2 3268   3.868   5.905   0.847
 1088TIP3   OH2 3269   0.728   0.898   3.615
 1088TIP3    H1 3270   0.787   0.910   3.689
 1088TIP3    H2 3271   0.698   0.986   3.593
 1089TIP3   OH2 3272   3.570   0.200   3.678
 1089TIP3    H1 3273   3.526   0.177   3.760
 1089TIP3    H2 3274   3.536   0.287   3.657
 1090TIP3   OH2 3275   1.535   1.111   5.007
 1090TIP3    H1 3276   1.513   1.060   4.930
 1090TIP3    H2 3277   1.527   1.203   4.979
 1091TIP3   OH2 3278   1.584   1.716   2.763
 1091TIP3    H1 3279   1.535   1.753   2.836
 1091TIP3    H2 3280   1.666   1.766   2.761
 1092TIP3   OH2 3281   6.140   3.133   3.354
 1092TIP3    H1 3282   6.098   3.163   3.435
 1092TIP3    H2 3283   6.147   3.038   3.364
 1093TIP3   OH2 3284   4.459   4.398   0.699
 1093TIP3    H1 3285   4.423   4.470   0.750
 1093TIP3    H2 3286   4.553   4.400   0.717
 1094TIP3   OH2 3287   5.224   5.531   4.630
 1094TIP3    H1 3288   5.251   5.442   4.648
 1094TIP3    H2 3289   5.247   5.546   4.538
 1095TIP3   OH2 3290   5.597   3.780   2.326
 1095TIP3    H1 3291   5.616   3.789   2.233
 1095TIP3    H2 3292   5.523   3.838   2.342
 1096TIP3   OH2 3293   5.799   2.930   0.193
 1096TIP3    H1 3294   5.833   2.977   0.117
 1096TIP3    H2 3295   5.834   2.842   0.184
 1097TIP3   OH2 3296   1.411   1.905   0.688
 1097TIP3    H1 3297   1.485   1.907   0.749
 1097TIP3    H2 3298   1.448   1.871   0.607
 1098TIP3   OH2 3299   2.053   0.477   1.666
 1098TIP3    H1 3300   2.144   0.450   1.666
 1098TIP3    H2 3301   2.034   0.500   1.575
 1099TIP3   OH2 3302   6.290   5.453   4.088
 1099TIP3    H1 3303   6.202   5.429   4.119
 1099TIP3    H2 3304   6.284   5.546   4.069
 1100TIP3   OH2 3305   5.188   2.191   3.380
 1100TIP3    H1 3306   5.233   2.243   3.446
 1100TIP3    H2 3307   5.095   2.211   3.392
 1101TIP3   OH2 3308   6.044   1.033   2.936
 1101TIP3    H1 3309   6.036   1.128   2.923
 1101TIP3    H2 3310   5.983   1.014   3.007
 1102TIP3   OH2 3311   3.278   3.756   1.714
 1102TIP3    H1 3312   3.266   3.794   1.627
 1102TIP3    H2 3313   3.195   3.773   1.760
 1103TIP3   OH2 3314   0.083   3.275   4.884
 1103TIP3    H1 3315   0.134   3.307   4.810
 1103TIP3    H2 3316   0.148   3.243   4.947
 1104TIP3   OH2 3317   4.974   2.861   2.183
 1104TIP3    H1 3318   4.943   2.947   2.210
 1104TIP3    H2 3319   5.044   2.879   2.120
 1105TIP3   OH2 3320   2.090   0.155   0.165
 1105TIP3    H1 3321   2.013   0.176   0.218
 1105TIP3    H2 3322   2.155   0.222   0.189
 1106TIP3   OH2 3323   1.714   3.549   2.193
 1106TIP3    H1 3324   1.752   3.481   2.248
 1106TIP3    H2 3325   1.675   3.501   2.119
 1107TIP3   OH2 3326   4.538   1.707   2.634
 1107TIP3    H1 3327   4.470   1.687   2.699
 1107TIP3    H2 3328   4.607   1.643   2.651
 1108TIP3   OH2 3329   5.754   5.736   4.151
 1108TIP3    H1 3330   5.689   5.673   4.183
 1108TIP3    H2 3331   5.705   5.797   4.096
 1109TIP3   OH2 3332   5.134   3.866   2.088
 1109TIP3    H1 3333   5.044   3.869   2.120
 1109TIP3    H2 3334   5.171   3.951   2.114
 1110TIP3   OH2 3335   4.311   0.711   0.184
 1110TIP3    H1 3336   4.260   0.693   0.105
 1110TIP3    H2 3337   4.331   0.624   0.219
 1111TIP3   OH2 3338   1.150   3.574   4.906
 1111TIP3    H1 3339   1.159   3.663   4.871
 1111TIP3    H2 3340   1.075   3.579   4.966
 1112TIP3   OH2 3341   3.777   3.081   2.233
 1112TIP3    H1 3342   3.727   3.120   2.161
 1112TIP3    H2 3343   3.822   3.154   2.273
 1113TIP3   OH2 3344   5.685   2.507   2.447
 1113TIP3    H1 3345   5.609   2.548   2.489
 1113TIP3    H2 3346   5.757   2.568   2.462
 1114TIP3   OH2 3347   3.709   2.691   1.892
 1114TIP3    H1 3348   3.777   2.647   1.942
 1114TIP3    H2 3349   3.651   2.730   1.958
 1115TIP3   OH2 3350   5.892   0.397   0.576
 1115TIP3    H1 3351   5.842   0.399   0.494
 1115TIP3    H2 3352   5.868   0.313   0.616
 1116TIP3   OH2 3353   2.906   1.878   4.780
 1116TIP3    H1 3354   2.838   1.811   4.794
 1116TIP3    H2 3355   2.859   1.951   4.739
 1117TIP3   OH2 3356   2.184   1.542   3.763
 1117TIP3    H1 3357   2.088   1.550   3.761
 1117TIP3    H2 3358   2.214   1.600   3.692
 1118TIP3   OH2 3359   1.050   5.818   0.513
 1118TIP3    H1 3360   1.005   5.755   0.455
 1118TIP3    H2 3361   1.064   5.769   0.594
 1119TIP3   OH2 3362   0.227   0.704   2.659
 1119TIP3    H1 3363   0.212   0.777   2.719
 1119TIP3    H2 3364   0.143   0.692   2.614
 1120TIP3   OH2 3365   5.480   5.397   0.550
 1120TIP3    H1 3366   5.574   5.410   0.561
 1120TIP3    H2 3367   5.454   5.465   0.488
 1121TIP3   OH2 3368   0.614   0.190   4.284
 1121TIP3    H1 3369   0.546   0.132   4.249
 1121TIP3    H2 3370   0.645   0.145   4.362
 1122TIP3   OH2 3371   1.970   0.025   2.582
 1122TIP3    H1 3372   2.064   0.043   2.590
 1122TIP3    H2 3373   1.929   0.091   2.637
 1123TIP3   OH2 3374   1.128   2.931   4.020
 1123TIP3    H1 3375   1.212   2.916   3.977
 1123TIP3    H2 3376   1.112   3.025   4.011
 1124TIP3   OH2 3377   5.085   2.551   1.743
 1124TIP3    H1 3378   5.151   2.596   1.796
 1124TIP3    H2 3379   5.052   2.481   1.799
 1125TIP3   OH2 3380   2.104   1.652   0.272
 1125TIP3    H1 3381   2.180   1.694   0.313
 1125TIP3    H2 3382   2.037   1.720   0.269
 1126TIP3   OH2 3383   6.252   1.649   2.737
 1126TIP3    H1 3384   6.336   1.683   2.704
 1126TIP3    H2 3385   6.220   1.594   2.666
 1127TIP3   OH2 3386   0.337   0.898   4.277
 1127TIP3    H1 3387   0.401   0.952   4.231
 1127TIP3    H2 3388   0.292   0.849   4.207
 1128TIP3   OH2 3389   1.901   0.152   3.045
 1128TIP3    H1 3390   1.927   0.191   2.961
 1128TIP3    H2 3391   1.819   0.107   3.025
 1129TIP3   OH2 3392   3.484   5.815   1.282
 1129TIP3    H1 3393   3.471   5.721   1.297
 1129TIP3    H2 3394   3.567   5.820   1.235
 1130TIP3   OH2 3395   1.180   4.724   3.568
 1130TIP3    H1 3396   1.275   4.722   3.552
 1130TIP3    H2 3397   1.144   4.766   3.490
 1131TIP3   OH2 3398   4.943   5.413   4.642
 1131TIP3    H1 3399   5.011   5.365   4.595
 1131TIP3    H2 3400   4.863   5.393   4.594
 1132TIP3   OH2 3401   3.893   1.096   3.656
 1132TIP3    H1 3402   3.915   1.087   3.563
 1132TIP3    H2 3403   3.845   1.178   3.661
 1133TIP3   OH2 3404   4.363   2.121   1.701
 1133TIP3    H1 3405   4.427   2.138   1.632
 1133TIP3    H2 3406   4.382   2.032   1.731
 1134TIP3   OH2 3407   5.447   1.893  -0.014
 1134TIP3    H1 3408   5.421   1.814   0.034
 1134TIP3    H2 3409   5.520   1.863  -0.068
 1135TIP3   OH2 3410   5.237   2.721   4.543
 1135TIP3    H1 3411   5.298   2.767   4.600
 1135TIP3    H2 3412   5.232   2.775   4.464
 1136TIP3   OH2 3413   4.172   1.856   3.306
 1136TIP3    H1 3414   4.127   1.923   3.254
 1136TIP3    H2 3415   4.261   1.891   3.318
 1137TIP3   OH2 3416   3.122   5.407   2.603
 1137TIP3    H1 3417   3.176   5.329   2.618
 1137TIP3    H2 3418   3.152   5.440   2.518
 1138TIP3   OH2 3419   3.036   3.007   4.081
 1138TIP3    H1 3420   3.062   2.934   4.024
 1138TIP3    H2 3421   3.099   3.076   4.061
 1139TIP3   OH2 3422   3.552   2.207   2.390
 1139TIP3    H1 3423   3.631   2.221   2.338
 1139TIP3    H2 3424   3.567   2.257   2.471
 1140TIP3   OH2 3425   5.497   3.353   2.972
 1140TIP3    H1 3426   5.493   3.429   2.913
 1140TIP3    H2 3427   5.418   3.304   2.953
 1141TIP3   OH2 3428   2.883   4.346   4.616
 1141TIP3    H1 3429   2.869   4.434   4.651
 1141TIP3    H2 3430   2.840   4.288   4.680
 1142TIP3   OH2 3431   4.083   3.794   3.180
 1142TIP3    H1 3432   4.053   3.703   3.181
 1142TIP3    H2 3433   4.003   3.845   3.194
 1143TIP3   OH2 3434   3.131   4.079   0.453
 1143TIP3    H1 3435   3.065   4.075   0.522
 1143TIP3    H2 3436   3.207   4.033   0.489
 1144TIP3   OH2 3437   4.602   3.847   2.674
 1144TIP3    H1 3438   4.654   3.904   2.732
 1144TIP3    H2 3439   4.567   3.780   2.732
 1145TIP3   OH2 3440   1.504   0.213   3.634
 1145TIP3    H1 3441   1.444   0.243   3.565
 1145TIP3    H2 3442   1.587   0.255   3.614
 1146TIP3   OH2 3443   0.838   4.745   3.022
 1146TIP3    H1 3444   0.744   4.731   3.008
 1146TIP3    H2 3445   0.860   4.689   3.097
 1147TIP3   OH2 3446   3.795   5.406   4.315
 1147TIP3    H1 3447   3.790   5.442   4.227
 1147TIP3    H2 3448   3.819   5.314   4.302
 1148TIP3   OH2 3449   0.488   3.650   1.782
 1148TIP3    H1 3450   0.503   3.629   1.690
 1148TIP3    H2 3451   0.570   3.625   1.825
 1149TIP3   OH2 3452   2.349   0.886   3.878
 1149TIP3    H1 3453   2.357   0.791   3.869
 1149TIP3    H2 3454   2.430   0.913   3.921
 1150TIP3   OH2 3455   1.310   0.172   4.941
 1150TIP3    H1 3456   1.336   0.257   4.907
 1150TIP3    H2 3457   1.370   0.110   4.900
 1151TIP3   OH2 3458   1.946   3.307   3.808
 1151TIP3    H1 3459   1.897   3.282   3.886
 1151TIP3    H2 3460   2.037   3.309   3.836
 1152TIP3   OH2 3461   5.615   4.056   0.597
 1152TIP3    H1 3462   5.619   4.100   0.512
 1152TIP3    H2 3463   5.701   4.073   0.636
 1153TIP3   OH2 3464   0.827   4.714   0.160
 1153TIP3    H1 3465   0.900   4.667   0.200
 1153TIP3    H2 3466   0.843   4.806   0.182
 1154TIP3   OH2 3467   5.661   1.235   1.130
 1154TIP3    H1 3468   5.589   1.227   1.067
 1154TIP3    H2 3469   5.630   1.187   1.207
 1155TIP3   OH2 3470   5.809   3.995   3.909
 1155TIP3    H1 3471   5.807   4.006   3.814
 1155TIP3    H2 3472   5.871   3.923   3.923
 1156TIP3   OH2 3473   2.075   4.321   4.656
 1156TIP3    H1 3474   1.997   4.267   4.662
 1156TIP3    H2 3475   2.095   4.345   4.747
 1157TIP3   OH2 3476   5.709   2.011   4.465
 1157TIP3    H1 3477   5.699   2.006   4.560
 1157TIP3    H2 3478   5.779   2.074   4.452
 1158TIP3   OH2 3479   2.758   4.523   4.990
 1158TIP3    H1 3480   2.760   4.551   5.082
 1158TIP3    H2 3481   2.720   4.597   4.943
 1159TIP3   OH2 3482   1.090   4.306   5.156
 1159TIP3    H1 3483   1.126   4.376   5.103
 1159TIP3    H2 3484   1.016   4.272   5.105
 1160TIP3   OH2 3485   1.026   5.631   1.644
 1160TIP3    H1 3486   1.022   5.690   1.719
 1160TIP3    H2 3487   1.110   5.651   1.602
 1161TIP3   OH2 3488   2.334   2.577   1.820
 1161TIP3    H1 3489   2.375   2.498   1.785
 1161TIP3    H2 3490   2.240   2.560   1.813
 1162TIP3   OH2 3491   0.955   4.146   1.063
 1162TIP3    H1 3492   0.995   4.187   1.140
 1162TIP3    H2 3493   0.998   4.187   0.988
 1163TIP3   OH2 3494   2.145   0.183   3.181
 1163TIP3    H1 3495   2.078   0.157   3.118
 1163TIP3    H2 3496   2.201   0.243   3.133
 1164TIP3   OH2 3497   0.346   2.018   3.277
 1164TIP3    H1 3498   0.363   2.112   3.281
 1164TIP3    H2 3499   0.429   1.977   3.299
 1165TIP3   OH2 3500   0.444   0.973   0.657
 1165TIP3    H1 3501   0.507   0.902   0.674
 1165TIP3    H2 3502   0.496   1.053   0.662
 1166TIP3   OH2 3503   2.145   4.191   1.604
 1166TIP3    H1 3504   2.067   4.152   1.642
 1166TIP3    H2 3505   2.163   4.267   1.659
 1167TIP3   OH2 3506   2.628   2.253   4.223
 1167TIP3    H1 3507   2.641   2.163   4.253
 1167TIP3    H2 3508   2.569   2.291   4.288
 1168TIP3   OH2 3509   0.757   2.903   0.495
 1168TIP3    H1 3510   0.757   2.850   0.416
 1168TIP3    H2 3511   0.779   2.991   0.465
 1169TIP3   OH2 3512   5.617   4.978   0.006
 1169TIP3    H1 3513   5.594   4.953   0.096
 1169TIP3    H2 3514   5.709   5.002   0.010
 1170TIP3   OH2 3515   4.921   0.682   2.334
 1170TIP3    H1 3516   4.980   0.721   2.399
 1170TIP3    H2 3517   4.958   0.709   2.250
 1171TIP3   OH2 3518   3.626   3.611   4.305
 1171TIP3    H1 3519   3.548   3.666   4.310
 1171TIP3    H2 3520   3.686   3.659   4.248
 1172TIP3   OH2 3521   1.343   0.084   2.928
 1172TIP3    H1 3522   1.279   0.092   2.857
 1172TIP3    H2 3523   1.360  -0.010   2.935
 1173TIP3   OH2 3524   3.270   3.139   4.872
 1173TIP3    H1 3525   3.236   3.108   4.956
 1173TIP3    H2 3526   3.320   3.065   4.837
 1174TIP3   OH2 3527   2.032   4.714   1.826
 1174TIP3    H1 3528   1.960   4.713   1.763
 1174TIP3    H2 3529   2.084   4.636   1.805
 1175TIP3   OH2 3530   5.913   1.819   1.839
 1175TIP3    H1 3531   5.994   1.869   1.832
 1175TIP3    H2 3532   5.892   1.795   1.748
 1176TIP3   OH2 3533   1.962   3.193   1.227
 1176TIP3    H1 3534   2.035   3.247   1.195
 1176TIP3    H2 3535   2.003   3.111   1.254
 1177TIP3   OH2 3536   2.147   2.650   3.767
 1177TIP3    H1 3537   2.179   2.576   3.716
 1177TIP3    H2 3538   2.213   2.662   3.835
 1178TIP3   OH2 3539   0.468   2.888   2.041
 1178TIP3    H1 3540   0.477   2.961   2.102
 1178TIP3    H2 3541   0.488   2.811   2.094
 1179TIP3   OH2 3542   0.741   2.683   3.728
 1179TIP3    H1 3543   0.791   2.645   3.800
 1179TIP3    H2 3544   0.686   2.749   3.769
 1180TIP3   OH2 3545   4.769   1.242   3.742
 1180TIP3    H1 3546   4.805   1.190   3.670
 1180TIP3    H2 3547   4.804   1.330   3.728
 1181TIP3   OH2 3548   1.229   1.076   0.719
 1181TIP3    H1 3549   1.202   0.984   0.716
 1181TIP3    H2 3550   1.288   1.081   0.795
 1182TIP3   OH2 3551   1.344   4.203   3.790
 1182TIP3    H1 3552   1.334   4.120   3.837
 1182TIP3    H2 3553   1.264   4.252   3.810
 1183TIP3   OH2 3554   3.371   0.833   2.603
 1183TIP3    H1 3555   3.409   0.787   2.677
 1183TIP3    H2 3556   3.277   0.814   2.608
 1184TIP3   OH2 3557   0.472   5.213   2.782
 1184TIP3    H1 3558   0.425   5.289   2.816
 1184TIP3    H2 3559   0.407   5.143   2.778
 1185TIP3   OH2 3560   2.067   2.548   1.163
 1185TIP3    H1 3561   2.015   2.623   1.134
 1185TIP3    H2 3562   2.027   2.522   1.246
 1186TIP3   OH2 3563   0.129   2.923   2.022
 1186TIP3    H1 3564   0.211   2.880   2.043
 1186TIP3    H2 3565   0.123   2.995   2.086
 1187TIP3   OH2 3566   0.149   1.006   2.457
 1187TIP3    H1 3567   0.227   0.958   2.429
 1187TIP3    H2 3568   0.158   1.015   2.552
 1188TIP3   OH2 3569   3.379   4.860   1.927
 1188TIP3    H1 3570   3.299   4.912   1.914
 1188TIP3    H2 3571   3.351   4.787   1.982
 1189TIP3   OH2 3572   6.260   0.504   1.980
 1189TIP3    H1 3573   6.294   0.467   1.899
 1189TIP3    H2 3574   6.294   0.594   1.980
 1190TIP3   OH2 3575   4.185   3.683   1.893
 1190TIP3    H1 3576   4.194   3.776   1.912
 1190TIP3    H2 3577   4.160   3.679   1.800
 1191TIP3   OH2 3578   4.409   1.474   0.789
 1191TIP3    H1 3579   4.399   1.485   0.695
 1191TIP3    H2 3580   4.325   1.441   0.819
 1192TIP3   OH2 3581   5.533   0.059   2.408
 1192TIP3    H1 3582   5.558   0.129   2.348
 1192TIP3    H2 3583   5.438   0.050   2.397
 1193TIP3   OH2 3584   1.418   3.581   1.480
 1193TIP3    H1 3585   1.393   3.513   1.542
 1193TIP3    H2 3586   1.466   3.535   1.411
 1194TIP3   OH2 3587   5.563   5.932   5.097
 1194TIP3    H1 3588   5.500   5.862   5.114
 1194TIP3    H2 3589   5.514   5.998   5.049
 1195TIP3   OH2 3590   5.080   4.925   3.107
 1195TIP3    H1 3591   5.171   4.914   3.080
 1195TIP3    H2 3592   5.046   4.993   3.049
 1196TIP3   OH2 3593   5.281   0.712   2.707
 1196TIP3    H1 3594   5.322   0.696   2.792
 1196TIP3    H2 3595   5.264   0.625   2.672
 1197TIP3   OH2 3596   0.061   0.431   3.440
 1197TIP3    H1 3597   0.100   0.357   3.392
 1197TIP3    H2 3598   0.065   0.404   3.532
 1198TIP3   OH2 3599   0.504   5.911   2.186
 1198TIP3    H1 3600   0.457   5.832   2.215
 1198TIP3    H2 3601   0.438   5.979   2.186
 1199TIP3   OH2 3602   0.825   1.754   3.266
 1199TIP3    H1 3603   0.856   1.843   3.250
 1199TIP3    H2 3604   0.884   1.698   3.215
 1200TIP3   OH2 3605   3.784   0.742   0.416
 1200TIP3    H1 3606   3.812   0.827   0.383
 1200TIP3    H2 3607   3.722   0.709   0.350
 1201TIP3   OH2 3608   5.637   5.712   3.733
 1201TIP3    H1 3609   5.601   5.798   3.715
 1201TIP3    H2 3610   5.731   5.727   3.744
 1202TIP3   OH2 3611   3.118   5.843   0.583
 1202TIP3    H1 3612   3.193   5.872   0.531
 1202TIP3    H2 3613   3.045   5.841   0.521
 1203TIP3   OH2 3614   4.922   2.563   2.788
 1203TIP3    H1 3615   4.928   2.469   2.803
 1203TIP3    H2 3616   4.864   2.572   2.713
 1204TIP3   OH2 3617   3.845   2.986   0.693
 1204TIP3    H1 3618   3.811   2.953   0.776
 1204TIP3    H2 3619   3.784   2.953   0.627
 1205TIP3   OH2 3620   0.930   0.179   4.791
 1205TIP3    H1 3621   0.950   0.090   4.819
 1205TIP3    H2 3622   1.003   0.204   4.735
 1206TIP3   OH2 3623   6.285   1.146   3.503
 1206TIP3    H1 3624   6.316   1.072   3.451
 1206TIP3    H2 3625   6.209   1.179   3.455
 1207TIP3   OH2 3626   6.246   5.592   4.411
 1207TIP3    H1 3627   6.326   5.584   4.463
 1207TIP3    H2 3628   6.254   5.678   4.370
 1208TIP3   OH2 3629   4.735   5.753   0.032
 1208TIP3    H1 3630   4.730   5.657   0.033
 1208TIP3    H2 3631   4.773   5.775   0.117
 1209TIP3   OH2 3632   5.429   5.612   4.889
 1209TIP3    H1 3633   5.346   5.586   4.848
 1209TIP3    H2 3634   5.475   5.661   4.820
 1210TIP3   OH2 3635   4.842   3.754   1.111
 1210TIP3    H1 3636   4.907   3.820   1.135
 1210TIP3    H2 3637   4.883   3.671   1.134
 1211TIP3   OH2 3638   4.636   5.244   4.140
 1211TIP3    H1 3639   4.721   5.286   4.149
 1211TIP3    H2 3640   4.613   5.254   4.048
 1212TIP3   OH2 3641   2.665   4.240   2.482
 1212TIP3    H1 3642   2.713   4.168   2.524
 1212TIP3    H2 3643   2.642   4.298   2.554
 1213TIP3   OH2 3644   2.301   4.418   0.539
 1213TIP3    H1 3645   2.299   4.508   0.571
 1213TIP3    H2 3646   2.338   4.426   0.450
 1214TIP3   OH2 3647   0.961   1.374   3.082
 1214TIP3    H1 3648   0.929   1.375   2.992
 1214TIP3    H2 3649   0.885   1.349   3.134
 1215TIP3   OH2 3650   4.881   2.187   0.523
 1215TIP3    H1 3651   4.859   2.259   0.463
 1215TIP3    H2 3652   4.798   2.165   0.565
 1216TIP3   OH2 3653   6.242   5.365   3.363
 1216TIP3    H1 3654   6.270   5.430   3.428
 1216TIP3    H2 3655   6.188   5.415   3.302
 1217TIP3   OH2 3656   0.980   3.759   3.210
 1217TIP3    H1 3657   0.992   3.664   3.200
 1217TIP3    H2 3658   0.890   3.774   3.182
 1218TIP3   OH2 3659   4.331   0.748   4.964
 1218TIP3    H1 3660   4.407   0.718   5.013
 1218TIP3    H2 3661   4.264   0.681   4.982
 1219TIP3   OH2 3662   1.573   2.086   2.091
 1219TIP3    H1 3663   1.536   2.001   2.115
 1219TIP3    H2 3664   1.568   2.089   1.996
 1220TIP3   OH2 3665   0.464   5.798   4.690
 1220TIP3    H1 3666   0.469   5.724   4.750
 1220TIP3    H2 3667   0.411   5.863   4.736
 1221TIP3   OH2 3668   5.319   5.202   0.713
 1221TIP3    H1 3669   5.376   5.267   0.671
 1221TIP3    H2 3670   5.346   5.202   0.804
 1222TIP3   OH2 3671   1.584   3.268   3.270
 1222TIP3    H1 3672   1.662   3.225   3.305
 1222TIP3    H2 3673   1.561   3.334   3.335
 1223TIP3   OH2 3674   1.541   1.645   3.296
 1223TIP3    H1 3675   1.452   1.672   3.277
 1223TIP3    H2 3676   1.545   1.552   3.273
 1224TIP3   OH2 3677   5.028   0.241   2.494
 1224TIP3    H1 3678   4.958   0.180   2.471
 1224TIP3    H2 3679   5.026   0.307   2.424
 1225TIP3   OH2 3680   0.722   1.344   3.205
 1225TIP3    H1 3681   0.656   1.336   3.274
 1225TIP3    H2 3682   0.675   1.381   3.131
 1226TIP3   OH2 3683   0.199   2.423   2.567
 1226TIP3    H1 3684   0.203   2.412   2.662
 1226TIP3    H2 3685   0.106   2.436   2.549
 1227TIP3   OH2 3686   6.130   4.885   1.523
 1227TIP3    H1 3687   6.042   4.861   1.551
 1227TIP3    H2 3688   6.127   4.882   1.428
 1228TIP3   OH2 3689   4.260   3.950   3.358
 1228TIP3    H1 3690   4.225   3.901   3.283
 1228TIP3    H2 3691   4.197   4.020   3.372
 1229TIP3   OH2 3692   0.660   1.118   2.745
 1229TIP3    H1 3693   0.697   1.206   2.755
 1229TIP3    H2 3694   0.657   1.082   2.834
 1230TIP3   OH2 3695   6.287   0.819   4.528
 1230TIP3    H1 3696   6.320   0.785   4.611
 1230TIP3    H2 3697   6.260   0.741   4.479
 1231TIP3   OH2 3698   3.910   0.512   3.545
 1231TIP3    H1 3699   3.932   0.556   3.626
 1231TIP3    H2 3700   3.823   0.543   3.523
 1232TIP3   OH2 3701   3.361   4.606   0.048
 1232TIP3    H1 3702   3.349   4.701   0.048
 1232TIP3    H2 3703   3.307   4.575   0.120
 1233TIP3   OH2 3704   4.452   2.650   1.129
 1233TIP3    H1 3705   4.374   2.691   1.166
 1233TIP3    H2 3706   4.490   2.717   1.072
 1234TIP3   OH2 3707   2.940   5.913   4.752
 1234TIP3    H1 3708   2.935   5.989   4.695
 1234TIP3    H2 3709   2.975   5.947   4.834
 1235TIP3   OH2 3710   2.786   0.264   4.644
 1235TIP3    H1 3711   2.844   0.302   4.710
 1235TIP3    H2 3712   2.780   0.172   4.667
 1236TIP3   OH2 3713   4.447   4.673   0.464
 1236TIP3    H1 3714   4.390   4.736   0.419
 1236TIP3    H2 3715   4.527   4.673   0.413
 1237TIP3   OH2 3716   3.684   5.640   3.288
 1237TIP3    H1 3717   3.616   5.676   3.344
 1237TIP3    H2 3718   3.679   5.545   3.302
 1238TIP3   OH2 3719   0.446   0.157   3.941
 1238TIP3    H1 3720   0.500   0.154   3.862
 1238TIP3    H2 3721   0.435   0.250   3.959
 1239TIP3   OH2 3722   3.350   2.059   1.492
 1239TIP3    H1 3723   3.276   1.999   1.504
 1239TIP3    H2 3724   3.377   2.047   1.402
 1240TIP3   OH2 3725   1.036   1.480   1.335
 1240TIP3    H1 3726   0.985   1.400   1.347
 1240TIP3    H2 3727   1.106   1.455   1.274
 1241TIP3   OH2 3728   2.200   1.992   3.606
 1241TIP3    H1 3729   2.187   2.076   3.648
 1241TIP3    H2 3730   2.191   1.928   3.677
 1242TIP3   OH2 3731   2.255   4.973   1.314
 1242TIP3    H1 3732   2.178   4.916   1.310
 1242TIP3    H2 3733   2.219   5.061   1.318
 1243TIP3   OH2 3734   3.827   0.352   0.288
 1243TIP3    H1 3735   3.789   0.293   0.223
 1243TIP3    H2 3736   3.752   0.383   0.339
 1244TIP3   OH2 3737   5.630   2.344   3.887
 1244TIP3    H1 3738   5.620   2.265   3.832
 1244TIP3    H2 3739   5.545   2.352   3.931
 1245TIP3   OH2 3740   3.763   0.701   2.137
 1245TIP3    H1 3741   3.754   0.621   2.086
 1245TIP3    H2 3742   3.683   0.705   2.190
 1246TIP3   OH2 3743   6.282   1.717   3.020
 1246TIP3    H1 3744   6.346   1.655   3.054
 1246TIP3    H2 3745   6.238   1.670   2.949
 1247TIP3   OH2 3746   3.743   0.800   3.428
 1247TIP3    H1 3747   3.708   0.878   3.384
 1247TIP3    H2 3748   3.825   0.829   3.467
 1248TIP3   OH2 3749   3.230   1.970   4.237
 1248TIP3    H1 3750   3.181   1.889   4.230
 1248TIP3    H2 3751   3.278   1.976   4.154
 1249TIP3   OH2 3752   2.643  -0.009   2.828
 1249TIP3    H1 3753   2.699  -0.031   2.903
 1249TIP3    H2 3754   2.702  -0.012   2.753
 1250TIP3   OH2 3755   5.174   2.380   0.629
 1250TIP3    H1 3756   5.101   2.415   0.679
 1250TIP3    H2 3757   5.211   2.456   0.582
 1251TIP3   OH2 3758   2.515   4.205   1.155
 1251TIP3    H1 3759   2.572   4.239   1.086
 1251TIP3    H2 3760   2.436   4.258   1.150
 1252TIP3   OH2 3761   2.539   4.822   3.148
 1252TIP3    H1 3762   2.509   4.860   3.231
 1252TIP3    H2 3763   2.553   4.730   3.167
 1253TIP3   OH2 3764   4.199   2.386   5.125
 1253TIP3    H1 3765   4.219   2.419   5.037
 1253TIP3    H2 3766   4.249   2.443   5.184
 1254TIP3   OH2 3767   0.946   1.632   0.924
 1254TIP3    H1 3768   1.001   1.566   0.967
 1254TIP3    H2 3769   1.006   1.679   0.866
 1255TIP3   OH2 3770   5.431   2.875   4.374
 1255TIP3    H1 3771   5.477   2.801   4.334
 1255TIP3    H2 3772   5.497   2.915   4.432
 1256TIP3   OH2 3773   3.014   1.746   1.029
 1256TIP3    H1 3774   3.103   1.748   1.065
 1256TIP3    H2 3775   2.994   1.838   1.011
 1257TIP3   OH2 3776   1.669   1.183   3.557
 1257TIP3    H1 3777   1.713   1.233   3.626
 1257TIP3    H2 3778   1.736   1.122   3.526
 1258TIP3   OH2 3779   1.885   3.076   2.668
 1258TIP3    H1 3780   1.877   2.984   2.695
 1258TIP3    H2 3781   1.977   3.085   2.642
 1259TIP3   OH2 3782   1.582   2.181   4.855
 1259TIP3    H1 3783   1.568   2.249   4.789
 1259TIP3    H2 3784   1.645   2.121   4.815
 1260TIP3   OH2 3785   4.069   0.632   1.924
 1260TIP3    H1 3786   4.097   0.591   1.842
 1260TIP3    H2 3787   4.082   0.564   1.990
 1261TIP3   OH2 3788   2.387   4.672   5.123
 1261TIP3    H1 3789   2.477   4.694   5.096
 1261TIP3    H2 3790   2.334   4.696   5.047
 1262TIP3   OH2 3791   2.990   0.061   1.144
 1262TIP3    H1 3792   3.078   0.075   1.110
 1262TIP3    H2 3793   2.993  -0.026   1.184
 1263TIP3   OH2 3794   1.708   1.379   3.892
 1263TIP3    H1 3795   1.757   1.301   3.864
 1263TIP3    H2 3796   1.617   1.360   3.868
 1264TIP3   OH2 3797   5.990   1.085   5.065
 1264TIP3    H1 3798   6.007   1.119   5.153
 1264TIP3    H2 3799   6.011   1.158   5.007
 1265TIP3   OH2 3800   1.822   1.726   1.450
 1265TIP3    H1 3801   1.743   1.779   1.459
 1265TIP3    H2 3802   1.836   1.721   1.355
 1266TIP3   OH2 3803   4.159   3.041   3.950
 1266TIP3    H1 3804   4.250   3.015   3.953
 1266TIP3    H2 3805   4.148   3.099   4.025
 1267TIP3   OH2 3806   5.464   0.045   1.288
 1267TIP3    H1 3807   5.393   0.017   1.230
 1267TIP3    H2 3808   5.518  -0.033   1.300
 1268TIP3   OH2 3809   5.580   0.478   4.844
 1268TIP3    H1 3810   5.568   0.565   4.883
 1268TIP3    H2 3811   5.661   0.445   4.882
 1269TIP3   OH2 3812   1.298   3.794   4.584
 1269TIP3    H1 3813   1.284   3.702   4.560
 1269TIP3    H2 3814   1.345   3.831   4.510
 1270TIP3   OH2 3815   0.988   3.159   4.162
 1270TIP3    H1 3816   0.913   3.148   4.222
 1270TIP3    H2 3817   1.063   3.170   4.220
 1271TIP3   OH2 3818   3.650   1.234   2.949
 1271TIP3    H1 3819   3.614   1.156   2.908
 1271TIP3    H2 3820   3.577   1.295   2.952
 1272TIP3   OH2 3821   6.255   2.492   1.884
 1272TIP3    H1 3822   6.224   2.441   1.810
 1272TIP3    H2 3823   6.267   2.581   1.850
 1273TIP3   OH2 3824   0.590   5.246   1.171
 1273TIP3    H1 3825   0.598   5.329   1.218
 1273TIP3    H2 3826   0.612   5.179   1.236
 1274TIP3   OH2 3827   2.068   0.350   3.473
 1274TIP3    H1 3828   2.074   0.420   3.408
 1274TIP3    H2 3829   1.990   0.301   3.449
 1275TIP3   OH2 3830   3.637   4.210   4.563
 1275TIP3    H1 3831   3.705   4.210   4.495
 1275TIP3    H2 3832   3.587   4.291   4.547
 1276TIP3   OH2 3833   0.210   5.641   4.909
 1276TIP3    H1 3834   0.153   5.715   4.933
 1276TIP3    H2 3835   0.278   5.641   4.975
 1277TIP3   OH2 3836   5.843   4.489   3.067
 1277TIP3    H1 3837   5.788   4.464   2.993
 1277TIP3    H2 3838   5.820   4.428   3.137
 1278TIP3   OH2 3839   2.639   5.108   0.365
 1278TIP3    H1 3840   2.663   5.026   0.323
 1278TIP3    H2 3841   2.684   5.105   0.450
 1279TIP3   OH2 3842   4.686   2.745   0.548
 1279TIP3    H1 3843   4.762   2.780   0.596
 1279TIP3    H2 3844   4.618   2.736   0.615
 1280TIP3   OH2 3845   2.685   5.810   4.722
 1280TIP3    H1 3846   2.630   5.882   4.753
 1280TIP3    H2 3847   2.773   5.848   4.717
 1281TIP3   OH2 3848   4.655   0.917   4.158
 1281TIP3    H1 3849   4.590   0.918   4.228
 1281TIP3    H2 3850   4.623   0.851   4.096
 1282TIP3   OH2 3851   5.714   3.823   1.771
 1282TIP3    H1 3852   5.745   3.739   1.737
 1282TIP3    H2 3853   5.642   3.847   1.714
 1283TIP3   OH2 3854   4.566   1.027   2.499
 1283TIP3    H1 3855   4.588   0.953   2.554
 1283TIP3    H2 3856   4.471   1.020   2.485
 1284TIP3   OH2 3857   3.836   5.876   0.087
 1284TIP3    H1 3858   3.842   5.960   0.132
 1284TIP3    H2 3859   3.746   5.847   0.102
 1285TIP3   OH2 3860   2.347   0.999   2.093
 1285TIP3    H1 3861   2.335   0.992   2.187
 1285TIP3    H2 3862   2.262   0.973   2.056
 1286TIP3   OH2 3863   3.922   1.680   3.031
 1286TIP3    H1 3864   3.928   1.602   2.977
 1286TIP3    H2 3865   3.855   1.734   2.989
 1287TIP3   OH2 3866   3.292   1.018   3.386
 1287TIP3    H1 3867   3.197   1.025   3.390
 1287TIP3    H2 3868   3.313   0.941   3.439
 1288TIP3   OH2 3869   5.601   0.385   4.453
 1288TIP3    H1 3870   5.640   0.299   4.463
 1288TIP3    H2 3871   5.668   0.446   4.485
 1289TIP3   OH2 3872   4.723   0.774   0.290
 1289TIP3    H1 3873   4.775   0.853   0.307
 1289TIP3    H2 3874   4.633   0.803   0.302
 1290TIP3   OH2 3875   1.935   3.906   0.778
 1290TIP3    H1 3876   1.981   3.838   0.826
 1290TIP3    H2 3877   1.952   3.887   0.686
 1291TIP3   OH2 3878   2.269   0.097   2.398
 1291TIP3    H1 3879   2.209   0.169   2.379
 1291TIP3    H2 3880   2.237   0.024   2.346
 1292TIP3   OH2 3881   5.951   3.528   2.477
 1292TIP3    H1 3882   6.010   3.597   2.446
 1292TIP3    H2 3883   6.005   3.450   2.480
 1293TIP3   OH2 3884   4.908   3.153   1.966
 1293TIP3    H1 3885   4.910   3.134   2.060
 1293TIP3    H2 3886   4.883   3.070   1.925
 1294TIP3   OH2 3887   4.151   0.348   4.147
 1294TIP3    H1 3888   4.115   0.437   4.148
 1294TIP3    H2 3889   4.245   0.361   4.134
 1295TIP3   OH2 3890   0.889   4.901   4.133
 1295TIP3    H1 3891   0.982   4.914   4.155
 1295TIP3    H2 3892   0.846   4.980   4.165
 1296TIP3   OH2 3893   0.679   1.607   3.440
 1296TIP3    H1 3894   0.683   1.676   3.507
 1296TIP3    H2 3895   0.724   1.645   3.364
 1297TIP3   OH2 3896   3.263   3.366   3.569
 1297TIP3    H1 3897   3.278   3.381   3.663
 1297TIP3    H2 3898   3.215   3.284   3.565
 1298TIP3   OH2 3899   1.830   5.116   2.726
 1298TIP3    H1 3900   1.794   5.046   2.670
 1298TIP3    H2 3901   1.921   5.124   2.699
 1299TIP3   OH2 3902   4.913   4.718   3.015
 1299TIP3    H1 3903   4.976   4.782   3.047
 1299TIP3    H2 3904   4.965   4.659   2.960
 1300TIP3   OH2 3905   5.284   5.347   3.281
 1300TIP3    H1 3906   5.232   5.315   3.208
 1300TIP3    H2 3907   5.229   5.415   3.321
 1301TIP3   OH2 3908   2.658   2.948   1.144
 1301TIP3    H1 3909   2.701   3.034   1.140
 1301TIP3    H2 3910   2.610   2.949   1.226
 1302TIP3   OH2 3911   4.978   4.794   1.633
 1302TIP3    H1 3912   4.982   4.700   1.618
 1302TIP3    H2 3913   4.931   4.803   1.717
 1303TIP3   OH2 3914   3.218   5.559   1.212
 1303TIP3    H1 3915   3.143   5.526   1.261
 1303TIP3    H2 3916   3.258   5.481   1.174
 1304TIP3   OH2 3917   3.400   4.996   2.987
 1304TIP3    H1 3918   3.470   5.060   3.001
 1304TIP3    H2 3919   3.394   4.947   3.069
 1305TIP3   OH2 3920   0.403   1.229   0.998
 1305TIP3    H1 3921   0.360   1.152   0.960
 1305TIP3    H2 3922   0.331   1.286   1.024
 1306TIP3   OH2 3923   2.672   5.774   0.503
 1306TIP3    H1 3924   2.633   5.780   0.416
 1306TIP3    H2 3925   2.598   5.754   0.561
 1307TIP3   OH2 3926   0.311   2.692   2.889
 1307TIP3    H1 3927   0.406   2.695   2.877
 1307TIP3    H2 3928   0.281   2.776   2.854
 1308TIP3   OH2 3929   3.164   5.826   1.134
 1308TIP3    H1 3930   3.210   5.761   1.187
 1308TIP3    H2 3931   3.135   5.778   1.056
 1309TIP3   OH2 3932   1.451   3.181   4.770
 1309TIP3    H1 3933   1.438   3.270   4.805
 1309TIP3    H2 3934   1.546   3.172   4.765
 1310TIP3   OH2 3935   4.429   2.868   1.437
 1310TIP3    H1 3936   4.359   2.916   1.480
 1310TIP3    H2 3937   4.457   2.803   1.501
 1311TIP3   OH2 3938   3.724   3.859   3.739
 1311TIP3    H1 3939   3.704   3.896   3.825
 1311TIP3    H2 3940   3.690   3.924   3.677
 1312TIP3   OH2 3941   4.404   0.385   2.173
 1312TIP3    H1 3942   4.452   0.329   2.111
 1312TIP3    H2 3943   4.459   0.385   2.251
 1313TIP3   OH2 3944   1.340   5.972   1.774
 1313TIP3    H1 3945   1.339   5.921   1.856
 1313TIP3    H2 3946   1.351   5.906   1.706
 1314TIP3   OH2 3947   2.919   2.016   4.051
 1314TIP3    H1 3948   2.980   2.006   3.978
 1314TIP3    H2 3949   2.843   2.059   4.012
 1315TIP3   OH2 3950   5.567   4.445   2.516
 1315TIP3    H1 3951   5.516   4.432   2.596
 1315TIP3    H2 3952   5.619   4.523   2.533
 1316TIP3   OH2 3953   1.394   0.196   1.017
 1316TIP3    H1 3954   1.447   0.126   0.979
 1316TIP3    H2 3955   1.453   0.242   1.076
 1317TIP3   OH2 3956   5.743   1.039   0.777
 1317TIP3    H1 3957   5.821   1.035   0.832
 1317TIP3    H2 3958   5.776   1.026   0.688
 1318TIP3   OH2 3959   0.494   0.869   3.145
 1318TIP3    H1 3960   0.496   0.926   3.222
 1318TIP3    H2 3961   0.403   0.843   3.136
 1319TIP3   OH2 3962   0.226   3.989   1.134
 1319TIP3    H1 3963   0.253   4.074   1.098
 1319TIP3    H2 3964   0.238   3.928   1.061
 1320TIP3   OH2 3965   4.180   5.587   4.095
 1320TIP3    H1 3966   4.159   5.565   4.004
 1320TIP3    H2 3967   4.261   5.541   4.113
 1321TIP3   OH2 3968   0.404   1.188   1.842
 1321TIP3    H1 3969   0.380   1.281   1.835
 1321TIP3    H2 3970   0.368   1.148   1.763
 1322TIP3   OH2 3971   6.189   0.774   4.048
 1322TIP3    H1 3972   6.102   0.748   4.017
 1322TIP3    H2 3973   6.243   0.697   4.036
 1323TIP3   OH2 3974   5.106   1.852   1.783
 1323TIP3    H1 3975   5.157   1.884   1.858
 1323TIP3    H2 3976   5.081   1.931   1.735
 1324TIP3   OH2 3977   0.918   0.750   4.179
 1324TIP3    H1 3978   0.894   0.843   4.180
 1324TIP3    H2 3979   0.904   0.721   4.269
 1325TIP3   OH2 3980   0.689   1.213   4.530
 1325TIP3    H1 3981   0.697   1.142   4.595
 1325TIP3    H2 3982   0.596   1.212   4.506
 1326TIP3   OH2 3983   1.129   4.502   2.153
 1326TIP3    H1 3984   1.107   4.410   2.167
 1326TIP3    H2 3985   1.072   4.530   2.082
 1327TIP3   OH2 3986   3.443   4.227   4.158
 1327TIP3    H1 3987   3.379   4.233   4.228
 1327TIP3    H2 3988   3.504   4.158   4.187
 1328TIP3   OH2 3989   3.446   1.168   3.205
 1328TIP3    H1 3990   3.388   1.112   3.256
 1328TIP3    H2 3991   3.517   1.111   3.177
 1329TIP3   OH2 3992   0.421   0.212   3.095
 1329TIP3    H1 3993   0.479   0.144   3.129
 1329TIP3    H2 3994   0.356   0.164   3.043
 1330TIP3   OH2 3995   2.629   1.250   0.108
 1330TIP3    H1 3996   2.652   1.322   0.166
 1330TIP3    H2 3997   2.534   1.244   0.113
 1331TIP3   OH2 3998   1.178   3.322   0.926
 1331TIP3    H1 3999   1.175   3.290   0.836
 1331TIP3    H2 4000   1.215   3.410   0.919
 1332TIP3   OH2 4001   5.191   5.946   3.683
 1332TIP3    H1 4002   5.258   5.887   3.649
 1332TIP3    H2 4003   5.113   5.925   3.632
 1333TIP3   OH2 4004   0.283   3.178   0.156
 1333TIP3    H1 4005   0.205   3.195   0.209
 1333TIP3    H2 4006   0.340   3.126   0.213
 1334TIP3   OH2 4007   5.647   5.699   4.695
 1334TIP3    H1 4008   5.741   5.682   4.698
 1334TIP3    H2 4009   5.640   5.795   4.693
 1335TIP3   OH2 4010   1.475   5.347   0.378
 1335TIP3    H1 4011   1.401   5.323   0.321
 1335TIP3    H2 4012   1.433   5.376   0.459
 1336TIP3   OH2 4013   0.575   5.311   1.818
 1336TIP3    H1 4014   0.635   5.360   1.874
 1336TIP3    H2 4015   0.614   5.315   1.731
 1337TIP3   OH2 4016   6.340   4.735   2.505
 1337TIP3    H1 4017   6.252   4.772   2.515
 1337TIP3    H2 4018   6.347   4.717   2.411
 1338TIP3   OH2 4019   5.563   1.154   2.287
 1338TIP3    H1 4020   5.498   1.213   2.249
 1338TIP3    H2 4021   5.624   1.135   2.215
 1339TIP3   OH2 4022   0.185   0.707   4.810
 1339TIP3    H1 4023   0.099   0.674   4.784
 1339TIP3    H2 4024   0.242   0.630   4.806
 1340TIP3   OH2 4025   3.923   0.701   4.457
 1340TIP3    H1 4026   3.835   0.663   4.464
 1340TIP3    H2 4027   3.964   0.681   4.541
 1341TIP3   OH2 4028   1.483   5.524   5.197
 1341TIP3    H1 4029   1.543   5.461   5.238
 1341TIP3    H2 4030   1.419   5.470   5.151
 1342TIP3   OH2 4031   4.132   3.101   2.227
 1342TIP3    H1 4032   4.183   3.159   2.283
 1342TIP3    H2 4033   4.158   3.124   2.138
 1343TIP3   OH2 4034   0.227   0.763   4.060
 1343TIP3    H1 4035   0.142   0.720   4.046
 1343TIP3    H2 4036   0.227   0.835   3.997
 1344TIP3   OH2 4037   5.753   1.792   1.276
 1344TIP3    H1 4038   5.827   1.801   1.336
 1344TIP3    H2 4039   5.765   1.707   1.235
 1345TIP3   OH2 4040   2.578   3.392   5.192
 1345TIP3    H1 4041   2.621   3.350   5.267
 1345TIP3    H2 4042   2.648   3.404   5.128
 1346TIP3   OH2 4043   2.403   1.461   1.931
 1346TIP3    H1 4044   2.418   1.475   1.837
 1346TIP3    H2 4045   2.486   1.486   1.972
 1347TIP3   OH2 4046   0.858   4.901   2.494
 1347TIP3    H1 4047   0.802   4.932   2.566
 1347TIP3    H2 4048   0.841   4.963   2.423
 1348TIP3   OH2 4049   3.220   0.584   4.897
 1348TIP3    H1 4050   3.134   0.583   4.939
 1348TIP3    H2 4051   3.214   0.652   4.830
 1349TIP3   OH2 4052   5.117   4.788   0.356
 1349TIP3    H1 4053   5.061   4.711   0.360
 1349TIP3    H2 4054   5.206   4.753   0.364
 1350TIP3   OH2 4055   6.345   1.146   2.266
 1350TIP3    H1 4056   6.376   1.187   2.185
 1350TIP3    H2 4057   6.423   1.105   2.304
 1351TIP3   OH2 4058   2.041   0.615   1.438
 1351TIP3    H1 4059   2.003   0.642   1.355
 1351TIP3    H2 4060   2.125   0.661   1.443
 1352TIP3   OH2 4061   2.370   1.184   0.137
 1352TIP3    H1 4062   2.293   1.242   0.134
 1352TIP3    H2 4063   2.347   1.111   0.079
 1353TIP3   OH2 4064   3.954   3.739   3.785
 1353TIP3    H1 4065   3.950   3.644   3.774
 1353TIP3    H2 4066   3.866   3.770   3.763
 1354TIP3   OH2 4067   5.061   3.287   1.590
 1354TIP3    H1 4068   5.081   3.283   1.684
 1354TIP3    H2 4069   5.147   3.282   1.547
 1355TIP3   OH2 4070   1.079   5.291   3.221
 1355TIP3    H1 4071   1.116   5.329   3.301
 1355TIP3    H2 4072   0.991   5.264   3.247
 1356TIP3   OH2 4073   0.931   4.887   5.186
 1356TIP3    H1 4074   0.948   4.962   5.129
 1356TIP3    H2 4075   0.963   4.811   5.138
 1357TIP3   OH2 4076   5.678   1.872   1.635
 1357TIP3    H1 4077   5.598   1.870   1.583
 1357TIP3    H2 4078   5.736   1.931   1.589
 1358TIP3   OH2 4079   2.734   2.360   3.658
 1358TIP3    H1 4080   2.738   2.319   3.744
 1358TIP3    H2 4081   2.715   2.289   3.597
 1359TIP3   OH2 4082   3.943   4.972   4.867
 1359TIP3    H1 4083   3.921   5.041   4.930
 1359TIP3    H2 4084   3.999   5.016   4.802
 1360TIP3   OH2 4085   3.334   3.750   1.151
 1360TIP3    H1 4086   3.278   3.672   1.151
 1360TIP3    H2 4087   3.326   3.784   1.061
 1361TIP3   OH2 4088   1.774   4.983   3.302
 1361TIP3    H1 4089   1.761   4.945   3.389
 1361TIP3    H2 4090   1.807   5.072   3.320
 1362TIP3   OH2 4091   0.671   3.519   2.435
 1362TIP3    H1 4092   0.596   3.488   2.485
 1362TIP3    H2 4093   0.647   3.607   2.407
 1363TIP3   OH2 4094   5.189   4.167   4.054
 1363TIP3    H1 4095   5.158   4.254   4.079
 1363TIP3    H2 4096   5.238   4.136   4.130
 1364TIP3   OH2 4097   4.901   2.910   0.300
 1364TIP3    H1 4098   4.946   2.986   0.264
 1364TIP3    H2 4099   4.831   2.947   0.353
 1365TIP3   OH2 4100   3.914   3.229   3.492
 1365TIP3    H1 4101   3.832   3.264   3.525
 1365TIP3    H2 4102   3.966   3.211   3.571
 1366TIP3   OH2 4103   5.488   5.713   2.716
 1366TIP3    H1 4104   5.404   5.736   2.675
 1366TIP3    H2 4105   5.546   5.786   2.695
 1367TIP3   OH2 4106   0.185   3.983   1.858
 1367TIP3    H1 4107   0.223   4.062   1.820
 1367TIP3    H2 4108   0.091   3.998   1.855
 1368TIP3   OH2 4109   3.586   1.578   4.599
 1368TIP3    H1 4110   3.664   1.627   4.575
 1368TIP3    H2 4111   3.613   1.526   4.675
 1369TIP3   OH2 4112   3.369   2.841   0.345
 1369TIP3    H1 4113   3.374   2.790   0.265
 1369TIP3    H2 4114   3.280   2.876   0.346
 1370TIP3   OH2 4115   3.653   1.390   0.472
 1370TIP3    H1 4116   3.744   1.401   0.498
 1370TIP3    H2 4117   3.603   1.394   0.554
 1371TIP3   OH2 4118   0.428   2.700   3.979
 1371TIP3    H1 4119   0.360   2.744   4.030
 1371TIP3    H2 4120   0.382   2.628   3.936
 1372TIP3   OH2 4121   3.346   2.671   3.709
 1372TIP3    H1 4122   3.341   2.766   3.697
 1372TIP3    H2 4123   3.432   2.647   3.674
 1373TIP3   OH2 4124   5.451   4.380   1.430
 1373TIP3    H1 4125   5.381   4.347   1.374
 1373TIP3    H2 4126   5.532   4.364   1.381
 1374TIP3   OH2 4127   1.395   2.678   0.877
 1374TIP3    H1 4128   1.362   2.647   0.961
 1374TIP3    H2 4129   1.317   2.705   0.829
 1375TIP3   OH2 4130   1.079   3.643   4.009
 1375TIP3    H1 4131   1.101   3.554   4.035
 1375TIP3    H2 4132   1.163   3.682   3.984
 1376TIP3   OH2 4133   4.906   4.971   2.649
 1376TIP3    H1 4134   4.993   4.930   2.646
 1376TIP3    H2 4135   4.908   5.037   2.580
 1377TIP3   OH2 4136   0.438   3.856   3.856
 1377TIP3    H1 4137   0.474   3.922   3.797
 1377TIP3    H2 4138   0.420   3.903   3.937
 1378TIP3   OH2 4139   2.077   0.485   0.544
 1378TIP3    H1 4140   1.984   0.475   0.566
 1378TIP3    H2 4141   2.080   0.565   0.490
 1379TIP3   OH2 4142   3.474   0.140   0.798
 1379TIP3    H1 4143   3.443   0.114   0.711
 1379TIP3    H2 4144   3.534   0.070   0.824
 1380TIP3   OH2 4145   0.725   5.925   3.019
 1380TIP3    H1 4146   0.710   5.864   3.091
 1380TIP3    H2 4147   0.805   5.971   3.044
 1381TIP3   OH2 4148   5.128   3.466   4.408
 1381TIP3    H1 4149   5.085   3.456   4.323
 1381TIP3    H2 4150   5.104   3.555   4.436
 1382TIP3   OH2 4151   4.784   4.089   1.453
 1382TIP3    H1 4152   4.732   4.033   1.511
 1382TIP3    H2 4153   4.875   4.070   1.476
 1383TIP3   OH2 4154   4.325   2.724   3.663
 1383TIP3    H1 4155   4.387   2.797   3.666
 1383TIP3    H2 4156   4.379   2.646   3.664
 1384TIP3   OH2 4157   0.342   0.209   2.333
 1384TIP3    H1 4158   0.369   0.256   2.253
 1384TIP3    H2 4159   0.248   0.226   2.341
 1385TIP3   OH2 4160   3.276   4.409   1.767
 1385TIP3    H1 4161   3.362   4.392   1.806
 1385TIP3    H2 4162   3.223   4.334   1.793
 1386TIP3   OH2 4163   5.899   3.262   2.342
 1386TIP3    H1 4164   5.905   3.343   2.291
 1386TIP3    H2 4165   5.925   3.194   2.280
 1387TIP3   OH2 4166   1.262   2.790   3.098
 1387TIP3    H1 4167   1.278   2.795   3.192
 1387TIP3    H2 4168   1.178   2.834   3.085
 1388TIP3   OH2 4169   2.236   0.351   2.994
 1388TIP3    H1 4170   2.299   0.292   2.954
 1388TIP3    H2 4171   2.218   0.416   2.926
 1389TIP3   OH2 4172   3.598   4.363   3.230
 1389TIP3    H1 4173   3.506   4.386   3.219
 1389TIP3    H2 4174   3.621   4.397   3.317
 1390TIP3   OH2 4175   1.889   5.920   0.142
 1390TIP3    H1 4176   1.846   5.924   0.057
 1390TIP3    H2 4177   1.972   5.877   0.125
 1391TIP3   OH2 4178   3.460   5.842   4.360
 1391TIP3    H1 4179   3.547   5.804   4.353
 1391TIP3    H2 4180   3.460   5.915   4.298
 1392TIP3   OH2 4181   5.255   3.107   5.096
 1392TIP3    H1 4182   5.334   3.102   5.150
 1392TIP3    H2 4183   5.232   3.199   5.094
 1393TIP3   OH2 4184   0.861   3.634   0.004
 1393TIP3    H1 4185   0.862   3.665  -0.087
 1393TIP3    H2 4186   0.954   3.634   0.029
 1394TIP3   OH2 4187   0.813   5.195   2.338
 1394TIP3    H1 4188   0.889   5.247   2.363
 1394TIP3    H2 4189   0.743   5.227   2.395
 1395TIP3   OH2 4190   3.738   4.923   0.240
 1395TIP3    H1 4191   3.672   4.930   0.310
 1395TIP3    H2 4192   3.744   5.012   0.205
 1396TIP3   OH2 4193   2.531   0.747   1.778
 1396TIP3    H1 4194   2.555   0.710   1.693
 1396TIP3    H2 4195   2.611   0.788   1.809
 1397TIP3   OH2 4196   4.517   2.226   1.944
 1397TIP3    H1 4197   4.454   2.155   1.956
 1397TIP3    H2 4198   4.595   2.184   1.909
 1398TIP3   OH2 4199   4.268   3.166   3.539
 1398TIP3    H1 4200   4.274   3.122   3.624
 1398TIP3    H2 4201   4.355   3.156   3.500
 1399TIP3   OH2 4202   5.141   3.374   2.169
 1399TIP3    H1 4203   5.136   3.298   2.227
 1399TIP3    H2 4204   5.218   3.422   2.199
 1400TIP3   OH2 4205   0.717   3.125   0.299
 1400TIP3    H1 4206   0.812   3.141   0.299
 1400TIP3    H2 4207   0.703   3.070   0.221
 1401TIP3   OH2 4208   5.700   1.835   2.560
 1401TIP3    H1 4209   5.621   1.850   2.611
 1401TIP3    H2 4210   5.669   1.794   2.479
 1402TIP3   OH2 4211   2.024   1.589   4.739
 1402TIP3    H1 4212   1.930   1.595   4.759
 1402TIP3    H2 4213   2.054   1.680   4.737
 1403TIP3   OH2 4214   2.942   4.346   1.706
 1403TIP3    H1 4215   2.943   4.401   1.784
 1403TIP3    H2 4216   2.850   4.323   1.694
 1404TIP3   OH2 4217   5.125   0.061   0.755
 1404TIP3    H1 4218   5.114   0.037   0.847
 1404TIP3    H2 4219   5.170  -0.014   0.716
 1405TIP3   OH2 4220   4.460   1.850   3.551
 1405TIP3    H1 4221   4.532   1.787   3.553
 1405TIP3    H2 4222   4.462   1.886   3.462
 1406TIP3   OH2 4223   4.241   3.826   4.663
 1406TIP3    H1 4224   4.238   3.889   4.735
 1406TIP3    H2 4225   4.265   3.743   4.705
 1407TIP3   OH2 4226   3.072   0.224   4.470
 1407TIP3    H1 4227   3.141   0.159   4.463
 1407TIP3    H2 4228   2.991   0.174   4.463
 1408TIP3   OH2 4229   4.274   1.010   3.089
 1408TIP3    H1 4230   4.289   1.049   3.003
 1408TIP3    H2 4231   4.315   1.071   3.151
 1409TIP3   OH2 4232   3.091   4.347   0.351
 1409TIP3    H1 4233   3.034   4.351   0.275
 1409TIP3    H2 4234   3.108   4.254   0.364
 1410TIP3   OH2 4235   5.331   0.099   4.245
 1410TIP3    H1 4236   5.334   0.063   4.334
 1410TIP3    H2 4237   5.405   0.058   4.200
 1411TIP3   OH2 4238   0.330   5.189   1.872
 1411TIP3    H1 4239   0.333   5.215   1.964
 1411TIP3    H2 4240   0.411   5.222   1.834
 1412TIP3   OH2 4241   5.846   3.758   4.287
 1412TIP3    H1 4242   5.806   3.762   4.374
 1412TIP3    H2 4243   5.940   3.752   4.303
 1413TIP3   OH2 4244   5.539   1.682   3.997
 1413TIP3    H1 4245   5.604   1.749   3.978
 1413TIP3    H2 4246   5.562   1.650   4.084
 1414TIP3   OH2 4247   5.691   0.158   1.133
 1414TIP3    H1 4248   5.599   0.159   1.158
 1414TIP3    H2 4249   5.719   0.067   1.144
 1415TIP3   OH2 4250   3.230   5.133   2.611
 1415TIP3    H1 4251   3.187   5.097   2.534
 1415TIP3    H2 4252   3.323   5.121   2.595
 1416TIP3   OH2 4253   3.384   3.757   4.308
 1416TIP3    H1 4254   3.311   3.698   4.328
 1416TIP3    H2 4255   3.368   3.834   4.362
 1417TIP3   OH2 4256   4.160   4.923   2.479
 1417TIP3    H1 4257   4.151   4.914   2.384
 1417TIP3    H2 4258   4.083   4.973   2.506
 1418TIP3   OH2 4259   6.235   2.582   4.142
 1418TIP3    H1 4260   6.194   2.668   4.133
 1418TIP3    H2 4261   6.174   2.522   4.099
 1419TIP3   OH2 4262   3.627   1.575   3.477
 1419TIP3    H1 4263   3.554   1.637   3.469
 1419TIP3    H2 4264   3.698   1.615   3.427
 1420TIP3   OH2 4265   3.703   5.726   3.011
 1420TIP3    H1 4266   3.739   5.668   3.078
 1420TIP3    H2 4267   3.779   5.768   2.972
 1421TIP3   OH2 4268   5.261   2.622   1.945
 1421TIP3    H1 4269   5.192   2.602   2.008
 1421TIP3    H2 4270   5.342   2.616   1.995
 1422TIP3   OH2 4271   2.554   2.947   3.830
 1422TIP3    H1 4272   2.647   2.923   3.839
 1422TIP3    H2 4273   2.538   2.945   3.735
 1423TIP3   OH2 4274   5.814   0.114   4.866
 1423TIP3    H1 4275   5.789   0.023   4.883
 1423TIP3    H2 4276   5.843   0.147   4.951
 1424TIP3   OH2 4277   4.615   1.420   4.174
 1424TIP3    H1 4278   4.521   1.432   4.161
 1424TIP3    H2 4279   4.640   1.356   4.108
 1425TIP3   OH2 4280   4.292   0.594   0.826
 1425TIP3    H1 4281   4.239   0.619   0.901
 1425TIP3    H2 4282   4.381   0.586   0.861
 1426TIP3   OH2 4283   5.550   0.550   1.897
 1426TIP3    H1 4284   5.488   0.519   1.963
 1426TIP3    H2 4285   5.624   0.490   1.904
 1427TIP3   OH2 4286   5.129   4.680   2.049
 1427TIP3    H1 4287   5.058   4.718   1.997
 1427TIP3    H2 4288   5.191   4.751   2.061
 1428TIP3   OH2 4289   1.103   1.159   3.809
 1428TIP3    H1 4290   1.063   1.220   3.870
 1428TIP3    H2 4291   1.109   1.207   3.727
 1429TIP3   OH2 4292   3.599   1.521   2.246
 1429TIP3    H1 4293   3.613   1.614   2.231
 1429TIP3    H2 4294   3.687   1.487   2.266
 1430TIP3   OH2 4295   5.875   3.507   4.178
 1430TIP3    H1 4296   5.854   3.598   4.196
 1430TIP3    H2 4297   5.948   3.486   4.236
 1431TIP3   OH2 4298   0.888   0.141   3.005
 1431TIP3    H1 4299   0.816   0.117   3.064
 1431TIP3    H2 4300   0.869   0.095   2.924
 1432TIP3   OH2 4301   6.161   5.691   5.078
 1432TIP3    H1 4302   6.229   5.624   5.080
 1432TIP3    H2 4303   6.152   5.713   4.985
 1433TIP3   OH2 4304   5.452   3.691   0.871
 1433TIP3    H1 4305   5.419   3.774   0.837
 1433TIP3    H2 4306   5.544   3.689   0.844
 1434TIP3   OH2 4307   0.732   1.957   3.562
 1434TIP3    H1 4308   0.785   1.941   3.640
 1434TIP3    H2 4309   0.724   2.052   3.558
 1435TIP3   OH2 4310   2.960   4.701   2.332
 1435TIP3    H1 4311   2.918   4.750   2.402
 1435TIP3    H2 4312   2.906   4.719   2.254
 1436TIP3   OH2 4313   4.838   1.010   1.541
 1436TIP3    H1 4314   4.845   1.023   1.636
 1436TIP3    H2 4315   4.892   0.934   1.523
 1437TIP3   OH2 4316   5.852   3.503   5.085
 1437TIP3    H1 4317   5.766   3.506   5.128
 1437TIP3    H2 4318   5.862   3.411   5.059
 1438TIP3   OH2 4319   3.942   4.877   1.618
 1438TIP3    H1 4320   3.947   4.973   1.613
 1438TIP3    H2 4321   3.851   4.857   1.595
 1439TIP3   OH2 4322   5.694   4.591   1.198
 1439TIP3    H1 4323   5.669   4.502   1.174
 1439TIP3    H2 4324   5.785   4.584   1.224
 1440TIP3   OH2 4325   3.525   1.813   3.648
 1440TIP3    H1 4326   3.608   1.846   3.611
 1440TIP3    H2 4327   3.544   1.798   3.740
 1441TIP3   OH2 4328   5.078   5.523   0.507
 1441TIP3    H1 4329   5.010   5.459   0.527
 1441TIP3    H2 4330   5.044   5.573   0.433
 1442TIP3   OH2 4331   3.957   4.874   3.944
 1442TIP3    H1 4332   3.968   4.967   3.923
 1442TIP3    H2 4333   3.995   4.865   4.032
 1443TIP3   OH2 4334   6.217   4.248   1.605
 1443TIP3    H1 4335   6.206   4.343   1.601
 1443TIP3    H2 4336   6.257   4.225   1.521
 1444TIP3   OH2 4337   2.684   2.784   2.223
 1444TIP3    H1 4338   2.746   2.819   2.287
 1444TIP3    H2 4339   2.706   2.830   2.142
 1445TIP3   OH2 4340   4.656   4.906   1.157
 1445TIP3    H1 4341   4.596   4.884   1.086
 1445TIP3    H2 4342   4.638   4.840   1.224
 1446TIP3   OH2 4343   3.303   3.958   2.985
 1446TIP3    H1 4344   3.242   3.916   2.925
 1446TIP3    H2 4345   3.355   4.016   2.929
 1447TIP3   OH2 4346   6.054   3.615   0.439
 1447TIP3    H1 4347   6.035   3.708   0.446
 1447TIP3    H2 4348   5.968   3.573   0.440
 1448TIP3   OH2 4349   5.495   4.199   2.902
 1448TIP3    H1 4350   5.490   4.135   2.973
 1448TIP3    H2 4351   5.543   4.154   2.832
 1449TIP3   OH2 4352   3.317   1.999   3.601
 1449TIP3    H1 4353   3.385   1.934   3.620
 1449TIP3    H2 4354   3.365   2.076   3.572
 1450TIP3   OH2 4355   3.289   3.880   3.745
 1450TIP3    H1 4356   3.324   3.886   3.655
 1450TIP3    H2 4357   3.278   3.971   3.772
 1451TIP3   OH2 4358   2.026   3.839   0.514
 1451TIP3    H1 4359   2.026   3.748   0.544
 1451TIP3    H2 4360   2.119   3.863   0.513
 1452TIP3   OH2 4361   3.204   2.078   5.138
 1452TIP3    H1 4362   3.147   2.153   5.120
 1452TIP3    H2 4363   3.163   2.034   5.212
 1453TIP3   OH2 4364   0.591   1.228   0.715
 1453TIP3    H1 4365   0.652   1.177   0.660
 1453TIP3    H2 4366   0.648   1.276   0.775
 1454TIP3   OH2 4367   1.148   0.859   3.019
 1454TIP3    H1 4368   1.196   0.912   3.083
 1454TIP3    H2 4369   1.109   0.789   3.071
 1455TIP3   OH2 4370   5.831   1.775   3.631
 1455TIP3    H1 4371   5.839   1.686   3.664
 1455TIP3    H2 4372   5.828   1.765   3.535
 1456TIP3   OH2 4373   0.666   4.814   1.537
 1456TIP3    H1 4374   0.622   4.890   1.575
 1456TIP3    H2 4375   0.700   4.766   1.613
 1457TIP3   OH2 4376   5.304   5.165   5.183
 1457TIP3    H1 4377   5.262   5.249   5.164
 1457TIP3    H2 4378   5.331   5.172   5.275
 1458TIP3   OH2 4379   5.350   5.355   0.230
 1458TIP3    H1 4380   5.323   5.434   0.278
 1458TIP3    H2 4381   5.441   5.373   0.204
 1459TIP3   OH2 4382   0.597   3.773   4.974
 1459TIP3    H1 4383   0.602   3.732   5.061
 1459TIP3    H2 4384   0.688   3.784   4.947
 1460TIP3   OH2 4385   2.269   4.574   4.644
 1460TIP3    H1 4386   2.231   4.554   4.729
 1460TIP3    H2 4387   2.196   4.564   4.582
 1461TIP3   OH2 4388   3.033   1.057   0.565
 1461TIP3    H1 4389   3.115   1.022   0.529
 1461TIP3    H2 4390   2.979   0.980   0.582
 1462TIP3   OH2 4391   3.500   1.954   1.252
 1462TIP3    H1 4392   3.533   1.995   1.172
 1462TIP3    H2 4393   3.519   1.861   1.241
 1463TIP3   OH2 4394   6.155   1.811   2.435
 1463TIP3    H1 4395   6.245   1.840   2.421
 1463TIP3    H2 4396   6.117   1.877   2.494
 1464TIP3   OH2 4397   5.555   5.552   4.487
 1464TIP3    H1 4398   5.528   5.623   4.428
 1464TIP3    H2 4399   5.587   5.597   4.566
 1465TIP3   OH2 4400   4.191   5.741   2.369
 1465TIP3    H1 4401   4.130   5.771   2.437
 1465TIP3    H2 4402   4.255   5.687   2.416
 1466TIP3   OH2 4403   5.048   4.842   3.382
 1466TIP3    H1 4404   5.135   4.843   3.423
 1466TIP3    H2 4405   5.065   4.865   3.290
 1467TIP3   OH2 4406   2.899   1.680   1.690
 1467TIP3    H1 4407   2.895   1.722   1.604
 1467TIP3    H2 4408   2.911   1.752   1.751
 1468TIP3   OH2 4409   0.100   1.311   0.672
 1468TIP3    H1 4410   0.058   1.304   0.586
 1468TIP3    H2 4411   0.054   1.246   0.725
 1469TIP3   OH2 4412   0.257   3.257   2.127
 1469TIP3    H1 4413   0.163   3.277   2.123
 1469TIP3    H2 4414   0.298   3.330   2.079
 1470TIP3   OH2 4415   1.897   4.067   3.800
 1470TIP3    H1 4416   1.932   4.042   3.715
 1470TIP3    H2 4417   1.935   4.153   3.818
 1471TIP3   OH2 4418   4.103   0.348   1.457
 1471TIP3    H1 4419   4.197   0.356   1.440
 1471TIP3    H2 4420   4.074   0.279   1.397
 1472TIP3   OH2 4421   2.188   2.776   4.922
 1472TIP3    H1 4422   2.252   2.828   4.872
 1472TIP3    H2 4423   2.147   2.720   4.856
 1473TIP3   OH2 4424   1.204   4.791   1.658
 1473TIP3    H1 4425   1.164   4.877   1.675
 1473TIP3    H2 4426   1.287   4.811   1.616
 1474TIP3   OH2 4427   0.730   3.728   1.413
 1474TIP3    H1 4428   0.758   3.694   1.498
 1474TIP3    H2 4429   0.718   3.822   1.426
 1475TIP3   OH2 4430   0.869   4.870   3.593
 1475TIP3    H1 4431   0.907   4.905   3.674
 1475TIP3    H2 4432   0.913   4.920   3.524
 1476TIP3   OH2 4433   0.736   3.216   0.687
 1476TIP3    H1 4434   0.708   3.124   0.689
 1476TIP3    H2 4435   0.831   3.212   0.686
 1477TIP3   OH2 4436   0.788   2.135   2.002
 1477TIP3    H1 4437   0.776   2.194   2.076
 1477TIP3    H2 4438   0.863   2.080   2.026
 1478TIP3   OH2 4439   3.000   2.468   4.603
 1478TIP3    H1 4440   3.061   2.533   4.567
 1478TIP3    H2 4441   3.042   2.383   4.584
 1479TIP3   OH2 4442   5.016   1.604   4.194
 1479TIP3    H1 4443   4.940   1.597   4.253
 1479TIP3    H2 4444   5.042   1.696   4.199
 1480TIP3   OH2 4445   1.955   2.373   1.867
 1480TIP3    H1 4446   1.892   2.444   1.877
 1480TIP3    H2 4447   1.902   2.295   1.853
 1481TIP3   OH2 4448   1.028   5.450   4.494
 1481TIP3    H1 4449   1.108   5.501   4.501
 1481TIP3    H2 4450   0.958   5.515   4.492
 1482TIP3   OH2 4451   1.736   2.430   4.049
 1482TIP3    H1 4452   1.671   2.473   4.104
 1482TIP3    H2 4453   1.805   2.496   4.036
 1483TIP3   OH2 4454   4.180   2.498   4.589
 1483TIP3    H1 4455   4.098   2.468   4.629
 1483TIP3    H2 4456   4.168   2.483   4.495
 1484TIP3   OH2 4457   4.188   3.490   0.797
 1484TIP3    H1 4458   4.156   3.554   0.734
 1484TIP3    H2 4459   4.221   3.543   0.870
 1485TIP3   OH2 4460   0.459   0.073   1.640
 1485TIP3    H1 4461   0.409   0.149   1.669
 1485TIP3    H2 4462   0.538   0.074   1.694
 1486TIP3   OH2 4463   3.250   4.893   5.089
 1486TIP3    H1 4464   3.340   4.922   5.102
 1486TIP3    H2 4465   3.259   4.807   5.047
 1487TIP3   OH2 4466   4.206   1.711   3.077
 1487TIP3    H1 4467   4.138   1.667   3.026
 1487TIP3    H2 4468   4.159   1.767   3.138
 1488TIP3   OH2 4469   4.043   4.791   2.788
 1488TIP3    H1 4470   4.052   4.880   2.821
 1488TIP3    H2 4471   3.957   4.788   2.748
 1489TIP3   OH2 4472   4.270   5.880   1.265
 1489TIP3    H1 4473   4.346   5.846   1.218
 1489TIP3    H2 4474   4.220   5.927   1.198
 1490TIP3   OH2 4475   6.036   4.595   4.686
 1490TIP3    H1 4476   6.028   4.682   4.726
 1490TIP3    H2 4477   6.099   4.549   4.742
 1491TIP3   OH2 4478   4.392   4.953   3.510
 1491TIP3    H1 4479   4.458   5.019   3.486
 1491TIP3    H2 4480   4.443   4.882   3.549
 1492TIP3   OH2 4481   3.162   2.468   0.207
 1492TIP3    H1 4482   3.111   2.538   0.166
 1492TIP3    H2 4483   3.157   2.487   0.301
 1493TIP3   OH2 4484   1.055   3.242   3.104
 1493TIP3    H1 4485   1.075   3.225   3.012
 1493TIP3    H2 4486   1.140   3.245   3.147
 1494TIP3   OH2 4487   6.064   1.275   4.905
 1494TIP3    H1 4488   6.079   1.319   4.821
 1494TIP3    H2 4489   6.067   1.346   4.969
 1495TIP3   OH2 4490   3.647   5.427   0.773
 1495TIP3    H1 4491   3.725   5.478   0.754
 1495TIP3    H2 4492   3.597   5.427   0.691
 1496TIP3   OH2 4493   3.587   3.973   0.499
 1496TIP3    H1 4494   3.672   4.009   0.525
 1496TIP3    H2 4495   3.601   3.878   0.495
 1497TIP3   OH2 4496   3.519   0.155   0.271
 1497TIP3    H1 4497   3.585   0.189   0.211
 1497TIP3    H2 4498   3.520   0.061   0.258
 1498TIP3   OH2 4499   0.610   0.342   2.475
 1498TIP3    H1 4500   0.552   0.306   2.541
 1498TIP3    H2 4501   0.670   0.398   2.524
 1499TIP3   OH2 4502   6.289   4.012   3.544
 1499TIP3    H1 4503   6.278   3.917   3.535
 1499TIP3    H2 4504   6.363   4.023   3.603
 1500TIP3   OH2 4505   0.924   2.642   4.580
 1500TIP3    H1 4506   0.954   2.629   4.670
 1500TIP3    H2 4507   0.895   2.555   4.552
 1501TIP3   OH2 4508   1.188   4.144   4.411
 1501TIP3    H1 4509   1.245   4.067   4.408
 1501TIP3    H2 4510   1.103   4.113   4.380
 1502TIP3   OH2 4511   1.196   1.005   4.132
 1502TIP3    H1 4512   1.242   1.078   4.091
 1502TIP3    H2 4513   1.208   0.932   4.071
 1503TIP3   OH2 4514   1.824   0.804   0.070
 1503TIP3    H1 4515   1.908   0.773   0.104
 1503TIP3    H2 4516   1.775   0.724   0.053
 1504TIP3   OH2 4517   2.216   2.463   3.177
 1504TIP3    H1 4518   2.210   2.372   3.206
 1504TIP3    H2 4519   2.179   2.463   3.089
 1505TIP3   OH2 4520   4.884   5.798   1.963
 1505TIP3    H1 4521   4.813   5.772   2.023
 1505TIP3    H2 4522   4.894   5.892   1.977
 1506TIP3   OH2 4523   5.206   4.101   2.723
 1506TIP3    H1 4524   5.134   4.164   2.726
 1506TIP3    H2 4525   5.178   4.029   2.781
 1507TIP3   OH2 4526   5.041   1.658   2.610
 1507TIP3    H1 4527   4.950   1.688   2.611
 1507TIP3    H2 4528   5.051   1.616   2.524
 1508TIP3   OH2 4529   3.667   3.880   3.446
 1508TIP3    H1 4530   3.596   3.845   3.393
 1508TIP3    H2 4531   3.698   3.805   3.498
 1509TIP3   OH2 4532   5.155   5.808   1.877
 1509TIP3    H1 4533   5.136   5.779   1.788
 1509TIP3    H2 4534   5.072   5.797   1.924
 1510TIP3   OH2 4535   6.035   1.046   1.677
 1510TIP3    H1 4536   5.969   1.077   1.614
 1510TIP3    H2 4537   5.988   1.044   1.761
 1511TIP3   OH2 4538   5.064   3.268   1.223
 1511TIP3    H1 4539   5.036   3.359   1.234
 1511TIP3    H2 4540   5.050   3.227   1.308
 1512TIP3   OH2 4541   2.248   5.722   2.467
 1512TIP3    H1 4542   2.226   5.687   2.381
 1512TIP3    H2 4543   2.200   5.667   2.529
 1513TIP3   OH2 4544   0.925   3.805   0.733
 1513TIP3    H1 4545   1.012   3.811   0.692
 1513TIP3    H2 4546   0.925   3.720   0.776
 1514TIP3   OH2 4547   5.734   4.878   3.001
 1514TIP3    H1 4548   5.659   4.845   3.050
 1514TIP3    H2 4549   5.800   4.810   3.009
 1515TIP3   OH2 4550   5.791   3.766   4.575
 1515TIP3    H1 4551   5.783   3.671   4.566
 1515TIP3    H2 4552   5.785   3.783   4.669
 1516TIP3   OH2 4553   5.923   0.166   5.126
 1516TIP3    H1 4554   5.868   0.115   5.186
 1516TIP3    H2 4555   6.005   0.116   5.121
 1517TIP3   OH2 4556   1.344   3.682   3.637
 1517TIP3    H1 4557   1.310   3.719   3.555
 1517TIP3    H2 4558   1.421   3.734   3.656
 1518TIP3   OH2 4559   0.041   5.899   2.219
 1518TIP3    H1 4560   0.044   5.933   2.129
 1518TIP3    H2 4561  -0.051   5.898   2.242
 1519TIP3   OH2 4562   2.554   0.459   4.692
 1519TIP3    H1 4563   2.458   0.452   4.694
 1519TIP3    H2 4564   2.577   0.497   4.777
 1520TIP3   OH2 4565   2.459   2.130   0.696
 1520TIP3    H1 4566   2.416   2.074   0.632
 1520TIP3    H2 4567   2.392   2.192   0.723
 1521TIP3   OH2 4568   0.497   4.643   4.577
 1521TIP3    H1 4569   0.411   4.626   4.615
 1521TIP3    H2 4570   0.477   4.681   4.491
 1522TIP3   OH2 4571   3.704   1.553   4.276
 1522TIP3    H1 4572   3.683   1.621   4.211
 1522TIP3    H2 4573   3.776   1.504   4.236
 1523TIP3   OH2 4574   2.457   3.968   1.820
 1523TIP3    H1 4575   2.422   4.039   1.873
 1523TIP3    H2 4576   2.550   3.965   1.841
 1524TIP3   OH2 4577   4.742   2.864   3.393
 1524TIP3    H1 4578   4.665   2.885   3.340
 1524TIP3    H2 4579   4.814   2.860   3.330
 1525TIP3   OH2 4580   4.515   1.934   4.824
 1525TIP3    H1 4581   4.576   2.006   4.808
 1525TIP3    H2 4582   4.488   1.945   4.915
 1526TIP3   OH2 4583   4.339   0.409   1.034
 1526TIP3    H1 4584   4.249   0.379   1.023
 1526TIP3    H2 4585   4.331   0.491   1.083
 1527TIP3   OH2 4586   4.016   4.714   4.936
 1527TIP3    H1 4587   3.982   4.798   4.904
 1527TIP3    H2 4588   4.091   4.737   4.990
 1528TIP3   OH2 4589   5.779   0.392   0.319
 1528TIP3    H1 4590   5.696   0.422   0.283
 1528TIP3    H2 4591   5.845   0.424   0.259
 1529TIP3   OH2 4592   0.173   4.093   4.258
 1529TIP3    H1 4593   0.134   4.009   4.280
 1529TIP3    H2 4594   0.099   4.151   4.241
 1530TIP3   OH2 4595   3.353   3.670   2.944
 1530TIP3    H1 4596   3.301   3.667   3.024
 1530TIP3    H2 4597   3.357   3.763   2.922
 1531TIP3   OH2 4598   4.595   2.370   5.018
 1531TIP3    H1 4599   4.634   2.292   4.979
 1531TIP3    H2 4600   4.600   2.354   5.112
 1532TIP3   OH2 4601   3.488   1.695   1.154
 1532TIP3    H1 4602   3.393   1.680   1.154
 1532TIP3    H2 4603   3.522   1.631   1.216
 1533TIP3   OH2 4604   1.923   0.148   0.784
 1533TIP3    H1 4605   2.012   0.154   0.820
 1533TIP3    H2 4606   1.877   0.223   0.823
 1534TIP3   OH2 4607   0.095   0.698   3.304
 1534TIP3    H1 4608   0.028   0.647   3.350
 1534TIP3    H2 4609   0.173   0.642   3.305
 1535TIP3   OH2 4610   0.160   0.858   0.099
 1535TIP3    H1 4611   0.239   0.807   0.083
 1535TIP3    H2 4612   0.122   0.819   0.178
 1536TIP3   OH2 4613   4.795   3.623   0.298
 1536TIP3    H1 4614   4.730   3.567   0.254
 1536TIP3    H2 4615   4.760   3.635   0.386
 1537TIP3   OH2 4616   0.897   3.503   3.120
 1537TIP3    H1 4617   0.944   3.428   3.083
 1537TIP3    H2 4618   0.859   3.548   3.045
 1538TIP3   OH2 4619   0.184   1.486   3.240
 1538TIP3    H1 4620   0.204   1.508   3.331
 1538TIP3    H2 4621   0.166   1.392   3.241
 1539TIP3   OH2 4622   4.185   1.696   2.257
 1539TIP3    H1 4623   4.258   1.756   2.271
 1539TIP3    H2 4624   4.107   1.749   2.271
 1540TIP3   OH2 4625   1.138   0.154   3.669
 1540TIP3    H1 4626   1.081   0.078   3.659
 1540TIP3    H2 4627   1.122   0.207   3.591
 1541TIP3   OH2 4628   0.183   3.794   2.222
 1541TIP3    H1 4629   0.227   3.853   2.284
 1541TIP3    H2 4630   0.226   3.710   2.234
 1542TIP3   OH2 4631   6.249   4.200   2.220
 1542TIP3    H1 4632   6.291   4.126   2.176
 1542TIP3    H2 4633   6.321   4.259   2.242
 1543TIP3   OH2 4634   4.269   2.827   5.018
 1543TIP3    H1 4635   4.292   2.863   4.932
 1543TIP3    H2 4636   4.216   2.896   5.059
 1544TIP3   OH2 4637   0.387   4.274   0.573
 1544TIP3    H1 4638   0.349   4.215   0.508
 1544TIP3    H2 4639   0.423   4.216   0.640
 1545TIP3   OH2 4640   2.853   2.644   3.710
 1545TIP3    H1 4641   2.937   2.635   3.666
 1545TIP3    H2 4642   2.817   2.556   3.712
 1546TIP3   OH2 4643   5.634   3.311   0.909
 1546TIP3    H1 4644   5.566   3.269   0.962
 1546TIP3    H2 4645   5.629   3.267   0.824
 1547TIP3   OH2 4646   0.521   3.908   2.507
 1547TIP3    H1 4647   0.507   3.858   2.588
 1547TIP3    H2 4648   0.528   3.999   2.537
 1548TIP3   OH2 4649   0.980   4.411   2.534
 1548TIP3    H1 4650   0.925   4.438   2.607
 1548TIP3    H2 4651   0.956   4.469   2.463
 1549TIP3   OH2 4652   3.961   2.963   1.866
 1549TIP3    H1 4653   3.872   2.940   1.841
 1549TIP3    H2 4654   3.976   2.916   1.948
 1550TIP3   OH2 4655   4.133   0.925   4.134
 1550TIP3    H1 4656   4.086   0.926   4.050
 1550TIP3    H2 4657   4.068   0.955   4.198
 1551TIP3   OH2 4658   2.698   4.686   2.535
 1551TIP3    H1 4659   2.607   4.684   2.562
 1551TIP3    H2 4660   2.696   4.668   2.441
 1552TIP3   OH2 4661   3.329   2.864   3.111
 1552TIP3    H1 4662   3.276   2.864   3.031
 1552TIP3    H2 4663   3.362   2.954   3.117
 1553TIP3   OH2 4664   5.407   0.280   2.876
 1553TIP3    H1 4665   5.410   0.228   2.796
 1553TIP3    H2 4666   5.339   0.345   2.859
 1554TIP3   OH2 4667   3.680   2.654   1.402
 1554TIP3    H1 4668   3.590   2.639   1.373
 1554TIP3    H2 4669   3.726   2.573   1.380
 1555TIP3   OH2 4670   3.575   2.393   2.906
 1555TIP3    H1 4671   3.527   2.390   2.990
 1555TIP3    H2 4672   3.651   2.337   2.920
 1556TIP3   OH2 4673   3.840   5.339   3.661
 1556TIP3    H1 4674   3.761   5.296   3.694
 1556TIP3    H2 4675   3.854   5.413   3.719
 1557TIP3   OH2 4676   0.243   5.843   1.538
 1557TIP3    H1 4677   0.319   5.840   1.480
 1557TIP3    H2 4678   0.175   5.885   1.485
 1558TIP3   OH2 4679   5.020   0.963   0.326
 1558TIP3    H1 4680   5.072   1.035   0.292
 1558TIP3    H2 4681   4.951   1.005   0.377
 1559TIP3   OH2 4682   1.514   0.502   3.754
 1559TIP3    H1 4683   1.430   0.456   3.760
 1559TIP3    H2 4684   1.504   0.562   3.681
 1560TIP3   OH2 4685   5.535   2.812   1.483
 1560TIP3    H1 4686   5.629   2.826   1.494
 1560TIP3    H2 4687   5.499   2.819   1.572
 1561TIP3   OH2 4688   2.097   1.854   0.587
 1561TIP3    H1 4689   2.045   1.906   0.648
 1561TIP3    H2 4690   2.082   1.764   0.614
 1562TIP3   OH2 4691   3.246   2.910   3.936
 1562TIP3    H1 4692   3.280   2.820   3.939
 1562TIP3    H2 4693   3.314   2.963   3.977
 1563TIP3   OH2 4694   4.076   3.185   4.196
 1563TIP3    H1 4695   4.034   3.121   4.254
 1563TIP3    H2 4696   4.148   3.220   4.248
 1564TIP3   OH2 4697   4.871   5.066   0.802
 1564TIP3    H1 4698   4.784   5.102   0.820
 1564TIP3    H2 4699   4.919   5.138   0.761
 1565TIP3   OH2 4700   4.183   1.631   1.774
 1565TIP3    H1 4701   4.165   1.725   1.779
 1565TIP3    H2 4702   4.144   1.594   1.853
 1566TIP3   OH2 4703   5.348   0.715   3.249
 1566TIP3    H1 4704   5.378   0.625   3.240
 1566TIP3    H2 4705   5.402   0.752   3.319
 1567TIP3   OH2 4706   4.966   0.668   4.366
 1567TIP3    H1 4707   4.950   0.660   4.461
 1567TIP3    H2 4708   4.928   0.753   4.343
 1568TIP3   OH2 4709   5.609   5.207   2.720
 1568TIP3    H1 4710   5.585   5.120   2.686
 1568TIP3    H2 4711   5.526   5.255   2.723
 1569TIP3   OH2 4712   3.922   3.695   1.461
 1569TIP3    H1 4713   3.959   3.645   1.533
 1569TIP3    H2 4714   3.935   3.640   1.384
 1570TIP3   OH2 4715   0.156   5.105   0.948
 1570TIP3    H1 4716   0.213   5.180   0.963
 1570TIP3    H2 4717   0.213   5.029   0.964
 1571TIP3   OH2 4718   3.168   5.835   1.970
 1571TIP3    H1 4719   3.239   5.803   1.914
 1571TIP3    H2 4720   3.092   5.783   1.943
 1572TIP3   OH2 4721   0.193   0.599   1.426
 1572TIP3    H1 4722   0.115   0.574   1.475
 1572TIP3    H2 4723   0.163   0.610   1.336
 1573TIP3   OH2 4724   2.270   4.646   0.921
 1573TIP3    H1 4725   2.214   4.704   0.973
 1573TIP3    H2 4726   2.261   4.560   0.962
 1574TIP3   OH2 4727   2.943   5.777   0.386
 1574TIP3    H1 4728   2.877   5.766   0.454
 1574TIP3    H2 4729   2.899   5.829   0.318
 1575TIP3   OH2 4730   4.457   0.886   3.280
 1575TIP3    H1 4731   4.509   0.966   3.272
 1575TIP3    H2 4732   4.446   0.855   3.191
 1576TIP3   OH2 4733   5.347   1.488   2.007
 1576TIP3    H1 4734   5.441   1.500   2.017
 1576TIP3    H2 4735   5.330   1.503   1.914
 1577TIP3   OH2 4736   0.099   3.839   2.569
 1577TIP3    H1 4737   0.146   3.908   2.522
 1577TIP3    H2 4738   0.062   3.883   2.646
 1578TIP3   OH2 4739   2.102   1.495   3.409
 1578TIP3    H1 4740   2.067   1.552   3.341
 1578TIP3    H2 4741   2.163   1.550   3.458
 1579TIP3   OH2 4742   1.323   0.638   3.599
 1579TIP3    H1 4743   1.303   0.710   3.659
 1579TIP3    H2 4744   1.238   0.599   3.580
 1580TIP3   OH2 4745   1.526   0.597   1.240
 1580TIP3    H1 4746   1.435   0.568   1.234
 1580TIP3    H2 4747   1.526   0.664   1.308
 1581TIP3   OH2 4748   4.804   0.066   3.115
 1581TIP3    H1 4749   4.861   0.006   3.164
 1581TIP3    H2 4750   4.733   0.011   3.083
 1582TIP3   OH2 4751   0.060   0.553   3.994
 1582TIP3    H1 4752   0.094   0.505   4.069
 1582TIP3    H2 4753   0.119   0.528   3.922
 1583TIP3   OH2 4754   2.241   3.476   0.621
 1583TIP3    H1 4755   2.330   3.446   0.603
 1583TIP3    H2 4756   2.199   3.484   0.535
 1584TIP3   OH2 4757   1.635   2.595   2.407
 1584TIP3    H1 4758   1.630   2.647   2.327
 1584TIP3    H2 4759   1.589   2.514   2.385
 1585TIP3   OH2 4760   4.158   1.084   2.005
 1585TIP3    H1 4761   4.093   1.021   2.034
 1585TIP3    H2 4762   4.229   1.078   2.070
 1586TIP3   OH2 4763   6.071   5.751   1.097
 1586TIP3    H1 4764   6.062   5.773   1.004
 1586TIP3    H2 4765   5.981   5.740   1.128
 1587TIP3   OH2 4766   3.364   1.239   2.818
 1587TIP3    H1 4767   3.393   1.328   2.838
 1587TIP3    H2 4768   3.412   1.215   2.739
 1588TIP3   OH2 4769   1.578   2.768   1.094
 1588TIP3    H1 4770   1.613   2.853   1.121
 1588TIP3    H2 4771   1.484   2.774   1.112
 1589TIP3   OH2 4772   4.152   2.445   4.321
 1589TIP3    H1 4773   4.186   2.390   4.250
 1589TIP3    H2 4774   4.062   2.465   4.295
 1590TIP3   OH2 4775   6.160   1.950   3.091
 1590TIP3    H1 4776   6.213   1.880   3.054
 1590TIP3    H2 4777   6.219   1.997   3.149
 1591TIP3   OH2 4778   2.142   4.347   2.675
 1591TIP3    H1 4779   2.138   4.252   2.666
 1591TIP3    H2 4780   2.212   4.374   2.616
 1592TIP3   OH2 4781   0.434   4.101   4.388
 1592TIP3    H1 4782   0.519   4.076   4.351
 1592TIP3    H2 4783   0.378   4.117   4.312
 1593TIP3   OH2 4784   4.120   0.432   1.740
 1593TIP3    H1 4785   4.132   0.393   1.653
 1593TIP3    H2 4786   4.063   0.371   1.786
 1594TIP3   OH2 4787   3.851   2.113   2.491
 1594TIP3    H1 4788   3.871   2.140   2.401
 1594TIP3    H2 4789   3.871   2.019   2.492
 1595TIP3   OH2 4790   2.299   4.442   1.118
 1595TIP3    H1 4791   2.216   4.477   1.148
 1595TIP3    H2 4792   2.365   4.503   1.152
 1596TIP3   OH2 4793   5.729   5.325   4.117
 1596TIP3    H1 4794   5.727   5.272   4.037
 1596TIP3    H2 4795   5.637   5.334   4.141
 1597TIP3   OH2 4796   5.040   0.617   1.834
 1597TIP3    H1 4797   5.026   0.683   1.766
 1597TIP3    H2 4798   4.998   0.538   1.800
 1598TIP3   OH2 4799   2.388   2.983   0.637
 1598TIP3    H1 4800   2.476   3.002   0.668
 1598TIP3    H2 4801   2.335   3.057   0.667
 1599TIP3   OH2 4802   1.856   1.390   3.483
 1599TIP3    H1 4803   1.809   1.465   3.519
 1599TIP3    H2 4804   1.934   1.428   3.443
 1600TIP3   OH2 4805   5.353   2.895   2.152
 1600TIP3    H1 4806   5.403   2.942   2.085
 1600TIP3    H2 4807   5.384   2.805   2.146
 1601TIP3   OH2 4808   2.735   5.308   1.241
 1601TIP3    H1 4809   2.724   5.216   1.263
 1601TIP3    H2 4810   2.692   5.318   1.156
 1602TIP3   OH2 4811   1.338   2.644   0.531
 1602TIP3    H1 4812   1.303   2.678   0.614
 1602TIP3    H2 4813   1.267   2.654   0.469
 1603TIP3   OH2 4814   5.336   0.585   0.504
 1603TIP3    H1 4815   5.399   0.653   0.527
 1603TIP3    H2 4816   5.257   0.633   0.478
 1604TIP3   OH2 4817   2.271   3.299   4.381
 1604TIP3    H1 4818   2.199   3.336   4.432
 1604TIP3    H2 4819   2.313   3.236   4.440
 1605TIP3   OH2 4820   2.504   1.263   1.538
 1605TIP3    H1 4821   2.585   1.262   1.488
 1605TIP3    H2 4822   2.531   1.283   1.628
 1606TIP3   OH2 4823   5.343   0.455   2.609
 1606TIP3    H1 4824   5.327   0.418   2.521
 1606TIP3    H2 4825   5.419   0.511   2.598
 1607TIP3   OH2 4826   0.340   0.869   2.877
 1607TIP3    H1 4827   0.425   0.897   2.911
 1607TIP3    H2 4828   0.281   0.874   2.952
 1608TIP3   OH2 4829   0.623   1.044   2.997
 1608TIP3    H1 4830   0.715   1.021   3.010
 1608TIP3    H2 4831   0.576   0.985   3.056
 1609TIP3   OH2 4832   1.557   0.135   3.369
 1609TIP3    H1 4833   1.611   0.190   3.427
 1609TIP3    H2 4834   1.538   0.191   3.294
 1610TIP3   OH2 4835   3.929   3.480   3.801
 1610TIP3    H1 4836   3.908   3.488   3.894
 1610TIP3    H2 4837   3.847   3.454   3.760
 1611TIP3   OH2 4838   0.077   1.582   3.610
 1611TIP3    H1 4839   0.120   1.658   3.650
 1611TIP3    H2 4840  -0.009   1.614   3.583
 1612TIP3   OH2 4841   4.200   3.951   1.840
 1612TIP3    H1 4842   4.147   3.986   1.768
 1612TIP3    H2 4843   4.289   3.983   1.822
 1613TIP3   OH2 4844   1.346   1.035   3.191
 1613TIP3    H1 4845   1.432   1.042   3.150
 1613TIP3    H2 4846   1.365   1.029   3.285
 1614TIP3   OH2 4847   2.853   1.641   4.439
 1614TIP3    H1 4848   2.810   1.582   4.377
 1614TIP3    H2 4849   2.874   1.719   4.387
 1615TIP3   OH2 4850   4.923   3.843   0.182
 1615TIP3    H1 4851   4.920   3.757   0.224
 1615TIP3    H2 4852   4.962   3.827   0.096
 1616TIP3   OH2 4853   0.489   3.754   2.713
 1616TIP3    H1 4854   0.530   3.778   2.797
 1616TIP3    H2 4855   0.410   3.706   2.738
 1617TIP3   OH2 4856   2.270   3.869   4.101
 1617TIP3    H1 4857   2.328   3.940   4.074
 1617TIP3    H2 4858   2.316   3.789   4.075
 1618TIP3   OH2 4859   4.396   4.315   4.410
 1618TIP3    H1 4860   4.358   4.395   4.445
 1618TIP3    H2 4861   4.360   4.245   4.465
 1619TIP3   OH2 4862   3.625   3.750   3.083
 1619TIP3    H1 4863   3.701   3.697   3.108
 1619TIP3    H2 4864   3.653   3.796   3.004
 1620TIP3   OH2 4865   0.010   2.072   1.623
 1620TIP3    H1 4866   0.101   2.102   1.621
 1620TIP3    H2 4867   0.011   1.998   1.683
 1621TIP3   OH2 4868   3.810   4.587   1.935
 1621TIP3    H1 4869   3.879   4.553   1.877
 1621TIP3    H2 4870   3.732   4.590   1.880
 1622TIP3   OH2 4871   0.040   1.654   1.539
 1622TIP3    H1 4872   0.053   1.574   1.590
 1622TIP3    H2 4873   0.128   1.691   1.531
 1623TIP3   OH2 4874   1.494   5.114   5.128
 1623TIP3    H1 4875   1.417   5.127   5.184
 1623TIP3    H2 4876   1.478   5.030   5.085
 1624TIP3   OH2 4877   3.453   0.121   1.157
 1624TIP3    H1 4878   3.483   0.190   1.098
 1624TIP3    H2 4879   3.375   0.086   1.115
 1625TIP3   OH2 4880   1.830   4.355   1.369
 1625TIP3    H1 4881   1.902   4.406   1.405
 1625TIP3    H2 4882   1.772   4.339   1.444
 1626TIP3   OH2 4883   5.464   3.619   2.544
 1626TIP3    H1 4884   5.447   3.672   2.622
 1626TIP3    H2 4885   5.539   3.661   2.503
 1627TIP3   OH2 4886   2.445   5.238   1.725
 1627TIP3    H1 4887   2.538   5.229   1.744
 1627TIP3    H2 4888   2.417   5.149   1.703
 1628TIP3   OH2 4889   6.203   0.670   0.444
 1628TIP3    H1 4890   6.280   0.727   0.447
 1628TIP3    H2 4891   6.226   0.596   0.499
 1629TIP3   OH2 4892   0.883   5.311   2.652
 1629TIP3    H1 4893   0.913   5.220   2.646
 1629TIP3    H2 4894   0.861   5.323   2.744
 1630TIP3   OH2 4895   5.093   0.977   0.963
 1630TIP3    H1 4896   5.036   0.936   0.898
 1630TIP3    H2 4897   5.041   1.048   1.000
 1631TIP3   OH2 4898   5.367   5.537   0.870
 1631TIP3    H1 4899   5.387   5.493   0.952
 1631TIP3    H2 4900   5.424   5.495   0.806
 1632TIP3   OH2 4901   4.864   0.557   4.649
 1632TIP3    H1 4902   4.779   0.600   4.641
 1632TIP3    H2 4903   4.922   0.625   4.683
 1633TIP3   OH2 4904   5.620   4.882   2.733
 1633TIP3    H1 4905   5.651   4.890   2.823
 1633TIP3    H2 4906   5.676   4.816   2.693
 1634TIP3   OH2 4907   5.158   3.929   3.887
 1634TIP3    H1 4908   5.112   3.871   3.948
 1634TIP3    H2 4909   5.163   4.012   3.934
 1635TIP3   OH2 4910   2.791   1.239   0.812
 1635TIP3    H1 4911   2.880   1.275   0.806
 1635TIP3    H2 4912   2.751   1.286   0.885
 1636TIP3   OH2 4913   1.747   4.393   0.916
 1636TIP3    H1 4914   1.775   4.302   0.926
 1636TIP3    H2 4915   1.811   4.431   0.855
 1637TIP3   OH2 4916   6.017   0.373   3.304
 1637TIP3    H1 4917   6.055   0.285   3.304
 1637TIP3    H2 4918   5.962   0.375   3.382
 1638TIP3   OH2 4919   1.772   2.018   4.747
 1638TIP3    H1 4920   1.799   2.069   4.670
 1638TIP3    H2 4921   1.855   1.988   4.785
 1639TIP3   OH2 4922   5.366   4.804   1.770
 1639TIP3    H1 4923   5.332   4.878   1.820
 1639TIP3    H2 4924   5.317   4.806   1.687
 1640TIP3   OH2 4925   5.391   5.137   0.381
 1640TIP3    H1 4926   5.378   5.221   0.336
 1640TIP3    H2 4927   5.305   5.114   0.414
 1641TIP3   OH2 4928   5.594   5.935   2.604
 1641TIP3    H1 4929   5.634   5.896   2.526
 1641TIP3    H2 4930   5.661   5.993   2.640
 1642TIP3   OH2 4931   5.056   3.533   1.033
 1642TIP3    H1 4932   5.030   3.468   0.968
 1642TIP3    H2 4933   5.141   3.504   1.065
 1643TIP3   OH2 4934   1.563   4.700   3.787
 1643TIP3    H1 4935   1.647   4.736   3.817
 1643TIP3    H2 4936   1.581   4.668   3.698
 1644TIP3   OH2 4937   3.451   1.326   3.442
 1644TIP3    H1 4938   3.507   1.402   3.424
 1644TIP3    H2 4939   3.470   1.265   3.371
 1645TIP3   OH2 4940   0.341   5.939   3.994
 1645TIP3    H1 4941   0.318   5.989   4.072
 1645TIP3    H2 4942   0.257   5.901   3.966
 1646TIP3   OH2 4943   4.186   5.262   2.744
 1646TIP3    H1 4944   4.231   5.345   2.725
 1646TIP3    H2 4945   4.255   5.196   2.739
 1647TIP3   OH2 4946   5.075   2.309   3.944
 1647TIP3    H1 4947   5.075   2.399   3.913
 1647TIP3    H2 4948   5.073   2.256   3.864
 1648TIP3   OH2 4949   5.859   1.314   1.458
 1648TIP3    H1 4950   5.916   1.362   1.397
 1648TIP3    H2 4951   5.813   1.383   1.507
 1649TIP3   OH2 4952   0.661   4.560   3.903
 1649TIP3    H1 4953   0.680   4.467   3.914
 1649TIP3    H2 4954   0.747   4.603   3.900
 1650TIP3   OH2 4955   1.812   4.808   1.108
 1650TIP3    H1 4956   1.752   4.734   1.116
 1650TIP3    H2 4957   1.758   4.880   1.076
 1651TIP3   OH2 4958   3.874   3.597   3.105
 1651TIP3    H1 4959   3.868   3.519   3.161
 1651TIP3    H2 4960   3.911   3.564   3.022
 1652TIP3   OH2 4961  -0.007   4.485   3.977
 1652TIP3    H1 4962   0.007   4.471   3.883
 1652TIP3    H2 4963   0.078   4.512   4.011
 1653TIP3   OH2 4964   1.968   4.273   4.300
 1653TIP3    H1 4965   2.061   4.274   4.325
 1653TIP3    H2 4966   1.926   4.222   4.369
 1654TIP3   OH2 4967   5.597   4.816   3.557
 1654TIP3    H1 4968   5.581   4.734   3.604
 1654TIP3    H2 4969   5.624   4.788   3.469
 1655TIP3   OH2 4970   3.634   0.199   1.918
 1655TIP3    H1 4971   3.625   0.233   1.829
 1655TIP3    H2 4972   3.568   0.246   1.969
 1656TIP3   OH2 4973   5.751   1.878   3.936
 1656TIP3    H1 4974   5.762   1.944   4.004
 1656TIP3    H2 4975   5.796   1.914   3.860
 1657TIP3   OH2 4976   0.365   3.156   3.747
 1657TIP3    H1 4977   0.395   3.232   3.796
 1657TIP3    H2 4978   0.271   3.171   3.735
 1658TIP3   OH2 4979   2.960   3.178   2.853
 1658TIP3    H1 4980   3.049   3.212   2.862
 1658TIP3    H2 4981   2.917   3.201   2.935
 1659TIP3   OH2 4982   1.854   2.028   4.030
 1659TIP3    H1 4983   1.830   2.094   4.095
 1659TIP3    H2 4984   1.877   1.951   4.082
 1660TIP3   OH2 4985   3.162   1.666   2.026
 1660TIP3    H1 4986   3.247   1.633   1.998
 1660TIP3    H2 4987   3.103   1.591   2.019
 1661TIP3   OH2 4988   1.087   3.196   1.911
 1661TIP3    H1 4989   1.091   3.292   1.921
 1661TIP3    H2 4990   1.041   3.166   1.990
 1662TIP3   OH2 4991   2.115   4.867   3.181
 1662TIP3    H1 4992   2.205   4.900   3.178
 1662TIP3    H2 4993   2.062   4.938   3.143
 1663TIP3   OH2 4994   2.332   5.491   3.166
 1663TIP3    H1 4995   2.372   5.500   3.252
 1663TIP3    H2 4996   2.405   5.481   3.105
 1664TIP3   OH2 4997   5.008   2.564   3.878
 1664TIP3    H1 4998   5.017   2.565   3.783
 1664TIP3    H2 4999   5.048   2.646   3.907
 1665TIP3   OH2 5000   1.745   5.163   1.722
 1665TIP3    H1 5001   1.777   5.188   1.636
 1665TIP3    H2 5002   1.649   5.169   1.714
 1666TIP3   OH2 5003   1.430   4.730   3.214
 1666TIP3    H1 5004   1.467   4.797   3.158
 1666TIP3    H2 5005   1.431   4.650   3.161
 1667TIP3   OH2 5006   5.238   0.556   2.099
 1667TIP3    H1 5007   5.318   0.608   2.102
 1667TIP3    H2 5008   5.167   0.620   2.107
 1668TIP3   OH2 5009   2.000   1.898   3.416
 1668TIP3    H1 5010   1.928   1.956   3.438
 1668TIP3    H2 5011   2.064   1.911   3.486
 1669TIP3   OH2 5012   1.406   5.273   2.238
 1669TIP3    H1 5013   1.384   5.197   2.184
 1669TIP3    H2 5014   1.418   5.344   2.176
 1670TIP3   OH2 5015   2.085   0.608   2.192
 1670TIP3    H1 5016   2.022   0.552   2.237
 1670TIP3    H2 5017   2.069   0.592   2.099
 1671TIP3   OH2 5018   2.480   0.352   4.207
 1671TIP3    H1 5019   2.559   0.332   4.257
 1671TIP3    H2 5020   2.438   0.423   4.256
 1672TIP3   OH2 5021   0.796   2.458   1.298
 1672TIP3    H1 5022   0.889   2.440   1.286
 1672TIP3    H2 5023   0.790   2.554   1.291
 1673TIP3   OH2 5024   3.748   3.238   0.320
 1673TIP3    H1 5025   3.756   3.147   0.292
 1673TIP3    H2 5026   3.836   3.262   0.348
 1674TIP3   OH2 5027   4.316   1.634   0.357
 1674TIP3    H1 5028   4.385   1.665   0.298
 1674TIP3    H2 5029   4.300   1.709   0.415
 1675TIP3   OH2 5030   5.059   4.910   1.046
 1675TIP3    H1 5031   5.001   4.861   1.105
 1675TIP3    H2 5032   5.022   4.895   0.959
 1676TIP3   OH2 5033   2.966   2.946   2.703
 1676TIP3    H1 5034   2.962   3.030   2.750
 1676TIP3    H2 5035   2.904   2.890   2.751
 1677TIP3   OH2 5036   2.923   2.845   3.065
 1677TIP3    H1 5037   2.924   2.856   3.160
 1677TIP3    H2 5038   2.867   2.768   3.051
 1678TIP3   OH2 5039   2.686   2.115   2.763
 1678TIP3    H1 5040   2.640   2.038   2.728
 1678TIP3    H2 5041   2.619   2.163   2.811
 1679TIP3   OH2 5042   2.640   1.451   0.330
 1679TIP3    H1 5043   2.734   1.459   0.347
 1679TIP3    H2 5044   2.599   1.467   0.415
 1680TIP3   OH2 5045   4.075   5.257   4.170
 1680TIP3    H1 5046   4.072   5.338   4.222
 1680TIP3    H2 5047   4.158   5.216   4.194
 1681TIP3   OH2 5048   3.525   4.322   1.923
 1681TIP3    H1 5049   3.571   4.298   2.003
 1681TIP3    H2 5050   3.595   4.327   1.857
 1682TIP3   OH2 5051   4.632   1.634   3.287
 1682TIP3    H1 5052   4.597   1.722   3.298
 1682TIP3    H2 5053   4.654   1.605   3.376
 1683TIP3   OH2 5054   6.138   3.400   3.786
 1683TIP3    H1 5055   6.087   3.367   3.860
 1683TIP3    H2 5056   6.195   3.468   3.824
 1684TIP3   OH2 5057   3.188   4.776   2.175
 1684TIP3    H1 5058   3.124   4.738   2.235
 1684TIP3    H2 5059   3.163   4.742   2.089
 1685TIP3   OH2 5060   2.940   2.138   0.306
 1685TIP3    H1 5061   2.979   2.182   0.230
 1685TIP3    H2 5062   2.869   2.197   0.333
 1686TIP3   OH2 5063   4.984   3.516   1.406
 1686TIP3    H1 5064   4.949   3.588   1.459
 1686TIP3    H2 5065   4.998   3.445   1.469
 1687TIP3   OH2 5066   5.896   5.851   4.356
 1687TIP3    H1 5067   5.875   5.936   4.317
 1687TIP3    H2 5068   5.871   5.788   4.289
 1688TIP3   OH2 5069   5.335   3.899   3.237
 1688TIP3    H1 5070   5.273   3.859   3.297
 1688TIP3    H2 5071   5.378   3.968   3.288
 1689TIP3   OH2 5072   5.296   5.608   3.789
 1689TIP3    H1 5073   5.376   5.647   3.753
 1689TIP3    H2 5074   5.281   5.530   3.736
 1690TIP3   OH2 5075   5.777   3.534   1.853
 1690TIP3    H1 5076   5.716   3.504   1.921
 1690TIP3    H2 5077   5.726   3.533   1.772
 1691TIP3   OH2 5078   6.230   1.983   0.172
 1691TIP3    H1 5079   6.216   2.030   0.254
 1691TIP3    H2 5080   6.147   1.993   0.124
 1692TIP3   OH2 5081   5.045   2.907   3.705
 1692TIP3    H1 5082   5.040   2.902   3.800
 1692TIP3    H2 5083   4.954   2.907   3.675
 1693TIP3   OH2 5084   3.824   3.409   1.019
 1693TIP3    H1 5085   3.777   3.416   0.936
 1693TIP3    H2 5086   3.756   3.387   1.083
 1694TIP3   OH2 5087   6.223   3.418   4.973
 1694TIP3    H1 5088   6.235   3.501   4.928
 1694TIP3    H2 5089   6.300   3.366   4.949
 1695TIP3   OH2 5090   4.849   3.523   0.691
 1695TIP3    H1 5091   4.829   3.592   0.754
 1695TIP3    H2 5092   4.941   3.539   0.668
 1696TIP3   OH2 5093   0.709   2.478   1.697
 1696TIP3    H1 5094   0.800   2.501   1.678
 1696TIP3    H2 5095   0.705   2.469   1.792
 1697TIP3   OH2 5096   2.126   2.957   1.263
 1697TIP3    H1 5097   2.194   2.906   1.219
 1697TIP3    H2 5098   2.049   2.900   1.264
 1698TIP3   OH2 5099   0.518   4.887   2.724
 1698TIP3    H1 5100   0.438   4.933   2.700
 1698TIP3    H2 5101   0.504   4.861   2.815
 1699TIP3   OH2 5102   3.654   4.307   5.173
 1699TIP3    H1 5103   3.677   4.364   5.100
 1699TIP3    H2 5104   3.572   4.266   5.146
 1700TIP3   OH2 5105   3.887   0.571   4.200
 1700TIP3    H1 5106   3.930   0.617   4.273
 1700TIP3    H2 5107   3.952   0.571   4.130
 1701TIP3   OH2 5108   0.382   2.765   4.552
 1701TIP3    H1 5109   0.450   2.719   4.600
 1701TIP3    H2 5110   0.405   2.858   4.560
 1702TIP3   OH2 5111   1.792   2.344   1.534
 1702TIP3    H1 5112   1.811   2.425   1.581
 1702TIP3    H2 5113   1.712   2.363   1.485
 1703TIP3   OH2 5114   2.952   1.943   2.390
 1703TIP3    H1 5115   2.904   1.896   2.458
 1703TIP3    H2 5116   2.979   1.874   2.329
 1704TIP3   OH2 5117   4.281   3.281   4.341
 1704TIP3    H1 5118   4.329   3.205   4.308
 1704TIP3    H2 5119   4.349   3.343   4.367
 1705TIP3   OH2 5120   2.989   5.666   4.226
 1705TIP3    H1 5121   2.912   5.609   4.227
 1705TIP3    H2 5122   2.958   5.749   4.261
 1706TIP3   OH2 5123   2.394   5.225   0.183
 1706TIP3    H1 5124   2.489   5.233   0.170
 1706TIP3    H2 5125   2.383   5.223   0.278
 1707TIP3   OH2 5126   0.376   1.174   2.648
 1707TIP3    H1 5127   0.348   1.238   2.713
 1707TIP3    H2 5128   0.451   1.131   2.688
 1708TIP3   OH2 5129   2.772   5.400   1.975
 1708TIP3    H1 5130   2.745   5.308   1.986
 1708TIP3    H2 5131   2.729   5.428   1.895
 1709TIP3   OH2 5132   4.671   0.235   2.379
 1709TIP3    H1 5133   4.599   0.191   2.334
 1709TIP3    H2 5134   4.706   0.169   2.438
 1710TIP3   OH2 5135   5.918   6.019   0.573
 1710TIP3    H1 5136   5.869   6.060   0.502
 1710TIP3    H2 5137   6.008   6.016   0.542
 1711TIP3   OH2 5138   3.697   4.364   0.623
 1711TIP3    H1 5139   3.678   4.301   0.692
 1711TIP3    H2 5140   3.639   4.438   0.641
 1712TIP3   OH2 5141   2.383   0.483   2.134
 1712TIP3    H1 5142   2.326   0.423   2.086
 1712TIP3    H2 5143   2.402   0.552   2.071
 1713TIP3   OH2 5144   0.802   1.449   0.712
 1713TIP3    H1 5145   0.821   1.537   0.746
 1713TIP3    H2 5146   0.880   1.424   0.664
 1714TIP3   OH2 5147   4.874   3.921   2.176
 1714TIP3    H1 5148   4.892   4.015   2.172
 1714TIP3    H2 5149   4.817   3.910   2.251
 1715TIP3   OH2 5150   0.900   3.394   1.066
 1715TIP3    H1 5151   0.926   3.308   1.033
 1715TIP3    H2 5152   0.804   3.394   1.060
 1716TIP3   OH2 5153   3.794   4.821   2.665
 1716TIP3    H1 5154   3.807   4.869   2.583
 1716TIP3    H2 5155   3.740   4.879   2.719
 1717TIP3   OH2 5156   5.292   5.069   3.885
 1717TIP3    H1 5157   5.345   5.034   3.958
 1717TIP3    H2 5158   5.345   5.051   3.807
 1718TIP3   OH2 5159   3.423   5.667   3.503
 1718TIP3    H1 5160   3.516   5.692   3.509
 1718TIP3    H2 5161   3.400   5.639   3.591
 1719TIP3   OH2 5162   3.732   0.104   3.269
 1719TIP3    H1 5163   3.717   0.081   3.177
 1719TIP3    H2 5164   3.792   0.179   3.265
 1720TIP3   OH2 5165   2.359   5.347   1.947
 1720TIP3    H1 5166   2.397   5.327   1.862
 1720TIP3    H2 5167   2.266   5.328   1.937
 1721TIP3   OH2 5168   3.058   3.476   5.155
 1721TIP3    H1 5169   3.128   3.479   5.091
 1721TIP3    H2 5170   3.083   3.406   5.216
 1722TIP3   OH2 5171   5.580   2.386   4.293
 1722TIP3    H1 5172   5.593   2.292   4.282
 1722TIP3    H2 5173   5.537   2.395   4.378
 1723TIP3   OH2 5174   0.099   4.409   2.320
 1723TIP3    H1 5175   0.113   4.355   2.242
 1723TIP3    H2 5176   0.078   4.496   2.285
 1724TIP3   OH2 5177   5.431   3.019   1.925
 1724TIP3    H1 5178   5.491   3.082   1.964
 1724TIP3    H2 5179   5.431   3.040   1.831
 1725TIP3   OH2 5180   4.240   0.488   2.403
 1725TIP3    H1 5181   4.260   0.476   2.311
 1725TIP3    H2 5182   4.323   0.478   2.448
 1726TIP3   OH2 5183   4.864   5.835   2.866
 1726TIP3    H1 5184   4.862   5.862   2.958
 1726TIP3    H2 5185   4.777   5.859   2.833
 1727TIP3   OH2 5186   5.588   0.337   2.339
 1727TIP3    H1 5187   5.622   0.367   2.423
 1727TIP3    H2 5188   5.493   0.353   2.344
 1728TIP3   OH2 5189   3.591   1.983   2.610
 1728TIP3    H1 5190   3.666   2.015   2.561
 1728TIP3    H2 5191   3.530   2.057   2.613
 1729TIP3   OH2 5192   3.870   1.881   1.299
 1729TIP3    H1 5193   3.874   1.922   1.213
 1729TIP3    H2 5194   3.962   1.872   1.326
 1730TIP3   OH2 5195   3.212   0.700   1.236
 1730TIP3    H1 5196   3.131   0.735   1.273
 1730TIP3    H2 5197   3.274   0.773   1.241
 1731TIP3   OH2 5198   2.127   2.689   3.323
 1731TIP3    H1 5199   2.176   2.610   3.299
 1731TIP3    H2 5200   2.183   2.761   3.295
 1732TIP3   OH2 5201   4.493   4.011   4.036
 1732TIP3    H1 5202   4.447   3.988   3.955
 1732TIP3    H2 5203   4.437   4.078   4.077
 1733TIP3   OH2 5204  -0.023   3.720   4.500
 1733TIP3    H1 5205   0.049   3.711   4.437
 1733TIP3    H2 5206   0.003   3.793   4.555
 1734TIP3   OH2 5207   3.912   1.137   1.207
 1734TIP3    H1 5208   3.829   1.166   1.245
 1734TIP3    H2 5209   3.887   1.098   1.123
 1735TIP3   OH2 5210   0.092   2.969   3.499
 1735TIP3    H1 5211   0.007   2.956   3.458
 1735TIP3    H2 5212   0.072   3.002   3.587
 1736TIP3   OH2 5213   3.437   3.226   5.215
 1736TIP3    H1 5214   3.500   3.216   5.144
 1736TIP3    H2 5215   3.463   3.307   5.259
 1737TIP3   OH2 5216   4.504   2.959   3.663
 1737TIP3    H1 5217   4.579   2.900   3.655
 1737TIP3    H2 5218   4.534   3.042   3.626
 1738TIP3   OH2 5219   1.415   3.140   1.878
 1738TIP3    H1 5220   1.415   3.073   1.809
 1738TIP3    H2 5221   1.324   3.142   1.907
 1739TIP3   OH2 5222   2.679   0.149   1.319
 1739TIP3    H1 5223   2.767   0.135   1.355
 1739TIP3    H2 5224   2.686   0.230   1.269
 1740TIP3   OH2 5225   2.123   4.729   3.452
 1740TIP3    H1 5226   2.069   4.655   3.427
 1740TIP3    H2 5227   2.132   4.781   3.371
 1741TIP3   OH2 5228   3.137   2.245   4.258
 1741TIP3    H1 5229   3.222   2.272   4.291
 1741TIP3    H2 5230   3.143   2.150   4.249
 1742TIP3   OH2 5231   4.882   2.740   4.647
 1742TIP3    H1 5232   4.876   2.794   4.568
 1742TIP3    H2 5233   4.933   2.663   4.620
 1743TIP3   OH2 5234   1.713   3.476   2.590
 1743TIP3    H1 5235   1.765   3.460   2.669
 1743TIP3    H2 5236   1.713   3.571   2.581
 1744TIP3   OH2 5237   5.668   2.416   2.171
 1744TIP3    H1 5238   5.633   2.330   2.146
 1744TIP3    H2 5239   5.649   2.423   2.265
 1745TIP3   OH2 5240   1.823   1.397   1.428
 1745TIP3    H1 5241   1.883   1.404   1.503
 1745TIP3    H2 5242   1.825   1.304   1.405
 1746TIP3   OH2 5243   1.049   1.078   0.520
 1746TIP3    H1 5244   1.106   1.093   0.444
 1746TIP3    H2 5245   1.110   1.075   0.594
 1747TIP3   OH2 5246   1.213   1.897   0.861
 1747TIP3    H1 5247   1.276   1.899   0.789
 1747TIP3    H2 5248   1.155   1.972   0.845
 1748TIP3   OH2 5249   0.262   4.901   3.208
 1748TIP3    H1 5250   0.299   4.891   3.295
 1748TIP3    H2 5251   0.272   4.994   3.187
 1749TIP3   OH2 5252   2.670   5.637   3.414
 1749TIP3    H1 5253   2.737   5.697   3.449
 1749TIP3    H2 5254   2.642   5.677   3.332
 1750TIP3   OH2 5255   4.317   2.274   4.715
 1750TIP3    H1 5256   4.289   2.358   4.679
 1750TIP3    H2 5257   4.380   2.297   4.784
 1751TIP3   OH2 5258   0.956   5.228   2.972
 1751TIP3    H1 5259   0.997   5.285   3.038
 1751TIP3    H2 5260   0.870   5.207   3.008
 1752TIP3   OH2 5261   2.573   1.869   2.728
 1752TIP3    H1 5262   2.555   1.779   2.753
 1752TIP3    H2 5263   2.492   1.901   2.690
 1753TIP3   OH2 5264   0.157   5.360   4.215
 1753TIP3    H1 5265   0.226   5.346   4.149
 1753TIP3    H2 5266   0.080   5.385   4.164
 1754TIP3   OH2 5267   1.605   2.175   2.377
 1754TIP3    H1 5268   1.665   2.104   2.396
 1754TIP3    H2 5269   1.599   2.176   2.281
 1755TIP3   OH2 5270   2.248   0.250   2.047
 1755TIP3    H1 5271   2.163   0.262   2.088
 1755TIP3    H2 5272   2.240   0.293   1.962
 1756TIP3   OH2 5273   1.954   0.520   4.984
 1756TIP3    H1 5274   1.980   0.598   4.935
 1756TIP3    H2 5275   1.924   0.458   4.918
 1757TIP3   OH2 5276   4.044   2.326   2.544
 1757TIP3    H1 5277   4.122   2.282   2.577
 1757TIP3    H2 5278   3.978   2.257   2.538
 1758TIP3   OH2 5279   3.257   1.122   0.049
 1758TIP3    H1 5280   3.338   1.090   0.089
 1758TIP3    H2 5281   3.199   1.046   0.047
 1759TIP3   OH2 5282   5.430   4.612   2.726
 1759TIP3    H1 5283   5.390   4.526   2.736
 1759TIP3    H2 5284   5.387   4.666   2.793
 1760TIP3   OH2 5285   1.638   4.310   3.853
 1760TIP3    H1 5286   1.658   4.239   3.914
 1760TIP3    H2 5287   1.543   4.307   3.844
 1761TIP3   OH2 5288   1.027   1.680   3.476
 1761TIP3    H1 5289   0.960   1.682   3.407
 1761TIP3    H2 5290   1.075   1.599   3.461
 1762TIP3   OH2 5291   2.792   4.074   2.660
 1762TIP3    H1 5292   2.733   4.111   2.726
 1762TIP3    H2 5293   2.869   4.130   2.663
 1763TIP3   OH2 5294   2.521   5.953   3.398
 1763TIP3    H1 5295   2.548   5.869   3.362
 1763TIP3    H2 5296   2.470   5.995   3.329
 1764TIP3   OH2 5297   1.391   3.557   3.965
 1764TIP3    H1 5298   1.376   3.480   3.911
 1764TIP3    H2 5299   1.379   3.526   4.055
 1765TIP3   OH2 5300   0.783   1.703   4.372
 1765TIP3    H1 5301   0.803   1.643   4.300
 1765TIP3    H2 5302   0.775   1.647   4.449
 1766TIP3   OH2 5303   2.926   3.097   4.779
 1766TIP3    H1 5304   2.960   3.158   4.844
 1766TIP3    H2 5305   2.968   3.013   4.801
 1767TIP3   OH2 5306   3.019   2.664   0.079
 1767TIP3    H1 5307   2.974   2.744   0.105
 1767TIP3    H2 5308   2.949   2.604   0.054
 1768TIP3   OH2 5309   4.695   5.985   3.665
 1768TIP3    H1 5310   4.706   5.925   3.738
 1768TIP3    H2 5311   4.775   6.039   3.666
 1769TIP3   OH2 5312   5.438   5.537   2.928
 1769TIP3    H1 5313   5.515   5.489   2.957
 1769TIP3    H2 5314   5.469   5.591   2.855
 1770TIP3   OH2 5315   1.164   4.320   1.190
 1770TIP3    H1 5316   1.121   4.403   1.170
 1770TIP3    H2 5317   1.205   4.333   1.275
 1771TIP3   OH2 5318   2.528   6.038   3.646
 1771TIP3    H1 5319   2.617   6.008   3.666
 1771TIP3    H2 5320   2.515   6.016   3.554
 1772TIP3   OH2 5321   3.981   5.652   0.191
 1772TIP3    H1 5322   4.007   5.744   0.198
 1772TIP3    H2 5323   3.991   5.631   0.098
 1773TIP3   OH2 5324   2.874   3.243   4.111
 1773TIP3    H1 5325   2.925   3.164   4.093
 1773TIP3    H2 5326   2.784   3.218   4.091
 1774TIP3   OH2 5327   1.218   1.587   3.786
 1774TIP3    H1 5328   1.280   1.516   3.770
 1774TIP3    H2 5329   1.272   1.666   3.788
 1775TIP3   OH2 5330   1.427   5.952   2.164
 1775TIP3    H1 5331   1.486   5.917   2.231
 1775TIP3    H2 5332   1.403   6.038   2.196
 1776TIP3   OH2 5333   0.712   2.321   4.713
 1776TIP3    H1 5334   0.737   2.373   4.638
 1776TIP3    H2 5335   0.643   2.263   4.680
 1777TIP3   OH2 5336   1.144   0.157   5.175
 1777TIP3    H1 5337   1.073   0.221   5.173
 1777TIP3    H2 5338   1.199   0.180   5.100
 1778TIP3   OH2 5339   1.722   3.344   4.391
 1778TIP3    H1 5340   1.759   3.314   4.474
 1778TIP3    H2 5341   1.630   3.363   4.411
 1779TIP3   OH2 5342   0.698   0.121   4.554
 1779TIP3    H1 5343   0.621   0.129   4.609
 1779TIP3    H2 5344   0.768   0.094   4.613
 1780TIP3   OH2 5345   5.669   4.407   2.876
 1780TIP3    H1 5346   5.732   4.354   2.828
 1780TIP3    H2 5347   5.599   4.346   2.899
 1781TIP3   OH2 5348   1.471   1.834   2.960
 1781TIP3    H1 5349   1.385   1.867   2.934
 1781TIP3    H2 5350   1.456   1.793   3.045
 1782TIP3   OH2 5351   2.055   3.328   2.178
 1782TIP3    H1 5352   2.021   3.341   2.267
 1782TIP3    H2 5353   2.009   3.250   2.146
 1783TIP3   OH2 5354   5.502   5.570   4.221
 1783TIP3    H1 5355   5.536   5.487   4.255
 1783TIP3    H2 5356   5.496   5.556   4.126
 1784TIP3   OH2 5357   4.504   2.296   0.179
 1784TIP3    H1 5358   4.545   2.350   0.247
 1784TIP3    H2 5359   4.473   2.219   0.226
 1785TIP3   OH2 5360   5.325   1.334   3.705
 1785TIP3    H1 5361   5.335   1.289   3.621
 1785TIP3    H2 5362   5.411   1.372   3.723
 1786TIP3   OH2 5363   3.353   4.351   0.561
 1786TIP3    H1 5364   3.363   4.407   0.484
 1786TIP3    H2 5365   3.402   4.272   0.540
 1787TIP3   OH2 5366   5.441   5.626   0.005
 1787TIP3    H1 5367   5.509   5.678  -0.036
 1787TIP3    H2 5368   5.488   5.564   0.062
 1788TIP3   OH2 5369   4.140   1.430   2.266
 1788TIP3    H1 5370   4.111   1.400   2.180
 1788TIP3    H2 5371   4.170   1.520   2.252
 1789TIP3   OH2 5372   3.578   4.660   1.773
 1789TIP3    H1 5373   3.558   4.589   1.712
 1789TIP3    H2 5374   3.502   4.663   1.832
 1790TIP3   OH2 5375   5.353   4.756   3.177
 1790TIP3    H1 5376   5.448   4.759   3.182
 1790TIP3    H2 5377   5.325   4.737   3.267
 1791TIP3   OH2 5378   4.820   1.009   3.018
 1791TIP3    H1 5379   4.763   1.002   2.942
 1791TIP3    H2 5380   4.880   1.080   2.997
 1792TIP3   OH2 5381   1.252   4.315   4.202
 1792TIP3    H1 5382   1.223   4.248   4.140
 1792TIP3    H2 5383   1.236   4.278   4.288
 1793TIP3   OH2 5384   4.826   0.440   1.685
 1793TIP3    H1 5385   4.912   0.429   1.645
 1793TIP3    H2 5386   4.787   0.513   1.637
 1794TIP3   OH2 5387   1.884   4.743   3.226
 1794TIP3    H1 5388   1.976   4.770   3.219
 1794TIP3    H2 5389   1.835   4.825   3.224
 1795TIP3   OH2 5390   0.139   0.452   1.083
 1795TIP3    H1 5391   0.148   0.362   1.054
 1795TIP3    H2 5392   0.227   0.489   1.076
 1796TIP3   OH2 5393   4.068   5.131   0.136
 1796TIP3    H1 5394   4.003   5.119   0.066
 1796TIP3    H2 5395   4.145   5.084   0.106
 1797TIP3   OH2 5396   6.235   3.951   0.767
 1797TIP3    H1 5397   6.284   3.984   0.692
 1797TIP3    H2 5398   6.216   3.860   0.746
 1798TIP3   OH2 5399   6.242   1.223   4.555
 1798TIP3    H1 5400   6.172   1.278   4.590
 1798TIP3    H2 5401   6.292   1.282   4.498
 1799TIP3   OH2 5402   4.857   3.542   1.851
 1799TIP3    H1 5403   4.939   3.577   1.884
 1799TIP3    H2 5404   4.870   3.533   1.757
 1800TIP3   OH2 5405   0.498   5.212   1.438
 1800TIP3    H1 5406   0.436   5.158   1.390
 1800TIP3    H2 5407   0.452   5.295   1.451
 1801TIP3   OH2 5408   3.461   4.705   4.191
 1801TIP3    H1 5409   3.457   4.621   4.145
 1801TIP3    H2 5410   3.553   4.716   4.212
 1802TIP3   OH2 5411   0.575   5.846   1.477
 1802TIP3    H1 5412   0.526   5.919   1.440
 1802TIP3    H2 5413   0.643   5.887   1.530
 1803TIP3   OH2 5414   4.524   0.970   4.928
 1803TIP3    H1 5415   4.455   0.909   4.954
 1803TIP3    H2 5416   4.476   1.049   4.901
 1804TIP3   OH2 5417   3.352   2.662   0.125
 1804TIP3    H1 5418   3.297   2.583   0.127
 1804TIP3    H2 5419   3.310   2.718   0.059
 1805TIP3   OH2 5420   3.192   0.983   0.877
 1805TIP3    H1 5421   3.182   0.908   0.817
 1805TIP3    H2 5422   3.134   0.962   0.950
 1806TIP3   OH2 5423   2.247   1.692   1.634
 1806TIP3    H1 5424   2.297   1.730   1.707
 1806TIP3    H2 5425   2.158   1.686   1.667
 1807TIP3   OH2 5426   3.827   0.226   0.928
 1807TIP3    H1 5427   3.843   0.157   0.992
 1807TIP3    H2 5428   3.859   0.190   0.845
 1808TIP3   OH2 5429   3.474   4.595   1.517
 1808TIP3    H1 5430   3.420   4.527   1.478
 1808TIP3    H2 5431   3.433   4.677   1.490
 1809TIP3   OH2 5432   4.110   1.376   1.988
 1809TIP3    H1 5433   4.201   1.401   1.976
 1809TIP3    H2 5434   4.111   1.281   1.997
 1810TIP3   OH2 5435   1.591   0.819   5.146
 1810TIP3    H1 5436   1.607   0.895   5.089
 1810TIP3    H2 5437   1.678   0.796   5.180
 1811TIP3   OH2 5438   5.138   5.641   0.767
 1811TIP3    H1 5439   5.208   5.581   0.791
 1811TIP3    H2 5440   5.117   5.619   0.677
 1812TIP3   OH2 5441   5.777   3.282   3.048
 1812TIP3    H1 5442   5.692   3.323   3.061
 1812TIP3    H2 5443   5.775   3.252   2.957
 1813TIP3   OH2 5444   6.229   4.435   4.802
 1813TIP3    H1 5445   6.181   4.353   4.794
 1813TIP3    H2 5446   6.318   4.408   4.824
 1814TIP3   OH2 5447   2.938   3.349   1.962
 1814TIP3    H1 5448   2.888   3.430   1.958
 1814TIP3    H2 5449   3.016   3.366   1.909
 1815TIP3   OH2 5450   0.387   1.423   2.828
 1815TIP3    H1 5451   0.400   1.508   2.787
 1815TIP3    H2 5452   0.292   1.413   2.834
 1816TIP3   OH2 5453   0.599   0.299   1.002
 1816TIP3    H1 5454   0.577   0.216   0.960
 1816TIP3    H2 5455   0.695   0.301   1.004
 1817TIP3   OH2 5456   2.628   1.607   0.803
 1817TIP3    H1 5457   2.715   1.611   0.765
 1817TIP3    H2 5458   2.595   1.696   0.797
 1818TIP3   OH2 5459   0.380   1.437   2.200
 1818TIP3    H1 5460   0.465   1.442   2.155
 1818TIP3    H2 5461   0.351   1.528   2.207
 1819TIP3   OH2 5462   3.524   0.412   3.176
 1819TIP3    H1 5463   3.563   0.452   3.254
 1819TIP3    H2 5464   3.585   0.436   3.105
 1820TIP3   OH2 5465   0.518   3.588   3.319
 1820TIP3    H1 5466   0.606   3.551   3.320
 1820TIP3    H2 5467   0.466   3.528   3.374
 1821TIP3   OH2 5468   4.536   1.664   0.157
 1821TIP3    H1 5469   4.545   1.689   0.065
 1821TIP3    H2 5470   4.621   1.683   0.196
 1822TIP3   OH2 5471   2.794   3.196   1.132
 1822TIP3    H1 5472   2.784   3.289   1.153
 1822TIP3    H2 5473   2.833   3.158   1.210
 1823TIP3   OH2 5474   4.144   4.362   1.136
 1823TIP3    H1 5475   4.106   4.450   1.135
 1823TIP3    H2 5476   4.169   4.346   1.045
 1824TIP3   OH2 5477   4.830   1.012   1.819
 1824TIP3    H1 5478   4.744   0.972   1.829
 1824TIP3    H2 5479   4.889   0.956   1.868
 1825TIP3   OH2 5480   1.797   4.772   3.896
 1825TIP3    H1 5481   1.890   4.750   3.902
 1825TIP3    H2 5482   1.793   4.867   3.908
 1826TIP3   OH2 5483   2.605   1.136   1.829
 1826TIP3    H1 5484   2.517   1.103   1.813
 1826TIP3    H2 5485   2.596   1.231   1.822
 1827TIP3   OH2 5486   4.387   3.105   1.850
 1827TIP3    H1 5487   4.318   3.152   1.897
 1827TIP3    H2 5488   4.362   3.013   1.855
 1828TIP3   OH2 5489   5.070   4.222   3.299
 1828TIP3    H1 5490   5.089   4.190   3.210
 1828TIP3    H2 5491   5.014   4.154   3.337
 1829TIP3   OH2 5492   2.579   3.394   1.692
 1829TIP3    H1 5493   2.586   3.420   1.600
 1829TIP3    H2 5494   2.516   3.322   1.692
 1830TIP3   OH2 5495   3.538   3.087   4.384
 1830TIP3    H1 5496   3.587   3.160   4.346
 1830TIP3    H2 5497   3.562   3.012   4.329
 1831TIP3   OH2 5498   0.580   4.033   3.327
 1831TIP3    H1 5499   0.495   4.013   3.287
 1831TIP3    H2 5500   0.580   4.128   3.337
 1832TIP3   OH2 5501   0.598   5.708   2.838
 1832TIP3    H1 5502   0.628   5.642   2.900
 1832TIP3    H2 5503   0.640   5.789   2.868
 1833TIP3   OH2 5504   4.378   0.443   0.031
 1833TIP3    H1 5505   4.337   0.488  -0.043
 1833TIP3    H2 5506   4.456   0.402  -0.006
 1834TIP3   OH2 5507   2.731   4.945   0.635
 1834TIP3    H1 5508   2.639   4.956   0.662
 1834TIP3    H2 5509   2.781   4.984   0.706
 1835TIP3   OH2 5510   2.863   4.945   1.470
 1835TIP3    H1 5511   2.925   5.018   1.468
 1835TIP3    H2 5512   2.800   4.964   1.401
 1836TIP3   OH2 5513   3.198   3.489   0.635
 1836TIP3    H1 5514   3.219   3.410   0.587
 1836TIP3    H2 5515   3.104   3.483   0.651
 1837TIP3   OH2 5516   2.945   3.175   2.171
 1837TIP3    H1 5517   3.015   3.220   2.217
 1837TIP3    H2 5518   2.934   3.224   2.089
 1838TIP3   OH2 5519   5.867   0.304   3.656
 1838TIP3    H1 5520   5.916   0.238   3.705
 1838TIP3    H2 5521   5.831   0.257   3.581
 1839TIP3   OH2 5522   5.999   0.633   1.920
 1839TIP3    H1 5523   6.020   0.711   1.970
 1839TIP3    H2 5524   6.084   0.595   1.898
 1840TIP3   OH2 5525   6.113   5.473   1.436
 1840TIP3    H1 5526   6.150   5.427   1.360
 1840TIP3    H2 5527   6.182   5.467   1.503
 1841TIP3   OH2 5528   2.223   2.135   1.579
 1841TIP3    H1 5529   2.228   2.219   1.624
 1841TIP3    H2 5530   2.289   2.080   1.622
 1842TIP3   OH2 5531   3.772   4.879   5.124
 1842TIP3    H1 5532   3.769   4.938   5.200
 1842TIP3    H2 5533   3.850   4.825   5.140
 1843TIP3   OH2 5534   2.146   2.778   2.728
 1843TIP3    H1 5535   2.147   2.856   2.671
 1843TIP3    H2 5536   2.107   2.809   2.810
 1844TIP3   OH2 5537   3.846   5.932   4.089
 1844TIP3    H1 5538   3.810   5.849   4.057
 1844TIP3    H2 5539   3.936   5.909   4.115
 1845TIP3   OH2 5540   1.901   0.424   4.529
 1845TIP3    H1 5541   1.813   0.441   4.561
 1845TIP3    H2 5542   1.956   0.486   4.576
 1846TIP3   OH2 5543   4.266   2.199   3.390
 1846TIP3    H1 5544   4.240   2.290   3.373
 1846TIP3    H2 5545   4.359   2.205   3.413
 1847TIP3   OH2 5546   4.605   3.552   4.239
 1847TIP3    H1 5547   4.594   3.479   4.300
 1847TIP3    H2 5548   4.557   3.526   4.160
 1848TIP3   OH2 5549   1.636   3.473   1.337
 1848TIP3    H1 5550   1.666   3.399   1.284
 1848TIP3    H2 5551   1.711   3.533   1.341
 1849TIP3   OH2 5552   4.141   4.623   4.423
 1849TIP3    H1 5553   4.224   4.604   4.379
 1849TIP3    H2 5554   4.165   4.676   4.499
 1850TIP3   OH2 5555   3.958   2.189   1.883
 1850TIP3    H1 5556   4.047   2.218   1.903
 1850TIP3    H2 5557   3.903   2.266   1.898
 1851TIP3   OH2 5558   3.232   5.329   1.775
 1851TIP3    H1 5559   3.310   5.357   1.822
 1851TIP3    H2 5560   3.196   5.410   1.737
 1852TIP3   OH2 5561   4.395   1.468   4.463
 1852TIP3    H1 5562   4.396   1.555   4.503
 1852TIP3    H2 5563   4.379   1.485   4.370
 1853TIP3   OH2 5564   3.884   1.744   2.195
 1853TIP3    H1 5565   3.883   1.776   2.286
 1853TIP3    H2 5566   3.818   1.798   2.151
 1854TIP3   OH2 5567   3.941   4.881   3.686
 1854TIP3    H1 5568   3.998   4.955   3.664
 1854TIP3    H2 5569   3.965   4.859   3.776
 1855TIP3   OH2 5570   4.885   3.153   3.223
 1855TIP3    H1 5571   4.909   3.157   3.131
 1855TIP3    H2 5572   4.967   3.132   3.268
 1856TIP3   OH2 5573   5.066   2.522   4.583
 1856TIP3    H1 5574   5.055   2.475   4.500
 1856TIP3    H2 5575   5.130   2.590   4.563
 1857TIP3   OH2 5576   6.031   3.718   3.641
 1857TIP3    H1 5577   6.125   3.700   3.642
 1857TIP3    H2 5578   5.992   3.645   3.592
 1858TIP3   OH2 5579   3.530   4.975   2.742
 1858TIP3    H1 5580   3.449   5.007   2.782
 1858TIP3    H2 5581   3.589   4.961   2.816
 1859TIP3   OH2 5582   3.281   3.264   2.207
 1859TIP3    H1 5583   3.285   3.190   2.147
 1859TIP3    H2 5584   3.270   3.225   2.293
 1860TIP3   OH2 5585   1.411   1.257   4.727
 1860TIP3    H1 5586   1.404   1.174   4.678
 1860TIP3    H2 5587   1.498   1.291   4.703
 1861TIP3   OH2 5588   5.039   4.882   2.303
 1861TIP3    H1 5589   5.125   4.912   2.332
 1861TIP3    H2 5590   5.024   4.801   2.352
 1862TIP3   OH2 5591   5.245   5.468   2.518
 1862TIP3    H1 5592   5.241   5.560   2.545
 1862TIP3    H2 5593   5.308   5.468   2.446
 1863TIP3   OH2 5594   3.250   3.448   4.955
 1863TIP3    H1 5595   3.318   3.381   4.956
 1863TIP3    H2 5596   3.295   3.528   4.927
 1864TIP3   OH2 5597   3.500   5.967   2.877
 1864TIP3    H1 5598   3.593   5.980   2.892
 1864TIP3    H2 5599   3.469   5.922   2.955
 1865TIP3   OH2 5600   4.155   2.796   3.449
 1865TIP3    H1 5601   4.229   2.798   3.509
 1865TIP3    H2 5602   4.099   2.725   3.482
 1866TIP3   OH2 5603   5.252   0.812   4.545
 1866TIP3    H1 5604   5.290   0.724   4.548
 1866TIP3    H2 5605   5.289   0.856   4.621
 1867TIP3   OH2 5606   1.044   5.020   3.403
 1867TIP3    H1 5607   1.004   4.995   3.319
 1867TIP3    H2 5608   1.134   4.989   3.397
 1868TIP3   OH2 5609   3.114   2.798   2.253
 1868TIP3    H1 5610   3.209   2.783   2.250
 1868TIP3    H2 5611   3.076   2.711   2.258
 1869TIP3   OH2 5612   3.001   3.299   4.932
 1869TIP3    H1 5613   3.089   3.334   4.948
 1869TIP3    H2 5614   2.957   3.368   4.882
 1870TIP3   OH2 5615   0.886   0.990   1.245
 1870TIP3    H1 5616   0.817   0.946   1.294
 1870TIP3    H2 5617   0.965   0.974   1.296
 1871TIP3   OH2 5618   5.289   0.322   3.613
 1871TIP3    H1 5619   5.254   0.234   3.599
 1871TIP3    H2 5620   5.256   0.373   3.539
 1872TIP3   OH2 5621   0.408   2.383   4.665
 1872TIP3    H1 5622   0.338   2.446   4.647
 1872TIP3    H2 5623   0.361   2.304   4.693
 1873TIP3   OH2 5624   1.196   4.320   2.808
 1873TIP3    H1 5625   1.131   4.381   2.842
 1873TIP3    H2 5626   1.249   4.372   2.748
 1874TIP3   OH2 5627   3.071   3.944   0.210
 1874TIP3    H1 5628   2.985   3.903   0.220
 1874TIP3    H2 5629   3.083   3.993   0.292
 1875TIP3   OH2 5630   5.213   2.591   4.196
 1875TIP3    H1 5631   5.168   2.515   4.232
 1875TIP3    H2 5632   5.286   2.608   4.256
 1876TIP3   OH2 5633   2.511   1.346   2.245
 1876TIP3    H1 5634   2.530   1.258   2.214
 1876TIP3    H2 5635   2.577   1.401   2.203
 1877TIP3   OH2 5636   3.961   0.358   0.669
 1877TIP3    H1 5637   3.888   0.420   0.663
 1877TIP3    H2 5638   3.923   0.274   0.644
 1878TIP3   OH2 5639   0.067   1.146   5.046
 1878TIP3    H1 5640   0.143   1.137   4.988
 1878TIP3    H2 5641  -0.008   1.127   4.990
 1879TIP3   OH2 5642   4.157   4.667   3.602
 1879TIP3    H1 5643   4.115   4.581   3.603
 1879TIP3    H2 5644   4.109   4.716   3.535
 1880TIP3   OH2 5645   1.337   1.022   3.873
 1880TIP3    H1 5646   1.249   1.007   3.839
 1880TIP3    H2 5647   1.392   0.958   3.827
 1881TIP3   OH2 5648   1.429   1.878   3.515
 1881TIP3    H1 5649   1.470   1.960   3.545
 1881TIP3    H2 5650   1.339   1.903   3.493
 1882TIP3   OH2 5651   0.057   1.912   2.390
 1882TIP3    H1 5652   0.126   1.876   2.446
 1882TIP3    H2 5653   0.104   1.949   2.315
 1883TIP3   OH2 5654   2.813   0.906   0.528
 1883TIP3    H1 5655   2.739   0.928   0.585
 1883TIP3    H2 5656   2.779   0.913   0.439
 1884TIP3   OH2 5657   1.226   5.949   0.052
 1884TIP3    H1 5658   1.152   5.901   0.014
 1884TIP3    H2 5659   1.200   5.964   0.143
 1885TIP3   OH2 5660   3.478   5.345   2.169
 1885TIP3    H1 5661   3.530   5.414   2.212
 1885TIP3    H2 5662   3.455   5.382   2.084
 1886TIP3   OH2 5663   4.170   5.748   1.610
 1886TIP3    H1 5664   4.152   5.695   1.532
 1886TIP3    H2 5665   4.157   5.838   1.581
 1887TIP3   OH2 5666   4.520   5.526  -0.026
 1887TIP3    H1 5667   4.496   5.435  -0.008
 1887TIP3    H2 5668   4.519   5.533  -0.122
 1888TIP3   OH2 5669   3.876   5.240   2.652
 1888TIP3    H1 5670   3.790   5.279   2.666
 1888TIP3    H2 5671   3.922   5.301   2.594
 1889TIP3   OH2 5672   3.390   1.711   4.370
 1889TIP3    H1 5673   3.339   1.701   4.289
 1889TIP3    H2 5674   3.332   1.678   4.439
 1890TIP3   OH2 5675   0.243   3.270   0.918
 1890TIP3    H1 5676   0.236   3.204   0.849
 1890TIP3    H2 5677   0.308   3.332   0.886
 1891TIP3   OH2 5678   5.882   4.816   1.608
 1891TIP3    H1 5679   5.814   4.878   1.580
 1891TIP3    H2 5680   5.838   4.732   1.612
 1892TIP3   OH2 5681   0.926   5.816   5.146
 1892TIP3    H1 5682   0.912   5.903   5.110
 1892TIP3    H2 5683   0.996   5.827   5.210
 1893TIP3   OH2 5684   4.268   5.910   4.354
 1893TIP3    H1 5685   4.362   5.892   4.346
 1893TIP3    H2 5686   4.263   6.003   4.375
 1894TIP3   OH2 5687   3.459   0.975   3.969
 1894TIP3    H1 5688   3.374   0.930   3.974
 1894TIP3    H2 5689   3.439   1.056   3.922
 1895TIP3   OH2 5690   5.102   4.172   1.241
 1895TIP3    H1 5691   5.111   4.156   1.335
 1895TIP3    H2 5692   5.107   4.084   1.201
 1896TIP3   OH2 5693   4.214   2.469   3.362
 1896TIP3    H1 5694   4.185   2.542   3.416
 1896TIP3    H2 5695   4.208   2.503   3.272
 1897TIP3   OH2 5696   4.656   5.536   2.767
 1897TIP3    H1 5697   4.674   5.462   2.709
 1897TIP3    H2 5698   4.669   5.613   2.712
 1898TIP3   OH2 5699   1.216   3.817   2.011
 1898TIP3    H1 5700   1.259   3.783   1.933
 1898TIP3    H2 5701   1.271   3.788   2.084
 1899TIP3   OH2 5702   5.080   3.332   3.467
 1899TIP3    H1 5703   5.118   3.301   3.549
 1899TIP3    H2 5704   5.080   3.256   3.409
 1900TIP3   OH2 5705   0.917   3.676   1.187
 1900TIP3    H1 5706   0.925   3.588   1.151
 1900TIP3    H2 5707   0.842   3.671   1.246
 1901TIP3   OH2 5708   6.329   3.636   4.759
 1901TIP3    H1 5709   6.386   3.690   4.705
 1901TIP3    H2 5710   6.284   3.579   4.697
 1902TIP3   OH2 5711   3.267   5.941   0.368
 1902TIP3    H1 5712   3.273   5.882   0.293
 1902TIP3    H2 5713   3.213   6.014   0.337
 1903TIP3   OH2 5714   2.084   1.100   4.839
 1903TIP3    H1 5715   2.000   1.124   4.879
 1903TIP3    H2 5716   2.117   1.183   4.804
 1904TIP3   OH2 5717   3.051   0.297   1.281
 1904TIP3    H1 5718   3.120   0.347   1.236
 1904TIP3    H2 5719   3.044   0.216   1.230
 1905TIP3   OH2 5720   2.775   1.178   2.080
 1905TIP3    H1 5721   2.726   1.129   2.145
 1905TIP3    H2 5722   2.732   1.158   1.997
 1906TIP3   OH2 5723   1.822   1.003   4.275
 1906TIP3    H1 5724   1.817   0.993   4.180
 1906TIP3    H2 5725   1.850   0.918   4.307
 1907TIP3   OH2 5726   1.939   1.430   0.313
 1907TIP3    H1 5727   1.866   1.453   0.256
 1907TIP3    H2 5728   2.004   1.498   0.297
 1908TIP3   OH2 5729   5.494   4.298   0.715
 1908TIP3    H1 5730   5.567   4.348   0.679
 1908TIP3    H2 5731   5.491   4.217   0.664
 1909TIP3   OH2 5732   1.590   3.252   2.973
 1909TIP3    H1 5733   1.618   3.231   3.062
 1909TIP3    H2 5734   1.505   3.296   2.985
 1910TIP3   OH2 5735   6.186   0.572   4.423
 1910TIP3    H1 5736   6.104   0.536   4.458
 1910TIP3    H2 5737   6.178   0.564   4.328
 1911TIP3   OH2 5738   5.946   4.423   0.383
 1911TIP3    H1 5739   5.912   4.369   0.454
 1911TIP3    H2 5740   6.015   4.475   0.424
 1912TIP3   OH2 5741   3.416   2.841   0.656
 1912TIP3    H1 5742   3.390   2.838   0.564
 1912TIP3    H2 5743   3.510   2.825   0.656
 1913TIP3   OH2 5744   0.303   3.172   5.012
 1913TIP3    H1 5745   0.253   3.129   5.081
 1913TIP3    H2 5746   0.380   3.207   5.057
 1914TIP3   OH2 5747   0.012   1.937   0.737
 1914TIP3    H1 5748   0.027   1.951   0.830
 1914TIP3    H2 5749   0.040   1.847   0.721
 1915TIP3   OH2 5750   4.053   3.420   5.202
 1915TIP3    H1 5751   4.030   3.335   5.241
 1915TIP3    H2 5752   4.006   3.422   5.119
 1916TIP3   OH2 5753   2.053   3.991   3.013
 1916TIP3    H1 5754   2.135   3.985   2.963
 1916TIP3    H2 5755   2.059   3.920   3.077
 1917TIP3   OH2 5756   1.312   1.525   4.940
 1917TIP3    H1 5757   1.269   1.548   5.022
 1917TIP3    H2 5758   1.349   1.438   4.955
 1918TIP3   OH2 5759   3.868   5.576   0.735
 1918TIP3    H1 5760   3.859   5.603   0.644
 1918TIP3    H2 5761   3.877   5.658   0.784
 1919TIP3   OH2 5762   2.639   1.037   0.701
 1919TIP3    H1 5763   2.660   1.126   0.728
 1919TIP3    H2 5764   2.563   1.047   0.644
 1920TIP3   OH2 5765   4.679   2.852   1.351
 1920TIP3    H1 5766   4.693   2.775   1.296
 1920TIP3    H2 5767   4.586   2.847   1.375
 1921TIP3   OH2 5768   1.680  -0.020   3.846
 1921TIP3    H1 5769   1.673  -0.067   3.764
 1921TIP3    H2 5770   1.684   0.072   3.821
 1922TIP3   OH2 5771   6.170   2.233   3.170
 1922TIP3    H1 5772   6.212   2.315   3.146
 1922TIP3    H2 5773   6.152   2.190   3.087
 1923TIP3   OH2 5774   4.352   1.698   5.008
 1923TIP3    H1 5775   4.433   1.651   5.026
 1923TIP3    H2 5776   4.327   1.735   5.093
 1924TIP3   OH2 5777   0.274   5.857   0.287
 1924TIP3    H1 5778   0.189   5.868   0.330
 1924TIP3    H2 5779   0.254   5.860   0.194
 1925TIP3   OH2 5780   4.136   4.379   3.973
 1925TIP3    H1 5781   4.151   4.342   3.886
 1925TIP3    H2 5782   4.148   4.473   3.961
 1926TIP3   OH2 5783   4.178   3.083   0.803
 1926TIP3    H1 5784   4.103   3.096   0.745
 1926TIP3    H2 5785   4.157   3.134   0.881
 1927TIP3   OH2 5786   2.654   3.051   4.706
 1927TIP3    H1 5787   2.663   2.956   4.713
 1927TIP3    H2 5788   2.736   3.086   4.741
 1928TIP3   OH2 5789   4.661   5.433   1.576
 1928TIP3    H1 5790   4.680   5.352   1.623
 1928TIP3    H2 5791   4.620   5.489   1.642
 1929TIP3   OH2 5792   5.087   1.960   1.393
 1929TIP3    H1 5793   5.112   1.889   1.451
 1929TIP3    H2 5794   5.169   2.007   1.376
 1930TIP3   OH2 5795   2.703   4.249   1.621
 1930TIP3    H1 5796   2.640   4.282   1.685
 1930TIP3    H2 5797   2.674   4.284   1.537
 1931TIP3   OH2 5798   2.825   0.442   1.296
 1931TIP3    H1 5799   2.915   0.415   1.282
 1931TIP3    H2 5800   2.780   0.420   1.215
 1932TIP3   OH2 5801   0.479   3.132   2.196
 1932TIP3    H1 5802   0.538   3.207   2.204
 1932TIP3    H2 5803   0.392   3.170   2.190
 1933TIP3   OH2 5804   5.329   5.065   1.876
 1933TIP3    H1 5805   5.349   5.159   1.877
 1933TIP3    H2 5806   5.250   5.058   1.822
 1934TIP3   OH2 5807   3.151   1.755   3.095
 1934TIP3    H1 5808   3.175   1.845   3.073
 1934TIP3    H2 5809   3.068   1.740   3.050
 1935TIP3   OH2 5810   0.163   2.001   0.128
 1935TIP3    H1 5811   0.069   1.992   0.111
 1935TIP3    H2 5812   0.187   2.083   0.085
 1936TIP3   OH2 5813   2.576   4.271   4.378
 1936TIP3    H1 5814   2.546   4.361   4.365
 1936TIP3    H2 5815   2.587   4.263   4.472
 1937TIP3   OH2 5816   6.173   0.606   3.376
 1937TIP3    H1 5817   6.132   0.520   3.370
 1937TIP3    H2 5818   6.193   0.630   3.286
 1938TIP3   OH2 5819   1.382   2.056   4.672
 1938TIP3    H1 5820   1.298   2.098   4.690
 1938TIP3    H2 5821   1.392   1.990   4.742
 1939TIP3   OH2 5822   0.803   0.677   5.097
 1939TIP3    H1 5823   0.805   0.620   5.174
 1939TIP3    H2 5824   0.711   0.702   5.087
 1940TIP3   OH2 5825   5.143   5.226   3.047
 1940TIP3    H1 5826   5.091   5.210   2.968
 1940TIP3    H2 5827   5.090   5.189   3.118
 1941TIP3   OH2 5828   0.988   1.235   0.208
 1941TIP3    H1 5829   0.908   1.183   0.207
 1941TIP3    H2 5830   0.987   1.281   0.124
 1942TIP3   OH2 5831   4.724   5.395   1.071
 1942TIP3    H1 5832   4.791   5.416   1.137
 1942TIP3    H2 5833   4.737   5.302   1.052
 1943TIP3   OH2 5834   6.016   5.090   1.295
 1943TIP3    H1 5835   5.956   5.151   1.252
 1943TIP3    H2 5836   5.959   5.035   1.349
 1944TIP3   OH2 5837   5.032   0.764   4.727
 1944TIP3    H1 5838   4.994   0.852   4.721
 1944TIP3    H2 5839   5.102   0.764   4.661
 1945TIP3   OH2 5840   2.357   5.647   2.867
 1945TIP3    H1 5841   2.408   5.686   2.796
 1945TIP3    H2 5842   2.418   5.586   2.909
 1946TIP3   OH2 5843   1.842   0.216   3.729
 1946TIP3    H1 5844   1.815   0.283   3.791
 1946TIP3    H2 5845   1.822   0.254   3.643
 1947TIP3   OH2 5846   4.675   5.138   3.207
 1947TIP3    H1 5847   4.710   5.051   3.222
 1947TIP3    H2 5848   4.586   5.135   3.244
 1948TIP3   OH2 5849   2.282   1.670   3.514
 1948TIP3    H1 5850   2.369   1.632   3.508
 1948TIP3    H2 5851   2.276   1.730   3.439
 1949TIP3   OH2 5852   5.934   1.456   4.170
 1949TIP3    H1 5853   6.008   1.436   4.227
 1949TIP3    H2 5854   5.872   1.502   4.227
 1950TIP3   OH2 5855   0.513   4.474   1.209
 1950TIP3    H1 5856   0.560   4.391   1.195
 1950TIP3    H2 5857   0.518   4.488   1.304
 1951TIP3   OH2 5858   2.910   2.659   5.064
 1951TIP3    H1 5859   2.956   2.706   5.133
 1951TIP3    H2 5860   2.865   2.588   5.109
 1952TIP3   OH2 5861   6.048   2.423   5.068
 1952TIP3    H1 5862   5.996   2.424   5.148
 1952TIP3    H2 5863   6.011   2.493   5.014
 1953TIP3   OH2 5864   1.859   1.264  -0.044
 1953TIP3    H1 5865   1.806   1.189  -0.019
 1953TIP3    H2 5866   1.833   1.334   0.016
 1954TIP3   OH2 5867   5.850   3.263   4.950
 1954TIP3    H1 5868   5.848   3.249   4.856
 1954TIP3    H2 5869   5.797   3.192   4.986
 1955TIP3   OH2 5870   2.447   1.705   3.034
 1955TIP3    H1 5871   2.417   1.701   2.943
 1955TIP3    H2 5872   2.493   1.789   3.040
 1956TIP3   OH2 5873   1.596   2.859   4.759
 1956TIP3    H1 5874   1.644   2.785   4.796
 1956TIP3    H2 5875   1.551   2.897   4.834
 1957TIP3   OH2 5876   2.258   2.854   0.436
 1957TIP3    H1 5877   2.326   2.872   0.500
 1957TIP3    H2 5878   2.200   2.930   0.439
 1958TIP3   OH2 5879   6.272   0.920   3.321
 1958TIP3    H1 5880   6.284   0.931   3.227
 1958TIP3    H2 5881   6.323   0.843   3.343
 1959TIP3   OH2 5882   0.462   2.234   4.041
 1959TIP3    H1 5883   0.385   2.224   3.986
 1959TIP3    H2 5884   0.428   2.266   4.125
 1960TIP3   OH2 5885   3.465   3.027   3.432
 1960TIP3    H1 5886   3.452   3.087   3.358
 1960TIP3    H2 5887   3.549   2.986   3.415
 1961TIP3   OH2 5888   0.351   2.253   1.391
 1961TIP3    H1 5889   0.414   2.186   1.363
 1961TIP3    H2 5890   0.405   2.317   1.437
 1962TIP3   OH2 5891   1.957   4.790   4.975
 1962TIP3    H1 5892   1.931   4.880   4.993
 1962TIP3    H2 5893   1.941   4.743   5.056
 1963TIP3   OH2 5894   1.620   0.126   2.956
 1963TIP3    H1 5895   1.642   0.203   2.904
 1963TIP3    H2 5896   1.525   0.126   2.959
 1964TIP3   OH2 5897   2.021   3.281   0.015
 1964TIP3    H1 5898   1.977   3.338   0.078
 1964TIP3    H2 5899   1.960   3.207   0.004
 1965TIP3   OH2 5900   1.352   1.816   4.500
 1965TIP3    H1 5901   1.319   1.768   4.424
 1965TIP3    H2 5902   1.305   1.778   4.574
 1966TIP3   OH2 5903   4.670   3.813   4.084
 1966TIP3    H1 5904   4.598   3.874   4.073
 1966TIP3    H2 5905   4.628   3.731   4.110
 1967TIP3   OH2 5906   2.906   5.802   1.299
 1967TIP3    H1 5907   2.849   5.780   1.226
 1967TIP3    H2 5908   2.990   5.822   1.258
 1968TIP3   OH2 5909   3.077   2.840   4.872
 1968TIP3    H1 5910   3.148   2.776   4.872
 1968TIP3    H2 5911   3.006   2.797   4.824
 1969TIP3   OH2 5912   3.416   4.078   3.220
 1969TIP3    H1 5913   3.369   4.036   3.148
 1969TIP3    H2 5914   3.508   4.058   3.205
 1970TIP3   OH2 5915   6.161   5.154   3.525
 1970TIP3    H1 5916   6.067   5.164   3.515
 1970TIP3    H2 5917   6.199   5.225   3.473
 1971TIP3   OH2 5918   4.043   3.031   3.333
 1971TIP3    H1 5919   3.993   3.086   3.393
 1971TIP3    H2 5920   4.072   2.957   3.386
 1972TIP3   OH2 5921   4.212   3.944   2.801
 1972TIP3    H1 5922   4.230   3.855   2.832
 1972TIP3    H2 5923   4.157   3.932   2.724
 1973TIP3   OH2 5924   4.769   0.016   1.269
 1973TIP3    H1 5925   4.685  -0.003   1.310
 1973TIP3    H2 5926   4.790  -0.063   1.220
 1974TIP3   OH2 5927   3.495   0.854   2.088
 1974TIP3    H1 5928   3.481   0.878   2.179
 1974TIP3    H2 5929   3.442   0.776   2.075
 1975TIP3   OH2 5930   4.934   1.211  -0.026
 1975TIP3    H1 5931   4.849   1.169  -0.038
 1975TIP3    H2 5932   4.963   1.182   0.061
 1976TIP3   OH2 5933   2.453   5.345   0.484
 1976TIP3    H1 5934   2.536   5.371   0.524
 1976TIP3    H2 5935   2.467   5.254   0.457
 1977TIP3   OH2 5936   3.178   3.481   1.091
 1977TIP3    H1 5937   3.086   3.489   1.065
 1977TIP3    H2 5938   3.224   3.468   1.008
 1978TIP3   OH2 5939   5.753   0.965   5.009
 1978TIP3    H1 5940   5.740   1.043   4.956
 1978TIP3    H2 5941   5.842   0.973   5.044
 1979TIP3   OH2 5942   1.676   3.553   2.889
 1979TIP3    H1 5943   1.738   3.560   2.961
 1979TIP3    H2 5944   1.616   3.484   2.915
 1980TIP3   OH2 5945   4.979   5.532   2.439
 1980TIP3    H1 5946   4.933   5.614   2.458
 1980TIP3    H2 5947   5.051   5.531   2.502
 1981TIP3   OH2 5948   3.675   5.773   3.547
 1981TIP3    H1 5949   3.695   5.866   3.558
 1981TIP3    H2 5950   3.744   5.729   3.596
 1982TIP3   OH2 5951   4.194   4.469   0.131
 1982TIP3    H1 5952   4.100   4.475   0.144
 1982TIP3    H2 5953   4.230   4.459   0.219
 1983TIP3   OH2 5954   1.185   4.072   4.089
 1983TIP3    H1 5955   1.097   4.037   4.094
 1983TIP3    H2 5956   1.239   3.999   4.059
 1984TIP3   OH2 5957   6.192   5.170   1.485
 1984TIP3    H1 5958   6.136   5.135   1.415
 1984TIP3    H2 5959   6.275   5.189   1.441
 1985TIP3   OH2 5960   1.956   1.993   0.769
 1985TIP3    H1 5961   1.903   2.055   0.819
 1985TIP3    H2 5962   2.045   2.006   0.801
 1986TIP3   OH2 5963   6.272   0.542   0.952
 1986TIP3    H1 5964   6.305   0.621   0.910
 1986TIP3    H2 5965   6.349   0.504   0.996
 1987TIP3   OH2 5966   0.622   0.443   4.131
 1987TIP3    H1 5967   0.533   0.477   4.140
 1987TIP3    H2 5968   0.623   0.362   4.182
 1988TIP3   OH2 5969   0.226   3.008   1.780
 1988TIP3    H1 5970   0.286   3.077   1.809
 1988TIP3    H2 5971   0.220   2.948   1.854
 1989TIP3   OH2 5972   1.559   3.072   3.939
 1989TIP3    H1 5973   1.504   2.996   3.918
 1989TIP3    H2 5974   1.534   3.138   3.874
 1990TIP3   OH2 5975   4.485   5.365   2.978
 1990TIP3    H1 5976   4.415   5.300   2.979
 1990TIP3    H2 5977   4.532   5.347   2.896
 1991TIP3   OH2 5978   3.881   1.373   5.206
 1991TIP3    H1 5979   3.871   1.408   5.118
 1991TIP3    H2 5980   3.791   1.354   5.235
 1992TIP3   OH2 5981   2.163   2.988   3.978
 1992TIP3    H1 5982   2.217   3.053   4.024
 1992TIP3    H2 5983   2.222   2.914   3.964
 1993TIP3   OH2 5984   5.437   0.614   1.344
 1993TIP3    H1 5985   5.344   0.603   1.363
 1993TIP3    H2 5986   5.480   0.597   1.428
 1994TIP3   OH2 5987   3.472   2.443   2.187
 1994TIP3    H1 5988   3.404   2.397   2.237
 1994TIP3    H2 5989   3.423   2.499   2.127
 1995TIP3   OH2 5990   3.510   5.416   4.920
 1995TIP3    H1 5991   3.593   5.463   4.929
 1995TIP3    H2 5992   3.469   5.454   4.842
 1996TIP3   OH2 5993   5.999   4.657   2.721
 1996TIP3    H1 5994   6.040   4.666   2.807
 1996TIP3    H2 5995   6.051   4.592   2.675
 1997TIP3   OH2 5996   0.395   5.384   4.404
 1997TIP3    H1 5997   0.387   5.353   4.314
 1997TIP3    H2 5998   0.473   5.439   4.404
 1998TIP3   OH2 5999   5.023   1.731   4.685
 1998TIP3    H1 6000   4.988   1.788   4.753
 1998TIP3    H2 6001   5.065   1.659   4.734
 1999TIP3   OH2 6002   4.744   4.605   4.964
 1999TIP3    H1 6003   4.683   4.536   4.992
 1999TIP3    H2 6004   4.819   4.596   5.023
 2000TIP3   OH2 6005   5.335   2.367   4.786
 2000TIP3    H1 6006   5.261   2.306   4.783
 2000TIP3    H2 6007   5.407   2.319   4.745
 2001TIP3   OH2 6008   5.034   5.627   2.815
 2001TIP3    H1 6009   4.973   5.700   2.827
 2001TIP3    H2 6010   5.103   5.663   2.759
 2002TIP3   OH2 6011   5.345   1.570   2.984
 2002TIP3    H1 6012   5.423   1.624   2.994
 2002TIP3    H2 6013   5.294   1.587   3.063
 2003TIP3   OH2 6014   3.144   5.542   1.629
 2003TIP3    H1 6015   3.107   5.630   1.619
 2003TIP3    H2 6016   3.121   5.497   1.547
 2004TIP3   OH2 6017   1.924   5.553   0.592
 2004TIP3    H1 6018   2.018   5.539   0.603
 2004TIP3    H2 6019   1.900   5.610   0.665
 2005TIP3   OH2 6020   1.179   3.873   1.593
 2005TIP3    H1 6021   1.269   3.891   1.565
 2005TIP3    H2 6022   1.134   3.957   1.586
 2006TIP3   OH2 6023   3.625   5.442   1.588
 2006TIP3    H1 6024   3.575   5.518   1.616
 2006TIP3    H2 6025   3.608   5.375   1.655
 2007TIP3   OH2 6026   2.293   0.218   4.742
 2007TIP3    H1 6027   2.219   0.242   4.685
 2007TIP3    H2 6028   2.301   0.291   4.803
 2008TIP3   OH2 6029   2.464   2.843   5.010
 2008TIP3    H1 6030   2.525   2.831   5.082
 2008TIP3    H2 6031   2.461   2.757   4.967
 2009TIP3   OH2 6032   2.440   0.321   3.942
 2009TIP3    H1 6033   2.467   0.337   4.032
 2009TIP3    H2 6034   2.522   0.307   3.894
 2010TIP3   OH2 6035   3.391   1.247   4.856
 2010TIP3    H1 6036   3.411   1.233   4.763
 2010TIP3    H2 6037   3.475   1.236   4.901
 2011TIP3   OH2 6038   0.810   5.646   4.438
 2011TIP3    H1 6039   0.827   5.714   4.503
 2011TIP3    H2 6040   0.865   5.671   4.363
 2012TIP3   OH2 6041   2.260   5.226   4.401
 2012TIP3    H1 6042   2.197   5.158   4.377
 2012TIP3    H2 6043   2.247   5.239   4.495
 2013TIP3   OH2 6044   3.878   4.049   0.572
 2013TIP3    H1 6045   3.920   4.018   0.652
 2013TIP3    H2 6046   3.854   4.140   0.590
 2014TIP3   OH2 6047   4.193   2.236   1.447
 2014TIP3    H1 6048   4.210   2.198   1.533
 2014TIP3    H2 6049   4.193   2.330   1.461
 2015TIP3   OH2 6050   3.697   4.129   2.484
 2015TIP3    H1 6051   3.736   4.192   2.423
 2015TIP3    H2 6052   3.647   4.069   2.428
 2016TIP3   OH2 6053   4.585   0.260   0.467
 2016TIP3    H1 6054   4.574   0.345   0.508
 2016TIP3    H2 6055   4.654   0.218   0.519
 2017TIP3   OH2 6056   1.701  -0.020   3.193
 2017TIP3    H1 6057   1.625  -0.048   3.244
 2017TIP3    H2 6058   1.665   0.009   3.110
 2018TIP3   OH2 6059   0.174   0.043   0.130
 2018TIP3    H1 6060   0.250   0.015   0.181
 2018TIP3    H2 6061   0.132  -0.039   0.105
 2019TIP3   OH2 6062   1.372   1.608   0.507
 2019TIP3    H1 6063   1.286   1.568   0.499
 2019TIP3    H2 6064   1.432   1.542   0.473
 2020TIP3   OH2 6065   3.248   1.848   1.072
 2020TIP3    H1 6066   3.232   1.924   1.016
 2020TIP3    H2 6067   3.337   1.861   1.105
 2021TIP3   OH2 6068   1.011   5.119   5.081
 2021TIP3    H1 6069   1.079   5.136   5.147
 2021TIP3    H2 6070   0.957   5.198   5.082
 2022TIP3   OH2 6071   2.148   5.702   0.089
 2022TIP3    H1 6072   2.173   5.698   0.181
 2022TIP3    H2 6073   2.103   5.619   0.072
 2023TIP3   OH2 6074   2.000   3.150   5.161
 2023TIP3    H1 6075   1.951   3.101   5.095
 2023TIP3    H2 6076   2.083   3.171   5.120
 2024TIP3   OH2 6077   6.121   1.619   4.739
 2024TIP3    H1 6078   6.044   1.656   4.783
 2024TIP3    H2 6079   6.145   1.684   4.674
 2025TIP3   OH2 6080   5.408   1.105   4.654
 2025TIP3    H1 6081   5.457   1.089   4.573
 2025TIP3    H2 6082   5.404   1.201   4.660
 2026TIP3   OH2 6083   4.806   3.434   4.682
 2026TIP3    H1 6084   4.736   3.374   4.708
 2026TIP3    H2 6085   4.763   3.504   4.634
 2027TIP3   OH2 6086   1.954   5.236   0.252
 2027TIP3    H1 6087   1.943   5.177   0.326
 2027TIP3    H2 6088   1.970   5.179   0.177
 2028TIP3   OH2 6089   0.324   4.719   5.074
 2028TIP3    H1 6090   0.376   4.797   5.055
 2028TIP3    H2 6091   0.242   4.733   5.027
 2029TIP3   OH2 6092   3.102   3.263   3.935
 2029TIP3    H1 6093   3.042   3.213   3.878
 2029TIP3    H2 6094   3.044   3.313   3.992
 2030TIP3   OH2 6095   4.333   3.107   0.292
 2030TIP3    H1 6096   4.312   3.082   0.202
 2030TIP3    H2 6097   4.268   3.061   0.345
 2031TIP3   OH2 6098   5.835   3.307   4.690
 2031TIP3    H1 6099   5.783   3.299   4.610
 2031TIP3    H2 6100   5.847   3.401   4.702
 2032TIP3   OH2 6101   2.714   3.423   2.987
 2032TIP3    H1 6102   2.795   3.382   3.018
 2032TIP3    H2 6103   2.728   3.437   2.894
 2033TIP3   OH2 6104   5.220   3.552   3.768
 2033TIP3    H1 6105   5.179   3.638   3.761
 2033TIP3    H2 6106   5.239   3.542   3.861
 2034TIP3   OH2 6107   1.493   5.909   5.029
 2034TIP3    H1 6108   1.479   6.003   5.034
 2034TIP3    H2 6109   1.439   5.873   5.100
 2035TIP3   OH2 6110   5.179   0.073   1.533
 2035TIP3    H1 6111   5.224   0.145   1.578
 2035TIP3    H2 6112   5.139   0.115   1.456
 2036TIP3   OH2 6113   2.520   0.071   0.442
 2036TIP3    H1 6114   2.497  -0.005   0.389
 2036TIP3    H2 6115   2.439   0.123   0.447
 2037TIP3   OH2 6116   0.195   4.387   2.616
 2037TIP3    H1 6117   0.132   4.395   2.544
 2037TIP3    H2 6118   0.141   4.367   2.692
 2038TIP3   OH2 6119   0.167   1.258   2.818
 2038TIP3    H1 6120   0.108   1.239   2.891
 2038TIP3    H2 6121   0.114   1.242   2.740
 2039TIP3   OH2 6122   0.716   0.478   1.765
 2039TIP3    H1 6123   0.657   0.405   1.785
 2039TIP3    H2 6124   0.663   0.536   1.710
 2040TIP3   OH2 6125   5.898   1.881   2.756
 2040TIP3    H1 6126   5.849   1.925   2.826
 2040TIP3    H2 6127   5.836   1.878   2.683
 2041TIP3   OH2 6128   2.880   3.316   3.372
 2041TIP3    H1 6129   2.804   3.258   3.380
 2041TIP3    H2 6130   2.947   3.277   3.427
 2042TIP3   OH2 6131   6.112   4.515   1.655
 2042TIP3    H1 6132   6.096   4.564   1.575
 2042TIP3    H2 6133   6.092   4.576   1.725
 2043TIP3   OH2 6134   3.960   4.214   1.792
 2043TIP3    H1 6135   3.901   4.154   1.837
 2043TIP3    H2 6136   4.027   4.157   1.754
 2044TIP3   OH2 6137   3.654   1.083   2.120
 2044TIP3    H1 6138   3.591   1.011   2.121
 2044TIP3    H2 6139   3.729   1.050   2.168
 2045TIP3   OH2 6140   3.194   5.687   4.011
 2045TIP3    H1 6141   3.212   5.601   3.973
 2045TIP3    H2 6142   3.130   5.669   4.081
 2046TIP3   OH2 6143   2.252   1.448   0.158
 2046TIP3    H1 6144   2.335   1.494   0.151
 2046TIP3    H2 6145   2.200   1.500   0.219
 2047TIP3   OH2 6146   0.513   5.314   3.962
 2047TIP3    H1 6147   0.494   5.407   3.949
 2047TIP3    H2 6148   0.439   5.268   3.922
 2048TIP3   OH2 6149   0.271   3.891   0.744
 2048TIP3    H1 6150   0.223   3.850   0.817
 2048TIP3    H2 6151   0.265   3.827   0.673
 2049TIP3   OH2 6152   6.173   5.595   3.194
 2049TIP3    H1 6153   6.215   5.538   3.130
 2049TIP3    H2 6154   6.206   5.682   3.173
 2050TIP3   OH2 6155   6.052   2.469   2.124
 2050TIP3    H1 6156   6.108   2.480   2.046
 2050TIP3    H2 6157   5.970   2.512   2.101
 2051TIP3   OH2 6158   3.720   5.137   3.819
 2051TIP3    H1 6159   3.700   5.076   3.890
 2051TIP3    H2 6160   3.815   5.150   3.823
 2052TIP3   OH2 6161   1.607   2.473   3.279
 2052TIP3    H1 6162   1.621   2.447   3.188
 2052TIP3    H2 6163   1.579   2.393   3.323
 2053TIP3   OH2 6164   1.554   4.646   2.060
 2053TIP3    H1 6165   1.495   4.655   1.985
 2053TIP3    H2 6166   1.523   4.567   2.105
 2054TIP3   OH2 6167   0.849   1.320   2.269
 2054TIP3    H1 6168   0.768   1.272   2.287
 2054TIP3    H2 6169   0.891   1.329   2.354
 2055TIP3   OH2 6170   3.048   1.406   1.011
 2055TIP3    H1 6171   3.049   1.348   0.935
 2055TIP3    H2 6172   3.060   1.493   0.975
 2056TIP3   OH2 6173   0.920   4.541   3.514
 2056TIP3    H1 6174   0.999   4.593   3.526
 2056TIP3    H2 6175   0.851   4.606   3.496
 2057TIP3   OH2 6176   4.148   0.480   4.461
 2057TIP3    H1 6177   4.152   0.516   4.372
 2057TIP3    H2 6178   4.063   0.507   4.494
 2058TIP3   OH2 6179   5.710   2.950   2.893
 2058TIP3    H1 6180   5.694   3.043   2.873
 2058TIP3    H2 6181   5.641   2.928   2.956
 2059TIP3   OH2 6182   2.081   2.559   1.475
 2059TIP3    H1 6183   2.068   2.562   1.569
 2059TIP3    H2 6184   2.077   2.466   1.453
 2060TIP3   OH2 6185   2.335   2.003   4.036
 2060TIP3    H1 6186   2.355   1.925   4.087
 2060TIP3    H2 6187   2.416   2.024   3.991
 2061TIP3   OH2 6188   1.800   2.644   4.257
 2061TIP3    H1 6189   1.791   2.683   4.344
 2061TIP3    H2 6190   1.713   2.608   4.239
 2062TIP3   OH2 6191   3.442   5.810   3.097
 2062TIP3    H1 6192   3.527   5.767   3.108
 2062TIP3    H2 6193   3.381   5.739   3.081
 2063TIP3   OH2 6194   1.909   1.995   3.747
 2063TIP3    H1 6195   1.983   1.941   3.775
 2063TIP3    H2 6196   1.884   2.045   3.824
 2064TIP3   OH2 6197   1.746   5.447   3.389
 2064TIP3    H1 6198   1.664   5.434   3.342
 2064TIP3    H2 6199   1.805   5.486   3.324
 2065TIP3   OH2 6200   1.904   1.757   0.915
 2065TIP3    H1 6201   1.890   1.669   0.880
 2065TIP3    H2 6202   1.941   1.806   0.842
 2066TIP3   OH2 6203   3.712   2.205   0.810
 2066TIP3    H1 6204   3.659   2.233   0.885
 2066TIP3    H2 6205   3.726   2.286   0.760
 2067TIP3   OH2 6206   3.490   1.903   1.840
 2067TIP3    H1 6207   3.460   1.962   1.909
 2067TIP3    H2 6208   3.584   1.920   1.832
 2068TIP3   OH2 6209   5.188   4.092   0.489
 2068TIP3    H1 6210   5.167   4.041   0.568
 2068TIP3    H2 6211   5.240   4.033   0.436
 2069TIP3   OH2 6212   3.575   1.635   3.119
 2069TIP3    H1 6213   3.614   1.687   3.049
 2069TIP3    H2 6214   3.644   1.573   3.144
 2070TIP3   OH2 6215   1.169   0.123   0.367
 2070TIP3    H1 6216   1.172   0.072   0.448
 2070TIP3    H2 6217   1.223   0.200   0.386
 2071TIP3   OH2 6218   5.874   2.450   3.836
 2071TIP3    H1 6219   5.786   2.414   3.846
 2071TIP3    H2 6220   5.904   2.416   3.751
 2072TIP3   OH2 6221   1.060   5.789   2.743
 2072TIP3    H1 6222   1.124   5.809   2.675
 2072TIP3    H2 6223   1.014   5.712   2.710
 2073TIP3   OH2 6224   2.581   3.010   0.848
 2073TIP3    H1 6225   2.592   2.973   0.935
 2073TIP3    H2 6226   2.636   3.089   0.849
 2074TIP3   OH2 6227   3.875   1.001   0.316
 2074TIP3    H1 6228   3.954   1.036   0.356
 2074TIP3    H2 6229   3.839   1.075   0.266
 2075TIP3   OH2 6230   2.525   1.481   4.830
 2075TIP3    H1 6231   2.492   1.506   4.743
 2075TIP3    H2 6232   2.515   1.386   4.833
 2076TIP3   OH2 6233   1.786   5.918   4.440
 2076TIP3    H1 6234   1.825   5.936   4.526
 2076TIP3    H2 6235   1.849   5.955   4.377
 2077TIP3   OH2 6236   2.639   2.202   2.076
 2077TIP3    H1 6237   2.631   2.228   1.984
 2077TIP3    H2 6238   2.560   2.234   2.117
 2078TIP3   OH2 6239   5.140   1.614   0.223
 2078TIP3    H1 6240   5.161   1.659   0.141
 2078TIP3    H2 6241   5.114   1.684   0.283
 2079TIP3   OH2 6242   2.538   0.015   0.708
 2079TIP3    H1 6243   2.625   0.043   0.739
 2079TIP3    H2 6244   2.534   0.044   0.618
 2080TIP3   OH2 6245   1.373   3.174   0.784
 2080TIP3    H1 6246   1.350   3.112   0.853
 2080TIP3    H2 6247   1.290   3.192   0.740
 2081TIP3   OH2 6248   2.761   2.573   0.031
 2081TIP3    H1 6249   2.731   2.561  -0.059
 2081TIP3    H2 6250   2.684   2.605   0.078
 2082TIP3   OH2 6251   2.524   5.595   1.346
 2082TIP3    H1 6252   2.512   5.556   1.433
 2082TIP3    H2 6253   2.592   5.662   1.359
 2083TIP3   OH2 6254   0.857   5.232   3.361
 2083TIP3    H1 6255   0.890   5.143   3.371
 2083TIP3    H2 6256   0.825   5.256   3.448
 2084TIP3   OH2 6257   3.467   1.191   0.270
 2084TIP3    H1 6258   3.533   1.215   0.335
 2084TIP3    H2 6259   3.429   1.274   0.242
 2085TIP3   OH2 6260   5.055   1.821   2.219
 2085TIP3    H1 6261   4.995   1.814   2.294
 2085TIP3    H2 6262   5.120   1.752   2.234
 2086TIP3   OH2 6263   2.687   2.270   0.781
 2086TIP3    H1 6264   2.622   2.230   0.722
 2086TIP3    H2 6265   2.763   2.287   0.724
 2087TIP3   OH2 6266   2.135   4.516   2.903
 2087TIP3    H1 6267   2.208   4.499   2.962
 2087TIP3    H2 6268   2.153   4.461   2.827
 2088TIP3   OH2 6269   6.278   1.144   0.819
 2088TIP3    H1 6270   6.238   1.222   0.856
 2088TIP3    H2 6271   6.212   1.076   0.828
 2089TIP3   OH2 6272   0.535   3.739   2.292
 2089TIP3    H1 6273   0.531   3.776   2.380
 2089TIP3    H2 6274   0.556   3.814   2.236
 2090TIP3   OH2 6275   0.129   2.842   2.547
 2090TIP3    H1 6276   0.035   2.825   2.552
 2090TIP3    H2 6277   0.153   2.866   2.636
 2091TIP3   OH2 6278   2.555   3.378   3.367
 2091TIP3    H1 6279   2.605   3.321   3.426
 2091TIP3    H2 6280   2.548   3.329   3.286
 2092TIP3   OH2 6281   3.412   0.136   2.372
 2092TIP3    H1 6282   3.408   0.105   2.462
 2092TIP3    H2 6283   3.469   0.213   2.375
 2093TIP3   OH2 6284   2.419   0.134   2.836
 2093TIP3    H1 6285   2.477   0.211   2.839
 2093TIP3    H2 6286   2.479   0.059   2.834
 2094TIP3   OH2 6287   6.284   3.047   0.215
 2094TIP3    H1 6288   6.265   2.965   0.260
 2094TIP3    H2 6289   6.343   3.094   0.273
 2095TIP3   OH2 6290   1.170   3.740   0.599
 2095TIP3    H1 6291   1.180   3.683   0.523
 2095TIP3    H2 6292   1.257   3.779   0.612
 2096TIP3   OH2 6293   1.537   5.583   2.643
 2096TIP3    H1 6294   1.450   5.551   2.666
 2096TIP3    H2 6295   1.570   5.520   2.579
 2097TIP3   OH2 6296   2.906   0.259   3.508
 2097TIP3    H1 6297   2.880   0.213   3.587
 2097TIP3    H2 6298   2.950   0.193   3.454
 2098TIP3   OH2 6299   3.468   1.994   3.192
 2098TIP3    H1 6300   3.442   1.927   3.254
 2098TIP3    H2 6301   3.396   2.000   3.129
 2099TIP3   OH2 6302   4.136   5.878   0.199
 2099TIP3    H1 6303   4.203   5.829   0.151
 2099TIP3    H2 6304   4.110   5.948   0.140
 2100TIP3   OH2 6305   3.368   4.235   2.460
 2100TIP3    H1 6306   3.398   4.221   2.370
 2100TIP3    H2 6307   3.321   4.318   2.457
 2101TIP3   OH2 6308   3.479   0.716   0.371
 2101TIP3    H1 6309   3.402   0.662   0.389
 2101TIP3    H2 6310   3.449   0.781   0.307
 2102TIP3   OH2 6311   1.245   5.724   2.245
 2102TIP3    H1 6312   1.270   5.809   2.207
 2102TIP3    H2 6313   1.262   5.661   2.175
 2103TIP3   OH2 6314   5.002   4.324   4.961
 2103TIP3    H1 6315   4.994   4.389   5.031
 2103TIP3    H2 6316   5.036   4.246   5.004
 2104TIP3   OH2 6317   3.835   3.934   3.221
 2104TIP3    H1 6318   3.777   4.004   3.190
 2104TIP3    H2 6319   3.782   3.886   3.285
 2105TIP3   OH2 6320   4.399   2.041   1.240
 2105TIP3    H1 6321   4.364   1.994   1.164
 2105TIP3    H2 6322   4.339   2.115   1.251
 2106TIP3   OH2 6323   2.159   1.500   2.552
 2106TIP3    H1 6324   2.145   1.492   2.646
 2106TIP3    H2 6325   2.227   1.436   2.533
 2107TIP3   OH2 6326   3.574   3.443   1.144
 2107TIP3    H1 6327   3.533   3.445   1.058
 2107TIP3    H2 6328   3.508   3.482   1.202
 2108TIP3   OH2 6329   2.832   1.797   2.621
 2108TIP3    H1 6330   2.820   1.704   2.641
 2108TIP3    H2 6331   2.743   1.833   2.624
 2109TIP3   OH2 6332   2.854   1.452   4.117
 2109TIP3    H1 6333   2.947   1.450   4.139
 2109TIP3    H2 6334   2.850   1.436   4.023
 2110TIP3   OH2 6335   0.328   0.811   1.026
 2110TIP3    H1 6336   0.359   0.728   0.991
 2110TIP3    H2 6337   0.254   0.835   0.970
 2111TIP3   OH2 6338   3.020   3.676   4.657
 2111TIP3    H1 6339   3.057   3.747   4.709
 2111TIP3    H2 6340   3.089   3.610   4.654
 2112TIP3   OH2 6341   4.636   4.439   3.700
 2112TIP3    H1 6342   4.647   4.531   3.676
 2112TIP3    H2 6343   4.599   4.442   3.788
 2113TIP3   OH2 6344   2.319   1.970   2.613
 2113TIP3    H1 6345   2.281   2.041   2.561
 2113TIP3    H2 6346   2.287   1.890   2.572
 2114TIP3   OH2 6347   3.448   4.998   1.682
 2114TIP3    H1 6348   3.488   5.075   1.723
 2114TIP3    H2 6349   3.442   4.934   1.753
 2115TIP3   OH2 6350   5.982   0.698   4.688
 2115TIP3    H1 6351   6.016   0.641   4.758
 2115TIP3    H2 6352   5.987   0.786   4.725
 2116TIP3   OH2 6353   1.028   4.279   2.195
 2116TIP3    H1 6354   0.948   4.306   2.151
 2116TIP3    H2 6355   1.069   4.218   2.134
 2117TIP3   OH2 6356   1.434   4.364   2.266
 2117TIP3    H1 6357   1.491   4.366   2.343
 2117TIP3    H2 6358   1.426   4.271   2.245
 2118TIP3   OH2 6359   1.932   4.452   5.102
 2118TIP3    H1 6360   1.857   4.393   5.105
 2118TIP3    H2 6361   1.908   4.523   5.162
 2119TIP3   OH2 6362   4.621   5.662   2.035
 2119TIP3    H1 6363   4.529   5.644   2.055
 2119TIP3    H2 6364   4.668   5.588   2.074
 2120TIP3   OH2 6365   0.840   0.087   5.139
 2120TIP3    H1 6366   0.852   0.056   5.049
 2120TIP3    H2 6367   0.887   0.170   5.142
 2121TIP3   OH2 6368   2.079   4.782   1.064
 2121TIP3    H1 6369   2.070   4.738   1.148
 2121TIP3    H2 6370   1.989   4.793   1.033
 2122TIP3   OH2 6371   2.656   1.773   2.307
 2122TIP3    H1 6372   2.655   1.858   2.351
 2122TIP3    H2 6373   2.565   1.755   2.286
 2123TIP3   OH2 6374   5.217   4.211   3.027
 2123TIP3    H1 6375   5.174   4.143   2.976
 2123TIP3    H2 6376   5.293   4.236   2.975
 2124TIP3   OH2 6377   4.011   0.596   2.534
 2124TIP3    H1 6378   3.942   0.571   2.473
 2124TIP3    H2 6379   4.092   0.583   2.486
 2125TIP3   OH2 6380   1.093   5.981   0.294
 2125TIP3    H1 6381   1.099   5.936   0.377
 2125TIP3    H2 6382   0.999   5.980   0.272
 2126TIP3   OH2 6383   2.180   3.096   2.686
 2126TIP3    H1 6384   2.225   3.066   2.608
 2126TIP3    H2 6385   2.155   3.186   2.666
 2127TIP3   OH2 6386   2.313   0.329   1.583
 2127TIP3    H1 6387   2.384   0.376   1.539
 2127TIP3    H2 6388   2.266   0.285   1.512
 2128TIP3   OH2 6389   4.415   0.617   1.459
 2128TIP3    H1 6390   4.348   0.642   1.523
 2128TIP3    H2 6391   4.425   0.523   1.471
 2129TIP3   OH2 6392   2.978   5.933   2.915
 2129TIP3    H1 6393   2.992   5.899   3.004
 2129TIP3    H2 6394   3.066   5.953   2.883
 2130TIP3   OH2 6395   1.422   0.622   1.667
 2130TIP3    H1 6396   1.410   0.714   1.692
 2130TIP3    H2 6397   1.460   0.581   1.745
 2131TIP3   OH2 6398   2.095   4.402   0.089
 2131TIP3    H1 6399   2.025   4.468   0.089
 2131TIP3    H2 6400   2.174   4.450   0.066
 2132TIP3   OH2 6401   0.470   1.798   4.971
 2132TIP3    H1 6402   0.472   1.756   4.885
 2132TIP3    H2 6403   0.548   1.765   5.016
 2133TIP3   OH2 6404   3.239   5.151   0.628
 2133TIP3    H1 6405   3.329   5.159   0.598
 2133TIP3    H2 6406   3.245   5.165   0.723
 2134TIP3   OH2 6407   4.968   2.508   3.615
 2134TIP3    H1 6408   4.923   2.438   3.568
 2134TIP3    H2 6409   4.941   2.588   3.569
 2135TIP3   OH2 6410   0.813   5.928   4.176
 2135TIP3    H1 6411   0.722   5.931   4.207
 2135TIP3    H2 6412   0.843   6.019   4.183
 2136TIP3   OH2 6413   4.157   4.894   2.197
 2136TIP3    H1 6414   4.089   4.827   2.192
 2136TIP3    H2 6415   4.159   4.933   2.110
 2137TIP3   OH2 6416   0.243   0.063   2.958
 2137TIP3    H1 6417   0.168   0.106   3.001
 2137TIP3    H2 6418   0.243  -0.025   2.994
 2138TIP3   OH2 6419   4.481   0.875   0.354
 2138TIP3    H1 6420   4.474   0.854   0.447
 2138TIP3    H2 6421   4.419   0.817   0.311
 2139TIP3   OH2 6422   1.245   4.599   4.556
 2139TIP3    H1 6423   1.190   4.677   4.566
 2139TIP3    H2 6424   1.331   4.634   4.531
 2140TIP3   OH2 6425   5.338   2.912   2.766
 2140TIP3    H1 6426   5.316   2.835   2.818
 2140TIP3    H2 6427   5.273   2.913   2.696
 2141TIP3   OH2 6428   2.007   2.833   4.558
 2141TIP3    H1 6429   1.919   2.855   4.527
 2141TIP3    H2 6430   2.062   2.842   4.480
 2142TIP3   OH2 6431   1.189   1.927   0.511
 2142TIP3    H1 6432   1.107   1.977   0.514
 2142TIP3    H2 6433   1.238   1.957   0.587
 2143TIP3   OH2 6434   1.817   2.577   1.671
 2143TIP3    H1 6435   1.896   2.578   1.725
 2143TIP3    H2 6436   1.775   2.662   1.687
 2144TIP3   OH2 6437   3.146   4.789   3.491
 2144TIP3    H1 6438   3.126   4.808   3.583
 2144TIP3    H2 6439   3.203   4.861   3.464
 2145TIP3   OH2 6440   5.857   1.047   1.464
 2145TIP3    H1 6441   5.888   1.138   1.460
 2145TIP3    H2 6442   5.777   1.047   1.411
 2146TIP3   OH2 6443   2.475   0.613   2.932
 2146TIP3    H1 6444   2.485   0.633   3.025
 2146TIP3    H2 6445   2.381   0.597   2.921
 2147TIP3   OH2 6446   3.839   5.206   1.035
 2147TIP3    H1 6447   3.864   5.115   1.017
 2147TIP3    H2 6448   3.903   5.258   0.985
 2148TIP3   OH2 6449   6.334   4.251   4.127
 2148TIP3    H1 6450   6.261   4.214   4.077
 2148TIP3    H2 6451   6.364   4.325   4.075
 2149TIP3   OH2 6452   4.554   0.952   3.800
 2149TIP3    H1 6453   4.507   1.035   3.790
 2149TIP3    H2 6454   4.570   0.923   3.710
 2150TIP3   OH2 6455   1.540   0.717   3.952
 2150TIP3    H1 6456   1.512   0.791   4.006
 2150TIP3    H2 6457   1.539   0.751   3.863
 2151TIP3   OH2 6458   3.437   3.841   4.052
 2151TIP3    H1 6459   3.347   3.829   4.023
 2151TIP3    H2 6460   3.437   3.814   4.144
 2152TIP3   OH2 6461   3.916   0.326   2.432
 2152TIP3    H1 6462   3.991   0.328   2.492
 2152TIP3    H2 6463   3.941   0.386   2.361
 2153TIP3   OH2 6464   4.337   3.754   1.619
 2153TIP3    H1 6465   4.392   3.688   1.578
 2153TIP3    H2 6466   4.318   3.816   1.548
 2154TIP3   OH2 6467   3.695   4.736   3.910
 2154TIP3    H1 6468   3.691   4.644   3.934
 2154TIP3    H2 6469   3.788   4.757   3.909
 2155TIP3   OH2 6470   3.953   5.943   0.683
 2155TIP3    H1 6471   4.010   5.963   0.609
 2155TIP3    H2 6472   3.870   5.986   0.663
 2156TIP3   OH2 6473   2.680   2.336   1.831
 2156TIP3    H1 6474   2.718   2.418   1.801
 2156TIP3    H2 6475   2.696   2.274   1.760
 2157TIP3   OH2 6476   3.816   0.070   4.004
 2157TIP3    H1 6477   3.797  -0.023   4.015
 2157TIP3    H2 6478   3.748   0.114   4.056
 2158TIP3   OH2 6479   4.915   2.435   1.345
 2158TIP3    H1 6480   4.934   2.347   1.377
 2158TIP3    H2 6481   4.966   2.493   1.402
 2159TIP3   OH2 6482   0.049   0.106   1.040
 2159TIP3    H1 6483  -0.043   0.087   1.060
 2159TIP3    H2 6484   0.061   0.074   0.951
 2160TIP3   OH2 6485   1.017   3.387   0.188
 2160TIP3    H1 6486   0.973   3.440   0.255
 2160TIP3    H2 6487   1.041   3.306   0.234
 2161TIP3   OH2 6488   1.362   2.884   3.836
 2161TIP3    H1 6489   1.413   2.883   3.755
 2161TIP3    H2 6490   1.364   2.794   3.867
 2162TIP3   OH2 6491   3.709   1.292   1.900
 2162TIP3    H1 6492   3.694   1.220   1.961
 2162TIP3    H2 6493   3.797   1.324   1.922
 2163TIP3   OH2 6494   5.261   4.921   4.408
 2163TIP3    H1 6495   5.349   4.928   4.444
 2163TIP3    H2 6496   5.264   4.845   4.350
 2164TIP3   OH2 6497   0.484   2.927   2.395
 2164TIP3    H1 6498   0.470   2.987   2.468
 2164TIP3    H2 6499   0.497   2.985   2.319
 2165TIP3   OH2 6500   3.963   3.853   0.782
 2165TIP3    H1 6501   3.980   3.773   0.731
 2165TIP3    H2 6502   3.886   3.832   0.834
 2166TIP3   OH2 6503   2.749   4.940   1.756
 2166TIP3    H1 6504   2.761   4.950   1.662
 2166TIP3    H2 6505   2.836   4.916   1.789
 2167TIP3   OH2 6506   5.984   4.939   0.398
 2167TIP3    H1 6507   5.903   4.990   0.396
 2167TIP3    H2 6508   5.962   4.857   0.356
 2168TIP3   OH2 6509   0.553   4.729   0.377
 2168TIP3    H1 6510   0.626   4.694   0.326
 2168TIP3    H2 6511   0.554   4.679   0.459
 2169TIP3   OH2 6512   2.522   2.212   2.960
 2169TIP3    H1 6513   2.499   2.299   2.929
 2169TIP3    H2 6514   2.599   2.225   3.017
 2170TIP3   OH2 6515   0.246   3.159   2.446
 2170TIP3    H1 6516   0.192   3.142   2.369
 2170TIP3    H2 6517   0.189   3.139   2.521
 2171TIP3   OH2 6518   5.116   3.229   0.106
 2171TIP3    H1 6519   5.191   3.284   0.083
 2171TIP3    H2 6520   5.155   3.153   0.150
 2172TIP3   OH2 6521   4.387   5.282   0.141
 2172TIP3    H1 6522   4.320   5.334   0.185
 2172TIP3    H2 6523   4.456   5.270   0.206
 2173TIP3   OH2 6524   6.200   3.146   2.679
 2173TIP3    H1 6525   6.194   3.057   2.712
 2173TIP3    H2 6526   6.129   3.193   2.722
 2174TIP3   OH2 6527   5.421   4.052   0.241
 2174TIP3    H1 6528   5.341   4.000   0.227
 2174TIP3    H2 6529   5.483   4.018   0.176
 2175TIP3   OH2 6530   5.959   5.905   0.118
 2175TIP3    H1 6531   5.973   5.857   0.035
 2175TIP3    H2 6532   6.023   5.976   0.115
 2176TIP3   OH2 6533   1.098   5.311   2.109
 2176TIP3    H1 6534   1.183   5.351   2.126
 2176TIP3    H2 6535   1.082   5.329   2.016
 2177TIP3   OH2 6536   5.546   0.553   3.445
 2177TIP3    H1 6537   5.533   0.508   3.529
 2177TIP3    H2 6538   5.586   0.487   3.389
 2178TIP3   OH2 6539   1.965   0.850   3.785
 2178TIP3    H1 6540   2.043   0.849   3.729
 2178TIP3    H2 6541   1.955   0.759   3.814
 2179TIP3   OH2 6542   5.053   1.005   2.827
 2179TIP3    H1 6543   5.134   0.984   2.781
 2179TIP3    H2 6544   5.081   1.053   2.905
 2180TIP3   OH2 6545   5.992   0.760   0.060
 2180TIP3    H1 6546   6.043   0.804   0.128
 2180TIP3    H2 6547   5.902   0.762   0.094
 2181TIP3   OH2 6548   4.700   3.998   4.439
 2181TIP3    H1 6549   4.647   3.920   4.426
 2181TIP3    H2 6550   4.706   4.008   4.534
 2182TIP3   OH2 6551   4.817   1.176   4.511
 2182TIP3    H1 6552   4.758   1.243   4.547
 2182TIP3    H2 6553   4.804   1.181   4.416
 2183TIP3   OH2 6554   5.708   2.426   5.006
 2183TIP3    H1 6555   5.777   2.421   5.073
 2183TIP3    H2 6556   5.702   2.337   4.972
 2184TIP3   OH2 6557   3.977   4.688   2.128
 2184TIP3    H1 6558   3.900   4.664   2.076
 2184TIP3    H2 6559   3.979   4.624   2.199
 2185TIP3   OH2 6560   4.758   5.695   1.245
 2185TIP3    H1 6561   4.777   5.621   1.303
 2185TIP3    H2 6562   4.839   5.710   1.197
 2186TIP3   OH2 6563   5.549   1.514   2.620
 2186TIP3    H1 6564   5.472   1.505   2.676
 2186TIP3    H2 6565   5.513   1.516   2.531
 2187TIP3   OH2 6566   2.559   4.564   4.012
 2187TIP3    H1 6567   2.620   4.508   4.060
 2187TIP3    H2 6568   2.509   4.503   3.957
 2188TIP3   OH2 6569   0.983   5.307   0.011
 2188TIP3    H1 6570   1.035   5.379   0.047
 2188TIP3    H2 6571   0.896   5.345  -0.003
 2189TIP3   OH2 6572   1.439   1.606   1.985
 2189TIP3    H1 6573   1.449   1.561   1.901
 2189TIP3    H2 6574   1.523   1.590   2.030
 2190TIP3   OH2 6575   4.954   3.591   3.531
 2190TIP3    H1 6576   5.027   3.530   3.528
 2190TIP3    H2 6577   4.989   3.669   3.575
 2191TIP3   OH2 6578   3.197   2.672   4.582
 2191TIP3    H1 6579   3.240   2.750   4.547
 2191TIP3    H2 6580   3.244   2.652   4.663
 2192TIP3   OH2 6581   2.063   1.273   1.876
 2192TIP3    H1 6582   2.118   1.307   1.947
 2192TIP3    H2 6583   1.978   1.313   1.891
 2193TIP3   OH2 6584   3.741   5.908   0.426
 2193TIP3    H1 6585   3.723   5.982   0.484
 2193TIP3    H2 6586   3.793   5.944   0.355
 2194TIP3   OH2 6587   6.212   4.477   3.699
 2194TIP3    H1 6588   6.219   4.533   3.622
 2194TIP3    H2 6589   6.298   4.435   3.706
 2195TIP3   OH2 6590   0.626   0.219   0.180
 2195TIP3    H1 6591   0.688   0.212   0.107
 2195TIP3    H2 6592   0.680   0.203   0.258
 2196TIP3   OH2 6593   5.019   0.146   1.327
 2196TIP3    H1 6594   4.980   0.229   1.357
 2196TIP3    H2 6595   4.944   0.087   1.316
 2197TIP3   OH2 6596   3.966   3.965   4.628
 2197TIP3    H1 6597   3.954   4.018   4.707
 2197TIP3    H2 6598   4.061   3.958   4.618
 2198TIP3   OH2 6599   0.149   0.364   0.548
 2198TIP3    H1 6600   0.151   0.296   0.481
 2198TIP3    H2 6601   0.057   0.393   0.551
 2199TIP3   OH2 6602   4.936   1.542   3.298
 2199TIP3    H1 6603   4.926   1.457   3.256
 2199TIP3    H2 6604   4.943   1.604   3.226
 2200TIP3   OH2 6605   5.192   5.336   4.036
 2200TIP3    H1 6606   5.237   5.301   3.958
 2200TIP3    H2 6607   5.135   5.265   4.064
 2201TIP3   OH2 6608   2.631   3.737   2.835
 2201TIP3    H1 6609   2.641   3.700   2.748
 2201TIP3    H2 6610   2.538   3.725   2.856
 2202TIP3   OH2 6611   4.016   3.290   4.519
 2202TIP3    H1 6612   4.106   3.300   4.487
 2202TIP3    H2 6613   4.015   3.338   4.602
 2203TIP3   OH2 6614   1.152   3.414   2.323
 2203TIP3    H1 6615   1.059   3.407   2.346
 2203TIP3    H2 6616   1.185   3.325   2.330
 2204TIP3   OH2 6617   4.892   0.728   0.051
 2204TIP3    H1 6618   4.835   0.746   0.126
 2204TIP3    H2 6619   4.972   0.778   0.069
 2205TIP3   OH2 6620   1.682   4.766   2.909
 2205TIP3    H1 6621   1.657   4.841   2.964
 2205TIP3    H2 6622   1.734   4.710   2.967
 2206TIP3   OH2 6623   1.504   4.266   4.300
 2206TIP3    H1 6624   1.423   4.264   4.249
 2206TIP3    H2 6625   1.507   4.354   4.338
 2207TIP3   OH2 6626   4.852   0.651   1.164
 2207TIP3    H1 6627   4.845   0.745   1.154
 2207TIP3    H2 6628   4.903   0.621   1.089
 2208TIP3   OH2 6629   5.875   5.104   4.753
 2208TIP3    H1 6630   5.808   5.113   4.685
 2208TIP3    H2 6631   5.943   5.167   4.728
 2209TIP3   OH2 6632   2.450   5.570   2.054
 2209TIP3    H1 6633   2.427   5.487   2.013
 2209TIP3    H2 6634   2.366   5.609   2.078
 2210TIP3   OH2 6635   2.392   3.755   1.430
 2210TIP3    H1 6636   2.382   3.849   1.448
 2210TIP3    H2 6637   2.468   3.730   1.483
 2211TIP3   OH2 6638   3.379   2.453   1.076
 2211TIP3    H1 6639   3.293   2.435   1.113
 2211TIP3    H2 6640   3.366   2.450   0.982
 2212TIP3   OH2 6641   4.141   5.482   4.341
 2212TIP3    H1 6642   4.145   5.545   4.269
 2212TIP3    H2 6643   4.050   5.486   4.371
 2213TIP3   OH2 6644   0.624   4.736   0.993
 2213TIP3    H1 6645   0.690   4.725   0.925
 2213TIP3    H2 6646   0.569   4.808   0.964
 2214TIP3   OH2 6647   2.957   2.685   3.296
 2214TIP3    H1 6648   3.009   2.682   3.376
 2214TIP3    H2 6649   2.871   2.715   3.325
 2215TIP3   OH2 6650   0.085   1.576   1.140
 2215TIP3    H1 6651   0.161   1.529   1.173
 2215TIP3    H2 6652   0.087   1.562   1.045
 2216TIP3   OH2 6653   4.102   4.971   1.919
 2216TIP3    H1 6654   4.103   5.065   1.899
 2216TIP3    H2 6655   4.009   4.950   1.929
 2217TIP3   OH2 6656   3.414   3.462   2.556
 2217TIP3    H1 6657   3.340   3.494   2.505
 2217TIP3    H2 6658   3.382   3.459   2.646
 2218TIP3   OH2 6659   0.430   5.690   4.136
 2218TIP3    H1 6660   0.354   5.737   4.171
 2218TIP3    H2 6661   0.492   5.688   4.209
 2219TIP3   OH2 6662   2.472   2.755   0.884
 2219TIP3    H1 6663   2.522   2.821   0.835
 2219TIP3    H2 6664   2.524   2.675   0.875
 2220TIP3   OH2 6665   5.298   5.835   0.360
 2220TIP3    H1 6666   5.215   5.881   0.371
 2220TIP3    H2 6667   5.355   5.870   0.429
 2221TIP3   OH2 6668   2.604   2.955   2.428
 2221TIP3    H1 6669   2.534   2.913   2.378
 2221TIP3    H2 6670   2.651   3.008   2.364
 2222TIP3   OH2 6671   1.629   2.660   2.090
 2222TIP3    H1 6672   1.547   2.699   2.058
 2222TIP3    H2 6673   1.606   2.568   2.107
 2223TIP3   OH2 6674   2.587   4.298   0.883
 2223TIP3    H1 6675   2.580   4.328   0.792
 2223TIP3    H2 6676   2.584   4.202   0.876
 2224TIP3   OH2 6677   4.764   3.612   4.470
 2224TIP3    H1 6678   4.777   3.525   4.434
 2224TIP3    H2 6679   4.699   3.653   4.414
 2225TIP3   OH2 6680   1.761   1.601   4.744
 2225TIP3    H1 6681   1.697   1.624   4.811
 2225TIP3    H2 6682   1.740   1.657   4.670
 2226TIP3   OH2 6683   3.086   1.142   2.885
 2226TIP3    H1 6684   3.178   1.161   2.864
 2226TIP3    H2 6685   3.043   1.227   2.883
 2227TIP3   OH2 6686   4.004   5.093   1.259
 2227TIP3    H1 6687   3.918   5.081   1.298
 2227TIP3    H2 6688   3.996   5.172   1.207
 2228TIP3   OH2 6689   1.625   4.093   0.584
 2228TIP3    H1 6690   1.610   4.180   0.623
 2228TIP3    H2 6691   1.598   4.103   0.493
 2229TIP3   OH2 6692   0.677   5.421   4.600
 2229TIP3    H1 6693   0.687   5.512   4.573
 2229TIP3    H2 6694   0.614   5.423   4.671
 2230TIP3   OH2 6695   3.203   3.757   3.172
 2230TIP3    H1 6696   3.265   3.828   3.189
 2230TIP3    H2 6697   3.117   3.796   3.186
 2231TIP3   OH2 6698   1.890   3.153   0.233
 2231TIP3    H1 6699   1.840   3.078   0.200
 2231TIP3    H2 6700   1.981   3.122   0.235
 2232TIP3   OH2 6701   3.196   3.618   0.254
 2232TIP3    H1 6702   3.165   3.687   0.195
 2232TIP3    H2 6703   3.240   3.555   0.196
 2233TIP3   OH2 6704   6.018   4.480   3.322
 2233TIP3    H1 6705   6.090   4.421   3.346
 2233TIP3    H2 6706   6.050   4.528   3.245
 2234TIP3   OH2 6707   6.099   2.694   3.865
 2234TIP3    H1 6708   6.121   2.718   3.955
 2234TIP3    H2 6709   6.182   2.701   3.817
 2235TIP3   OH2 6710   0.292   0.455   3.059
 2235TIP3    H1 6711   0.334   0.369   3.068
 2235TIP3    H2 6712   0.365   0.517   3.059
 2236TIP3   OH2 6713   5.835   0.929   3.150
 2236TIP3    H1 6714   5.804   1.013   3.186
 2236TIP3    H2 6715   5.826   0.867   3.223
 2237TIP3   OH2 6716   4.017   4.843   4.203
 2237TIP3    H1 6717   4.006   4.773   4.267
 2237TIP3    H2 6718   4.104   4.880   4.222
 2238TIP3   OH2 6719   6.144   3.049   1.038
 2238TIP3    H1 6720   6.188   3.112   1.095
 2238TIP3    H2 6721   6.192   2.967   1.050
 2239TIP3   OH2 6722   3.763   1.676   1.790
 2239TIP3    H1 6723   3.770   1.768   1.814
 2239TIP3    H2 6724   3.819   1.630   1.853
 2240TIP3   OH2 6725   3.958   1.511   1.352
 2240TIP3    H1 6726   3.865   1.514   1.326
 2240TIP3    H2 6727   3.960   1.447   1.423
 2241TIP3   OH2 6728   0.322   3.445   4.160
 2241TIP3    H1 6729   0.276   3.407   4.235
 2241TIP3    H2 6730   0.353   3.530   4.191
 2242TIP3   OH2 6731   5.384   4.495   1.770
 2242TIP3    H1 6732   5.371   4.566   1.707
 2242TIP3    H2 6733   5.450   4.528   1.831
 2243TIP3   OH2 6734   0.897   4.669   3.944
 2243TIP3    H1 6735   0.970   4.609   3.959
 2243TIP3    H2 6736   0.934   4.756   3.959
 2244TIP3   OH2 6737   6.222   3.493   2.811
 2244TIP3    H1 6738   6.298   3.512   2.755
 2244TIP3    H2 6739   6.246   3.411   2.856
 2245TIP3   OH2 6740   4.581   1.218   0.490
 2245TIP3    H1 6741   4.498   1.208   0.442
 2245TIP3    H2 6742   4.599   1.312   0.488
 2246TIP3   OH2 6743   3.783   5.168   3.434
 2246TIP3    H1 6744   3.759   5.259   3.419
 2246TIP3    H2 6745   3.840   5.170   3.511
 2247TIP3   OH2 6746   5.135   5.444   0.064
 2247TIP3    H1 6747   5.173   5.400   0.140
 2247TIP3    H2 6748   5.139   5.537   0.086
 2248TIP3   OH2 6749   3.500   3.704   2.484
 2248TIP3    H1 6750   3.493   3.619   2.528
 2248TIP3    H2 6751   3.557   3.687   2.409
 2249TIP3   OH2 6752   3.232   0.000   2.107
 2249TIP3    H1 6753   3.244   0.027   2.016
 2249TIP3    H2 6754   3.282   0.062   2.158
 2250TIP3   OH2 6755   0.403   2.737   0.926
 2250TIP3    H1 6756   0.319   2.740   0.881
 2250TIP3    H2 6757   0.381   2.750   1.019
 2251TIP3   OH2 6758   4.982   0.100   2.032
 2251TIP3    H1 6759   4.976   0.196   2.037
 2251TIP3    H2 6760   4.984   0.072   2.123
 2252TIP3   OH2 6761   4.645   4.039   0.422
 2252TIP3    H1 6762   4.621   4.003   0.337
 2252TIP3    H2 6763   4.738   4.062   0.413
 2253TIP3   OH2 6764   5.505   4.055   3.427
 2253TIP3    H1 6765   5.555   4.118   3.479
 2253TIP3    H2 6766   5.567   4.022   3.362
 2254TIP3   OH2 6767   2.060   5.307   0.858
 2254TIP3    H1 6768   2.098   5.387   0.894
 2254TIP3    H2 6769   2.062   5.245   0.930
 2255TIP3   OH2 6770   6.094   0.721   1.008
 2255TIP3    H1 6771   6.050   0.720   1.092
 2255TIP3    H2 6772   6.162   0.654   1.017
 2256TIP3   OH2 6773   4.649   3.964   2.429
 2256TIP3    H1 6774   4.572   4.013   2.400
 2256TIP3    H2 6775   4.623   3.925   2.512
 2257TIP3   OH2 6776   2.602   0.134   3.563
 2257TIP3    H1 6777   2.560   0.164   3.482
 2257TIP3    H2 6778   2.531   0.094   3.613
 2258TIP3   OH2 6779   5.410   4.897   1.463
 2258TIP3    H1 6780   5.440   4.806   1.470
 2258TIP3    H2 6781   5.319   4.889   1.434
 2259TIP3   OH2 6782   2.596   1.543   4.208
 2259TIP3    H1 6783   2.554   1.466   4.247
 2259TIP3    H2 6784   2.679   1.509   4.174
 2260TIP3   OH2 6785   5.298   1.642   1.754
 2260TIP3    H1 6786   5.345   1.724   1.763
 2260TIP3    H2 6787   5.212   1.658   1.793
 2261TIP3   OH2 6788   4.004   3.181   3.753
 2261TIP3    H1 6789   3.923   3.137   3.780
 2261TIP3    H2 6790   4.068   3.159   3.821
 2262TIP3   OH2 6791   0.194   1.019   4.531
 2262TIP3    H1 6792   0.198   1.110   4.560
 2262TIP3    H2 6793   0.103   0.994   4.542
 2263TIP3   OH2 6794   4.195   0.257   2.967
 2263TIP3    H1 6795   4.233   0.190   3.023
 2263TIP3    H2 6796   4.180   0.331   3.025
 2264TIP3   OH2 6797   0.422   1.226   4.493
 2264TIP3    H1 6798   0.406   1.167   4.420
 2264TIP3    H2 6799   0.340   1.226   4.543
 2265TIP3   OH2 6800   2.255   1.457   0.549
 2265TIP3    H1 6801   2.178   1.509   0.572
 2265TIP3    H2 6802   2.235   1.369   0.581
 2266TIP3   OH2 6803   2.219   1.589   0.885
 2266TIP3    H1 6804   2.132   1.580   0.923
 2266TIP3    H2 6805   2.261   1.505   0.904
 2267TIP3   OH2 6806   0.959   2.204   2.412
 2267TIP3    H1 6807   1.050   2.200   2.384
 2267TIP3    H2 6808   0.962   2.235   2.502
 2268TIP3   OH2 6809   2.253   5.293   4.672
 2268TIP3    H1 6810   2.241   5.388   4.665
 2268TIP3    H2 6811   2.348   5.281   4.671
 2269TIP3   OH2 6812   1.050   2.096   1.166
 2269TIP3    H1 6813   1.050   2.165   1.099
 2269TIP3    H2 6814   0.962   2.097   1.202
 2270TIP3   OH2 6815   3.058   1.717   2.264
 2270TIP3    H1 6816   3.089   1.664   2.338
 2270TIP3    H2 6817   3.118   1.696   2.192
 2271TIP3   OH2 6818   2.324   0.098   4.151
 2271TIP3    H1 6819   2.231   0.123   4.154
 2271TIP3    H2 6820   2.371   0.181   4.153
 2272TIP3   OH2 6821   1.002   4.591   0.575
 2272TIP3    H1 6822   1.079   4.543   0.607
 2272TIP3    H2 6823   0.942   4.522   0.545
 2273TIP3   OH2 6824   1.719   3.406   0.603
 2273TIP3    H1 6825   1.662   3.369   0.536
 2273TIP3    H2 6826   1.663   3.469   0.649
 2274TIP3   OH2 6827   6.249   0.084   4.745
 2274TIP3    H1 6828   6.198   0.165   4.750
 2274TIP3    H2 6829   6.188   0.016   4.775
 2275TIP3   OH2 6830   1.417   0.632   4.937
 2275TIP3    H1 6831   1.443   0.680   5.016
 2275TIP3    H2 6832   1.326   0.659   4.922
 2276TIP3   OH2 6833   2.435   4.570   2.734
 2276TIP3    H1 6834   2.396   4.615   2.810
 2276TIP3    H2 6835   2.364   4.567   2.670
 2277TIP3   OH2 6836   0.067   4.664   1.850
 2277TIP3    H1 6837  -0.018   4.677   1.892
 2277TIP3    H2 6838   0.112   4.747   1.862
 2278TIP3   OH2 6839   5.561   4.539   3.641
 2278TIP3    H1 6840   5.628   4.505   3.582
 2278TIP3    H2 6841   5.589   4.511   3.728
 2279TIP3   OH2 6842   5.601   0.776   4.482
 2279TIP3    H1 6843   5.662   0.710   4.513
 2279TIP3    H2 6844   5.514   0.739   4.500
 2280TIP3   OH2 6845   0.606   2.067   4.825
 2280TIP3    H1 6846   0.662   2.138   4.858
 2280TIP3    H2 6847   0.592   2.011   4.902
 2281TIP3   OH2 6848   1.454   4.814   1.567
 2281TIP3    H1 6849   1.488   4.758   1.497
 2281TIP3    H2 6850   1.527   4.824   1.628
 2282TIP3   OH2 6851   1.669   3.522   1.841
 2282TIP3    H1 6852   1.658   3.470   1.761
 2282TIP3    H2 6853   1.582   3.522   1.881
 2283TIP3   OH2 6854   5.761   4.309   3.257
 2283TIP3    H1 6855   5.673   4.346   3.264
 2283TIP3    H2 6856   5.795   4.311   3.346
 2284TIP3   OH2 6857   0.895   1.849   3.809
 2284TIP3    H1 6858   0.907   1.806   3.894
 2284TIP3    H2 6859   0.979   1.889   3.791
 2285TIP3   OH2 6860   2.339   4.368   2.184
 2285TIP3    H1 6861   2.322   4.286   2.230
 2285TIP3    H2 6862   2.253   4.408   2.172
 2286TIP3   OH2 6863   6.232   4.583   0.439
 2286TIP3    H1 6864   6.266   4.514   0.497
 2286TIP3    H2 6865   6.238   4.546   0.351
 2287TIP3   OH2 6866   1.189   3.663   1.032
 2287TIP3    H1 6867   1.151   3.741   0.991
 2287TIP3    H2 6868   1.279   3.660   0.999
 2288TIP3   OH2 6869   2.250   2.150   2.427
 2288TIP3    H1 6870   2.246   2.230   2.480
 2288TIP3    H2 6871   2.328   2.162   2.372
 2289TIP3   OH2 6872   2.489   4.002   2.212
 2289TIP3    H1 6873   2.528   3.974   2.294
 2289TIP3    H2 6874   2.425   4.069   2.237
 2290TIP3   OH2 6875   6.058   0.279   4.830
 2290TIP3    H1 6876   6.021   0.251   4.913
 2290TIP3    H2 6877   6.072   0.373   4.840
 2291TIP3   OH2 6878   3.929   1.667   2.706
 2291TIP3    H1 6879   4.013   1.709   2.722
 2291TIP3    H2 6880   3.946   1.574   2.718
 2292TIP3   OH2 6881   6.318   1.211   2.613
 2292TIP3    H1 6882   6.364   1.173   2.538
 2292TIP3    H2 6883   6.236   1.163   2.618
 2293TIP3   OH2 6884   4.735   0.425   2.968
 2293TIP3    H1 6885   4.794   0.350   2.964
 2293TIP3    H2 6886   4.786   0.495   3.007
 2294TIP3   OH2 6887   1.360   3.289   4.212
 2294TIP3    H1 6888   1.408   3.226   4.157
 2294TIP3    H2 6889   1.424   3.317   4.277
 2295TIP3   OH2 6890   0.182   0.824   3.605
 2295TIP3    H1 6891   0.237   0.748   3.626
 2295TIP3    H2 6892   0.094   0.787   3.595
 2296TIP3   OH2 6893   2.346   4.554   0.120
 2296TIP3    H1 6894   2.431   4.552   0.077
 2296TIP3    H2 6895   2.366   4.561   0.214
 2297TIP3   OH2 6896   5.262   3.803   4.257
 2297TIP3    H1 6897   5.263   3.708   4.251
 2297TIP3    H2 6898   5.170   3.826   4.268
 2298TIP3   OH2 6899   2.617   3.165   3.989
 2298TIP3    H1 6900   2.602   3.251   3.951
 2298TIP3    H2 6901   2.583   3.103   3.924
 2299TIP3   OH2 6902   1.642   5.678   5.005
 2299TIP3    H1 6903   1.576   5.651   5.069
 2299TIP3    H2 6904   1.680   5.596   4.974
 2300TIP3   OH2 6905   4.821   3.010   1.209
 2300TIP3    H1 6906   4.757   2.980   1.273
 2300TIP3    H2 6907   4.789   3.097   1.183
 2301TIP3   OH2 6908   0.158   1.594   0.407
 2301TIP3    H1 6909   0.200   1.632   0.484
 2301TIP3    H2 6910   0.219   1.614   0.335
 2302TIP3   OH2 6911   5.564   2.623   0.688
 2302TIP3    H1 6912   5.600   2.708   0.665
 2302TIP3    H2 6913   5.633   2.581   0.740
 2303TIP3   OH2 6914   6.058   4.050   1.989
 2303TIP3    H1 6915   6.004   4.084   2.059
 2303TIP3    H2 6916   6.101   3.973   2.027
 2304TIP3   OH2 6917   1.056   2.076   3.723
 2304TIP3    H1 6918   1.064   2.073   3.627
 2304TIP3    H2 6919   1.147   2.067   3.754
 2305TIP3   OH2 6920   5.996   4.344   2.902
 2305TIP3    H1 6921   5.940   4.330   2.826
 2305TIP3    H2 6922   5.956   4.416   2.949
 2306TIP3   OH2 6923   0.043   4.752   0.068
 2306TIP3    H1 6924  -0.036   4.755   0.122
 2306TIP3    H2 6925   0.115   4.765   0.130
 2307TIP3   OH2 6926   1.171   3.145   2.365
 2307TIP3    H1 6927   1.177   3.094   2.446
 2307TIP3    H2 6928   1.163   3.080   2.295
 2308TIP3   OH2 6929   2.478   5.727   0.681
 2308TIP3    H1 6930   2.399   5.780   0.679
 2308TIP3    H2 6931   2.448   5.640   0.710
 2309TIP3   OH2 6932   4.397   0.133   1.189
 2309TIP3    H1 6933   4.415   0.075   1.115
 2309TIP3    H2 6934   4.411   0.221   1.154
 2310TIP3   OH2 6935   1.765   2.083   0.962
 2310TIP3    H1 6936   1.698   2.032   1.007
 2310TIP3    H2 6937   1.744   2.174   0.983
 2311TIP3   OH2 6938   1.352   2.295   3.954
 2311TIP3    H1 6939   1.380   2.290   4.045
 2311TIP3    H2 6940   1.398   2.372   3.919
 2312TIP3   OH2 6941   3.402   4.980   3.725
 2312TIP3    H1 6942   3.472   4.957   3.664
 2312TIP3    H2 6943   3.390   4.903   3.779
 2313TIP3   OH2 6944   5.214   1.354   5.200
 2313TIP3    H1 6945   5.304   1.387   5.201
 2313TIP3    H2 6946   5.221   1.266   5.163
 2314TIP3   OH2 6947   1.888   1.465   1.167
 2314TIP3    H1 6948   1.866   1.433   1.255
 2314TIP3    H2 6949   1.983   1.473   1.167
 2315TIP3   OH2 6950   2.793   1.995   3.262
 2315TIP3    H1 6951   2.760   2.047   3.336
 2315TIP3    H2 6952   2.844   2.057   3.210
 2316TIP3   OH2 6953   5.187   3.688   2.700
 2316TIP3    H1 6954   5.209   3.598   2.677
 2316TIP3    H2 6955   5.119   3.680   2.767
 2317TIP3   OH2 6956   2.460   1.135   0.518
 2317TIP3    H1 6957   2.507   1.218   0.517
 2317TIP3    H2 6958   2.368   1.159   0.528
 2318TIP3   OH2 6959   2.343   2.588   0.437
 2318TIP3    H1 6960   2.285   2.660   0.460
 2318TIP3    H2 6961   2.355   2.539   0.518
 2319TIP3   OH2 6962   5.491   4.435   3.142
 2319TIP3    H1 6963   5.496   4.352   3.095
 2319TIP3    H2 6964   5.422   4.421   3.208
 2320TIP3   OH2 6965   2.941   4.651   0.138
 2320TIP3    H1 6966   3.025   4.661   0.183
 2320TIP3    H2 6967   2.960   4.593   0.064
 2321TIP3   OH2 6968   5.093   0.017   5.082
 2321TIP3    H1 6969   5.143   0.095   5.058
 2321TIP3    H2 6970   5.158  -0.045   5.115
 2322TIP3   OH2 6971   0.113   1.695   4.653
 2322TIP3    H1 6972   0.183   1.639   4.619
 2322TIP3    H2 6973   0.083   1.745   4.577
 2323TIP3   OH2 6974   4.966   4.162   2.234
 2323TIP3    H1 6975   4.948   4.256   2.238
 2323TIP3    H2 6976   5.051   4.155   2.190
 2324TIP3   OH2 6977   0.314   2.071   1.012
 2324TIP3    H1 6978   0.359   2.060   0.928
 2324TIP3    H2 6979   0.332   2.162   1.037
 2325TIP3   OH2 6980   2.822   2.206   3.034
 2325TIP3    H1 6981   2.896   2.266   3.045
 2325TIP3    H2 6982   2.835   2.168   2.947
 2326TIP3   OH2 6983   4.862   1.203   4.234
 2326TIP3    H1 6984   4.924   1.262   4.191
 2326TIP3    H2 6985   4.794   1.188   4.168
 2327TIP3   OH2 6986   1.087   1.593   3.186
 2327TIP3    H1 6987   1.160   1.535   3.205
 2327TIP3    H2 6988   1.032   1.543   3.125
 2328TIP3   OH2 6989   1.311   0.252   4.176
 2328TIP3    H1 6990   1.286   0.225   4.087
 2328TIP3    H2 6991   1.228   0.275   4.218
 2329TIP3   OH2 6992   5.613   4.688   3.208
 2329TIP3    H1 6993   5.577   4.600   3.202
 2329TIP3    H2 6994   5.694   4.678   3.258
 2330TIP3   OH2 6995   5.366   0.879   4.809
 2330TIP3    H1 6996   5.455   0.848   4.821
 2330TIP3    H2 6997   5.376   0.968   4.774
 2331TIP3   OH2 6998   3.251   2.508   4.174
 2331TIP3    H1 6999   3.225   2.420   4.147
 2331TIP3    H2 7000   3.290   2.547   4.096
 2332TIP3   OH2 7001   2.186   3.049   3.697
 2332TIP3    H1 7002   2.161   2.962   3.666
 2332TIP3    H2 7003   2.187   3.040   3.793
 2333TIP3   OH2 7004   4.968   0.875   4.074
 2333TIP3    H1 7005   5.005   0.919   4.150
 2333TIP3    H2 7006   4.875   0.869   4.093
 2334TIP3   OH2 7007   4.479   3.762   1.870
 2334TIP3    H1 7008   4.392   3.741   1.835
 2334TIP3    H2 7009   4.516   3.824   1.807
 2335TIP3   OH2 7010   2.719   4.566   1.508
 2335TIP3    H1 7011   2.663   4.630   1.551
 2335TIP3    H2 7012   2.659   4.502   1.472
 2336TIP3   OH2 7013   0.549   5.025   1.991
 2336TIP3    H1 7014   0.567   5.037   2.084
 2336TIP3    H2 7015   0.545   5.114   1.955
 2337TIP3   OH2 7016   1.386   3.439   4.806
 2337TIP3    H1 7017   1.428   3.522   4.782
 2337TIP3    H2 7018   1.296   3.465   4.830
 2338TIP3   OH2 7019   1.017   2.671   3.288
 2338TIP3    H1 7020   1.107   2.690   3.261
 2338TIP3    H2 7021   0.964   2.735   3.241
 2339TIP3   OH2 7022   1.667   0.283   4.589
 2339TIP3    H1 7023   1.642   0.192   4.599
 2339TIP3    H2 7024   1.604   0.318   4.525
 2340TIP3   OH2 7025   3.019   0.948   1.120
 2340TIP3    H1 7026   3.006   0.865   1.166
 2340TIP3    H2 7027   2.939   0.960   1.069
 2341TIP3   OH2 7028   0.738   4.323   0.578
 2341TIP3    H1 7029   0.703   4.235   0.564
 2341TIP3    H2 7030   0.741   4.333   0.673
 2342TIP3   OH2 7031   1.020   2.685   0.136
 2342TIP3    H1 7032   1.101   2.668   0.184
 2342TIP3    H2 7033   1.045   2.746   0.067
 2343TIP3   OH2 7034   2.471   2.256   2.296
 2343TIP3    H1 7035   2.562   2.282   2.311
 2343TIP3    H2 7036   2.422   2.338   2.295
 2344TIP3   OH2 7037   2.974   0.595   2.507
 2344TIP3    H1 7038   3.008   0.673   2.463
 2344TIP3    H2 7039   2.959   0.533   2.436
 2345TIP3   OH2 7040   4.930   4.716   1.256
 2345TIP3    H1 7041   4.916   4.658   1.330
 2345TIP3    H2 7042   4.949   4.657   1.182
 2346TIP3   OH2 7043   1.590   4.252   4.637
 2346TIP3    H1 7044   1.503   4.278   4.609
 2346TIP3    H2 7045   1.620   4.324   4.693
 2347TIP3   OH2 7046   0.247   4.337   2.903
 2347TIP3    H1 7047   0.208   4.420   2.930
 2347TIP3    H2 7048   0.334   4.338   2.942
 2348TIP3   OH2 7049   2.045   4.646   4.493
 2348TIP3    H1 7050   2.062   4.736   4.465
 2348TIP3    H2 7051   2.011   4.654   4.582
 2349TIP3   OH2 7052   4.473   4.482   2.890
 2349TIP3    H1 7053   4.425   4.531   2.957
 2349TIP3    H2 7054   4.413   4.411   2.866
 2350TIP3   OH2 7055   4.182   5.335   1.784
 2350TIP3    H1 7056   4.269   5.321   1.822
 2350TIP3    H2 7057   4.127   5.361   1.859
 2351TIP3   OH2 7058   3.115   4.624   1.751
 2351TIP3    H1 7059   3.071   4.618   1.667
 2351TIP3    H2 7060   3.194   4.570   1.741
 2352TIP3   OH2 7061   3.199   0.864   3.595
 2352TIP3    H1 7062   3.210   0.923   3.669
 2352TIP3    H2 7063   3.131   0.803   3.622
 2353TIP3   OH2 7064   1.650   4.045   4.328
 2353TIP3    H1 7065   1.726   4.063   4.382
 2353TIP3    H2 7066   1.603   4.128   4.323
 2354TIP3   OH2 7067   1.374   5.412   0.629
 2354TIP3    H1 7068   1.312   5.485   0.639
 2354TIP3    H2 7069   1.353   5.353   0.701
 2355TIP3   OH2 7070   1.534   2.230   0.027
 2355TIP3    H1 7071   1.497   2.316   0.042
 2355TIP3    H2 7072   1.501   2.176   0.099
 2356TIP3   OH2 7073   4.884   0.293   0.537
 2356TIP3    H1 7074   4.845   0.380   0.523
 2356TIP3    H2 7075   4.862   0.272   0.628
 2357TIP3   OH2 7076   1.503   4.656   4.486
 2357TIP3    H1 7077   1.573   4.717   4.508
 2357TIP3    H2 7078   1.531   4.616   4.404
 2358TIP3   OH2 7079   5.344   3.917   2.345
 2358TIP3    H1 7080   5.278   3.900   2.413
 2358TIP3    H2 7081   5.295   3.960   2.275
 2359TIP3   OH2 7082   0.394   1.908   2.412
 2359TIP3    H1 7083   0.413   1.984   2.357
 2359TIP3    H2 7084   0.480   1.878   2.441
 2360TIP3   OH2 7085   2.967   4.276   2.727
 2360TIP3    H1 7086   2.985   4.363   2.693
 2360TIP3    H2 7087   2.968   4.287   2.822
 2361TIP3   OH2 7088   2.021   3.444   0.387
 2361TIP3    H1 7089   2.103   3.405   0.355
 2361TIP3    H2 7090   1.994   3.503   0.317
 2362TIP3   OH2 7091   1.377   3.369   1.673
 2362TIP3    H1 7092   1.350   3.304   1.739
 2362TIP3    H2 7093   1.466   3.342   1.649
 2363TIP3   OH2 7094   2.162   3.294   1.092
 2363TIP3    H1 7095   2.234   3.235   1.068
 2363TIP3    H2 7096   2.112   3.306   1.011
 2364TIP3   OH2 7097   4.537   1.303   2.191
 2364TIP3    H1 7098   4.479   1.228   2.201
 2364TIP3    H2 7099   4.610   1.271   2.138
 2365TIP3   OH2 7100   5.683   2.410   3.466
 2365TIP3    H1 7101   5.658   2.379   3.379
 2365TIP3    H2 7102   5.762   2.360   3.487
 2366TIP3   OH2 7103   5.954   4.550   2.429
 2366TIP3    H1 7104   6.037   4.543   2.476
 2366TIP3    H2 7105   5.968   4.500   2.349
 2367TIP3   OH2 7106   5.374   2.689   3.808
 2367TIP3    H1 7107   5.465   2.693   3.836
 2367TIP3    H2 7108   5.376   2.636   3.728
 2368TIP3   OH2 7109   2.619   0.039   3.230
 2368TIP3    H1 7110   2.673   0.013   3.304
 2368TIP3    H2 7111   2.634   0.133   3.222
 2369TIP3   OH2 7112   6.022   4.326   2.243
 2369TIP3    H1 7113   6.113   4.297   2.232
 2369TIP3    H2 7114   5.972   4.244   2.248
 2370TIP3   OH2 7115   2.097   2.975   2.051
 2370TIP3    H1 7116   2.138   2.982   1.964
 2370TIP3    H2 7117   2.111   2.884   2.076
 2371TIP3   OH2 7118   3.525   1.018   1.297
 2371TIP3    H1 7119   3.532   0.979   1.384
 2371TIP3    H2 7120   3.431   1.032   1.284
 2372TIP3   OH2 7121   1.188   1.238   1.215
 2372TIP3    H1 7122   1.276   1.218   1.183
 2372TIP3    H2 7123   1.173   1.174   1.284
 2373TIP3   OH2 7124   6.006   1.300   2.874
 2373TIP3    H1 7125   6.074   1.366   2.866
 2373TIP3    H2 7126   5.934   1.333   2.819
 2374TIP3   OH2 7127   0.671   4.613   2.006
 2374TIP3    H1 7128   0.690   4.627   2.099
 2374TIP3    H2 7129   0.582   4.647   1.994
 2375TIP3   OH2 7130   2.495   1.031   3.473
 2375TIP3    H1 7131   2.506   1.126   3.484
 2375TIP3    H2 7132   2.517   0.994   3.558
 2376TIP3   OH2 7133   1.171   5.049   4.410
 2376TIP3    H1 7134   1.078   5.068   4.425
 2376TIP3    H2 7135   1.170   4.976   4.348
 2377TIP3   OH2 7136   0.526   5.010   1.659
 2377TIP3    H1 7137   0.553   5.019   1.750
 2377TIP3    H2 7138   0.498   5.098   1.633
 2378TIP3   OH2 7139   3.540   5.712   1.592
 2378TIP3    H1 7140   3.611   5.715   1.527
 2378TIP3    H2 7141   3.480   5.782   1.564
 2379TIP3   OH2 7142   3.079   1.217   0.793
 2379TIP3    H1 7143   3.044   1.183   0.710
 2379TIP3    H2 7144   3.137   1.148   0.825
 2380TIP3   OH2 7145   2.058   3.469   1.929
 2380TIP3    H1 7146   2.013   3.553   1.937
 2380TIP3    H2 7147   2.079   3.445   2.019
 2381TIP3   OH2 7148   3.679   5.795   3.908
 2381TIP3    H1 7149   3.593   5.778   3.948
 2381TIP3    H2 7150   3.670   5.882   3.869
 2382TIP3   OH2 7151   5.076   3.910   1.164
 2382TIP3    H1 7152   5.139   3.862   1.218
 2382TIP3    H2 7153   5.102   3.892   1.074
 2383TIP3   OH2 7154   2.109   2.908   1.594
 2383TIP3    H1 7155   2.123   2.965   1.519
 2383TIP3    H2 7156   2.014   2.902   1.602
 2384TIP3   OH2 7157   2.744   2.534   4.514
 2384TIP3    H1 7158   2.744   2.594   4.440
 2384TIP3    H2 7159   2.837   2.512   4.527
 2385TIP3   OH2 7160   1.017   5.082   2.747
 2385TIP3    H1 7161   0.940   5.026   2.749
 2385TIP3    H2 7162   1.025   5.115   2.836
 2386TIP3   OH2 7163   4.616   2.130   0.593
 2386TIP3    H1 7164   4.571   2.184   0.658
 2386TIP3    H2 7165   4.667   2.068   0.644
 2387TIP3   OH2 7166   0.547   3.495   4.559
 2387TIP3    H1 7167   0.559   3.476   4.652
 2387TIP3    H2 7168   0.508   3.415   4.522
 2388TIP3   OH2 7169   4.044   2.000   4.889
 2388TIP3    H1 7170   4.101   2.055   4.942
 2388TIP3    H2 7171   4.103   1.952   4.831
 2389TIP3   OH2 7172   2.545   5.940   5.091
 2389TIP3    H1 7173   2.548   5.953   4.996
 2389TIP3    H2 7174   2.500   6.017   5.125
 2390TIP3   OH2 7175   4.460   5.652   2.937
 2390TIP3    H1 7176   4.465   5.563   2.971
 2390TIP3    H2 7177   4.534   5.659   2.877
 2391TIP3   OH2 7178   2.983   1.380   2.148
 2391TIP3    H1 7179   2.901   1.331   2.159
 2391TIP3    H2 7180   3.039   1.350   2.219
 2392TIP3   OH2 7181   5.731   5.362   3.129
 2392TIP3    H1 7182   5.768   5.430   3.072
 2392TIP3    H2 7183   5.723   5.285   3.072
 2393TIP3   OH2 7184   2.896   3.972   3.822
 2393TIP3    H1 7185   2.868   3.882   3.838
 2393TIP3    H2 7186   2.838   4.024   3.878
 2394TIP3   OH2 7187   2.690   5.417   0.988
 2394TIP3    H1 7188   2.686   5.511   1.008
 2394TIP3    H2 7189   2.753   5.410   0.917
 2395TIP3   OH2 7190   1.845   0.532   2.438
 2395TIP3    H1 7191   1.822   0.621   2.413
 2395TIP3    H2 7192   1.774   0.478   2.402
 2396TIP3   OH2 7193   1.112   2.942   2.187
 2396TIP3    H1 7194   1.142   2.852   2.194
 2396TIP3    H2 7195   1.037   2.939   2.128
 2397TIP3   OH2 7196   3.539   3.389   4.978
 2397TIP3    H1 7197   3.611   3.452   4.990
 2397TIP3    H2 7198   3.583   3.309   4.949
 2398TIP3   OH2 7199   6.124   3.707   0.715
 2398TIP3    H1 7200   6.067   3.651   0.767
 2398TIP3    H2 7201   6.133   3.661   0.632
 2399TIP3   OH2 7202   5.407   3.374   2.271
 2399TIP3    H1 7203   5.465   3.359   2.346
 2399TIP3    H2 7204   5.407   3.469   2.260
 2400TIP3   OH2 7205   5.841   0.121   0.654
 2400TIP3    H1 7206   5.760   0.159   0.618
 2400TIP3    H2 7207   5.819   0.102   0.745
 2401TIP3   OH2 7208   0.810   0.151  -0.033
 2401TIP3    H1 7209   0.900   0.150   0.001
 2401TIP3    H2 7210   0.814   0.209  -0.109
 2402TIP3   OH2 7211   1.502   1.725   0.969
 2402TIP3    H1 7212   1.530   1.728   0.877
 2402TIP3    H2 7213   1.494   1.631   0.988
 2403TIP3   OH2 7214   4.054   1.700   1.050
 2403TIP3    H1 7215   4.010   1.659   0.976
 2403TIP3    H2 7216   3.986   1.752   1.093
 2404TIP3   OH2 7217   0.845   0.435   0.727
 2404TIP3    H1 7218   0.836   0.509   0.667
 2404TIP3    H2 7219   0.757   0.422   0.762
 2405TIP3   OH2 7220   6.112   2.174   3.424
 2405TIP3    H1 7221   6.155   2.088   3.426
 2405TIP3    H2 7222   6.133   2.209   3.337
 2406TIP3   OH2 7223   2.564   3.918   3.861
 2406TIP3    H1 7224   2.531   4.008   3.872
 2406TIP3    H2 7225   2.629   3.925   3.791
 2407TIP3   OH2 7226   1.649   5.692   3.738
 2407TIP3    H1 7227   1.649   5.781   3.702
 2407TIP3    H2 7228   1.633   5.635   3.663
 2408TIP3   OH2 7229   5.515   0.329   1.354
 2408TIP3    H1 7230   5.482   0.402   1.301
 2408TIP3    H2 7231   5.466   0.253   1.324
 2409TIP3   OH2 7232   4.002   0.830   2.078
 2409TIP3    H1 7233   3.910   0.812   2.096
 2409TIP3    H2 7234   4.025   0.769   2.007
 2410TIP3   OH2 7235   2.988   1.058   2.002
 2410TIP3    H1 7236   2.918   1.113   2.039
 2410TIP3    H2 7237   3.047   1.043   2.075
 2411TIP3   OH2 7238   5.570   5.429   1.924
 2411TIP3    H1 7239   5.593   5.521   1.911
 2411TIP3    H2 7240   5.654   5.383   1.916
 2412TIP3   OH2 7241   1.558   2.137   1.308
 2412TIP3    H1 7242   1.522   2.074   1.246
 2412TIP3    H2 7243   1.649   2.150   1.280
 2413TIP3   OH2 7244   4.178   1.258  -0.044
 2413TIP3    H1 7245   4.226   1.325   0.004
 2413TIP3    H2 7246   4.181   1.181   0.012
 2414TIP3   OH2 7247   2.954   0.546   0.343
 2414TIP3    H1 7248   2.933   0.460   0.307
 2414TIP3    H2 7249   2.914   0.608   0.282
 2415TIP3   OH2 7250   3.309   4.667   2.767
 2415TIP3    H1 7251   3.288   4.698   2.855
 2415TIP3    H2 7252   3.403   4.645   2.771
 2416TIP3   OH2 7253   4.255   1.852   4.803
 2416TIP3    H1 7254   4.342   1.890   4.816
 2416TIP3    H2 7255   4.248   1.785   4.871
 2417TIP3   OH2 7256   3.177   3.799   3.981
 2417TIP3    H1 7257   3.111   3.732   3.964
 2417TIP3    H2 7258   3.215   3.818   3.896
 2418TIP3   OH2 7259   1.386   3.863   4.061
 2418TIP3    H1 7260   1.413   3.790   4.005
 2418TIP3    H2 7261   1.458   3.926   4.055
 2419TIP3   OH2 7262   2.302   4.753   2.896
 2419TIP3    H1 7263   2.279   4.748   2.989
 2419TIP3    H2 7264   2.231   4.805   2.857
 2420TIP3   OH2 7265   2.996   1.406   2.883
 2420TIP3    H1 7266   2.905   1.435   2.888
 2420TIP3    H2 7267   3.040   1.454   2.953
 2421TIP3   OH2 7268   0.874   1.707   1.297
 2421TIP3    H1 7269   0.950   1.652   1.316
 2421TIP3    H2 7270   0.885   1.783   1.354
 2422TIP3   OH2 7271   5.075   4.029   1.578
 2422TIP3    H1 7272   5.073   4.056   1.670
 2422TIP3    H2 7273   5.133   3.953   1.576
 2423TIP3   OH2 7274   0.521   4.097   4.058
 2423TIP3    H1 7275   0.578   4.115   3.984
 2423TIP3    H2 7276   0.500   4.184   4.094
 2424TIP3   OH2 7277   5.514   3.313   3.246
 2424TIP3    H1 7278   5.423   3.286   3.247
 2424TIP3    H2 7279   5.530   3.341   3.156
 2425TIP3   OH2 7280   2.232   1.222   4.184
 2425TIP3    H1 7281   2.212   1.275   4.107
 2425TIP3    H2 7282   2.148   1.213   4.229
 2426TIP3   OH2 7283   5.194   5.178   2.186
 2426TIP3    H1 7284   5.254   5.195   2.114
 2426TIP3    H2 7285   5.245   5.199   2.265
 2427TIP3   OH2 7286   2.829   3.676   3.870
 2427TIP3    H1 7287   2.840   3.618   3.794
 2427TIP3    H2 7288   2.757   3.638   3.919
 2428TIP3   OH2 7289   1.778   0.386   3.202
 2428TIP3    H1 7290   1.767   0.433   3.119
 2428TIP3    H2 7291   1.797   0.296   3.176
 2429TIP3   OH2 7292   3.616   0.706   4.166
 2429TIP3    H1 7293   3.677   0.676   4.233
 2429TIP3    H2 7294   3.664   0.698   4.084
 2430TIP3   OH2 7295   4.550   3.132   1.330
 2430TIP3    H1 7296   4.508   3.184   1.399
 2430TIP3    H2 7297   4.519   3.043   1.346
 2431TIP3   OH2 7298   3.829   2.013   3.985
 2431TIP3    H1 7299   3.850   2.095   3.939
 2431TIP3    H2 7300   3.767   2.040   4.053
 2432TIP3   OH2 7301   2.885   4.011   2.330
 2432TIP3    H1 7302   2.848   4.096   2.310
 2432TIP3    H2 7303   2.827   3.973   2.396
 2433TIP3   OH2 7304   0.347   1.655   0.187
 2433TIP3    H1 7305   0.293   1.653   0.108
 2433TIP3    H2 7306   0.338   1.568   0.225
 2434TIP3   OH2 7307   2.520   2.554   2.460
 2434TIP3    H1 7308   2.440   2.549   2.409
 2434TIP3    H2 7309   2.580   2.606   2.407
 2435TIP3   OH2 7310   4.617   3.232   2.286
 2435TIP3    H1 7311   4.609   3.294   2.358
 2435TIP3    H2 7312   4.711   3.221   2.274
 2436TIP3   OH2 7313   2.464   4.979   4.828
 2436TIP3    H1 7314   2.371   4.957   4.834
 2436TIP3    H2 7315   2.475   5.011   4.739
 2437TIP3   OH2 7316   0.678   4.713   3.400
 2437TIP3    H1 7317   0.672   4.678   3.488
 2437TIP3    H2 7318   0.682   4.808   3.412
 2438TIP3   OH2 7319   3.193   1.317   3.524
 2438TIP3    H1 7320   3.179   1.401   3.480
 2438TIP3    H2 7321   3.288   1.306   3.525
 2439TIP3   OH2 7322   2.250   2.911   3.222
 2439TIP3    H1 7323   2.232   2.990   3.274
 2439TIP3    H2 7324   2.339   2.924   3.189
 2440TIP3   OH2 7325   4.736   0.616   2.061
 2440TIP3    H1 7326   4.821   0.657   2.041
 2440TIP3    H2 7327   4.706   0.659   2.141
 2441TIP3   OH2 7328   6.260   2.481   0.986
 2441TIP3    H1 7329   6.228   2.490   1.076
 2441TIP3    H2 7330   6.273   2.387   0.975
 2442TIP3   OH2 7331   2.538   0.799   3.647
 2442TIP3    H1 7332   2.519   0.709   3.673
 2442TIP3    H2 7333   2.601   0.791   3.575
 2443TIP3   OH2 7334   6.120   5.698   0.342
 2443TIP3    H1 7335   6.037   5.651   0.333
 2443TIP3    H2 7336   6.179   5.635   0.383
 2444TIP3   OH2 7337   4.178   3.274   2.658
 2444TIP3    H1 7338   4.190   3.255   2.751
 2444TIP3    H2 7339   4.149   3.190   2.620
 2445TIP3   OH2 7340   3.329   5.410   0.041
 2445TIP3    H1 7341   3.374   5.339   0.087
 2445TIP3    H2 7342   3.374   5.490   0.069
 2446TIP3   OH2 7343   1.734   2.209   3.221
 2446TIP3    H1 7344   1.781   2.284   3.185
 2446TIP3    H2 7345   1.734   2.145   3.150
 2447TIP3   OH2 7346   2.387   4.086   1.549
 2447TIP3    H1 7347   2.420   4.057   1.634
 2447TIP3    H2 7348   2.304   4.129   1.568
 2448TIP3   OH2 7349   1.654   4.798   2.269
 2448TIP3    H1 7350   1.605   4.778   2.190
 2448TIP3    H2 7351   1.588   4.831   2.330
 2449TIP3   OH2 7352   3.792   4.693   1.244
 2449TIP3    H1 7353   3.708   4.712   1.202
 2449TIP3    H2 7354   3.778   4.716   1.336
 2450TIP3   OH2 7355   0.862   5.976   2.418
 2450TIP3    H1 7356   0.914   5.951   2.342
 2450TIP3    H2 7357   0.843   6.069   2.405
 2451TIP3   OH2 7358   5.599   0.820   2.919
 2451TIP3    H1 7359   5.610   0.831   2.824
 2451TIP3    H2 7360   5.687   0.827   2.954
 2452TIP3   OH2 7361   5.446   0.880   1.051
 2452TIP3    H1 7362   5.484   0.889   0.963
 2452TIP3    H2 7363   5.415   0.968   1.073
 2453TIP3   OH2 7364   6.188   1.702   1.132
 2453TIP3    H1 7365   6.146   1.667   1.054
 2453TIP3    H2 7366   6.269   1.651   1.140
 2454TIP3   OH2 7367   3.364   5.333   1.100
 2454TIP3    H1 7368   3.448   5.327   1.054
 2454TIP3    H2 7369   3.303   5.285   1.044
 2455TIP3   OH2 7370   6.238   2.787   1.098
 2455TIP3    H1 7371   6.303   2.734   1.144
 2455TIP3    H2 7372   6.154   2.747   1.121
 2456TIP3   OH2 7373   3.785   3.998   1.862
 2456TIP3    H1 7374   3.699   4.017   1.823
 2456TIP3    H2 7375   3.788   3.903   1.868
 2457TIP3   OH2 7376   0.603   1.610   0.064
 2457TIP3    H1 7377   0.683   1.614   0.117
 2457TIP3    H2 7378   0.532   1.597   0.127
 2458TIP3   OH2 7379   2.109   4.933   2.595
 2458TIP3    H1 7380   2.105   4.932   2.690
 2458TIP3    H2 7381   2.029   4.887   2.567
 2459TIP3   OH2 7382   6.140   3.319   0.451
 2459TIP3    H1 7383   6.231   3.307   0.477
 2459TIP3    H2 7384   6.117   3.406   0.484
 2460TIP3   OH2 7385   1.557   5.785   0.035
 2460TIP3    H1 7386   1.619   5.835  -0.017
 2460TIP3    H2 7387   1.480   5.775  -0.021
 2461TIP3   OH2 7388   5.158   1.981   0.397
 2461TIP3    H1 7389   5.153   2.022   0.484
 2461TIP3    H2 7390   5.245   2.006   0.365
 2462TIP3   OH2 7391   4.785   2.366   3.833
 2462TIP3    H1 7392   4.869   2.406   3.812
 2462TIP3    H2 7393   4.720   2.428   3.801
 2463TIP3   OH2 7394   5.819   3.397   2.101
 2463TIP3    H1 7395   5.844   3.489   2.106
 2463TIP3    H2 7396   5.876   3.360   2.034
 2464TIP3   OH2 7397   1.136   0.812   1.589
 2464TIP3    H1 7398   1.137   0.743   1.656
 2464TIP3    H2 7399   1.180   0.886   1.630
 2465TIP3   OH2 7400   3.973   0.036   4.938
 2465TIP3    H1 7401   3.930   0.066   5.019
 2465TIP3    H2 7402   3.925   0.080   4.868
 2466TIP3   OH2 7403   2.266   2.308   1.784
 2466TIP3    H1 7404   2.189   2.319   1.840
 2466TIP3    H2 7405   2.314   2.236   1.824
 2467TIP3   OH2 7406   1.842   2.391   3.052
 2467TIP3    H1 7407   1.852   2.481   3.083
 2467TIP3    H2 7408   1.924   2.371   3.008
 2468TIP3   OH2 7409   1.049   0.970   3.415
 2468TIP3    H1 7410   1.116   0.978   3.348
 2468TIP3    H2 7411   0.993   1.046   3.402
 2469TIP3   OH2 7412   5.595   0.585   0.797
 2469TIP3    H1 7413   5.596   0.595   0.892
 2469TIP3    H2 7414   5.688   0.588   0.772
 2470TIP3   OH2 7415   0.194   0.149   4.062
 2470TIP3    H1 7416   0.223   0.109   4.144
 2470TIP3    H2 7417   0.273   0.154   4.009
 2471TIP3   OH2 7418   1.372   1.517   4.133
 2471TIP3    H1 7419   1.311   1.582   4.170
 2471TIP3    H2 7420   1.454   1.565   4.123
 2472TIP3   OH2 7421   2.090   5.199   4.904
 2472TIP3    H1 7422   2.139   5.223   4.826
 2472TIP3    H2 7423   2.059   5.282   4.940
 2473TIP3   OH2 7424   1.759   2.904   2.295
 2473TIP3    H1 7425   1.811   2.845   2.350
 2473TIP3    H2 7426   1.718   2.964   2.357
 2474TIP3   OH2 7427   4.313   5.010   0.773
 2474TIP3    H1 7428   4.255   4.946   0.732
 2474TIP3    H2 7429   4.257   5.086   0.787
 2475TIP3   OH2 7430   6.162   1.660   3.601
 2475TIP3    H1 7431   6.134   1.591   3.661
 2475TIP3    H2 7432   6.161   1.740   3.652
 2476TIP3   OH2 7433   0.065   4.747   4.973
 2476TIP3    H1 7434   0.045   4.683   4.904
 2476TIP3    H2 7435   0.028   4.709   5.052
 2477TIP3   OH2 7436   0.624   0.772   2.713
 2477TIP3    H1 7437   0.642   0.836   2.644
 2477TIP3    H2 7438   0.708   0.762   2.759
 2478TIP3   OH2 7439   6.176   2.004   4.657
 2478TIP3    H1 7440   6.271   1.993   4.657
 2478TIP3    H2 7441   6.162   2.095   4.630
 2479TIP3   OH2 7442   5.524   1.197   4.137
 2479TIP3    H1 7443   5.474   1.269   4.100
 2479TIP3    H2 7444   5.466   1.121   4.131
 2480TIP3   OH2 7445   0.110   5.975   1.949
 2480TIP3    H1 7446   0.176   5.922   1.903
 2480TIP3    H2 7447   0.145   6.064   1.946
 2481TIP3   OH2 7448   3.912   2.557   2.446
 2481TIP3    H1 7449   3.962   2.500   2.504
 2481TIP3    H2 7450   3.871   2.498   2.384
 2482TIP3   OH2 7451   2.010   5.200   0.529
 2482TIP3    H1 7452   2.057   5.284   0.533
 2482TIP3    H2 7453   1.946   5.205   0.600
 2483TIP3   OH2 7454   5.198   4.410   2.105
 2483TIP3    H1 7455   5.177   4.502   2.086
 2483TIP3    H2 7456   5.286   4.413   2.140
 2484TIP3   OH2 7457   0.650   1.474   2.078
 2484TIP3    H1 7458   0.695   1.413   2.137
 2484TIP3    H2 7459   0.714   1.492   2.009
 2485TIP3   OH2 7460   0.328   2.343   1.101
 2485TIP3    H1 7461   0.301   2.354   1.192
 2485TIP3    H2 7462   0.411   2.391   1.094
 2486TIP3   OH2 7463   4.115   4.195   3.439
 2486TIP3    H1 7464   4.051   4.177   3.370
 2486TIP3    H2 7465   4.110   4.289   3.453
 2487TIP3   OH2 7466   1.037   2.822   3.630
 2487TIP3    H1 7467   1.114   2.777   3.663
 2487TIP3    H2 7468   0.963   2.769   3.660
 2488TIP3   OH2 7469   4.322   4.859   3.979
 2488TIP3    H1 7470   4.364   4.922   3.920
 2488TIP3    H2 7471   4.358   4.881   4.065
 2489TIP3   OH2 7472   2.295   1.073   4.645
 2489TIP3    H1 7473   2.215   1.030   4.675
 2489TIP3    H2 7474   2.265   1.154   4.605
 2490TIP3   OH2 7475   0.565   0.706   0.341
 2490TIP3    H1 7476   0.547   0.660   0.423
 2490TIP3    H2 7477   0.583   0.636   0.278
 2491TIP3   OH2 7478   2.912   1.858   4.251
 2491TIP3    H1 7479   2.913   1.908   4.169
 2491TIP3    H2 7480   2.849   1.904   4.307
 2492TIP3   OH2 7481   1.294   5.028   4.654
 2492TIP3    H1 7482   1.241   4.991   4.584
 2492TIP3    H2 7483   1.236   5.029   4.730
 2493TIP3   OH2 7484   3.414   3.582   5.189
 2493TIP3    H1 7485   3.397   3.504   5.136
 2493TIP3    H2 7486   3.400   3.655   5.128
 2494TIP3   OH2 7487   0.072   1.191   4.159
 2494TIP3    H1 7488   0.073   1.122   4.093
 2494TIP3    H2 7489   0.019   1.154   4.231
 2495TIP3   OH2 7490   1.561   4.076   0.312
 2495TIP3    H1 7491   1.547   4.021   0.234
 2495TIP3    H2 7492   1.501   4.149   0.300
 2496TIP3   OH2 7493   2.947   4.194   2.045
 2496TIP3    H1 7494   2.935   4.264   1.981
 2496TIP3    H2 7495   2.890   4.219   2.118
 2497TIP3   OH2 7496   2.386   5.945   4.761
 2497TIP3    H1 7497   2.412   6.037   4.759
 2497TIP3    H2 7498   2.296   5.946   4.792
 2498TIP3   OH2 7499   1.412   5.082   0.894
 2498TIP3    H1 7500   1.432   5.026   0.819
 2498TIP3    H2 7501   1.317   5.090   0.893
 2499TIP3   OH2 7502   4.635   2.531   1.586
 2499TIP3    H1 7503   4.578   2.514   1.511
 2499TIP3    H2 7504   4.587   2.597   1.637
 2500TIP3   OH2 7505   1.032   2.149   1.655
 2500TIP3    H1 7506   1.009   2.082   1.719
 2500TIP3    H2 7507   1.021   2.232   1.700
 2501TIP3   OH2 7508   2.111   2.284   3.464
 2501TIP3    H1 7509   2.072   2.365   3.431
 2501TIP3    H2 7510   2.107   2.223   3.390
 2502TIP3   OH2 7511   6.014   2.878   1.940
 2502TIP3    H1 7512   6.097   2.840   1.969
 2502TIP3    H2 7513   5.982   2.817   1.873
 2503TIP3   OH2 7514   5.610   5.692   2.145
 2503TIP3    H1 7515   5.525   5.707   2.102
 2503TIP3    H2 7516   5.667   5.663   2.075
 2504TIP3   OH2 7517   6.028   3.304   1.947
 2504TIP3    H1 7518   6.039   3.237   1.880
 2504TIP3    H2 7519   6.118   3.323   1.977
 2505TIP3   OH2 7520   4.066   0.148   3.207
 2505TIP3    H1 7521   4.067   0.157   3.302
 2505TIP3    H2 7522   3.999   0.209   3.177
 2506TIP3   OH2 7523   2.403   4.369   5.111
 2506TIP3    H1 7524   2.386   4.365   5.017
 2506TIP3    H2 7525   2.432   4.459   5.127
 2507TIP3   OH2 7526   1.268   2.739   2.714
 2507TIP3    H1 7527   1.184   2.694   2.728
 2507TIP3    H2 7528   1.298   2.707   2.629
 2508TIP3   OH2 7529   5.725   3.468   3.809
 2508TIP3    H1 7530   5.640   3.467   3.765
 2508TIP3    H2 7531   5.763   3.553   3.785
 2509TIP3   OH2 7532   2.069   2.005   4.780
 2509TIP3    H1 7533   2.150   1.957   4.801
 2509TIP3    H2 7534   2.097   2.073   4.719
 2510TIP3   OH2 7535   2.936   3.658   4.120
 2510TIP3    H1 7536   2.907   3.637   4.031
 2510TIP3    H2 7537   2.911   3.750   4.132
 2511TIP3   OH2 7538   5.158   0.316   5.119
 2511TIP3    H1 7539   5.172   0.365   5.200
 2511TIP3    H2 7540   5.162   0.381   5.050
 2512TIP3   OH2 7541   0.509   2.251   3.260
 2512TIP3    H1 7542   0.568   2.216   3.327
 2512TIP3    H2 7543   0.531   2.344   3.254
 2513TIP3   OH2 7544   0.829   4.978   0.812
 2513TIP3    H1 7545   0.824   5.014   0.900
 2513TIP3    H2 7546   0.830   4.883   0.825
 2514TIP3   OH2 7547   3.511   5.129   0.945
 2514TIP3    H1 7548   3.543   5.134   1.036
 2514TIP3    H2 7549   3.467   5.044   0.940
 2515TIP3   OH2 7550   3.234   1.887   2.482
 2515TIP3    H1 7551   3.148   1.855   2.454
 2515TIP3    H2 7552   3.216   1.974   2.517
 2516TIP3   OH2 7553   0.268   0.798   1.642
 2516TIP3    H1 7554   0.305   0.874   1.599
 2516TIP3    H2 7555   0.251   0.736   1.571
 2517TIP3   OH2 7556   4.779   4.129   1.883
 2517TIP3    H1 7557   4.792   4.036   1.903
 2517TIP3    H2 7558   4.867   4.164   1.872
 2518TIP3   OH2 7559   2.529   3.836   4.985
 2518TIP3    H1 7560   2.444   3.878   4.972
 2518TIP3    H2 7561   2.533   3.770   4.916
 2519TIP3   OH2 7562   2.982   1.198   1.611
 2519TIP3    H1 7563   2.977   1.248   1.692
 2519TIP3    H2 7564   2.974   1.263   1.541
 2520TIP3   OH2 7565   4.212   2.115   5.081
 2520TIP3    H1 7566   4.298   2.091   5.116
 2520TIP3    H2 7567   4.196   2.203   5.115
 2521TIP3   OH2 7568   5.925   2.662   0.202
 2521TIP3    H1 7569   6.019   2.662   0.220
 2521TIP3    H2 7570   5.913   2.596   0.133
 2522TIP3   OH2 7571   2.911   2.278   2.717
 2522TIP3    H1 7572   2.879   2.367   2.731
 2522TIP3    H2 7573   2.833   2.223   2.723
 2523TIP3   OH2 7574   3.930   5.597   2.712
 2523TIP3    H1 7575   3.896   5.678   2.750
 2523TIP3    H2 7576   4.025   5.609   2.711
 2524TIP3   OH2 7577   1.370   5.259   4.496
 2524TIP3    H1 7578   1.291   5.235   4.449
 2524TIP3    H2 7579   1.395   5.180   4.544
 2525TIP3   OH2 7580   6.105   4.861   2.023
 2525TIP3    H1 7581   6.182   4.861   2.080
 2525TIP3    H2 7582   6.035   4.898   2.077
 2526TIP3   OH2 7583   5.709   1.968   2.127
 2526TIP3    H1 7584   5.640   2.019   2.169
 2526TIP3    H2 7585   5.701   1.880   2.166
 2527TIP3   OH2 7586   0.263   4.133   3.458
 2527TIP3    H1 7587   0.223   4.047   3.443
 2527TIP3    H2 7588   0.243   4.182   3.379
 2528TIP3   OH2 7589   2.670   5.360   0.118
 2528TIP3    H1 7590   2.704   5.299   0.184
 2528TIP3    H2 7591   2.672   5.446   0.161
 2529TIP3   OH2 7592   4.008   0.566   0.367
 2529TIP3    H1 7593   4.071   0.615   0.421
 2529TIP3    H2 7594   3.923   0.591   0.402
 2530TIP3   OH2 7595   3.171   2.967   0.169
 2530TIP3    H1 7596   3.211   3.028   0.108
 2530TIP3    H2 7597   3.077   2.988   0.167
 2531TIP3   OH2 7598   1.117   5.598   4.786
 2531TIP3    H1 7599   1.128   5.688   4.817
 2531TIP3    H2 7600   1.174   5.592   4.709
 2532TIP3   OH2 7601   0.610   2.050   2.878
 2532TIP3    H1 7602   0.549   2.101   2.824
 2532TIP3    H2 7603   0.690   2.101   2.879
 2533TIP3   OH2 7604   2.347   1.049   1.767
 2533TIP3    H1 7605   2.286   1.100   1.713
 2533TIP3    H2 7606   2.292   1.012   1.836
 2534TIP3   OH2 7607   1.017   5.051   2.094
 2534TIP3    H1 7608   1.096   4.998   2.101
 2534TIP3    H2 7609   1.046   5.141   2.111
 2535TIP3   OH2 7610   5.788   2.661   0.438
 2535TIP3    H1 7611   5.850   2.671   0.510
 2535TIP3    H2 7612   5.841   2.670   0.359
 2536TIP3   OH2 7613   5.984   5.738   2.049
 2536TIP3    H1 7614   6.029   5.658   2.073
 2536TIP3    H2 7615   6.049   5.807   2.060
 2537TIP3   OH2 7616   4.210   5.238   2.339
 2537TIP3    H1 7617   4.205   5.274   2.251
 2537TIP3    H2 7618   4.288   5.278   2.378
 2538TIP3   OH2 7619   4.498   5.578   1.755
 2538TIP3    H1 7620   4.547   5.610   1.830
 2538TIP3    H2 7621   4.407   5.577   1.785
 2539TIP3   OH2 7622   2.645   0.612   3.985
 2539TIP3    H1 7623   2.566   0.586   3.937
 2539TIP3    H2 7624   2.615   0.626   4.075
 2540TIP3   OH2 7625   2.560   3.228   3.129
 2540TIP3    H1 7626   2.655   3.243   3.138
 2540TIP3    H2 7627   2.538   3.264   3.043
 2541TIP3   OH2 7628   0.792   0.512   2.549
 2541TIP3    H1 7629   0.885   0.531   2.554
 2541TIP3    H2 7630   0.750   0.578   2.604
 2542TIP3   OH2 7631   1.811   4.527   4.403
 2542TIP3    H1 7632   1.878   4.586   4.437
 2542TIP3    H2 7633   1.857   4.444   4.389
 2543TIP3   OH2 7634   0.086   5.855   3.917
 2543TIP3    H1 7635   0.033   5.794   3.967
 2543TIP3    H2 7636   0.022   5.904   3.865
 2544TIP3   OH2 7637   1.766   2.295   0.287
 2544TIP3    H1 7638   1.851   2.253   0.294
 2544TIP3    H2 7639   1.709   2.244   0.346
 2545TIP3   OH2 7640   2.966   0.102   2.110
 2545TIP3    H1 7641   2.947   0.135   2.197
 2545TIP3    H2 7642   3.052   0.060   2.118
 2546TIP3   OH2 7643   5.877   4.729   0.254
 2546TIP3    H1 7644   5.925   4.646   0.256
 2546TIP3    H2 7645   5.857   4.744   0.162
 2547TIP3   OH2 7646   4.891   2.905   1.850
 2547TIP3    H1 7647   4.874   2.842   1.780
 2547TIP3    H2 7648   4.987   2.911   1.853
 2548TIP3   OH2 7649   1.378   5.910   3.189
 2548TIP3    H1 7650   1.426   5.907   3.272
 2548TIP3    H2 7651   1.345   6.000   3.184
 2549TIP3   OH2 7652   5.587   4.316   4.970
 2549TIP3    H1 7653   5.599   4.399   4.924
 2549TIP3    H2 7654   5.658   4.313   5.034
 2550TIP3   OH2 7655   2.268   3.236   1.961
 2550TIP3    H1 7656   2.196   3.177   1.983
 2550TIP3    H2 7657   2.245   3.319   2.002
 2551TIP3   OH2 7658   6.278   5.089   2.949
 2551TIP3    H1 7659   6.335   5.160   2.919
 2551TIP3    H2 7660   6.192   5.110   2.914
 2552TIP3   OH2 7661   3.792   1.419   1.605
 2552TIP3    H1 7662   3.771   1.381   1.691
 2552TIP3    H2 7663   3.792   1.514   1.620
 2553TIP3   OH2 7664   0.233   5.330   0.610
 2553TIP3    H1 7665   0.233   5.410   0.663
 2553TIP3    H2 7666   0.317   5.332   0.564
 2554TIP3   OH2 7667   5.845   4.112   4.794
 2554TIP3    H1 7668   5.831   4.024   4.829
 2554TIP3    H2 7669   5.924   4.143   4.837
 2555TIP3   OH2 7670   3.324   0.713   0.079
 2555TIP3    H1 7671   3.319   0.666   0.162
 2555TIP3    H2 7672   3.381   0.788   0.096
 2556TIP3   OH2 7673   3.680   4.227   3.770
 2556TIP3    H1 7674   3.633   4.162   3.822
 2556TIP3    H2 7675   3.649   4.212   3.680
 2557TIP3   OH2 7676   5.105   3.763   0.887
 2557TIP3    H1 7677   5.097   3.710   0.807
 2557TIP3    H2 7678   5.085   3.702   0.958
 2558TIP3   OH2 7679   0.790   4.926   2.768
 2558TIP3    H1 7680   0.697   4.937   2.745
 2558TIP3    H2 7681   0.790   4.852   2.829
 2559TIP3   OH2 7682   6.210   1.450   3.113
 2559TIP3    H1 7683   6.204   1.523   3.174
 2559TIP3    H2 7684   6.125   1.406   3.120
 2560TIP3   OH2 7685   5.236   1.919   0.843
 2560TIP3    H1 7686   5.267   1.829   0.840
 2560TIP3    H2 7687   5.220   1.937   0.936
 2561TIP3   OH2 7688   0.125   3.130   4.634
 2561TIP3    H1 7689   0.036   3.131   4.671
 2561TIP3    H2 7690   0.182   3.120   4.710
 2562TIP3   OH2 7691   3.417   0.801   0.780
 2562TIP3    H1 7692   3.446   0.849   0.857
 2562TIP3    H2 7693   3.463   0.843   0.707
 2563TIP3   OH2 7694   4.057   0.086   3.584
 2563TIP3    H1 7695   4.138   0.038   3.601
 2563TIP3    H2 7696   3.989   0.019   3.587
 2564TIP3   OH2 7697   1.952   5.129   3.589
 2564TIP3    H1 7698   2.025   5.068   3.603
 2564TIP3    H2 7699   1.874   5.073   3.593
 2565TIP3   OH2 7700   2.893   2.908   2.336
 2565TIP3    H1 7701   2.973   2.864   2.310
 2565TIP3    H2 7702   2.899   2.995   2.298
 2566TIP3   OH2 7703   5.828   3.819   3.014
 2566TIP3    H1 7704   5.854   3.873   2.939
 2566TIP3    H2 7705   5.742   3.785   2.991
 2567TIP3   OH2 7706   2.621   4.030   3.194
 2567TIP3    H1 7707   2.615   4.123   3.175
 2567TIP3    H2 7708   2.614   4.025   3.290
 2568TIP3   OH2 7709   4.217   1.198   3.931
 2568TIP3    H1 7710   4.160   1.125   3.909
 2568TIP3    H2 7711   4.167   1.249   3.995
 2569TIP3   OH2 7712   5.073   5.118   0.578
 2569TIP3    H1 7713   5.141   5.157   0.633
 2569TIP3    H2 7714   5.014   5.191   0.558
 2570TIP3   OH2 7715   1.130   1.098   5.038
 2570TIP3    H1 7716   1.085   1.015   5.054
 2570TIP3    H2 7717   1.086   1.134   4.961
 2571TIP3   OH2 7718   0.053   0.422   1.758
 2571TIP3    H1 7719   0.010   0.468   1.686
 2571TIP3    H2 7720   0.142   0.407   1.727
 2572TIP3   OH2 7721   4.164   0.997   1.298
 2572TIP3    H1 7722   4.238   1.056   1.311
 2572TIP3    H2 7723   4.088   1.054   1.291
 2573TIP3   OH2 7724   0.883   3.289   4.437
 2573TIP3    H1 7725   0.858   3.197   4.443
 2573TIP3    H2 7726   0.801   3.336   4.424
 2574TIP3   OH2 7727   5.488   1.479   0.865
 2574TIP3    H1 7728   5.519   1.390   0.849
 2574TIP3    H2 7729   5.560   1.535   0.836
 2575TIP3   OH2 7730   2.931   5.483   1.144
 2575TIP3    H1 7731   2.856   5.447   1.191
 2575TIP3    H2 7732   2.897   5.563   1.103
 2576TIP3   OH2 7733   2.727   1.523   3.792
 2576TIP3    H1 7734   2.648   1.494   3.837
 2576TIP3    H2 7735   2.755   1.446   3.742
 2577TIP3   OH2 7736   0.965   3.378   3.802
 2577TIP3    H1 7737   0.932   3.288   3.800
 2577TIP3    H2 7738   0.951   3.407   3.892
 2578TIP3   OH2 7739   5.711   5.141   3.907
 2578TIP3    H1 7740   5.662   5.198   3.846
 2578TIP3    H2 7741   5.671   5.055   3.896
 2579TIP3   OH2 7742   4.726   3.824   3.793
 2579TIP3    H1 7743   4.738   3.798   3.884
 2579TIP3    H2 7744   4.677   3.752   3.754
 2580TIP3   OH2 7745   0.802   4.555   3.216
 2580TIP3    H1 7746   0.749   4.614   3.269
 2580TIP3    H2 7747   0.883   4.545   3.266
 2581TIP3   OH2 7748   1.726   0.667   1.797
 2581TIP3    H1 7749   1.750   0.760   1.803
 2581TIP3    H2 7750   1.652   0.657   1.856
 2582TIP3   OH2 7751   4.407   3.486   4.063
 2582TIP3    H1 7752   4.359   3.537   3.998
 2582TIP3    H2 7753   4.425   3.403   4.019
 2583TIP3   OH2 7754   3.227   5.855   0.106
 2583TIP3    H1 7755   3.171   5.794   0.059
 2583TIP3    H2 7756   3.211   5.940   0.064
 2584TIP3   OH2 7757   1.115   4.514   4.031
 2584TIP3    H1 7758   1.167   4.545   3.958
 2584TIP3    H2 7759   1.173   4.455   4.079
 2585TIP3   OH2 7760   3.838   5.748   1.565
 2585TIP3    H1 7761   3.873   5.670   1.608
 2585TIP3    H2 7762   3.833   5.813   1.635
 2586TIP3   OH2 7763   5.876   0.115   2.905
 2586TIP3    H1 7764   5.898   0.140   2.815
 2586TIP3    H2 7765   5.800   0.168   2.927
 2587TIP3   OH2 7766   6.315   3.360   4.100
 2587TIP3    H1 7767   6.263   3.316   4.032
 2587TIP3    H2 7768   6.252   3.383   4.168
 2588TIP3   OH2 7769   5.207   4.109   4.796
 2588TIP3    H1 7770   5.254   4.157   4.864
 2588TIP3    H2 7771   5.129   4.161   4.778
 2589TIP3   OH2 7772   3.894   2.391   4.683
 2589TIP3    H1 7773   3.898   2.298   4.663
 2589TIP3    H2 7774   3.852   2.396   4.769
 2590TIP3   OH2 7775   2.716   0.612   1.060
 2590TIP3    H1 7776   2.652   0.563   1.008
 2590TIP3    H2 7777   2.786   0.634   0.998
 2591TIP3   OH2 7778   1.948   2.498   3.398
 2591TIP3    H1 7779   2.004   2.575   3.410
 2591TIP3    H2 7780   1.876   2.511   3.458
 2592TIP3   OH2 7781   5.647   3.870   0.125
 2592TIP3    H1 7782   5.730   3.824   0.109
 2592TIP3    H2 7783   5.579   3.805   0.105
 2593TIP3   OH2 7784   0.045   3.542   2.324
 2593TIP3    H1 7785   0.139   3.544   2.344
 2593TIP3    H2 7786   0.005   3.510   2.405
 2594TIP3   OH2 7787   1.117   0.800   0.730
 2594TIP3    H1 7788   1.101   0.755   0.813
 2594TIP3    H2 7789   1.037   0.786   0.679
 2595TIP3   OH2 7790   1.548   0.876   3.693
 2595TIP3    H1 7791   1.560   0.786   3.663
 2595TIP3    H2 7792   1.635   0.915   3.684
 2596TIP3   OH2 7793   0.081   3.572   2.645
 2596TIP3    H1 7794   0.094   3.658   2.606
 2596TIP3    H2 7795   0.161   3.555   2.695
 2597TIP3   OH2 7796   4.425   4.333   1.556
 2597TIP3    H1 7797   4.502   4.316   1.501
 2597TIP3    H2 7798   4.366   4.382   1.499
 2598TIP3   OH2 7799   3.995   1.160   0.810
 2598TIP3    H1 7800   4.024   1.093   0.748
 2598TIP3    H2 7801   4.054   1.233   0.796
 2599TIP3   OH2 7802   3.589   3.245   3.803
 2599TIP3    H1 7803   3.640   3.166   3.823
 2599TIP3    H2 7804   3.554   3.272   3.887
 2600TIP3   OH2 7805   2.562   5.745   3.178
 2600TIP3    H1 7806   2.494   5.789   3.127
 2600TIP3    H2 7807   2.639   5.746   3.121
 2601TIP3   OH2 7808   0.039   1.399   1.646
 2601TIP3    H1 7809   0.009   1.393   1.737
 2601TIP3    H2 7810   0.021   1.313   1.609
 2602TIP3   OH2 7811   3.884   5.660   0.484
 2602TIP3    H1 7812   3.828   5.734   0.463
 2602TIP3    H2 7813   3.952   5.660   0.416
 2603TIP3   OH2 7814   2.229   0.847   0.565
 2603TIP3    H1 7815   2.201   0.863   0.654
 2603TIP3    H2 7816   2.161   0.791   0.528
 2604TIP3   OH2 7817   0.715   3.624   2.088
 2604TIP3    H1 7818   0.652   3.684   2.128
 2604TIP3    H2 7819   0.796   3.674   2.083
 2605TIP3   OH2 7820   5.033   5.051   3.885
 2605TIP3    H1 7821   5.123   5.023   3.897
 2605TIP3    H2 7822   5.019   5.047   3.790
 2606TIP3   OH2 7823   3.316   4.063   1.618
 2606TIP3    H1 7824   3.243   4.053   1.557
 2606TIP3    H2 7825   3.275   4.088   1.701
 2607TIP3   OH2 7826   1.917   1.819   5.073
 2607TIP3    H1 7827   1.977   1.864   5.132
 2607TIP3    H2 7828   1.968   1.746   5.037
 2608TIP3   OH2 7829   2.305   4.478   2.489
 2608TIP3    H1 7830   2.259   4.501   2.408
 2608TIP3    H2 7831   2.394   4.458   2.461
 2609TIP3   OH2 7832   1.013   2.188   3.422
 2609TIP3    H1 7833   0.992   2.269   3.374
 2609TIP3    H2 7834   0.960   2.121   3.380
 2610TIP3   OH2 7835   0.342   3.478   1.995
 2610TIP3    H1 7836   0.380   3.537   1.931
 2610TIP3    H2 7837   0.296   3.534   2.057
 2611TIP3   OH2 7838   3.874   4.508   4.825
 2611TIP3    H1 7839   3.936   4.440   4.850
 2611TIP3    H2 7840   3.908   4.589   4.863
 2612TIP3   OH2 7841   3.144   1.471   3.103
 2612TIP3    H1 7842   3.236   1.466   3.127
 2612TIP3    H2 7843   3.114   1.555   3.138
 2613TIP3   OH2 7844   0.267   2.996   4.406
 2613TIP3    H1 7845   0.230   2.908   4.400
 2613TIP3    H2 7846   0.213   3.040   4.472
 2614TIP3   OH2 7847   0.185   4.903   0.276
 2614TIP3    H1 7848   0.162   4.901   0.369
 2614TIP3    H2 7849   0.281   4.908   0.275
 2615TIP3   OH2 7850   4.048   1.416   2.674
 2615TIP3    H1 7851   4.082   1.484   2.616
 2615TIP3    H2 7852   4.067   1.334   2.628
 2616TIP3   OH2 7853   0.843   4.339   3.977
 2616TIP3    H1 7854   0.805   4.256   4.004
 2616TIP3    H2 7855   0.913   4.356   4.040
 2617TIP3   OH2 7856   1.608   3.814   2.207
 2617TIP3    H1 7857   1.648   3.727   2.217
 2617TIP3    H2 7858   1.534   3.814   2.268
 2618TIP3   OH2 7859   5.896   4.054   2.863
 2618TIP3    H1 7860   5.921   4.115   2.932
 2618TIP3    H2 7861   5.943   4.085   2.785
 2619TIP3   OH2 7862   4.294   1.887   0.544
 2619TIP3    H1 7863   4.369   1.863   0.598
 2619TIP3    H2 7864   4.235   1.933   0.604
 2620TIP3   OH2 7865   1.976   5.712   3.509
 2620TIP3    H1 7866   1.891   5.703   3.466
 2620TIP3    H2 7867   2.023   5.776   3.457
 2621TIP3   OH2 7868   4.112   0.125   2.132
 2621TIP3    H1 7869   4.029   0.087   2.102
 2621TIP3    H2 7870   4.173   0.107   2.060
 2622TIP3   OH2 7871   3.521   1.661   0.270
 2622TIP3    H1 7872   3.515   1.748   0.230
 2622TIP3    H2 7873   3.520   1.600   0.196
 2623TIP3   OH2 7874   6.127   2.550   2.896
 2623TIP3    H1 7875   6.105   2.620   2.959
 2623TIP3    H2 7876   6.045   2.503   2.884
 2624TIP3   OH2 7877   5.610   4.356   1.081
 2624TIP3    H1 7878   5.582   4.410   1.007
 2624TIP3    H2 7879   5.529   4.321   1.118
 2625TIP3   OH2 7880   3.841   3.941   2.146
 2625TIP3    H1 7881   3.838   3.945   2.051
 2625TIP3    H2 7882   3.761   3.984   2.175
 2626TIP3   OH2 7883   2.102   5.721   4.846
 2626TIP3    H1 7884   2.109   5.812   4.874
 2626TIP3    H2 7885   2.028   5.686   4.896
 2627TIP3   OH2 7886   5.809   4.919   4.163
 2627TIP3    H1 7887   5.733   4.885   4.116
 2627TIP3    H2 7888   5.831   4.850   4.226
 2628TIP3   OH2 7889   5.664   5.779   2.399
 2628TIP3    H1 7890   5.720   5.706   2.424
 2628TIP3    H2 7891   5.644   5.764   2.307
 2629TIP3   OH2 7892   4.156   2.665   0.993
 2629TIP3    H1 7893   4.212   2.712   1.055
 2629TIP3    H2 7894   4.090   2.622   1.048
 2630TIP3   OH2 7895   5.083   0.808   1.638
 2630TIP3    H1 7896   5.156   0.747   1.650
 2630TIP3    H2 7897   5.120   0.894   1.658
 2631TIP3   OH2 7898   1.551   2.440   0.389
 2631TIP3    H1 7899   1.638   2.413   0.357
 2631TIP3    H2 7900   1.495   2.434   0.311
 2632TIP3   OH2 7901   2.385   5.498   0.767
 2632TIP3    H1 7902   2.401   5.410   0.801
 2632TIP3    H2 7903   2.318   5.535   0.826
 2633TIP3   OH2 7904   1.220   5.438   3.876
 2633TIP3    H1 7905   1.139   5.479   3.907
 2633TIP3    H2 7906   1.272   5.511   3.842
 2634TIP3   OH2 7907   6.075   4.202   4.937
 2634TIP3    H1 7908   6.138   4.197   5.009
 2634TIP3    H2 7909   6.023   4.280   4.956
 2635TIP3   OH2 7910   2.330   3.766   2.938
 2635TIP3    H1 7911   2.281   3.746   2.858
 2635TIP3    H2 7912   2.359   3.680   2.970
 2636TIP3   OH2 7913   4.296   4.487   1.370
 2636TIP3    H1 7914   4.202   4.474   1.354
 2636TIP3    H2 7915   4.336   4.481   1.284
 2637TIP3   OH2 7916   6.047   0.102   1.749
 2637TIP3    H1 7917   6.092   0.129   1.830
 2637TIP3    H2 7918   5.996   0.025   1.775
 2638TIP3   OH2 7919   1.047   1.292   4.204
 2638TIP3    H1 7920   1.142   1.294   4.193
 2638TIP3    H2 7921   1.012   1.308   4.116
 2639TIP3   OH2 7922   0.519   0.651   4.372
 2639TIP3    H1 7923   0.576   0.583   4.407
 2639TIP3    H2 7924   0.475   0.610   4.298
 2640TIP3   OH2 7925   5.298   3.198   1.091
 2640TIP3    H1 7926   5.264   3.116   1.058
 2640TIP3    H2 7927   5.225   3.237   1.140
 2641TIP3   OH2 7928   5.052   5.393   1.095
 2641TIP3    H1 7929   5.140   5.389   1.056
 2641TIP3    H2 7930   5.041   5.309   1.139
 2642TIP3   OH2 7931   1.217   4.819   0.972
 2642TIP3    H1 7932   1.183   4.899   1.013
 2642TIP3    H2 7933   1.154   4.751   0.997
 2643TIP3   OH2 7934   0.188   0.856   3.106
 2643TIP3    H1 7935   0.108   0.888   3.063
 2643TIP3    H2 7936   0.156   0.804   3.180
 2644TIP3   OH2 7937   6.003   2.295   4.345
 2644TIP3    H1 7938   5.946   2.358   4.299
 2644TIP3    H2 7939   6.056   2.256   4.275
 2645TIP3   OH2 7940   4.986   5.352   2.742
 2645TIP3    H1 7941   4.968   5.443   2.765
 2645TIP3    H2 7942   5.073   5.335   2.777
 2646TIP3   OH2 7943   1.460   1.322   3.829
 2646TIP3    H1 7944   1.424   1.234   3.814
 2646TIP3    H2 7945   1.434   1.372   3.752
 2647TIP3   OH2 7946   4.254   3.310   1.282
 2647TIP3    H1 7947   4.260   3.311   1.187
 2647TIP3    H2 7948   4.168   3.269   1.299
 2648TIP3   OH2 7949   3.860   0.372   3.248
 2648TIP3    H1 7950   3.876   0.442   3.185
 2648TIP3    H2 7951   3.809   0.413   3.317
 2649TIP3   OH2 7952   1.169   3.465   2.055
 2649TIP3    H1 7953   1.261   3.477   2.036
 2649TIP3    H2 7954   1.166   3.452   2.150
 2650TIP3   OH2 7955   5.142   5.137   1.171
 2650TIP3    H1 7956   5.231   5.147   1.139
 2650TIP3    H2 7957   5.108   5.061   1.123
 2651TIP3   OH2 7958   6.188   4.294   3.452
 2651TIP3    H1 7959   6.171   4.244   3.532
 2651TIP3    H2 7960   6.233   4.232   3.394
 2652TIP3   OH2 7961   2.374   5.957   0.987
 2652TIP3    H1 7962   2.407   5.873   1.018
 2652TIP3    H2 7963   2.450   6.000   0.947
 2653TIP3   OH2 7964   1.758   4.175   1.140
 2653TIP3    H1 7965   1.667   4.194   1.118
 2653TIP3    H2 7966   1.780   4.239   1.208
 2654TIP3   OH2 7967   0.551   0.005   1.371
 2654TIP3    H1 7968   0.626   0.064   1.362
 2654TIP3    H2 7969   0.530  -0.021   1.281
 2655TIP3   OH2 7970   4.349   0.701   1.964
 2655TIP3    H1 7971   4.268   0.726   1.919
 2655TIP3    H2 7972   4.355   0.607   1.951
 2656TIP3   OH2 7973   5.352   5.039   4.157
 2656TIP3    H1 7974   5.365   4.945   4.145
 2656TIP3    H2 7975   5.263   5.048   4.190
 2657TIP3   OH2 7976   1.235   4.889   1.969
 2657TIP3    H1 7977   1.234   4.827   1.897
 2657TIP3    H2 7978   1.327   4.907   1.986
 2658TIP3   OH2 7979   1.534   4.364   0.374
 2658TIP3    H1 7980   1.626   4.341   0.386
 2658TIP3    H2 7981   1.533   4.460   0.377
 2659TIP3   OH2 7982   6.122   0.786   4.976
 2659TIP3    H1 7983   6.056   0.854   4.959
 2659TIP3    H2 7984   6.180   0.825   5.041
 2660TIP3   OH2 7985   3.723   5.004   2.932
 2660TIP3    H1 7986   3.752   4.959   3.011
 2660TIP3    H2 7987   3.802   5.043   2.895
 2661TIP3   OH2 7988   3.676   4.330   0.112
 2661TIP3    H1 7989   3.603   4.354   0.054
 2661TIP3    H2 7990   3.634   4.293   0.189
 2662TIP3   OH2 7991   4.533   2.514   0.710
 2662TIP3    H1 7992   4.472   2.580   0.743
 2662TIP3    H2 7993   4.514   2.435   0.760
 2663TIP3   OH2 7994   6.255   5.762   2.696
 2663TIP3    H1 7995   6.284   5.758   2.604
 2663TIP3    H2 7996   6.193   5.835   2.698
 2664TIP3   OH2 7997   2.519   4.932   1.426
 2664TIP3    H1 7998   2.431   4.965   1.409
 2664TIP3    H2 7999   2.524   4.851   1.376
 2665TIP3   OH2 8000   2.388   0.696   2.393
 2665TIP3    H1 8001   2.368   0.604   2.407
 2665TIP3    H2 8002   2.435   0.698   2.310
 2666TIP3   OH2 8003   6.090   3.647   0.162
 2666TIP3    H1 8004   6.085   3.635   0.257
 2666TIP3    H2 8005   6.178   3.620   0.139
 2667TIP3   OH2 8006   0.574   2.792   1.309
 2667TIP3    H1 8007   0.652   2.835   1.344
 2667TIP3    H2 8008   0.553   2.840   1.229
 2668TIP3   OH2 8009   0.869   0.650   0.172
 2668TIP3    H1 8010   0.861   0.745   0.169
 2668TIP3    H2 8011   0.866   0.623   0.080
 2669TIP3   OH2 8012   2.296   0.724   1.457
 2669TIP3    H1 8013   2.295   0.804   1.510
 2669TIP3    H2 8014   2.290   0.756   1.367
 2670TIP3   OH2 8015   1.654   1.589   2.540
 2670TIP3    H1 8016   1.616   1.625   2.620
 2670TIP3    H2 8017   1.736   1.636   2.529
 2671TIP3   OH2 8018   5.974   4.638   0.889
 2671TIP3    H1 8019   6.062   4.632   0.927
 2671TIP3    H2 8020   5.989   4.651   0.795
 2672TIP3   OH2 8021   0.389   3.396   3.902
 2672TIP3    H1 8022   0.479   3.425   3.915
 2672TIP3    H2 8023   0.351   3.396   3.990
 2673TIP3   OH2 8024   4.175   4.674   2.587
 2673TIP3    H1 8025   4.215   4.735   2.524
 2673TIP3    H2 8026   4.126   4.730   2.646
 2674TIP3   OH2 8027   2.819   2.876   3.861
 2674TIP3    H1 8028   2.889   2.855   3.922
 2674TIP3    H2 8029   2.809   2.798   3.807
 2675TIP3   OH2 8030   3.136   5.641   2.772
 2675TIP3    H1 8031   3.179   5.588   2.705
 2675TIP3    H2 8032   3.142   5.730   2.739
 2676TIP3   OH2 8033   4.348   4.246   4.133
 2676TIP3    H1 8034   4.372   4.292   4.214
 2676TIP3    H2 8035   4.258   4.273   4.115
 2677TIP3   OH2 8036   4.803   4.148   0.016
 2677TIP3    H1 8037   4.898   4.157   0.012
 2677TIP3    H2 8038   4.777   4.200   0.092
 2678TIP3   OH2 8039   3.104   5.051   0.161
 2678TIP3    H1 8040   3.096   5.140   0.126
 2678TIP3    H2 8041   3.021   5.009   0.138
 2679TIP3   OH2 8042   4.239   4.117   1.198
 2679TIP3    H1 8043   4.173   4.075   1.142
 2679TIP3    H2 8044   4.212   4.209   1.202
 2680TIP3   OH2 8045   4.978   4.996   2.047
 2680TIP3    H1 8046   5.042   5.062   2.073
 2680TIP3    H2 8047   4.987   4.990   1.952
 2681TIP3   OH2 8048   0.583   2.637   5.180
 2681TIP3    H1 8049   0.656   2.612   5.236
 2681TIP3    H2 8050   0.595   2.585   5.101
 2682TIP3   OH2 8051   3.714   5.912   1.168
 2682TIP3    H1 8052   3.743   5.842   1.226
 2682TIP3    H2 8053   3.745   5.885   1.081
 2683TIP3   OH2 8054   4.266   2.313   0.066
 2683TIP3    H1 8055   4.335   2.311   0.133
 2683TIP3    H2 8056   4.251   2.221   0.045
 2684TIP3   OH2 8057   1.580   1.678   4.032
 2684TIP3    H1 8058   1.617   1.618   3.968
 2684TIP3    H2 8059   1.521   1.734   3.982
 2685TIP3   OH2 8060   6.068   3.858   1.225
 2685TIP3    H1 8061   6.063   3.824   1.314
 2685TIP3    H2 8062   6.161   3.873   1.210
 2686TIP3   OH2 8063   5.364   2.340   2.274
 2686TIP3    H1 8064   5.314   2.332   2.193
 2686TIP3    H2 8065   5.331   2.420   2.315
 2687TIP3   OH2 8066   3.981   0.984   3.440
 2687TIP3    H1 8067   3.987   1.005   3.347
 2687TIP3    H2 8068   4.063   0.938   3.460
 2688TIP3   OH2 8069   2.229   5.208   3.344
 2688TIP3    H1 8070   2.264   5.132   3.391
 2688TIP3    H2 8071   2.248   5.282   3.401
 2689TIP3   OH2 8072   1.891   2.825   5.083
 2689TIP3    H1 8073   1.821   2.847   5.144
 2689TIP3    H2 8074   1.909   2.732   5.100
 2690TIP3   OH2 8075   4.614   3.299   0.780
 2690TIP3    H1 8076   4.645   3.369   0.836
 2690TIP3    H2 8077   4.528   3.327   0.750
 2691TIP3   OH2 8078   5.002   2.844   3.189
 2691TIP3    H1 8079   4.941   2.809   3.124
 2691TIP3    H2 8080   5.063   2.898   3.139
 2692TIP3   OH2 8081   4.396   1.440   0.531
 2692TIP3    H1 8082   4.483   1.474   0.551
 2692TIP3    H2 8083   4.357   1.508   0.474
 2693TIP3   OH2 8084   5.504   3.871   1.593
 2693TIP3    H1 8085   5.466   3.955   1.567
 2693TIP3    H2 8086   5.429   3.813   1.602
 2694TIP3   OH2 8087   2.902   3.777   0.771
 2694TIP3    H1 8088   2.855   3.832   0.708
 2694TIP3    H2 8089   2.926   3.699   0.722
 2695TIP3   OH2 8090   1.647   3.682   0.139
 2695TIP3    H1 8091   1.589   3.758   0.135
 2695TIP3    H2 8092   1.700   3.697   0.218
 2696TIP3   OH2 8093   5.006   1.204   0.559
 2696TIP3    H1 8094   5.077   1.263   0.585
 2696TIP3    H2 8095   4.948   1.259   0.507
 2697TIP3   OH2 8096   6.069   0.467   3.029
 2697TIP3    H1 8097   6.135   0.405   3.001
 2697TIP3    H2 8098   6.026   0.425   3.104
 2698TIP3   OH2 8099   1.784   2.991   0.681
 2698TIP3    H1 8100   1.809   3.044   0.606
 2698TIP3    H2 8101   1.688   2.986   0.676
 2699TIP3   OH2 8102   2.799   4.188   3.965
 2699TIP3    H1 8103   2.884   4.218   3.997
 2699TIP3    H2 8104   2.749   4.165   4.043
 2700TIP3   OH2 8105   0.585   5.670   1.098
 2700TIP3    H1 8106   0.662   5.628   1.060
 2700TIP3    H2 8107   0.619   5.750   1.139
 2701TIP3   OH2 8108   4.047   0.416   0.927
 2701TIP3    H1 8109   4.015   0.336   0.969
 2701TIP3    H2 8110   4.034   0.401   0.833
 2702TIP3   OH2 8111   3.692   2.935   3.175
 2702TIP3    H1 8112   3.747   2.946   3.253
 2702TIP3    H2 8113   3.730   2.860   3.130
 2703TIP3   OH2 8114   1.011   1.660   0.478
 2703TIP3    H1 8115   1.037   1.732   0.421
 2703TIP3    H2 8116   1.068   1.668   0.554
 2704TIP3   OH2 8117   3.977   3.531   1.717
 2704TIP3    H1 8118   4.057   3.486   1.688
 2704TIP3    H2 8119   3.951   3.483   1.796
 2705TIP3   OH2 8120   4.622   3.624   0.507
 2705TIP3    H1 8121   4.645   3.588   0.593
 2705TIP3    H2 8122   4.544   3.677   0.523
 2706TIP3   OH2 8123   0.208   5.736   4.293
 2706TIP3    H1 8124   0.214   5.676   4.367
 2706TIP3    H2 8125   0.115   5.742   4.274
 2707TIP3   OH2 8126   5.009   0.604   0.944
 2707TIP3    H1 8127   5.082   0.659   0.969
 2707TIP3    H2 8128   5.048   0.518   0.929
 2708TIP3   OH2 8129   2.668   3.105   0.172
 2708TIP3    H1 8130   2.739   3.137   0.227
 2708TIP3    H2 8131   2.611   3.180   0.160
 2709TIP3   OH2 8132   5.808   2.597   2.030
 2709TIP3    H1 8133   5.753   2.531   2.072
 2709TIP3    H2 8134   5.792   2.586   1.937
 2710TIP3   OH2 8135   2.333   3.009   2.488
 2710TIP3    H1 8136   2.322   3.064   2.410
 2710TIP3    H2 8137   2.428   2.998   2.496
 2711TIP3   OH2 8138   1.390   4.960   3.651
 2711TIP3    H1 8139   1.297   4.973   3.633
 2711TIP3    H2 8140   1.416   4.890   3.592
 2712TIP3   OH2 8141   5.350   2.155   4.139
 2712TIP3    H1 8142   5.333   2.140   4.232
 2712TIP3    H2 8143   5.347   2.250   4.129
 2713TIP3   OH2 8144   2.876   0.126   3.746
 2713TIP3    H1 8145   2.784   0.123   3.771
 2713TIP3    H2 8146   2.921   0.072   3.811
 2714TIP3   OH2 8147   0.755   2.279   0.396
 2714TIP3    H1 8148   0.765   2.239   0.309
 2714TIP3    H2 8149   0.678   2.238   0.433
 2715TIP3   OH2 8150   1.243   5.220   4.067
 2715TIP3    H1 8151   1.258   5.257   3.980
 2715TIP3    H2 8152   1.180   5.280   4.107
 2716TIP3   OH2 8153   6.238   5.709   4.063
 2716TIP3    H1 8154   6.159   5.722   4.011
 2716TIP3    H2 8155   6.236   5.778   4.128
 2717TIP3   OH2 8156   1.098   4.056   2.007
 2717TIP3    H1 8157   1.007   4.027   1.993
 2717TIP3    H2 8158   1.149   3.976   2.007
 2718TIP3   OH2 8159   1.477   0.915   1.731
 2718TIP3    H1 8160   1.393   0.923   1.776
 2718TIP3    H2 8161   1.543   0.927   1.800
 2719TIP3   OH2 8162   1.884   3.595   1.559
 2719TIP3    H1 8163   1.934   3.530   1.608
 2719TIP3    H2 8164   1.949   3.640   1.505
 2720TIP3   OH2 8165   1.076   4.575   1.002
 2720TIP3    H1 8166   1.027   4.579   1.084
 2720TIP3    H2 8167   1.067   4.484   0.974
 2721TIP3   OH2 8168   1.797   1.019   0.363
 2721TIP3    H1 8169   1.724   0.963   0.337
 2721TIP3    H2 8170   1.763   1.108   0.359
 2722TIP3   OH2 8171   2.868   4.781   2.096
 2722TIP3    H1 8172   2.782   4.742   2.081
 2722TIP3    H2 8173   2.901   4.801   2.008
 2723TIP3   OH2 8174   2.516   1.437   2.626
 2723TIP3    H1 8175   2.436   1.426   2.574
 2723TIP3    H2 8176   2.499   1.389   2.707
 2724TIP3   OH2 8177   6.293   0.515   0.647
 2724TIP3    H1 8178   6.261   0.440   0.696
 2724TIP3    H2 8179   6.347   0.564   0.710
 2725TIP3   OH2 8180   4.573   3.548   2.024
 2725TIP3    H1 8181   4.527   3.614   1.972
 2725TIP3    H2 8182   4.568   3.580   2.114
 2726TIP3   OH2 8183   4.552   4.250   3.924
 2726TIP3    H1 8184   4.514   4.213   4.004
 2726TIP3    H2 8185   4.549   4.178   3.861
 2727TIP3   OH2 8186   2.022   2.360   0.629
 2727TIP3    H1 8187   2.057   2.296   0.567
 2727TIP3    H2 8188   2.095   2.379   0.688
 2728TIP3   OH2 8189   3.036   3.041   1.004
 2728TIP3    H1 8190   2.986   2.960   0.994
 2728TIP3    H2 8191   3.064   3.062   0.914
 2729TIP3   OH2 8192   3.148   3.772   3.470
 2729TIP3    H1 8193   3.205   3.844   3.498
 2729TIP3    H2 8194   3.089   3.811   3.405
 2730TIP3   OH2 8195   1.792   0.736   2.687
 2730TIP3    H1 8196   1.708   0.705   2.653
 2730TIP3    H2 8197   1.770   0.809   2.744
 2731TIP3   OH2 8198   5.905   5.472   2.503
 2731TIP3    H1 8199   5.967   5.482   2.576
 2731TIP3    H2 8200   5.819   5.468   2.546
 2732TIP3   OH2 8201   3.152   2.194   2.101
 2732TIP3    H1 8202   3.161   2.109   2.057
 2732TIP3    H2 8203   3.066   2.189   2.144
 2733TIP3   OH2 8204   3.630   0.138   4.223
 2733TIP3    H1 8205   3.540   0.167   4.236
 2733TIP3    H2 8206   3.684   0.209   4.258
 2734TIP3   OH2 8207   3.179   5.931   3.904
 2734TIP3    H1 8208   3.201   5.853   3.954
 2734TIP3    H2 8209   3.123   5.982   3.962
 2735TIP3   OH2 8210   5.285   2.012   2.881
 2735TIP3    H1 8211   5.226   1.994   2.808
 2735TIP3    H2 8212   5.228   2.047   2.950
 2736TIP3   OH2 8213   5.873   4.324   2.643
 2736TIP3    H1 8214   5.847   4.387   2.575
 2736TIP3    H2 8215   5.801   4.261   2.646
 2737TIP3   OH2 8216   4.649   1.698   3.860
 2737TIP3    H1 8217   4.638   1.762   3.931
 2737TIP3    H2 8218   4.727   1.649   3.885
 2738TIP3   OH2 8219   2.928   2.660   0.811
 2738TIP3    H1 8220   2.934   2.699   0.898
 2738TIP3    H2 8221   2.963   2.727   0.752
 2739TIP3   OH2 8222   1.524   5.622   4.742
 2739TIP3    H1 8223   1.498   5.608   4.651
 2739TIP3    H2 8224   1.582   5.549   4.762
 2740TIP3   OH2 8225   3.817   4.666   0.285
 2740TIP3    H1 8226   3.780   4.740   0.238
 2740TIP3    H2 8227   3.894   4.703   0.330
 2741TIP3   OH2 8228   5.699   3.835   0.961
 2741TIP3    H1 8229   5.699   3.930   0.948
 2741TIP3    H2 8230   5.690   3.799   0.872
 2742TIP3   OH2 8231   0.340   0.576   0.485
 2742TIP3    H1 8232   0.262   0.524   0.503
 2742TIP3    H2 8233   0.413   0.515   0.498
 2743TIP3   OH2 8234   0.308   1.679   0.974
 2743TIP3    H1 8235   0.389   1.725   0.951
 2743TIP3    H2 8236   0.336   1.612   1.037
 2744TIP3   OH2 8237   2.724   2.365   4.733
 2744TIP3    H1 8238   2.683   2.413   4.661
 2744TIP3    H2 8239   2.781   2.428   4.775
 2745TIP3   OH2 8240   0.318   1.444   1.801
 2745TIP3    H1 8241   0.232   1.471   1.831
 2745TIP3    H2 8242   0.377   1.516   1.825
 2746TIP3   OH2 8243   5.700   5.055   0.392
 2746TIP3    H1 8244   5.637   5.124   0.415
 2746TIP3    H2 8245   5.690   4.990   0.462
 2747TIP3   OH2 8246   3.385   3.485   1.332
 2747TIP3    H1 8247   3.367   3.402   1.377
 2747TIP3    H2 8248   3.311   3.541   1.355
 2748TIP3   OH2 8249   5.500   3.097   4.893
 2748TIP3    H1 8250   5.408   3.078   4.873
 2748TIP3    H2 8251   5.507   3.192   4.882
 2749TIP3   OH2 8252   0.305   1.963   0.359
 2749TIP3    H1 8253   0.343   1.877   0.342
 2749TIP3    H2 8254   0.241   1.976   0.288
 2750TIP3   OH2 8255   1.438   3.840   1.437
 2750TIP3    H1 8256   1.523   3.851   1.481
 2750TIP3    H2 8257   1.430   3.745   1.425
 2751TIP3   OH2 8258   1.263   2.067   1.949
 2751TIP3    H1 8259   1.337   2.057   1.889
 2751TIP3    H2 8260   1.278   2.151   1.991
 2752TIP3   OH2 8261   4.867   4.384   3.360
 2752TIP3    H1 8262   4.943   4.328   3.342
 2752TIP3    H2 8263   4.792   4.325   3.357
 2753TIP3   OH2 8264   1.328   4.208   2.522
 2753TIP3    H1 8265   1.280   4.125   2.526
 2753TIP3    H2 8266   1.416   4.186   2.552
 2754TIP3   OH2 8267   6.022   3.882   0.472
 2754TIP3    H1 8268   5.947   3.928   0.434
 2754TIP3    H2 8269   6.003   3.879   0.566
 2755TIP3   OH2 8270   4.813   2.270   1.023
 2755TIP3    H1 8271   4.902   2.237   1.009
 2755TIP3    H2 8272   4.765   2.197   1.062
 2756TIP3   OH2 8273   0.903   4.705   0.832
 2756TIP3    H1 8274   0.929   4.681   0.744
 2756TIP3    H2 8275   0.963   4.657   0.889
 2757TIP3   OH2 8276   4.969   0.837   3.217
 2757TIP3    H1 8277   4.904   0.898   3.183
 2757TIP3    H2 8278   5.049   0.889   3.226
 2758TIP3   OH2 8279   4.371   1.056   4.152
 2758TIP3    H1 8280   4.299   0.994   4.158
 2758TIP3    H2 8281   4.348   1.114   4.080
 2759TIP3   OH2 8282   3.086   5.757   3.702
 2759TIP3    H1 8283   3.113   5.811   3.776
 2759TIP3    H2 8284   3.110   5.668   3.728
 2760TIP3   OH2 8285   5.790   2.674   3.516
 2760TIP3    H1 8286   5.719   2.733   3.489
 2760TIP3    H2 8287   5.753   2.586   3.505
 2761TIP3   OH2 8288   6.208   2.626   0.200
 2761TIP3    H1 8289   6.255   2.544   0.213
 2761TIP3    H2 8290   6.222   2.648   0.108
 2762TIP3   OH2 8291   1.949   3.567   0.616
 2762TIP3    H1 8292   1.995   3.530   0.541
 2762TIP3    H2 8293   1.874   3.508   0.630
 2763TIP3   OH2 8294   4.981   3.961   4.595
 2763TIP3    H1 8295   4.954   4.001   4.512
 2763TIP3    H2 8296   5.064   4.003   4.616
 2764TIP3   OH2 8297   2.044   3.684   2.212
 2764TIP3    H1 8298   2.007   3.724   2.133
 2764TIP3    H2 8299   2.125   3.643   2.182
 2765TIP3   OH2 8300   4.399   1.778   4.548
 2765TIP3    H1 8301   4.493   1.771   4.533
 2765TIP3    H2 8302   4.391   1.809   4.639
 2766TIP3   OH2 8303   4.066   5.359   4.609
 2766TIP3    H1 8304   4.002   5.417   4.567
 2766TIP3    H2 8305   4.139   5.416   4.633
 2767TIP3   OH2 8306   4.883   1.680   1.825
 2767TIP3    H1 8307   4.847   1.749   1.768
 2767TIP3    H2 8308   4.967   1.714   1.854
 2768TIP3   OH2 8309   5.170   5.857   4.163
 2768TIP3    H1 8310   5.091   5.813   4.130
 2768TIP3    H2 8311   5.223   5.872   4.085
 2769TIP3   OH2 8312   4.795   1.932   4.016
 2769TIP3    H1 8313   4.813   1.996   4.084
 2769TIP3    H2 8314   4.881   1.900   3.989
 2770TIP3   OH2 8315   3.229   0.712   1.811
 2770TIP3    H1 8316   3.148   0.683   1.769
 2770TIP3    H2 8317   3.283   0.633   1.815
 2771TIP3   OH2 8318   1.325   2.630   2.456
 2771TIP3    H1 8319   1.406   2.580   2.468
 2771TIP3    H2 8320   1.293   2.603   2.369
 2772TIP3   OH2 8321   4.528   0.372   4.511
 2772TIP3    H1 8322   4.580   0.382   4.431
 2772TIP3    H2 8323   4.481   0.455   4.520
 2773TIP3   OH2 8324   2.619   5.052  -0.026
 2773TIP3    H1 8325   2.644   5.126   0.029
 2773TIP3    H2 8326   2.577   5.092  -0.102
 2774TIP3   OH2 8327   1.874   1.470   0.837
 2774TIP3    H1 8328   1.850   1.419   0.759
 2774TIP3    H2 8329   1.884   1.405   0.906
 2775TIP3   OH2 8330   4.602   4.663   0.241
 2775TIP3    H1 8331   4.679   4.667   0.185
 2775TIP3    H2 8332   4.540   4.724   0.201
 2776TIP3   OH2 8333   2.560   4.306   2.025
 2776TIP3    H1 8334   2.538   4.338   1.937
 2776TIP3    H2 8335   2.485   4.330   2.079
 2777TIP3   OH2 8336   3.026   4.848   0.726
 2777TIP3    H1 8337   2.955   4.903   0.759
 2777TIP3    H2 8338   3.095   4.855   0.791
 2778TIP3   OH2 8339   4.263   4.439   5.077
 2778TIP3    H1 8340   4.311   4.460   5.158
 2778TIP3    H2 8341   4.257   4.344   5.078
 2779TIP3   OH2 8342   5.145   5.263   4.522
 2779TIP3    H1 8343   5.129   5.178   4.562
 2779TIP3    H2 8344   5.226   5.252   4.472
 2780TIP3   OH2 8345   0.984   4.307   3.717
 2780TIP3    H1 8346   0.938   4.326   3.799
 2780TIP3    H2 8347   0.988   4.392   3.672
 2781TIP3   OH2 8348   3.291   0.142   4.760
 2781TIP3    H1 8349   3.279   0.235   4.738
 2781TIP3    H2 8350   3.272   0.138   4.854
 2782TIP3   OH2 8351   2.925   0.188   4.901
 2782TIP3    H1 8352   2.957   0.263   4.852
 2782TIP3    H2 8353   2.840   0.216   4.935
 2783TIP3   OH2 8354   4.245   3.459   2.069
 2783TIP3    H1 8355   4.176   3.471   2.135
 2783TIP3    H2 8356   4.248   3.542   2.022
 2784TIP3   OH2 8357   3.869   4.055   4.903
 2784TIP3    H1 8358   3.888   4.020   4.990
 2784TIP3    H2 8359   3.774   4.067   4.903
 2785TIP3   OH2 8360   4.117   0.588   5.047
 2785TIP3    H1 8361   4.133   0.538   5.127
 2785TIP3    H2 8362   4.025   0.616   5.054
 2786TIP3   OH2 8363   1.490   0.909   0.127
 2786TIP3    H1 8364   1.402   0.914   0.090
 2786TIP3    H2 8365   1.476   0.907   0.221
 2787TIP3   OH2 8366   0.969   5.400   1.497
 2787TIP3    H1 8367   0.992   5.481   1.542
 2787TIP3    H2 8368   0.880   5.380   1.527
 2788TIP3   OH2 8369   1.471   5.050   4.131
 2788TIP3    H1 8370   1.453   4.974   4.186
 2788TIP3    H2 8371   1.390   5.102   4.134
 2789TIP3   OH2 8372   6.167   5.888   2.361
 2789TIP3    H1 8373   6.080   5.859   2.387
 2789TIP3    H2 8374   6.204   5.926   2.440
 2790TIP3   OH2 8375   2.914   1.586   0.734
 2790TIP3    H1 8376   2.989   1.590   0.675
 2790TIP3    H2 8377   2.945   1.628   0.815
 2791TIP3   OH2 8378   0.983   3.933   4.311
 2791TIP3    H1 8379   0.985   3.867   4.380
 2791TIP3    H2 8380   0.996   3.884   4.230
 2792TIP3   OH2 8381   4.619   0.612   3.352
 2792TIP3    H1 8382   4.598   0.706   3.353
 2792TIP3    H2 8383   4.713   0.608   3.367
 2793TIP3   OH2 8384   3.499   3.027   4.040
 2793TIP3    H1 8385   3.532   2.974   4.113
 2793TIP3    H2 8386   3.576   3.046   3.987
 2794TIP3   OH2 8387   6.237   2.300   1.676
 2794TIP3    H1 8388   6.297   2.363   1.636
 2794TIP3    H2 8389   6.265   2.215   1.643
 2795TIP3   OH2 8390   1.236   3.756   3.390
 2795TIP3    H1 8391   1.264   3.719   3.306
 2795TIP3    H2 8392   1.141   3.753   3.388
 2796TIP3   OH2 8393   2.242   1.315   2.077
 2796TIP3    H1 8394   2.283   1.248   2.132
 2796TIP3    H2 8395   2.316   1.361   2.037
 2797TIP3   OH2 8396   1.678   3.360   1.615
 2797TIP3    H1 8397   1.727   3.432   1.576
 2797TIP3    H2 8398   1.745   3.294   1.635
 2798TIP3   OH2 8399   5.588   1.767   2.291
 2798TIP3    H1 8400   5.606   1.676   2.268
 2798TIP3    H2 8401   5.496   1.767   2.317
 2799TIP3   OH2 8402   4.278   1.182   5.106
 2799TIP3    H1 8403   4.285   1.160   5.014
 2799TIP3    H2 8404   4.279   1.278   5.108
 2800TIP3   OH2 8405   0.614   5.888   3.918
 2800TIP3    H1 8406   0.637   5.833   3.992
 2800TIP3    H2 8407   0.522   5.912   3.933
 2801TIP3   OH2 8408   4.335   2.419   2.118
 2801TIP3    H1 8409   4.311   2.359   2.189
 2801TIP3    H2 8410   4.425   2.394   2.095
 2802TIP3   OH2 8411  -0.001   5.496   5.051
 2802TIP3    H1 8412   0.085   5.538   5.053
 2802TIP3    H2 8413   0.002   5.430   5.121
 2803TIP3   OH2 8414   5.356   4.943   2.717
 2803TIP3    H1 8415   5.447   4.916   2.705
 2803TIP3    H2 8416   5.356   4.988   2.802
 2804TIP3   OH2 8417   6.157   1.570   2.001
 2804TIP3    H1 8418   6.137   1.649   2.051
 2804TIP3    H2 8419   6.176   1.504   2.067
 2805TIP3   OH2 8420   5.809   0.309   0.890
 2805TIP3    H1 8421   5.737   0.277   0.944
 2805TIP3    H2 8422   5.787   0.401   0.874
 2806TIP3   OH2 8423   4.391   4.001   2.999
 2806TIP3    H1 8424   4.332   3.926   2.996
 2806TIP3    H2 8425   4.385   4.039   2.911
 2807TIP3   OH2 8426   5.288   1.910   4.538
 2807TIP3    H1 8427   5.297   1.910   4.442
 2807TIP3    H2 8428   5.309   1.820   4.564
 2808TIP3   OH2 8429   0.451   3.397   0.038
 2808TIP3    H1 8430   0.533   3.350   0.051
 2808TIP3    H2 8431   0.384   3.338   0.072
 2809TIP3   OH2 8432   0.710   4.121   3.821
 2809TIP3    H1 8433   0.767   4.062   3.771
 2809TIP3    H2 8434   0.639   4.143   3.760
 2810TIP3   OH2 8435   4.513   2.836   5.168
 2810TIP3    H1 8436   4.437   2.842   5.110
 2810TIP3    H2 8437   4.568   2.768   5.127
 2811TIP3   OH2 8438   1.767   2.180   4.238
 2811TIP3    H1 8439   1.718   2.217   4.311
 2811TIP3    H2 8440   1.756   2.243   4.167
 2812TIP3   OH2 8441   3.197   5.188   0.912
 2812TIP3    H1 8442   3.230   5.100   0.929
 2812TIP3    H2 8443   3.105   5.185   0.935
 2813TIP3   OH2 8444   3.775   3.791   2.798
 2813TIP3    H1 8445   3.862   3.779   2.761
 2813TIP3    H2 8446   3.758   3.885   2.788
 2814TIP3   OH2 8447   6.268   2.771   1.928
 2814TIP3    H1 8448   6.287   2.795   1.838
 2814TIP3    H2 8449   6.327   2.826   1.981
 2815TIP3   OH2 8450   1.251   5.256   3.025
 2815TIP3    H1 8451   1.195   5.225   2.954
 2815TIP3    H2 8452   1.194   5.261   3.101
 2816TIP3   OH2 8453   3.797   0.218   1.646
 2816TIP3    H1 8454   3.761   0.295   1.601
 2816TIP3    H2 8455   3.830   0.162   1.576
 2817TIP3   OH2 8456   5.989   5.012   3.996
 2817TIP3    H1 8457   5.911   5.052   3.960
 2817TIP3    H2 8458   5.959   4.971   4.078
 2818TIP3   OH2 8459   5.712   2.153   4.913
 2818TIP3    H1 8460   5.668   2.082   4.960
 2818TIP3    H2 8461   5.792   2.170   4.964
 2819TIP3   OH2 8462   2.462   0.485   1.451
 2819TIP3    H1 8463   2.397   0.555   1.451
 2819TIP3    H2 8464   2.514   0.501   1.372
 2820TIP3   OH2 8465   1.139   1.620   0.719
 2820TIP3    H1 8466   1.216   1.654   0.764
 2820TIP3    H2 8467   1.158   1.527   0.704
 2821TIP3   OH2 8468   3.185   5.845   5.127
 2821TIP3    H1 8469   3.195   5.793   5.048
 2821TIP3    H2 8470   3.221   5.931   5.105
 2822TIP3   OH2 8471   5.736   1.193   3.840
 2822TIP3    H1 8472   5.756   1.171   3.931
 2822TIP3    H2 8473   5.702   1.112   3.803
 2823TIP3   OH2 8474   4.167   0.165   3.923
 2823TIP3    H1 8475   4.245   0.206   3.887
 2823TIP3    H2 8476   4.146   0.217   4.001
 2824TIP3   OH2 8477   0.590   5.951   0.297
 2824TIP3    H1 8478   0.546   6.000   0.228
 2824TIP3    H2 8479   0.563   5.994   0.378
 2825TIP3   OH2 8480   3.497   2.066   0.536
 2825TIP3    H1 8481   3.537   2.084   0.451
 2825TIP3    H2 8482   3.436   2.139   0.550
 2826TIP3   OH2 8483   1.081   0.286   4.343
 2826TIP3    H1 8484   1.033   0.363   4.373
 2826TIP3    H2 8485   1.053   0.216   4.401
 2827TIP3   OH2 8486   5.831   4.797   2.394
 2827TIP3    H1 8487   5.788   4.785   2.479
 2827TIP3    H2 8488   5.884   4.718   2.383
 2828TIP3   OH2 8489   1.893   2.781   0.782
 2828TIP3    H1 8490   1.863   2.867   0.753
 2828TIP3    H2 8491   1.988   2.784   0.772
 2829TIP3   OH2 8492   0.663   0.877   1.373
 2829TIP3    H1 8493   0.591   0.840   1.322
 2829TIP3    H2 8494   0.649   0.972   1.369
 2830TIP3   OH2 8495   0.063   4.974   3.497
 2830TIP3    H1 8496   0.009   4.896   3.509
 2830TIP3    H2 8497   0.019   5.024   3.428
 2831TIP3   OH2 8498   4.293   2.233   2.706
 2831TIP3    H1 8499   4.372   2.201   2.663
 2831TIP3    H2 8500   4.256   2.155   2.747
 2832TIP3   OH2 8501   1.657   4.578   4.735
 2832TIP3    H1 8502   1.608   4.626   4.668
 2832TIP3    H2 8503   1.745   4.615   4.731
 2833TIP3   OH2 8504   1.971   1.659   1.714
 2833TIP3    H1 8505   2.002   1.570   1.702
 2833TIP3    H2 8506   1.926   1.680   1.632
 2834TIP3   OH2 8507   1.768   3.673   3.539
 2834TIP3    H1 8508   1.715   3.724   3.599
 2834TIP3    H2 8509   1.744   3.704   3.452
 2835TIP3   OH2 8510   2.485   2.452   2.732
 2835TIP3    H1 8511   2.501   2.461   2.638
 2835TIP3    H2 8512   2.479   2.543   2.764
 2836TIP3   OH2 8513   2.552   4.035   0.901
 2836TIP3    H1 8514   2.522   4.014   0.990
 2836TIP3    H2 8515   2.527   3.958   0.849
 2837TIP3   OH2 8516   6.120   1.574   0.448
 2837TIP3    H1 8517   6.028   1.551   0.441
 2837TIP3    H2 8518   6.140   1.617   0.365
 2838TIP3   OH2 8519   0.243   0.206   1.246
 2838TIP3    H1 8520   0.180   0.179   1.179
 2838TIP3    H2 8521   0.225   0.148   1.320
 2839TIP3   OH2 8522   1.495   0.334   0.278
 2839TIP3    H1 8523   1.412   0.352   0.323
 2839TIP3    H2 8524   1.522   0.248   0.311
 2840TIP3   OH2 8525   0.207   4.544   1.370
 2840TIP3    H1 8526   0.124   4.586   1.391
 2840TIP3    H2 8527   0.266   4.616   1.349
 2841TIP3   OH2 8528   3.840   4.698   3.398
 2841TIP3    H1 8529   3.842   4.691   3.493
 2841TIP3    H2 8530   3.771   4.763   3.381
 2842TIP3   OH2 8531   0.653   5.980   1.947
 2842TIP3    H1 8532   0.599   5.942   2.016
 2842TIP3    H2 8533   0.731   6.013   1.991
 2843TIP3   OH2 8534   1.056   3.220   4.753
 2843TIP3    H1 8535   1.021   3.306   4.729
 2843TIP3    H2 8536   1.131   3.208   4.694
 2844TIP3   OH2 8537   5.459   5.290   4.103
 2844TIP3    H1 8538   5.437   5.200   4.127
 2844TIP3    H2 8539   5.374   5.331   4.086
 2845TIP3   OH2 8540   1.213   2.076   4.450
 2845TIP3    H1 8541   1.167   2.134   4.390
 2845TIP3    H2 8542   1.149   2.009   4.473
 2846TIP3   OH2 8543   1.809   5.448   0.341
 2846TIP3    H1 8544   1.856   5.470   0.422
 2846TIP3    H2 8545   1.861   5.377   0.303
 2847TIP3   OH2 8546   5.099   4.163   3.648
 2847TIP3    H1 8547   5.027   4.225   3.635
 2847TIP3    H2 8548   5.061   4.077   3.630
 2848TIP3   OH2 8549   1.777   2.862   0.229
 2848TIP3    H1 8550   1.739   2.803   0.295
 2848TIP3    H2 8551   1.859   2.820   0.204
 2849TIP3   OH2 8552   5.304   4.255   5.016
 2849TIP3    H1 8553   5.330   4.207   5.095
 2849TIP3    H2 8554   5.372   4.322   5.006
 2850TIP3   OH2 8555   1.093   1.434   1.052
 2850TIP3    H1 8556   1.017   1.389   1.015
 2850TIP3    H2 8557   1.131   1.372   1.113
 2851TIP3   OH2 8558   2.008   1.617   2.000
 2851TIP3    H1 8559   1.984   1.536   2.046
 2851TIP3    H2 8560   1.936   1.632   1.938
 2852TIP3   OH2 8561   1.485   3.872   1.782
 2852TIP3    H1 8562   1.425   3.799   1.797
 2852TIP3    H2 8563   1.486   3.920   1.865
 2853TIP3   OH2 8564   0.533   3.315   3.089
 2853TIP3    H1 8565   0.490   3.268   3.160
 2853TIP3    H2 8566   0.616   3.269   3.076
 2854TIP3   OH2 8567   2.227   1.875   1.257
 2854TIP3    H1 8568   2.247   1.890   1.164
 2854TIP3    H2 8569   2.297   1.817   1.287
 2855TIP3   OH2 8570   1.929   1.855   0.369
 2855TIP3    H1 8571   1.988   1.861   0.444
 2855TIP3    H2 8572   1.954   1.928   0.312
 2856TIP3   OH2 8573   4.175   4.523   4.820
 2856TIP3    H1 8574   4.214   4.490   4.902
 2856TIP3    H2 8575   4.114   4.591   4.849
 2857TIP3   OH2 8576   3.633   2.781   2.138
 2857TIP3    H1 8577   3.604   2.871   2.126
 2857TIP3    H2 8578   3.697   2.786   2.209
 2858TIP3   OH2 8579   5.715   3.799   0.488
 2858TIP3    H1 8580   5.747   3.876   0.441
 2858TIP3    H2 8581   5.620   3.804   0.481
 2859TIP3   OH2 8582   3.151   1.336   2.365
 2859TIP3    H1 8583   3.241   1.367   2.357
 2859TIP3    H2 8584   3.126   1.358   2.455
 2860TIP3   OH2 8585   5.559   3.062   1.059
 2860TIP3    H1 8586   5.542   3.003   0.985
 2860TIP3    H2 8587   5.473   3.098   1.081
 2861TIP3   OH2 8588   5.578   3.841   3.947
 2861TIP3    H1 8589   5.661   3.880   3.919
 2861TIP3    H2 8590   5.514   3.873   3.882
 2862TIP3   OH2 8591   1.212   5.321   0.254
 2862TIP3    H1 8592   1.187   5.403   0.211
 2862TIP3    H2 8593   1.134   5.296   0.304
 2863TIP3   OH2 8594   0.126   2.482   4.267
 2863TIP3    H1 8595   0.105   2.390   4.249
 2863TIP3    H2 8596   0.066   2.531   4.210
 2864TIP3   OH2 8597   0.586   1.746   0.913
 2864TIP3    H1 8598   0.577   1.801   0.835
 2864TIP3    H2 8599   0.661   1.782   0.959
 2865TIP3   OH2 8600   1.225   1.078   4.393
 2865TIP3    H1 8601   1.233   1.063   4.299
 2865TIP3    H2 8602   1.140   1.120   4.403
 2866TIP3   OH2 8603   1.408   5.805   1.558
 2866TIP3    H1 8604   1.319   5.805   1.522
 2866TIP3    H2 8605   1.429   5.712   1.569
 2867TIP3   OH2 8606   5.880   2.055   3.630
 2867TIP3    H1 8607   5.855   1.963   3.641
 2867TIP3    H2 8608   5.895   2.064   3.536
 2868TIP3   OH2 8609   4.423   4.280   3.568
 2868TIP3    H1 8610   4.479   4.336   3.622
 2868TIP3    H2 8611   4.367   4.234   3.631
 2869TIP3   OH2 8612   1.579   5.815   2.393
 2869TIP3    H1 8613   1.606   5.831   2.484
 2869TIP3    H2 8614   1.521   5.739   2.398
 2870TIP3   OH2 8615   0.883   3.156   2.173
 2870TIP3    H1 8616   0.967   3.120   2.202
 2870TIP3    H2 8617   0.832   3.080   2.146
 2871TIP3   OH2 8618   4.116   5.802   4.560
 2871TIP3    H1 8619   4.025   5.829   4.546
 2871TIP3    H2 8620   4.168   5.869   4.515
 2872TIP3   OH2 8621   1.084   0.688   1.822
 2872TIP3    H1 8622   1.161   0.707   1.875
 2872TIP3    H2 8623   1.011   0.691   1.884
 2873TIP3   OH2 8624   5.347   2.106   1.335
 2873TIP3    H1 8625   5.355   2.153   1.418
 2873TIP3    H2 8626   5.366   2.171   1.268
 2874TIP3   OH2 8627   4.642   0.516   0.232
 2874TIP3    H1 8628   4.691   0.594   0.259
 2874TIP3    H2 8629   4.551   0.537   0.250
 2875TIP3   OH2 8630   5.339   1.671   0.971
 2875TIP3    H1 8631   5.386   1.710   1.045
 2875TIP3    H2 8632   5.392   1.595   0.946
 2876TIP3   OH2 8633   2.289   4.156   4.174
 2876TIP3    H1 8634   2.253   4.079   4.217
 2876TIP3    H2 8635   2.287   4.225   4.241
 2877TIP3   OH2 8636   3.315   4.389   1.488
 2877TIP3    H1 8637   3.232   4.347   1.468
 2877TIP3    H2 8638   3.320   4.390   1.583
 2878TIP3   OH2 8639   0.917   1.205   3.324
 2878TIP3    H1 8640   0.900   1.274   3.388
 2878TIP3    H2 8641   0.858   1.226   3.251
 2879TIP3   OH2 8642   0.352   0.890   2.271
 2879TIP3    H1 8643   0.373   0.971   2.225
 2879TIP3    H2 8644   0.435   0.842   2.273
 2880TIP3   OH2 8645   3.822   0.104   2.066
 2880TIP3    H1 8646   3.749   0.144   2.017
 2880TIP3    H2 8647   3.784   0.026   2.106
 2881TIP3   OH2 8648   5.426   3.136   0.066
 2881TIP3    H1 8649   5.514   3.132   0.105
 2881TIP3    H2 8650   5.401   3.228   0.074
 2882TIP3   OH2 8651   5.622   2.240   2.501
 2882TIP3    H1 8652   5.614   2.335   2.510
 2882TIP3    H2 8653   5.622   2.207   2.591
 2883TIP3   OH2 8654   5.933   1.882   5.040
 2883TIP3    H1 8655   5.947   1.850   4.951
 2883TIP3    H2 8656   5.957   1.974   5.037
 2884TIP3   OH2 8657   0.470   5.485   4.786
 2884TIP3    H1 8658   0.407   5.528   4.844
 2884TIP3    H2 8659   0.511   5.419   4.841
 2885TIP3   OH2 8660   5.624   3.538   4.519
 2885TIP3    H1 8661   5.586   3.624   4.499
 2885TIP3    H2 8662   5.560   3.497   4.577
 2886TIP3   OH2 8663   2.462   3.547   3.058
 2886TIP3    H1 8664   2.488   3.574   3.146
 2886TIP3    H2 8665   2.531   3.487   3.030
 2887TIP3   OH2 8666   5.247   2.875   3.501
 2887TIP3    H1 8667   5.203   2.857   3.584
 2887TIP3    H2 8668   5.326   2.822   3.503
 2888TIP3   OH2 8669   3.624   3.402   1.819
 2888TIP3    H1 8670   3.650   3.357   1.739
 2888TIP3    H2 8671   3.574   3.478   1.788
 2889TIP3   OH2 8672   6.320   5.858   0.194
 2889TIP3    H1 8673   6.355   5.946   0.188
 2889TIP3    H2 8674   6.279   5.854   0.280
 2890TIP3   OH2 8675   1.025   1.019   4.773
 2890TIP3    H1 8676   0.984   1.027   4.687
 2890TIP3    H2 8677   0.981   0.944   4.814
 2891TIP3   OH2 8678   0.386   2.923   0.534
 2891TIP3    H1 8679   0.375   2.840   0.488
 2891TIP3    H2 8680   0.396   2.988   0.465
 2892TIP3   OH2 8681   1.568   3.827   3.673
 2892TIP3    H1 8682   1.599   3.911   3.705
 2892TIP3    H2 8683   1.606   3.763   3.733
 2893TIP3   OH2 8684   1.777   3.753   4.106
 2893TIP3    H1 8685   1.797   3.753   4.200
 2893TIP3    H2 8686   1.861   3.774   4.064
 2894TIP3   OH2 8687   2.345   4.004   3.051
 2894TIP3    H1 8688   2.418   3.988   3.111
 2894TIP3    H2 8689   2.331   3.920   3.008
 2895TIP3   OH2 8690   3.623   5.226   1.750
 2895TIP3    H1 8691   3.562   5.216   1.823
 2895TIP3    H2 8692   3.709   5.228   1.792
 2896TIP3   OH2 8693   4.555   1.645   0.959
 2896TIP3    H1 8694   4.538   1.576   1.024
 2896TIP3    H2 8695   4.534   1.604   0.875
 2897TIP3   OH2 8696   1.246   3.544   2.718
 2897TIP3    H1 8697   1.295   3.607   2.666
 2897TIP3    H2 8698   1.178   3.595   2.761
 2898TIP3   OH2 8699   4.764   5.165   3.629
 2898TIP3    H1 8700   4.683   5.165   3.579
 2898TIP3    H2 8701   4.807   5.082   3.606
 2899TIP3   OH2 8702   5.446   0.556   4.569
 2899TIP3    H1 8703   5.478   0.497   4.637
 2899TIP3    H2 8704   5.476   0.517   4.487
 2900TIP3   OH2 8705   5.548   0.015   3.852
 2900TIP3    H1 8706   5.561   0.011   3.758
 2900TIP3    H2 8707   5.458  -0.017   3.865
 2901TIP3   OH2 8708   1.536   0.594   4.425
 2901TIP3    H1 8709   1.581   0.678   4.426
 2901TIP3    H2 8710   1.465   0.604   4.487
 2902TIP3   OH2 8711   0.918   3.354   4.970
 2902TIP3    H1 8712   0.925   3.259   4.968
 2902TIP3    H2 8713   0.913   3.380   4.878
 2903TIP3   OH2 8714   3.964   0.552   2.278
 2903TIP3    H1 8715   4.029   0.522   2.214
 2903TIP3    H2 8716   3.921   0.626   2.235
 2904TIP3   OH2 8717   1.611   2.866   1.421
 2904TIP3    H1 8718   1.522   2.854   1.456
 2904TIP3    H2 8719   1.616   2.805   1.347
 2905TIP3   OH2 8720   1.127   1.936   3.453
 2905TIP3    H1 8721   1.089   1.849   3.469
 2905TIP3    H2 8722   1.072   1.974   3.384
 2906TIP3   OH2 8723   1.164   0.232   4.695
 2906TIP3    H1 8724   1.198   0.306   4.645
 2906TIP3    H2 8725   1.208   0.238   4.780
 2907TIP3   OH2 8726   2.673   5.628   4.913
 2907TIP3    H1 8727   2.724   5.638   4.833
 2907TIP3    H2 8728   2.587   5.663   4.891
 2908TIP3   OH2 8729   2.656   4.214   3.703
 2908TIP3    H1 8730   2.672   4.200   3.797
 2908TIP3    H2 8731   2.741   4.200   3.662
 2909TIP3   OH2 8732   0.682   5.485   2.043
 2909TIP3    H1 8733   0.759   5.517   2.090
 2909TIP3    H2 8734   0.691   5.390   2.044
 2910TIP3   OH2 8735   3.653   2.580   3.906
 2910TIP3    H1 8736   3.748   2.576   3.901
 2910TIP3    H2 8737   3.625   2.585   3.815
 2911TIP3   OH2 8738   4.095   4.844   1.373
 2911TIP3    H1 8739   4.065   4.828   1.462
 2911TIP3    H2 8740   4.074   4.936   1.357
 2912TIP3   OH2 8741   1.669   3.823   4.997
 2912TIP3    H1 8742   1.721   3.786   5.068
 2912TIP3    H2 8743   1.619   3.894   5.038
 2913TIP3   OH2 8744   6.072   1.484   3.786
 2913TIP3    H1 8745   6.073   1.500   3.880
 2913TIP3    H2 8746   6.141   1.420   3.771
 2914TIP3   OH2 8747   0.649   4.683   3.664
 2914TIP3    H1 8748   0.667   4.630   3.741
 2914TIP3    H2 8749   0.698   4.764   3.679
 2915TIP3   OH2 8750   1.538   3.535   4.208
 2915TIP3    H1 8751   1.603   3.600   4.235
 2915TIP3    H2 8752   1.569   3.505   4.122
 2916TIP3   OH2 8753   0.446   4.949   4.723
 2916TIP3    H1 8754   0.486   4.884   4.665
 2916TIP3    H2 8755   0.488   4.935   4.808
 2917TIP3   OH2 8756   3.112   5.411   4.998
 2917TIP3    H1 8757   3.106   5.318   5.018
 2917TIP3    H2 8758   3.050   5.452   5.058
 2918TIP3   OH2 8759   0.006   4.881   2.090
 2918TIP3    H1 8760  -0.003   4.966   2.134
 2918TIP3    H2 8761   0.071   4.896   2.022
 2919TIP3   OH2 8762   1.379   2.795   0.079
 2919TIP3    H1 8763   1.348   2.742   0.006
 2919TIP3    H2 8764   1.302   2.842   0.110
 2920TIP3   OH2 8765   0.465   2.535   1.992
 2920TIP3    H1 8766   0.372   2.546   1.973
 2920TIP3    H2 8767   0.479   2.584   2.073
 2921TIP3   OH2 8768   5.515   1.188   0.850
 2921TIP3    H1 8769   5.579   1.123   0.822
 2921TIP3    H2 8770   5.431   1.157   0.815
 2922TIP3   OH2 8771   5.927   1.447   2.370
 2922TIP3    H1 8772   5.897   1.518   2.428
 2922TIP3    H2 8773   6.022   1.459   2.365
 2923TIP3   OH2 8774   3.909   5.537   4.509
 2923TIP3    H1 8775   3.853   5.491   4.447
 2923TIP3    H2 8776   3.872   5.625   4.514
 2924TIP3   OH2 8777   4.183   1.619   2.540
 2924TIP3    H1 8778   4.233   1.663   2.609
 2924TIP3    H2 8779   4.183   1.681   2.467
 2925TIP3   OH2 8780   5.798   1.301   2.157
 2925TIP3    H1 8781   5.845   1.343   2.229
 2925TIP3    H2 8782   5.865   1.250   2.111
 2926TIP3   OH2 8783   2.764   2.696   4.264
 2926TIP3    H1 8784   2.741   2.789   4.268
 2926TIP3    H2 8785   2.859   2.694   4.267
 2927TIP3   OH2 8786   0.888   5.306   3.786
 2927TIP3    H1 8787   0.835   5.322   3.709
 2927TIP3    H2 8788   0.973   5.280   3.752
 2928TIP3   OH2 8789   2.367   0.968   2.376
 2928TIP3    H1 8790   2.359   0.875   2.399
 2928TIP3    H2 8791   2.359   1.015   2.459
 2929TIP3   OH2 8792   5.081   5.858   1.565
 2929TIP3    H1 8793   5.036   5.776   1.542
 2929TIP3    H2 8794   5.140   5.874   1.491
 2930TIP3   OH2 8795   4.099   0.266   0.333
 2930TIP3    H1 8796   4.134   0.177   0.323
 2930TIP3    H2 8797   4.143   0.301   0.410
 2931TIP3   OH2 8798   6.187   5.938   1.998
 2931TIP3    H1 8799   6.184   6.031   2.022
 2931TIP3    H2 8800   6.263   5.931   1.941
 2932TIP3   OH2 8801   0.482   4.512   0.889
 2932TIP3    H1 8802   0.513   4.591   0.935
 2932TIP3    H2 8803   0.557   4.453   0.892
 2933TIP3   OH2 8804   3.742   4.284   2.103
 2933TIP3    H1 8805   3.764   4.283   2.196
 2933TIP3    H2 8806   3.826   4.278   2.058
 2934TIP3   OH2 8807   2.327   0.431   3.602
 2934TIP3    H1 8808   2.363   0.359   3.550
 2934TIP3    H2 8809   2.233   0.429   3.584
 2935TIP3   OH2 8810   1.519   0.434   2.589
 2935TIP3    H1 8811   1.566   0.424   2.506
 2935TIP3    H2 8812   1.530   0.527   2.611
 2936TIP3   OH2 8813   0.075   2.583   0.489
 2936TIP3    H1 8814   0.080   2.575   0.394
 2936TIP3    H2 8815   0.154   2.540   0.522
 2937TIP3   OH2 8816   1.069   5.534   2.966
 2937TIP3    H1 8817   1.076   5.564   3.057
 2937TIP3    H2 8818   1.043   5.612   2.917
 2938TIP3   OH2 8819   4.964   3.599   2.228
 2938TIP3    H1 8820   5.042   3.573   2.277
 2938TIP3    H2 8821   4.921   3.664   2.284
 2939TIP3   OH2 8822   1.987   4.711   2.786
 2939TIP3    H1 8823   1.976   4.657   2.708
 2939TIP3    H2 8824   2.020   4.650   2.852
 2940TIP3   OH2 8825   5.435   4.032   1.031
 2940TIP3    H1 8826   5.399   3.971   1.096
 2940TIP3    H2 8827   5.431   4.118   1.073
 2941TIP3   OH2 8828   0.198   2.262   4.830
 2941TIP3    H1 8829   0.130   2.329   4.840
 2941TIP3    H2 8830   0.240   2.257   4.916
 2942TIP3   OH2 8831   5.721   1.638   0.868
 2942TIP3    H1 8832   5.741   1.605   0.955
 2942TIP3    H2 8833   5.752   1.728   0.868
 2943TIP3   OH2 8834   2.367   0.353   4.999
 2943TIP3    H1 8835   2.349   0.447   4.998
 2943TIP3    H2 8836   2.396   0.335   5.088
 2944TIP3   OH2 8837   5.173   3.763   3.412
 2944TIP3    H1 8838   5.111   3.706   3.368
 2944TIP3    H2 8839   5.132   3.781   3.497
 2945TIP3   OH2 8840   3.020   3.886   2.873
 2945TIP3    H1 8841   2.950   3.904   2.936
 2945TIP3    H2 8842   3.044   3.973   2.839
 2946TIP3   OH2 8843   6.051   2.751   3.578
 2946TIP3    H1 8844   5.964   2.712   3.567
 2946TIP3    H2 8845   6.082   2.718   3.662
 2947TIP3   OH2 8846   0.441   1.053   3.342
 2947TIP3    H1 8847   0.434   1.148   3.330
 2947TIP3    H2 8848   0.365   1.029   3.395
 2948TIP3   OH2 8849   6.035   0.946   3.479
 2948TIP3    H1 8850   6.024   1.040   3.464
 2948TIP3    H2 8851   6.124   0.927   3.447
 2949TIP3   OH2 8852   5.736   2.509   4.743
 2949TIP3    H1 8853   5.724   2.498   4.837
 2949TIP3    H2 8854   5.748   2.603   4.730
 2950TIP3   OH2 8855   6.011   4.882   3.457
 2950TIP3    H1 8856   5.945   4.913   3.519
 2950TIP3    H2 8857   6.016   4.950   3.390
 2951TIP3   OH2 8858   0.437   5.423   0.385
 2951TIP3    H1 8859   0.407   5.508   0.417
 2951TIP3    H2 8860   0.526   5.414   0.420
 2952TIP3   OH2 8861   2.348   5.709   4.388
 2952TIP3    H1 8862   2.391   5.731   4.306
 2952TIP3    H2 8863   2.287   5.639   4.365
 2953TIP3   OH2 8864   1.119   3.965   3.040
 2953TIP3    H1 8865   1.078   3.888   3.080
 2953TIP3    H2 8866   1.064   4.038   3.066
 2954TIP3   OH2 8867   4.172   1.946   2.528
 2954TIP3    H1 8868   4.248   1.985   2.484
 2954TIP3    H2 8869   4.178   1.978   2.618
 2955TIP3   OH2 8870   5.699   1.209   4.878
 2955TIP3    H1 8871   5.748   1.287   4.904
 2955TIP3    H2 8872   5.718   1.199   4.784
 2956TIP3   OH2 8873   5.762   5.744   5.036
 2956TIP3    H1 8874   5.685   5.800   5.030
 2956TIP3    H2 8875   5.827   5.797   5.082
 2957TIP3   OH2 8876   4.643   4.736   2.469
 2957TIP3    H1 8877   4.570   4.674   2.464
 2957TIP3    H2 8878   4.610   4.808   2.522
 2958TIP3   OH2 8879   0.617   1.177   2.312
 2958TIP3    H1 8880   0.604   1.101   2.368
 2958TIP3    H2 8881   0.563   1.159   2.235
 2959TIP3   OH2 8882   2.591   4.980   4.538
 2959TIP3    H1 8883   2.590   5.046   4.469
 2959TIP3    H2 8884   2.682   4.949   4.541
 2960TIP3   OH2 8885   6.162   2.913   2.231
 2960TIP3    H1 8886   6.079   2.956   2.209
 2960TIP3    H2 8887   6.142   2.820   2.229
 2961TIP3   OH2 8888   1.851   2.004   2.797
 2961TIP3    H1 8889   1.890   1.927   2.756
 2961TIP3    H2 8890   1.892   2.078   2.753
 2962TIP3   OH2 8891   1.960   0.243   1.996
 2962TIP3    H1 8892   1.967   0.234   1.901
 2962TIP3    H2 8893   1.936   0.334   2.010
 2963TIP3   OH2 8894   5.985   3.734   5.085
 2963TIP3    H1 8895   5.946   3.772   5.007
 2963TIP3    H2 8896   5.937   3.653   5.099
 2964TIP3   OH2 8897   3.446   1.964   2.320
 2964TIP3    H1 8898   3.375   1.935   2.377
 2964TIP3    H2 8899   3.481   2.042   2.364
 2965TIP3   OH2 8900   5.056   5.564   3.970
 2965TIP3    H1 8901   5.127   5.507   3.999
 2965TIP3    H2 8902   5.081   5.593   3.883
 2966TIP3   OH2 8903   4.810   1.456   3.515
 2966TIP3    H1 8904   4.856   1.375   3.534
 2966TIP3    H2 8905   4.859   1.496   3.444
 2967TIP3   OH2 8906   3.869   1.481   0.174
 2967TIP3    H1 8907   3.783   1.445   0.153
 2967TIP3    H2 8908   3.863   1.574   0.150
 2968TIP3   OH2 8909   4.757   0.172   0.767
 2968TIP3    H1 8910   4.753   0.078   0.786
 2968TIP3    H2 8911   4.683   0.209   0.815
 2969TIP3   OH2 8912   3.227   1.419   4.402
 2969TIP3    H1 8913   3.141   1.381   4.384
 2969TIP3    H2 8914   3.211   1.487   4.467
 2970TIP3   OH2 8915   2.560   4.399   0.618
 2970TIP3    H1 8916   2.570   4.486   0.658
 2970TIP3    H2 8917   2.470   4.398   0.585
 2971TIP3   OH2 8918   4.554   1.975   5.096
 2971TIP3    H1 8919   4.506   2.028   5.160
 2971TIP3    H2 8920   4.607   1.916   5.149
 2972TIP3   OH2 8921   0.118   5.810   3.144
 2972TIP3    H1 8922   0.065   5.857   3.207
 2972TIP3    H2 8923   0.073   5.820   3.060
 2973TIP3   OH2 8924   0.409   5.727   2.357
 2973TIP3    H1 8925   0.493   5.693   2.386
 2973TIP3    H2 8926   0.384   5.790   2.424
 2974TIP3   OH2 8927   4.176   5.723   5.006
 2974TIP3    H1 8928   4.140   5.677   4.930
 2974TIP3    H2 8929   4.220   5.799   4.969
 2975TIP3   OH2 8930   0.476   4.371   4.125
 2975TIP3    H1 8931   0.473   4.454   4.077
 2975TIP3    H2 8932   0.528   4.390   4.203
 2976TIP3   OH2 8933   3.181   2.290   3.691
 2976TIP3    H1 8934   3.257   2.246   3.654
 2976TIP3    H2 8935   3.179   2.261   3.782
 2977TIP3   OH2 8936   2.953   4.475   1.945
 2977TIP3    H1 8937   2.971   4.477   2.039
 2977TIP3    H2 8938   3.007   4.546   1.910
 2978TIP3   OH2 8939   1.807   0.119   2.257
 2978TIP3    H1 8940   1.844   0.032   2.265
 2978TIP3    H2 8941   1.713   0.107   2.270
 2979TIP3   OH2 8942   5.131   4.995   0.128
 2979TIP3    H1 8943   5.077   5.071   0.108
 2979TIP3    H2 8944   5.102   4.967   0.216
 2980TIP3   OH2 8945   4.713   3.256   1.130
 2980TIP3    H1 8946   4.712   3.346   1.099
 2980TIP3    H2 8947   4.637   3.251   1.189
 2981TIP3   OH2 8948   1.402   0.355   2.836
 2981TIP3    H1 8949   1.337   0.285   2.824
 2981TIP3    H2 8950   1.424   0.382   2.747
 2982TIP3   OH2 8951   2.686   0.706   3.418
 2982TIP3    H1 8952   2.613   0.658   3.378
 2982TIP3    H2 8953   2.737   0.639   3.464
 2983TIP3   OH2 8954   0.848   1.377   2.841
 2983TIP3    H1 8955   0.845   1.463   2.798
 2983TIP3    H2 8956   0.887   1.319   2.775
 2984TIP3   OH2 8957   0.467   0.909   4.596
 2984TIP3    H1 8958   0.553   0.944   4.577
 2984TIP3    H2 8959   0.474   0.873   4.684
 2985TIP3   OH2 8960   1.067   5.341   4.233
 2985TIP3    H1 8961   1.047   5.413   4.173
 2985TIP3    H2 8962   1.036   5.371   4.318
 2986TIP3   OH2 8963   5.378   1.624   0.456
 2986TIP3    H1 8964   5.363   1.532   0.431
 2986TIP3    H2 8965   5.410   1.618   0.546
 2987TIP3   OH2 8966   5.668   5.850   0.736
 2987TIP3    H1 8967   5.582   5.831   0.774
 2987TIP3    H2 8968   5.714   5.899   0.804
 2988TIP3   OH2 8969   0.130   0.003   1.725
 2988TIP3    H1 8970   0.149  -0.074   1.780
 2988TIP3    H2 8971   0.101   0.070   1.788
 2989TIP3   OH2 8972   4.130   3.462   0.055
 2989TIP3    H1 8973   4.147   3.486  -0.036
 2989TIP3    H2 8974   4.200   3.505   0.105
 2990TIP3   OH2 8975   4.333   1.207   3.250
 2990TIP3    H1 8976   4.351   1.218   3.343
 2990TIP3    H2 8977   4.336   1.295   3.214
 2991TIP3   OH2 8978   5.545   4.936   1.022
 2991TIP3    H1 8979   5.634   4.904   1.041
 2991TIP3    H2 8980   5.488   4.866   1.053
 2992TIP3   OH2 8981   2.746   5.510   4.219
 2992TIP3    H1 8982   2.757   5.450   4.292
 2992TIP3    H2 8983   2.652   5.530   4.218
 2993TIP3   OH2 8984   5.946   4.883   5.098
 2993TIP3    H1 8985   5.938   4.964   5.047
 2993TIP3    H2 8986   5.979   4.819   5.035
 2994TIP3   OH2 8987   1.001   4.854   1.179
 2994TIP3    H1 8988   0.960   4.925   1.130
 2994TIP3    H2 8989   0.928   4.807   1.220
 2995TIP3   OH2 8990   0.667   1.689   3.714
 2995TIP3    H1 8991   0.614   1.721   3.786
 2995TIP3    H2 8992   0.734   1.756   3.702
 2996TIP3   OH2 8993   2.112   3.528   3.205
 2996TIP3    H1 8994   2.167   3.482   3.142
 2996TIP3    H2 8995   2.144   3.500   3.291
 2997TIP3   OH2 8996   4.261   5.217   3.907
 2997TIP3    H1 8997   4.334   5.162   3.877
 2997TIP3    H2 8998   4.242   5.186   3.995
 2998TIP3   OH2 8999   1.821   0.996   0.780
 2998TIP3    H1 9000   1.731   0.967   0.768
 2998TIP3    H2 9001   1.818   1.055   0.855
 2999TIP3   OH2 9002   4.924   0.248   2.887
 2999TIP3    H1 9003   4.978   0.261   2.810
 2999TIP3    H2 9004   4.891   0.158   2.878
 3000TIP3   OH2 9005   0.460   6.010   0.051
 3000TIP3    H1 9006   0.391   5.942   0.052
 3000TIP3    H2 9007   0.508   5.994  -0.030
 3001TIP3   OH2 9008   4.302   5.128   4.168
 3001TIP3    H1 9009   4.286   5.051   4.222
 3001TIP3    H2 9010   4.388   5.112   4.128
 3002TIP3   OH2 9011   4.157   0.966   4.781
 3002TIP3    H1 9012   4.077   1.001   4.818
 3002TIP3    H2 9013   4.176   0.887   4.832
 3003TIP3   OH2 9014   4.667   5.209   0.260
 3003TIP3    H1 9015   4.737   5.149   0.284
 3003TIP3    H2 9016   4.708   5.295   0.259
 3004TIP3   OH2 9017   2.717   0.347   4.375
 3004TIP3    H1 9018   2.796   0.400   4.377
 3004TIP3    H2 9019   2.730   0.287   4.302
 3005TIP3   OH2 9020   5.210   2.506   3.461
 3005TIP3    H1 9021   5.129   2.484   3.506
 3005TIP3    H2 9022   5.188   2.582   3.407
 3006TIP3   OH2 9023   5.327   1.128   1.093
 3006TIP3    H1 9024   5.314   1.211   1.048
 3006TIP3    H2 9025   5.256   1.072   1.062
 3007TIP3   OH2 9026   5.621   3.957   4.209
 3007TIP3    H1 9027   5.659   3.877   4.245
 3007TIP3    H2 9028   5.608   3.939   4.116
 3008TIP3   OH2 9029   1.551   4.141   2.640
 3008TIP3    H1 9030   1.526   4.158   2.731
 3008TIP3    H2 9031   1.640   4.177   2.633
 3009TIP3   OH2 9032   4.516   2.526   4.793
 3009TIP3    H1 9033   4.434   2.500   4.834
 3009TIP3    H2 9034   4.584   2.506   4.857
 3010TIP3   OH2 9035  -0.008   5.521   4.735
 3010TIP3    H1 9036   0.058   5.555   4.796
 3010TIP3    H2 9037   0.032   5.528   4.649
 3011TIP3   OH2 9038   3.607   2.990   1.529
 3011TIP3    H1 9039   3.665   2.975   1.455
 3011TIP3    H2 9040   3.526   2.946   1.506
 3012TIP3   OH2 9041   2.295   2.297   0.835
 3012TIP3    H1 9042   2.263   2.219   0.880
 3012TIP3    H2 9043   2.291   2.366   0.902
 3013TIP3   OH2 9044   0.909   4.018   4.648
 3013TIP3    H1 9045   0.901   4.108   4.615
 3013TIP3    H2 9046   0.995   4.016   4.691
 3014TIP3   OH2 9047   2.880   1.444   1.899
 3014TIP3    H1 9048   2.890   1.431   1.993
 3014TIP3    H2 9049   2.970   1.448   1.865
 3015TIP3   OH2 9050   1.935   1.115   2.124
 3015TIP3    H1 9051   1.855   1.109   2.072
 3015TIP3    H2 9052   1.948   1.027   2.159
 3016TIP3   OH2 9053   5.207   1.442   3.395
 3016TIP3    H1 9054   5.277   1.377   3.398
 3016TIP3    H2 9055   5.149   1.418   3.467
 3017TIP3   OH2 9056   3.894   4.189   0.275
 3017TIP3    H1 9057   3.879   4.136   0.196
 3017TIP3    H2 9058   3.874   4.278   0.249
 3018TIP3   OH2 9059   1.869   0.089   4.971
 3018TIP3    H1 9060   1.852   0.181   4.950
 3018TIP3    H2 9061   1.811   0.070   5.044
 3019TIP3   OH2 9062   3.738   4.081   1.019
 3019TIP3    H1 9063   3.701   4.153   0.969
 3019TIP3    H2 9064   3.724   4.004   0.965
 3020TIP3   OH2 9065   3.330   3.423   0.851
 3020TIP3    H1 9066   3.409   3.378   0.822
 3020TIP3    H2 9067   3.294   3.463   0.772
 3021TIP3   OH2 9068   0.859   5.053   1.566
 3021TIP3    H1 9069   0.934   5.024   1.515
 3021TIP3    H2 9070   0.875   5.020   1.654
 3022TIP3   OH2 9071   2.089   5.603   1.809
 3022TIP3    H1 9072   1.999   5.615   1.839
 3022TIP3    H2 9073   2.139   5.672   1.852
 3023TIP3   OH2 9074   1.969   0.223   2.779
 3023TIP3    H1 9075   2.058   0.234   2.746
 3023TIP3    H2 9076   1.932   0.311   2.775
 3024TIP3   OH2 9077   5.161   3.693   1.327
 3024TIP3    H1 9078   5.216   3.656   1.258
 3024TIP3    H2 9079   5.094   3.626   1.342
 3025TIP3   OH2 9080   1.545   2.516   1.208
 3025TIP3    H1 9081   1.546   2.600   1.162
 3025TIP3    H2 9082   1.588   2.533   1.291
 3026TIP3   OH2 9083   1.070   2.943   2.549
 3026TIP3    H1 9084   1.001   2.876   2.550
 3026TIP3    H2 9085   1.115   2.932   2.633
 3027TIP3   OH2 9086   0.082   5.920   1.198
 3027TIP3    H1 9087   0.066   5.900   1.106
 3027TIP3    H2 9088   0.024   5.859   1.246
 3028TIP3   OH2 9089   0.143   0.988   3.921
 3028TIP3    H1 9090   0.062   1.002   3.871
 3028TIP3    H2 9091   0.210   0.977   3.855
 3029TIP3   OH2 9092   0.740   2.351   4.252
 3029TIP3    H1 9093   0.682   2.284   4.289
 3029TIP3    H2 9094   0.681   2.412   4.210
 3030TIP3   OH2 9095   0.036   4.351   0.436
 3030TIP3    H1 9096   0.005   4.355   0.346
 3030TIP3    H2 9097   0.109   4.413   0.440
 3031TIP3   OH2 9098   5.478   2.594   1.126
 3031TIP3    H1 9099   5.433   2.620   1.207
 3031TIP3    H2 9100   5.548   2.658   1.115
 3032TIP3   OH2 9101   5.057   1.276   4.702
 3032TIP3    H1 9102   4.976   1.299   4.748
 3032TIP3    H2 9103   5.045   1.312   4.614
 3033TIP3   OH2 9104   5.431   4.905   0.244
 3033TIP3    H1 9105   5.465   4.880   0.330
 3033TIP3    H2 9106   5.404   4.996   0.256
 3034TIP3   OH2 9107   4.740   2.403   4.503
 3034TIP3    H1 9108   4.740   2.437   4.592
 3034TIP3    H2 9109   4.720   2.479   4.448
 3035TIP3   OH2 9110   3.056   2.830   0.395
 3035TIP3    H1 9111   2.978   2.812   0.447
 3035TIP3    H2 9112   3.026   2.824   0.304
 3036TIP3   OH2 9113   2.068   4.450   2.196
 3036TIP3    H1 9114   1.981   4.489   2.209
 3036TIP3    H2 9115   2.049   4.356   2.185
 3037TIP3   OH2 9116   1.599   5.125   2.507
 3037TIP3    H1 9117   1.597   5.145   2.601
 3037TIP3    H2 9118   1.546   5.193   2.466
 3038TIP3   OH2 9119   2.530   2.956   4.407
 3038TIP3    H1 9120   2.544   2.871   4.450
 3038TIP3    H2 9121   2.442   2.950   4.370
 3039TIP3   OH2 9122   2.239   5.871   1.349
 3039TIP3    H1 9123   2.208   5.894   1.261
 3039TIP3    H2 9124   2.312   5.930   1.365
 3040TIP3   OH2 9125   2.393   2.709   2.061
 3040TIP3    H1 9126   2.485   2.690   2.044
 3040TIP3    H2 9127   2.345   2.655   1.997
 3041TIP3   OH2 9128   1.006   3.127   5.164
 3041TIP3    H1 9129   0.957   3.186   5.222
 3041TIP3    H2 9130   0.939   3.076   5.119
 3042TIP3   OH2 9131   4.169   1.971   2.176
 3042TIP3    H1 9132   4.237   1.917   2.135
 3042TIP3    H2 9133   4.215   2.023   2.242
 3043TIP3   OH2 9134   5.778   4.697   3.930
 3043TIP3    H1 9135   5.867   4.695   3.895
 3043TIP3    H2 9136   5.742   4.611   3.908
 3044TIP3   OH2 9137   4.009   3.514   1.180
 3044TIP3    H1 9138   4.053   3.595   1.155
 3044TIP3    H2 9139   3.951   3.494   1.106
 3045TIP3   OH2 9140   3.063   3.398   1.352
 3045TIP3    H1 9141   3.091   3.315   1.390
 3045TIP3    H2 9142   3.114   3.405   1.271
 3046TIP3   OH2 9143   2.349   4.684   0.586
 3046TIP3    H1 9144   2.431   4.726   0.614
 3046TIP3    H2 9145   2.339   4.710   0.494
 3047TIP3   OH2 9146   2.180   1.079   3.923
 3047TIP3    H1 9147   2.236   1.008   3.890
 3047TIP3    H2 9148   2.135   1.041   3.999
 3048TIP3   OH2 9149   5.254   4.672   0.763
 3048TIP3    H1 9150   5.176   4.665   0.709
 3048TIP3    H2 9151   5.273   4.766   0.764
 3049TIP3   OH2 9152   6.136   1.248   0.378
 3049TIP3    H1 9153   6.218   1.297   0.380
 3049TIP3    H2 9154   6.095   1.267   0.462
 3050TIP3   OH2 9155   5.955   4.151   3.145
 3050TIP3    H1 9156   6.037   4.195   3.171
 3050TIP3    H2 9157   5.886   4.210   3.173
 3051TIP3   OH2 9158   3.445   5.445   1.907
 3051TIP3    H1 9159   3.533   5.473   1.885
 3051TIP3    H2 9160   3.391   5.524   1.898
 3052TIP3   OH2 9161   0.587   2.261   3.756
 3052TIP3    H1 9162   0.672   2.257   3.799
 3052TIP3    H2 9163   0.524   2.272   3.828
 3053TIP3   OH2 9164   5.564   0.612   1.062
 3053TIP3    H1 9165   5.530   0.522   1.068
 3053TIP3    H2 9166   5.492   0.666   1.096
 3054TIP3   OH2 9167   3.687   1.798   2.914
 3054TIP3    H1 9168   3.722   1.782   2.827
 3054TIP3    H2 9169   3.602   1.839   2.899
 3055TIP3   OH2 9170   3.388   5.531   5.141
 3055TIP3    H1 9171   3.298   5.508   5.115
 3055TIP3    H2 9172   3.442   5.504   5.066
 3056TIP3   OH2 9173   1.578   4.282   1.848
 3056TIP3    H1 9174   1.498   4.232   1.868
 3056TIP3    H2 9175   1.646   4.215   1.838
 3057TIP3   OH2 9176   0.449   3.240   4.555
 3057TIP3    H1 9177   0.442   3.159   4.606
 3057TIP3    H2 9178   0.524   3.225   4.497
 3058TIP3   OH2 9179   5.527   1.484   1.420
 3058TIP3    H1 9180   5.604   1.513   1.468
 3058TIP3    H2 9181   5.552   1.487   1.328
 3059TIP3   OH2 9182   2.058   4.931   4.535
 3059TIP3    H1 9183   2.045   4.985   4.457
 3059TIP3    H2 9184   1.999   4.969   4.600
 3060TIP3   OH2 9185   2.067   2.665   1.760
 3060TIP3    H1 9186   2.010   2.675   1.836
 3060TIP3    H2 9187   2.120   2.744   1.758
 3061TIP3   OH2 9188   0.049   5.927   0.491
 3061TIP3    H1 9189   0.077   6.019   0.487
 3061TIP3    H2 9190   0.107   5.888   0.557
 3062TIP3   OH2 9191   2.912   2.325   0.070
 3062TIP3    H1 9192   2.849   2.395   0.081
 3062TIP3    H2 9193   2.870   2.263   0.011
 3063TIP3   OH2 9194   0.951   1.257   2.608
 3063TIP3    H1 9195   1.015   1.296   2.548
 3063TIP3    H2 9196   1.004   1.226   2.681
 3064TIP3   OH2 9197   0.247   4.005   2.388
 3064TIP3    H1 9198   0.343   4.002   2.393
 3064TIP3    H2 9199   0.227   4.098   2.376
 3065TIP3   OH2 9200   0.674   2.137   2.491
 3065TIP3    H1 9201   0.730   2.198   2.540
 3065TIP3    H2 9202   0.587   2.177   2.494
 3066TIP3   OH2 9203   0.934   4.622   2.349
 3066TIP3    H1 9204   0.944   4.704   2.398
 3066TIP3    H2 9205   0.980   4.636   2.267
 3067TIP3   OH2 9206   3.939   1.855   2.444
 3067TIP3    H1 9207   3.922   1.791   2.514
 3067TIP3    H2 9208   4.030   1.881   2.458
 3068TIP3   OH2 9209   4.285   4.836   0.305
 3068TIP3    H1 9210   4.283   4.845   0.210
 3068TIP3    H2 9211   4.341   4.908   0.334
 3069TIP3   OH2 9212   5.820   5.224   1.167
 3069TIP3    H1 9213   5.789   5.226   1.076
 3069TIP3    H2 9214   5.804   5.312   1.199
 3070TIP3   OH2 9215   2.666   0.556   4.926
 3070TIP3    H1 9216   2.755   0.591   4.924
 3070TIP3    H2 9217   2.621   0.609   4.992
 3071TIP3   OH2 9218   5.694   1.774   0.504
 3071TIP3    H1 9219   5.767   1.813   0.456
 3071TIP3    H2 9220   5.685   1.829   0.582
 3072TIP3   OH2 9221   5.997   1.195   1.993
 3072TIP3    H1 9222   5.989   1.260   1.923
 3072TIP3    H2 9223   6.060   1.234   2.054
 3073TIP3   OH2 9224   4.620   2.617   3.986
 3073TIP3    H1 9225   4.595   2.611   3.893
 3073TIP3    H2 9226   4.714   2.603   3.986
 3074TIP3   OH2 9227   6.170   4.911   3.129
 3074TIP3    H1 9228   6.172   4.830   3.078
 3074TIP3    H2 9229   6.207   4.977   3.071
 3075TIP3   OH2 9230   2.932   3.406   4.344
 3075TIP3    H1 9231   2.899   3.343   4.280
 3075TIP3    H2 9232   2.979   3.353   4.408
 3076TIP3   OH2 9233   3.561   3.250   0.929
 3076TIP3    H1 9234   3.626   3.193   0.970
 3076TIP3    H2 9235   3.484   3.242   0.985
 3077TIP3   OH2 9236   3.224   0.548   0.346
 3077TIP3    H1 9237   3.227   0.455   0.366
 3077TIP3    H2 9238   3.131   0.567   0.330
 3078TIP3   OH2 9239   2.706   0.998   0.296
 3078TIP3    H1 9240   2.757   1.016   0.218
 3078TIP3    H2 9241   2.629   1.055   0.288
 3079TIP3   OH2 9242   3.974   4.972   0.987
 3079TIP3    H1 9243   3.950   4.880   0.998
 3079TIP3    H2 9244   4.031   4.991   1.061
 3080TIP3   OH2 9245   6.288   4.303   4.410
 3080TIP3    H1 9246   6.276   4.314   4.316
 3080TIP3    H2 9247   6.366   4.355   4.431
 3081TIP3   OH2 9248   1.534   4.305   5.015
 3081TIP3    H1 9249   1.559   4.397   5.019
 3081TIP3    H2 9250   1.449   4.305   4.971
 3082TIP3   OH2 9251   3.825   5.316   0.421
 3082TIP3    H1 9252   3.879   5.256   0.472
 3082TIP3    H2 9253   3.795   5.263   0.346
 3083TIP3   OH2 9254   0.593   3.377   1.272
 3083TIP3    H1 9255   0.557   3.349   1.188
 3083TIP3    H2 9256   0.533   3.340   1.337
 3084TIP3   OH2 9257   1.206   3.353   5.128
 3084TIP3    H1 9258   1.130   3.295   5.125
 3084TIP3    H2 9259   1.185   3.423   5.067
 3085TIP3   OH2 9260   3.271   0.153   1.875
 3085TIP3    H1 9261   3.314   0.225   1.922
 3085TIP3    H2 9262   3.343   0.103   1.837
 3086TIP3   OH2 9263   4.809   1.913   3.088
 3086TIP3    H1 9264   4.872   1.975   3.125
 3086TIP3    H2 9265   4.723   1.949   3.110
 3087TIP3   OH2 9266   5.389   1.701   5.039
 3087TIP3    H1 9267   5.339   1.627   5.005
 3087TIP3    H2 9268   5.458   1.716   4.974
 3088TIP3   OH2 9269   2.871   1.411   5.119
 3088TIP3    H1 9270   2.813   1.386   5.190
 3088TIP3    H2 9271   2.954   1.433   5.162
 3089TIP3   OH2 9272   0.045   2.201   1.937
 3089TIP3    H1 9273  -0.026   2.265   1.944
 3089TIP3    H2 9274   0.049   2.178   1.844
 3090TIP3   OH2 9275   1.964   2.150   4.970
 3090TIP3    H1 9276   2.015   2.106   4.902
 3090TIP3    H2 9277   2.026   2.210   5.011
 3091TIP3   OH2 9278   5.165   2.950   2.540
 3091TIP3    H1 9279   5.145   2.865   2.500
 3091TIP3    H2 9280   5.240   2.982   2.490
 3092TIP3   OH2 9281   0.722   2.447   1.974
 3092TIP3    H1 9282   0.740   2.384   2.043
 3092TIP3    H2 9283   0.642   2.491   2.001
 3093TIP3   OH2 9284   6.049   1.308   0.648
 3093TIP3    H1 9285   5.996   1.380   0.612
 3093TIP3    H2 9286   6.038   1.315   0.743
 3094TIP3   OH2 9287   5.870   5.447   3.379
 3094TIP3    H1 9288   5.823   5.420   3.300
 3094TIP3    H2 9289   5.901   5.365   3.418
 3095TIP3   OH2 9290   4.447   1.203   3.793
 3095TIP3    H1 9291   4.495   1.283   3.817
 3095TIP3    H2 9292   4.374   1.200   3.855
 3096TIP3   OH2 9293   1.656   1.885   2.390
 3096TIP3    H1 9294   1.732   1.827   2.390
 3096TIP3    H2 9295   1.588   1.837   2.342
 3097TIP3   OH2 9296   6.041   2.181   3.822
 3097TIP3    H1 9297   5.958   2.178   3.870
 3097TIP3    H2 9298   6.017   2.170   3.730
 3098TIP3   OH2 9299   3.864   3.571   2.430
 3098TIP3    H1 9300   3.942   3.538   2.384
 3098TIP3    H2 9301   3.826   3.635   2.370
 3099TIP3   OH2 9302   4.900   5.796   4.103
 3099TIP3    H1 9303   4.880   5.869   4.045
 3099TIP3    H2 9304   4.879   5.718   4.051
 3100TIP3   OH2 9305   1.558   3.572   5.117
 3100TIP3    H1 9306   1.565   3.558   5.023
 3100TIP3    H2 9307   1.598   3.658   5.132
 3101TIP3   OH2 9308   2.508   1.305   2.879
 3101TIP3    H1 9309   2.515   1.216   2.843
 3101TIP3    H2 9310   2.448   1.296   2.953
 3102TIP3   OH2 9311   1.749   0.352   0.898
 3102TIP3    H1 9312   1.706   0.304   0.969
 3102TIP3    H2 9313   1.791   0.426   0.941
 3103TIP3   OH2 9314   4.372   1.070   4.416
 3103TIP3    H1 9315   4.447   1.014   4.435
 3103TIP3    H2 9316   4.392   1.110   4.331
 3104TIP3   OH2 9317   1.733   2.058   0.117
 3104TIP3    H1 9318   1.702   2.132   0.064
 3104TIP3    H2 9319   1.754   2.097   0.202
 3105TIP3   OH2 9320   1.381   3.007   4.380
 3105TIP3    H1 9321   1.473   3.025   4.363
 3105TIP3    H2 9322   1.345   2.983   4.294
 3106TIP3   OH2 9323   0.441   4.405   2.182
 3106TIP3    H1 9324   0.489   4.478   2.222
 3106TIP3    H2 9325   0.378   4.448   2.124
 3107TIP3   OH2 9326   6.077   5.731   3.845
 3107TIP3    H1 9327   5.996   5.782   3.850
 3107TIP3    H2 9328   6.115   5.753   3.761
 3108TIP3   OH2 9329   5.784   1.474   4.529
 3108TIP3    H1 9330   5.742   1.424   4.459
 3108TIP3    H2 9331   5.760   1.565   4.510
 3109TIP3   OH2 9332   6.229   2.722   2.575
 3109TIP3    H1 9333   6.230   2.627   2.585
 3109TIP3    H2 9334   6.174   2.738   2.498
 3110TIP3   OH2 9335   6.021   5.542   2.731
 3110TIP3    H1 9336   6.013   5.545   2.827
 3110TIP3    H2 9337   6.094   5.600   2.712
 3111TIP3   OH2 9338   3.839   0.897   2.750
 3111TIP3    H1 9339   3.828   0.879   2.657
 3111TIP3    H2 9340   3.756   0.937   2.777
 3112TIP3   OH2 9341   3.966   3.751   3.489
 3112TIP3    H1 9342   3.907   3.824   3.507
 3112TIP3    H2 9343   3.908   3.681   3.457
 3113TIP3   OH2 9344   4.691   5.773   3.847
 3113TIP3    H1 9345   4.725   5.683   3.844
 3113TIP3    H2 9346   4.603   5.763   3.882
 3114TIP3   OH2 9347   1.753   3.340   1.140
 3114TIP3    H1 9348   1.763   3.341   1.045
 3114TIP3    H2 9349   1.830   3.294   1.172
 3115TIP3   OH2 9350   3.199   3.191   3.189
 3115TIP3    H1 9351   3.285   3.155   3.168
 3115TIP3    H2 9352   3.216   3.284   3.206
 3116TIP3   OH2 9353   2.607   0.727   0.352
 3116TIP3    H1 9354   2.667   0.682   0.292
 3116TIP3    H2 9355   2.608   0.818   0.324
 3117TIP3   OH2 9356   0.527   4.406   1.693
 3117TIP3    H1 9357   0.461   4.404   1.763
 3117TIP3    H2 9358   0.515   4.492   1.652
 3118TIP3   OH2 9359   5.340   3.277   1.532
 3118TIP3    H1 9360   5.398   3.319   1.595
 3118TIP3    H2 9361   5.388   3.280   1.449
 3119TIP3   OH2 9362   5.975   2.973   0.438
 3119TIP3    H1 9363   6.062   2.942   0.413
 3119TIP3    H2 9364   5.917   2.935   0.372
 3120TIP3   OH2 9365   1.476   3.394   4.527
 3120TIP3    H1 9366   1.547   3.436   4.577
 3120TIP3    H2 9367   1.413   3.367   4.593
 3121TIP3   OH2 9368   2.827   3.242   2.608
 3121TIP3    H1 9369   2.877   3.224   2.687
 3121TIP3    H2 9370   2.891   3.245   2.538
 3122TIP3   OH2 9371   4.695   1.452   1.580
 3122TIP3    H1 9372   4.687   1.479   1.488
 3122TIP3    H2 9373   4.621   1.393   1.594
 3123TIP3   OH2 9374   4.481   3.612   1.221
 3123TIP3    H1 9375   4.524   3.688   1.258
 3123TIP3    H2 9376   4.448   3.564   1.297
 3124TIP3   OH2 9377   3.491   5.626   0.177
 3124TIP3    H1 9378   3.565   5.572   0.205
 3124TIP3    H2 9379   3.530   5.695   0.124
 3125TIP3   OH2 9380   5.355   0.776   3.887
 3125TIP3    H1 9381   5.282   0.821   3.844
 3125TIP3    H2 9382   5.367   0.824   3.969
 3126TIP3   OH2 9383   2.400   0.224   3.394
 3126TIP3    H1 9384   2.334   0.154   3.396
 3126TIP3    H2 9385   2.384   0.269   3.312
 3127TIP3   OH2 9386   3.049   3.168   3.617
 3127TIP3    H1 9387   2.991   3.167   3.694
 3127TIP3    H2 9388   3.097   3.085   3.622
 3128TIP3   OH2 9389   0.414   5.199   4.183
 3128TIP3    H1 9390   0.371   5.117   4.158
 3128TIP3    H2 9391   0.462   5.225   4.105
 3129TIP3   OH2 9392   1.936   5.927   1.599
 3129TIP3    H1 9393   1.927   5.998   1.536
 3129TIP3    H2 9394   1.888   5.956   1.676
 3130TIP3   OH2 9395   5.988   3.383   3.335
 3130TIP3    H1 9396   6.003   3.297   3.373
 3130TIP3    H2 9397   5.943   3.366   3.252
 3131TIP3   OH2 9398   2.709   3.938   4.519
 3131TIP3    H1 9399   2.705   3.870   4.586
 3131TIP3    H2 9400   2.634   3.994   4.538
 3132TIP3   OH2 9401   3.660   4.926   3.376
 3132TIP3    H1 9402   3.663   4.905   3.470
 3132TIP3    H2 9403   3.688   5.017   3.371
 3133TIP3   OH2 9404   0.485   1.328   3.990
 3133TIP3    H1 9405   0.480   1.402   3.929
 3133TIP3    H2 9406   0.570   1.288   3.972
 3134TIP3   OH2 9407   4.409   2.117   0.371
 3134TIP3    H1 9408   4.333   2.081   0.416
 3134TIP3    H2 9409   4.483   2.095   0.427
 3135TIP3   OH2 9410   5.493   5.002   3.148
 3135TIP3    H1 9411   5.420   4.967   3.200
 3135TIP3    H2 9412   5.451   5.046   3.074
 3136TIP3   OH2 9413   5.003   3.708   2.934
 3136TIP3    H1 9414   4.926   3.735   2.983
 3136TIP3    H2 9415   5.035   3.630   2.980
 3137TIP3   OH2 9416   2.468   4.526   4.348
 3137TIP3    H1 9417   2.508   4.612   4.335
 3137TIP3    H2 9418   2.380   4.535   4.312
 3138TIP3   OH2 9419   4.554   2.490   2.780
 3138TIP3    H1 9420   4.588   2.573   2.747
 3138TIP3    H2 9421   4.466   2.483   2.742
 3139TIP3   OH2 9422   3.990   1.240   1.541
 3139TIP3    H1 9423   3.928   1.304   1.577
 3139TIP3    H2 9424   3.940   1.159   1.535
 3140TIP3   OH2 9425   2.916   1.697   0.181
 3140TIP3    H1 9426   2.973   1.773   0.188
 3140TIP3    H2 9427   2.948   1.637   0.249
 3141TIP3   OH2 9428   0.385   2.772   1.522
 3141TIP3    H1 9429   0.454   2.765   1.456
 3141TIP3    H2 9430   0.431   2.799   1.602
 3142TIP3   OH2 9431   4.020   4.436   3.476
 3142TIP3    H1 9432   3.940   4.442   3.527
 3142TIP3    H2 9433   3.995   4.463   3.388
 3143TIP3   OH2 9434   0.995   1.631   4.975
 3143TIP3    H1 9435   1.070   1.670   5.021
 3143TIP3    H2 9436   0.935   1.704   4.962
 3144TIP3   OH2 9437   5.198   5.024   4.672
 3144TIP3    H1 9438   5.124   4.983   4.628
 3144TIP3    H2 9439   5.163   5.053   4.756
 3145TIP3   OH2 9440   3.993   4.553   2.363
 3145TIP3    H1 9441   4.065   4.592   2.413
 3145TIP3    H2 9442   3.917   4.561   2.420
 3146TIP3   OH2 9443   1.440   3.594   0.954
 3146TIP3    H1 9444   1.493   3.639   1.020
 3146TIP3    H2 9445   1.473   3.504   0.954
 3147TIP3   OH2 9446   4.572   0.978   1.776
 3147TIP3    H1 9447   4.559   0.962   1.682
 3147TIP3    H2 9448   4.540   0.899   1.818
 3148TIP3   OH2 9449   5.346   1.412   0.230
 3148TIP3    H1 9450   5.345   1.378   0.141
 3148TIP3    H2 9451   5.290   1.490   0.226
 3149TIP3   OH2 9452   2.527   5.180   4.998
 3149TIP3    H1 9453   2.590   5.150   5.064
 3149TIP3    H2 9454   2.517   5.104   4.940
 3150TIP3   OH2 9455   5.144   2.097   4.649
 3150TIP3    H1 9456   5.088   2.138   4.583
 3150TIP3    H2 9457   5.183   2.022   4.604
 3151TIP3   OH2 9458   1.957   3.215   4.583
 3151TIP3    H1 9459   2.036   3.162   4.591
 3151TIP3    H2 9460   1.900   3.183   4.652
 3152TIP3   OH2 9461   4.657   4.313   4.633
 3152TIP3    H1 9462   4.675   4.304   4.540
 3152TIP3    H2 9463   4.636   4.224   4.663
 3153TIP3   OH2 9464   5.435   3.151   3.576
 3153TIP3    H1 9465   5.341   3.162   3.559
 3153TIP3    H2 9466   5.462   3.234   3.617
 3154TIP3   OH2 9467   5.110   4.936   5.132
 3154TIP3    H1 9468   5.118   5.029   5.111
 3154TIP3    H2 9469   5.160   4.926   5.213
 3155TIP3   OH2 9470   4.136   2.109   0.439
 3155TIP3    H1 9471   4.081   2.079   0.511
 3155TIP3    H2 9472   4.073   2.141   0.373
 3156TIP3   OH2 9473   0.888   0.995   3.096
 3156TIP3    H1 9474   0.875   1.051   3.173
 3156TIP3    H2 9475   0.975   1.018   3.064
 3157TIP3   OH2 9476   1.617   1.976   3.342
 3157TIP3    H1 9477   1.574   1.896   3.371
 3157TIP3    H2 9478   1.662   1.951   3.261
 3158TIP3   OH2 9479   5.110   5.533   3.392
 3158TIP3    H1 9480   5.112   5.629   3.387
 3158TIP3    H2 9481   5.033   5.508   3.340
 3159TIP3   OH2 9482   5.015   2.702   3.409
 3159TIP3    H1 9483   4.991   2.752   3.331
 3159TIP3    H2 9484   5.068   2.763   3.460
 3160TIP3   OH2 9485   3.658   1.103   5.140
 3160TIP3    H1 9486   3.713   1.070   5.211
 3160TIP3    H2 9487   3.594   1.034   5.125
 3161TIP3   OH2 9488   5.558   3.509   2.009
 3161TIP3    H1 9489   5.600   3.493   2.094
 3161TIP3    H2 9490   5.479   3.559   2.031
 3162TIP3   OH2 9491   5.520   2.065   0.997
 3162TIP3    H1 9492   5.600   2.116   1.009
 3162TIP3    H2 9493   5.455   2.129   0.968
 3163TIP3   OH2 9494   2.111   5.736   2.135
 3163TIP3    H1 9495   2.078   5.648   2.150
 3163TIP3    H2 9496   2.035   5.786   2.106
 3164TIP3   OH2 9497   2.525   3.828   0.072
 3164TIP3    H1 9498   2.563   3.915   0.081
 3164TIP3    H2 9499   2.528   3.791   0.160
 3165TIP3   OH2 9500   2.454   0.638   0.549
 3165TIP3    H1 9501   2.392   0.706   0.574
 3165TIP3    H2 9502   2.508   0.677   0.480
 3166TIP3   OH2 9503   5.855   2.104   2.322
 3166TIP3    H1 9504   5.798   2.055   2.263
 3166TIP3    H2 9505   5.799   2.126   2.396
 3167TIP3   OH2 9506   4.393   4.684   1.602
 3167TIP3    H1 9507   4.375   4.634   1.523
 3167TIP3    H2 9508   4.311   4.685   1.650
 3168TIP3   OH2 9509   2.458   1.314   4.308
 3168TIP3    H1 9510   2.389   1.277   4.254
 3168TIP3    H2 9511   2.422   1.313   4.397
 3169TIP3   OH2 9512   5.866   1.528   0.572
 3169TIP3    H1 9513   5.800   1.463   0.597
 3169TIP3    H2 9514   5.824   1.612   0.587
 3170TIP3   OH2 9515   1.609   5.803   4.156
 3170TIP3    H1 9516   1.627   5.752   4.235
 3170TIP3    H2 9517   1.562   5.880   4.187
 3171TIP3   OH2 9518   4.241   2.029   2.880
 3171TIP3    H1 9519   4.244   2.063   2.969
 3171TIP3    H2 9520   4.300   1.953   2.881
 3172TIP3   OH2 9521   2.810   5.512   5.129
 3172TIP3    H1 9522   2.781   5.563   5.053
 3172TIP3    H2 9523   2.729   5.485   5.172
 3173TIP3   OH2 9524   3.204   4.312   0.802
 3173TIP3    H1 9525   3.271   4.348   0.744
 3173TIP3    H2 9526   3.127   4.301   0.746
 3174TIP3   OH2 9527   6.107   1.035   2.610
 3174TIP3    H1 9528   6.046   1.083   2.554
 3174TIP3    H2 9529   6.055   1.009   2.685
 3175TIP3   OH2 9530   0.963   3.472   4.734
 3175TIP3    H1 9531   1.046   3.491   4.777
 3175TIP3    H2 9532   0.935   3.555   4.696
 3176TIP3   OH2 9533   1.515   1.461   2.313
 3176TIP3    H1 9534   1.550   1.504   2.391
 3176TIP3    H2 9535   1.568   1.494   2.241
 3177TIP3   OH2 9536   2.952   5.298   0.265
 3177TIP3    H1 9537   2.988   5.384   0.291
 3177TIP3    H2 9538   2.967   5.242   0.341
 3178TIP3   OH2 9539   5.790   1.037   4.064
 3178TIP3    H1 9540   5.852   0.981   4.110
 3178TIP3    H2 9541   5.706   1.022   4.106
 3179TIP3   OH2 9542   0.332   2.726   0.281
 3179TIP3    H1 9543   0.316   2.712   0.188
 3179TIP3    H2 9544   0.387   2.653   0.308
 3180TIP3   OH2 9545   1.196   2.494   2.859
 3180TIP3    H1 9546   1.257   2.565   2.881
 3180TIP3    H2 9547   1.121   2.508   2.916
 3181TIP3   OH2 9548   0.599   3.798   2.944
 3181TIP3    H1 9549   0.626   3.707   2.957
 3181TIP3    H2 9550   0.674   3.850   2.973
 3182TIP3   OH2 9551   0.672   4.424   4.634
 3182TIP3    H1 9552   0.603   4.477   4.595
 3182TIP3    H2 9553   0.639   4.402   4.722
 3183TIP3   OH2 9554   2.980   0.545   3.278
 3183TIP3    H1 9555   2.901   0.563   3.228
 3183TIP3    H2 9556   3.050   0.589   3.230
 3184TIP3   OH2 9557   5.031   0.751   2.069
 3184TIP3    H1 9558   5.095   0.816   2.041
 3184TIP3    H2 9559   5.026   0.689   1.996
 3185TIP3   OH2 9560   5.165   3.271   1.909
 3185TIP3    H1 9561   5.083   3.222   1.911
 3185TIP3    H2 9562   5.171   3.311   1.996
 3186TIP3   OH2 9563   0.525   2.886   1.745
 3186TIP3    H1 9564   0.484   2.882   1.831
 3186TIP3    H2 9565   0.527   2.979   1.722
 3187TIP3   OH2 9566   1.628   0.376   2.344
 3187TIP3    H1 9567   1.568   0.404   2.275
 3187TIP3    H2 9568   1.659   0.290   2.316
 3188TIP3   OH2 9569   0.447   0.658   1.796
 3188TIP3    H1 9570   0.375   0.694   1.745
 3188TIP3    H2 9571   0.410   0.580   1.838
 3189TIP3   OH2 9572   2.193   0.919   3.626
 3189TIP3    H1 9573   2.271   0.866   3.641
 3189TIP3    H2 9574   2.213   1.003   3.666
 3190TIP3   OH2 9575   5.549   1.755   3.037
 3190TIP3    H1 9576   5.565   1.702   3.116
 3190TIP3    H2 9577   5.517   1.839   3.070
 3191TIP3   OH2 9578   6.291   5.657   0.941
 3191TIP3    H1 9579   6.340   5.738   0.928
 3191TIP3    H2 9580   6.210   5.684   0.985
 3192TIP3   OH2 9581   6.247   0.108   2.526
 3192TIP3    H1 9582   6.321   0.088   2.583
 3192TIP3    H2 9583   6.248   0.203   2.518
 3193TIP3   OH2 9584   6.061   4.010   4.258
 3193TIP3    H1 9585   6.052   3.917   4.280
 3193TIP3    H2 9586   6.143   4.016   4.209
 3194TIP3   OH2 9587   3.663   1.524   4.865
 3194TIP3    H1 9588   3.640   1.457   4.928
 3194TIP3    H2 9589   3.596   1.592   4.876
 3195TIP3   OH2 9590   1.025   2.923   3.142
 3195TIP3    H1 9591   0.944   2.912   3.092
 3195TIP3    H2 9592   1.048   3.016   3.129
 3196TIP3   OH2 9593   0.223   3.236   3.387
 3196TIP3    H1 9594   0.163   3.182   3.438
 3196TIP3    H2 9595   0.166   3.298   3.341
 3197TIP3   OH2 9596   1.926   3.192   3.139
 3197TIP3    H1 9597   2.012   3.235   3.143
 3197TIP3    H2 9598   1.870   3.255   3.092
 3198TIP3   OH2 9599   3.915   2.593   3.961
 3198TIP3    H1 9600   3.987   2.567   3.904
 3198TIP3    H2 9601   3.946   2.675   4.001
 3199TIP3   OH2 9602   5.782   2.034   1.104
 3199TIP3    H1 9603   5.866   1.993   1.084
 3199TIP3    H2 9604   5.751   1.989   1.183
 3200TIP3   OH2 9605   2.925   1.495   0.362
 3200TIP3    H1 9606   2.975   1.550   0.423
 3200TIP3    H2 9607   2.955   1.406   0.380
 3201TIP3   OH2 9608   1.044   5.333   4.747
 3201TIP3    H1 9609   1.101   5.406   4.770
 3201TIP3    H2 9610   1.038   5.336   4.652
 3202TIP3   OH2 9611   3.612   0.624   1.620
 3202TIP3    H1 9612   3.707   0.621   1.611
 3202TIP3    H2 9613   3.581   0.657   1.536
 3203TIP3   OH2 9614   4.483   0.205   2.998
 3203TIP3    H1 9615   4.457   0.235   2.911
 3203TIP3    H2 9616   4.519   0.282   3.040
 3204TIP3   OH2 9617   4.055   5.901   1.112
 3204TIP3    H1 9618   4.014   5.911   1.026
 3204TIP3    H2 9619   3.990   5.855   1.165
 3205TIP3   OH2 9620   0.428   2.297   5.045
 3205TIP3    H1 9621   0.466   2.348   4.973
 3205TIP3    H2 9622   0.455   2.343   5.124
 3206TIP3   OH2 9623   1.335   4.689   2.282
 3206TIP3    H1 9624   1.381   4.712   2.363
 3206TIP3    H2 9625   1.279   4.764   2.263
 3207TIP3   OH2 9626   3.146   4.082   2.705
 3207TIP3    H1 9627   3.078   4.149   2.697
 3207TIP3    H2 9628   3.219   4.127   2.747
 3208TIP3   OH2 9629   5.101   2.992   0.953
 3208TIP3    H1 9630   5.022   2.947   0.983
 3208TIP3    H2 9631   5.105   2.973   0.859
 3209TIP3   OH2 9632   0.652   2.839   0.970
 3209TIP3    H1 9633   0.650   2.900   0.896
 3209TIP3    H2 9634   0.572   2.788   0.962
 3210TIP3   OH2 9635   5.338   1.240   2.971
 3210TIP3    H1 9636   5.374   1.324   3.000
 3210TIP3    H2 9637   5.411   1.178   2.979
 3211TIP3   OH2 9638   6.118   4.949   3.757
 3211TIP3    H1 9639   6.066   4.987   3.687
 3211TIP3    H2 9640   6.073   4.974   3.837
 3212TIP3   OH2 9641   5.066   1.495   2.348
 3212TIP3    H1 9642   5.001   1.508   2.279
 3212TIP3    H2 9643   5.064   1.401   2.365
 3213TIP3   OH2 9644   4.298   1.685   1.153
 3213TIP3    H1 9645   4.213   1.668   1.113
 3213TIP3    H2 9646   4.346   1.736   1.088
 3214TIP3   OH2 9647   2.595   4.465   0.008
 3214TIP3    H1 9648   2.606   4.455  -0.087
 3214TIP3    H2 9649   2.645   4.393   0.045
 3215TIP3   OH2 9650   1.717   5.833   4.739
 3215TIP3    H1 9651   1.773   5.765   4.703
 3215TIP3    H2 9652   1.775   5.909   4.751
 3216TIP3   OH2 9653   0.110   2.170   5.134
 3216TIP3    H1 9654   0.147   2.085   5.112
 3216TIP3    H2 9655   0.162   2.201   5.208
 3217TIP3   OH2 9656   1.395   3.651   2.497
 3217TIP3    H1 9657   1.463   3.718   2.487
 3217TIP3    H2 9658   1.434   3.571   2.461
 3218TIP3   OH2 9659   4.126   2.447   3.851
 3218TIP3    H1 9660   4.203   2.461   3.906
 3218TIP3    H2 9661   4.152   2.378   3.791
 3219TIP3   OH2 9662   1.905   0.877   3.216
 3219TIP3    H1 9663   1.882   0.917   3.133
 3219TIP3    H2 9664   1.998   0.895   3.228
 3220TIP3   OH2 9665   2.637   4.121   4.160
 3220TIP3    H1 9666   2.601   4.183   4.224
 3220TIP3    H2 9667   2.572   4.120   4.089
 3221TIP3   OH2 9668   1.756   2.064   5.144
 3221TIP3    H1 9669   1.746   1.970   5.131
 3221TIP3    H2 9670   1.813   2.092   5.073
 3222TIP3   OH2 9671   0.080   5.658   2.860
 3222TIP3    H1 9672   0.165   5.702   2.861
 3222TIP3    H2 9673   0.022   5.716   2.811
 3223TIP3   OH2 9674   2.209   1.749   4.448
 3223TIP3    H1 9675   2.187   1.688   4.378
 3223TIP3    H2 9676   2.129   1.757   4.499
 3224TIP3   OH2 9677   3.591   0.885   0.572
 3224TIP3    H1 9678   3.685   0.874   0.587
 3224TIP3    H2 9679   3.573   0.836   0.492
 3225TIP3   OH2 9680   5.714   3.774   1.448
 3225TIP3    H1 9681   5.637   3.811   1.492
 3225TIP3    H2 9682   5.686   3.686   1.422
 3226TIP3   OH2 9683   5.427   0.210   3.240
 3226TIP3    H1 9684   5.344   0.162   3.241
 3226TIP3    H2 9685   5.487   0.156   3.291
 3227TIP3   OH2 9686   2.873   5.899   4.328
 3227TIP3    H1 9687   2.919   5.955   4.390
 3227TIP3    H2 9688   2.821   5.841   4.382
 3228TIP3   OH2 9689   3.445   0.322   4.377
 3228TIP3    H1 9690   3.374   0.386   4.377
 3228TIP3    H2 9691   3.442   0.282   4.464
 3229TIP3   OH2 9692   5.672   2.783   1.102
 3229TIP3    H1 9693   5.608   2.854   1.094
 3229TIP3    H2 9694   5.757   2.826   1.092
 3230TIP3   OH2 9695   5.923   3.301   0.886
 3230TIP3    H1 9696   5.929   3.273   0.795
 3230TIP3    H2 9697   5.829   3.296   0.906
 3231TIP3   OH2 9698   1.390   2.055   1.548
 3231TIP3    H1 9699   1.450   2.096   1.485
 3231TIP3    H2 9700   1.312   2.036   1.497
 3232TIP3   OH2 9701   5.404   1.046   3.606
 3232TIP3    H1 9702   5.432   0.966   3.562
 3232TIP3    H2 9703   5.457   1.049   3.686
 3233TIP3   OH2 9704   1.050   0.009   2.095
 3233TIP3    H1 9705   1.120   0.073   2.090
 3233TIP3    H2 9706   1.006   0.015   2.010
 3234TIP3   OH2 9707   3.400   1.743   3.301
 3234TIP3    H1 9708   3.316   1.752   3.257
 3234TIP3    H2 9709   3.451   1.685   3.245
 3235TIP3   OH2 9710   3.164   2.229   3.954
 3235TIP3    H1 9711   3.145   2.247   4.046
 3235TIP3    H2 9712   3.207   2.144   3.955
 3236TIP3   OH2 9713   6.362   2.749   2.972
 3236TIP3    H1 9714   6.413   2.707   2.903
 3236TIP3    H2 9715   6.352   2.682   3.039
 3237TIP3   OH2 9716   3.776   0.032   3.001
 3237TIP3    H1 9717   3.818   0.092   2.940
 3237TIP3    H2 9718   3.737  -0.036   2.946
 3238TIP3   OH2 9719   5.961   3.085   2.133
 3238TIP3    H1 9720   5.906   3.020   2.175
 3238TIP3    H2 9721   5.958   3.063   2.040
 3239TIP3   OH2 9722   3.174   4.585   0.261
 3239TIP3    H1 9723   3.205   4.645   0.328
 3239TIP3    H2 9724   3.163   4.501   0.307
 3240TIP3   OH2 9725   5.072   0.023   1.015
 3240TIP3    H1 9726   5.002   0.063   1.066
 3240TIP3    H2 9727   5.057  -0.071   1.024
 3241TIP3   OH2 9728   0.079   2.033   4.711
 3241TIP3    H1 9729   0.075   2.010   4.804
 3241TIP3    H2 9730   0.119   2.120   4.709
 3242TIP3   OH2 9731   5.893   2.270   1.550
 3242TIP3    H1 9732   5.924   2.327   1.621
 3242TIP3    H2 9733   5.809   2.307   1.524
 3243TIP3   OH2 9734   2.321   5.269   5.201
 3243TIP3    H1 9735   2.365   5.234   5.123
 3243TIP3    H2 9736   2.391   5.309   5.252
 3244TIP3   OH2 9737   5.747   2.620   2.982
 3244TIP3    H1 9738   5.808   2.693   2.979
 3244TIP3    H2 9739   5.781   2.558   2.918
 3245TIP3   OH2 9740   3.080   3.274   2.481
 3245TIP3    H1 9741   3.163   3.229   2.469
 3245TIP3    H2 9742   3.102   3.367   2.482
 3246TIP3   OH2 9743   0.322   0.166   0.434
 3246TIP3    H1 9744   0.241   0.192   0.390
 3246TIP3    H2 9745   0.347   0.084   0.390
 3247TIP3   OH2 9746   4.875   1.753   0.532
 3247TIP3    H1 9747   4.901   1.666   0.562
 3247TIP3    H2 9748   4.947   1.811   0.559
 3248TIP3   OH2 9749   0.821   2.120   0.111
 3248TIP3    H1 9750   0.869   2.175   0.049
 3248TIP3    H2 9751   0.829   2.032   0.076
 3249TIP3   OH2 9752   2.881   4.776   3.345
 3249TIP3    H1 9753   2.821   4.708   3.375
 3249TIP3    H2 9754   2.955   4.770   3.405
 3250TIP3   OH2 9755   2.040   4.047   0.065
 3250TIP3    H1 9756   2.101   4.095   0.009
 3250TIP3    H2 9757   1.960   4.099   0.064
 3251TIP3   OH2 9758   1.498   2.426   1.933
 3251TIP3    H1 9759   1.418   2.383   1.962
 3251TIP3    H2 9760   1.475   2.468   1.850
 3252TIP3   OH2 9761   0.998   2.904   0.647
 3252TIP3    H1 9762   1.024   2.997   0.649
 3252TIP3    H2 9763   0.906   2.906   0.619
 3253TIP3   OH2 9764   4.855   5.150   4.362
 3253TIP3    H1 9765   4.820   5.211   4.428
 3253TIP3    H2 9766   4.782   5.090   4.344
 3254TIP3   OH2 9767   2.336   0.970   4.199
 3254TIP3    H1 9768   2.419   0.967   4.152
 3254TIP3    H2 9769   2.305   1.060   4.188
 3255TIP3   OH2 9770   0.225   2.538   3.865
 3255TIP3    H1 9771   0.185   2.456   3.895
 3255TIP3    H2 9772   0.205   2.541   3.772
 3256TIP3   OH2 9773   3.003   0.317   1.766
 3256TIP3    H1 9774   3.089   0.286   1.738
 3256TIP3    H2 9775   2.955   0.331   1.685
 3257TIP3   OH2 9776   2.844   0.809   3.886
 3257TIP3    H1 9777   2.912   0.774   3.828
 3257TIP3    H2 9778   2.774   0.744   3.883
 3258TIP3   OH2 9779   2.754   3.141   1.870
 3258TIP3    H1 9780   2.814   3.212   1.894
 3258TIP3    H2 9781   2.671   3.166   1.911
 3259TIP3   OH2 9782   2.155   1.351   4.775
 3259TIP3    H1 9783   2.183   1.347   4.866
 3259TIP3    H2 9784   2.122   1.441   4.764
 3260TIP3   OH2 9785   5.128  -0.063   3.482
 3260TIP3    H1 9786   5.126   0.031   3.463
 3260TIP3    H2 9787   5.172  -0.069   3.567
 3261TIP3   OH2 9788   1.165   1.273   4.842
 3261TIP3    H1 9789   1.156   1.192   4.792
 3261TIP3    H2 9790   1.246   1.313   4.810
 3262TIP3   OH2 9791   1.837   2.925   1.602
 3262TIP3    H1 9792   1.779   2.937   1.526
 3262TIP3    H2 9793   1.802   2.983   1.669
 3263TIP3   OH2 9794   5.953   5.802   2.524
 3263TIP3    H1 9795   5.927   5.710   2.511
 3263TIP3    H2 9796   5.928   5.821   2.615
 3264TIP3   OH2 9797   3.657   3.144   1.999
 3264TIP3    H1 9798   3.694   3.215   1.947
 3264TIP3    H2 9799   3.651   3.070   1.939
 3265TIP3   OH2 9800   4.374   5.070   2.854
 3265TIP3    H1 9801   4.334   5.125   2.922
 3265TIP3    H2 9802   4.400   4.991   2.901
 3266TIP3   OH2 9803   2.050   2.659   2.183
 3266TIP3    H1 9804   2.045   2.575   2.229
 3266TIP3    H2 9805   2.131   2.698   2.215
 3267TIP3   OH2 9806   1.139   3.434   4.139
 3267TIP3    H1 9807   1.206   3.366   4.149
 3267TIP3    H2 9808   1.157   3.496   4.210
 3268TIP3   OH2 9809   0.483   5.608   1.598
 3268TIP3    H1 9810   0.521   5.631   1.682
 3268TIP3    H2 9811   0.517   5.673   1.537
 3269TIP3   OH2 9812   1.863   5.900   3.112
 3269TIP3    H1 9813   1.788   5.936   3.064
 3269TIP3    H2 9814   1.903   5.976   3.154
 3270TIP3   OH2 9815   5.195   3.022   0.270
 3270TIP3    H1 9816   5.217   2.951   0.330
 3270TIP3    H2 9817   5.279   3.054   0.238
 3271TIP3   OH2 9818   4.145   5.374   1.196
 3271TIP3    H1 9819   4.120   5.459   1.159
 3271TIP3    H2 9820   4.237   5.363   1.171
 3272TIP3   OH2 9821   1.412   2.628   3.941
 3272TIP3    H1 9822   1.479   2.671   3.889
 3272TIP3    H2 9823   1.454   2.609   4.025
 3273TIP3   OH2 9824   3.645   4.548   0.977
 3273TIP3    H1 9825   3.635   4.556   1.072
 3273TIP3    H2 9826   3.723   4.601   0.957
 3274TIP3   OH2 9827   4.562   0.574   0.873
 3274TIP3    H1 9828   4.642   0.619   0.847
 3274TIP3    H2 9829   4.584   0.532   0.956
 3275TIP3   OH2 9830   0.484   0.475   3.366
 3275TIP3    H1 9831   0.554   0.449   3.306
 3275TIP3    H2 9832   0.450   0.557   3.330
 3276TIP3   OH2 9833   4.579   3.954   0.679
 3276TIP3    H1 9834   4.501   3.899   0.672
 3276TIP3    H2 9835   4.596   3.981   0.589
 3277TIP3   OH2 9836   2.176   1.120   0.997
 3277TIP3    H1 9837   2.257   1.088   0.957
 3277TIP3    H2 9838   2.199   1.139   1.088
 3278TIP3   OH2 9839   4.486   1.478   1.171
 3278TIP3    H1 9840   4.423   1.550   1.175
 3278TIP3    H2 9841   4.546   1.494   1.243
 3279TIP3   OH2 9842   0.041   0.326   3.690
 3279TIP3    H1 9843  -0.026   0.393   3.706
 3279TIP3    H2 9844   0.053   0.284   3.775
 3280TIP3   OH2 9845   6.077   3.379   1.090
 3280TIP3    H1 9846   6.097   3.312   1.155
 3280TIP3    H2 9847   6.039   3.331   1.016
 3281TIP3   OH2 9848   3.836   1.687   4.509
 3281TIP3    H1 9849   3.881   1.610   4.476
 3281TIP3    H2 9850   3.906   1.745   4.539
 3282TIP3   OH2 9851   1.220   4.429   2.423
 3282TIP3    H1 9852   1.270   4.351   2.447
 3282TIP3    H2 9853   1.143   4.427   2.480
 3283TIP3   OH2 9854   0.906   4.961   3.177
 3283TIP3    H1 9855   0.926   4.877   3.134
 3283TIP3    H2 9856   0.828   4.993   3.131
 3284TIP3   OH2 9857   1.090   0.769   4.500
 3284TIP3    H1 9858   1.116   0.842   4.443
 3284TIP3    H2 9859   0.994   0.768   4.494
 3285TIP3   OH2 9860   3.571   5.849   4.831
 3285TIP3    H1 9861   3.547   5.872   4.741
 3285TIP3    H2 9862   3.496   5.799   4.863
 3286TIP3   OH2 9863   4.571   0.631   5.111
 3286TIP3    H1 9864   4.614   0.715   5.125
 3286TIP3    H2 9865   4.615   0.571   5.170
 3287TIP3   OH2 9866   4.863   4.706   1.880
 3287TIP3    H1 9867   4.828   4.627   1.921
 3287TIP3    H2 9868   4.786   4.759   1.858
 3288TIP3   OH2 9869   5.996   2.026   1.601
 3288TIP3    H1 9870   5.975   2.117   1.582
 3288TIP3    H2 9871   6.050   2.030   1.681
 3289TIP3   OH2 9872   0.137   5.602   1.351
 3289TIP3    H1 9873   0.161   5.619   1.260
 3289TIP3    H2 9874   0.059   5.657   1.366
 3290TIP3   OH2 9875   2.969   5.090   4.792
 3290TIP3    H1 9876   3.046   5.097   4.736
 3290TIP3    H2 9877   2.912   5.162   4.764
 3291TIP3   OH2 9878   2.251   3.670   0.263
 3291TIP3    H1 9879   2.241   3.696   0.171
 3291TIP3    H2 9880   2.246   3.752   0.312
 3292TIP3   OH2 9881   4.137   1.004   0.093
 3292TIP3    H1 9882   4.152   0.918   0.055
 3292TIP3    H2 9883   4.164   0.995   0.185
 3293TIP3   OH2 9884   4.177   4.622   3.901
 3293TIP3    H1 9885   4.167   4.650   3.810
 3293TIP3    H2 9886   4.207   4.701   3.946
 3294TIP3   OH2 9887   6.228   3.455   2.126
 3294TIP3    H1 9888   6.221   3.363   2.153
 3294TIP3    H2 9889   6.284   3.495   2.192
 3295TIP3   OH2 9890   2.846   3.645   2.344
 3295TIP3    H1 9891   2.860   3.710   2.275
 3295TIP3    H2 9892   2.840   3.697   2.424
 3296TIP3   OH2 9893   3.874   5.505   3.102
 3296TIP3    H1 9894   3.790   5.464   3.081
 3296TIP3    H2 9895   3.937   5.458   3.048
 3297TIP3   OH2 9896   3.151   4.741   4.307
 3297TIP3    H1 9897   3.056   4.730   4.318
 3297TIP3    H2 9898   3.160   4.799   4.231
 3298TIP3   OH2 9899   4.975   2.471   0.222
 3298TIP3    H1 9900   5.007   2.411   0.290
 3298TIP3    H2 9901   5.022   2.553   0.239
 3299TIP3   OH2 9902   3.915   1.532   4.954
 3299TIP3    H1 9903   3.827   1.538   4.918
 3299TIP3    H2 9904   3.972   1.520   4.878
 3300TIP3   OH2 9905   4.945   4.184   2.753
 3300TIP3    H1 9906   4.934   4.136   2.670
 3300TIP3    H2 9907   4.867   4.239   2.760
 3301TIP3   OH2 9908   6.016   4.684   3.806
 3301TIP3    H1 9909   6.112   4.674   3.803
 3301TIP3    H2 9910   6.001   4.772   3.769
 3302TIP3   OH2 9911   5.668   4.739   0.423
 3302TIP3    H1 9912   5.695   4.800   0.492
 3302TIP3    H2 9913   5.735   4.748   0.355
 3303TIP3   OH2 9914   1.455   2.690   4.490
 3303TIP3    H1 9915   1.402   2.770   4.489
 3303TIP3    H2 9916   1.461   2.665   4.398
 3304TIP3   OH2 9917   3.740   2.680   4.409
 3304TIP3    H1 9918   3.658   2.641   4.378
 3304TIP3    H2 9919   3.719   2.714   4.496
 3305TIP3   OH2 9920   3.571   5.680   2.687
 3305TIP3    H1 9921   3.528   5.695   2.602
 3305TIP3    H2 9922   3.630   5.755   2.697
 3306TIP3   OH2 9923   4.336   1.927   0.987
 3306TIP3    H1 9924   4.372   1.948   0.901
 3306TIP3    H2 9925   4.242   1.946   0.979
 3307TIP3   OH2 9926   4.429   4.542   2.582
 3307TIP3    H1 9927   4.445   4.527   2.675
 3307TIP3    H2 9928   4.335   4.561   2.577
 3308TIP3   OH2 9929   4.883   5.319   0.569
 3308TIP3    H1 9930   4.820   5.340   0.499
 3308TIP3    H2 9931   4.832   5.324   0.649
 3309TIP3   OH2 9932   0.879   3.174   1.512
 3309TIP3    H1 9933   0.809   3.158   1.576
 3309TIP3    H2 9934   0.960   3.169   1.563
 3310TIP3   OH2 9935   4.339   3.290   0.699
 3310TIP3    H1 9936   4.285   3.356   0.742
 3310TIP3    H2 9937   4.300   3.206   0.723
 3311TIP3   OH2 9938   0.690   2.999   2.678
 3311TIP3    H1 9939   0.733   2.934   2.621
 3311TIP3    H2 9940   0.680   3.076   2.622
 3312TIP3   OH2 9941   2.736   4.925   4.973
 3312TIP3    H1 9942   2.786   4.969   5.041
 3312TIP3    H2 9943   2.656   4.896   5.017
 3313TIP3   OH2 9944   1.029   5.559   5.113
 3313TIP3    H1 9945   1.003   5.650   5.128
 3313TIP3    H2 9946   1.030   5.520   5.201
 3314TIP3   OH2 9947   2.425   5.146   1.123
 3314TIP3    H1 9948   2.416   5.197   1.204
 3314TIP3    H2 9949   2.340   5.153   1.081
 3315TIP3   OH2 9950   5.740   0.862   1.114
 3315TIP3    H1 9951   5.722   0.788   1.056
 3315TIP3    H2 9952   5.654   0.888   1.146
 3316TIP3   OH2 9953   3.792   2.411   1.873
 3316TIP3    H1 9954   3.753   2.388   1.789
 3316TIP3    H2 9955   3.856   2.479   1.852
 3317TIP3   OH2 9956   2.435   0.046   3.747
 3317TIP3    H1 9957   2.461   0.012   3.833
 3317TIP3    H2 9958   2.344   0.074   3.758
 3318TIP3   OH2 9959   0.767   1.101   0.544
 3318TIP3    H1 9960   0.861   1.096   0.526
 3318TIP3    H2 9961   0.726   1.095   0.457
 3319TIP3   OH2 9962   0.663   3.700   0.919
 3319TIP3    H1 9963   0.730   3.768   0.920
 3319TIP3    H2 9964   0.613   3.717   0.839
 3320TIP3   OH2 9965   1.011   2.663   5.099
 3320TIP3    H1 9966   1.065   2.714   5.039
 3320TIP3    H2 9967   1.021   2.573   5.070
 3321TIP3   OH2 9968   6.283   3.006   3.698
 3321TIP3    H1 9969   6.306   2.923   3.740
 3321TIP3    H2 9970   6.203   3.034   3.743
 3322TIP3   OH2 9971   0.568   4.958   3.495
 3322TIP3    H1 9972   0.588   4.966   3.588
 3322TIP3    H2 9973   0.477   4.929   3.492
 3323TIP3   OH2 9974   3.006   0.434   0.967
 3323TIP3    H1 9975   2.978   0.388   0.888
 3323TIP3    H2 9976   2.938   0.500   0.981
 3324TIP3   OH2 9977   0.124   3.205   2.709
 3324TIP3    H1 9978   0.036   3.170   2.696
 3324TIP3    H2 9979   0.114   3.268   2.781
 3325TIP3   OH2 9980   5.772   2.306   4.544
 3325TIP3    H1 9981   5.769   2.386   4.597
 3325TIP3    H2 9982   5.840   2.323   4.479
 3326TIP3   OH2 9983   0.262   2.403   0.827
 3326TIP3    H1 9984   0.279   2.384   0.920
 3326TIP3    H2 9985   0.345   2.434   0.793
 3327TIP3   OH2 9986   2.613   2.514   4.088
 3327TIP3    H1 9987   2.677   2.578   4.119
 3327TIP3    H2 9988   2.622   2.440   4.148
 3328TIP3   OH2 9989   3.351   1.369   1.395
 3328TIP3    H1 9990   3.340   1.277   1.419
 3328TIP3    H2 9991   3.312   1.418   1.468
 3329TIP3   OH2 9992   3.560   2.437   4.727
 3329TIP3    H1 9993   3.499   2.405   4.794
 3329TIP3    H2 9994   3.625   2.368   4.719
 3330TIP3   OH2 9995   4.890   1.908   5.153
 3330TIP3    H1 9996   4.970   1.873   5.113
 3330TIP3    H2 9997   4.921   1.983   5.204
 3331TIP3   OH2 9998   3.789   3.423   2.881
 3331TIP3    H1 9999   3.722   3.489   2.860
 3331TIP3    H210000   3.861   3.445   2.822
 3332TIP3   OH210001   2.444   0.939   4.465
 3332TIP3    H110002   2.399   0.996   4.527
 3332TIP3    H210003   2.390   0.941   4.387
 3333TIP3   OH210004   1.030   2.278   0.958
 3333TIP3    H110005   1.058   2.211   0.896
 3333TIP3    H210006   1.045   2.361   0.912
 3334TIP3   OH210007   4.222   0.017   0.309
 3334TIP3    H110008   4.186  -0.063   0.346
 3334TIP3    H210009   4.303   0.031   0.358
 3335TIP3   OH210010   4.274   3.395   3.312
 3335TIP3    H110011   4.274   3.341   3.391
 3335TIP3    H210012   4.260   3.484   3.344
 3336TIP3   OH210013   6.276   5.372   1.248
 3336TIP3    H110014   6.270   5.396   1.156
 3336TIP3    H210015   6.368   5.383   1.271
 3337TIP3   OH210016   3.998   4.004   1.068
 3337TIP3    H110017   4.009   4.041   0.981
 3337TIP3    H210018   3.907   4.024   1.091
 3338TIP3   OH210019   1.303   2.905   1.441
 3338TIP3    H110020   1.358   2.958   1.499
 3338TIP3    H210021   1.243   2.967   1.402
 3339TIP3   OH210022   0.540   3.192   0.963
 3339TIP3    H110023   0.524   3.135   0.888
 3339TIP3    H210024   0.601   3.258   0.930
 3340TIP3   OH210025   4.955   2.757   5.125
 3340TIP3    H110026   4.939   2.847   5.098
 3340TIP3    H210027   4.990   2.714   5.047
 3341TIP3   OH210028   5.757   0.551   2.772
 3341TIP3    H110029   5.811   0.606   2.829
 3341TIP3    H210030   5.748   0.468   2.819
 3342TIP3   OH210031   1.884   0.058   3.433
 3342TIP3    H110032   1.821   0.038   3.502
 3342TIP3    H210033   1.833   0.052   3.352
 3343TIP3   OH210034   3.675   5.308   2.990
 3343TIP3    H110035   3.592   5.265   3.009
 3343TIP3    H210036   3.667   5.336   2.899
 3344TIP3   OH210037   4.130   4.583   0.846
 3344TIP3    H110038   4.194   4.649   0.820
 3344TIP3    H210039   4.146   4.509   0.787
 3345TIP3   OH210040   5.510   3.919   3.021
 3345TIP3    H110041   5.452   3.906   3.097
 3345TIP3    H210042   5.589   3.958   3.058
 3346TIP3   OH210043   3.866   1.037   2.313
 3346TIP3    H110044   3.834   1.101   2.377
 3346TIP3    H210045   3.950   1.073   2.283
 3347TIP3   OH210046   2.196   5.692   0.374
 3347TIP3    H110047   2.208   5.637   0.451
 3347TIP3    H210048   2.114   5.739   0.390
 3348TIP3   OH210049   1.217   5.088   2.556
 3348TIP3    H110050   1.277   5.048   2.618
 3348TIP3    H210051   1.136   5.100   2.605
 3349TIP3   OH210052   2.051   2.821   0.215
 3349TIP3    H110053   2.113   2.815   0.288
 3349TIP3    H210054   2.073   2.746   0.159
 3350TIP3   OH210055   1.895   2.737   1.368
 3350TIP3    H110056   1.855   2.797   1.431
 3350TIP3    H210057   1.952   2.681   1.420
 3351TIP3   OH210058   4.029   1.753   0.465
 3351TIP3    H110059   3.952   1.723   0.514
 3351TIP3    H210060   4.064   1.825   0.517
 3352TIP3   OH210061   3.126   4.011   4.857
 3352TIP3    H110062   3.086   4.095   4.878
 3352TIP3    H210063   3.106   3.955   4.933
 3353TIP3   OH210064   4.644   3.302   1.848
 3353TIP3    H110065   4.549   3.294   1.839
 3353TIP3    H210066   4.679   3.278   1.762
 3354TIP3   OH210067   0.988   6.023   1.673
 3354TIP3    H110068   1.006   6.073   1.753
 3354TIP3    H210069   1.070   6.028   1.623
 3355TIP3   OH210070   5.358   4.423   4.009
 3355TIP3    H110071   5.265   4.426   4.028
 3355TIP3    H210072   5.398   4.390   4.091
 3356TIP3   OH210073   0.929   0.495   1.152
 3356TIP3    H110074   1.004   0.478   1.208
 3356TIP3    H210075   0.861   0.527   1.211
 3357TIP3   OH210076   4.412   4.508   4.674
 3357TIP3    H110077   4.347   4.521   4.744
 3357TIP3    H210078   4.453   4.424   4.695
 3358TIP3   OH210079   5.345   0.702   1.715
 3358TIP3    H110080   5.305   0.645   1.781
 3358TIP3    H210081   5.404   0.644   1.667
 3359TIP3   OH210082   3.899   2.485   2.794
 3359TIP3    H110083   3.880   2.405   2.745
 3359TIP3    H210084   3.965   2.530   2.740
 3360TIP3   OH210085   4.892   1.488   0.742
 3360TIP3    H110086   4.939   1.413   0.707
 3360TIP3    H210087   4.960   1.546   0.776
 3361TIP3   OH210088   4.441   0.778   3.976
 3361TIP3    H110089   4.372   0.782   3.911
 3361TIP3    H210090   4.513   0.829   3.938
 3362TIP3   OH210091   1.398   5.585   0.202
 3362TIP3    H110092   1.443   5.632   0.131
 3362TIP3    H210093   1.458   5.592   0.276
 3363TIP3   OH210094   1.797   1.093   1.533
 3363TIP3    H110095   1.879   1.066   1.575
 3363TIP3    H210096   1.732   1.086   1.603
 3364TIP3   OH210097   3.684   0.436   2.771
 3364TIP3    H110098   3.617   0.459   2.708
 3364TIP3    H210099   3.748   0.385   2.721
 3365TIP3   OH210100   4.995   2.072   4.868
 3365TIP3    H110101   5.034   2.010   4.929
 3365TIP3    H210102   5.051   2.069   4.791
 3366TIP3   OH210103   2.543   0.113   1.898
 3366TIP3    H110104   2.629   0.076   1.919
 3366TIP3    H210105   2.499   0.043   1.848
 3367TIP3   OH210106   4.608   3.006   0.708
 3367TIP3    H110107   4.591   2.954   0.786
 3367TIP3    H210108   4.524   3.008   0.662
 3368TIP3   OH210109   2.757   2.517   1.561
 3368TIP3    H110110   2.662   2.529   1.561
 3368TIP3    H210111   2.773   2.458   1.487
 3369TIP3   OH210112   6.295   2.908   4.260
 3369TIP3    H110113   6.361   2.953   4.208
 3369TIP3    H210114   6.345   2.858   4.324
 3370TIP3   OH210115   1.227   0.478   2.348
 3370TIP3    H110116   1.213   0.572   2.364
 3370TIP3    H210117   1.316   0.473   2.312
 3371TIP3   OH210118   1.727   3.842   0.945
 3371TIP3    H110119   1.756   3.856   1.035
 3371TIP3    H210120   1.779   3.903   0.893
 3372TIP3   OH210121   5.934   4.232   1.213
 3372TIP3    H110122   5.900   4.173   1.146
 3372TIP3    H210123   5.932   4.180   1.294
 3373TIP3   OH210124   4.812   0.046   2.525
 3373TIP3    H110125   4.840   0.003   2.606
 3373TIP3    H210126   4.729   0.003   2.503
 3374TIP3   OH210127   4.974   1.259   3.244
 3374TIP3    H110128   5.052   1.298   3.284
 3374TIP3    H210129   5.008   1.183   3.197
 3375TIP3   OH210130   3.909   2.381   2.233
 3375TIP3    H110131   3.871   2.423   2.156
 3375TIP3    H210132   3.927   2.291   2.205
 3376TIP3   OH210133   5.096   3.622   1.969
 3376TIP3    H110134   5.115   3.716   1.975
 3376TIP3    H210135   5.115   3.589   2.057
 3377TIP3   OH210136   6.442   3.721   1.980
 3377TIP3    H110137   6.491   3.736   2.061
 3377TIP3    H210138   6.393   3.802   1.965
 3378TIP3   OH210139   4.548   0.351   4.223
 3378TIP3    H110140   4.591   0.314   4.146
 3378TIP3    H210141   4.498   0.425   4.189
 3379TIP3   OH210142   0.722   3.806   0.336
 3379TIP3    H110143   0.674   3.758   0.268
 3379TIP3    H210144   0.769   3.874   0.288
 3380TIP3   OH210145   3.894   4.568   4.379
 3380TIP3    H110146   3.898   4.555   4.284
 3380TIP3    H210147   3.984   4.587   4.404
 3381TIP3   OH210148   5.104   4.423   4.080
 3381TIP3    H110149   5.064   4.470   4.007
 3381TIP3    H210150   5.055   4.452   4.157
 3382TIP3   OH210151   0.872   1.276   1.379
 3382TIP3    H110152   0.837   1.217   1.312
 3382TIP3    H210153   0.856   1.230   1.461
 3383TIP3   OH210154   0.871   2.884   2.064
 3383TIP3    H110155   0.837   2.863   1.977
 3383TIP3    H210156   0.838   2.813   2.120
 3384TIP3   OH210157   2.256   0.336   0.258
 3384TIP3    H110158   2.241   0.431   0.259
 3384TIP3    H210159   2.332   0.324   0.202
 3385TIP3   OH210160   4.449   2.881   0.941
 3385TIP3    H110161   4.398   2.817   0.889
 3385TIP3    H210162   4.391   2.957   0.948
 3386TIP3   OH210163   3.071   1.008   4.492
 3386TIP3    H110164   3.006   1.001   4.562
 3386TIP3    H210165   3.068   1.099   4.465
 3387TIP3   OH210166   3.459   0.446   2.575
 3387TIP3    H110167   3.430   0.501   2.502
 3387TIP3    H210168   3.539   0.405   2.543
 3388TIP3   OH210169   2.561   4.883   2.885
 3388TIP3    H110170   2.483   4.852   2.837
 3388TIP3    H210171   2.553   4.842   2.971
 3389TIP3   OH210172   1.750   3.116   4.779
 3389TIP3    H110173   1.712   3.034   4.749
 3389TIP3    H210174   1.814   3.090   4.846
 3390TIP3   OH210175   6.170   5.953   4.733
 3390TIP3    H110176   6.176   6.005   4.813
 3390TIP3    H210177   6.120   5.876   4.757
 3391TIP3   OH210178   2.103   1.240   1.430
 3391TIP3    H110179   2.052   1.189   1.367
 3391TIP3    H210180   2.184   1.261   1.382
 3392TIP3   OH210181   4.272   2.029   0.148
 3392TIP3    H110182   4.302   2.034   0.239
 3392TIP3    H210183   4.203   1.963   0.150
 3393TIP3   OH210184   2.011   1.802   2.703
 3393TIP3    H110185   1.979   1.715   2.683
 3393TIP3    H210186   2.104   1.800   2.678
 3394TIP3   OH210187   1.736   5.088   4.939
 3394TIP3    H110188   1.654   5.135   4.957
 3394TIP3    H210189   1.713   5.025   4.871
 3395TIP3   OH210190   2.198   1.269   4.487
 3395TIP3    H110191   2.150   1.339   4.530
 3395TIP3    H210192   2.142   1.243   4.413
 3396TIP3   OH210193   3.945   2.240   3.941
 3396TIP3    H110194   4.037   2.249   3.917
 3396TIP3    H210195   3.937   2.289   4.023
 3397TIP3   OH210196   2.719   4.669   4.535
 3397TIP3    H110197   2.758   4.709   4.613
 3397TIP3    H210198   2.663   4.599   4.569
 3398TIP3   OH210199   3.160   2.811   2.895
 3398TIP3    H110200   3.126   2.861   2.821
 3398TIP3    H210201   3.090   2.814   2.960
 3399TIP3   OH210202   1.463   1.495   3.604
 3399TIP3    H110203   1.431   1.585   3.599
 3399TIP3    H210204   1.558   1.503   3.611
 3400TIP3   OH210205   1.337   5.595   3.253
 3400TIP3    H110206   1.246   5.621   3.236
 3400TIP3    H210207   1.375   5.670   3.300
 3401TIP3   OH210208   0.479   3.871   0.009
 3401TIP3    H110209   0.562   3.864   0.057
 3401TIP3    H210210   0.498   3.931  -0.063
 3402TIP3   OH210211   1.783   0.700   4.122
 3402TIP3    H110212   1.694   0.736   4.121
 3402TIP3    H210213   1.804   0.687   4.030
 3403TIP3   OH210214   5.008   3.493   0.441
 3403TIP3    H110215   5.063   3.422   0.409
 3403TIP3    H210216   4.946   3.509   0.370
 3404TIP3   OH210217   2.622   2.025   2.421
 3404TIP3    H110218   2.674   2.084   2.476
 3404TIP3    H210219   2.565   2.084   2.372
 3405TIP3   OH210220   1.761   5.238   4.472
 3405TIP3    H110221   1.757   5.205   4.382
 3405TIP3    H210222   1.682   5.290   4.483
 3406TIP3   OH210223   3.163   3.473   3.204
 3406TIP3    H110224   3.150   3.563   3.174
 3406TIP3    H210225   3.110   3.466   3.282
 3407TIP3   OH210226   3.007   4.225   4.129
 3407TIP3    H110227   3.084   4.170   4.139
 3407TIP3    H210228   2.970   4.231   4.216
 3408TIP3   OH210229   4.577   0.904   1.278
 3408TIP3    H110230   4.518   0.891   1.204
 3408TIP3    H210231   4.663   0.918   1.238
 3409TIP3   OH210232   5.389   4.780   4.065
 3409TIP3    H110233   5.314   4.758   4.009
 3409TIP3    H210234   5.414   4.696   4.104
 3410TIP3   OH210235   0.228   4.548   0.422
 3410TIP3    H110236   0.189   4.635   0.431
 3410TIP3    H210237   0.308   4.553   0.474
 3411TIP3   OH210238   0.550   1.412   4.930
 3411TIP3    H110239   0.541   1.358   4.852
 3411TIP3    H210240   0.576   1.498   4.897
 3412TIP3   OH210241   1.368   3.421   2.933
 3412TIP3    H110242   1.315   3.343   2.917
 3412TIP3    H210243   1.348   3.480   2.861
 3413TIP3   OH210244   5.381   0.111   5.098
 3413TIP3    H110245   5.329   0.186   5.069
 3413TIP3    H210246   5.450   0.149   5.153
 3414TIP3   OH210247   1.619   1.886   1.154
 3414TIP3    H110248   1.594   1.836   1.076
 3414TIP3    H210249   1.698   1.843   1.185
 3415TIP3   OH210250   1.869   3.284   1.874
 3415TIP3    H110251   1.860   3.252   1.964
 3415TIP3    H210252   1.940   3.347   1.878
 3416TIP3   OH210253   5.044   2.243   1.891
 3416TIP3    H110254   4.951   2.260   1.900
 3416TIP3    H210255   5.064   2.179   1.960
 3417TIP3   OH210256   1.678   5.894   1.721
 3417TIP3    H110257   1.617   5.867   1.652
 3417TIP3    H210258   1.631   5.877   1.803
 3418TIP3   OH210259   3.272   4.257   3.713
 3418TIP3    H110260   3.337   4.222   3.774
 3418TIP3    H210261   3.312   4.248   3.627
 3419TIP3   OH210262   3.096   0.734   4.413
 3419TIP3    H110263   3.095   0.826   4.437
 3419TIP3    H210264   3.103   0.734   4.317
 3420TIP3   OH210265   3.965   4.498   1.730
 3420TIP3    H110266   3.966   4.405   1.750
 3420TIP3    H210267   3.920   4.505   1.646
 3421TIP3   OH210268   2.493   5.592   4.607
 3421TIP3    H110269   2.461   5.612   4.695
 3421TIP3    H210270   2.425   5.626   4.549
 3422TIP3   OH210271   3.106   2.486   1.155
 3422TIP3    H110272   3.095   2.414   1.217
 3422TIP3    H210273   3.062   2.560   1.197
 3423TIP3   OH210274   4.898   0.439   4.961
 3423TIP3    H110275   4.812   0.475   4.938
 3423TIP3    H210276   4.883   0.388   5.040
 3424TIP3   OH210277   2.102   5.894   1.069
 3424TIP3    H110278   2.190   5.870   1.042
 3424TIP3    H210279   2.045   5.861   0.999
 3425TIP3   OH210280   1.559   2.480   3.743
 3425TIP3    H110281   1.613   2.485   3.664
 3425TIP3    H210282   1.601   2.539   3.805
 3426TIP3   OH210283   5.961   0.841   4.421
 3426TIP3    H110284   6.028   0.799   4.367
 3426TIP3    H210285   5.969   0.800   4.507
 3427TIP3   OH210286   3.583   3.394   0.075
 3427TIP3    H110287   3.623   3.360   0.155
 3427TIP3    H210288   3.657   3.429   0.025
 3428TIP3   OH210289   2.136   4.199   0.554
 3428TIP3    H110290   2.096   4.179   0.469
 3428TIP3    H210291   2.202   4.265   0.534
 3429TIP3   OH210292   3.632   2.999   0.144
 3429TIP3    H110293   3.700   3.040   0.091
 3429TIP3    H210294   3.558   2.988   0.085
 3430TIP3   OH210295   2.389   0.553   4.359
 3430TIP3    H110296   2.332   0.625   4.332
 3430TIP3    H210297   2.392   0.559   4.454
 3431TIP3   OH210298   0.413   0.437   1.144
 3431TIP3    H110299   0.479   0.388   1.094
 3431TIP3    H210300   0.347   0.372   1.167
 3432TIP3   OH210301   0.928   4.132   2.463
 3432TIP3    H110302   0.884   4.115   2.379
 3432TIP3    H210303   0.914   4.226   2.478
 3433TIP3   OH210304   5.638   4.545   1.888
 3433TIP3    H110305   5.640   4.483   1.961
 3433TIP3    H210306   5.693   4.617   1.916
 3434TIP3   OH210307   3.572   3.137   4.741
 3434TIP3    H110308   3.506   3.070   4.755
 3434TIP3    H210309   3.615   3.113   4.659
 3435TIP3   OH210310   2.404   5.044   3.498
 3435TIP3    H110311   2.478   5.086   3.453
 3435TIP3    H210312   2.428   4.952   3.505
 3436TIP3   OH210313   6.078   2.178   0.940
 3436TIP3    H110314   6.165   2.186   0.980
 3436TIP3    H210315   6.034   2.111   0.992
 3437TIP3   OH210316   5.330   5.565   0.393
 3437TIP3    H110317   5.258   5.557   0.455
 3437TIP3    H210318   5.330   5.657   0.367
 3438TIP3   OH210319   1.619   3.009   4.215
 3438TIP3    H110320   1.613   3.000   4.120
 3438TIP3    H210321   1.710   3.036   4.231
 3439TIP3   OH210322   6.235   2.067   2.796
 3439TIP3    H110323   6.282   1.984   2.810
 3439TIP3    H210324   6.274   2.127   2.859
 3440TIP3   OH210325   6.262   3.877   1.603
 3440TIP3    H110326   6.243   3.958   1.651
 3440TIP3    H210327   6.178   3.851   1.566
 3441TIP3   OH210328   6.270   5.105   1.073
 3441TIP3    H110329   6.356   5.111   1.030
 3441TIP3    H210330   6.245   5.196   1.089
 3442TIP3   OH210331   5.545   2.588   0.313
 3442TIP3    H110332   5.617   2.640   0.349
 3442TIP3    H210333   5.571   2.497   0.326
 3443TIP3   OH210334   5.588   2.852   2.688
 3443TIP3    H110335   5.624   2.903   2.761
 3443TIP3    H210336   5.499   2.886   2.677
 3444TIP3   OH210337   2.252   3.439   3.456
 3444TIP3    H110338   2.182   3.483   3.505
 3444TIP3    H210339   2.278   3.366   3.513
 3445TIP3   OH210340   3.598   3.582   2.787
 3445TIP3    H110341   3.644   3.666   2.783
 3445TIP3    H210342   3.514   3.603   2.829
 3446TIP3   OH210343   3.768   2.983   3.418
 3446TIP3    H110344   3.776   2.949   3.507
 3446TIP3    H210345   3.819   3.064   3.419
 3447TIP3   OH210346   4.349   2.074   2.380
 3447TIP3    H110347   4.372   2.166   2.391
 3447TIP3    H210348   4.424   2.026   2.415
 3448TIP3   OH210349   0.930   2.009   3.254
 3448TIP3    H110350   0.989   2.006   3.179
 3448TIP3    H210351   0.856   2.063   3.225
 3449TIP3   OH210352   2.217   5.229   3.947
 3449TIP3    H110353   2.276   5.173   3.897
 3449TIP3    H210354   2.129   5.200   3.921
 3450TIP3   OH210355   5.073   2.378   4.348
 3450TIP3    H110356   5.068   2.296   4.397
 3450TIP3    H210357   5.003   2.372   4.283
 3451TIP3   OH210358   2.887   3.491   0.123
 3451TIP3    H110359   2.834   3.421   0.084
 3451TIP3    H210360   2.839   3.517   0.202
 3452TIP3   OH210361   4.428   5.324   1.915
 3452TIP3    H110362   4.515   5.340   1.950
 3452TIP3    H210363   4.435   5.242   1.867
 3453TIP3   OH210364   2.326   4.020   4.940
 3453TIP3    H110365   2.304   4.083   5.009
 3453TIP3    H210366   2.243   3.975   4.922
 3454TIP3   OH210367   4.178   0.745   1.053
 3454TIP3    H110368   4.216   0.682   1.115
 3454TIP3    H210369   4.192   0.830   1.095
 3455TIP3   OH210370   3.371   1.914   4.926
 3455TIP3    H110371   3.308   1.928   4.856
 3455TIP3    H210372   3.418   1.835   4.901
 3456TIP3   OH210373   1.299   4.643   3.838
 3456TIP3    H110374   1.387   4.680   3.842
 3456TIP3    H210375   1.263   4.675   3.755
 3457TIP3   OH210376   3.385   4.185   2.850
 3457TIP3    H110377   3.373   4.241   2.927
 3457TIP3    H210378   3.425   4.242   2.785
 3458TIP3   OH210379   4.044   1.959   0.675
 3458TIP3    H110380   3.956   1.980   0.645
 3458TIP3    H210381   4.050   2.001   0.762
 3459TIP3   OH210382   3.257   0.511   3.170
 3459TIP3    H110383   3.259   0.597   3.128
 3459TIP3    H210384   3.346   0.479   3.162
 3460TIP3   OH210385   5.878   2.181   5.138
 3460TIP3    H110386   5.875   2.109   5.201
 3460TIP3    H210387   5.925   2.251   5.184
 3461TIP3   OH210388   0.753   0.523   3.282
 3461TIP3    H110389   0.754   0.614   3.310
 3461TIP3    H210390   0.790   0.475   3.356
 3462TIP3   OH210391  -0.018   3.456   4.491
 3462TIP3    H110392  -0.008   3.551   4.488
 3462TIP3    H210393   0.071   3.423   4.503
 3463TIP3   OH210394   5.880   4.289   1.902
 3463TIP3    H110395   5.835   4.206   1.915
 3463TIP3    H210396   5.869   4.336   1.985
 3464TIP3   OH210397   5.907   1.664   2.566
 3464TIP3    H110398   5.966   1.712   2.508
 3464TIP3    H210399   5.823   1.709   2.558
 3465TIP3   OH210400   2.092   3.714   4.340
 3465TIP3    H110401   2.177   3.746   4.371
 3465TIP3    H210402   2.031   3.737   4.409
 3466TIP3   OH210403   3.054   5.136   5.044
 3466TIP3    H110404   3.101   5.054   5.058
 3466TIP3    H210405   3.004   5.122   4.964
 3467TIP3   OH210406   5.889   2.331   0.134
 3467TIP3    H110407   5.833   2.303   0.207
 3467TIP3    H210408   5.978   2.325   0.169
 3468TIP3   OH210409   1.831   5.186   2.322
 3468TIP3    H110410   1.770   5.165   2.393
 3468TIP3    H210411   1.840   5.103   2.274
 3469TIP3   OH210412   3.809   4.985   0.679
 3469TIP3    H110413   3.721   5.018   0.698
 3469TIP3    H210414   3.796   4.892   0.657
 3470TIP3   OH210415   1.764   3.144   3.602
 3470TIP3    H110416   1.744   3.100   3.520
 3470TIP3    H210417   1.682   3.183   3.630
 3471TIP3   OH210418   1.329   3.641   3.161
 3471TIP3    H110419   1.325   3.547   3.147
 3471TIP3    H210420   1.332   3.679   3.073
 3472TIP3   OH210421   1.103   4.377   0.378
 3472TIP3    H110422   1.024   4.329   0.355
 3472TIP3    H210423   1.123   4.430   0.301
 3473TIP3   OH210424   3.278   5.744   4.890
 3473TIP3    H110425   3.266   5.808   4.820
 3473TIP3    H210426   3.248   5.661   4.853
 3474TIP3   OH210427   2.832   5.631   4.506
 3474TIP3    H110428   2.828   5.543   4.468
 3474TIP3    H210429   2.755   5.636   4.562
 3475TIP3   OH210430   4.243   0.885   3.472
 3475TIP3    H110431   4.308   0.850   3.533
 3475TIP3    H210432   4.293   0.912   3.396
 3476TIP3   OH210433   5.843   0.402   3.982
 3476TIP3    H110434   5.885   0.473   3.933
 3476TIP3    H210435   5.887   0.323   3.953
 3477TIP3   OH210436   3.428   4.113   3.893
 3477TIP3    H110437   3.451   4.025   3.924
 3477TIP3    H210438   3.430   4.167   3.972
 3478TIP3   OH210439   0.850   2.759   1.121
 3478TIP3    H110440   0.885   2.840   1.158
 3478TIP3    H210441   0.768   2.785   1.079
 3479TIP3   OH210442   3.784   2.022   0.611
 3479TIP3    H110443   3.779   2.082   0.686
 3479TIP3    H210444   3.700   2.033   0.566
 3480TIP3   OH210445   5.563   1.868   1.882
 3480TIP3    H110446   5.625   1.856   1.954
 3480TIP3    H210447   5.608   1.832   1.805
 3481TIP3   OH210448   1.118   1.420   0.441
 3481TIP3    H110449   1.057   1.493   0.437
 3481TIP3    H210450   1.118   1.384   0.352
 3482TIP3   OH210451   1.878   4.946   2.192
 3482TIP3    H110452   1.796   4.903   2.167
 3482TIP3    H210453   1.937   4.932   2.118
 3483TIP3   OH210454   4.651   3.571   3.695
 3483TIP3    H110455   4.718   3.509   3.723
 3483TIP3    H210456   4.657   3.572   3.599
 3484TIP3   OH210457   5.675   3.686   0.725
 3484TIP3    H110458   5.715   3.720   0.645
 3484TIP3    H210459   5.746   3.639   0.769
 3485TIP3   OH210460   3.075   4.466   0.591
 3485TIP3    H110461   3.148   4.527   0.580
 3485TIP3    H210462   3.074   4.415   0.510
 3486TIP3   OH210463   0.295   4.165   5.011
 3486TIP3    H110464   0.232   4.102   5.045
 3486TIP3    H210465   0.378   4.140   5.051
 3487TIP3   OH210466   5.759   2.074   2.896
 3487TIP3    H110467   5.716   2.042   2.975
 3487TIP3    H210468   5.688   2.113   2.845
 3488TIP3   OH210469   2.459   5.573   3.863
 3488TIP3    H110470   2.379   5.529   3.833
 3488TIP3    H210471   2.482   5.632   3.792
 3489TIP3   OH210472   2.716   4.597   2.812
 3489TIP3    H110473   2.763   4.533   2.759
 3489TIP3    H210474   2.624   4.577   2.798
 3490TIP3   OH210475   1.569   3.970   3.408
 3490TIP3    H110476   1.485   3.974   3.362
 3490TIP3    H210477   1.555   3.906   3.478
 3491TIP3   OH210478   1.331   0.617   0.520
 3491TIP3    H110479   1.280   0.698   0.519
 3491TIP3    H210480   1.312   0.575   0.437
 3492TIP3   OH210481   3.723   1.731   4.040
 3492TIP3    H110482   3.759   1.820   4.030
 3492TIP3    H210483   3.800   1.675   4.049
 3493TIP3   OH210484   2.420   2.140   1.357
 3493TIP3    H110485   2.463   2.066   1.314
 3493TIP3    H210486   2.349   2.101   1.407
 3494TIP3   OH210487   4.729   2.564   2.303
 3494TIP3    H110488   4.653   2.517   2.270
 3494TIP3    H210489   4.729   2.647   2.255
 3495TIP3   OH210490   5.646   4.085   1.973
 3495TIP3    H110491   5.635   4.177   1.994
 3495TIP3    H210492   5.642   4.082   1.877
 3496TIP3   OH210493   1.054   0.272   0.098
 3496TIP3    H110494   1.127   0.229   0.054
 3496TIP3    H210495   1.065   0.251   0.191
 3497TIP3   OH210496   4.331   4.651   1.063
 3497TIP3    H110497   4.339   4.565   1.020
 3497TIP3    H210498   4.237   4.659   1.082
 3498TIP3   OH210499   6.013   0.174   3.936
 3498TIP3    H110500   6.106   0.181   3.955
 3498TIP3    H210501   5.987   0.090   3.975
 3499TIP3   OH210502   0.703   1.501   1.346
 3499TIP3    H110503   0.765   1.429   1.352
 3499TIP3    H210504   0.751   1.571   1.301
 3500TIP3   OH210505   2.036   3.223   3.507
 3500TIP3    H110506   2.100   3.203   3.575
 3500TIP3    H210507   2.083   3.209   3.425
 3501TIP3   OH210508   3.691   4.767   4.353
 3501TIP3    H110509   3.758   4.706   4.383
 3501TIP3    H210510   3.694   4.839   4.415
 3502TIP3   OH210511   4.082   2.013   4.270
 3502TIP3    H110512   4.119   2.026   4.357
 3502TIP3    H210513   4.020   2.085   4.259
 3503TIP3   OH210514   2.588   4.708   4.850
 3503TIP3    H110515   2.604   4.801   4.835
 3503TIP3    H210516   2.538   4.680   4.773
 3504TIP3   OH210517   4.661   4.303   4.363
 3504TIP3    H110518   4.566   4.304   4.375
 3504TIP3    H210519   4.680   4.215   4.330
 3505TIP3   OH210520   1.827   4.939   0.733
 3505TIP3    H110521   1.916   4.903   0.732
 3505TIP3    H210522   1.838   5.027   0.771
 3506TIP3   OH210523   2.925   2.215   5.154
 3506TIP3    H110524   2.946   2.213   5.060
 3506TIP3    H210525   2.975   2.290   5.188
 3507TIP3   OH210526   2.071   3.833   3.245
 3507TIP3    H110527   2.021   3.758   3.211
 3507TIP3    H210528   2.010   3.877   3.304
 3508TIP3   OH210529   4.689   3.009   0.409
 3508TIP3    H110530   4.633   3.080   0.442
 3508TIP3    H210531   4.665   2.933   0.463
 3509TIP3   OH210532   1.901   5.865   2.799
 3509TIP3    H110533   1.912   5.801   2.728
 3509TIP3    H210534   1.939   5.821   2.875
 3510TIP3   OH210535   3.697   3.719   2.250
 3510TIP3    H110536   3.667   3.656   2.184
 3510TIP3    H210537   3.716   3.799   2.200
 3511TIP3   OH210538   0.751   0.382   4.783
 3511TIP3    H110539   0.812   0.308   4.777
 3511TIP3    H210540   0.698   0.363   4.861
 3512TIP3   OH210541   5.793   1.557   1.527
 3512TIP3    H110542   5.836   1.533   1.609
 3512TIP3    H210543   5.826   1.644   1.505
 3513TIP3   OH210544   2.621   5.250   3.148
 3513TIP3    H110545   2.601   5.288   3.234
 3513TIP3    H210546   2.669   5.319   3.102
 3514TIP3   OH210547   1.524   2.744   0.328
 3514TIP3    H110548   1.483   2.738   0.242
 3514TIP3    H210549   1.486   2.822   0.368
 3515TIP3   OH210550   1.382   1.829   0.336
 3515TIP3    H110551   1.383   1.760   0.402
 3515TIP3    H210552   1.315   1.890   0.366
 3516TIP3   OH210553   3.752   2.003   1.815
 3516TIP3    H110554   3.680   2.050   1.773
 3516TIP3    H210555   3.824   2.066   1.816
 3517TIP3   OH210556   5.964   2.838   2.897
 3517TIP3    H110557   5.885   2.880   2.862
 3517TIP3    H210558   6.034   2.865   2.838
 3518TIP3   OH210559   5.497   0.835   3.457
 3518TIP3    H110560   5.503   0.741   3.476
 3518TIP3    H210561   5.582   0.857   3.418
 3519TIP3   OH210562   0.308   4.094   0.053
 3519TIP3    H110563   0.327   4.003   0.029
 3519TIP3    H210564   0.222   4.111   0.015
 3520TIP3   OH210565   4.559   2.938   3.187
 3520TIP3    H110566   4.597   2.904   3.106
 3520TIP3    H210567   4.481   2.985   3.159
 3521TIP3   OH210568   3.315   3.258   4.638
 3521TIP3    H110569   3.411   3.251   4.632
 3521TIP3    H210570   3.294   3.218   4.723
 3522TIP3   OH210571   2.973   0.470   4.307
 3522TIP3    H110572   3.007   0.384   4.283
 3522TIP3    H210573   3.018   0.531   4.249
 3523TIP3   OH210574   5.675   3.133   3.366
 3523TIP3    H110575   5.675   3.153   3.459
 3523TIP3    H210576   5.603   3.185   3.330
 3524TIP3   OH210577   3.527   3.375   4.025
 3524TIP3    H110578   3.545   3.360   4.118
 3524TIP3    H210579   3.580   3.451   4.002
 3525TIP3   OH210580   5.510   5.486   3.236
 3525TIP3    H110581   5.428   5.435   3.233
 3525TIP3    H210582   5.578   5.421   3.218
 3526TIP3   OH210583   3.527   0.449   1.227
 3526TIP3    H110584   3.540   0.420   1.137
 3526TIP3    H210585   3.432   0.450   1.239
 3527TIP3   OH210586   5.797   2.874   1.644
 3527TIP3    H110587   5.884   2.858   1.606
 3527TIP3    H210588   5.815   2.923   1.724
 3528TIP3   OH210589   5.247   3.401   5.097
 3528TIP3    H110590   5.274   3.484   5.137
 3528TIP3    H210591   5.166   3.422   5.050
 3529TIP3   OH210592   3.996   5.216   0.640
 3529TIP3    H110593   3.999   5.161   0.562
 3529TIP3    H210594   3.935   5.172   0.699
 3530TIP3   OH210595   3.519   1.839   0.735
 3530TIP3    H110596   3.542   1.907   0.672
 3530TIP3    H210597   3.456   1.783   0.689
 3531TIP3   OH210598   2.355   1.730   4.176
 3531TIP3    H110599   2.411   1.657   4.148
 3531TIP3    H210600   2.266   1.699   4.160
 3532TIP3   OH210601   2.874   4.094   0.778
 3532TIP3    H110602   2.816   4.160   0.816
 3532TIP3    H210603   2.929   4.066   0.850
 3533TIP3   OH210604   4.445   2.160   4.169
 3533TIP3    H110605   4.429   2.142   4.261
 3533TIP3    H210606   4.479   2.078   4.133
 3534TIP3   OH210607   4.222   1.466   5.064
 3534TIP3    H110608   4.265   1.544   5.027
 3534TIP3    H210609   4.130   1.475   5.038
 3535TIP3   OH210610   6.065   0.876   2.036
 3535TIP3    H110611   6.077   0.935   2.109
 3535TIP3    H210612   6.018   0.927   1.970
 3536TIP3   OH210613   5.392   5.988   0.606
 3536TIP3    H110614   5.410   5.926   0.677
 3536TIP3    H210615   5.339   6.056   0.647
 3537TIP3   OH210616   4.466   5.168   4.413
 3537TIP3    H110617   4.446   5.101   4.479
 3537TIP3    H210618   4.491   5.118   4.336
 3538TIP3   OH210619   2.372   5.941   1.770
 3538TIP3    H110620   2.435   5.869   1.774
 3538TIP3    H210621   2.315   5.919   1.696
 3539TIP3   OH210622   6.056   5.707   1.759
 3539TIP3    H110623   6.010   5.777   1.805
 3539TIP3    H210624   6.044   5.630   1.814
 3540TIP3   OH210625   1.413   3.569   0.407
 3540TIP3    H110626   1.424   3.662   0.387
 3540TIP3    H210627   1.439   3.561   0.499
 3541TIP3   OH210628   0.965   0.448   2.111
 3541TIP3    H110629   0.924   0.533   2.097
 3541TIP3    H210630   1.058   0.468   2.124
 3542TIP3   OH210631   2.943   0.794   4.134
 3542TIP3    H110632   2.878   0.747   4.187
 3542TIP3    H210633   2.913   0.784   4.044
 3543TIP3   OH210634   4.598   3.982   0.161
 3543TIP3    H110635   4.683   4.009   0.126
 3543TIP3    H210636   4.536   3.997   0.089
 3544TIP3   OH210637   5.842   2.308   0.442
 3544TIP3    H110638   5.889   2.244   0.494
 3544TIP3    H210639   5.875   2.393   0.472
 3545TIP3   OH210640   3.458   3.446   2.255
 3545TIP3    H110641   3.459   3.442   2.351
 3545TIP3    H210642   3.392   3.382   2.229
 3546TIP3   OH210643   4.678   5.973   5.138
 3546TIP3    H110644   4.764   5.956   5.100
 3546TIP3    H210645   4.697   6.002   5.227
 3547TIP3   OH210646   4.719   2.772   2.102
 3547TIP3    H110647   4.810   2.799   2.117
 3547TIP3    H210648   4.672   2.854   2.084
 3548TIP3   OH210649   2.763   4.505   4.254
 3548TIP3    H110650   2.762   4.416   4.290
 3548TIP3    H210651   2.756   4.562   4.330
 3549TIP3   OH210652   3.926   3.465   1.988
 3549TIP3    H110653   3.935   3.370   1.979
 3549TIP3    H210654   3.836   3.477   2.018
 3550TIP3   OH210655   3.388   3.885   2.076
 3550TIP3    H110656   3.370   3.795   2.102
 3550TIP3    H210657   3.302   3.927   2.076
 3551TIP3   OH210658   5.445   2.015   0.690
 3551TIP3    H110659   5.499   2.046   0.763
 3551TIP3    H210660   5.368   1.977   0.732
 3552TIP3   OH210661   5.365   1.396   4.623
 3552TIP3    H110662   5.425   1.446   4.569
 3552TIP3    H210663   5.281   1.401   4.577
 3553TIP3   OH210664   0.936   3.965   4.011
 3553TIP3    H110665   0.870   4.019   3.967
 3553TIP3    H210666   0.940   3.885   3.960
 3554TIP3   OH210667   3.078   1.856   2.747
 3554TIP3    H110668   3.148   1.799   2.714
 3554TIP3    H210669   3.012   1.855   2.677
 3555TIP3   OH210670   3.178   1.961   0.805
 3555TIP3    H110671   3.189   1.869   0.827
 3555TIP3    H210672   3.087   1.981   0.829
 3556TIP3   OH210673   0.322   5.783   2.829
 3556TIP3    H110674   0.335   5.840   2.753
 3556TIP3    H210675   0.409   5.749   2.848
 3557TIP3   OH210676   1.703   1.628   3.539
 3557TIP3    H110677   1.661   1.668   3.463
 3557TIP3    H210678   1.707   1.698   3.604
 3558TIP3   OH210679   0.192   1.731   3.963
 3558TIP3    H110680   0.280   1.762   3.983
 3558TIP3    H210681   0.151   1.803   3.916
 3559TIP3   OH210682   2.872   2.820   1.043
 3559TIP3    H110683   2.911   2.771   1.115
 3559TIP3    H210684   2.797   2.865   1.082
 3560TIP3   OH210685   5.791   1.724   3.348
 3560TIP3    H110686   5.738   1.669   3.290
 3560TIP3    H210687   5.863   1.754   3.292
 3561TIP3   OH210688   0.811   2.515   2.592
 3561TIP3    H110689   0.717   2.531   2.599
 3561TIP3    H210690   0.821   2.421   2.609
 3562TIP3   OH210691   6.186   3.742   2.437
 3562TIP3    H110692   6.177   3.837   2.443
 3562TIP3    H210693   6.266   3.728   2.385
 3563TIP3   OH210694   4.642   1.531   0.595
 3563TIP3    H110695   4.668   1.623   0.596
 3563TIP3    H210696   4.700   1.488   0.658
 3564TIP3   OH210697   5.499   5.041   4.387
 3564TIP3    H110698   5.458   5.024   4.303
 3564TIP3    H210699   5.483   5.134   4.404
 3565TIP3   OH210700   4.325   1.657   2.797
 3565TIP3    H110701   4.339   1.567   2.767
 3565TIP3    H210702   4.337   1.652   2.892
 3566TIP3   OH210703   4.905   3.119   2.283
 3566TIP3    H110704   4.846   3.101   2.356
 3566TIP3    H210705   4.985   3.150   2.324
 3567TIP3   OH210706   3.917   5.864   2.089
 3567TIP3    H110707   3.897   5.939   2.146
 3567TIP3    H210708   4.005   5.881   2.057
 3568TIP3   OH210709   4.751   4.484   0.624
 3568TIP3    H110710   4.715   4.528   0.701
 3568TIP3    H210711   4.845   4.496   0.631
 3569TIP3   OH210712   1.301   0.389   0.839
 3569TIP3    H110713   1.260   0.338   0.770
 3569TIP3    H210714   1.340   0.324   0.897
 3570TIP3   OH210715   3.361   2.884   1.478
 3570TIP3    H110716   3.326   2.799   1.506
 3570TIP3    H210717   3.336   2.891   1.385
 3571TIP3   OH210718   1.048   1.936   1.806
 3571TIP3    H110719   1.108   1.989   1.858
 3571TIP3    H210720   1.094   1.853   1.794
 3572TIP3   OH210721   1.954   1.086   0.556
 3572TIP3    H110722   1.912   1.048   0.633
 3572TIP3    H210723   1.901   1.056   0.482
 3573TIP3   OH210724   0.360   5.276   4.650
 3573TIP3    H110725   0.392   5.354   4.695
 3573TIP3    H210726   0.378   5.292   4.558
 3574TIP3   OH210727   4.917   5.531   3.642
 3574TIP3    H110728   5.007   5.519   3.611
 3574TIP3    H210729   4.912   5.479   3.722
 3575TIP3   OH210730   1.952   5.207   3.858
 3575TIP3    H110731   1.980   5.178   3.771
 3575TIP3    H210732   1.914   5.293   3.844
 3576TIP3   OH210733   3.527   4.467   4.422
 3576TIP3    H110734   3.558   4.499   4.338
 3576TIP3    H210735   3.431   4.469   4.415
 3577TIP3   OH210736   5.111   4.501   1.698
 3577TIP3    H110737   5.189   4.530   1.746
 3577TIP3    H210738   5.052   4.468   1.765
 3578TIP3   OH210739   4.366   0.247   2.570
 3578TIP3    H110740   4.273   0.251   2.592
 3578TIP3    H210741   4.370   0.196   2.489
 3579TIP3   OH210742   2.805   5.633   0.736
 3579TIP3    H110743   2.796   5.663   0.827
 3579TIP3    H210744   2.749   5.691   0.686
 3580TIP3   OH210745   0.239   2.946   2.787
 3580TIP3    H110746   0.214   3.035   2.766
 3580TIP3    H210747   0.329   2.952   2.818
 3581TIP3   OH210748   2.841   1.866   3.692
 3581TIP3    H110749   2.781   1.803   3.732
 3581TIP3    H210750   2.892   1.814   3.630
 3582TIP3   OH210751   3.534   0.051   3.446
 3582TIP3    H110752   3.616   0.078   3.405
 3582TIP3    H210753   3.548   0.066   3.540
 3583TIP3   OH210754   0.523   1.070   1.236
 3583TIP3    H110755   0.612   1.106   1.235
 3583TIP3    H210756   0.476   1.120   1.169
 3584TIP3   OH210757   4.971   2.154   4.466
 3584TIP3    H110758   4.973   2.099   4.388
 3584TIP3    H210759   4.878   2.163   4.486
 3585TIP3   OH210760   2.673   4.022   1.984
 3585TIP3    H110761   2.636   4.017   2.072
 3585TIP3    H210762   2.689   4.115   1.971
 3586TIP3   OH210763   5.383   4.066   4.289
 3586TIP3    H110764   5.471   4.040   4.261
 3586TIP3    H210765   5.334   3.984   4.293
 3587TIP3   OH210766   3.645   5.344   4.559
 3587TIP3    H110767   3.603   5.261   4.581
 3587TIP3    H210768   3.668   5.336   4.466
 3588TIP3   OH210769   1.928   1.761   4.089
 3588TIP3    H110770   1.848   1.739   4.041
 3588TIP3    H210771   1.920   1.716   4.173
 3589TIP3   OH210772   0.278   0.355   4.479
 3589TIP3    H110773   0.333   0.384   4.552
 3589TIP3    H210774   0.188   0.360   4.513
 3590TIP3   OH210775   0.697   4.105   4.781
 3590TIP3    H110776   0.753   4.027   4.779
 3590TIP3    H210777   0.731   4.161   4.711
 3591TIP3   OH210778   1.647   3.417   3.931
 3591TIP3    H110779   1.613   3.369   3.856
 3591TIP3    H210780   1.700   3.352   3.979
 3592TIP3   OH210781   2.280   2.307   3.951
 3592TIP3    H110782   2.237   2.278   3.870
 3592TIP3    H210783   2.312   2.226   3.991
 3593TIP3   OH210784   1.094   5.720   3.198
 3593TIP3    H110785   1.065   5.796   3.148
 3593TIP3    H210786   1.082   5.745   3.290
 3594TIP3   OH210787   4.289   4.900   4.312
 3594TIP3    H110788   4.270   4.908   4.405
 3594TIP3    H210789   4.358   4.834   4.307
 3595TIP3   OH210790   4.483   0.229   1.968
 3595TIP3    H110791   4.515   0.144   1.996
 3595TIP3    H210792   4.550   0.262   1.908
 3596TIP3   OH210793   4.164   5.426   0.567
 3596TIP3    H110794   4.099   5.373   0.612
 3596TIP3    H210795   4.159   5.398   0.476
 3597TIP3   OH210796   0.294   4.128   2.695
 3597TIP3    H110797   0.305   4.149   2.602
 3597TIP3    H210798   0.285   4.213   2.738
 3598TIP3   OH210799   1.905   3.843   4.521
 3598TIP3    H110800   1.847   3.919   4.521
 3598TIP3    H210801   1.916   3.821   4.614
 3599TIP3   OH210802   3.060   5.419   4.739
 3599TIP3    H110803   3.077   5.445   4.830
 3599TIP3    H210804   3.068   5.500   4.689
 3600TIP3   OH210805   1.366   4.441   1.959
 3600TIP3    H110806   1.444   4.404   1.917
 3600TIP3    H210807   1.298   4.375   1.946
 3601TIP3   OH210808   5.222   0.902   2.271
 3601TIP3    H110809   5.180   0.860   2.345
 3601TIP3    H210810   5.157   0.964   2.238
 3602TIP3   OH210811   0.781   3.166   3.392
 3602TIP3    H110812   0.713   3.118   3.439
 3602TIP3    H210813   0.855   3.105   3.390
 3603TIP3   OH210814   4.647   4.832   3.724
 3603TIP3    H110815   4.698   4.779   3.663
 3603TIP3    H210816   4.703   4.840   3.802
 3604TIP3   OH210817   0.450   0.559   2.808
 3604TIP3    H110818   0.463   0.464   2.813
 3604TIP3    H210819   0.465   0.590   2.897
 3605TIP3   OH210820   0.895   1.570   0.153
 3605TIP3    H110821   0.952   1.500   0.121
 3605TIP3    H210822   0.953   1.643   0.171
 3606TIP3   OH210823   2.762   2.785   3.458
 3606TIP3    H110824   2.819   2.830   3.520
 3606TIP3    H210825   2.728   2.710   3.508
 3607TIP3   OH210826   6.353   4.384   1.077
 3607TIP3    H110827   6.301   4.357   1.002
 3607TIP3    H210828   6.443   4.384   1.045
 3608TIP3   OH210829   2.289   5.096   3.092
 3608TIP3    H110830   2.234   5.137   3.160
 3608TIP3    H210831   2.378   5.106   3.125
 3609TIP3   OH210832   0.255   4.988   2.730
 3609TIP3    H110833   0.193   5.050   2.690
 3609TIP3    H210834   0.201   4.933   2.786
 3610TIP3   OH210835   3.090   5.178   1.513
 3610TIP3    H110836   3.173   5.189   1.468
 3610TIP3    H210837   3.112   5.187   1.606
 3611TIP3   OH210838   2.256   5.978   2.679
 3611TIP3    H110839   2.258   5.950   2.588
 3611TIP3    H210840   2.266   6.073   2.676
 3612TIP3   OH210841   5.060   2.332   0.001
 3612TIP3    H110842   5.017   2.413  -0.027
 3612TIP3    H210843   5.061   2.338   0.097
 3613TIP3   OH210844   3.684   2.721   0.651
 3613TIP3    H110845   3.701   2.679   0.567
 3613TIP3    H210846   3.712   2.656   0.716
 3614TIP3   OH210847   2.138   4.647   1.308
 3614TIP3    H110848   2.107   4.592   1.379
 3614TIP3    H210849   2.233   4.648   1.317
 3615TIP3   OH210850   3.665   3.492   2.094
 3615TIP3    H110851   3.630   3.462   2.011
 3615TIP3    H210852   3.597   3.471   2.158
 3616TIP3   OH210853   2.449   4.875   1.072
 3616TIP3    H110854   2.414   4.809   1.133
 3616TIP3    H210855   2.423   4.959   1.110
 3617TIP3   OH210856   5.585   0.050   3.572
 3617TIP3    H110857   5.528   0.014   3.504
 3617TIP3    H210858   5.624   0.128   3.532
 3618TIP3   OH210859   3.308   0.752   4.141
 3618TIP3    H110860   3.403   0.761   4.126
 3618TIP3    H210861   3.283   0.834   4.184
 3619TIP3   OH210862   4.922   4.564   0.357
 3619TIP3    H110863   4.956   4.520   0.435
 3619TIP3    H210864   4.909   4.494   0.293
 3620TIP3   OH210865   5.991   4.593   4.194
 3620TIP3    H110866   6.025   4.507   4.217
 3620TIP3    H210867   6.066   4.641   4.161
 3621TIP3   OH210868   1.516   2.422   4.720
 3621TIP3    H110869   1.570   2.494   4.753
 3621TIP3    H210870   1.438   2.465   4.685
 3622TIP3   OH210871   6.020   3.889   3.196
 3622TIP3    H110872   5.951   3.872   3.132
 3622TIP3    H210873   6.029   3.984   3.197
 3623TIP3   OH210874   0.916   4.348   4.867
 3623TIP3    H110875   0.973   4.311   4.800
 3623TIP3    H210876   0.925   4.443   4.856
 3624TIP3   OH210877   0.718   1.103   0.238
 3624TIP3    H110878   0.641   1.046   0.229
 3624TIP3    H210879   0.682   1.192   0.238
 3625TIP3   OH210880   3.624   3.630   3.953
 3625TIP3    H110881   3.700   3.684   3.976
 3625TIP3    H210882   3.549   3.688   3.962
 3626TIP3   OH210883   0.069   1.477   4.075
 3626TIP3    H110884   0.103   1.408   4.132
 3626TIP3    H210885   0.132   1.549   4.084
 3627TIP3   OH210886   1.205   1.805   1.576
 3627TIP3    H110887   1.260   1.884   1.582
 3627TIP3    H210888   1.205   1.783   1.483
 3628TIP3   OH210889   3.279   0.386   1.442
 3628TIP3    H110890   3.203   0.428   1.482
 3628TIP3    H210891   3.338   0.459   1.421
 3629TIP3   OH210892   2.483   4.955   1.714
 3629TIP3    H110893   2.481   4.963   1.619
 3629TIP3    H210894   2.574   4.932   1.734
 3630TIP3   OH210895   0.163   5.044   4.631
 3630TIP3    H110896   0.072   5.020   4.648
 3630TIP3    H210897   0.165   5.069   4.539
 3631TIP3   OH210898   0.665   0.856   0.775
 3631TIP3    H110899   0.650   0.908   0.854
 3631TIP3    H210900   0.660   0.765   0.804
 3632TIP3   OH210901   6.214   0.185   1.983
 3632TIP3    H110902   6.284   0.246   2.010
 3632TIP3    H210903   6.254   0.098   1.990
 3633TIP3   OH210904   1.647   2.152   0.533
 3633TIP3    H110905   1.557   2.167   0.504
 3633TIP3    H210906   1.668   2.064   0.504
 3634TIP3   OH210907   5.115   0.795   2.498
 3634TIP3    H110908   5.048   0.837   2.553
 3634TIP3    H210909   5.186   0.776   2.558
 3635TIP3   OH210910   4.541   0.390   3.854
 3635TIP3    H110911   4.545   0.428   3.766
 3635TIP3    H210912   4.518   0.299   3.840
 3636TIP3   OH210913   0.257   5.236   2.134
 3636TIP3    H110914   0.171   5.274   2.151
 3636TIP3    H210915   0.304   5.245   2.217
 3637TIP3   OH210916   1.070   1.389   5.088
 3637TIP3    H110917   1.106   1.332   5.021
 3637TIP3    H210918   1.042   1.467   5.041
 3638TIP3   OH210919   2.772   1.149   3.011
 3638TIP3    H110920   2.822   1.067   3.006
 3638TIP3    H210921   2.710   1.144   2.938
 3639TIP3   OH210922   1.889   4.583   0.451
 3639TIP3    H110923   1.973   4.621   0.426
 3639TIP3    H210924   1.902   4.555   0.542
 3640TIP3   OH210925   5.812   0.626   3.637
 3640TIP3    H110926   5.816   0.531   3.651
 3640TIP3    H210927   5.738   0.655   3.690
 3641TIP3   OH210928   5.257   3.805   0.553
 3641TIP3    H110929   5.212   3.726   0.583
 3641TIP3    H210930   5.299   3.840   0.631
 3642TIP3   OH210931   1.506   2.317   0.878
 3642TIP3    H110932   1.503   2.232   0.921
 3642TIP3    H210933   1.592   2.353   0.901
 3643TIP3   OH210934   6.175   0.254   1.200
 3643TIP3    H110935   6.227   0.292   1.130
 3643TIP3    H210936   6.110   0.199   1.156
 3644TIP3   OH210937   0.475   4.645   1.484
 3644TIP3    H110938   0.441   4.670   1.569
 3644TIP3    H210939   0.560   4.688   1.478
 3645TIP3   OH210940   5.863   5.145   5.043
 3645TIP3    H110941   5.913   5.225   5.058
 3645TIP3    H210942   5.828   5.155   4.955
 3646TIP3   OH210943   4.719   2.586   3.392
 3646TIP3    H110944   4.709   2.681   3.384
 3646TIP3    H210945   4.668   2.563   3.469
 3647TIP3   OH210946   1.708   5.175   2.986
 3647TIP3    H110947   1.646   5.244   2.962
 3647TIP3    H210948   1.751   5.152   2.904
 3648TIP3   OH210949   4.991   1.891   0.193
 3648TIP3    H110950   5.020   1.944   0.268
 3648TIP3    H210951   5.067   1.888   0.135
 3649TIP3   OH210952   4.490   0.815   2.159
 3649TIP3    H110953   4.430   0.764   2.105
 3649TIP3    H210954   4.523   0.753   2.223
 3650TIP3   OH210955   5.824   4.106   4.317
 3650TIP3    H110956   5.917   4.085   4.313
 3650TIP3    H210957   5.780   4.033   4.273
 3651TIP3   OH210958   6.114   4.214   0.305
 3651TIP3    H110959   6.107   4.184   0.395
 3651TIP3    H210960   6.060   4.293   0.302
 3652TIP3   OH210961   0.441   2.057   2.024
 3652TIP3    H110962   0.481   1.970   2.032
 3652TIP3    H210963   0.474   2.106   2.100
 3653TIP3   OH210964   1.351   5.628   4.225
 3653TIP3    H110965   1.402   5.548   4.240
 3653TIP3    H210966   1.277   5.599   4.171
 3654TIP3   OH210967   1.425   4.503   2.752
 3654TIP3    H110968   1.520   4.518   2.755
 3654TIP3    H210969   1.387   4.590   2.752
 3655TIP3   OH210970   0.285   3.962   2.907
 3655TIP3    H110971   0.290   3.875   2.869
 3655TIP3    H210972   0.294   4.021   2.832
 3656TIP3   OH210973   5.331   5.312   1.370
 3656TIP3    H110974   5.294   5.355   1.293
 3656TIP3    H210975   5.359   5.226   1.339
 3657TIP3   OH210976   4.789   3.629   1.562
 3657TIP3    H110977   4.732   3.556   1.536
 3657TIP3    H210978   4.741   3.707   1.535
 3658TIP3   OH210979   5.502   5.752   1.691
 3658TIP3    H110980   5.581   5.750   1.744
 3658TIP3    H210981   5.465   5.839   1.705
 3659TIP3   OH210982   5.124   0.741   0.503
 3659TIP3    H110983   5.098   0.805   0.436
 3659TIP3    H210984   5.093   0.778   0.585
 3660TIP3   OH210985   5.348   5.977   1.792
 3660TIP3    H110986   5.270   5.929   1.821
 3660TIP3    H210987   5.337   6.065   1.827
 3661TIP3   OH210988   5.825   5.087   0.148
 3661TIP3    H110989   5.790   5.085   0.237
 3661TIP3    H210990   5.790   5.167   0.110
 3662TIP3   OH210991   1.822   5.780   1.227
 3662TIP3    H110992   1.893   5.770   1.290
 3662TIP3    H210993   1.743   5.753   1.273
 3663TIP3   OH210994   2.515   5.306   4.627
 3663TIP3    H110995   2.600   5.274   4.658
 3663TIP3    H210996   2.529   5.399   4.610
 3664TIP3   OH210997   0.233   2.986   3.080
 3664TIP3    H110998   0.197   2.957   2.997
 3664TIP3    H210999   0.157   2.993   3.138
 3665TIP3   OH211000   2.697   5.564   2.188
 3665TIP3    H111001   2.746   5.515   2.123
 3665TIP3    H211002   2.617   5.592   2.143
 3666TIP3   OH211003   6.243   5.270   4.483
 3666TIP3    H111004   6.316   5.243   4.428
 3666TIP3    H211005   6.257   5.363   4.497
 3667TIP3   OH211006   5.025   2.740   2.420
 3667TIP3    H111007   5.023   2.744   2.324
 3667TIP3    H211008   4.935   2.759   2.447
 3668TIP3   OH211009   4.110   1.347   1.126
 3668TIP3    H111010   4.022   1.311   1.131
 3668TIP3    H211011   4.114   1.411   1.197
 3669TIP3   OH211012   3.658   4.464   3.939
 3669TIP3    H111013   3.582   4.444   3.993
 3669TIP3    H211014   3.698   4.380   3.921
 3670TIP3   OH211015   5.916   0.719   3.959
 3670TIP3    H111016   5.854   0.749   4.026
 3670TIP3    H211017   5.901   0.778   3.885
 3671TIP3   OH211018   0.143   1.221   3.312
 3671TIP3    H111019   0.144   1.196   3.405
 3671TIP3    H211020   0.200   1.158   3.269
 3672TIP3   OH211021   0.922   2.467   3.616
 3672TIP3    H111022   0.840   2.517   3.618
 3672TIP3    H211023   0.922   2.418   3.699
 3673TIP3   OH211024   3.380   0.955   1.820
 3673TIP3    H111025   3.412   0.961   1.910
 3673TIP3    H211026   3.338   0.870   1.815
 3674TIP3   OH211027   2.618   5.822   4.137
 3674TIP3    H111028   2.651   5.838   4.225
 3674TIP3    H211029   2.583   5.733   4.141
 3675TIP3   OH211030   2.239   0.675   1.858
 3675TIP3    H111031   2.257   0.583   1.837
 3675TIP3    H211032   2.306   0.724   1.812
 3676TIP3   OH211033   0.321   4.304   1.310
 3676TIP3    H111034   0.369   4.332   1.232
 3676TIP3    H211035   0.264   4.377   1.331
 3677TIP3   OH211036   1.818   3.561   0.909
 3677TIP3    H111037   1.764   3.637   0.933
 3677TIP3    H211038   1.908   3.593   0.912
 3678TIP3   OH211039   6.256   4.895   1.251
 3678TIP3    H111040   6.165   4.869   1.234
 3678TIP3    H211041   6.262   4.985   1.219
 3679TIP3   OH211042   5.937   2.431   0.912
 3679TIP3    H111043   5.977   2.344   0.904
 3679TIP3    H211044   6.004   2.485   0.951
 3680TIP3   OH211045   1.607   5.533   1.456
 3680TIP3    H111046   1.678   5.597   1.452
 3680TIP3    H211047   1.650   5.450   1.472
 3681TIP3   OH211048   3.945   5.164   1.602
 3681TIP3    H111049   3.987   5.149   1.686
 3681TIP3    H211050   3.989   5.242   1.567
 3682TIP3   OH211051   1.970   5.008   1.800
 3682TIP3    H111052   1.879   5.033   1.818
 3682TIP3    H211053   1.981   4.925   1.847
 3683TIP3   OH211054   2.148   4.233   1.319
 3683TIP3    H111055   2.203   4.287   1.374
 3683TIP3    H211056   2.060   4.269   1.330
 3684TIP3   OH211057   1.081   0.586   2.589
 3684TIP3    H111058   1.109   0.650   2.656
 3684TIP3    H211059   1.162   0.564   2.543
 3685TIP3   OH211060   4.618   4.306   3.173
 3685TIP3    H111061   4.663   4.385   3.142
 3685TIP3    H211062   4.558   4.284   3.102
 3686TIP3   OH211063   5.126   4.800   2.659
 3686TIP3    H111064   5.103   4.729   2.719
 3686TIP3    H211065   5.200   4.844   2.702
 3687TIP3   OH211066   4.716   2.108   1.631
 3687TIP3    H111067   4.791   2.149   1.589
 3687TIP3    H211068   4.680   2.177   1.687
 3688TIP3   OH211069   2.416   1.000   1.469
 3688TIP3    H111070   2.437   1.093   1.466
 3688TIP3    H211071   2.448   0.970   1.554
 3689TIP3   OH211072   3.913   3.497   4.674
 3689TIP3    H111073   3.870   3.579   4.699
 3689TIP3    H211074   3.898   3.490   4.580
 3690TIP3   OH211075   3.051   2.242   1.276
 3690TIP3    H111076   3.072   2.292   1.355
 3690TIP3    H211077   3.045   2.151   1.307
 3691TIP3   OH211078   5.077   4.151   4.366
 3691TIP3    H111079   5.020   4.222   4.335
 3691TIP3    H211080   5.159   4.195   4.389
 3692TIP3   OH211081   6.104   1.900   0.809
 3692TIP3    H111082   6.027   1.916   0.755
 3692TIP3    H211083   6.178   1.923   0.753
 3693TIP3   OH211084   2.181   5.539   0.971
 3693TIP3    H111085   2.253   5.583   1.017
 3693TIP3    H211086   2.103   5.586   1.000
 3694TIP3   OH211087   0.932   4.649   4.794
 3694TIP3    H111088   0.856   4.683   4.747
 3694TIP3    H211089   1.006   4.700   4.761
 3695TIP3   OH211090   2.754   4.308   0.165
 3695TIP3    H111091   2.769   4.303   0.259
 3695TIP3    H211092   2.839   4.288   0.126
 3696TIP3   OH211093   4.280   2.963   3.073
 3696TIP3    H111094   4.229   2.984   3.151
 3696TIP3    H211095   4.232   3.006   3.001
 3697TIP3   OH211096   1.356   1.471   0.936
 3697TIP3    H111097   1.395   1.419   1.006
 3697TIP3    H211098   1.262   1.470   0.954
 3698TIP3   OH211099   3.623   3.777   1.986
 3698TIP3    H111100   3.564   3.852   1.977
 3698TIP3    H211101   3.575   3.704   1.947
 3699TIP3   OH211102   4.367   1.972   1.991
 3699TIP3    H111103   4.371   1.923   1.909
 3699TIP3    H211104   4.417   1.919   2.053
 3700TIP3   OH211105   2.503   0.228   4.536
 3700TIP3    H111106   2.481   0.151   4.483
 3700TIP3    H211107   2.433   0.233   4.601
 3701TIP3   OH211108   0.944   5.224   1.295
 3701TIP3    H111109   0.854   5.195   1.313
 3701TIP3    H211110   0.959   5.297   1.355
 3702TIP3   OH211111   1.337   3.993   3.277
 3702TIP3    H111112   1.285   3.956   3.205
 3702TIP3    H211113   1.301   3.952   3.356
 3703TIP3   OH211114   1.221   5.824   2.509
 3703TIP3    H111115   1.210   5.919   2.512
 3703TIP3    H211116   1.238   5.806   2.417
 3704TIP3   OH211117   1.954   2.788   1.087
 3704TIP3    H111118   1.924   2.765   0.999
 3704TIP3    H211119   1.875   2.787   1.140
 3705TIP3   OH211120   1.424   2.886   2.349
 3705TIP3    H111121   1.341   2.841   2.370
 3705TIP3    H211122   1.490   2.837   2.398
 3706TIP3   OH211123   6.018   0.330   4.431
 3706TIP3    H111124   5.957   0.288   4.370
 3706TIP3    H211125   5.980   0.314   4.518
 3707TIP3   OH211126   2.505   1.310   3.539
 3707TIP3    H111127   2.482   1.357   3.459
 3707TIP3    H211128   2.600   1.321   3.547
 3708TIP3   OH211129   6.111   4.536   5.055
 3708TIP3    H111130   6.148   4.449   5.068
 3708TIP3    H211131   6.159   4.592   5.117
 3709TIP3   OH211132   1.641   3.830   0.688
 3709TIP3    H111133   1.665   3.918   0.658
 3709TIP3    H211134   1.674   3.826   0.778
 3710TIP3   OH211135   2.171   5.462   0.579
 3710TIP3    H111136   2.216   5.498   0.655
 3710TIP3    H211137   2.241   5.427   0.523
 3711TIP3   OH211138   1.561   0.092   2.387
 3711TIP3    H111139   1.498   0.141   2.335
 3711TIP3    H211140   1.531   0.001   2.381
 3712TIP3   OH211141   2.495   5.570   4.130
 3712TIP3    H111142   2.420   5.531   4.174
 3712TIP3    H211143   2.470   5.573   4.038
 3713TIP3   OH211144   3.301   4.534   3.703
 3713TIP3    H111145   3.269   4.447   3.725
 3713TIP3    H211146   3.229   4.593   3.726
 3714TIP3   OH211147   2.822   1.324   1.190
 3714TIP3    H111148   2.768   1.283   1.123
 3714TIP3    H211149   2.906   1.340   1.146
 3715TIP3   OH211150   3.263   0.980   0.469
 3715TIP3    H111151   3.322   1.013   0.537
 3715TIP3    H211152   3.282   1.035   0.393
 3716TIP3   OH211153   3.448   0.254   1.682
 3716TIP3    H111154   3.435   0.217   1.594
 3716TIP3    H211155   3.486   0.182   1.732
 3717TIP3   OH211156   6.279   2.980   1.391
 3717TIP3    H111157   6.296   2.923   1.317
 3717TIP3    H211158   6.363   2.988   1.436
 3718TIP3   OH211159   2.027   5.518   1.566
 3718TIP3    H111160   2.054   5.566   1.645
 3718TIP3    H211161   2.108   5.479   1.533
 3719TIP3   OH211162   0.236   0.274   3.294
 3719TIP3    H111163   0.286   0.221   3.357
 3719TIP3    H211164   0.297   0.287   3.222
 3720TIP3   OH211165   5.104   5.597   4.885
 3720TIP3    H111166   5.010   5.601   4.866
 3720TIP3    H211167   5.139   5.538   4.819
 3721TIP3   OH211168   3.404   2.932   4.759
 3721TIP3    H111169   3.422   2.843   4.790
 3721TIP3    H211170   3.378   2.921   4.667
 3722TIP3   OH211171   1.481   3.602   0.673
 3722TIP3    H111172   1.444   3.599   0.761
 3722TIP3    H211173   1.518   3.690   0.665
 3723TIP3   OH211174   0.253   4.062   3.979
 3723TIP3    H111175   0.191   4.055   4.052
 3723TIP3    H211176   0.334   4.094   4.020
 3724TIP3   OH211177   4.193   0.058   2.424
 3724TIP3    H111178   4.118   0.030   2.476
 3724TIP3    H211179   4.156   0.081   2.339
 3725TIP3   OH211180   3.611   5.174   1.218
 3725TIP3    H111181   3.681   5.134   1.269
 3725TIP3    H211182   3.657   5.224   1.150
 3726TIP3   OH211183   3.567   5.810   0.837
 3726TIP3    H111184   3.549   5.751   0.763
 3726TIP3    H211185   3.489   5.865   0.843
 3727TIP3   OH211186   2.897   0.915   2.785
 3727TIP3    H111187   2.931   0.936   2.872
 3727TIP3    H211188   2.840   0.988   2.763
 3728TIP3   OH211189   0.955   4.706   1.415
 3728TIP3    H111190   0.864   4.732   1.397
 3728TIP3    H211191   1.001   4.789   1.428
 3729TIP3   OH211192   3.479   1.862   0.080
 3729TIP3    H111193   3.498   1.949   0.043
 3729TIP3    H211194   3.504   1.801   0.011
 3730TIP3   OH211195   0.300   4.528   1.990
 3730TIP3    H111196   0.274   4.549   1.901
 3730TIP3    H211197   0.332   4.611   2.026
 3731TIP3   OH211198   1.068   1.728   4.067
 3731TIP3    H111199   1.112   1.673   4.001
 3731TIP3    H211200   1.019   1.666   4.121
 3732TIP3   OH211201   0.617   4.222   2.534
 3732TIP3    H111202   0.661   4.307   2.534
 3732TIP3    H211203   0.530   4.239   2.500
 3733TIP3   OH211204   3.929   1.587   1.970
 3733TIP3    H111205   4.003   1.527   1.975
 3733TIP3    H211206   3.933   1.637   2.051
 3734TIP3   OH211207   1.223   3.095   4.978
 3734TIP3    H111208   1.189   3.131   4.896
 3734TIP3    H211209   1.148   3.098   5.038
 3735TIP3   OH211210   5.720   3.156   1.519
 3735TIP3    H111211   5.786   3.101   1.478
 3735TIP3    H211212   5.649   3.162   1.455
 3736TIP3   OH211213   4.084   3.848   2.204
 3736TIP3    H111214   4.151   3.898   2.159
 3736TIP3    H211215   4.002   3.894   2.185
 3737TIP3   OH211216   1.272   4.645   1.374
 3737TIP3    H111217   1.359   4.674   1.346
 3737TIP3    H211218   1.237   4.718   1.424
 3738TIP3   OH211219   1.217   3.148   3.465
 3738TIP3    H111220   1.193   3.155   3.558
 3738TIP3    H211221   1.153   3.087   3.429
 3739TIP3   OH211222   1.440   2.831   5.193
 3739TIP3    H111223   1.472   2.874   5.114
 3739TIP3    H211224   1.422   2.903   5.254
 3740TIP3   OH211225   6.117   4.054   2.701
 3740TIP3    H111226   6.096   4.037   2.609
 3740TIP3    H211227   6.132   3.968   2.739
 3741TIP3   OH211228   4.771   5.320   4.874
 3741TIP3    H111229   4.814   5.249   4.921
 3741TIP3    H211230   4.810   5.319   4.787
 3742TIP3   OH211231   4.460   4.880   2.221
 3742TIP3    H111232   4.418   4.804   2.181
 3742TIP3    H211233   4.388   4.927   2.265
 3743TIP3   OH211234   5.651   0.763   1.756
 3743TIP3    H111235   5.614   0.690   1.806
 3743TIP3    H211236   5.717   0.721   1.699
 3744TIP3   OH211237   4.083   2.650   2.661
 3744TIP3    H111238   4.148   2.717   2.682
 3744TIP3    H211239   4.057   2.669   2.571
 3745TIP3   OH211240   0.926   3.678   3.563
 3745TIP3    H111241   0.975   3.760   3.569
 3745TIP3    H211242   0.873   3.676   3.642
 3746TIP3   OH211243   2.843   5.489   2.632
 3746TIP3    H111244   2.850   5.583   2.618
 3746TIP3    H211245   2.933   5.461   2.650
 3747TIP3   OH211246   0.057   4.010   2.126
 3747TIP3    H111247   0.091   3.930   2.166
 3747TIP3    H211248   0.134   4.060   2.103
 3748TIP3   OH211249   3.007   1.160   3.661
 3748TIP3    H111250   3.057   1.207   3.594
 3748TIP3    H211251   3.023   1.067   3.642
 3749TIP3   OH211252   1.791   0.843   1.113
 3749TIP3    H111253   1.790   0.772   1.177
 3749TIP3    H211254   1.718   0.825   1.055
 3750TIP3   OH211255   2.333   4.463   3.062
 3750TIP3    H111256   2.312   4.396   3.128
 3750TIP3    H211257   2.428   4.471   3.066
 3751TIP3   OH211258   1.460   4.495   3.058
 3751TIP3    H111259   1.483   4.503   2.966
 3751TIP3    H211260   1.427   4.405   3.066
 3752TIP3   OH211261   4.360   1.492   3.186
 3752TIP3    H111262   4.309   1.563   3.147
 3752TIP3    H211263   4.451   1.522   3.181
 3753TIP3   OH211264   0.797   2.302   2.227
 3753TIP3    H111265   0.720   2.284   2.281
 3753TIP3    H211266   0.872   2.285   2.284
 3754TIP3   OH211267   3.564   0.961   0.979
 3754TIP3    H111268   3.650   0.947   1.019
 3754TIP3    H211269   3.528   1.037   1.025
 3755TIP3   OH211270   1.148   2.990   1.732
 3755TIP3    H111271   1.095   3.042   1.791
 3755TIP3    H211272   1.140   3.034   1.647
 3756TIP3   OH211273   5.801   4.247   5.147
 3756TIP3    H111274   5.881   4.225   5.195
 3756TIP3    H211275   5.831   4.276   5.061
 3757TIP3   OH211276   0.402   4.910   4.412
 3757TIP3    H111277   0.331   4.972   4.426
 3757TIP3    H211278   0.478   4.964   4.390
 3758TIP3   OH211279   0.543   2.573   2.584
 3758TIP3    H111280   0.558   2.646   2.644
 3758TIP3    H211281   0.463   2.597   2.536
 3759TIP3   OH211282   6.224   5.124   2.202
 3759TIP3    H111283   6.134   5.093   2.196
 3759TIP3    H211284   6.232   5.187   2.130
 3760TIP3   OH211285   2.933   1.194   0.360
 3760TIP3    H111286   2.958   1.143   0.437
 3760TIP3    H211287   2.855   1.151   0.327
 3761TIP3   OH211288   4.725   0.925   2.129
 3761TIP3    H111289   4.772   0.864   2.186
 3761TIP3    H211290   4.633   0.908   2.146
 3762TIP3   OH211291   2.287   0.896   3.102
 3762TIP3    H111292   2.237   0.918   3.180
 3762TIP3    H211293   2.377   0.922   3.123
 3763TIP3   OH211294   0.757   4.739   4.608
 3763TIP3    H111295   0.678   4.689   4.628
 3763TIP3    H211296   0.748   4.761   4.515
 3764TIP3   OH211297   2.672   2.685   3.117
 3764TIP3    H111298   2.594   2.667   3.170
 3764TIP3    H211299   2.638   2.692   3.028
 3765TIP3   OH211300   1.657   1.849   4.228
 3765TIP3    H111301   1.625   1.780   4.169
 3765TIP3    H211302   1.584   1.910   4.235
 3766TIP3   OH211303   1.898   4.165   0.858
 3766TIP3    H111304   1.910   4.079   0.818
 3766TIP3    H211305   1.901   4.148   0.953
 3767TIP3   OH211306   0.081   4.301   4.919
 3767TIP3    H111307   0.025   4.272   4.990
 3767TIP3    H211308   0.169   4.271   4.944
 3768TIP3   OH211309   5.939   2.346   3.550
 3768TIP3    H111310   5.996   2.420   3.530
 3768TIP3    H211311   5.997   2.270   3.548
 3769TIP3   OH211312   1.471   0.604   0.752
 3769TIP3    H111313   1.444   0.613   0.660
 3769TIP3    H211314   1.407   0.543   0.789
 3770TIP3   OH211315   5.771   3.152   1.795
 3770TIP3    H111316   5.852   3.203   1.793
 3770TIP3    H211317   5.734   3.161   1.708
 3771TIP3   OH211318   6.034   4.035   0.999
 3771TIP3    H111319   6.019   3.985   1.079
 3771TIP3    H211320   6.106   3.990   0.956
 3772TIP3   OH211321   1.173   5.699   0.729
 3772TIP3    H111322   1.258   5.715   0.687
 3772TIP3    H211323   1.189   5.624   0.786
 3773TIP3   OH211324   5.683   2.432   1.396
 3773TIP3    H111325   5.589   2.420   1.382
 3773TIP3    H211326   5.722   2.425   1.309
 3774TIP3   OH211327   3.050   5.417   3.538
 3774TIP3    H111328   2.970   5.371   3.512
 3774TIP3    H211329   3.099   5.427   3.456
 3775TIP3   OH211330   1.597   5.069   0.201
 3775TIP3    H111331   1.610   5.105   0.289
 3775TIP3    H211332   1.502   5.059   0.193
 3776TIP3   OH211333   4.243   5.320   3.577
 3776TIP3    H111334   4.273   5.410   3.589
 3776TIP3    H211335   4.209   5.295   3.663
 3777TIP3   OH211336   6.013   4.771   1.212
 3777TIP3    H111337   5.927   4.812   1.221
 3777TIP3    H211338   5.994   4.677   1.209
 3778TIP3   OH211339   5.465   5.144   4.941
 3778TIP3    H111340   5.392   5.126   5.001
 3778TIP3    H211341   5.506   5.059   4.927
 3779TIP3   OH211342   1.235   1.674   4.302
 3779TIP3    H111343   1.181   1.744   4.263
 3779TIP3    H211344   1.179   1.636   4.370
 3780TIP3   OH211345   0.626   2.495   3.194
 3780TIP3    H111346   0.600   2.583   3.222
 3780TIP3    H211347   0.650   2.506   3.102
 3781TIP3   OH211348   5.078   3.960   2.929
 3781TIP3    H111349   5.074   3.865   2.916
 3781TIP3    H211350   5.056   3.973   3.021
 3782TIP3   OH211351   0.034   2.495   1.512
 3782TIP3    H111352   0.071   2.423   1.461
 3782TIP3    H211353   0.101   2.513   1.578
 3783TIP3   OH211354   1.096   1.494   1.612
 3783TIP3    H111355   1.075   1.472   1.521
 3783TIP3    H211356   1.174   1.549   1.606
 3784TIP3   OH211357   3.435   2.234   3.565
 3784TIP3    H111358   3.454   2.323   3.536
 3784TIP3    H211359   3.520   2.199   3.593
 3785TIP3   OH211360   6.016   1.445   1.259
 3785TIP3    H111361   6.061   1.518   1.301
 3785TIP3    H211362   6.085   1.381   1.242
 3786TIP3   OH211363   4.479   1.216   1.704
 3786TIP3    H111364   4.481   1.203   1.610
 3786TIP3    H211365   4.496   1.129   1.741
 3787TIP3   OH211366   4.463   5.436   3.241
 3787TIP3    H111367   4.484   5.397   3.156
 3787TIP3    H211368   4.538   5.414   3.297
 3788TIP3   OH211369   4.435   4.273   4.872
 3788TIP3    H111370   4.499   4.210   4.905
 3788TIP3    H211371   4.365   4.218   4.835
 3789TIP3   OH211372   2.688   2.440   5.222
 3789TIP3    H111373   2.602   2.413   5.188
 3789TIP3    H211374   2.750   2.382   5.180
 3790TIP3   OH211375   1.389   4.250   3.156
 3790TIP3    H111376   1.363   4.196   3.081
 3790TIP3    H211377   1.382   4.191   3.231
 3791TIP3   OH211378   2.570   1.391   0.975
 3791TIP3    H111379   2.478   1.384   0.950
 3791TIP3    H211380   2.595   1.480   0.948
 3792TIP3   OH211381   4.095   2.820   3.784
 3792TIP3    H111382   4.156   2.762   3.738
 3792TIP3    H211383   4.150   2.868   3.846
 3793TIP3   OH211384   3.949   1.260   0.480
 3793TIP3    H111385   3.963   1.334   0.421
 3793TIP3    H211386   4.036   1.243   0.518
 3794TIP3   OH211387   1.624   4.574   5.014
 3794TIP3    H111388   1.624   4.570   4.918
 3794TIP3    H211389   1.704   4.622   5.036
 3795TIP3   OH211390   0.722   2.939   4.126
 3795TIP3    H111391   0.641   2.910   4.169
 3795TIP3    H211392   0.792   2.903   4.180
 3796TIP3   OH211393   1.297   1.693   1.275
 3796TIP3    H111394   1.214   1.708   1.230
 3796TIP3    H211395   1.362   1.686   1.205
 3797TIP3   OH211396   0.743   5.410   3.561
 3797TIP3    H111397   0.649   5.426   3.549
 3797TIP3    H211398   0.770   5.475   3.626
 3798TIP3   OH211399   2.712   1.174   4.301
 3798TIP3    H111400   2.708   1.142   4.391
 3798TIP3    H211401   2.621   1.193   4.279
 3799TIP3   OH211402   5.813   5.385   4.660
 3799TIP3    H111403   5.897   5.407   4.701
 3799TIP3    H211404   5.749   5.395   4.730
 3800TIP3   OH211405   6.320   4.101   3.245
 3800TIP3    H111406   6.293   4.032   3.185
 3800TIP3    H211407   6.315   4.062   3.332
 3801TIP3   OH211408   4.985   1.691   1.326
 3801TIP3    H111409   5.042   1.767   1.320
 3801TIP3    H211410   5.033   1.629   1.380
 3802TIP3   OH211411   3.978   2.195   0.206
 3802TIP3    H111412   4.033   2.206   0.129
 3802TIP3    H211413   3.910   2.134   0.179
 3803TIP3   OH211414   3.225   0.280   2.994
 3803TIP3    H111415   3.201   0.337   3.067
 3803TIP3    H211416   3.299   0.228   3.026
 3804TIP3   OH211417   3.834   3.755   0.298
 3804TIP3    H111418   3.904   3.821   0.306
 3804TIP3    H211419   3.755   3.806   0.278
 3805TIP3   OH211420   3.515   4.619   1.203
 3805TIP3    H111421   3.531   4.534   1.245
 3805TIP3    H211422   3.429   4.646   1.235
 3806TIP3   OH211423   4.253   4.755   4.637
 3806TIP3    H111424   4.246   4.818   4.708
 3806TIP3    H211425   4.305   4.683   4.673
 3807TIP3   OH211426   2.838   4.993   2.266
 3807TIP3    H111427   2.857   4.948   2.184
 3807TIP3    H211428   2.747   5.021   2.258
 3808TIP3   OH211429   6.092   4.810   4.398
 3808TIP3    H111430   6.179   4.787   4.363
 3808TIP3    H211431   6.110   4.854   4.481
 3809TIP3   OH211432   4.172   4.219   3.744
 3809TIP3    H111433   4.130   4.217   3.658
 3809TIP3    H211434   4.201   4.129   3.758
 3810TIP3   OH211435   5.022   3.668   4.586
 3810TIP3    H111436   4.935   3.631   4.602
 3810TIP3    H211437   5.005   3.759   4.563
 3811TIP3   OH211438   1.907   3.247   1.492
 3811TIP3    H111439   1.998   3.268   1.514
 3811TIP3    H211440   1.907   3.238   1.397
 3812TIP3   OH211441   2.652   0.288   2.339
 3812TIP3    H111442   2.594   0.253   2.271
 3812TIP3    H211443   2.675   0.211   2.392
 3813TIP3   OH211444   5.300   2.992   1.660
 3813TIP3    H111445   5.220   2.941   1.650
 3813TIP3    H211446   5.281   3.074   1.614
 3814TIP3   OH211447   5.102   1.353   4.194
 3814TIP3    H111448   5.121   1.359   4.288
 3814TIP3    H211449   5.076   1.442   4.170
 3815TIP3   OH211450   4.404   4.046   3.756
 3815TIP3    H111451   4.331   3.984   3.753
 3815TIP3    H211452   4.469   4.008   3.696
 3816TIP3   OH211453   4.789   1.351   1.021
 3816TIP3    H111454   4.737   1.410   1.075
 3816TIP3    H211455   4.852   1.408   0.976
 3817TIP3   OH211456   1.118   1.149   2.784
 3817TIP3    H111457   1.181   1.080   2.768
 3817TIP3    H211458   1.122   1.165   2.878
 3818TIP3   OH211459   4.604   2.223   2.629
 3818TIP3    H111460   4.559   2.251   2.549
 3818TIP3    H211461   4.604   2.302   2.684
 3819TIP3   OH211462   1.167   0.788   3.745
 3819TIP3    H111463   1.187   0.799   3.838
 3819TIP3    H211464   1.071   0.780   3.741
 3820TIP3   OH211465   3.468   1.422   0.113
 3820TIP3    H111466   3.524   1.345   0.104
 3820TIP3    H211467   3.424   1.429   0.029
 3821TIP3   OH211468   1.710   5.224   0.514
 3821TIP3    H111469   1.668   5.265   0.439
 3821TIP3    H211470   1.727   5.134   0.486
 3822TIP3   OH211471   6.350   3.540   0.355
 3822TIP3    H111472   6.421   3.598   0.383
 3822TIP3    H211473   6.270   3.590   0.373
 3823TIP3   OH211474   3.634   5.892   2.316
 3823TIP3    H111475   3.549   5.936   2.317
 3823TIP3    H211476   3.634   5.842   2.234
 3824TIP3   OH211477   1.724   4.523   1.172
 3824TIP3    H111478   1.752   4.457   1.236
 3824TIP3    H211479   1.743   4.484   1.087
 3825TIP3   OH211480   2.496   3.227   2.809
 3825TIP3    H111481   2.460   3.263   2.728
 3825TIP3    H211482   2.581   3.190   2.784
 3826TIP3   OH211483   3.972   2.969   1.161
 3826TIP3    H111484   3.937   2.909   1.095
 3826TIP3    H211485   4.016   3.037   1.110
 3827TIP3   OH211486   1.695   5.439   4.873
 3827TIP3    H111487   1.612   5.395   4.887
 3827TIP3    H211488   1.750   5.411   4.946
 3828TIP3   OH211489   2.867   0.180   0.453
 3828TIP3    H111490   2.929   0.219   0.391
 3828TIP3    H211491   2.782   0.190   0.412
 3829TIP3   OH211492   4.304   2.096   3.133
 3829TIP3    H111493   4.225   2.118   3.183
 3829TIP3    H211494   4.371   2.078   3.198
 3830TIP3   OH211495   1.962   1.830   4.555
 3830TIP3    H111496   1.961   1.876   4.639
 3830TIP3    H211497   1.990   1.896   4.491
 3831TIP3   OH211498   5.182   2.437   2.872
 3831TIP3    H111499   5.186   2.390   2.956
 3831TIP3    H211500   5.090   2.430   2.845
 3832TIP3   OH211501   1.308   0.537   3.010
 3832TIP3    H111502   1.213   0.542   3.019
 3832TIP3    H211503   1.322   0.491   2.928
 3833TIP3   OH211504   1.363   1.464   1.765
 3833TIP3    H111505   1.277   1.423   1.763
 3833TIP3    H211506   1.379   1.492   1.674
 3834TIP3   OH211507   1.009   5.584   1.105
 3834TIP3    H111508   1.079   5.540   1.153
 3834TIP3    H211509   1.006   5.541   1.020
 3835TIP3   OH211510   2.693   0.628   4.264
 3835TIP3    H111511   2.631   0.633   4.337
 3835TIP3    H211512   2.758   0.563   4.292
 3836TIP3   OH211513   6.009   1.641   2.849
 3836TIP3    H111514   5.958   1.720   2.829
 3836TIP3    H211515   6.092   1.656   2.803
 3837TIP3   OH211516   0.396   0.907   2.546
 3837TIP3    H111517   0.403   0.932   2.454
 3837TIP3    H211518   0.395   0.991   2.593
 3838TIP3   OH211519   0.144   4.948   2.421
 3838TIP3    H111520   0.110   4.867   2.459
 3838TIP3    H211521   0.078   5.014   2.444
 3839TIP3   OH211522   5.250   0.330   1.222
 3839TIP3    H111523   5.278   0.342   1.131
 3839TIP3    H211524   5.191   0.255   1.219
 3840TIP3   OH211525   6.213   4.244   0.894
 3840TIP3    H111526   6.146   4.186   0.928
 3840TIP3    H211527   6.270   4.187   0.842
 3841TIP3   OH211528   0.247   4.806   0.732
 3841TIP3    H111529   0.196   4.765   0.802
 3841TIP3    H211530   0.207   4.775   0.651
 3842TIP3   OH211531   4.537   5.262   4.762
 3842TIP3    H111532   4.474   5.330   4.787
 3842TIP3    H211533   4.614   5.279   4.816
 3843TIP3   OH211534   5.054   0.145   3.710
 3843TIP3    H111535   4.993   0.210   3.677
 3843TIP3    H211536   5.040   0.144   3.804
 3844TIP3   OH211537   2.000   0.878   2.230
 3844TIP3    H111538   2.070   0.813   2.228
 3844TIP3    H211539   1.935   0.840   2.289
 3845TIP3   OH211540   0.612   0.586   0.869
 3845TIP3    H111541   0.522   0.575   0.837
 3845TIP3    H211542   0.612   0.544   0.955
 3846TIP3   OH211543   2.505   4.171   3.490
 3846TIP3    H111544   2.415   4.139   3.493
 3846TIP3    H211545   2.529   4.182   3.582
 3847TIP3   OH211546   2.939   5.207   3.127
 3847TIP3    H111547   2.888   5.142   3.078
 3847TIP3    H211548   2.940   5.173   3.216
 3848TIP3   OH211549   4.585   3.471   3.083
 3848TIP3    H111550   4.677   3.493   3.091
 3848TIP3    H211551   4.569   3.409   3.155
 3849TIP3   OH211552   1.517   2.962   0.710
 3849TIP3    H111553   1.463   2.906   0.766
 3849TIP3    H211554   1.487   3.051   0.727
 3850TIP3   OH211555   2.352   1.848   0.990
 3850TIP3    H111556   2.320   1.758   0.982
 3850TIP3    H211557   2.429   1.851   0.933
 3851TIP3   OH211558   2.424   5.683   5.189
 3851TIP3    H111559   2.452   5.599   5.154
 3851TIP3    H211560   2.464   5.748   5.130
 3852TIP3   OH211561   3.391   5.948   4.608
 3852TIP3    H111562   3.427   5.890   4.541
 3852TIP3    H211563   3.331   6.006   4.561
 3853TIP3   OH211564   0.487   1.733   1.798
 3853TIP3    H111565   0.562   1.701   1.748
 3853TIP3    H211566   0.514   1.727   1.890
 3854TIP3   OH211567   5.829   2.468   4.233
 3854TIP3    H111568   5.816   2.556   4.199
 3854TIP3    H211569   5.740   2.435   4.248
 3855TIP3   OH211570   0.299   4.840   3.475
 3855TIP3    H111571   0.240   4.901   3.521
 3855TIP3    H211572   0.309   4.766   3.535
 3856TIP3   OH211573   4.082   2.985   2.762
 3856TIP3    H111574   4.079   3.055   2.828
 3856TIP3    H211575   4.049   3.026   2.682
 3857TIP3   OH211576   2.108   0.984   3.355
 3857TIP3    H111577   2.163   0.961   3.430
 3857TIP3    H211578   2.130   1.075   3.336
 3858TIP3   OH211579   0.596   3.648   0.150
 3858TIP3    H111580   0.660   3.651   0.078
 3858TIP3    H211581   0.549   3.565   0.136
 3859TIP3   OH211582   4.679   1.157   0.764
 3859TIP3    H111583   4.705   1.242   0.801
 3859TIP3    H211584   4.664   1.175   0.672
 3860TIP3   OH211585   3.001   1.316   0.052
 3860TIP3    H111586   3.058   1.315  -0.025
 3860TIP3    H211587   3.061   1.315   0.126
 3861TIP3   OH211588   3.167   5.390   3.158
 3861TIP3    H111589   3.113   5.311   3.159
 3861TIP3    H211590   3.137   5.439   3.081
 3862TIP3   OH211591   1.085   2.485   2.073
 3862TIP3    H111592   0.997   2.446   2.081
 3862TIP3    H211593   1.076   2.548   2.001
 3863TIP3   OH211594   3.902   0.341   3.872
 3863TIP3    H111595   3.884   0.249   3.895
 3863TIP3    H211596   3.968   0.336   3.803
 3864TIP3   OH211597   1.313   2.064   3.794
 3864TIP3    H111598   1.305   2.143   3.847
 3864TIP3    H211599   1.378   2.087   3.727
 3865TIP3   OH211600   4.299   3.668   3.850
 3865TIP3    H111601   4.271   3.589   3.803
 3865TIP3    H211602   4.288   3.739   3.786
 3866TIP3   OH211603   2.867   1.602   3.171
 3866TIP3    H111604   2.819   1.542   3.114
 3866TIP3    H211605   2.893   1.674   3.114
 3867TIP3   OH211606   1.677   5.371   1.005
 3867TIP3    H111607   1.703   5.323   0.926
 3867TIP3    H211608   1.750   5.431   1.021
 3868TIP3   OH211609   2.554   2.566   3.674
 3868TIP3    H111610   2.499   2.547   3.750
 3868TIP3    H211611   2.628   2.506   3.682
 3869TIP3   OH211612   3.494   2.526   1.791
 3869TIP3    H111613   3.573   2.573   1.821
 3869TIP3    H211614   3.426   2.553   1.852
 3870TIP3   OH211615   6.297   0.564   1.518
 3870TIP3    H111616   6.237   0.520   1.458
 3870TIP3    H211617   6.242   0.627   1.565
 3871TIP3   OH211618   0.294   1.197   1.608
 3871TIP3    H111619   0.339   1.280   1.622
 3871TIP3    H211620   0.208   1.221   1.574
 3872TIP3   OH211621   2.745   2.120   1.019
 3872TIP3    H111622   2.705   2.180   1.082
 3872TIP3    H211623   2.724   2.156   0.933
 3873TIP3   OH211624   6.168   1.639   3.326
 3873TIP3    H111625   6.084   1.670   3.293
 3873TIP3    H211626   6.159   1.642   3.421
 3874TIP3   OH211627   1.359   0.508   4.033
 3874TIP3    H111628   1.406   0.576   3.984
 3874TIP3    H211629   1.343   0.439   3.969
 3875TIP3   OH211630   6.219   2.068   5.236
 3875TIP3    H111631   6.163   2.035   5.166
 3875TIP3    H211632   6.293   2.110   5.191
 3876TIP3   OH211633   0.153   3.898   3.377
 3876TIP3    H111634   0.225   3.885   3.316
 3876TIP3    H211635   0.137   3.811   3.415
 3877TIP3   OH211636   5.451   5.536   2.323
 3877TIP3    H111637   5.417   5.455   2.285
 3877TIP3    H211638   5.458   5.596   2.249
 3878TIP3   OH211639   4.472   1.984   2.645
 3878TIP3    H111640   4.557   2.025   2.658
 3878TIP3    H211641   4.492   1.894   2.620
 3879TIP3   OH211642   3.648   3.305   3.519
 3879TIP3    H111643   3.627   3.330   3.609
 3879TIP3    H211644   3.599   3.224   3.505
 3880TIP3   OH211645   3.347   2.627   2.001
 3880TIP3    H111646   3.271   2.662   1.956
 3880TIP3    H211647   3.373   2.696   2.062
 3881TIP3   OH211648   1.410   4.716   4.132
 3881TIP3    H111649   1.422   4.701   4.038
 3881TIP3    H211650   1.495   4.694   4.171
 3882TIP3   OH211651   4.349   3.745   0.539
 3882TIP3    H111652   4.371   3.780   0.453
 3882TIP3    H211653   4.311   3.659   0.521
 3883TIP3   OH211654   2.467   0.797   0.778
 3883TIP3    H111655   2.486   0.703   0.769
 3883TIP3    H211656   2.553   0.839   0.777
 3884TIP3   OH211657   6.188   4.507   2.595
 3884TIP3    H111658   6.211   4.420   2.627
 3884TIP3    H211659   6.271   4.554   2.591
 3885TIP3   OH211660   3.809   2.831   3.672
 3885TIP3    H111661   3.904   2.829   3.677
 3885TIP3    H211662   3.783   2.739   3.668
 3886TIP3   OH211663   1.545   3.117   2.744
 3886TIP3    H111664   1.487   3.183   2.708
 3886TIP3    H211665   1.562   3.147   2.834
 3887TIP3   OH211666   0.384   4.736   1.231
 3887TIP3    H111667   0.445   4.742   1.305
 3887TIP3    H211668   0.416   4.662   1.179
 3888TIP3   OH211669   1.988   1.266   2.601
 3888TIP3    H111670   2.040   1.238   2.676
 3888TIP3    H211671   2.035   1.233   2.524
 3889TIP3   OH211672   5.222   2.802   0.454
 3889TIP3    H111673   5.277   2.724   0.464
 3889TIP3    H211674   5.189   2.819   0.542
 3890TIP3   OH211675   0.417   1.942   0.005
 3890TIP3    H111676   0.461   1.890   0.072
 3890TIP3    H211677   0.325   1.942   0.031
 3891TIP3   OH211678   2.771   1.303   2.451
 3891TIP3    H111679   2.679   1.327   2.461
 3891TIP3    H211680   2.808   1.373   2.398
 3892TIP3   OH211681   3.440   3.029   2.161
 3892TIP3    H111682   3.483   3.108   2.129
 3892TIP3    H211683   3.368   3.015   2.099
 3893TIP3   OH211684   4.406   2.761   2.951
 3893TIP3    H111685   4.378   2.843   2.991
 3893TIP3    H211686   4.406   2.698   3.023
 3894TIP3   OH211687   2.475   4.468   3.520
 3894TIP3    H111688   2.518   4.416   3.587
 3894TIP3    H211689   2.392   4.423   3.505
 3895TIP3   OH211690   6.301   2.833   1.666
 3895TIP3    H111691   6.218   2.831   1.617
 3895TIP3    H211692   6.367   2.854   1.600
 3896TIP3   OH211693   3.226   5.115   2.214
 3896TIP3    H111694   3.147   5.103   2.267
 3896TIP3    H211695   3.297   5.081   2.269
 3897TIP3   OH211696   4.554   5.831   4.952
 3897TIP3    H111697   4.589   5.885   5.023
 3897TIP3    H211698   4.471   5.873   4.928
 3898TIP3   OH211699   6.103   5.680   4.792
 3898TIP3    H111700   6.036   5.636   4.844
 3898TIP3    H211701   6.161   5.610   4.762
 3899TIP3   OH211702   5.994   2.678   1.148
 3899TIP3    H111703   5.965   2.763   1.115
 3899TIP3    H211704   5.941   2.663   1.227
 3900TIP3   OH211705   0.580   1.367   1.567
 3900TIP3    H111706   0.653   1.317   1.605
 3900TIP3    H211707   0.609   1.387   1.478
 3901TIP3   OH211708   3.552   3.801   0.220
 3901TIP3    H111709   3.483   3.857   0.184
 3901TIP3    H211710   3.599   3.769   0.143
 3902TIP3   OH211711   6.095   5.436   3.839
 3902TIP3    H111712   6.185   5.413   3.863
 3902TIP3    H211713   6.087   5.529   3.862
 3903TIP3   OH211714   4.986   0.850   3.587
 3903TIP3    H111715   5.046   0.914   3.549
 3903TIP3    H211716   5.020   0.835   3.676
 3904TIP3   OH211717   2.507   3.611   4.831
 3904TIP3    H111718   2.459   3.539   4.873
 3904TIP3    H211719   2.553   3.569   4.758
 3905TIP3   OH211720   2.606   3.803   1.610
 3905TIP3    H111721   2.670   3.779   1.543
 3905TIP3    H211722   2.659   3.833   1.684
 3906TIP3   OH211723   3.658   1.583   2.631
 3906TIP3    H111724   3.595   1.647   2.597
 3906TIP3    H211725   3.743   1.618   2.607
 3907TIP3   OH211726   6.075   1.813   2.177
 3907TIP3    H111727   6.094   1.905   2.156
 3907TIP3    H211728   6.090   1.806   2.271
 3908TIP3   OH211729   0.768   4.280   3.473
 3908TIP3    H111730   0.699   4.292   3.538
 3908TIP3    H211731   0.836   4.342   3.498
 3909TIP3   OH211732   0.606   0.480   0.523
 3909TIP3    H111733   0.597   0.386   0.508
 3909TIP3    H211734   0.697   0.499   0.504
 3910TIP3   OH211735   5.361   1.400   4.076
 3910TIP3    H111736   5.273   1.399   4.113
 3910TIP3    H211737   5.359   1.467   4.008
 3911TIP3   OH211738   1.695   0.347   3.487
 3911TIP3    H111739   1.641   0.420   3.518
 3911TIP3    H211740   1.731   0.377   3.404
 3912TIP3   OH211741   5.337   2.423   0.211
 3912TIP3    H111742   5.292   2.377   0.282
 3912TIP3    H211743   5.404   2.476   0.255
 3913TIP3   OH211744   0.755   3.584   1.646
 3913TIP3    H111745   0.831   3.556   1.595
 3913TIP3    H211746   0.725   3.504   1.690
 3914TIP3   OH211747   2.684   5.148   1.996
 3914TIP3    H111748   2.626   5.116   2.065
 3914TIP3    H211749   2.714   5.070   1.950
 3915TIP3   OH211750   0.853   3.659   2.571
 3915TIP3    H111751   0.811   3.591   2.518
 3915TIP3    H211752   0.785   3.725   2.583
 3916TIP3   OH211753   4.060   3.812   0.072
 3916TIP3    H111754   4.132   3.778   0.125
 3916TIP3    H211755   4.051   3.903   0.099
 3917TIP3   OH211756   0.620   3.471   0.677
 3917TIP3    H111757   0.600   3.509   0.591
 3917TIP3    H211758   0.688   3.406   0.659
 3918TIP3   OH211759   4.637   3.197   4.670
 3918TIP3    H111760   4.663   3.162   4.585
 3918TIP3    H211761   4.588   3.126   4.711
 3919TIP3   OH211762   2.249   2.120   2.874
 3919TIP3    H111763   2.340   2.122   2.902
 3919TIP3    H211764   2.252   2.097   2.782
 3920TIP3   OH211765   2.741   5.532   3.889
 3920TIP3    H111766   2.676   5.561   3.954
 3920TIP3    H211767   2.689   5.511   3.811
 3921TIP3   OH211768   3.802   2.597   0.424
 3921TIP3    H111769   3.865   2.525   0.419
 3921TIP3    H211770   3.842   2.667   0.371
 3922TIP3   OH211771   1.985   5.393   1.255
 3922TIP3    H111772   1.977   5.436   1.170
 3922TIP3    H211773   2.057   5.439   1.299
 3923TIP3   OH211774   2.067   0.902   0.289
 3923TIP3    H111775   2.112   0.986   0.279
 3923TIP3    H211776   1.976   0.927   0.307
 3924TIP3   OH211777   5.788   5.258   2.024
 3924TIP3    H111778   5.789   5.261   2.120
 3924TIP3    H211779   5.762   5.168   2.003
 3925TIP3   OH211780   2.521   0.908   3.238
 3925TIP3    H111781   2.486   0.953   3.315
 3925TIP3    H211782   2.615   0.903   3.253
 3926TIP3   OH211783   1.975   5.943   4.641
 3926TIP3    H111784   2.013   5.905   4.720
 3926TIP3    H211785   2.049   5.954   4.581
 3927TIP3   OH211786   6.151   2.630   1.505
 3927TIP3    H111787   6.238   2.589   1.514
 3927TIP3    H211788   6.131   2.622   1.412
 3928TIP3   OH211789   5.811   1.901   0.847
 3928TIP3    H111790   5.803   1.929   0.756
 3928TIP3    H211791   5.739   1.945   0.893
 3929TIP3   OH211792   0.084   1.107   0.311
 3929TIP3    H111793   0.047   1.194   0.295
 3929TIP3    H211794   0.162   1.103   0.255
 3930TIP3   OH211795   0.296   1.508   4.557
 3930TIP3    H111796   0.321   1.508   4.464
 3930TIP3    H211797   0.376   1.530   4.603
 3931TIP3   OH211798   3.466   0.908   0.186
 3931TIP3    H111799   3.481   1.000   0.210
 3931TIP3    H211800   3.546   0.881   0.142
 3932TIP3   OH211801   3.976   5.913   3.600
 3932TIP3    H111802   4.042   5.973   3.563
 3932TIP3    H211803   3.989   5.832   3.551
 3933TIP3   OH211804   5.716   1.823   4.720
 3933TIP3    H111805   5.635   1.858   4.756
 3933TIP3    H211806   5.715   1.730   4.743
 3934TIP3   OH211807   0.359   3.701   1.126
 3934TIP3    H111808   0.350   3.650   1.206
 3934TIP3    H211809   0.446   3.740   1.132
 3935TIP3   OH211810   2.682   4.241   0.446
 3935TIP3    H111811   2.607   4.242   0.387
 3935TIP3    H211812   2.655   4.297   0.519
 3936TIP3   OH211813   0.553   0.025   0.875
 3936TIP3    H111814   0.495   0.023   0.798
 3936TIP3    H211815   0.617  -0.043   0.857
 3937TIP3   OH211816   2.763   0.944   4.698
 3937TIP3    H111817   2.705   0.982   4.764
 3937TIP3    H211818   2.709   0.881   4.650
 3938TIP3   OH211819   0.189   0.093   2.568
 3938TIP3    H111820   0.272   0.067   2.608
 3938TIP3    H211821   0.190   0.189   2.572
 3939TIP3   OH211822   5.692   1.300   4.329
 3939TIP3    H111823   5.754   1.238   4.289
 3939TIP3    H211824   5.606   1.271   4.298
 3940TIP3   OH211825   0.140   3.947   0.392
 3940TIP3    H111826   0.052   3.935   0.357
 3940TIP3    H211827   0.172   3.858   0.408
 3941TIP3   OH211828   5.872   2.294   1.236
 3941TIP3    H111829   5.827   2.232   1.180
 3941TIP3    H211830   5.937   2.242   1.283
 3942TIP3   OH211831   3.741   2.857   0.957
 3942TIP3    H111832   3.657   2.813   0.946
 3942TIP3    H211833   3.722   2.928   1.018
 3943TIP3   OH211834   4.761   1.239   1.363
 3943TIP3    H111835   4.666   1.234   1.378
 3943TIP3    H211836   4.797   1.168   1.416
 3944TIP3   OH211837   0.529   5.707   4.408
 3944TIP3    H111838   0.508   5.736   4.497
 3944TIP3    H211839   0.621   5.684   4.411
 3945TIP3   OH211840   6.037   4.875   4.778
 3945TIP3    H111841   6.108   4.904   4.835
 3945TIP3    H211842   6.003   4.956   4.739
 3946TIP3   OH211843   4.866   0.298   3.257
 3946TIP3    H111844   4.813   0.252   3.192
 3946TIP3    H211845   4.885   0.383   3.216
 3947TIP3   OH211846   2.450   1.587   5.077
 3947TIP3    H111847   2.474   1.535   5.000
 3947TIP3    H211848   2.531   1.593   5.128
 3948TIP3   OH211849   6.303   1.573   2.261
 3948TIP3    H111850   6.291   1.657   2.307
 3948TIP3    H211851   6.353   1.520   2.323
 3949TIP3   OH211852   3.834   0.988   1.664
 3949TIP3    H111853   3.779   0.983   1.742
 3949TIP3    H211854   3.820   0.905   1.619
 3950TIP3   OH211855   5.671   3.831   2.068
 3950TIP3    H111856   5.678   3.805   1.976
 3950TIP3    H211857   5.659   3.926   2.064
 3951TIP3   OH211858   1.720   4.842   4.558
 3951TIP3    H111859   1.772   4.917   4.588
 3951TIP3    H211860   1.761   4.818   4.474
 3952TIP3   OH211861   5.973   2.911   4.807
 3952TIP3    H111862   5.993   2.828   4.764
 3952TIP3    H211863   6.019   2.977   4.755
 3953TIP3   OH211864   1.938   2.927   4.824
 3953TIP3    H111865   1.992   2.863   4.777
 3953TIP3    H211866   1.947   2.902   4.916
 3954TIP3   OH211867   0.161   0.390   4.238
 3954TIP3    H111868   0.098   0.329   4.199
 3954TIP3    H211869   0.192   0.345   4.316
 3955TIP3   OH211870   0.517   3.960   2.100
 3955TIP3    H111871   0.526   3.942   2.007
 3955TIP3    H211872   0.500   4.054   2.106
 3956TIP3   OH211873   4.248   3.619   1.045
 3956TIP3    H111874   4.216   3.704   1.074
 3956TIP3    H211875   4.331   3.608   1.091
 3957TIP3   OH211876   1.855   3.944   3.388
 3957TIP3    H111877   1.868   4.031   3.427
 3957TIP3    H211878   1.760   3.935   3.381
 3958TIP3   OH211879   1.803   0.737   1.526
 3958TIP3    H111880   1.787   0.728   1.620
 3958TIP3    H211881   1.891   0.702   1.513
 3959TIP3   OH211882   2.728   1.426   2.983
 3959TIP3    H111883   2.655   1.437   2.922
 3959TIP3    H211884   2.728   1.333   3.004
 3960TIP3   OH211885   1.528   0.234   0.703
 3960TIP3    H111886   1.600   0.263   0.759
 3960TIP3    H211887   1.546   0.141   0.687
 3961TIP3   OH211888   3.920   4.231   0.788
 3961TIP3    H111889   4.005   4.216   0.830
 3961TIP3    H211890   3.895   4.320   0.815
 3962TIP3   OH211891   1.045   5.946   4.505
 3962TIP3    H111892   1.006   5.952   4.592
 3962TIP3    H211893   1.136   5.919   4.522
 3963TIP3   OH211894   5.648   2.002   3.425
 3963TIP3    H111895   5.709   2.029   3.357
 3963TIP3    H211896   5.601   1.927   3.387
 3964TIP3   OH211897   5.945   3.990   0.729
 3964TIP3    H111898   6.024   3.975   0.781
 3964TIP3    H211899   5.880   4.019   0.792
 3965TIP3   OH211900   5.088   2.580   2.136
 3965TIP3    H111901   5.005   2.544   2.106
 3965TIP3    H211902   5.089   2.563   2.230
 3966TIP3   OH211903   6.255   1.642   3.961
 3966TIP3    H111904   6.302   1.568   4.001
 3966TIP3    H211905   6.315   1.674   3.893
 3967TIP3   OH211906   3.295   2.730   3.375
 3967TIP3    H111907   3.267   2.821   3.379
 3967TIP3    H211908   3.324   2.718   3.284
 3968TIP3   OH211909   4.888   2.821   0.722
 3968TIP3    H111910   4.955   2.882   0.690
 3968TIP3    H211911   4.902   2.817   0.816
 3969TIP3   OH211912   2.690   0.039   2.499
 3969TIP3    H111913   2.717  -0.014   2.424
 3969TIP3    H211914   2.770   0.048   2.552
 3970TIP3   OH211915   3.099   2.628   3.558
 3970TIP3    H111916   3.160   2.661   3.491
 3970TIP3    H211917   3.153   2.575   3.616
 3971TIP3   OH211918   1.304   3.639   1.782
 3971TIP3    H111919   1.279   3.554   1.745
 3971TIP3    H211920   1.260   3.703   1.726
 3972TIP3   OH211921   0.328   2.816   1.168
 3972TIP3    H111922   0.392   2.863   1.221
 3972TIP3    H211923   0.257   2.878   1.155
 3973TIP3   OH211924   3.996   1.955   2.811
 3973TIP3    H111925   3.955   1.964   2.897
 3973TIP3    H211926   4.086   1.983   2.824
 3974TIP3   OH211927   2.012   5.629   4.462
 3974TIP3    H111928   1.967   5.671   4.389
 3974TIP3    H211929   1.950   5.562   4.493
 3975TIP3   OH211930   1.515   1.352   0.753
 3975TIP3    H111931   1.427   1.377   0.784
 3975TIP3    H211932   1.550   1.432   0.715
 3976TIP3   OH211933   1.204   2.358   1.553
 3976TIP3    H111934   1.189   2.266   1.575
 3976TIP3    H211935   1.266   2.356   1.480
 3977TIP3   OH211936   0.957   2.073   0.590
 3977TIP3    H111937   0.906   2.073   0.671
 3977TIP3    H211938   0.923   2.147   0.540
 3978TIP3   OH211939   4.440   2.029   4.392
 3978TIP3    H111940   4.438   1.933   4.391
 3978TIP3    H211941   4.357   2.054   4.434
 3979TIP3   OH211942   4.070   2.714   1.494
 3979TIP3    H111943   4.086   2.748   1.582
 3979TIP3    H211944   3.975   2.719   1.485
 3980TIP3   OH211945   2.875   3.145   3.817
 3980TIP3    H111946   2.867   3.050   3.829
 3980TIP3    H211947   2.794   3.180   3.854
 3981TIP3   OH211948   5.812   0.955   1.855
 3981TIP3    H111949   5.779   0.953   1.944
 3981TIP3    H211950   5.768   0.881   1.811
 3982TIP3   OH211951   4.800   5.130   1.102
 3982TIP3    H111952   4.827   5.068   1.035
 3982TIP3    H211953   4.770   5.076   1.175
 3983TIP3   OH211954   3.920   4.460   4.144
 3983TIP3    H111955   3.990   4.396   4.127
 3983TIP3    H211956   3.851   4.436   4.082
 3984TIP3   OH211957   4.737   0.899   0.888
 3984TIP3    H111958   4.692   0.977   0.854
 3984TIP3    H211959   4.739   0.912   0.983
 3985TIP3   OH211960   4.493   5.043   3.856
 3985TIP3    H111961   4.535   4.987   3.790
 3985TIP3    H211962   4.565   5.089   3.899
 3986TIP3   OH211963   3.271   0.023   4.116
 3986TIP3    H111964   3.355   0.014   4.071
 3986TIP3    H211965   3.260   0.118   4.126
 3987TIP3   OH211966   0.552   2.164   0.183
 3987TIP3    H111967   0.496   2.091   0.160
 3987TIP3    H211968   0.636   2.145   0.141
 3988TIP3   OH211969   1.922   3.904   1.765
 3988TIP3    H111970   2.010   3.894   1.799
 3988TIP3    H211971   1.904   3.820   1.722
 3989TIP3   OH211972   3.377   1.206   2.090
 3989TIP3    H111973   3.365   1.299   2.074
 3989TIP3    H211974   3.471   1.194   2.095
 3990TIP3   OH211975   0.062   3.559   1.425
 3990TIP3    H111976  -0.011   3.585   1.368
 3990TIP3    H211977   0.110   3.640   1.441
 3991TIP3   OH211978   4.354   1.552   1.508
 3991TIP3    H111979   4.323   1.468   1.476
 3991TIP3    H211980   4.306   1.566   1.590
 3992TIP3   OH211981   3.364   1.241   4.256
 3992TIP3    H111982   3.311   1.308   4.301
 3992TIP3    H211983   3.418   1.291   4.195
 3993TIP3   OH211984   0.641   5.668   2.541
 3993TIP3    H111985   0.605   5.681   2.628
 3993TIP3    H211986   0.712   5.732   2.535
 3994TIP3   OH211987   2.225   0.570   2.819
 3994TIP3    H111988   2.182   0.559   2.734
 3994TIP3    H211989   2.184   0.649   2.856
 3995TIP3   OH211990   0.494   1.007   4.981
 3995TIP3    H111991   0.480   1.043   5.068
 3995TIP3    H211992   0.408   1.008   4.940
 3996TIP3   OH211993   0.418   0.447   1.440
 3996TIP3    H111994   0.412   0.379   1.373
 3996TIP3    H211995   0.342   0.503   1.425
 3997TIP3   OH211996   1.086   4.190   3.336
 3997TIP3    H111997   0.999   4.153   3.349
 3997TIP3    H211998   1.080   4.236   3.253
 3998TIP3   OH211999   2.087   5.218   2.412
 3998TIP3    H112000   1.995   5.208   2.388
 3998TIP3    H212001   2.133   5.157   2.354
 3999TIP3   OH212002   1.464   5.476   3.637
 3999TIP3    H112003   1.390   5.416   3.634
 3999TIP3    H212004   1.535   5.425   3.677
 4000TIP3   OH212005   5.128   3.581   0.665
 4000TIP3    H112006   5.096   3.551   0.580
 4000TIP3    H212007   5.166   3.502   0.705
 4001TIP3   OH212008   1.289   4.287   4.866
 4001TIP3    H112009   1.323   4.198   4.866
 4001TIP3    H212010   1.282   4.311   4.774
 4002TIP3   OH212011   3.223   0.875   2.968
 4002TIP3    H112012   3.165   0.951   2.958
 4002TIP3    H212013   3.164   0.800   2.962
 4003TIP3   OH212014   5.687   3.247   0.125
 4003TIP3    H112015   5.729   3.208   0.048
 4003TIP3    H212016   5.712   3.340   0.121
 4004TIP3   OH212017   3.982   1.908   5.194
 4004TIP3    H112018   4.048   1.944   5.135
 4004TIP3    H212019   3.997   1.953   5.277
 4005TIP3   OH212020   3.061   4.787   1.070
 4005TIP3    H112021   3.094   4.711   1.023
 4005TIP3    H212022   3.001   4.750   1.136
 4006TIP3   OH212023   2.397   2.713   3.492
 4006TIP3    H112024   2.456   2.662   3.547
 4006TIP3    H212025   2.411   2.677   3.404
 4007TIP3   OH212026   0.452   3.127   0.362
 4007TIP3    H112027   0.541   3.122   0.328
 4007TIP3    H212028   0.445   3.216   0.396
 4008TIP3   OH212029   1.552   1.402   3.136
 4008TIP3    H112030   1.604   1.420   3.057
 4008TIP3    H212031   1.610   1.351   3.192
 4009TIP3   OH212032   6.199   5.752   3.588
 4009TIP3    H112033   6.151   5.784   3.512
 4009TIP3    H212034   6.242   5.830   3.624
 4010TIP3   OH212035   2.414   2.669   3.230
 4010TIP3    H112036   2.421   2.752   3.184
 4010TIP3    H212037   2.356   2.616   3.175
 4011TIP3   OH212038   6.254   4.729   3.512
 4011TIP3    H112039   6.170   4.774   3.498
 4011TIP3    H212040   6.298   4.735   3.427
 4012TIP3   OH212041   0.838   0.457   3.009
 4012TIP3    H112042   0.871   0.491   3.093
 4012TIP3    H212043   0.915   0.419   2.967
 4013TIP3   OH212044   5.268   1.759   1.478
 4013TIP3    H112045   5.237   1.715   1.557
 4013TIP3    H212046   5.359   1.783   1.499
 4014TIP3   OH212047   3.873   5.018   2.494
 4014TIP3    H112048   3.887   5.082   2.563
 4014TIP3    H212049   3.870   5.069   2.413
 4015TIP3   OH212050   0.766   5.893   2.656
 4015TIP3    H112051   0.819   5.915   2.580
 4015TIP3    H212052   0.826   5.843   2.712
 4016TIP3   OH212053   3.244   4.383   1.203
 4016TIP3    H112054   3.199   4.399   1.286
 4016TIP3    H212055   3.231   4.464   1.153
 4017TIP3   OH212056   5.670   3.083   5.140
 4017TIP3    H112057   5.633   3.097   5.053
 4017TIP3    H212058   5.602   3.036   5.188
 4018TIP3   OH212059   5.171   0.698   4.937
 4018TIP3    H112060   5.103   0.707   4.870
 4018TIP3    H212061   5.235   0.766   4.915
 4019TIP3   OH212062   4.856   3.210   0.615
 4019TIP3    H112063   4.884   3.298   0.641
 4019TIP3    H212064   4.871   3.207   0.521
 4020TIP3   OH212065   2.329   1.937   0.520
 4020TIP3    H112066   2.346   1.870   0.454
 4020TIP3    H212067   2.248   1.909   0.562
 4021TIP3   OH212068   3.696   1.671   1.377
 4021TIP3    H112069   3.673   1.713   1.460
 4021TIP3    H212070   3.760   1.730   1.338
 4022TIP3   OH212071   0.019   4.771   3.261
 4022TIP3    H112072   0.102   4.819   3.262
 4022TIP3    H212073  -0.044   4.832   3.224
 4023TIP3   OH212074   3.451   1.613   0.527
 4023TIP3    H112075   3.407   1.532   0.550
 4023TIP3    H212076   3.488   1.597   0.440
 4024TIP3   OH212077   4.442   5.569   3.683
 4024TIP3    H112078   4.456   5.637   3.617
 4024TIP3    H212079   4.434   5.617   3.765
 4025TIP3   OH212080   5.749   4.855   1.272
 4025TIP3    H112081   5.699   4.776   1.252
 4025TIP3    H212082   5.695   4.902   1.336
 4026TIP3   OH212083   6.076   5.248   2.866
 4026TIP3    H112084   6.093   5.339   2.841
 4026TIP3    H212085   5.981   5.238   2.857
 4027TIP3   OH212086   0.472   2.979   2.929
 4027TIP3    H112087   0.430   3.014   3.008
 4027TIP3    H212088   0.562   3.010   2.934
 4028TIP3   OH212089   1.869   1.202   0.951
 4028TIP3    H112090   1.962   1.180   0.956
 4028TIP3    H212091   1.846   1.228   1.040
 4029TIP3   OH212092   0.634   0.685   1.567
 4029TIP3    H112093   0.636   0.741   1.489
 4029TIP3    H212094   0.568   0.724   1.623
 4030TIP3   OH212095   5.630   4.240   0.407
 4030TIP3    H112096   5.610   4.293   0.330
 4030TIP3    H212097   5.666   4.302   0.470
 4031TIP3   OH212098   3.896   5.803   3.271
 4031TIP3    H112099   3.967   5.754   3.231
 4031TIP3    H212100   3.819   5.747   3.261
 4032TIP3   OH212101   4.758   0.293   3.523
 4032TIP3    H112102   4.720   0.226   3.579
 4032TIP3    H212103   4.757   0.256   3.435
 4033TIP3   OH212104   0.211   3.740   1.742
 4033TIP3    H112105   0.300   3.706   1.752
 4033TIP3    H212106   0.214   3.829   1.779
 4034TIP3   OH212107   3.938   2.489   1.071
 4034TIP3    H112108   3.871   2.451   1.127
 4034TIP3    H212109   3.980   2.414   1.029
 4035TIP3   OH212110   0.849   3.777   4.906
 4035TIP3    H112111   0.848   3.768   4.810
 4035TIP3    H212112   0.942   3.780   4.929
 4036TIP3   OH212113   3.846   4.900   1.949
 4036TIP3    H112114   3.750   4.896   1.948
 4036TIP3    H212115   3.874   4.811   1.928
 4037TIP3   OH212116   5.912   2.909   0.995
 4037TIP3    H112117   5.926   2.905   0.901
 4037TIP3    H212118   5.970   2.979   1.025
 4038TIP3   OH212119   1.232   4.522   5.024
 4038TIP3    H112120   1.244   4.445   4.969
 4038TIP3    H212121   1.232   4.595   4.962
 4039TIP3   OH212122   0.438   5.650   5.064
 4039TIP3    H112123   0.518   5.626   5.016
 4039TIP3    H212124   0.462   5.730   5.110
 4040TIP3   OH212125   5.580   5.549   3.949
 4040TIP3    H112126   5.599   5.608   3.875
 4040TIP3    H212127   5.577   5.462   3.910
 4041TIP3   OH212128   5.372   0.325   4.039
 4041TIP3    H112129   5.381   0.361   4.127
 4041TIP3    H212130   5.341   0.236   4.053
 4042TIP3   OH212131   6.103   0.900   0.601
 4042TIP3    H112132   6.104   0.805   0.614
 4042TIP3    H212133   6.192   0.920   0.572
 4043TIP3   OH212134   1.875   2.379   4.812
 4043TIP3    H112135   1.845   2.330   4.735
 4043TIP3    H212136   1.921   2.314   4.865
 4044TIP3   OH212137   4.692   5.738   0.496
 4044TIP3    H112138   4.758   5.694   0.551
 4044TIP3    H212139   4.653   5.668   0.445
 4045TIP3   OH212140   6.244   5.016   0.243
 4045TIP3    H112141   6.318   4.956   0.247
 4045TIP3    H212142   6.200   5.006   0.327
 4046TIP3   OH212143   0.044   2.971  -0.015
 4046TIP3    H112144   0.131   3.004   0.010
 4046TIP3    H212145  -0.015   3.007   0.052
 4047TIP3   OH212146   2.402   1.025   0.902
 4047TIP3    H112147   2.445   1.006   0.986
 4047TIP3    H212148   2.409   0.944   0.853
 4048TIP3   OH212149   0.852   5.175   4.235
 4048TIP3    H112150   0.924   5.236   4.253
 4048TIP3    H212151   0.829   5.192   4.143
 4049TIP3   OH212152   2.648   5.525   1.759
 4049TIP3    H112153   2.590   5.601   1.756
 4049TIP3    H212154   2.639   5.484   1.673
 4050TIP3   OH212155   1.866   0.253   1.731
 4050TIP3    H112156   1.909   0.331   1.694
 4050TIP3    H212157   1.798   0.231   1.668
 4051TIP3   OH212158   2.312   3.729   1.853
 4051TIP3    H112159   2.373   3.791   1.813
 4051TIP3    H212160   2.244   3.784   1.893
 4052TIP3   OH212161   1.119   3.443   4.491
 4052TIP3    H112162   1.050   3.387   4.453
 4052TIP3    H212163   1.086   3.532   4.480
 4053TIP3   OH212164   0.636   2.027   1.765
 4053TIP3    H112165   0.632   2.100   1.826
 4053TIP3    H212166   0.606   1.951   1.815
 4054TIP3   OH212167   2.722   5.433   1.504
 4054TIP3    H112168   2.812   5.418   1.530
 4054TIP3    H212169   2.715   5.395   1.416
 4055TIP3   OH212170   5.799   0.432   1.882
 4055TIP3    H112171   5.846   0.367   1.935
 4055TIP3    H212172   5.853   0.510   1.888
 4056TIP3   OH212173   4.173   2.105   4.532
 4056TIP3    H112174   4.094   2.127   4.581
 4056TIP3    H212175   4.238   2.169   4.561
 4057TIP3   OH212176   0.654   3.694   4.056
 4057TIP3    H112177   0.661   3.603   4.027
 4057TIP3    H212178   0.581   3.730   4.005
 4058TIP3   OH212179   1.254   3.522   0.211
 4058TIP3    H112180   1.166   3.493   0.233
 4058TIP3    H212181   1.301   3.522   0.295
 4059TIP3   OH212182   5.965   5.032   2.277
 4059TIP3    H112183   5.926   5.109   2.317
 4059TIP3    H212184   5.905   4.961   2.299
 4060TIP3   OH212185   6.067   2.041   2.570
 4060TIP3    H112186   6.125   2.059   2.644
 4060TIP3    H212187   5.985   2.012   2.609
 4061TIP3   OH212188   5.601   1.550   0.080
 4061TIP3    H112189   5.567   1.574  -0.007
 4061TIP3    H212190   5.564   1.463   0.097
 4062TIP3   OH212191   3.093   1.936   2.046
 4062TIP3    H112192   3.124   1.847   2.026
 4062TIP3    H212193   3.025   1.923   2.112
 4063TIP3   OH212194   0.307   0.103   4.329
 4063TIP3    H112195   0.341   0.039   4.392
 4063TIP3    H212196   0.313   0.187   4.375
 4064TIP3   OH212197   4.860   0.391   1.987
 4064TIP3    H112198   4.806   0.469   1.988
 4064TIP3    H212199   4.863   0.366   1.894
 4065TIP3   OH212200   4.352   4.621   3.151
 4065TIP3    H112201   4.276   4.664   3.192
 4065TIP3    H212202   4.373   4.548   3.209
 4066TIP3   OH212203   4.899   1.429   0.411
 4066TIP3    H112204   4.931   1.455   0.325
 4066TIP3    H212205   4.806   1.412   0.397
 4067TIP3   OH212206   2.313   4.681   3.702
 4067TIP3    H112207   2.293   4.638   3.619
 4067TIP3    H212208   2.269   4.766   3.697
 4068TIP3   OH212209   5.083   4.822   0.615
 4068TIP3    H112210   5.072   4.916   0.632
 4068TIP3    H212211   5.092   4.816   0.520
 4069TIP3   OH212212   3.235   1.017   1.258
 4069TIP3    H112213   3.154   1.006   1.209
 4069TIP3    H212214   3.208   1.025   1.349
 4070TIP3   OH212215   3.500   2.602   4.308
 4070TIP3    H112216   3.503   2.510   4.337
 4070TIP3    H212217   3.427   2.605   4.246
 4071TIP3   OH212218   5.612   4.906   4.827
 4071TIP3    H112219   5.694   4.940   4.792
 4071TIP3    H212220   5.553   4.903   4.752
 4072TIP3   OH212221   1.898   3.943   1.130
 4072TIP3    H112222   1.979   3.936   1.181
 4072TIP3    H212223   1.855   4.022   1.163
 4073TIP3   OH212224   5.876   1.106   0.215
 4073TIP3    H112225   5.972   1.107   0.221
 4073TIP3    H212226   5.858   1.060   0.133
 4074TIP3   OH212227   6.102   3.242   0.189
 4074TIP3    H112228   6.086   3.275   0.277
 4074TIP3    H212229   6.163   3.170   0.201
 4075TIP3   OH212230   2.898   0.665   0.853
 4075TIP3    H112231   2.993   0.678   0.860
 4075TIP3    H212232   2.883   0.645   0.761
 4076TIP3   OH212233   4.861   1.968   3.395
 4076TIP3    H112234   4.769   1.968   3.370
 4076TIP3    H212235   4.885   1.875   3.398
 4077TIP3   OH212236   0.387   4.435   3.381
 4077TIP3    H112237   0.294   4.420   3.363
 4077TIP3    H212238   0.389   4.468   3.470
 4078TIP3   OH212239   5.583   0.947   0.192
 4078TIP3    H112240   5.553   0.960   0.102
 4078TIP3    H212241   5.518   0.887   0.230
 4079TIP3   OH212242   4.084   1.283   4.152
 4079TIP3    H112243   4.096   1.241   4.237
 4079TIP3    H212244   4.160   1.339   4.141
 4080TIP3   OH212245   2.044   0.268   2.333
 4080TIP3    H112246   1.990   0.224   2.268
 4080TIP3    H212247   1.983   0.298   2.400
 4081TIP3   OH212248   0.653   4.561   2.292
 4081TIP3    H112249   0.608   4.613   2.359
 4081TIP3    H212250   0.745   4.565   2.318
 4082TIP3   OH212251   4.831   4.056   3.711
 4082TIP3    H112252   4.878   4.099   3.782
 4082TIP3    H212253   4.797   3.975   3.750
 4083TIP3   OH212254   0.479   5.583   3.876
 4083TIP3    H112255   0.453   5.608   3.965
 4083TIP3    H212256   0.469   5.663   3.824
 4084TIP3   OH212257   5.482   3.786   0.365
 4084TIP3    H112258   5.413   3.774   0.431
 4084TIP3    H212259   5.458   3.868   0.321
 4085TIP3   OH212260   1.096   3.980   0.492
 4085TIP3    H112261   1.122   3.890   0.511
 4085TIP3    H212262   1.033   3.973   0.421
 4086TIP3   OH212263   1.699   4.470   3.616
 4086TIP3    H112264   1.669   4.402   3.556
 4086TIP3    H212265   1.680   4.435   3.703
 4087TIP3   OH212266   4.986   2.133   4.143
 4087TIP3    H112267   4.900   2.158   4.110
 4087TIP3    H212268   5.048   2.170   4.080
 4088TIP3   OH212269   3.751   3.697   4.633
 4088TIP3    H112270   3.819   3.719   4.570
 4088TIP3    H212271   3.701   3.779   4.644
 4089TIP3   OH212272   0.031   0.570   2.499
 4089TIP3    H112273  -0.029   0.498   2.514
 4089TIP3    H212274  -0.014   0.627   2.437
 4090TIP3   OH212275   3.672   0.599   2.996
 4090TIP3    H112276   3.696   0.542   2.923
 4090TIP3    H212277   3.605   0.657   2.961
 4091TIP3   OH212278   0.433   4.993   0.394
 4091TIP3    H112279   0.487   4.914   0.397
 4091TIP3    H212280   0.461   5.044   0.469
 4092TIP3   OH212281   0.375   4.196   0.993
 4092TIP3    H112282   0.449   4.214   1.050
 4092TIP3    H212283   0.413   4.190   0.905
 4093TIP3   OH212284   2.624   4.672   0.626
 4093TIP3    H112285   2.615   4.755   0.672
 4093TIP3    H212286   2.716   4.648   0.638
 4094TIP3   OH212287   2.776   0.368   1.575
 4094TIP3    H112288   2.787   0.389   1.482
 4094TIP3    H212289   2.718   0.291   1.575
 4095TIP3   OH212290   4.474   0.421   3.218
 4095TIP3    H112291   4.385   0.454   3.229
 4095TIP3    H212292   4.530   0.493   3.247
 4096TIP3   OH212293   5.445   3.368   0.412
 4096TIP3    H112294   5.535   3.349   0.436
 4096TIP3    H212295   5.444   3.363   0.316
 4097TIP3   OH212296   5.971   2.577   0.634
 4097TIP3    H112297   6.052   2.535   0.604
 4097TIP3    H212298   5.957   2.541   0.722
 4098TIP3   OH212299   4.750   4.573   4.695
 4098TIP3    H112300   4.746   4.559   4.790
 4098TIP3    H212301   4.723   4.490   4.658
 4099TIP3   OH212302   1.343   1.006   4.629
 4099TIP3    H112303   1.295   1.016   4.547
 4099TIP3    H212304   1.276   0.980   4.693
 4100TIP3   OH212305   4.631   4.921   2.650
 4100TIP3    H112306   4.621   4.909   2.745
 4100TIP3    H212307   4.723   4.947   2.639
 4101TIP3   OH212308   4.860   4.445   2.371
 4101TIP3    H112309   4.879   4.539   2.380
 4101TIP3    H212310   4.765   4.439   2.379
 4102TIP3   OH212311   4.535   0.216   0.183
 4102TIP3    H112312   4.563   0.198   0.273
 4102TIP3    H212313   4.528   0.311   0.179
 4103TIP3   OH212314   3.355   5.593   4.379
 4103TIP3    H112315   3.399   5.552   4.305
 4103TIP3    H212316   3.360   5.687   4.362
 4104TIP3   OH212317   2.883   4.024   1.665
 4104TIP3    H112318   2.848   4.101   1.620
 4104TIP3    H212319   2.903   3.962   1.595
 4105TIP3   OH212320   3.156   3.303   0.252
 4105TIP3    H112321   3.129   3.393   0.237
 4105TIP3    H212322   3.233   3.292   0.196
 4106TIP3   OH212323   1.490   5.182   1.925
 4106TIP3    H112324   1.464   5.272   1.945
 4106TIP3    H212325   1.466   5.169   1.834
 4107TIP3   OH212326   1.455   4.827   0.469
 4107TIP3    H112327   1.540   4.794   0.498
 4107TIP3    H212328   1.429   4.889   0.538
 4108TIP3   OH212329   0.160   0.698   2.185
 4108TIP3    H112330   0.103   0.746   2.126
 4108TIP3    H212331   0.220   0.764   2.219
 4109TIP3   OH212332   2.720   2.342   2.388
 4109TIP3    H112333   2.722   2.409   2.321
 4109TIP3    H212334   2.710   2.390   2.471
 4110TIP3   OH212335   0.257   4.236   1.763
 4110TIP3    H112336   0.256   4.331   1.750
 4110TIP3    H212337   0.268   4.200   1.675
 4111TIP3   OH212338   3.390   2.722   2.622
 4111TIP3    H112339   3.324   2.774   2.576
 4111TIP3    H212340   3.439   2.678   2.552
 4112TIP3   OH212341   0.796   4.942   4.821
 4112TIP3    H112342   0.768   4.871   4.763
 4112TIP3    H212343   0.718   4.996   4.831
 4113TIP3   OH212344   3.307   1.369   5.109
 4113TIP3    H112345   3.271   1.442   5.058
 4113TIP3    H212346   3.250   1.361   5.185
 4114TIP3   OH212347   5.720   0.409   3.207
 4114TIP3    H112348   5.638   0.449   3.178
 4114TIP3    H212349   5.788   0.465   3.171
 4115TIP3   OH212350   5.272   0.307   1.654
 4115TIP3    H112351   5.292   0.314   1.747
 4115TIP3    H212352   5.341   0.357   1.610
 4116TIP3   OH212353   1.516   5.403   3.198
 4116TIP3    H112354   1.442   5.457   3.225
 4116TIP3    H212355   1.543   5.440   3.114
 4117TIP3   OH212356   3.950   0.256   1.869
 4117TIP3    H112357   3.902   0.241   1.787
 4117TIP3    H212358   3.903   0.205   1.935
 4118TIP3   OH212359   6.280   4.271   2.674
 4118TIP3    H112360   6.330   4.212   2.730
 4118TIP3    H212361   6.194   4.230   2.667
 4119TIP3   OH212362   0.366   4.559   2.784
 4119TIP3    H112363   0.367   4.464   2.790
 4119TIP3    H212364   0.274   4.583   2.795
 4120TIP3   OH212365   1.494   3.924   2.448
 4120TIP3    H112366   1.530   3.986   2.512
 4120TIP3    H212367   1.399   3.934   2.457
 4121TIP3   OH212368   2.794   3.710   3.105
 4121TIP3    H112369   2.764   3.630   3.060
 4121TIP3    H212370   2.798   3.776   3.036
 4122TIP3   OH212371   3.352   3.960   3.500
 4122TIP3    H112372   3.385   3.916   3.421
 4122TIP3    H212373   3.327   4.047   3.470
 4123TIP3   OH212374   5.858   1.324   3.637
 4123TIP3    H112375   5.797   1.280   3.697
 4123TIP3    H212376   5.925   1.360   3.695
 4124TIP3   OH212377   6.165   3.774   2.735
 4124TIP3    H112378   6.229   3.711   2.767
 4124TIP3    H212379   6.160   3.758   2.641
 4125TIP3   OH212380   3.149   0.722   0.769
 4125TIP3    H112381   3.156   0.699   0.676
 4125TIP3    H212382   3.239   0.724   0.800
 4126TIP3   OH212383   4.344   0.159   0.767
 4126TIP3    H112384   4.275   0.175   0.831
 4126TIP3    H212385   4.422   0.199   0.805
 4127TIP3   OH212386   0.046   5.586   0.102
 4127TIP3    H112387   0.046   5.676   0.134
 4127TIP3    H212388   0.073   5.534   0.178
 4128TIP3   OH212389   3.948   2.856   2.999
 4128TIP3    H112390   3.874   2.853   2.938
 4128TIP3    H212391   4.025   2.845   2.944
 4129TIP3   OH212392   2.891   4.614   0.731
 4129TIP3    H112393   2.931   4.700   0.719
 4129TIP3    H212394   2.947   4.554   0.681
 4130TIP3   OH212395   4.837   3.393   2.134
 4130TIP3    H112396   4.912   3.342   2.163
 4130TIP3    H212397   4.854   3.482   2.164
 4131TIP3   OH212398   3.116   0.660   2.068
 4131TIP3    H112399   3.070   0.576   2.071
 4131TIP3    H212400   3.096   0.695   1.981
 4132TIP3   OH212401   3.517   2.735   0.993
 4132TIP3    H112402   3.507   2.716   1.086
 4132TIP3    H212403   3.479   2.823   0.982
 4133TIP3   OH212404   4.469   4.494   2.094
 4133TIP3    H112405   4.507   4.427   2.037
 4133TIP3    H212406   4.385   4.514   2.054
 4134TIP3   OH212407   2.935   4.531   2.615
 4134TIP3    H112408   2.859   4.580   2.584
 4134TIP3    H212409   3.006   4.596   2.618
 4135TIP3   OH212410   4.577   5.946   4.558
 4135TIP3    H112411   4.629   5.967   4.635
 4135TIP3    H212412   4.576   5.850   4.555
 4136TIP3   OH212413   0.148   1.685   2.610
 4136TIP3    H112414   0.222   1.662   2.667
 4136TIP3    H212415   0.123   1.602   2.570
 4137TIP3   OH212416   2.886   1.220   4.859
 4137TIP3    H112417   2.865   1.286   4.925
 4137TIP3    H212418   2.815   1.156   4.866
 4138TIP3   OH212419   2.631   3.541   1.907
 4138TIP3    H112420   2.717   3.581   1.896
 4138TIP3    H212421   2.612   3.501   1.822
 4139TIP3   OH212422   4.617   1.003   2.834
 4139TIP3    H112423   4.603   0.924   2.783
 4139TIP3    H212424   4.528   1.030   2.859
 4140TIP3   OH212425   3.754   0.166   0.094
 4140TIP3    H112426   3.670   0.138   0.057
 4140TIP3    H212427   3.819   0.111   0.049
 4141TIP3   OH212428   2.949   5.045   3.331
 4141TIP3    H112429   2.918   4.955   3.317
 4141TIP3    H212430   3.039   5.034   3.364
 4142TIP3   OH212431   4.794   3.004   3.868
 4142TIP3    H112432   4.827   2.969   3.950
 4142TIP3    H212433   4.764   2.927   3.819
 4143TIP3   OH212434   4.890   2.688   4.294
 4143TIP3    H112435   4.798   2.665   4.282
 4143TIP3    H212436   4.939   2.620   4.249
 4144TIP3   OH212437   2.432   3.817   1.151
 4144TIP3    H112438   2.519   3.801   1.114
 4144TIP3    H212439   2.448   3.836   1.243
 4145TIP3   OH212440   1.053   4.793   4.564
 4145TIP3    H112441   1.014   4.870   4.524
 4145TIP3    H212442   0.986   4.725   4.557
 4146TIP3   OH212443   3.236   5.389   4.047
 4146TIP3    H112444   3.154   5.379   4.096
 4146TIP3    H212445   3.249   5.304   4.005
 4147TIP3   OH212446   1.161   3.830   4.800
 4147TIP3    H112447   1.189   3.810   4.711
 4147TIP3    H212448   1.213   3.907   4.825
 4148TIP3   OH212449   3.057   5.318   4.246
 4148TIP3    H112450   3.098   5.240   4.210
 4148TIP3    H212451   3.127   5.365   4.290
 4149TIP3   OH212452   5.162   1.186   3.875
 4149TIP3    H112453   5.205   1.162   3.957
 4149TIP3    H212454   5.224   1.243   3.830
 4150TIP3   OH212455   4.837   1.100   2.365
 4150TIP3    H112456   4.752   1.061   2.345
 4150TIP3    H212457   4.834   1.117   2.460
 4151TIP3   OH212458   3.266   0.272   0.714
 4151TIP3    H112459   3.317   0.231   0.783
 4151TIP3    H212460   3.175   0.264   0.743
 4152TIP3   OH212461   4.336   2.736   2.694
 4152TIP3    H112462   4.421   2.716   2.654
 4152TIP3    H212463   4.352   2.730   2.788
 4153TIP3   OH212464   1.064   4.972   1.423
 4153TIP3    H112465   1.066   4.932   1.336
 4153TIP3    H212466   1.135   5.036   1.421
 4154TIP3   OH212467   1.947   1.287   3.088
 4154TIP3    H112468   1.942   1.207   3.034
 4154TIP3    H212469   2.024   1.273   3.143
 4155TIP3   OH212470   1.003   5.761   4.283
 4155TIP3    H112471   0.934   5.821   4.255
 4155TIP3    H212472   1.060   5.814   4.338
 4156TIP3   OH212473   0.611   1.966   3.334
 4156TIP3    H112474   0.672   1.969   3.408
 4156TIP3    H212475   0.623   1.878   3.296
 4157TIP3   OH212476   1.900   2.176   2.588
 4157TIP3    H112477   1.923   2.142   2.502
 4157TIP3    H212478   1.898   2.271   2.577
 4158TIP3   OH212479   3.297   1.385   0.499
 4158TIP3    H112480   3.344   1.309   0.532
 4158TIP3    H212481   3.257   1.355   0.417
 4159TIP3   OH212482   2.715   5.037   1.257
 4159TIP3    H112483   2.646   4.993   1.306
 4159TIP3    H212484   2.708   5.002   1.168
 4160TIP3   OH212485   1.078   3.061   1.254
 4160TIP3    H112486   1.048   3.062   1.164
 4160TIP3    H212487   1.094   3.153   1.275
 4161TIP3   OH212488   2.004   3.495   3.609
 4161TIP3    H112489   1.966   3.574   3.570
 4161TIP3    H212490   2.042   3.525   3.692
 4162TIP3   OH212491   2.807   5.319   4.749
 4162TIP3    H112492   2.892   5.362   4.741
 4162TIP3    H212493   2.763   5.365   4.821
 4163TIP3   OH212494   1.293   3.275   0.079
 4163TIP3    H112495   1.247   3.358   0.090
 4163TIP3    H212496   1.384   3.300   0.062
 4164TIP3   OH212497   2.249   2.442   0.207
 4164TIP3    H112498   2.215   2.516   0.156
 4164TIP3    H212499   2.263   2.477   0.295
 4165TIP3   OH212500   3.650   4.585  -0.027
 4165TIP3    H112501   3.555   4.591  -0.033
 4165TIP3    H212502   3.669   4.609   0.064
 4166TIP3   OH212503   4.900   3.140   4.764
 4166TIP3    H112504   4.958   3.161   4.691
 4166TIP3    H212505   4.814   3.172   4.736
 4167TIP3   OH212506   1.400   1.990   4.252
 4167TIP3    H112507   1.394   2.080   4.221
 4167TIP3    H212508   1.393   1.937   4.173
 4168TIP3   OH212509   1.884   3.762   2.845
 4168TIP3    H112510   1.860   3.853   2.829
 4168TIP3    H212511   1.801   3.716   2.851
 4169TIP3   OH212512   5.244   3.046   4.795
 4169TIP3    H112513   5.184   3.086   4.731
 4169TIP3    H212514   5.186   3.010   4.861
 4170TIP3   OH212515   2.451   5.566   0.277
 4170TIP3    H112516   2.370   5.614   0.297
 4170TIP3    H212517   2.444   5.485   0.328
 4171TIP3   OH212518   1.735   1.779   3.765
 4171TIP3    H112519   1.776   1.864   3.748
 4171TIP3    H212520   1.653   1.800   3.810
 4172TIP3   OH212521   5.601   1.523   3.218
 4172TIP3    H112522   5.575   1.450   3.162
 4172TIP3    H212523   5.631   1.483   3.299
 4173TIP3   OH212524   3.806   2.743   1.626
 4173TIP3    H112525   3.729   2.707   1.581
 4173TIP3    H212526   3.810   2.695   1.708
 4174TIP3   OH212527   3.172   2.892   2.518
 4174TIP3    H112528   3.106   2.888   2.587
 4174TIP3    H212529   3.124   2.874   2.437
 4175TIP3   OH212530   1.614   1.697   4.521
 4175TIP3    H112531   1.562   1.642   4.463
 4175TIP3    H212532   1.559   1.773   4.538
 4176TIP3   OH212533   0.450   0.344   4.861
 4176TIP3    H112534   0.519   0.335   4.926
 4176TIP3    H212535   0.378   0.386   4.907
 4177TIP3   OH212536   4.754   1.931   0.755
 4177TIP3    H112537   4.837   1.922   0.707
 4177TIP3    H212538   4.774   1.903   0.844
 4178TIP3   OH212539   1.241   0.556   0.272
 4178TIP3    H112540   1.267   0.566   0.180
 4178TIP3    H212541   1.145   0.562   0.271
 4179TIP3   OH212542   5.327   0.133   1.025
 4179TIP3    H112543   5.370   0.076   0.961
 4179TIP3    H212544   5.233   0.122   1.008
 4180TIP3   OH212545   6.295   5.862   4.328
 4180TIP3    H112546   6.326   5.867   4.418
 4180TIP3    H212547   6.262   5.950   4.309
 4181TIP3   OH212548   2.698   5.763   1.450
 4181TIP3    H112549   2.775   5.791   1.401
 4181TIP3    H212550   2.728   5.690   1.503
 4182TIP3   OH212551   0.482   3.786   3.513
 4182TIP3    H112552   0.465   3.811   3.423
 4182TIP3    H212553   0.439   3.701   3.524
 4183TIP3   OH212554   4.013   2.513   1.778
 4183TIP3    H112555   4.027   2.480   1.689
 4183TIP3    H212556   4.091   2.485   1.826
 4184TIP3   OH212557   2.369   3.525   1.254
 4184TIP3    H112558   2.377   3.615   1.284
 4184TIP3    H212559   2.299   3.488   1.307
 4185TIP3   OH212560   0.688   4.736   1.270
 4185TIP3    H112561   0.613   4.795   1.265
 4185TIP3    H212562   0.680   4.680   1.193
 4186TIP3   OH212563   1.507   3.824   0.421
 4186TIP3    H112564   1.527   3.853   0.510
 4186TIP3    H212565   1.518   3.902   0.367
 4187TIP3   OH212566   0.732   2.768   2.511
 4187TIP3    H112567   0.706   2.676   2.504
 4187TIP3    H212568   0.700   2.808   2.430
 4188TIP3   OH212569   3.877   0.598   1.601
 4188TIP3    H112570   3.911   0.677   1.558
 4188TIP3    H212571   3.936   0.528   1.573
 4189TIP3   OH212572   3.666   1.107   4.852
 4189TIP3    H112573   3.755   1.131   4.827
 4189TIP3    H212574   3.660   1.130   4.945
 4190TIP3   OH212575   1.185   0.990   1.366
 4190TIP3    H112576   1.184   0.934   1.443
 4190TIP3    H212577   1.231   0.938   1.299
 4191TIP3   OH212578   5.011   0.544   3.170
 4191TIP3    H112579   5.025   0.553   3.264
 4191TIP3    H212580   4.960   0.622   3.146
 4192TIP3   OH212581   4.115   4.143   4.316
 4192TIP3    H112582   4.206   4.131   4.345
 4192TIP3    H212583   4.076   4.201   4.382
 4193TIP3   OH212584   5.482   3.179   1.329
 4193TIP3    H112585   5.420   3.106   1.321
 4193TIP3    H212586   5.452   3.243   1.265
 4194TIP3   OH212587   6.011   3.722   1.484
 4194TIP3    H112588   5.919   3.748   1.486
 4194TIP3    H212589   6.023   3.671   1.565
 4195TIP3   OH212590   2.167   2.464   4.527
 4195TIP3    H112591   2.096   2.455   4.464
 4195TIP3    H212592   2.122   2.486   4.609
 4196TIP3   OH212593   4.088   1.829   4.576
 4196TIP3    H112594   4.114   1.914   4.540
 4196TIP3    H212595   4.144   1.817   4.652
 4197TIP3   OH212596   5.176   2.804   3.964
 4197TIP3    H112597   5.181   2.746   4.040
 4197TIP3    H212598   5.244   2.772   3.905
 4198TIP3   OH212599   2.263   5.414   4.178
 4198TIP3    H112600   2.283   5.370   4.260
 4198TIP3    H212601   2.232   5.343   4.120
 4199TIP3   OH212602   3.414   5.500   4.675
 4199TIP3    H112603   3.491   5.453   4.643
 4199TIP3    H212604   3.398   5.568   4.609
 4200TIP3   OH212605   1.909   4.124   4.778
 4200TIP3    H112606   1.878   4.155   4.863
 4200TIP3    H212607   1.994   4.085   4.796
 4201TIP3   OH212608   3.332   4.373   3.092
 4201TIP3    H112609   3.301   4.457   3.061
 4201TIP3    H212610   3.262   4.341   3.150
 4202TIP3   OH212611   2.216   5.487   3.798
 4202TIP3    H112612   2.220   5.415   3.861
 4202TIP3    H212613   2.231   5.445   3.713
 4203TIP3   OH212614   4.616   2.796   4.742
 4203TIP3    H112615   4.706   2.772   4.722
 4203TIP3    H212616   4.580   2.719   4.787
 4204TIP3   OH212617   4.301   1.021   2.439
 4204TIP3    H112618   4.249   1.101   2.450
 4204TIP3    H212619   4.238   0.950   2.456
 4205TIP3   OH212620   3.772   1.722   5.170
 4205TIP3    H112621   3.849   1.779   5.177
 4205TIP3    H212622   3.803   1.646   5.121
 4206TIP3   OH212623   4.899   0.231   5.188
 4206TIP3    H112624   4.986   0.267   5.171
 4206TIP3    H212625   4.913   0.137   5.195
 4207TIP3   OH212626   6.119   0.875   0.274
 4207TIP3    H112627   6.056   0.911   0.336
 4207TIP3    H212628   6.158   0.801   0.321
 4208TIP3   OH212629   4.228   0.351   0.582
 4208TIP3    H112630   4.285   0.297   0.637
 4208TIP3    H212631   4.147   0.359   0.633
 4209TIP3   OH212632   0.201   5.554   3.088
 4209TIP3    H112633   0.144   5.553   3.010
 4209TIP3    H212634   0.186   5.640   3.127
 4210TIP3   OH212635   3.257   4.865   4.066
 4210TIP3    H112636   3.323   4.839   4.131
 4210TIP3    H212637   3.274   4.808   3.991
 4211TIP3   OH212638   0.254   5.516   3.498
 4211TIP3    H112639   0.207   5.597   3.480
 4211TIP3    H212640   0.229   5.457   3.427
 4212TIP3   OH212641   3.239   1.696   4.139
 4212TIP3    H112642   3.167   1.707   4.077
 4212TIP3    H212643   3.285   1.618   4.108
 4213TIP3   OH212644   0.627   0.417   4.488
 4213TIP3    H112645   0.708   0.384   4.527
 4213TIP3    H212646   0.610   0.357   4.415
 4214TIP3   OH212647   6.283   3.458   0.097
 4214TIP3    H112648   6.250   3.369   0.108
 4214TIP3    H212649   6.292   3.491   0.187
 4215TIP3   OH212650   0.844   3.944   2.963
 4215TIP3    H112651   0.909   3.978   2.901
 4215TIP3    H212652   0.823   4.018   3.019
 4216TIP3   OH212653   4.996   4.414   1.928
 4216TIP3    H112654   5.071   4.407   1.987
 4216TIP3    H212655   4.925   4.446   1.984
 4217TIP3   OH212656   4.747   1.475   1.965
 4217TIP3    H112657   4.780   1.547   1.912
 4217TIP3    H212658   4.749   1.399   1.907
 4218TIP3   OH212659   1.357   1.512   1.495
 4218TIP3    H112660   1.329   1.565   1.421
 4218TIP3    H212661   1.452   1.506   1.485
 4219TIP3   OH212662   1.931   2.559   5.126
 4219TIP3    H112663   1.854   2.504   5.112
 4219TIP3    H212664   2.005   2.503   5.103
 4220TIP3   OH212665   1.349  -0.041   3.417
 4220TIP3    H112666   1.287  -0.023   3.346
 4220TIP3    H212667   1.411   0.032   3.413
 4221TIP3   OH212668   2.294   2.706   1.442
 4221TIP3    H112669   2.301   2.740   1.353
 4221TIP3    H212670   2.206   2.669   1.447
 4222TIP3   OH212671   1.146   1.177   3.043
 4222TIP3    H112672   1.209   1.143   3.106
 4222TIP3    H212673   1.092   1.237   3.093
 4223TIP3   OH212674   1.696   3.087   1.774
 4223TIP3    H112675   1.772   3.140   1.801
 4223TIP3    H212676   1.658   3.057   1.857
 4224TIP3   OH212677   4.937   5.904   0.213
 4224TIP3    H112678   4.977   5.955   0.283
 4224TIP3    H212679   4.940   5.962   0.137
 4225TIP3   OH212680   0.314   4.786   2.263
 4225TIP3    H112681   0.273   4.862   2.304
 4225TIP3    H212682   0.276   4.711   2.307
 4226TIP3   OH212683   5.984   2.349   1.819
 4226TIP3    H112684   5.921   2.278   1.826
 4226TIP3    H212685   6.056   2.312   1.768
 4227TIP3   OH212686   3.093   1.952   3.450
 4227TIP3    H112687   3.184   1.964   3.480
 4227TIP3    H212688   3.065   1.872   3.493
 4228TIP3   OH212689   0.912   4.470   1.593
 4228TIP3    H112690   0.821   4.447   1.576
 4228TIP3    H212691   0.918   4.561   1.564
 4229TIP3   OH212692   0.905   1.338   3.941
 4229TIP3    H112693   0.835   1.281   3.909
 4229TIP3    H212694   0.913   1.406   3.875
 4230TIP3   OH212695   1.866   1.502   2.703
 4230TIP3    H112696   1.817   1.447   2.642
 4230TIP3    H212697   1.955   1.468   2.701
 4231TIP3   OH212698   5.835   4.711   4.385
 4231TIP3    H112699   5.930   4.723   4.393
 4231TIP3    H212700   5.825   4.647   4.315
 4232TIP3   OH212701   5.005   4.945   4.479
 4232TIP3    H112702   5.095   4.962   4.450
 4232TIP3    H212703   4.956   5.023   4.454
 4233TIP3   OH212704   5.364   2.777   0.157
 4233TIP3    H112705   5.409   2.797   0.239
 4233TIP3    H212706   5.333   2.687   0.167
 4234TIP3   OH212707   6.258   1.895   1.380
 4234TIP3    H112708   6.255   1.812   1.332
 4234TIP3    H212709   6.298   1.872   1.464
 4235TIP3   OH212710   0.186   1.268   4.628
 4235TIP3    H112711   0.238   1.343   4.600
 4235TIP3    H212712   0.104   1.306   4.658
 4236TIP3   OH212713   2.186   1.655   5.117
 4236TIP3    H112714   2.149   1.582   5.167
 4236TIP3    H212715   2.271   1.623   5.088
 4237TIP3   OH212716   4.613   2.189   3.455
 4237TIP3    H112717   4.661   2.173   3.536
 4237TIP3    H212718   4.626   2.109   3.403
 4238TIP3   OH212719   3.153   2.758   1.863
 4238TIP3    H112720   3.085   2.714   1.812
 4238TIP3    H212721   3.202   2.810   1.799
 4239TIP3   OH212722   5.098   2.041   3.063
 4239TIP3    H112723   5.065   1.974   3.003
 4239TIP3    H212724   5.112   1.993   3.145
 4240TIP3   OH212725   0.495   5.415   3.645
 4240TIP3    H112726   0.419   5.442   3.594
 4240TIP3    H212727   0.489   5.467   3.726
 4241TIP3   OH212728   1.759   1.790   1.996
 4241TIP3    H112729   1.676   1.832   2.018
 4241TIP3    H212730   1.776   1.816   1.906
 4242TIP3   OH212731   1.467   4.854   5.016
 4242TIP3    H112732   1.513   4.888   4.939
 4242TIP3    H212733   1.523   4.784   5.048
 4243TIP3   OH212734   6.073   0.947   1.321
 4243TIP3    H112735   6.062   0.857   1.290
 4243TIP3    H212736   5.997   0.963   1.376
 4244TIP3   OH212737   1.644   0.433   2.951
 4244TIP3    H112738   1.553   0.450   2.926
 4244TIP3    H212739   1.696   0.463   2.877
 4245TIP3   OH212740   3.136   0.771   3.266
 4245TIP3    H112741   3.107   0.831   3.334
 4245TIP3    H212742   3.214   0.813   3.229
 4246TIP3   OH212743   2.156   4.073   5.162
 4246TIP3    H112744   2.078   4.113   5.201
 4246TIP3    H212745   2.178   4.001   5.222
 4247TIP3   OH212746   3.725   0.837   3.908
 4247TIP3    H112747   3.647   0.885   3.934
 4247TIP3    H212748   3.797   0.879   3.956
 4248TIP3   OH212749   1.360   0.323   0.529
 4248TIP3    H112750   1.417   0.292   0.599
 4248TIP3    H212751   1.324   0.405   0.562
 4249TIP3   OH212752   0.812   0.129   3.420
 4249TIP3    H112753   0.764   0.114   3.339
 4249TIP3    H212754   0.807   0.045   3.467
 4250TIP3   OH212755   4.655   1.287   5.041
 4250TIP3    H112756   4.610   1.366   5.072
 4250TIP3    H212757   4.654   1.228   5.116
 4251TIP3   OH212758   0.240   5.367   1.067
 4251TIP3    H112759   0.252   5.448   1.116
 4251TIP3    H212760   0.272   5.298   1.125
 4252TIP3   OH212761   1.879   3.118   2.092
 4252TIP3    H112762   1.817   3.072   2.149
 4252TIP3    H212763   1.950   3.055   2.077
 4253TIP3   OH212764   2.243   2.361   2.600
 4253TIP3    H112765   2.315   2.423   2.605
 4253TIP3    H212766   2.174   2.398   2.656
 4254TIP3   OH212767   0.150   5.510   4.487
 4254TIP3    H112768   0.119   5.470   4.405
 4254TIP3    H212769   0.237   5.473   4.499
 4255TIP3   OH212770   6.151   0.014   5.101
 4255TIP3    H112771   6.149  -0.035   5.019
 4255TIP3    H212772   6.229  -0.018   5.147
 4256TIP3   OH212773   2.272   4.707   4.895
 4256TIP3    H112774   2.305   4.664   4.816
 4256TIP3    H212775   2.249   4.795   4.865
 4257TIP3   OH212776   3.731   1.935   3.149
 4257TIP3    H112777   3.718   1.871   3.079
 4257TIP3    H212778   3.648   1.936   3.197
 4258TIP3   OH212779   4.232   4.202   2.551
 4258TIP3    H112780   4.184   4.275   2.589
 4258TIP3    H212781   4.194   4.190   2.464
 4259TIP3   OH212782   3.476   1.762   2.550
 4259TIP3    H112783   3.534   1.834   2.576
 4259TIP3    H212784   3.396   1.805   2.521
 4260TIP3   OH212785   1.259   3.457   3.729
 4260TIP3    H112786   1.164   3.447   3.717
 4260TIP3    H212787   1.275   3.550   3.713
 4261TIP3   OH212788   5.377   4.228   3.674
 4261TIP3    H112789   5.376   4.304   3.733
 4261TIP3    H212790   5.284   4.210   3.658
 4262TIP3   OH212791   0.875   0.835   0.583
 4262TIP3    H112792   0.912   0.920   0.558
 4262TIP3    H212793   0.794   0.857   0.629
 4263TIP3   OH212794   5.575   3.193   2.086
 4263TIP3    H112795   5.515   3.254   2.130
 4263TIP3    H212796   5.657   3.242   2.080
 4264TIP3   OH212797   5.852   5.520   0.514
 4264TIP3    H112798   5.812   5.555   0.434
 4264TIP3    H212799   5.914   5.454   0.482
 4265TIP3   OH212800   0.189   4.291   3.226
 4265TIP3    H112801   0.100   4.268   3.198
 4265TIP3    H212802   0.204   4.377   3.188
 4266TIP3   OH212803   0.729   3.551   2.848
 4266TIP3    H112804   0.739   3.459   2.822
 4266TIP3    H212805   0.773   3.601   2.778
 4267TIP3   OH212806   5.353   4.348   3.394
 4267TIP3    H112807   5.261   4.345   3.418
 4267TIP3    H212808   5.391   4.269   3.433
 4268TIP3   OH212809   5.521   4.398   4.531
 4268TIP3    H112810   5.614   4.416   4.514
 4268TIP3    H212811   5.521   4.341   4.608
 4269TIP3   OH212812   1.491   3.294   3.696
 4269TIP3    H112813   1.413   3.347   3.704
 4269TIP3    H212814   1.471   3.231   3.626
 4270TIP3   OH212815   5.951   1.792   1.462
 4270TIP3    H112816   6.002   1.848   1.520
 4270TIP3    H212817   6.014   1.727   1.430
 4271TIP3   OH212818   2.803   1.547   2.293
 4271TIP3    H112819   2.771   1.636   2.310
 4271TIP3    H212820   2.878   1.559   2.235
 4272TIP3   OH212821   4.072   4.903   0.729
 4272TIP3    H112822   4.031   4.923   0.813
 4272TIP3    H212823   4.014   4.943   0.664
 4273TIP3   OH212824   0.844   3.710   3.847
 4273TIP3    H112825   0.790   3.718   3.926
 4273TIP3    H212826   0.929   3.680   3.878
 4274TIP3   OH212827   1.523   4.542   0.813
 4274TIP3    H112828   1.614   4.571   0.814
 4274TIP3    H212829   1.529   4.447   0.806
 4275TIP3   OH212830   2.140   1.238   3.269
 4275TIP3    H112831   2.134   1.323   3.312
 4275TIP3    H212832   2.231   1.233   3.240
 4276TIP3   OH212833   2.667   5.199   3.822
 4276TIP3    H112834   2.617   5.186   3.903
 4276TIP3    H212835   2.664   5.114   3.779
 4277TIP3   OH212836   4.279   1.505   4.163
 4277TIP3    H112837   4.275   1.533   4.071
 4277TIP3    H212838   4.230   1.572   4.211
 4278TIP3   OH212839   1.801   4.287   3.318
 4278TIP3    H112840   1.715   4.281   3.359
 4278TIP3    H212841   1.800   4.221   3.249
 4279TIP3   OH212842   5.021   2.868   4.885
 4279TIP3    H112843   5.044   2.775   4.888
 4279TIP3    H212844   4.953   2.874   4.818
 4280TIP3   OH212845   4.711   1.203   2.009
 4280TIP3    H112846   4.717   1.107   2.015
 4280TIP3    H212847   4.792   1.228   1.964
 4281TIP3   OH212848   1.341   0.973   3.505
 4281TIP3    H112849   1.261   0.929   3.533
 4281TIP3    H212850   1.407   0.946   3.570
 4282TIP3   OH212851   2.897   2.203   2.187
 4282TIP3    H112852   2.874   2.214   2.279
 4282TIP3    H212853   2.814   2.206   2.141
 4283TIP3   OH212854   4.182   3.250   4.913
 4283TIP3    H112855   4.189   3.178   4.976
 4283TIP3    H212856   4.141   3.210   4.836
 4284TIP3   OH212857   5.344   5.127   2.460
 4284TIP3    H112858   5.336   5.032   2.449
 4284TIP3    H212859   5.431   5.139   2.499
 4285TIP3   OH212860   2.573   3.019   1.430
 4285TIP3    H112861   2.616   2.991   1.510
 4285TIP3    H212862   2.513   3.088   1.458
 4286TIP3   OH212863   4.575   0.059   1.490
 4286TIP3    H112864   4.666   0.055   1.519
 4286TIP3    H212865   4.524   0.069   1.571
 4287TIP3   OH212866   5.579   0.233   1.873
 4287TIP3    H112867   5.491   0.270   1.874
 4287TIP3    H212868   5.608   0.240   1.782
 4288TIP3   OH212869   3.148   2.996   5.093
 4288TIP3    H112870   3.109   2.943   5.024
 4288TIP3    H212871   3.146   2.939   5.171
 4289TIP3   OH212872   4.420   0.210   1.690
 4289TIP3    H112873   4.402   0.148   1.761
 4289TIP3    H212874   4.513   0.229   1.699
 4290TIP3   OH212875   4.178   3.414   1.592
 4290TIP3    H112876   4.227   3.338   1.560
 4290TIP3    H212877   4.106   3.425   1.530
 4291TIP3   OH212878   2.314   1.877   3.315
 4291TIP3    H112879   2.256   1.927   3.374
 4291TIP3    H212880   2.275   1.890   3.228
 4292TIP3   OH212881   5.100   2.182   2.592
 4292TIP3    H112882   5.090   2.089   2.613
 4292TIP3    H212883   5.064   2.191   2.504
 4293TIP3   OH212884   5.851   2.902   2.606
 4293TIP3    H112885   5.756   2.895   2.621
 4293TIP3    H212886   5.875   2.818   2.567
 4294TIP3   OH212887   1.351   3.083   3.162
 4294TIP3    H112888   1.411   3.010   3.147
 4294TIP3    H212889   1.406   3.151   3.200
 4295TIP3   OH212890   0.630   0.820   2.004
 4295TIP3    H112891   0.550   0.786   1.964
 4295TIP3    H212892   0.632   0.913   1.980
 4296TIP3   OH212893   2.111   5.341   3.097
 4296TIP3    H112894   2.090   5.294   3.177
 4296TIP3    H212895   2.189   5.393   3.119
 4297TIP3   OH212896   5.145   3.652   0.178
 4297TIP3    H112897   5.223   3.597   0.184
 4297TIP3    H212898   5.172   3.735   0.217
 4298TIP3   OH212899   3.098   0.636   2.939
 4298TIP3    H112900   3.009   0.649   2.906
 4298TIP3    H212901   3.128   0.557   2.893
 4299TIP3   OH212902   0.902   5.009   4.467
 4299TIP3    H112903   0.875   5.032   4.556
 4299TIP3    H212904   0.820   4.993   4.421
 4300TIP3   OH212905   4.691   4.537   1.682
 4300TIP3    H112906   4.609   4.588   1.683
 4300TIP3    H212907   4.667   4.453   1.719
 4301TIP3   OH212908   4.412   3.215   1.564
 4301TIP3    H112909   4.350   3.143   1.569
 4301TIP3    H212910   4.457   3.214   1.649
 4302TIP3   OH212911   3.252   4.999   0.406
 4302TIP3    H112912   3.232   5.046   0.487
 4302TIP3    H212913   3.188   5.031   0.342
 4303TIP3   OH212914   5.149   0.559   1.327
 4303TIP3    H112915   5.133   0.623   1.257
 4303TIP3    H212916   5.165   0.477   1.280
 4304TIP3   OH212917   5.861   0.778   2.608
 4304TIP3    H112918   5.925   0.778   2.678
 4304TIP3    H212919   5.910   0.752   2.530
 4305TIP3   OH212920   1.963   0.759   4.344
 4305TIP3    H112921   2.046   0.744   4.299
 4305TIP3    H212922   1.896   0.729   4.283
 4306TIP3   OH212923   0.463   5.491   0.741
 4306TIP3    H112924   0.388   5.522   0.792
 4306TIP3    H212925   0.526   5.461   0.807
 4307TIP3   OH212926   5.304   5.994   1.482
 4307TIP3    H112927   5.386   5.964   1.444
 4307TIP3    H212928   5.318   5.988   1.577
 4308TIP3   OH212929   4.461   5.305   2.608
 4308TIP3    H112930   4.465   5.229   2.551
 4308TIP3    H212931   4.543   5.351   2.592
 4309TIP3   OH212932   0.567   2.566   4.176
 4309TIP3    H112933   0.526   2.624   4.112
 4309TIP3    H212934   0.494   2.530   4.226
 4310TIP3   OH212935   2.018   1.062   1.704
 4310TIP3    H112936   2.034   0.993   1.768
 4310TIP3    H212937   2.042   1.143   1.750
 4311TIP3   OH212938   5.556   4.496   0.251
 4311TIP3    H112939   5.602   4.562   0.303
 4311TIP3    H212940   5.492   4.545   0.201
 4312TIP3   OH212941   2.305   2.702   4.521
 4312TIP3    H112942   2.351   2.664   4.446
 4312TIP3    H212943   2.227   2.646   4.531
 4313TIP3   OH212944   3.740   2.912   1.309
 4313TIP3    H112945   3.829   2.921   1.276
 4313TIP3    H212946   3.736   2.822   1.342
 4314TIP3   OH212947   1.579   2.577   0.685
 4314TIP3    H112948   1.640   2.507   0.711
 4314TIP3    H212949   1.536   2.602   0.767
 4315TIP3   OH212950   4.637   4.316   1.378
 4315TIP3    H112951   4.699   4.243   1.389
 4315TIP3    H212952   4.680   4.375   1.317
 4316TIP3   OH212953   1.297   6.015   3.838
 4316TIP3    H112954   1.283   5.926   3.806
 4316TIP3    H212955   1.209   6.052   3.845
 4317TIP3   OH212956   1.479   5.571   2.326
 4317TIP3    H112957   1.387   5.552   2.347
 4317TIP3    H212958   1.490   5.540   2.237
 4318TIP3   OH212959   3.099   5.757   0.865
 4318TIP3    H112960   3.074   5.761   0.773
 4318TIP3    H212961   3.139   5.670   0.875
 4319TIP3   OH212962   1.816   4.148   4.511
 4319TIP3    H112963   1.752   4.207   4.551
 4319TIP3    H212964   1.866   4.114   4.585
 4320TIP3   OH212965   2.429   1.524   4.565
 4320TIP3    H112966   2.342   1.563   4.563
 4320TIP3    H212967   2.462   1.535   4.475
 4321TIP3   OH212968   2.590   0.984   1.122
 4321TIP3    H112969   2.654   0.973   1.051
 4321TIP3    H212970   2.643   0.981   1.202
 4322TIP3   OH212971   0.287   5.109   1.308
 4322TIP3    H112972   0.201   5.116   1.349
 4322TIP3    H212973   0.277   5.038   1.244
 4323TIP3   OH212974   2.811   3.899   0.277
 4323TIP3    H112975   2.805   3.946   0.361
 4323TIP3    H212976   2.727   3.854   0.269
 4324TIP3   OH212977   5.668   1.401   3.453
 4324TIP3    H112978   5.738   1.379   3.514
 4324TIP3    H212979   5.622   1.474   3.495
 4325TIP3   OH212980   0.082   0.264   2.326
 4325TIP3    H112981   0.001   0.311   2.343
 4325TIP3    H212982   0.058   0.171   2.333
 4326TIP3   OH212983   1.263   0.278   1.649
 4326TIP3    H112984   1.315   0.315   1.721
 4326TIP3    H212985   1.174   0.277   1.683
 4327TIP3   OH212986   4.339   1.209   0.252
 4327TIP3    H112987   4.323   1.120   0.282
 4327TIP3    H212988   4.272   1.261   0.296
 4328TIP3   OH212989   4.369   5.949   2.329
 4328TIP3    H112990   4.397   5.974   2.417
 4328TIP3    H212991   4.310   5.875   2.343
 4329TIP3   OH212992   2.227   5.337   1.561
 4329TIP3    H112993   2.148   5.283   1.566
 4329TIP3    H212994   2.292   5.290   1.612
 4330TIP3   OH212995   3.973   0.562   3.092
 4330TIP3    H112996   3.992   0.543   3.000
 4330TIP3    H212997   3.960   0.657   3.095
 4331TIP3   OH212998   0.841   0.660   1.960
 4331TIP3    H112999   0.763   0.713   1.972
 4331TIP3    H213000   0.824   0.609   1.881
 4332TIP3   OH213001   5.639   0.240   1.593
 4332TIP3    H113002   5.587   0.219   1.515
 4332TIP3    H213003   5.724   0.268   1.559
 4333TIP3   OH213004   1.514   4.629   0.283
 4333TIP3    H113005   1.480   4.707   0.327
 4333TIP3    H213006   1.560   4.662   0.206
 4334TIP3   OH213007   2.021   3.473   2.901
 4334TIP3    H113008   1.943   3.420   2.886
 4334TIP3    H213009   1.988   3.559   2.925
 4335TIP3   OH213010   0.944   4.517   1.227
 4335TIP3    H113011   0.978   4.587   1.284
 4335TIP3    H213012   0.887   4.466   1.285
 4336TIP3   OH213013   0.082   2.229   1.352
 4336TIP3    H113014   0.171   2.255   1.376
 4336TIP3    H213015   0.058   2.164   1.417
 4337TIP3   OH213016   5.826   3.996   3.641
 4337TIP3    H113017   5.841   3.944   3.562
 4337TIP3    H213018   5.754   4.055   3.618
 4338TIP3   OH213019   4.863   5.571   3.275
 4338TIP3    H113020   4.909   5.573   3.191
 4338TIP3    H213021   4.826   5.659   3.284
 4339TIP3   OH213022   1.877   5.086   4.660
 4339TIP3    H113023   1.917   5.129   4.736
 4339TIP3    H213024   1.825   5.154   4.618
 4340TIP3   OH213025   1.138   0.412   1.312
 4340TIP3    H113026   1.120   0.342   1.375
 4340TIP3    H213027   1.222   0.448   1.340
 4341TIP3   OH213028   1.917   1.030   3.548
 4341TIP3    H113029   1.958   0.957   3.594
 4341TIP3    H213030   1.972   1.042   3.470
 4342TIP3   OH213031   1.503   4.311   1.406
 4342TIP3    H113032   1.533   4.224   1.434
 4342TIP3    H213033   1.408   4.305   1.407
 4343TIP3   OH213034   0.555   4.321   3.634
 4343TIP3    H113035   0.495   4.248   3.616
 4343TIP3    H213036   0.498   4.395   3.652
 4344TIP3   OH213037   3.250   4.485   4.352
 4344TIP3    H113038   3.254   4.580   4.338
 4344TIP3    H213039   3.197   4.452   4.280
 4345TIP3   OH213040   0.768   2.812   3.200
 4345TIP3    H113041   0.733   2.874   3.137
 4345TIP3    H213042   0.700   2.804   3.267
 4346TIP3   OH213043   2.832   0.620   1.612
 4346TIP3    H113044   2.811   0.530   1.585
 4346TIP3    H213045   2.757   0.672   1.583
 4347TIP3   OH213046   5.920   3.386   1.441
 4347TIP3    H113047   5.984   3.330   1.486
 4347TIP3    H213048   5.884   3.331   1.372
 4348TIP3   OH213049   4.625   5.939   2.743
 4348TIP3    H113050   4.573   5.990   2.805
 4348TIP3    H213051   4.694   5.999   2.714
 4349TIP3   OH213052   4.784   1.052   4.970
 4349TIP3    H113053   4.705   1.011   4.935
 4349TIP3    H213054   4.760   1.144   4.984
 4350TIP3   OH213055   5.320   1.998   1.933
 4350TIP3    H113056   5.346   2.056   1.862
 4350TIP3    H213057   5.399   1.949   1.954
 4351TIP3   OH213058   1.613   3.032   0.409
 4351TIP3    H113059   1.623   3.049   0.316
 4351TIP3    H213060   1.687   3.077   0.450
 4352TIP3   OH213061   0.395   3.444   3.509
 4352TIP3    H113062   0.432   3.424   3.595
 4352TIP3    H213063   0.333   3.374   3.492
 4353TIP3   OH213064   4.574   3.193   3.550
 4353TIP3    H113065   4.524   3.248   3.610
 4353TIP3    H213066   4.661   3.188   3.589
 4354TIP3   OH213067   0.011   0.913   0.529
 4354TIP3    H113068   0.096   0.907   0.572
 4354TIP3    H213069   0.026   0.969   0.453
 4355TIP3   OH213070   4.703   3.095   4.418
 4355TIP3    H113071   4.647   3.040   4.363
 4355TIP3    H213072   4.786   3.048   4.423
 4356TIP3   OH213073   4.380   2.736   0.486
 4356TIP3    H113074   4.463   2.689   0.476
 4356TIP3    H213075   4.328   2.707   0.410
 4357TIP3   OH213076   1.466   4.720   1.033
 4357TIP3    H113077   1.382   4.765   1.026
 4357TIP3    H213078   1.464   4.654   0.964
 4358TIP3   OH213079   5.280   5.859   3.925
 4358TIP3    H113080   5.248   5.929   3.868
 4358TIP3    H213081   5.262   5.779   3.876
 4359TIP3   OH213082   0.633   2.925   4.484
 4359TIP3    H113083   0.692   2.852   4.466
 4359TIP3    H213084   0.568   2.920   4.414
 4360TIP3   OH213085   1.341   4.316   4.570
 4360TIP3    H113086   1.303   4.403   4.558
 4360TIP3    H213087   1.271   4.255   4.546
 4361TIP3   OH213088   2.374   4.962   1.949
 4361TIP3    H113089   2.401   4.939   1.860
 4361TIP3    H213090   2.353   5.055   1.944
 4362TIP3   OH213091   5.817   2.173   4.043
 4362TIP3    H113092   5.753   2.148   4.110
 4362TIP3    H213093   5.774   2.242   3.994
 4363TIP3   OH213094   5.859   3.560   4.788
 4363TIP3    H113095   5.918   3.633   4.767
 4363TIP3    H213096   5.863   3.552   4.883
 4364TIP3   OH213097   0.794   4.884   2.082
 4364TIP3    H113098   0.719   4.919   2.131
 4364TIP3    H213099   0.869   4.930   2.120
 4365TIP3   OH213100   2.855   4.994   0.895
 4365TIP3    H113101   2.806   4.935   0.953
 4365TIP3    H213102   2.885   5.065   0.952
 4366TIP3   OH213103   1.282   0.611   1.020
 4366TIP3    H113104   1.189   0.633   1.020
 4366TIP3    H213105   1.285   0.522   0.983
 4367TIP3   OH213106   3.493   5.284   3.733
 4367TIP3    H113107   3.424   5.219   3.720
 4367TIP3    H213108   3.570   5.233   3.757
 4368TIP3   OH213109   5.529   0.872   0.799
 4368TIP3    H113110   5.547   0.788   0.757
 4368TIP3    H213111   5.611   0.921   0.790
 4369TIP3   OH213112   3.099   0.907   0.056
 4369TIP3    H113113   3.061   0.880  -0.028
 4369TIP3    H213114   3.160   0.836   0.079
 4370TIP3   OH213115   3.766   5.868   1.778
 4370TIP3    H113116   3.791   5.848   1.868
 4370TIP3    H213117   3.670   5.872   1.780
 4371TIP3   OH213118   5.444   1.357   0.501
 4371TIP3    H113119   5.464   1.387   0.412
 4371TIP3    H213120   5.530   1.343   0.541
 4372TIP3   OH213121   5.534   3.658   5.004
 4372TIP3    H113122   5.480   3.665   4.925
 4372TIP3    H213123   5.477   3.689   5.074
 4373TIP3   OH213124   0.243   5.328   3.872
 4373TIP3    H113125   0.213   5.417   3.851
 4373TIP3    H213126   0.171   5.271   3.848
 4374TIP3   OH213127   4.350   2.662   4.039
 4374TIP3    H113128   4.375   2.570   4.032
 4374TIP3    H213129   4.427   2.711   4.011
 4375TIP3   OH213130   0.694   5.145   4.623
 4375TIP3    H113131   0.732   5.232   4.632
 4375TIP3    H213132   0.685   5.132   4.528
 4376TIP3   OH213133   4.742   3.527   5.063
 4376TIP3    H113134   4.679   3.597   5.046
 4376TIP3    H213135   4.687   3.451   5.082
 4377TIP3   OH213136   2.018   2.260   1.065
 4377TIP3    H113137   2.000   2.345   1.026
 4377TIP3    H213138   1.933   2.215   1.065
 4378TIP3   OH213139   1.374   3.918   0.654
 4378TIP3    H113140   1.449   3.965   0.690
 4378TIP3    H213141   1.306   3.985   0.646
 4379TIP3   OH213142   4.714   5.354   0.782
 4379TIP3    H113143   4.634   5.311   0.812
 4379TIP3    H213144   4.689   5.446   0.772
 4380TIP3   OH213145   0.044   0.192   0.346
 4380TIP3    H113146   0.087   0.172   0.263
 4380TIP3    H213147  -0.044   0.221   0.321
 4381TIP3   OH213148   2.100   3.707   0.826
 4381TIP3    H113149   2.087   3.638   0.761
 4381TIP3    H213150   2.184   3.686   0.867
 4382TIP3   OH213151   5.227   4.819   3.607
 4382TIP3    H113152   5.265   4.741   3.567
 4382TIP3    H213153   5.301   4.878   3.620
 4383TIP3   OH213154   5.372   4.765   0.017
 4383TIP3    H113155   5.277   4.778   0.022
 4383TIP3    H213156   5.405   4.800   0.100
 4384TIP3   OH213157   6.230   4.976   0.512
 4384TIP3    H113158   6.230   4.993   0.607
 4384TIP3    H213159   6.137   4.968   0.490
 4385TIP3   OH213160   3.266   2.224   0.268
 4385TIP3    H113161   3.362   2.222   0.262
 4385TIP3    H213162   3.243   2.316   0.259
 4386TIP3   OH213163   4.456   5.073   1.445
 4386TIP3    H113164   4.397   5.035   1.380
 4386TIP3    H213165   4.435   5.166   1.445
 4387TIP3   OH213166   4.493   0.059   4.253
 4387TIP3    H113167   4.565   0.075   4.192
 4387TIP3    H213168   4.440   0.138   4.250
 4388TIP3   OH213169   5.690   3.986   1.255
 4388TIP3    H113170   5.694   3.938   1.172
 4388TIP3    H213171   5.742   3.934   1.316
 4389TIP3   OH213172   1.472   5.886   0.302
 4389TIP3    H113173   1.532   5.823   0.343
 4389TIP3    H213174   1.471   5.861   0.210
 4390TIP3   OH213175   2.143   0.776   1.176
 4390TIP3    H113176   2.083   0.850   1.176
 4390TIP3    H213177   2.165   0.763   1.083
 4391TIP3   OH213178   4.909   5.094   4.766
 4391TIP3    H113179   4.855   5.101   4.687
 4391TIP3    H213180   4.878   5.015   4.810
 4392TIP3   OH213181   1.857   0.474   2.795
 4392TIP3    H113182   1.874   0.523   2.875
 4392TIP3    H213183   1.850   0.540   2.726
 4393TIP3   OH213184   2.983   5.427   1.408
 4393TIP3    H113185   2.947   5.423   1.319
 4393TIP3    H213186   3.007   5.336   1.428
 4394TIP3   OH213187   4.193   3.632   5.101
 4394TIP3    H113188   4.222   3.567   5.038
 4394TIP3    H213189   4.156   3.580   5.173
 4395TIP3   OH213190   0.679   3.490   5.057
 4395TIP3    H113191   0.704   3.542   5.133
 4395TIP3    H213192   0.761   3.461   5.019
 4396TIP3   OH213193   0.336   3.564   2.288
 4396TIP3    H113194   0.416   3.616   2.288
 4396TIP3    H213195   0.366   3.474   2.277
 4397TIP3   OH213196   4.628   0.671   2.335
 4397TIP3    H113197   4.721   0.673   2.357
 4397TIP3    H213198   4.589   0.614   2.401
 4398TIP3   OH213199   3.100   2.112   3.205
 4398TIP3    H113200   3.079   2.057   3.280
 4398TIP3    H213201   3.130   2.194   3.244
 4399TIP3   OH213202   0.889   1.295   0.953
 4399TIP3    H113203   0.849   1.329   0.873
 4399TIP3    H213204   0.818   1.248   0.997
 4400TIP3   OH213205   0.638   4.457   4.353
 4400TIP3    H113206   0.627   4.449   4.447
 4400TIP3    H213207   0.688   4.538   4.341
 4401TIP3   OH213208   3.709   3.320   4.248
 4401TIP3    H113209   3.793   3.343   4.207
 4401TIP3    H213210   3.684   3.399   4.296
 4402TIP3   OH213211   3.800   3.269   4.812
 4402TIP3    H113212   3.710   3.265   4.779
 4402TIP3    H213213   3.834   3.353   4.780
 4403TIP3   OH213214   2.590   3.726   0.570
 4403TIP3    H113215   2.546   3.786   0.631
 4403TIP3    H213216   2.612   3.649   0.623
 4404TIP3   OH213217   5.597   4.905   3.910
 4404TIP3    H113218   5.649   4.825   3.896
 4404TIP3    H213219   5.515   4.873   3.948
 4405TIP3   OH213220   1.612   3.801   2.801
 4405TIP3    H113221   1.611   3.705   2.807
 4405TIP3    H213222   1.652   3.819   2.716
 4406TIP3   OH213223   6.278   0.619   4.778
 4406TIP3    H113224   6.258   0.534   4.817
 4406TIP3    H213225   6.247   0.683   4.842
 4407TIP3   OH213226   5.456   0.468   3.156
 4407TIP3    H113227   5.434   0.384   3.195
 4407TIP3    H213228   5.441   0.456   3.062
 4408TIP3   OH213229   1.238   1.055   1.711
 4408TIP3    H113230   1.291   1.121   1.665
 4408TIP3    H213231   1.163   1.104   1.744
 4409TIP3   OH213232   5.409   4.742   0.475
 4409TIP3    H113233   5.399   4.782   0.562
 4409TIP3    H213234   5.503   4.728   0.466
 4410TIP3   OH213235   2.343   5.683   3.379
 4410TIP3    H113236   2.389   5.749   3.326
 4410TIP3    H213237   2.254   5.683   3.344
 4411TIP3   OH213238   3.176   4.385   5.180
 4411TIP3    H113239   3.271   4.394   5.174
 4411TIP3    H213240   3.143   4.410   5.094
 4412TIP3   OH213241   3.928   3.240   1.844
 4412TIP3    H113242   3.927   3.145   1.829
 4412TIP3    H213243   3.875   3.276   1.773
 4413TIP3   OH213244   0.383   2.839   3.619
 4413TIP3    H113245   0.315   2.868   3.679
 4413TIP3    H213246   0.454   2.903   3.630
 4414TIP3   OH213247   6.120   1.386   0.918
 4414TIP3    H113248   6.095   1.477   0.934
 4414TIP3    H213249   6.043   1.336   0.942
 4415TIP3   OH213250   5.471   2.083   0.410
 4415TIP3    H113251   5.498   2.066   0.501
 4415TIP3    H213252   5.490   2.001   0.364
 4416TIP3   OH213253   4.494   5.102   0.590
 4416TIP3    H113254   4.553   5.126   0.661
 4416TIP3    H213255   4.423   5.053   0.633
 4417TIP3   OH213256   4.249   1.658   3.646
 4417TIP3    H113257   4.325   1.714   3.630
 4417TIP3    H213258   4.222   1.629   3.559
 4418TIP3   OH213259   0.544   1.633   4.142
 4418TIP3    H113260   0.568   1.715   4.098
 4418TIP3    H213261   0.544   1.655   4.235
 4419TIP3   OH213262   5.687   4.997   1.507
 4419TIP3    H113263   5.703   5.090   1.487
 4419TIP3    H213264   5.593   4.985   1.491
 4420TIP3   OH213265   1.872   1.184   3.769
 4420TIP3    H113266   1.882   1.131   3.690
 4420TIP3    H213267   1.962   1.196   3.801
 4421TIP3   OH213268   3.174   1.278   0.274
 4421TIP3    H113269   3.206   1.213   0.211
 4421TIP3    H213270   3.090   1.242   0.305
 4422TIP3   OH213271   6.171   0.270   0.204
 4422TIP3    H113272   6.125   0.351   0.182
 4422TIP3    H213273   6.205   0.239   0.120
 4423TIP3   OH213274   4.991   3.910   4.273
 4423TIP3    H113275   5.018   4.002   4.279
 4423TIP3    H213276   4.900   3.910   4.304
 4424TIP3   OH213277   0.153   2.002   3.446
 4424TIP3    H113278   0.224   1.992   3.382
 4424TIP3    H213279   0.122   2.091   3.434
 4425TIP3   OH213280   3.412   5.319   3.074
 4425TIP3    H113281   3.409   5.389   3.009
 4425TIP3    H213282   3.337   5.336   3.131
 4426TIP3   OH213283   6.034   4.431   4.458
 4426TIP3    H113284   6.114   4.378   4.457
 4426TIP3    H213285   6.060   4.513   4.500
 4427TIP3   OH213286   0.473   4.672   3.227
 4427TIP3    H113287   0.538   4.686   3.296
 4427TIP3    H213288   0.421   4.598   3.258
 4428TIP3   OH213289   6.011   5.372   5.116
 4428TIP3    H113290   5.981   5.443   5.058
 4428TIP3    H213291   6.025   5.415   5.200
 4429TIP3   OH213292   1.004   0.967   0.969
 4429TIP3    H113293   0.985   1.046   0.919
 4429TIP3    H213294   0.949   0.974   1.047
 4430TIP3   OH213295   4.396   1.403   2.388
 4430TIP3    H113296   4.338   1.479   2.394
 4430TIP3    H213297   4.398   1.381   2.295
 4431TIP3   OH213298   4.811   3.234   3.668
 4431TIP3    H113299   4.874   3.249   3.597
 4431TIP3    H213300   4.865   3.226   3.746
 4432TIP3   OH213301   3.753   0.472   5.255
 4432TIP3    H113302   3.809   0.548   5.271
 4432TIP3    H213303   3.777   0.443   5.167
 4433TIP3   OH213304   5.334   2.296   0.850
 4433TIP3    H113305   5.278   2.297   0.772
 4433TIP3    H213306   5.366   2.386   0.858
 4434TIP3   OH213307   5.984   1.852   4.782
 4434TIP3    H113308   6.020   1.937   4.757
 4434TIP3    H213309   5.893   1.854   4.753
 4435TIP3   OH213310   1.045   5.913   0.853
 4435TIP3    H113311   1.006   5.945   0.772
 4435TIP3    H213312   1.085   5.829   0.828
 4436TIP3   OH213313   5.900   3.174   2.599
 4436TIP3    H113314   5.918   3.081   2.592
 4436TIP3    H213315   5.911   3.208   2.510
 4437TIP3   OH213316   1.324   2.620   4.820
 4437TIP3    H113317   1.300   2.686   4.884
 4437TIP3    H213318   1.289   2.652   4.737
 4438TIP3   OH213319   1.786   3.180   0.904
 4438TIP3    H113320   1.788   3.120   0.829
 4438TIP3    H213321   1.798   3.124   0.980
 4439TIP3   OH213322   5.849   3.479   0.337
 4439TIP3    H113323   5.861   3.456   0.245
 4439TIP3    H213324   5.788   3.552   0.336
 4440TIP3   OH213325   2.145   1.929   0.187
 4440TIP3    H113326   2.230   1.969   0.204
 4440TIP3    H213327   2.164   1.853   0.132
 4441TIP3   OH213328   4.515   3.453   4.525
 4441TIP3    H113329   4.474   3.507   4.593
 4441TIP3    H213330   4.567   3.389   4.575
 4442TIP3   OH213331   3.191   0.961   3.850
 4442TIP3    H113332   3.106   0.954   3.893
 4442TIP3    H213333   3.231   1.039   3.887
 4443TIP3   OH213334   3.111   4.063   1.446
 4443TIP3    H113335   3.052   4.016   1.387
 4443TIP3    H213336   3.076   4.152   1.450
 4444TIP3   OH213337   4.216   2.591   3.107
 4444TIP3    H113338   4.228   2.564   3.016
 4444TIP3    H213339   4.121   2.586   3.121
 4445TIP3   OH213340   5.110   3.437   2.963
 4445TIP3    H113341   5.055   3.359   2.972
 4445TIP3    H213342   5.137   3.436   2.871
 4446TIP3   OH213343   0.997   1.942   4.879
 4446TIP3    H113344   0.929   1.898   4.828
 4446TIP3    H213345   0.949   1.987   4.949
 4447TIP3   OH213346   0.959   5.317   1.034
 4447TIP3    H113347   0.979   5.315   1.127
 4447TIP3    H213348   0.877   5.367   1.028
 4448TIP3   OH213349   3.661   1.091   4.112
 4448TIP3    H113350   3.582   1.062   4.066
 4448TIP3    H213351   3.668   1.033   4.188
 4449TIP3   OH213352   3.000   1.683   3.553
 4449TIP3    H113353   2.996   1.600   3.505
 4449TIP3    H213354   3.091   1.691   3.582
 4450TIP3   OH213355   5.148   4.356   0.176
 4450TIP3    H113356   5.201   4.304   0.237
 4450TIP3    H213357   5.161   4.446   0.204
 4451TIP3   OH213358   0.380   4.287   4.765
 4451TIP3    H113359   0.327   4.260   4.840
 4451TIP3    H213360   0.468   4.298   4.800
 4452TIP3   OH213361   1.695   2.253   1.844
 4452TIP3    H113362   1.620   2.222   1.793
 4452TIP3    H213363   1.662   2.328   1.893
 4453TIP3   OH213364   1.805   5.399   5.107
 4453TIP3    H113365   1.753   5.355   5.175
 4453TIP3    H213366   1.894   5.368   5.122
 4454TIP3   OH213367   5.515   2.033   3.044
 4454TIP3    H113368   5.429   2.013   3.007
 4454TIP3    H213369   5.521   2.129   3.040
 4455TIP3   OH213370   5.797   5.292   2.308
 4455TIP3    H113371   5.707   5.258   2.316
 4455TIP3    H213372   5.810   5.343   2.388
 4456TIP3   OH213373   3.156   4.175   1.829
 4456TIP3    H113374   3.125   4.160   1.918
 4456TIP3    H213375   3.082   4.220   1.786
 4457TIP3   OH213376   6.020   3.998   4.604
 4457TIP3    H113377   5.947   3.946   4.569
 4457TIP3    H213378   5.981   4.082   4.626
 4458TIP3   OH213379   1.160   5.855   1.473
 4458TIP3    H113380   1.097   5.831   1.405
 4458TIP3    H213381   1.200   5.936   1.441
 4459TIP3   OH213382   0.928   5.630   3.504
 4459TIP3    H113383   0.951   5.695   3.570
 4459TIP3    H213384   0.832   5.626   3.506
 4460TIP3   OH213385   4.780   4.849   4.218
 4460TIP3    H113386   4.762   4.755   4.213
 4460TIP3    H213387   4.869   4.858   4.183
 4461TIP3   OH213388   2.677   1.058   4.938
 4461TIP3    H113389   2.675   1.058   5.034
 4461TIP3    H213390   2.612   1.124   4.913
 4462TIP3   OH213391   2.499   4.767   3.472
 4462TIP3    H113392   2.475   4.676   3.493
 4462TIP3    H213393   2.587   4.760   3.438
 4463TIP3   OH213394   0.905   0.935   3.811
 4463TIP3    H113395   0.891   0.962   3.902
 4463TIP3    H213396   0.954   1.007   3.771
 4464TIP3   OH213397   1.160   4.392   1.473
 4464TIP3    H113398   1.074   4.415   1.507
 4464TIP3    H213399   1.203   4.477   1.458
 4465TIP3   OH213400   0.804   4.079   1.931
 4465TIP3    H113401   0.709   4.083   1.920
 4465TIP3    H213402   0.839   4.134   1.861
 4466TIP3   OH213403   3.408   2.081   2.014
 4466TIP3    H113404   3.497   2.114   2.030
 4466TIP3    H213405   3.351   2.150   2.048
 4467TIP3   OH213406   0.343   3.705   4.239
 4467TIP3    H113407   0.381   3.716   4.326
 4467TIP3    H213408   0.270   3.767   4.237
 4468TIP3   OH213409   3.428   4.099   1.267
 4468TIP3    H113410   3.345   4.062   1.297
 4468TIP3    H213411   3.430   4.083   1.173
 4469TIP3   OH213412   4.435   0.356   1.467
 4469TIP3    H113413   4.509   0.304   1.435
 4469TIP3    H213414   4.397   0.303   1.537
 4470TIP3   OH213415   6.259   1.101   1.186
 4470TIP3    H113416   6.266   1.168   1.253
 4470TIP3    H213417   6.182   1.050   1.211
 4471TIP3   OH213418   1.051   3.860   5.088
 4471TIP3    H113419   0.988   3.923   5.054
 4471TIP3    H213420   1.012   3.828   5.169
 4472TIP3   OH213421   2.040   5.083   4.300
 4472TIP3    H113422   1.964   5.118   4.253
 4472TIP3    H213423   2.100   5.055   4.231
 4473TIP3   OH213424   1.751   5.465   2.306
 4473TIP3    H113425   1.752   5.370   2.322
 4473TIP3    H213426   1.672   5.496   2.349
 4474TIP3   OH213427   0.079   5.835   5.010
 4474TIP3    H113428   0.121   5.892   5.075
 4474TIP3    H213429  -0.009   5.820   5.044
 4475TIP3   OH213430   1.157   2.687   0.743
 4475TIP3    H113431   1.108   2.767   0.729
 4475TIP3    H213432   1.093   2.625   0.779
 4476TIP3   OH213433   0.688   1.165   4.212
 4476TIP3    H113434   0.666   1.255   4.235
 4476TIP3    H213435   0.606   1.117   4.220
 4477TIP3   OH213436   4.278   5.573   3.379
 4477TIP3    H113437   4.346   5.630   3.414
 4477TIP3    H213438   4.325   5.514   3.320
 4478TIP3   OH213439   1.760   1.962   3.097
 4478TIP3    H113440   1.788   1.872   3.084
 4478TIP3    H213441   1.767   2.002   3.010
 4479TIP3   OH213442   1.679   5.045   1.042
 4479TIP3    H113443   1.711   5.110   0.979
 4479TIP3    H213444   1.584   5.057   1.041
 4480TIP3   OH213445   3.717   1.218   0.885
 4480TIP3    H113446   3.691   1.145   0.940
 4480TIP3    H213447   3.743   1.178   0.802
 4481TIP3   OH213448   0.596   4.305   3.268
 4481TIP3    H113449   0.675   4.322   3.319
 4481TIP3    H213450   0.526   4.346   3.319
 4482TIP3   OH213451   2.721   1.984   5.187
 4482TIP3    H113452   2.815   1.975   5.177
 4482TIP3    H213453   2.706   2.079   5.194
 4483TIP3   OH213454   0.717   1.163   3.851
 4483TIP3    H113455   0.667   1.149   3.770
 4483TIP3    H213456   0.732   1.075   3.885
 4484TIP3   OH213457   6.026   5.305   4.084
 4484TIP3    H113458   6.002   5.370   4.018
 4484TIP3    H213459   6.053   5.229   4.034
 4485TIP3   OH213460   1.990   1.803   2.204
 4485TIP3    H113461   2.049   1.866   2.161
 4485TIP3    H213462   1.959   1.747   2.132
 4486TIP3   OH213463   4.157   1.410   0.839
 4486TIP3    H113464   4.138   1.382   0.929
 4486TIP3    H213465   4.088   1.473   0.819
 4487TIP3   OH213466   2.194   4.963   4.803
 4487TIP3    H113467   2.173   4.961   4.710
 4487TIP3    H213468   2.133   5.027   4.840
 4488TIP3   OH213469   3.053   3.536   3.530
 4488TIP3    H113470   3.086   3.626   3.523
 4488TIP3    H213471   3.129   3.485   3.557
 4489TIP3   OH213472   3.166   3.548   2.469
 4489TIP3    H113473   3.205   3.611   2.409
 4489TIP3    H213474   3.091   3.593   2.507
 4490TIP3   OH213475   2.806   5.867   3.286
 4490TIP3    H113476   2.857   5.903   3.359
 4490TIP3    H213477   2.854   5.789   3.259
 4491TIP3   OH213478   5.025   3.533   5.032
 4491TIP3    H113479   4.930   3.532   5.049
 4491TIP3    H213480   5.042   3.620   4.996
 4492TIP3   OH213481   0.027   3.293   0.598
 4492TIP3    H113482   0.093   3.360   0.617
 4492TIP3    H213483  -0.009   3.269   0.683
 4493TIP3   OH213484   1.641   5.825   2.695
 4493TIP3    H113485   1.708   5.801   2.760
 4493TIP3    H213486   1.603   5.742   2.669
 4494TIP3   OH213487   3.732   2.944   0.394
 4494TIP3    H113488   3.691   2.948   0.308
 4494TIP3    H213489   3.813   2.896   0.380
 4495TIP3   OH213490   4.578   5.663   4.487
 4495TIP3    H113491   4.661   5.667   4.440
 4495TIP3    H213492   4.535   5.584   4.455
 4496TIP3   OH213493   2.095   4.882   3.691
 4496TIP3    H113494   2.083   4.826   3.614
 4496TIP3    H213495   2.083   4.823   3.766
 4497TIP3   OH213496   1.556   4.273   3.472
 4497TIP3    H113497   1.472   4.305   3.504
 4497TIP3    H213498   1.539   4.183   3.445
 4498TIP3   OH213499   0.779   5.528   0.918
 4498TIP3    H113500   0.722   5.452   0.905
 4498TIP3    H213501   0.782   5.571   0.833
 4499TIP3   OH213502   2.023   3.825   4.006
 4499TIP3    H113503   2.033   3.910   3.963
 4499TIP3    H213504   2.102   3.815   4.059
 4500TIP3   OH213505   5.977   4.699   1.836
 4500TIP3    H113506   6.002   4.762   1.904
 4500TIP3    H213507   5.948   4.754   1.763
 4501TIP3   OH213508   6.217   4.693   4.091
 4501TIP3    H113509   6.268   4.623   4.050
 4501TIP3    H213510   6.224   4.767   4.030
 4502TIP3   OH213511   3.403   4.574   2.010
 4502TIP3    H113512   3.341   4.561   2.082
 4502TIP3    H213513   3.451   4.492   2.004
 4503TIP3   OH213514   4.115   1.412   0.306
 4503TIP3    H113515   4.037   1.449   0.265
 4503TIP3    H213516   4.172   1.487   0.324
 4504TIP3   OH213517   5.473   2.155   0.075
 4504TIP3    H113518   5.461   2.060   0.074
 4504TIP3    H213519   5.452   2.181   0.165
 4505TIP3   OH213520   4.027   4.268   4.884
 4505TIP3    H113521   3.961   4.201   4.866
 4505TIP3    H213522   4.037   4.267   4.980
 4506TIP3   OH213523   1.482   5.380   4.188
 4506TIP3    H113524   1.409   5.318   4.183
 4506TIP3    H213525   1.509   5.392   4.097
 4507TIP3   OH213526   3.790   2.230   3.302
 4507TIP3    H113527   3.852   2.302   3.292
 4507TIP3    H213528   3.715   2.255   3.247
 4508TIP3   OH213529   5.847   3.558   3.487
 4508TIP3    H113530   5.847   3.484   3.427
 4508TIP3    H213531   5.754   3.578   3.500
 4509TIP3   OH213532   6.092   4.902   0.976
 4509TIP3    H113533   6.043   4.863   1.049
 4509TIP3    H213534   6.160   4.955   1.018
 4510TIP3   OH213535   3.478   3.120   0.431
 4510TIP3    H113536   3.566   3.122   0.394
 4510TIP3    H213537   3.442   3.036   0.402
 4511TIP3   OH213538   2.837   0.304   2.906
 4511TIP3    H113539   2.801   0.227   2.949
 4511TIP3    H213540   2.767   0.369   2.910
 4512TIP3   OH213541   4.240   0.848   4.524
 4512TIP3    H113542   4.187   0.886   4.595
 4512TIP3    H213543   4.283   0.923   4.484
 4513TIP3   OH213544   3.369   5.524   0.393
 4513TIP3    H113545   3.290   5.475   0.372
 4513TIP3    H213546   3.391   5.571   0.312
 4514TIP3   OH213547   5.583   0.643   3.795
 4514TIP3    H113548   5.499   0.688   3.809
 4514TIP3    H213549   5.560   0.551   3.791
 4515TIP3   OH213550   2.132   5.640   4.091
 4515TIP3    H113551   2.164   5.562   4.136
 4515TIP3    H213552   2.209   5.697   4.084
 4516TIP3   OH213553   2.919   1.946   0.483
 4516TIP3    H113554   3.010   1.919   0.468
 4516TIP3    H213555   2.903   2.014   0.417
 4517TIP3   OH213556   1.986   1.558   0.581
 4517TIP3    H113557   1.941   1.499   0.643
 4517TIP3    H213558   1.941   1.543   0.498
 4518TIP3   OH213559   1.862   2.609   3.870
 4518TIP3    H113560   1.808   2.688   3.860
 4518TIP3    H213561   1.946   2.633   3.830
 4519TIP3   OH213562   0.662   1.087   1.924
 4519TIP3    H113563   0.726   1.155   1.942
 4519TIP3    H213564   0.613   1.120   1.848
 4520TIP3   OH213565   6.324   2.794   4.724
 4520TIP3    H113566   6.357   2.797   4.813
 4520TIP3    H213567   6.291   2.882   4.707
 4521TIP3   OH213568   1.861   2.911   3.756
 4521TIP3    H113569   1.832   2.999   3.730
 4521TIP3    H213570   1.938   2.895   3.703
 4522TIP3   OH213571   5.430   3.415   4.681
 4522TIP3    H113572   5.466   3.398   4.768
 4522TIP3    H213573   5.342   3.449   4.698
 4523TIP3   OH213574   5.101   3.151   4.574
 4523TIP3    H113575   5.149   3.230   4.548
 4523TIP3    H213576   5.139   3.081   4.521
 4524TIP3   OH213577   2.352   2.834   1.153
 4524TIP3    H113578   2.430   2.798   1.196
 4524TIP3    H213579   2.369   2.823   1.060
 4525TIP3   OH213580   1.319   3.021   1.013
 4525TIP3    H113581   1.300   2.942   1.064
 4525TIP3    H213582   1.357   3.082   1.076
 4526TIP3   OH213583   4.380   0.778   0.585
 4526TIP3    H113584   4.300   0.746   0.626
 4526TIP3    H213585   4.434   0.809   0.657
 4527TIP3   OH213586   3.559   2.108   4.671
 4527TIP3    H113587   3.505   2.042   4.627
 4527TIP3    H213588   3.513   2.125   4.753
 4528TIP3   OH213589   4.835   4.818   3.926
 4528TIP3    H113590   4.925   4.852   3.920
 4528TIP3    H213591   4.804   4.849   4.011
 4529TIP3   OH213592   0.271   1.053   0.846
 4529TIP3    H113593   0.346   1.015   0.800
 4529TIP3    H213594   0.195   1.028   0.793
 4530TIP3   OH213595   0.101   4.366   3.678
 4530TIP3    H113596   0.173   4.327   3.728
 4530TIP3    H213597   0.073   4.297   3.619
 4531TIP3   OH213598   4.812   0.696   2.958
 4531TIP3    H113599   4.857   0.772   2.997
 4531TIP3    H213600   4.721   0.707   2.983
 4532TIP3   OH213601   1.954   2.416   4.354
 4532TIP3    H113602   1.883   2.475   4.330
 4532TIP3    H213603   1.995   2.392   4.271
 4533TIP3   OH213604   1.824   5.494   4.626
 4533TIP3    H113605   1.821   5.461   4.715
 4533TIP3    H213606   1.778   5.428   4.574
 4534TIP3   OH213607   5.788   0.793   0.255
 4534TIP3    H113608   5.720   0.859   0.241
 4534TIP3    H213609   5.769   0.757   0.342
 4535TIP3   OH213610   3.935   4.443   0.197
 4535TIP3    H113611   3.906   4.520   0.246
 4535TIP3    H213612   3.857   4.414   0.149
 4536TIP3   OH213613   0.111   5.244   1.473
 4536TIP3    H113614   0.036   5.288   1.513
 4536TIP3    H213615   0.179   5.310   1.470
 4537TIP3   OH213616   5.183   3.907   0.293
 4537TIP3    H113617   5.104   3.933   0.245
 4537TIP3    H213618   5.153   3.891   0.382
 4538TIP3   OH213619   5.596   0.859   4.224
 4538TIP3    H113620   5.582   0.843   4.317
 4538TIP3    H213621   5.607   0.772   4.186
 4539TIP3   OH213622   2.142   1.341   3.942
 4539TIP3    H113623   2.182   1.265   3.901
 4539TIP3    H213624   2.168   1.415   3.887
 4540TIP3   OH213625   3.438   4.948   4.301
 4540TIP3    H113626   3.466   4.943   4.392
 4540TIP3    H213627   3.434   4.857   4.272
 4541TIP3   OH213628   4.423   4.234   0.465
 4541TIP3    H113629   4.494   4.171   0.458
 4541TIP3    H213630   4.429   4.267   0.555
 4542TIP3   OH213631   5.607   1.043   4.485
 4542TIP3    H113632   5.663   1.071   4.412
 4542TIP3    H213633   5.605   0.947   4.478
 4543TIP3   OH213634   4.778   4.715   0.055
 4543TIP3    H113635   4.868   4.693   0.078
 4543TIP3    H213636   4.781   4.808   0.034
 4544TIP3   OH213637   5.913   0.701   2.939
 4544TIP3    H113638   5.958   0.622   2.969
 4544TIP3    H213639   5.975   0.772   2.957
 4545TIP3   OH213640   6.253   2.433   2.542
 4545TIP3    H113641   6.169   2.421   2.587
 4545TIP3    H213642   6.272   2.349   2.501
 4546TIP3   OH213643   4.620   0.478   4.890
 4546TIP3    H113644   4.601   0.532   4.967
 4546TIP3    H213645   4.600   0.535   4.816
 4547TIP3   OH213646   2.783   0.278   3.223
 4547TIP3    H113647   2.805   0.367   3.194
 4547TIP3    H213648   2.814   0.274   3.314
 4548TIP3   OH213649   2.720   2.105   3.526
 4548TIP3    H113650   2.632   2.071   3.542
 4548TIP3    H213651   2.773   2.071   3.598
 4549TIP3   OH213652   3.480   4.804   3.212
 4549TIP3    H113653   3.560   4.782   3.164
 4549TIP3    H213654   3.510   4.828   3.299
 4550TIP3   OH213655   2.091   2.306   1.367
 4550TIP3    H113656   2.152   2.245   1.408
 4550TIP3    H213657   2.063   2.263   1.287
 4551TIP3   OH213658   3.271   4.700   1.298
 4551TIP3    H113659   3.265   4.795   1.285
 4551TIP3    H213660   3.190   4.678   1.345
 4552TIP3   OH213661   4.707   3.304   3.957
 4552TIP3    H113662   4.656   3.268   4.030
 4552TIP3    H213663   4.676   3.255   3.881
 4553TIP3   OH213664   5.880   5.495   0.965
 4553TIP3    H113665   5.901   5.555   0.893
 4553TIP3    H213666   5.854   5.552   1.037
 4554TIP3   OH213667   0.007   4.128   0.591
 4554TIP3    H113668   0.002   4.204   0.533
 4554TIP3    H213669   0.051   4.061   0.539
 4555TIP3   OH213670   5.670   3.858   2.684
 4555TIP3    H113671   5.728   3.782   2.699
 4555TIP3    H213672   5.586   3.831   2.720
 4556TIP3   OH213673   4.668   1.685   3.582
 4556TIP3    H113674   4.654   1.684   3.676
 4556TIP3    H213675   4.728   1.612   3.566
 4557TIP3   OH213676   1.047  -0.004   4.390
 4557TIP3    H113677   1.133  -0.045   4.379
 4557TIP3    H213678   1.003  -0.017   4.306
 4558TIP3   OH213679   5.144   1.896   5.032
 4558TIP3    H113680   5.210   1.831   5.058
 4558TIP3    H213681   5.182   1.980   5.057
 4559TIP3   OH213682   4.408   3.432   1.796
 4559TIP3    H113683   4.332   3.435   1.738
 4559TIP3    H213684   4.383   3.487   1.870
 4560TIP3   OH213685   4.714   2.212   4.073
 4560TIP3    H113686   4.707   2.240   3.982
 4560TIP3    H213687   4.624   2.191   4.098
 4561TIP3   OH213688   0.414   2.220   1.811
 4561TIP3    H113689   0.475   2.289   1.837
 4561TIP3    H213690   0.420   2.155   1.881
 4562TIP3   OH213691   0.953   5.941   4.764
 4562TIP3    H113692   0.920   6.013   4.817
 4562TIP3    H213693   1.048   5.954   4.764
 4563TIP3   OH213694   1.624   1.892   1.484
 4563TIP3    H113695   1.531   1.893   1.506
 4563TIP3    H213696   1.633   1.961   1.418
 4564TIP3   OH213697   3.943   3.601   4.386
 4564TIP3    H113698   3.881   3.639   4.323
 4564TIP3    H213699   4.023   3.590   4.335
 4565TIP3   OH213700   3.863   3.162   5.086
 4565TIP3    H113701   3.833   3.237   5.136
 4565TIP3    H213702   3.784   3.110   5.071
 4566TIP3   OH213703   6.283   5.087   2.465
 4566TIP3    H113704   6.234   5.092   2.383
 4566TIP3    H213705   6.239   5.018   2.515
 4567TIP3   OH213706   5.578   5.625   1.437
 4567TIP3    H113707   5.643   5.671   1.385
 4567TIP3    H213708   5.562   5.682   1.513
 4568TIP3   OH213709   2.764   5.881   3.615
 4568TIP3    H113710   2.837   5.939   3.594
 4568TIP3    H213711   2.805   5.805   3.656
 4569TIP3   OH213712   3.292   4.944   0.998
 4569TIP3    H113713   3.360   4.881   0.975
 4569TIP3    H213714   3.228   4.893   1.047
 4570TIP3   OH213715   2.143   4.292   3.950
 4570TIP3    H113716   2.170   4.226   4.014
 4570TIP3    H213717   2.074   4.342   3.994
 4571TIP3   OH213718   3.973   1.580   4.037
 4571TIP3    H113719   3.973   1.537   3.952
 4571TIP3    H213720   4.041   1.648   4.030
 4572TIP3   OH213721   3.425   4.748   3.873
 4572TIP3    H113722   3.516   4.747   3.904
 4572TIP3    H213723   3.406   4.657   3.850
 4573TIP3   OH213724   3.012   1.968   1.300
 4573TIP3    H113725   3.058   1.902   1.351
 4573TIP3    H213726   2.919   1.947   1.312
 4574TIP3   OH213727   2.096   0.941   0.802
 4574TIP3    H113728   2.115   0.997   0.878
 4574TIP3    H213729   2.001   0.933   0.801
 4575TIP3   OH213730   3.641   4.984   4.923
 4575TIP3    H113731   3.724   4.949   4.954
 4575TIP3    H213732   3.602   5.026   5.000
 4576TIP3   OH213733   5.675   3.418   1.517
 4576TIP3    H113734   5.682   3.324   1.532
 4576TIP3    H213735   5.757   3.442   1.474
 4577TIP3   OH213736   0.632   3.206   4.305
 4577TIP3    H113737   0.654   3.250   4.222
 4577TIP3    H213738   0.636   3.113   4.284
 4578TIP3   OH213739   1.479   3.905   0.106
 4578TIP3    H113740   1.387   3.920   0.127
 4578TIP3    H213741   1.485   3.914   0.011
 4579TIP3   OH213742   3.916   2.433   1.434
 4579TIP3    H113743   3.998   2.453   1.389
 4579TIP3    H213744   3.925   2.342   1.462
 4580TIP3   OH213745   3.734   3.229   1.616
 4580TIP3    H113746   3.731   3.265   1.528
 4580TIP3    H213747   3.683   3.148   1.611
 4581TIP3   OH213748   1.309   5.779   5.172
 4581TIP3    H113749   1.242   5.799   5.236
 4581TIP3    H213750   1.334   5.688   5.190
 4582TIP3   OH213751   2.780   3.973   2.983
 4582TIP3    H113752   2.722   3.955   3.057
 4582TIP3    H213753   2.732   3.940   2.907
 4583TIP3   OH213754   1.183   3.727   0.019
 4583TIP3    H113755   1.194   3.659   0.086
 4583TIP3    H213756   1.144   3.800   0.066
 4584TIP3   OH213757   5.447   4.094   1.325
 4584TIP3    H113758   5.453   4.169   1.384
 4584TIP3    H213759   5.538   4.068   1.310
 4585TIP3   OH213760   0.858   2.412   4.497
 4585TIP3    H113761   0.837   2.373   4.412
 4585TIP3    H213762   0.939   2.369   4.524
 4586TIP3   OH213763   4.286   4.080   4.531
 4586TIP3    H113764   4.267   4.004   4.476
 4586TIP3    H213765   4.274   4.048   4.620
 4587TIP3   OH213766   5.940   5.561   3.008
 4587TIP3    H113767   5.890   5.642   3.020
 4587TIP3    H213768   6.014   5.570   3.068
 4588TIP3   OH213769   2.407   3.574   2.657
 4588TIP3    H113770   2.436   3.489   2.623
 4588TIP3    H213771   2.338   3.552   2.720
 4589TIP3   OH213772   1.953   4.508   3.329
 4589TIP3    H113773   1.896   4.434   3.308
 4589TIP3    H213774   1.919   4.580   3.276
 4590TIP3   OH213775   4.113   4.179   2.956
 4590TIP3    H113776   4.187   4.208   3.010
 4590TIP3    H213777   4.138   4.092   2.926
 4591TIP3   OH213778   5.258   1.125   0.769
 4591TIP3    H113779   5.187   1.075   0.810
 4591TIP3    H213780   5.227   1.216   0.772
 4592TIP3   OH213781   6.344   2.406   4.983
 4592TIP3    H113782   6.389   2.353   5.049
 4592TIP3    H213783   6.251   2.387   4.996
 4593TIP3   OH213784   4.880   3.818   5.171
 4593TIP3    H113785   4.927   3.901   5.182
 4593TIP3    H213786   4.806   3.839   5.114
 4594TIP3   OH213787   0.261   0.466   3.833
 4594TIP3    H113788   0.336   0.521   3.815
 4594TIP3    H213789   0.252   0.411   3.755
 4595TIP3   OH213790   0.905   2.444   0.094
 4595TIP3    H113791   0.942   2.532   0.098
 4595TIP3    H213792   0.824   2.455   0.045
 4596TIP3   OH213793   5.100   2.586   1.476
 4596TIP3    H113794   5.074   2.520   1.540
 4596TIP3    H213795   5.116   2.665   1.528
 4597TIP3   OH213796   1.298   4.156   1.021
 4597TIP3    H113797   1.247   4.204   1.087
 4597TIP3    H213798   1.388   4.181   1.038
 4598TIP3   OH213799   1.977   4.329   1.940
 4598TIP3    H113800   1.905   4.391   1.926
 4598TIP3    H213801   2.053   4.370   1.899
 4599TIP3   OH213802   3.153   1.430   3.782
 4599TIP3    H113803   3.164   1.408   3.690
 4599TIP3    H213804   3.145   1.525   3.784
 4600TIP3   OH213805   4.712   2.250   2.974
 4600TIP3    H113806   4.676   2.222   3.058
 4600TIP3    H213807   4.675   2.338   2.960
 4601TIP3   OH213808   1.666   3.048   2.498
 4601TIP3    H113809   1.740   3.076   2.551
 4601TIP3    H213810   1.591   3.051   2.557
 4602TIP3   OH213811   4.961   1.698   3.087
 4602TIP3    H113812   4.904   1.774   3.078
 4602TIP3    H213813   4.964   1.661   2.998
 4603TIP3   OH213814   1.801   5.345   1.938
 4603TIP3    H113815   1.766   5.264   1.902
 4603TIP3    H213816   1.733   5.410   1.920
 4604TIP3   OH213817   3.283   0.612   2.414
 4604TIP3    H113818   3.351   0.679   2.424
 4604TIP3    H213819   3.213   0.657   2.367
 4605TIP3   OH213820   3.664   0.545   3.391
 4605TIP3    H113821   3.665   0.639   3.409
 4605TIP3    H213822   3.603   0.509   3.456
 4606TIP3   OH213823   1.299   2.789   4.218
 4606TIP3    H113824   1.370   2.730   4.243
 4606TIP3    H213825   1.283   2.769   4.126
 4607TIP3   OH213826   1.735   3.420   3.592
 4607TIP3    H113827   1.642   3.405   3.604
 4607TIP3    H213828   1.745   3.515   3.598
 4608TIP3   OH213829   1.048   1.887   4.541
 4608TIP3    H113830   1.079   1.835   4.614
 4608TIP3    H213831   0.953   1.892   4.553
 4609TIP3   OH213832   2.352   4.323   4.821
 4609TIP3    H113833   2.419   4.265   4.785
 4609TIP3    H213834   2.273   4.302   4.771
 4610TIP3   OH213835   5.895   4.399   4.939
 4610TIP3    H113836   5.825   4.430   4.881
 4610TIP3    H213837   5.950   4.477   4.953
 4611TIP3   OH213838   0.610   5.307   4.933
 4611TIP3    H113839   0.615   5.238   4.999
 4611TIP3    H213840   0.697   5.348   4.934
 4612TIP3   OH213841   0.575   0.022   2.358
 4612TIP3    H113842   0.529   0.099   2.392
 4612TIP3    H213843   0.523  -0.006   2.282
 4613TIP3   OH213844   0.759   5.739   0.384
 4613TIP3    H113845   0.698   5.808   0.355
 4613TIP3    H213846   0.822   5.732   0.313
 4614TIP3   OH213847   5.486   5.193   0.937
 4614TIP3    H113848   5.500   5.100   0.956
 4614TIP3    H213849   5.574   5.226   0.917
 4615TIP3   OH213850   1.529   3.861   3.054
 4615TIP3    H113851   1.552   3.951   3.077
 4615TIP3    H213852   1.541   3.856   2.959
 4616TIP3   OH213853   0.040   1.853   1.835
 4616TIP3    H113854   0.055   1.806   1.918
 4616TIP3    H213855   0.124   1.846   1.789
 4617TIP3   OH213856   5.595   4.334   2.094
 4617TIP3    H113857   5.599   4.301   2.184
 4617TIP3    H213858   5.526   4.400   2.095
 4618TIP3   OH213859   0.886   3.097   3.901
 4618TIP3    H113860   0.794   3.101   3.874
 4618TIP3    H213861   0.884   3.110   3.995
 4619TIP3   OH213862   2.463   3.528   3.699
 4619TIP3    H113863   2.412   3.482   3.632
 4619TIP3    H213864   2.522   3.462   3.734
 4620TIP3   OH213865   3.186   5.039   1.946
 4620TIP3    H113866   3.173   5.059   2.039
 4620TIP3    H213867   3.208   5.123   1.907
 4621TIP3   OH213868   3.273   2.650   4.864
 4621TIP3    H113869   3.245   2.558   4.864
 4621TIP3    H213870   3.300   2.666   4.955
 4622TIP3   OH213871   5.661   3.311   4.098
 4622TIP3    H113872   5.660   3.382   4.033
 4622TIP3    H213873   5.725   3.340   4.163
 4623TIP3   OH213874   4.230   3.941   0.717
 4623TIP3    H113875   4.159   3.916   0.777
 4623TIP3    H213876   4.250   3.860   0.669
 4624TIP3   OH213877   0.848   0.580   0.463
 4624TIP3    H113878   0.850   0.671   0.494
 4624TIP3    H213879   0.849   0.588   0.367
 4625TIP3   OH213880   0.025   4.956   1.640
 4625TIP3    H113881   0.063   5.018   1.578
 4625TIP3    H213882  -0.060   4.934   1.603
 4626TIP3   OH213883   5.982   0.303   2.026
 4626TIP3    H113884   5.974   0.263   2.113
 4626TIP3    H213885   6.074   0.292   2.003
 4627TIP3   OH213886   0.374   0.539   4.155
 4627TIP3    H113887   0.339   0.611   4.103
 4627TIP3    H213888   0.297   0.495   4.189
 4628TIP3   OH213889   0.667   5.246   0.421
 4628TIP3    H113890   0.610   5.241   0.344
 4628TIP3    H213891   0.755   5.253   0.385
 4629TIP3   OH213892   1.255   4.824   0.272
 4629TIP3    H113893   1.307   4.877   0.211
 4629TIP3    H213894   1.302   4.830   0.355
 4630TIP3   OH213895   3.876   5.476   1.700
 4630TIP3    H113896   3.950   5.448   1.645
 4630TIP3    H213897   3.799   5.454   1.648
 4631TIP3   OH213898   1.587   5.026   0.680
 4631TIP3    H113899   1.625   5.114   0.670
 4631TIP3    H213900   1.661   4.971   0.704
 4632TIP3   OH213901   3.560   3.695   0.460
 4632TIP3    H113902   3.546   3.720   0.368
 4632TIP3    H213903   3.515   3.611   0.469
 4633TIP3   OH213904   1.645   5.414   0.698
 4633TIP3    H113905   1.550   5.424   0.693
 4633TIP3    H213906   1.670   5.376   0.613
 4634TIP3   OH213907   6.028   0.532   4.923
 4634TIP3    H113908   5.938   0.514   4.950
 4634TIP3    H213909   6.057   0.601   4.983
 4635TIP3   OH213910   3.190   2.427   5.028
 4635TIP3    H113911   3.210   2.483   5.103
 4635TIP3    H213912   3.274   2.388   5.003
 4636TIP3   OH213913   0.461   3.072   1.197
 4636TIP3    H113914   0.499   3.121   1.124
 4636TIP3    H213915   0.497   3.113   1.275
 4637TIP3   OH213916   5.989   1.738   3.159
 4637TIP3    H113917   6.017   1.705   3.073
 4637TIP3    H213918   6.044   1.815   3.174
 4638TIP3   OH213919   3.589   1.346   5.068
 4638TIP3    H113920   3.508   1.378   5.107
 4638TIP3    H213921   3.603   1.261   5.109
 4639TIP3   OH213922   3.418   3.853   1.464
 4639TIP3    H113923   3.383   3.926   1.515
 4639TIP3    H213924   3.511   3.852   1.484
 4640TIP3   OH213925   3.967   2.899   2.171
 4640TIP3    H113926   3.901   2.963   2.200
 4640TIP3    H213927   4.047   2.950   2.163
 4641TIP3   OH213928   1.426   5.745   3.479
 4641TIP3    H113929   1.394   5.686   3.548
 4641TIP3    H213930   1.520   5.750   3.494
 4642TIP3   OH213931   5.759   5.778   3.035
 4642TIP3    H113932   5.669   5.790   3.005
 4642TIP3    H213933   5.751   5.760   3.128
 4643TIP3   OH213934   0.280   1.668   2.875
 4643TIP3    H113935   0.296   1.615   2.953
 4643TIP3    H213936   0.303   1.757   2.902
 4644TIP3   OH213937   0.368   2.377   0.217
 4644TIP3    H113938   0.424   2.441   0.261
 4644TIP3    H213939   0.421   2.298   0.214
 4645TIP3   OH213940   3.792   5.050   1.415
 4645TIP3    H113941   3.733   4.998   1.469
 4645TIP3    H213942   3.848   5.096   1.478
 4646TIP3   OH213943   2.475   4.166   3.971
 4646TIP3    H113944   2.460   4.252   3.930
 4646TIP3    H213945   2.412   4.163   4.043
 4647TIP3   OH213946   2.318   0.399   1.159
 4647TIP3    H113947   2.226   0.421   1.144
 4647TIP3    H213948   2.318   0.349   1.240
 4648TIP3   OH213949   5.533   0.445   0.204
 4648TIP3    H113950   5.516   0.405   0.119
 4648TIP3    H213951   5.513   0.377   0.267
 4649TIP3   OH213952   0.663   1.352   0.225
 4649TIP3    H113953   0.726   1.423   0.221
 4649TIP3    H213954   0.621   1.362   0.310
 4650TIP3   OH213955   5.785   2.100   1.823
 4650TIP3    H113956   5.695   2.080   1.848
 4650TIP3    H213957   5.825   2.014   1.808
 4651TIP3   OH213958   3.467   0.794   4.510
 4651TIP3    H113959   3.507   0.858   4.570
 4651TIP3    H213960   3.430   0.847   4.439
 4652TIP3   OH213961   5.319   0.048   3.036
 4652TIP3    H113962   5.384   0.089   2.979
 4652TIP3    H213963   5.269   0.121   3.073
 4653TIP3   OH213964   2.370   0.619   5.008
 4653TIP3    H113965   2.398   0.668   5.085
 4653TIP3    H213966   2.352   0.686   4.942
 4654TIP3   OH213967   5.664   5.295   1.457
 4654TIP3    H113968   5.724   5.348   1.404
 4654TIP3    H213969   5.582   5.344   1.456
 4655TIP3   OH213970   4.681   5.417   3.399
 4655TIP3    H113971   4.757   5.458   3.356
 4655TIP3    H213972   4.664   5.473   3.475
 4656TIP3   OH213973   1.643   5.446   0.092
 4656TIP3    H113974   1.555   5.449   0.130
 4656TIP3    H213975   1.702   5.449   0.167
 4657TIP3   OH213976   3.666   2.526   0.877
 4657TIP3    H113977   3.728   2.530   0.950
 4657TIP3    H213978   3.604   2.597   0.894
 4658TIP3   OH213979   4.708   1.448   3.119
 4658TIP3    H113980   4.730   1.377   3.179
 4658TIP3    H213981   4.692   1.523   3.175
 4659TIP3   OH213982   2.656   2.551   0.815
 4659TIP3    H113983   2.732   2.603   0.788
 4659TIP3    H213984   2.691   2.464   0.832
 4660TIP3   OH213985   4.747   0.663   1.544
 4660TIP3    H113986   4.726   0.697   1.457
 4660TIP3    H213987   4.670   0.683   1.597
 4661TIP3   OH213988   2.648   3.437   0.620
 4661TIP3    H113989   2.589   3.362   0.626
 4661TIP3    H213990   2.663   3.449   0.526
 4662TIP3   OH213991   1.616   0.648   0.979
 4662TIP3    H113992   1.565   0.642   1.060
 4662TIP3    H213993   1.559   0.613   0.911
 4663TIP3   OH213994   5.712   3.307   4.406
 4663TIP3    H113995   5.681   3.391   4.441
 4663TIP3    H213996   5.635   3.251   4.407
 4664TIP3   OH213997   5.790   0.593   4.521
 4664TIP3    H113998   5.851   0.638   4.579
 4664TIP3    H213999   5.828   0.601   4.434
 4665TIP3   OH214000   6.338   0.809   2.018
 4665TIP3    H114001   6.364   0.861   1.942
 4665TIP3    H214002   6.243   0.820   2.023
 4666TIP3   OH214003   3.815   3.491   0.049
 4666TIP3    H114004   3.773   3.553   0.109
 4666TIP3    H214005   3.908   3.514   0.053
 4667TIP3   OH214006   0.860   0.241   1.021
 4667TIP3    H114007   0.876   0.172   1.085
 4667TIP3    H214008   0.866   0.323   1.072
 4668TIP3   OH214009   1.971   1.451   4.112
 4668TIP3    H114010   1.892   1.398   4.125
 4668TIP3    H214011   1.993   1.439   4.020
 4669TIP3   OH214012   2.453   1.876   5.054
 4669TIP3    H114013   2.537   1.910   5.022
 4669TIP3    H214014   2.469   1.783   5.068
 4670TIP3   OH214015   0.122   5.085   4.359
 4670TIP3    H114016   0.143   5.135   4.281
 4670TIP3    H214017   0.047   5.031   4.334
 4671TIP3   OH214018   5.301   1.632   3.899
 4671TIP3    H114019   5.365   1.664   3.962
 4671TIP3    H214020   5.318   1.683   3.819
 4672TIP3   OH214021   6.285   3.603   1.050
 4672TIP3    H114022   6.265   3.614   1.143
 4672TIP3    H214023   6.221   3.539   1.019
 4673TIP3   OH214024   1.966   2.031   4.379
 4673TIP3    H114025   2.045   2.052   4.329
 4673TIP3    H214026   1.895   2.073   4.330
 4674TIP3   OH214027   3.581   0.765   3.708
 4674TIP3    H114028   3.595   0.847   3.660
 4674TIP3    H214029   3.628   0.777   3.791
 4675TIP3   OH214030   3.449   1.924   2.861
 4675TIP3    H114031   3.381   1.962   2.917
 4675TIP3    H214032   3.444   1.974   2.780
 4676TIP3   OH214033   3.794   4.466   3.650
 4676TIP3    H114034   3.797   4.387   3.705
 4676TIP3    H214035   3.701   4.487   3.643
 4677TIP3   OH214036   1.421   1.284   3.430
 4677TIP3    H114037   1.430   1.364   3.483
 4677TIP3    H214038   1.500   1.234   3.449
 4678TIP3   OH214039   1.617   4.598   4.234
 4678TIP3    H114040   1.653   4.560   4.154
 4678TIP3    H214041   1.677   4.570   4.303
 4679TIP3   OH214042   2.890   4.680   4.098
 4679TIP3    H114043   2.835   4.614   4.140
 4679TIP3    H214044   2.910   4.744   4.167
 4680TIP3   OH214045   1.872   0.208   0.297
 4680TIP3    H114046   1.835   0.278   0.350
 4680TIP3    H214047   1.862   0.129   0.351
 4681TIP3   OH214048   5.630   5.386   4.900
 4681TIP3    H114049   5.586   5.303   4.918
 4681TIP3    H214050   5.560   5.451   4.900
 4682TIP3   OH214051   1.652   4.430   1.618
 4682TIP3    H114052   1.629   4.379   1.696
 4682TIP3    H214053   1.590   4.400   1.551
 4683TIP3   OH214054   2.497   2.616   0.146
 4683TIP3    H114055   2.455   2.642   0.065
 4683TIP3    H214056   2.431   2.564   0.192
 4684TIP3   OH214057   2.062   4.955   2.863
 4684TIP3    H114058   2.034   5.004   2.941
 4684TIP3    H214059   2.006   4.878   2.861
 4685TIP3   OH214060   5.834   3.890   2.441
 4685TIP3    H114061   5.769   3.822   2.424
 4685TIP3    H214062   5.819   3.915   2.532
 4686TIP3   OH214063   0.796   2.839   1.795
 4686TIP3    H114064   0.703   2.862   1.791
 4686TIP3    H214065   0.828   2.855   1.706
 4687TIP3   OH214066   0.209   4.502   4.132
 4687TIP3    H114067   0.243   4.591   4.144
 4687TIP3    H214068   0.249   4.451   4.202
 4688TIP3   OH214069   1.235   4.487   0.099
 4688TIP3    H114070   1.197   4.565   0.139
 4688TIP3    H214071   1.280   4.521   0.021
 4689TIP3   OH214072   1.657   0.763   3.271
 4689TIP3    H114073   1.747   0.781   3.245
 4689TIP3    H214074   1.605   0.824   3.220
 4690TIP3   OH214075   1.945   3.350   2.443
 4690TIP3    H114076   1.874   3.340   2.506
 4690TIP3    H214077   2.020   3.376   2.496
 4691TIP3   OH214078   5.652   2.667   4.475
 4691TIP3    H114079   5.588   2.597   4.472
 4691TIP3    H214080   5.626   2.721   4.549
 4692TIP3   OH214081   0.344   1.399   0.292
 4692TIP3    H114082   0.339   1.312   0.253
 4692TIP3    H214083   0.344   1.383   0.386
 4693TIP3   OH214084   4.639   3.710   0.045
 4693TIP3    H114085   4.600   3.797   0.059
 4693TIP3    H214086   4.707   3.703   0.111
 4694TIP3   OH214087   4.212   3.635   3.429
 4694TIP3    H114088   4.127   3.666   3.459
 4694TIP3    H214089   4.260   3.714   3.405
 4695TIP3   OH214090   5.820   2.910   1.342
 4695TIP3    H114091   5.819   2.817   1.366
 4695TIP3    H214092   5.739   2.923   1.293
 4696TIP3   OH214093   1.877   5.806   1.931
 4696TIP3    H114094   1.806   5.773   1.876
 4696TIP3    H214095   1.838   5.815   2.018
 4697TIP3   OH214096   1.110   3.492   1.638
 4697TIP3    H114097   1.129   3.408   1.598
 4697TIP3    H214098   1.101   3.552   1.564
 4698TIP3   OH214099   0.284   2.182   3.810
 4698TIP3    H114100   0.193   2.209   3.801
 4698TIP3    H214101   0.302   2.131   3.731
 4699TIP3   OH214102   0.085   3.849   4.214
 4699TIP3    H114103   0.029   3.889   4.147
 4699TIP3    H214104   0.095   3.758   4.185
 4700TIP3   OH214105   5.738   3.833   4.883
 4700TIP3    H114106   5.707   3.901   4.944
 4700TIP3    H214107   5.680   3.759   4.897
 4701TIP3   OH214108   5.068   0.448   1.554
 4701TIP3    H114109   5.140   0.386   1.566
 4701TIP3    H214110   5.077   0.479   1.464
 4702TIP3   OH214111   2.022   2.194   0.268
 4702TIP3    H114112   2.093   2.209   0.330
 4702TIP3    H214113   2.050   2.120   0.215
 4703TIP3   OH214114   3.312   5.762   2.205
 4703TIP3    H114115   3.269   5.829   2.152
 4703TIP3    H214116   3.396   5.748   2.162
 4704TIP3   OH214117   5.638   1.204   2.548
 4704TIP3    H114118   5.617   1.297   2.553
 4704TIP3    H214119   5.613   1.178   2.460
 4705TIP3   OH214120   2.903   4.782   2.888
 4705TIP3    H114121   2.878   4.843   2.819
 4705TIP3    H214122   2.863   4.699   2.862
 4706TIP3   OH214123   0.599   3.887   1.824
 4706TIP3    H114124   0.536   3.815   1.824
 4706TIP3    H214125   0.573   3.941   1.749
 4707TIP3   OH214126   5.891   5.681   0.745
 4707TIP3    H114127   5.823   5.748   0.750
 4707TIP3    H214128   5.877   5.639   0.660
 4708TIP3   OH214129   4.178   2.791   1.777
 4708TIP3    H114130   4.216   2.731   1.841
 4708TIP3    H214131   4.087   2.801   1.805
 4709TIP3   OH214132   6.002   5.673   3.394
 4709TIP3    H114133   6.088   5.635   3.375
 4709TIP3    H214134   5.939   5.605   3.368
 4710TIP3   OH214135   4.821   1.680   5.000
 4710TIP3    H114136   4.836   1.762   5.047
 4710TIP3    H214137   4.893   1.623   5.026
 4711TIP3   OH214138   5.210   0.740   1.103
 4711TIP3    H114139   5.288   0.791   1.079
 4711TIP3    H214140   5.142   0.806   1.118
 4712TIP3   OH214141   5.543   0.718   4.962
 4712TIP3    H114142   5.486   0.716   5.038
 4712TIP3    H214143   5.618   0.771   4.989
 4713TIP3   OH214144   2.558   5.134   2.311
 4713TIP3    H114145   2.517   5.207   2.265
 4713TIP3    H214146   2.486   5.091   2.356
 4714TIP3   OH214147   6.254   0.297   2.922
 4714TIP3    H114148   6.324   0.359   2.902
 4714TIP3    H214149   6.286   0.249   2.999
 4715TIP3   OH214150   2.177   0.279   4.478
 4715TIP3    H114151   2.188   0.217   4.406
 4715TIP3    H214152   2.083   0.281   4.493
 4716TIP3   OH214153   0.024   4.079   2.929
 4716TIP3    H114154   0.119   4.077   2.916
 4716TIP3    H214155   0.008   4.019   3.001
 4717TIP3   OH214156   4.017   5.399   0.920
 4717TIP3    H114157   3.963   5.419   0.844
 4717TIP3    H214158   4.031   5.483   0.963
 4718TIP3   OH214159   5.559   5.880   4.008
 4718TIP3    H114160   5.593   5.919   3.927
 4718TIP3    H214161   5.465   5.876   3.995
 4719TIP3   OH214162   3.156   0.429   3.612
 4719TIP3    H114163   3.233   0.478   3.582
 4719TIP3    H214164   3.120   0.389   3.533
 4720TIP3   OH214165   4.145   3.893   5.040
 4720TIP3    H114166   4.181   3.806   5.030
 4720TIP3    H214167   4.078   3.884   5.107
 4721TIP3   OH214168   6.285   5.458   2.988
 4721TIP3    H114169   6.310   5.527   2.926
 4721TIP3    H214170   6.334   5.381   2.958
 4722TIP3   OH214171   5.433   0.477   4.249
 4722TIP3    H114172   5.502   0.511   4.192
 4722TIP3    H214173   5.479   0.449   4.328
 4723TIP3   OH214174   0.613   4.111   0.261
 4723TIP3    H114175   0.518   4.104   0.269
 4723TIP3    H214176   0.629   4.205   0.248
 4724TIP3   OH214177   1.672   0.528   4.957
 4724TIP3    H114178   1.588   0.569   4.979
 4724TIP3    H214179   1.711   0.508   5.042
 4725TIP3   OH214180   0.906   1.880   1.542
 4725TIP3    H114181   0.880   1.954   1.597
 4725TIP3    H214182   0.992   1.855   1.575
 4726TIP3   OH214183   0.788   1.386   3.567
 4726TIP3    H114184   0.738   1.455   3.523
 4726TIP3    H214185   0.863   1.431   3.605
 4727TIP3   OH214186   5.618   2.080   4.203
 4727TIP3    H114187   5.614   2.024   4.280
 4727TIP3    H214188   5.527   2.097   4.181
 4728TIP3   OH214189   3.443   0.387   3.885
 4728TIP3    H114190   3.535   0.408   3.902
 4728TIP3    H214191   3.398   0.471   3.889
 4729TIP3   OH214192   0.224   5.004   4.040
 4729TIP3    H114193   0.133   5.032   4.035
 4729TIP3    H214194   0.260   5.023   3.953
 4730TIP3   OH214195   3.662   1.335   4.420
 4730TIP3    H114196   3.662   1.388   4.500
 4730TIP3    H214197   3.681   1.397   4.350
 4731TIP3   OH214198   3.370   1.699   1.709
 4731TIP3    H114199   3.425   1.764   1.754
 4731TIP3    H214200   3.374   1.724   1.617
 4732TIP3   OH214201   1.792   5.839   2.187
 4732TIP3    H114202   1.720   5.794   2.231
 4732TIP3    H214203   1.814   5.912   2.244
 4733TIP3   OH214204   3.916   2.476   3.272
 4733TIP3    H114205   3.927   2.571   3.272
 4733TIP3    H214206   3.940   2.448   3.184
 4734TIP3   OH214207   2.423   4.271   0.314
 4734TIP3    H114208   2.333   4.259   0.344
 4734TIP3    H214209   2.415   4.286   0.220
 4735TIP3   OH214210   2.028   0.013   3.729
 4735TIP3    H114211   1.952   0.069   3.749
 4735TIP3    H214212   2.104   0.065   3.752
 4736TIP3   OH214213   0.217   0.210   2.015
 4736TIP3    H114214   0.223   0.296   2.057
 4736TIP3    H214215   0.295   0.164   2.046
 4737TIP3   OH214216   1.245   2.794   3.391
 4737TIP3    H114217   1.201   2.856   3.450
 4737TIP3    H214218   1.337   2.802   3.413
 4738TIP3   OH214219   0.188   2.430   1.750
 4738TIP3    H114220   0.183   2.469   1.837
 4738TIP3    H214221   0.249   2.357   1.759
 4739TIP3   OH214222   4.259   2.287   1.160
 4739TIP3    H114223   4.202   2.307   1.086
 4739TIP3    H214224   4.212   2.321   1.236
 4740TIP3   OH214225   2.343   3.647   2.232
 4740TIP3    H114226   2.365   3.593   2.156
 4740TIP3    H214227   2.423   3.698   2.248
 4741TIP3   OH214228   0.053   5.973   2.920
 4741TIP3    H114229  -0.002   6.002   2.847
 4741TIP3    H214230   0.138   5.953   2.879
 4742TIP3   OH214231   5.568   2.339   0.392
 4742TIP3    H114232   5.543   2.248   0.407
 4742TIP3    H214233   5.662   2.341   0.411
 4743TIP3   OH214234   4.901   1.886   3.718
 4743TIP3    H114235   4.812   1.874   3.686
 4743TIP3    H214236   4.955   1.832   3.660
 4744TIP3   OH214237   2.688   4.251   5.031
 4744TIP3    H114238   2.607   4.273   5.077
 4744TIP3    H214239   2.720   4.334   4.997
 4745TIP3   OH214240   0.387   1.582   3.417
 4745TIP3    H114241   0.354   1.618   3.499
 4745TIP3    H214242   0.479   1.611   3.413
 4746TIP3   OH214243   4.828   1.341   2.858
 4746TIP3    H114244   4.778   1.371   2.934
 4746TIP3    H214245   4.913   1.385   2.866
 4747TIP3   OH214246   0.238   2.505   3.262
 4747TIP3    H114247   0.302   2.467   3.323
 4747TIP3    H214248   0.258   2.598   3.261
 4748TIP3   OH214249   6.181   4.539   2.007
 4748TIP3    H114250   6.176   4.605   1.937
 4748TIP3    H214251   6.179   4.455   1.961
 4749TIP3   OH214252   2.701   0.599   2.017
 4749TIP3    H114253   2.793   0.610   1.992
 4749TIP3    H214254   2.665   0.541   1.950
 4750TIP3   OH214255   3.143   2.184   2.797
 4750TIP3    H114256   3.173   2.243   2.866
 4750TIP3    H214257   3.059   2.221   2.769
 4751TIP3   OH214258   2.114   1.157   2.822
 4751TIP3    H114259   2.151   1.088   2.768
 4751TIP3    H214260   2.065   1.110   2.890
 4752TIP3   OH214261   2.194   2.048   0.904
 4752TIP3    H114262   2.244   1.974   0.939
 4752TIP3    H214263   2.172   2.101   0.981
 4753TIP3   OH214264   1.538   5.929   1.283
 4753TIP3    H114265   1.502   5.897   1.366
 4753TIP3    H214266   1.466   5.979   1.244
 4754TIP3   OH214267   0.780   5.108   0.102
 4754TIP3    H114268   0.873   5.120   0.119
 4754TIP3    H214269   0.758   5.175   0.037
 4755TIP3   OH214270   0.332   2.680   4.297
 4755TIP3    H114271   0.272   2.609   4.276
 4755TIP3    H214272   0.329   2.686   4.392
 4756TIP3   OH214273   4.069   3.781   1.201
 4756TIP3    H114274   4.025   3.808   1.281
 4756TIP3    H214275   4.061   3.857   1.143
 4757TIP3   OH214276   5.166   1.193   0.270
 4757TIP3    H114277   5.238   1.163   0.326
 4757TIP3    H214278   5.193   1.280   0.241
 4758TIP3   OH214279   6.151   2.329   0.237
 4758TIP3    H114280   6.177   2.261   0.300
 4758TIP3    H214281   6.226   2.338   0.178
 4759TIP3   OH214282   4.408   3.031   0.006
 4759TIP3    H114283   4.413   3.120   0.040
 4759TIP3    H214284   4.479   2.984   0.049
 4760TIP3   OH214285   5.944   1.794   4.299
 4760TIP3    H114286   6.016   1.773   4.358
 4760TIP3    H214287   5.867   1.797   4.355
 4761TIP3   OH214288   2.207   5.975   3.547
 4761TIP3    H114289   2.292   5.932   3.537
 4761TIP3    H214290   2.223   6.067   3.527
 4762TIP3   OH214291   0.398   5.814   0.947
 4762TIP3    H114292   0.466   5.784   1.008
 4762TIP3    H214293   0.447   5.857   0.877
 4763TIP3   OH214294   5.706   4.900   0.649
 4763TIP3    H114295   5.801   4.897   0.659
 4763TIP3    H214296   5.675   4.819   0.690
 4764TIP3   OH214297   1.841   4.871   2.484
 4764TIP3    H114298   1.746   4.866   2.499
 4764TIP3    H214299   1.850   4.872   2.389
 4765TIP3   OH214300   3.470   3.622   4.771
 4765TIP3    H114301   3.545   3.568   4.745
 4765TIP3    H214302   3.506   3.711   4.777
 4766TIP3   OH214303   1.258   0.400   3.776
 4766TIP3    H114304   1.184   0.456   3.800
 4766TIP3    H214305   1.218   0.323   3.735
 4767TIP3   OH214306   4.219   5.229   0.876
 4767TIP3    H114307   4.265   5.232   0.960
 4767TIP3    H214308   4.144   5.288   0.887
 4768TIP3   OH214309   0.864   1.865  -0.010
 4768TIP3    H114310   0.954   1.835  -0.025
 4768TIP3    H214311   0.819   1.790   0.028
 4769TIP3   OH214312   4.559   1.556   5.107
 4769TIP3    H114313   4.537   1.603   5.188
 4769TIP3    H214314   4.644   1.591   5.081
 4770TIP3   OH214315   3.106   4.328   3.242
 4770TIP3    H114316   3.066   4.254   3.198
 4770TIP3    H214317   3.080   4.404   3.190
 4771TIP3   OH214318   0.982   2.701   2.712
 4771TIP3    H114319   0.926   2.648   2.655
 4771TIP3    H214320   0.925   2.726   2.784
 4772TIP3   OH214321   0.571   5.094   0.636
 4772TIP3    H114322   0.608   5.134   0.558
 4772TIP3    H214323   0.641   5.038   0.670
 4773TIP3   OH214324   1.570   1.968   3.932
 4773TIP3    H114325   1.625   1.954   4.009
 4773TIP3    H214326   1.596   2.054   3.900
 4774TIP3   OH214327   1.191   0.770   4.003
 4774TIP3    H114328   1.232   0.698   4.051
 4774TIP3    H214329   1.101   0.772   4.035
 4775TIP3   OH214330   1.320   2.950   4.725
 4775TIP3    H114331   1.362   3.030   4.754
 4775TIP3    H214332   1.391   2.898   4.687
 4776TIP3   OH214333   0.852   4.183   4.285
 4776TIP3    H114334   0.891   4.100   4.314
 4776TIP3    H214335   0.758   4.170   4.297
 4777TIP3   OH214336   1.143   0.184   2.737
 4777TIP3    H114337   1.070   0.129   2.710
 4777TIP3    H214338   1.196   0.193   2.658
 4778TIP3   OH214339   5.733   3.217   3.636
 4778TIP3    H114340   5.728   3.308   3.665
 4778TIP3    H214341   5.738   3.166   3.716
 4779TIP3   OH214342   6.292   1.365   1.266
 4779TIP3    H114343   6.302   1.456   1.295
 4779TIP3    H214344   6.357   1.354   1.197
 4780TIP3   OH214345   3.507   3.637   1.749
 4780TIP3    H114346   3.425   3.686   1.743
 4780TIP3    H214347   3.565   3.679   1.686
 4781TIP3   OH214348   6.077   5.311   4.707
 4781TIP3    H114349   6.129   5.282   4.633
 4781TIP3    H214350   6.140   5.320   4.779
 4782TIP3   OH214351   2.265   0.483   0.737
 4782TIP3    H114352   2.334   0.533   0.695
 4782TIP3    H214353   2.199   0.471   0.669
 4783TIP3   OH214354   4.204   5.360   2.079
 4783TIP3    H114355   4.192   5.454   2.086
 4783TIP3    H214356   4.297   5.349   2.057
 4784TIP3   OH214357   1.983   0.535   1.941
 4784TIP3    H114358   2.047   0.523   1.871
 4784TIP3    H214359   1.909   0.579   1.898
 4785TIP3   OH214360   6.078   0.676   3.724
 4785TIP3    H114361   6.117   0.760   3.750
 4785TIP3    H214362   5.987   0.698   3.703
 4786TIP3   OH214363   5.520   3.470   1.302
 4786TIP3    H114364   5.556   3.428   1.380
 4786TIP3    H214365   5.595   3.478   1.242
 4787TIP3   OH214366   4.223   0.149   0.045
 4787TIP3    H114367   4.311   0.123   0.019
 4787TIP3    H214368   4.211   0.111   0.132
 4788TIP3   OH214369   5.628   1.503   2.080
 4788TIP3    H114370   5.706   1.560   2.081
 4788TIP3    H214371   5.659   1.420   2.117
 4789TIP3   OH214372   2.760   1.011   1.369
 4789TIP3    H114373   2.856   1.017   1.362
 4789TIP3    H214374   2.735   1.089   1.419
 4790TIP3   OH214375   4.940   0.317   4.728
 4790TIP3    H114376   4.938   0.343   4.820
 4790TIP3    H214377   4.898   0.389   4.681
 4791TIP3   OH214378   0.896   4.077   1.433
 4791TIP3    H114379   0.952   4.022   1.379
 4791TIP3    H214380   0.873   4.023   1.508
 4792TIP3   OH214381   4.598   3.033   2.104
 4792TIP3    H114382   4.525   3.010   2.162
 4792TIP3    H214383   4.629   3.118   2.136
 4793TIP3   OH214384   5.427   1.812   4.293
 4793TIP3    H114385   5.438   1.719   4.270
 4793TIP3    H214386   5.421   1.856   4.209
 4794TIP3   OH214387   0.679   1.263   1.123
 4794TIP3    H114388   0.585   1.261   1.108
 4794TIP3    H214389   0.708   1.346   1.085
 4795TIP3   OH214390   4.484   4.014   1.690
 4795TIP3    H114391   4.425   4.018   1.615
 4795TIP3    H214392   4.481   4.103   1.728
 4796TIP3   OH214393   1.839   3.288   2.829
 4796TIP3    H114394   1.755   3.275   2.874
 4796TIP3    H214395   1.864   3.200   2.800
 4797TIP3   OH214396   1.929   0.128   4.467
 4797TIP3    H114397   1.905   0.093   4.553
 4797TIP3    H214398   1.884   0.212   4.461
 4798TIP3   OH214399   3.624   4.645   5.175
 4798TIP3    H114400   3.688   4.715   5.159
 4798TIP3    H214401   3.588   4.626   5.089
 4799TIP3   OH214402   4.489   2.853   4.459
 4799TIP3    H114403   4.534   2.857   4.543
 4799TIP3    H214404   4.436   2.773   4.465
 4800TIP3   OH214405   0.737   5.667   3.168
 4800TIP3    H114406   0.659   5.658   3.223
 4800TIP3    H214407   0.809   5.643   3.226
 4801TIP3   OH214408   0.751   0.217   1.393
 4801TIP3    H114409   0.756   0.219   1.488
 4801TIP3    H214410   0.728   0.306   1.367
 4802TIP3   OH214411   1.003   2.541   2.386
 4802TIP3    H114412   0.938   2.548   2.456
 4802TIP3    H214413   1.077   2.496   2.426
 4803TIP3   OH214414   4.037   3.455   0.321
 4803TIP3    H114415   4.052   3.436   0.228
 4803TIP3    H214416   3.949   3.492   0.324
 4804TIP3   OH214417   2.164   5.945   2.962
 4804TIP3    H114418   2.161   6.005   2.888
 4804TIP3    H214419   2.119   5.867   2.931
 4805TIP3   OH214420   2.552   1.891   0.800
 4805TIP3    H114421   2.529   1.978   0.768
 4805TIP3    H214422   2.603   1.851   0.728
 4806TIP3   OH214423   5.164   4.755   3.906
 4806TIP3    H114424   5.163   4.763   3.811
 4806TIP3    H214425   5.115   4.675   3.924
 4807TIP3   OH214426   3.145   4.459   4.088
 4807TIP3    H114427   3.078   4.391   4.091
 4807TIP3    H214428   3.112   4.521   4.022
 4808TIP3   OH214429   2.051   4.777   0.635
 4808TIP3    H114430   2.069   4.799   0.543
 4808TIP3    H214431   2.137   4.756   0.671
 4809TIP3   OH214432   6.276   4.443   0.190
 4809TIP3    H114433   6.327   4.481   0.118
 4809TIP3    H214434   6.221   4.377   0.148
 4810TIP3   OH214435   4.527   5.184   2.303
 4810TIP3    H114436   4.481   5.131   2.368
 4810TIP3    H214437   4.587   5.122   2.261
 4811TIP3   OH214438   4.041   4.185   2.319
 4811TIP3    H114439   4.069   4.184   2.227
 4811TIP3    H214440   3.988   4.264   2.327
 4812TIP3   OH214441   2.999   0.980   1.459
 4812TIP3    H114442   3.028   0.910   1.518
 4812TIP3    H214443   2.989   1.057   1.516
 4813TIP3   OH214444   3.543   3.293   0.676
 4813TIP3    H114445   3.544   3.260   0.766
 4813TIP3    H214446   3.514   3.219   0.624
 4814TIP3   OH214447   5.370   2.995   2.384
 4814TIP3    H114448   5.368   2.976   2.291
 4814TIP3    H214449   5.458   3.029   2.400
 4815TIP3   OH214450   2.582   1.443   1.244
 4815TIP3    H114451   2.568   1.450   1.150
 4815TIP3    H214452   2.677   1.451   1.255
 4816TIP3   OH214453   2.848   3.497   4.813
 4816TIP3    H114454   2.895   3.560   4.760
 4816TIP3    H214455   2.777   3.466   4.756
 4817TIP3   OH214456   1.269   3.907   2.782
 4817TIP3    H114457   1.230   3.944   2.861
 4817TIP3    H214458   1.205   3.842   2.752
 4818TIP3   OH214459   0.970   0.174   0.754
 4818TIP3    H114460   0.974   0.186   0.849
 4818TIP3    H214461   0.926   0.252   0.722
 4819TIP3   OH214462   3.539   1.516   1.790
 4819TIP3    H114463   3.466   1.575   1.773
 4819TIP3    H214464   3.617   1.572   1.788
 4820TIP3   OH214465   1.980   4.605   2.522
 4820TIP3    H114466   2.053   4.654   2.484
 4820TIP3    H214467   1.942   4.558   2.448
 4821TIP3   OH214468   0.574   0.774   4.847
 4821TIP3    H114469   0.532   0.853   4.880
 4821TIP3    H214470   0.574   0.714   4.923
 4822TIP3   OH214471   4.738   3.294   1.578
 4822TIP3    H114472   4.833   3.297   1.581
 4822TIP3    H214473   4.717   3.268   1.488
 4823TIP3   OH214474   5.347   5.377   1.095
 4823TIP3    H114475   5.410   5.310   1.069
 4823TIP3    H214476   5.400   5.456   1.109
 4824TIP3   OH214477   2.384   2.987   4.804
 4824TIP3    H114478   2.474   3.000   4.775
 4824TIP3    H214479   2.391   2.946   4.890
 4825TIP3   OH214480   1.318   5.079   0.152
 4825TIP3    H114481   1.300   5.166   0.187
 4825TIP3    H214482   1.263   5.072   0.074
 4826TIP3   OH214483   4.187   5.860   0.830
 4826TIP3    H114484   4.211   5.774   0.794
 4826TIP3    H214485   4.110   5.886   0.779
 4827TIP3   OH214486   0.372   5.380   2.975
 4827TIP3    H114487   0.332   5.451   3.024
 4827TIP3    H214488   0.466   5.392   2.988
 4828TIP3   OH214489   0.330   0.976   1.429
 4828TIP3    H114490   0.392   1.006   1.363
 4828TIP3    H214491   0.316   1.053   1.485
 4829TIP3   OH214492   0.512   2.030   1.277
 4829TIP3    H114493   0.449   2.001   1.210
 4829TIP3    H214494   0.505   1.964   1.346
 4830TIP3   OH214495   4.185   3.649   2.752
 4830TIP3    H114496   4.198   3.554   2.748
 4830TIP3    H214497   4.102   3.664   2.708
 4831TIP3   OH214498   2.626   3.720   4.284
 4831TIP3    H114499   2.671   3.792   4.239
 4831TIP3    H214500   2.684   3.699   4.358
 4832TIP3   OH214501   4.187   4.175   0.860
 4832TIP3    H114502   4.218   4.089   0.833
 4832TIP3    H214503   4.180   4.225   0.779
 4833TIP3   OH214504   0.264   1.723   3.153
 4833TIP3    H114505   0.241   1.635   3.183
 4833TIP3    H214506   0.247   1.779   3.230
 4834TIP3   OH214507   2.014   1.670   3.231
 4834TIP3    H114508   2.004   1.749   3.283
 4834TIP3    H214509   1.932   1.663   3.181
 4835TIP3   OH214510   3.424   1.484   2.032
 4835TIP3    H114511   3.493   1.479   2.098
 4835TIP3    H214512   3.470   1.507   1.951
 4836TIP3   OH214513   2.527   0.792   2.135
 4836TIP3    H114514   2.595   0.737   2.096
 4836TIP3    H214515   2.494   0.845   2.063
 4837TIP3   OH214516   4.508   2.473   0.438
 4837TIP3    H114517   4.532   2.470   0.531
 4837TIP3    H214518   4.582   2.516   0.396
 4838TIP3   OH214519   4.893   3.067   5.035
 4838TIP3    H114520   4.918   3.090   4.945
 4838TIP3    H214521   4.943   3.128   5.090
 4839TIP3   OH214522   0.643   4.382   0.176
 4839TIP3    H114523   0.668   4.441   0.104
 4839TIP3    H214524   0.548   4.391   0.183
 4840TIP3   OH214525   4.810   3.564   4.036
 4840TIP3    H114526   4.772   3.493   3.986
 4840TIP3    H214527   4.763   3.563   4.120
 4841TIP3   OH214528   2.963   1.123   5.201
 4841TIP3    H114529   2.970   1.202   5.254
 4841TIP3    H214530   3.027   1.135   5.131
 4842TIP3   OH214531   2.931   0.751   1.292
 4842TIP3    H114532   2.860   0.689   1.276
 4842TIP3    H214533   2.898   0.811   1.357
 4843TIP3   OH214534   4.487   5.565   0.343
 4843TIP3    H114535   4.490   5.492   0.405
 4843TIP3    H214536   4.398   5.562   0.307
 4844TIP3   OH214537   2.630   5.908   0.825
 4844TIP3    H114538   2.680   5.871   0.897
 4844TIP3    H214539   2.598   5.833   0.776
 4845TIP3   OH214540   3.735   0.368   1.387
 4845TIP3    H114541   3.650   0.374   1.343
 4845TIP3    H214542   3.767   0.280   1.366
 4846TIP3   OH214543   0.437   0.084   3.385
 4846TIP3    H114544   0.456   0.037   3.466
 4846TIP3    H214545   0.507   0.060   3.325
 4847TIP3   OH214546   3.436   4.510   0.366
 4847TIP3    H114547   3.439   4.586   0.307
 4847TIP3    H214548   3.480   4.440   0.317
 4848TIP3   OH214549   3.094   5.189   4.547
 4848TIP3    H114550   3.098   5.274   4.591
 4848TIP3    H214551   3.162   5.193   4.480
 4849TIP3   OH214552   0.654   5.466   3.021
 4849TIP3    H114553   0.697   5.388   3.055
 4849TIP3    H214554   0.681   5.536   3.080
 4850TIP3   OH214555   3.644   0.983   3.125
 4850TIP3    H114556   3.700   0.914   3.162
 4850TIP3    H214557   3.704   1.039   3.076
 4851TIP3   OH214558   2.358   3.223   1.688
 4851TIP3    H114559   2.336   3.314   1.707
 4851TIP3    H214560   2.340   3.176   1.769
 4852TIP3   OH214561   3.264   2.370   1.771
 4852TIP3    H114562   3.273   2.362   1.866
 4852TIP3    H214563   3.343   2.416   1.743
 4853TIP3   OH214564   3.415   2.693   4.027
 4853TIP3    H114565   3.507   2.683   4.049
 4853TIP3    H214566   3.410   2.674   3.933
 4854TIP3   OH214567   3.139   4.830   2.993
 4854TIP3    H114568   3.044   4.819   2.984
 4854TIP3    H214569   3.156   4.915   2.952
 4855TIP3   OH214570   2.835   4.657   1.242
 4855TIP3    H114571   2.813   4.646   1.335
 4855TIP3    H214572   2.806   4.575   1.201
 4856TIP3   OH214573   3.594   5.189   4.230
 4856TIP3    H114574   3.580   5.155   4.142
 4856TIP3    H214575   3.680   5.155   4.255
 4857TIP3   OH214576   0.400   1.713   2.223
 4857TIP3    H114577   0.361   1.748   2.303
 4857TIP3    H214578   0.494   1.727   2.234
 4858TIP3   OH214579   3.672   3.562   3.685
 4858TIP3    H114580   3.661   3.598   3.773
 4858TIP3    H214581   3.585   3.565   3.646
 4859TIP3   OH214582   4.602   0.659   4.648
 4859TIP3    H114583   4.509   0.661   4.622
 4859TIP3    H214584   4.616   0.743   4.691
 4860TIP3   OH214585   6.082   4.866   2.528
 4860TIP3    H114586   6.017   4.839   2.463
 4860TIP3    H214587   6.036   4.861   2.612
 4861TIP3   OH214588   3.681   5.931   2.614
 4861TIP3    H114589   3.737   6.004   2.587
 4861TIP3    H214590   3.622   5.917   2.541
 4862TIP3   OH214591   3.566   2.243   1.031
 4862TIP3    H114592   3.506   2.316   1.045
 4862TIP3    H214593   3.508   2.169   1.009
 4863TIP3   OH214594   3.827   5.604   2.129
 4863TIP3    H114595   3.867   5.690   2.119
 4863TIP3    H214596   3.837   5.583   2.222
 4864TIP3   OH214597   5.891   1.913   0.323
 4864TIP3    H114598   5.870   1.831   0.277
 4864TIP3    H214599   5.924   1.971   0.254
 4865TIP3   OH214600   0.052   1.434   0.050
 4865TIP3    H114601  -0.016   1.463  -0.011
 4865TIP3    H214602   0.127   1.414  -0.006
 4866TIP3   OH214603   0.063   2.978   2.305
 4866TIP3    H114604   0.095   2.916   2.371
 4866TIP3    H214605  -0.022   2.944   2.278
 4867TIP3   OH214606   4.942   1.807   4.434
 4867TIP3    H114607   4.979   1.819   4.521
 4867TIP3    H214608   4.996   1.862   4.377
 4868TIP3   OH214609   5.025   0.870   1.338
 4868TIP3    H114610   5.069   0.909   1.414
 4868TIP3    H214611   4.995   0.785   1.368
 4869TIP3   OH214612   3.846   4.958   4.539
 4869TIP3    H114613   3.807   5.013   4.607
 4869TIP3    H214614   3.935   4.940   4.570
 4870TIP3   OH214615   3.530   1.710   5.032
 4870TIP3    H114616   3.456   1.732   5.089
 4870TIP3    H214617   3.607   1.722   5.087
 4871TIP3   OH214618   0.715   5.040   1.329
 4871TIP3    H114619   0.637   5.062   1.379
 4871TIP3    H214620   0.775   5.002   1.394
 4872TIP3   OH214621   1.076   1.833   2.345
 4872TIP3    H114622   1.121   1.851   2.262
 4872TIP3    H214623   1.128   1.764   2.386
 4873TIP3   OH214624   1.631   3.641   3.257
 4873TIP3    H114625   1.559   3.585   3.284
 4873TIP3    H214626   1.593   3.703   3.195
 4874TIP3   OH214627   3.002   0.426   2.063
 4874TIP3    H114628   3.023   0.421   1.970
 4874TIP3    H214629   2.940   0.354   2.077
 4875TIP3   OH214630   5.369   5.866   2.359
 4875TIP3    H114631   5.460   5.880   2.387
 4875TIP3    H214632   5.324   5.838   2.439
 4876TIP3   OH214633   1.786   2.158   3.553
 4876TIP3    H114634   1.839   2.093   3.599
 4876TIP3    H214635   1.828   2.242   3.575
 4877TIP3   OH214636   2.261   3.199   3.310
 4877TIP3    H114637   2.312   3.268   3.353
 4877TIP3    H214638   2.247   3.231   3.221
 4878TIP3   OH214639   0.279   3.513   2.793
 4878TIP3    H114640   0.353   3.455   2.775
 4878TIP3    H214641   0.265   3.505   2.887
 4879TIP3   OH214642   4.822   0.300   0.256
 4879TIP3    H114643   4.823   0.283   0.350
 4879TIP3    H214644   4.758   0.370   0.245
 4880TIP3   OH214645   5.972   3.948   1.730
 4880TIP3    H114646   5.984   3.992   1.815
 4880TIP3    H214647   5.879   3.926   1.728
 4881TIP3   OH214648   0.043   5.489   2.285
 4881TIP3    H114649  -0.047   5.516   2.265
 4881TIP3    H214650   0.097   5.543   2.227
 4882TIP3   OH214651   2.007   4.067   2.728
 4882TIP3    H114652   2.017   4.045   2.821
 4882TIP3    H214653   1.914   4.092   2.720
 4883TIP3   OH214654   6.312   1.626   0.667
 4883TIP3    H114655   6.272   1.584   0.591
 4883TIP3    H214656   6.255   1.604   0.741
 4884TIP3   OH214657   4.575   1.301   2.567
 4884TIP3    H114658   4.571   1.208   2.547
 4884TIP3    H214659   4.525   1.344   2.498
 4885TIP3   OH214660   6.145   0.129   3.276
 4885TIP3    H114661   6.229   0.104   3.314
 4885TIP3    H214662   6.131   0.066   3.205
 4886TIP3   OH214663   0.550   1.734   3.160
 4886TIP3    H114664   0.455   1.726   3.175
 4886TIP3    H214665   0.576   1.648   3.126
 4887TIP3   OH214666   3.509   0.939   1.575
 4887TIP3    H114667   3.519   1.029   1.604
 4887TIP3    H214668   3.526   0.886   1.653
 4888TIP3   OH214669   3.238   2.989   2.008
 4888TIP3    H114670   3.228   2.986   1.913
 4888TIP3    H214671   3.185   2.916   2.040
 4889TIP3   OH214672   2.439   2.667   4.294
 4889TIP3    H114673   2.517   2.682   4.242
 4889TIP3    H214674   2.368   2.660   4.230
 4890TIP3   OH214675   0.605   2.735   2.805
 4890TIP3    H114676   0.608   2.822   2.764
 4890TIP3    H214677   0.686   2.730   2.856
 4891TIP3   OH214678   0.989   2.854   4.796
 4891TIP3    H114679   1.082   2.863   4.776
 4891TIP3    H214680   0.953   2.942   4.780
 4892TIP3   OH214681   1.698   4.738   0.613
 4892TIP3    H114682   1.760   4.677   0.574
 4892TIP3    H214683   1.754   4.805   0.653
 4893TIP3   OH214684   4.606   5.609   0.909
 4893TIP3    H114685   4.585   5.682   0.967
 4893TIP3    H214686   4.652   5.546   0.965
 4894TIP3   OH214687   4.031   1.483   4.439
 4894TIP3    H114688   4.035   1.399   4.393
 4894TIP3    H214689   4.064   1.547   4.375
 4895TIP3   OH214690   3.148   1.861   0.187
 4895TIP3    H114691   3.222   1.813   0.149
 4895TIP3    H214692   3.181   1.896   0.269
 4896TIP3   OH214693   1.471   3.143   2.230
 4896TIP3    H114694   1.449   3.058   2.268
 4896TIP3    H214695   1.465   3.204   2.303
 4897TIP3   OH214696   4.247   2.584   4.906
 4897TIP3    H114697   4.256   2.669   4.948
 4897TIP3    H214698   4.160   2.586   4.866
 4898TIP3   OH214699   3.326   2.910   1.199
 4898TIP3    H114700   3.287   2.834   1.156
 4898TIP3    H214701   3.256   2.976   1.199
 4899TIP3   OH214702   3.660   2.897   2.666
 4899TIP3    H114703   3.694   2.973   2.713
 4899TIP3    H214704   3.662   2.826   2.730
 4900TIP3   OH214705   1.615   5.457   2.948
 4900TIP3    H114706   1.705   5.473   2.975
 4900TIP3    H214707   1.609   5.493   2.860
 4901TIP3   OH214708   3.366   2.005   4.002
 4901TIP3    H114709   3.447   2.045   4.034
 4901TIP3    H214710   3.392   1.918   3.971
 4902TIP3   OH214711   4.458   4.294   0.138
 4902TIP3    H114712   4.534   4.311   0.194
 4902TIP3    H214713   4.386   4.340   0.181
 4903TIP3   OH214714   1.313   1.262   4.076
 4903TIP3    H114715   1.341   1.263   3.985
 4903TIP3    H214716   1.345   1.344   4.113
 4904TIP3   OH214717   5.423   3.542   3.399
 4904TIP3    H114718   5.440   3.461   3.351
 4904TIP3    H214719   5.351   3.584   3.351
 4905TIP3   OH214720   5.377   2.420   4.042
 4905TIP3    H114721   5.427   2.491   4.082
 4905TIP3    H214722   5.307   2.464   3.994
 4906TIP3   OH214723   1.883   2.335   3.793
 4906TIP3    H114724   1.869   2.423   3.830
 4906TIP3    H214725   1.800   2.290   3.805
 4907TIP3   OH214726   3.202   1.410   1.896
 4907TIP3    H114727   3.181   1.316   1.895
 4907TIP3    H214728   3.293   1.414   1.925
 4908TIP3   OH214729   3.672   2.103   4.391
 4908TIP3    H114730   3.646   2.111   4.483
 4908TIP3    H214731   3.679   2.008   4.377
 4909TIP3   OH214732   6.139   5.429   0.998
 4909TIP3    H114733   6.045   5.449   0.998
 4909TIP3    H214734   6.173   5.474   0.921
 4910TIP3   OH214735   4.613   2.586   4.296
 4910TIP3    H114736   4.584   2.586   4.205
 4910TIP3    H214737   4.537   2.555   4.346
 4911TIP3   OH214738   3.473   4.756   0.857
 4911TIP3    H114739   3.477   4.758   0.762
 4911TIP3    H214740   3.524   4.679   0.882
 4912TIP3   OH214741   0.812   4.701   4.336
 4912TIP3    H114742   0.883   4.638   4.346
 4912TIP3    H214743   0.823   4.735   4.247
 4913TIP3   OH214744   2.563   5.858   4.461
 4913TIP3    H114745   2.485   5.806   4.444
 4913TIP3    H214746   2.608   5.812   4.531
 4914TIP3   OH214747   3.342   0.100   2.638
 4914TIP3    H114748   3.397   0.148   2.700
 4914TIP3    H214749   3.257   0.094   2.681
 4915TIP3   OH214750   0.048  -0.019   5.202
 4915TIP3    H114751   0.106   0.056   5.188
 4915TIP3    H214752   0.055  -0.038   5.296
 4916TIP3   OH214753   5.679   0.677   2.260
 4916TIP3    H114754   5.594   0.698   2.222
 4916TIP3    H214755   5.660   0.652   2.350
 4917TIP3   OH214756   3.534   2.314   3.194
 4917TIP3    H114757   3.456   2.354   3.232
 4917TIP3    H214758   3.514   2.221   3.188
 4918TIP3   OH214759   1.212   5.721   1.905
 4918TIP3    H114760   1.228   5.632   1.939
 4918TIP3    H214761   1.117   5.733   1.914
 4919TIP3   OH214762   0.489   4.492   5.146
 4919TIP3    H114763   0.540   4.573   5.141
 4919TIP3    H214764   0.405   4.514   5.106
 4920TIP3   OH214765   4.544   3.226   2.679
 4920TIP3    H114766   4.547   3.293   2.610
 4920TIP3    H214767   4.484   3.159   2.644
 4921TIP3   OH214768   0.819   1.870   1.058
 4921TIP3    H114769   0.893   1.814   1.034
 4921TIP3    H214770   0.806   1.852   1.151
 4922TIP3   OH214771   4.561   3.826   1.390
 4922TIP3    H114772   4.563   3.918   1.363
 4922TIP3    H214773   4.588   3.826   1.481
 4923TIP3   OH214774   1.385   1.932   0.066
 4923TIP3    H114775   1.356   2.019   0.096
 4923TIP3    H214776   1.386   1.879   0.146
 4924TIP3   OH214777   3.727   2.351   1.225
 4924TIP3    H114778   3.750   2.280   1.285
 4924TIP3    H214779   3.659   2.313   1.169
 4925TIP3   OH214780   4.655   2.122   1.179
 4925TIP3    H114781   4.591   2.055   1.201
 4925TIP3    H214782   4.602   2.199   1.158
 4926TIP3   OH214783   1.404   5.136   3.203
 4926TIP3    H114784   1.447   5.211   3.244
 4926TIP3    H214785   1.369   5.171   3.121
 4927TIP3   OH214786   0.919   4.047   0.201
 4927TIP3    H114787   0.870   4.127   0.221
 4927TIP3    H214788   0.881   4.015   0.119
 4928TIP3   OH214789   1.905   0.603   0.232
 4928TIP3    H114790   1.870   0.518   0.205
 4928TIP3    H214791   1.846   0.632   0.302
 4929TIP3   OH214792   4.836   1.412   2.213
 4929TIP3    H114793   4.818   1.319   2.226
 4929TIP3    H214794   4.796   1.433   2.129
 4930TIP3   OH214795   1.799   1.351   0.609
 4930TIP3    H114796   1.723   1.297   0.633
 4930TIP3    H214797   1.840   1.304   0.537
 4931TIP3   OH214798   0.260   2.138   1.606
 4931TIP3    H114799   0.299   2.190   1.535
 4931TIP3    H214800   0.325   2.140   1.676
 4932TIP3   OH214801   3.775   3.227   2.480
 4932TIP3    H114802   3.782   3.322   2.471
 4932TIP3    H214803   3.686   3.212   2.513
 4933TIP3   OH214804   6.062   4.128   3.654
 4933TIP3    H114805   5.986   4.069   3.662
 4933TIP3    H214806   6.134   4.071   3.627
 4934TIP3   OH214807   5.562   2.232   2.787
 4934TIP3    H114808   5.474   2.229   2.748
 4934TIP3    H214809   5.548   2.266   2.875
 4935TIP3   OH214810   1.836   5.313   1.487
 4935TIP3    H114811   1.858   5.291   1.396
 4935TIP3    H214812   1.915   5.356   1.521
 4936TIP3   OH214813   6.318   0.091   3.497
 4936TIP3    H114814   6.319   0.173   3.546
 4936TIP3    H214815   6.392   0.041   3.532
 4937TIP3   OH214816   0.499   4.314   2.996
 4937TIP3    H114817   0.505   4.232   2.948
 4937TIP3    H214818   0.502   4.288   3.088
 4938TIP3   OH214819   1.676   1.879   0.764
 4938TIP3    H114820   1.744   1.849   0.824
 4938TIP3    H214821   1.703   1.967   0.738
 4939TIP3   OH214822   5.672   3.224   0.409
 4939TIP3    H114823   5.694   3.195   0.321
 4939TIP3    H214824   5.738   3.290   0.430
 4940TIP3   OH214825   3.534   5.537   1.294
 4940TIP3    H114826   3.549   5.472   1.362
 4940TIP3    H214827   3.554   5.492   1.212
 4941TIP3   OH214828   5.955   2.345   2.578
 4941TIP3    H114829   6.007   2.265   2.578
 4941TIP3    H214830   5.896   2.335   2.503
 4942TIP3   OH214831   5.049   3.238   3.930
 4942TIP3    H114832   5.100   3.191   3.997
 4942TIP3    H214833   4.966   3.258   3.973
 4943TIP3   OH214834   5.204   3.517   1.730
 4943TIP3    H114835   5.266   3.444   1.738
 4943TIP3    H214836   5.179   3.537   1.820
 4944TIP3   OH214837   0.673   3.424   0.939
 4944TIP3    H114838   0.666   3.512   0.975
 4944TIP3    H214839   0.622   3.428   0.858
 4945TIP3   OH214840   1.541   5.452   4.444
 4945TIP3    H114841   1.564   5.425   4.355
 4945TIP3    H214842   1.482   5.383   4.475
 4946TIP3   OH214843   1.592   0.412   4.131
 4946TIP3    H114844   1.498   0.402   4.111
 4946TIP3    H214845   1.598   0.494   4.180
 4947TIP3   OH214846   1.835   2.247   4.572
 4947TIP3    H114847   1.761   2.299   4.541
 4947TIP3    H214848   1.909   2.278   4.519
 4948TIP3   OH214849   4.065   4.368   4.609
 4948TIP3    H114850   4.087   4.326   4.691
 4948TIP3    H214851   4.065   4.462   4.629
 4949TIP3   OH214852   1.234   0.199   1.923
 4949TIP3    H114853   1.315   0.198   1.870
 4949TIP3    H214854   1.215   0.292   1.936
 4950TIP3   OH214855   2.197   0.188   3.843
 4950TIP3    H114856   2.268   0.236   3.884
 4950TIP3    H214857   2.154   0.251   3.786
 4951TIP3   OH214858   0.569   2.184   4.400
 4951TIP3    H114859   0.516   2.263   4.391
 4951TIP3    H214860   0.509   2.120   4.438
 4952TIP3   OH214861   4.256   2.373   1.830
 4952TIP3    H114862   4.308   2.369   1.911
 4952TIP3    H214863   4.307   2.322   1.767
 4953TIP3   OH214864   2.977   1.741   5.032
 4953TIP3    H114865   3.005   1.809   4.971
 4953TIP3    H214866   2.924   1.681   4.980
 4954TIP3   OH214867   4.655   4.984   2.051
 4954TIP3    H114868   4.587   4.938   2.098
 4954TIP3    H214869   4.665   4.936   1.968
 4955TIP3   OH214870   4.471   0.888   0.011
 4955TIP3    H114871   4.523   0.839  -0.053
 4955TIP3    H214872   4.436   0.821   0.070
 4956TIP3   OH214873   2.545   2.936   3.527
 4956TIP3    H114874   2.465   2.887   3.508
 4956TIP3    H214875   2.614   2.886   3.484
 4957TIP3   OH214876   5.529   1.560   4.223
 4957TIP3    H114877   5.454   1.508   4.195
 4957TIP3    H214878   5.598   1.495   4.242
 4958TIP3   OH214879   3.492   5.473   4.121
 4958TIP3    H114880   3.406   5.431   4.119
 4958TIP3    H214881   3.548   5.414   4.071
 4959TIP3   OH214882   4.108   4.567   2.939
 4959TIP3    H114883   4.171   4.587   3.008
 4959TIP3    H214884   4.091   4.651   2.897
 4960TIP3   OH214885   3.023   5.084   2.432
 4960TIP3    H114886   3.003   5.175   2.454
 4960TIP3    H214887   2.941   5.049   2.398
 4961TIP3   OH214888   1.696   2.648   2.944
 4961TIP3    H114889   1.751   2.646   3.022
 4961TIP3    H214890   1.607   2.640   2.978
 4962TIP3   OH214891   1.200   4.873   4.212
 4962TIP3    H114892   1.163   4.789   4.238
 4962TIP3    H214893   1.260   4.851   4.140
 4963TIP3   OH214894   2.338   3.813   3.389
 4963TIP3    H114895   2.402   3.746   3.366
 4963TIP3    H214896   2.265   3.800   3.328
 4964TIP3   OH214897   6.220   4.626   1.074
 4964TIP3    H114898   6.170   4.661   1.148
 4964TIP3    H214899   6.260   4.546   1.109
 4965TIP3   OH214900   5.080   5.479   1.709
 4965TIP3    H114901   5.137   5.504   1.637
 4965TIP3    H214902   5.096   5.385   1.722
 4966TIP3   OH214903   3.404   5.598   2.879
 4966TIP3    H114904   3.324   5.636   2.840
 4966TIP3    H214905   3.475   5.636   2.828
 4967TIP3   OH214906   6.304   0.775   2.333
 4967TIP3    H114907   6.344   0.739   2.254
 4967TIP3    H214908   6.353   0.856   2.349
 4968TIP3   OH214909   4.811   4.098   0.766
 4968TIP3    H114910   4.785   4.065   0.852
 4968TIP3    H214911   4.730   4.104   0.717
 4969TIP3   OH214912   2.979   2.585   1.723
 4969TIP3    H114913   2.898   2.574   1.673
 4969TIP3    H214914   2.974   2.520   1.793
 4970TIP3   OH214915   2.758   4.251   2.236
 4970TIP3    H114916   2.717   4.264   2.321
 4970TIP3    H214917   2.688   4.267   2.172
 4971TIP3   OH214918   3.553   1.222   1.693
 4971TIP3    H114919   3.554   1.314   1.665
 4971TIP3    H214920   3.585   1.224   1.783
 4972TIP3   OH214921   0.183   4.952   1.869
 4972TIP3    H114922   0.225   5.038   1.875
 4972TIP3    H214923   0.122   4.960   1.796
 4973TIP3   OH214924   1.629   1.389   4.629
 4973TIP3    H114925   1.674   1.465   4.666
 4973TIP3    H214926   1.587   1.422   4.550
 4974TIP3   OH214927   5.922   2.858   0.690
 4974TIP3    H114928   5.951   2.768   0.682
 4974TIP3    H214929   5.992   2.910   0.651
 4975TIP3   OH214930   2.217   3.484   1.718
 4975TIP3    H114931   2.242   3.574   1.737
 4975TIP3    H214932   2.164   3.457   1.793
 4976TIP3   OH214933   4.924   3.221   2.946
 4976TIP3    H114934   4.969   3.198   2.864
 4976TIP3    H214935   4.831   3.211   2.925
 4977TIP3   OH214936   6.071   2.717   4.615
 4977TIP3    H114937   6.046   2.695   4.525
 4977TIP3    H214938   6.166   2.708   4.616
 4978TIP3   OH214939   4.451   1.804   2.237
 4978TIP3    H114940   4.484   1.717   2.213
 4978TIP3    H214941   4.529   1.853   2.265
 4979TIP3   OH214942   4.977   5.344   2.201
 4979TIP3    H114943   5.052   5.284   2.193
 4979TIP3    H214944   4.996   5.395   2.280
 4980TIP3   OH214945   5.287   3.450   4.021
 4980TIP3    H114946   5.321   3.372   4.064
 4980TIP3    H214947   5.332   3.523   4.064
 4981TIP3   OH214948   3.046   1.509   4.802
 4981TIP3    H114949   2.956   1.527   4.828
 4981TIP3    H214950   3.099   1.537   4.877
 4982TIP3   OH214951   4.574   0.878   4.431
 4982TIP3    H114952   4.579   0.782   4.428
 4982TIP3    H214953   4.605   0.900   4.519
 4983TIP3   OH214954   2.049   2.149   3.237
 4983TIP3    H114955   2.090   2.087   3.176
 4983TIP3    H214956   1.959   2.159   3.203
 4984TIP3   OH214957   0.740   2.229   3.512
 4984TIP3    H114958   0.821   2.280   3.517
 4984TIP3    H214959   0.694   2.251   3.593
 4985TIP3   OH214960   1.561   0.848   0.703
 4985TIP3    H114961   1.530   0.927   0.748
 4985TIP3    H214962   1.514   0.777   0.746
 4986TIP3   OH214963   5.596   4.168   1.584
 4986TIP3    H114964   5.563   4.258   1.586
 4986TIP3    H214965   5.670   4.171   1.523
 4987TIP3   OH214966   2.559   1.972   1.193
 4987TIP3    H114967   2.514   1.905   1.141
 4987TIP3    H214968   2.625   2.008   1.134
 4988TIP3   OH214969   3.852   2.118   4.678
 4988TIP3    H114970   3.877   2.059   4.749
 4988TIP3    H214971   3.759   2.134   4.692
 4989TIP3   OH214972   3.376   5.561   3.752
 4989TIP3    H114973   3.285   5.552   3.782
 4989TIP3    H214974   3.410   5.472   3.751
 4990TIP3   OH214975   4.372   1.030   0.750
 4990TIP3    H114976   4.463   1.052   0.770
 4990TIP3    H214977   4.342   1.102   0.695
 4991TIP3   OH214978   4.290   2.802   2.263
 4991TIP3    H114979   4.226   2.821   2.332
 4991TIP3    H214980   4.335   2.885   2.249
 4992TIP3   OH214981   3.987   5.598   4.841
 4992TIP3    H114982   3.955   5.557   4.921
 4992TIP3    H214983   3.955   5.542   4.770
 4993TIP3   OH214984   5.743   0.821   0.556
 4993TIP3    H114985   5.778   0.910   0.547
 4993TIP3    H214986   5.821   0.766   0.564
 4994TIP3   OH214987   6.112   1.858   4.085
 4994TIP3    H114988   6.138   1.770   4.057
 4994TIP3    H214989   6.041   1.843   4.148
 4995TIP3   OH214990   0.237   1.257   5.227
 4995TIP3    H114991   0.226   1.352   5.219
 4995TIP3    H214992   0.179   1.221   5.161
 4996TIP3   OH214993   1.313   4.934   3.352
 4996TIP3    H114994   1.344   5.015   3.311
 4996TIP3    H214995   1.354   4.864   3.300
 4997TIP3   OH214996   5.295   1.436   1.274
 4997TIP3    H114997   5.210   1.436   1.317
 4997TIP3    H214998   5.358   1.441   1.345
 4998TIP3   OH214999   3.347   0.129   1.411
 4998TIP3    H115000   3.381   0.134   1.321
 4998TIP3    H215001   3.325   0.220   1.433
 4999TIP3   OH215002   4.127   0.919   2.710
 4999TIP3    H115003   4.115   0.923   2.615
 4999TIP3    H215004   4.045   0.953   2.746
 5000TIP3   OH215005   1.867   0.716   4.824
 5000TIP3    H115006   1.856   0.808   4.847
 5000TIP3    H215007   1.802   0.670   4.877
 5001TIP3   OH215008   0.874   1.267   4.817
 5001TIP3    H115009   0.899   1.346   4.770
 5001TIP3    H215010   0.957   1.223   4.836
 5002TIP3   OH215011   1.596   1.412   4.970
 5002TIP3    H115012   1.602   1.479   5.038
 5002TIP3    H215013   1.538   1.450   4.904
 5003TIP3   OH215014   4.031   1.284   3.256
 5003TIP3    H115015   4.126   1.292   3.249
 5003TIP3    H215016   4.010   1.201   3.212
 5004TIP3   OH215017   0.584   2.897   3.843
 5004TIP3    H115018   0.526   2.829   3.878
 5004TIP3    H215019   0.608   2.949   3.919
 5005TIP3   OH215020   0.168   5.125   0.107
 5005TIP3    H115021   0.121   5.072   0.172
 5005TIP3    H215022   0.173   5.212   0.147
 5006TIP3   OH215023   0.125   2.867   0.436
 5006TIP3    H115024   0.107   2.822   0.519
 5006TIP3    H215025   0.201   2.821   0.401
 5007TIP3   OH215026   0.478   3.579   1.514
 5007TIP3    H115027   0.417   3.560   1.443
 5007TIP3    H215028   0.558   3.606   1.471
 5008TIP3   OH215029   1.594   2.334   4.419
 5008TIP3    H115030   1.526   2.341   4.486
 5008TIP3    H215031   1.573   2.404   4.357
 5009TIP3   OH215032   4.432   5.042   2.503
 5009TIP3    H115033   4.345   5.003   2.496
 5009TIP3    H215034   4.474   4.993   2.574
 5010TIP3   OH215035   2.501   1.651   1.770
 5010TIP3    H115036   2.505   1.729   1.825
 5010TIP3    H215037   2.480   1.684   1.683
 5011TIP3   OH215038   0.537   4.895   4.972
 5011TIP3    H115039   0.576   4.816   5.007
 5011TIP3    H215040   0.548   4.961   5.041
 5012TIP3   OH215041   2.489   5.075   3.998
 5012TIP3    H115042   2.536   5.014   4.055
 5012TIP3    H215043   2.462   5.022   3.923
 5013TIP3   OH215044   6.263   0.174   4.019
 5013TIP3    H115045   6.354   0.200   4.004
 5013TIP3    H215046   6.247   0.197   4.111
 5014TIP3   OH215047   4.540   4.511   3.951
 5014TIP3    H115048   4.555   4.417   3.959
 5014TIP3    H215049   4.444   4.519   3.946
 5015TIP3   OH215050   4.372   0.605   4.533
 5015TIP3    H115051   4.307   0.534   4.529
 5015TIP3    H215052   4.320   0.685   4.540
 5016TIP3   OH215053   5.649   0.161   2.137
 5016TIP3    H115054   5.619   0.173   2.047
 5016TIP3    H215055   5.637   0.246   2.178
 5017TIP3   OH215056   4.691   1.600   1.322
 5017TIP3    H115057   4.677   1.685   1.280
 5017TIP3    H215058   4.781   1.604   1.354
 5018TIP3   OH215059   0.549   3.075   3.496
 5018TIP3    H115060   0.495   3.128   3.554
 5018TIP3    H215061   0.497   3.065   3.416
 5019TIP3   OH215062   2.882   4.452   0.954
 5019TIP3    H115063   2.881   4.519   0.886
 5019TIP3    H215064   2.799   4.464   1.000
 5020TIP3   OH215065   4.185   3.208   2.917
 5020TIP3    H115066   4.106   3.217   2.970
 5020TIP3    H215067   4.247   3.271   2.954
 5021TIP3   OH215068   1.183   3.180   1.520
 5021TIP3    H115069   1.276   3.196   1.503
 5021TIP3    H215070   1.137   3.237   1.459
 5022TIP3   OH215071   2.827   3.626   4.465
 5022TIP3    H115072   2.890   3.662   4.528
 5022TIP3    H215073   2.880   3.573   4.406
 5023TIP3   OH215074   3.961   3.746   2.625
 5023TIP3    H115075   3.958   3.835   2.590
 5023TIP3    H215076   3.921   3.692   2.557
 5024TIP3   OH215077   6.146   2.649   2.320
 5024TIP3    H115078   6.099   2.599   2.253
 5024TIP3    H215079   6.232   2.608   2.325
 5025TIP3   OH215080   5.038   4.173   1.835
 5025TIP3    H115081   5.134   4.176   1.827
 5025TIP3    H215082   5.015   4.253   1.881
 5026TIP3   OH215083   3.288   4.691   4.854
 5026TIP3    H115084   3.266   4.703   4.761
 5026TIP3    H215085   3.372   4.736   4.865
 5027TIP3   OH215086   2.960   0.431   4.804
 5027TIP3    H115087   2.936   0.518   4.836
 5027TIP3    H215088   3.016   0.448   4.729
 5028TIP3   OH215089   2.414   3.861   2.568
 5028TIP3    H115090   2.429   3.776   2.609
 5028TIP3    H215091   2.473   3.862   2.493
 5029TIP3   OH215092   5.490   2.619   2.129
 5029TIP3    H115093   5.557   2.550   2.125
 5029TIP3    H215094   5.511   2.667   2.209
 5030TIP3   OH215095   5.475   1.819   0.299
 5030TIP3    H115096   5.555   1.782   0.338
 5030TIP3    H215097   5.404   1.769   0.340
 5031TIP3   OH215098   4.514   4.038   3.467
 5031TIP3    H115099   4.447   3.998   3.411
 5031TIP3    H215100   4.481   4.126   3.484
 5032TIP3   OH215101   5.267   5.544   1.520
 5032TIP3    H115102   5.332   5.546   1.590
 5032TIP3    H215103   5.293   5.471   1.465
 5033TIP3   OH215104   6.330   2.217   2.376
 5033TIP3    H115105   6.249   2.206   2.327
 5033TIP3    H215106   6.350   2.130   2.410
 5034TIP3   OH215107   5.661   0.317   2.937
 5034TIP3    H115108   5.570   0.293   2.921
 5034TIP3    H215109   5.665   0.332   3.031
 5035TIP3   OH215110   3.717   3.307   1.352
 5035TIP3    H115111   3.671   3.226   1.329
 5035TIP3    H215112   3.671   3.376   1.304
 5036TIP3   OH215113   3.278   4.128   4.662
 5036TIP3    H115114   3.242   4.214   4.640
 5036TIP3    H215115   3.215   4.092   4.725
 5037TIP3   OH215116   5.584   2.849   3.943
 5037TIP3    H115117   5.668   2.819   3.910
 5037TIP3    H215118   5.546   2.897   3.869
 5038TIP3   OH215119   3.886   0.988   0.981
 5038TIP3    H115120   3.915   0.899   0.960
 5038TIP3    H215121   3.926   1.042   0.912
 5039TIP3   OH215122   3.188   3.462   2.813
 5039TIP3    H115123   3.247   3.499   2.878
 5039TIP3    H215124   3.224   3.375   2.795
 5040TIP3   OH215125   5.469   1.869   3.742
 5040TIP3    H115126   5.475   1.845   3.835
 5040TIP3    H215127   5.542   1.929   3.729
 5041TIP3   OH215128   5.352   5.762   5.096
 5041TIP3    H115129   5.381   5.696   5.033
 5041TIP3    H215130   5.282   5.719   5.145
 5042TIP3   OH215131   1.544   3.357   0.894
 5042TIP3    H115132   1.498   3.311   0.824
 5042TIP3    H215133   1.632   3.321   0.892
 5043TIP3   OH215134   5.232   3.214   3.124
 5043TIP3    H115135   5.169   3.287   3.123
 5043TIP3    H215136   5.246   3.195   3.031
 5044TIP3   OH215137   1.357   1.215   1.539
 5044TIP3    H115138   1.327   1.154   1.472
 5044TIP3    H215139   1.345   1.302   1.500
 5045TIP3   OH215140   2.114   0.803   2.905
 5045TIP3    H115141   2.051   0.875   2.908
 5045TIP3    H215142   2.195   0.840   2.938
 5046TIP3   OH215143   5.367   5.631   3.434
 5046TIP3    H115144   5.423   5.591   3.368
 5046TIP3    H215145   5.290   5.573   3.439
 5047TIP3   OH215146   4.511   5.201   3.466
 5047TIP3    H115147   4.450   5.257   3.515
 5047TIP3    H215148   4.582   5.260   3.442
 5048TIP3   OH215149   4.857   3.154   0.106
 5048TIP3    H115150   4.942   3.193   0.084
 5048TIP3    H215151   4.856   3.071   0.058
 5049TIP3   OH215152   1.719   4.822   0.133
 5049TIP3    H115153   1.681   4.897   0.179
 5049TIP3    H215154   1.705   4.842   0.040
 5050TIP3   OH215155   2.022   2.405   2.321
 5050TIP3    H115156   1.971   2.426   2.400
 5050TIP3    H215157   1.957   2.374   2.258
 5051TIP3   OH215158   4.106   5.612   1.042
 5051TIP3    H115159   4.135   5.618   0.951
 5051TIP3    H215160   4.110   5.702   1.074
 5052TIP3   OH215161   2.571   2.701   1.290
 5052TIP3    H115162   2.581   2.751   1.371
 5052TIP3    H215163   2.602   2.614   1.312
 5053TIP3   OH215164   2.966   0.867   5.110
 5053TIP3    H115165   2.928   0.952   5.134
 5053TIP3    H215166   3.012   0.884   5.028
 5054TIP3   OH215167   5.412   2.461   1.765
 5054TIP3    H115168   5.461   2.535   1.729
 5054TIP3    H215169   5.334   2.500   1.804
 5055TIP3   OH215170   2.494   0.818   2.717
 5055TIP3    H115171   2.471   0.763   2.792
 5055TIP3    H215172   2.510   0.757   2.646
 5056TIP3   OH215173   0.522   5.645   1.880
 5056TIP3    H115174   0.585   5.601   1.937
 5056TIP3    H215175   0.440   5.597   1.894
 5057TIP3   OH215176   3.622   1.836   4.337
 5057TIP3    H115177   3.556   1.776   4.304
 5057TIP3    H215178   3.679   1.782   4.392
 5058TIP3   OH215179   3.300   4.896   2.394
 5058TIP3    H115180   3.282   4.863   2.306
 5058TIP3    H215181   3.221   4.876   2.444
 5059TIP3   OH215182   4.988   2.210   2.319
 5059TIP3    H115183   4.990   2.192   2.225
 5059TIP3    H215184   5.027   2.297   2.328
 5060TIP3   OH215185   2.304   0.920   5.105
 5060TIP3    H115186   2.270   1.009   5.102
 5060TIP3    H215187   2.271   0.878   5.026
 5061TIP3   OH215188   0.319   2.564   1.297
 5061TIP3    H115189   0.371   2.533   1.372
 5061TIP3    H215190   0.367   2.639   1.264
 5062TIP3   OH215191   0.992   3.138   0.327
 5062TIP3    H115192   1.037   3.159   0.409
 5062TIP3    H215193   1.046   3.069   0.287
 5063TIP3   OH215194   3.901   2.503   4.270
 5063TIP3    H115195   3.862   2.564   4.332
 5063TIP3    H215196   3.913   2.555   4.190
 5064TIP3   OH215197   0.207   2.442   2.855
 5064TIP3    H115198   0.217   2.533   2.882
 5064TIP3    H215199   0.289   2.401   2.882
 5065TIP3   OH215200   4.703   3.601   3.431
 5065TIP3    H115201   4.796   3.609   3.452
 5065TIP3    H215202   4.684   3.679   3.379
 5066TIP3   OH215203   1.718   5.145   4.217
 5066TIP3    H115204   1.765   5.125   4.136
 5066TIP3    H215205   1.626   5.127   4.196
 5067TIP3   OH215206   5.432   1.269   3.462
 5067TIP3    H115207   5.431   1.180   3.498
 5067TIP3    H215208   5.523   1.296   3.468
 5068TIP3   OH215209   0.596   0.768   2.286
 5068TIP3    H115210   0.666   0.831   2.302
 5068TIP3    H215211   0.612   0.736   2.197
 5069TIP3   OH215212   4.933   2.217   3.488
 5069TIP3    H115213   4.914   2.126   3.463
 5069TIP3    H215214   4.896   2.269   3.416
 5070TIP3   OH215215   2.964   3.851   3.241
 5070TIP3    H115216   2.922   3.880   3.322
 5070TIP3    H215217   2.906   3.783   3.206
 5071TIP3   OH215218   3.197   3.680   1.400
 5071TIP3    H115219   3.133   3.726   1.346
 5071TIP3    H215220   3.278   3.730   1.389
 5072TIP3   OH215221   2.980   2.673   1.313
 5072TIP3    H115222   3.052   2.649   1.371
 5072TIP3    H215223   2.928   2.735   1.364
 5073TIP3   OH215224   5.302   2.840   5.020
 5073TIP3    H115225   5.273   2.931   5.024
 5073TIP3    H215226   5.221   2.789   5.023
 5074TIP3   OH215227   3.445   2.306   4.472
 5074TIP3    H115228   3.464   2.305   4.565
 5074TIP3    H215229   3.441   2.214   4.447
 5075TIP3   OH215230   5.468   1.429   4.907
 5075TIP3    H115231   5.502   1.360   4.964
 5075TIP3    H215232   5.447   1.384   4.825
 5076TIP3   OH215233   2.217   1.568   3.073
 5076TIP3    H115234   2.142   1.612   3.114
 5076TIP3    H215235   2.290   1.630   3.083
 5077TIP3   OH215236   1.053   4.706   2.639
 5077TIP3    H115237   1.037   4.791   2.596
 5077TIP3    H215238   0.972   4.657   2.626
 5078TIP3   OH215239   0.611   1.513   2.996
 5078TIP3    H115240   0.673   1.469   2.938
 5078TIP3    H215241   0.526   1.474   2.974
 5079TIP3   OH215242   4.534   2.601   1.946
 5079TIP3    H115243   4.455   2.621   1.996
 5079TIP3    H215244   4.600   2.663   1.979
 5080TIP3   OH215245   4.686   5.245   1.931
 5080TIP3    H115246   4.697   5.153   1.954
 5080TIP3    H215247   4.709   5.249   1.838
 5081TIP3   OH215248   3.430   2.577   1.324
 5081TIP3    H115249   3.338   2.598   1.339
 5081TIP3    H215250   3.430   2.513   1.254
 5082TIP3   OH215251   2.691   0.241   0.779
 5082TIP3    H115252   2.668   0.226   0.871
 5082TIP3    H215253   2.658   0.329   0.760
 5083TIP3   OH215254   3.927   1.014   4.925
 5083TIP3    H115255   3.853   0.955   4.941
 5083TIP3    H215256   3.965   1.029   5.012
 5084TIP3   OH215257   3.849   1.250   4.001
 5084TIP3    H115258   3.925   1.262   4.058
 5084TIP3    H215259   3.785   1.204   4.055
 5085TIP3   OH215260   0.388   5.666   0.445
 5085TIP3    H115261   0.374   5.741   0.388
 5085TIP3    H215262   0.325   5.679   0.516
 5086TIP3   OH215263   1.780   4.796   1.976
 5086TIP3    H115264   1.838   4.733   1.933
 5086TIP3    H215265   1.705   4.743   2.005
 5087TIP3   OH215266   5.483   2.734   2.389
 5087TIP3    H115267   5.440   2.818   2.406
 5087TIP3    H215268   5.446   2.674   2.453
 5088TIP3   OH215269   0.065   1.910   1.016
 5088TIP3    H115270   0.097   1.823   1.041
 5088TIP3    H215271   0.144   1.962   1.005
 5089TIP3   OH215272   0.212   4.986   3.772
 5089TIP3    H115273   0.275   5.053   3.742
 5089TIP3    H215274   0.140   4.992   3.708
 5090TIP3   OH215275   2.347   3.337   2.292
 5090TIP3    H115276   2.372   3.251   2.261
 5090TIP3    H215277   2.258   3.349   2.260
 5091TIP3   OH215278   4.680   0.872   3.556
 5091TIP3    H115279   4.773   0.880   3.579
 5091TIP3    H215280   4.670   0.921   3.475
 5092TIP3   OH215281   3.119   3.122   0.764
 5092TIP3    H115282   3.179   3.153   0.696
 5092TIP3    H215283   3.107   3.029   0.745
 5093TIP3   OH215284   3.366   5.926   3.355
 5093TIP3    H115285   3.404   5.894   3.274
 5093TIP3    H215286   3.334   5.848   3.400
 5094TIP3   OH215287   6.176   4.509   1.377
 5094TIP3    H115288   6.242   4.560   1.424
 5094TIP3    H215289   6.216   4.423   1.366
 5095TIP3   OH215290   2.049   2.819   3.579
 5095TIP3    H115291   2.096   2.752   3.628
 5095TIP3    H215292   2.072   2.802   3.487
 5096TIP3   OH215293   5.352   0.125   2.075
 5096TIP3    H115294   5.422   0.101   2.136
 5096TIP3    H215295   5.322   0.042   2.038
 5097TIP3   OH215296   1.722   2.359   1.017
 5097TIP3    H115297   1.717   2.360   1.112
 5097TIP3    H215298   1.740   2.450   0.992
 5098TIP3   OH215299   6.098   0.789   1.602
 5098TIP3    H115300   6.007   0.766   1.588
 5098TIP3    H215301   6.096   0.879   1.634
 5099TIP3   OH215302   5.158   5.220   1.574
 5099TIP3    H115303   5.243   5.263   1.559
 5099TIP3    H215304   5.110   5.233   1.493
 5100TIP3   OH215305   0.823   3.889   0.995
 5100TIP3    H115306   0.883   3.887   0.920
 5100TIP3    H215307   0.839   3.975   1.035
 5101TIP3   OH215308   5.362   5.121   2.931
 5101TIP3    H115309   5.308   5.166   2.997
 5101TIP3    H215310   5.366   5.183   2.858
 5102TIP3   OH215311   2.688   2.947   1.692
 5102TIP3    H115312   2.604   2.911   1.720
 5102TIP3    H215313   2.708   3.015   1.756
 5103TIP3   OH215314   5.295   5.385   3.630
 5103TIP3    H115315   5.356   5.339   3.573
 5103TIP3    H215316   5.224   5.323   3.645
 5104TIP3   OH215317   4.616   3.916   5.050
 5104TIP3    H115318   4.659   3.995   5.018
 5104TIP3    H215319   4.578   3.941   5.134
 5105TIP3   OH215320   4.798   1.518   4.361
 5105TIP3    H115321   4.764   1.474   4.439
 5105TIP3    H215322   4.740   1.490   4.290
 5106TIP3   OH215323   3.940   0.726   0.901
 5106TIP3    H115324   3.890   0.647   0.922
 5106TIP3    H215325   4.024   0.714   0.945
 5107TIP3   OH215326   4.906   4.871   4.927
 5107TIP3    H115327   4.994   4.878   4.963
 5107TIP3    H215328   4.911   4.798   4.865
 5108TIP3   OH215329   4.297   4.978   3.249
 5108TIP3    H115330   4.330   4.945   3.333
 5108TIP3    H215331   4.202   4.987   3.263
 5109TIP3   OH215332   1.807   4.313   0.380
 5109TIP3    H115333   1.889   4.275   0.347
 5109TIP3    H215334   1.824   4.329   0.473
 5110TIP3   OH215335   6.290   4.098   1.814
 5110TIP3    H115336   6.283   4.165   1.746
 5110TIP3    H215337   6.222   4.121   1.878
 5111TIP3   OH215338   2.202   5.556   1.342
 5111TIP3    H115339   2.298   5.553   1.339
 5111TIP3    H215340   2.182   5.643   1.379
 5112TIP3   OH215341   1.967   5.091   3.087
 5112TIP3    H115342   1.957   5.107   3.181
 5112TIP3    H215343   1.884   5.121   3.049
 5113TIP3   OH215344   6.012   3.642   1.755
 5113TIP3    H115345   6.000   3.731   1.787
 5113TIP3    H215346   5.961   3.587   1.814
 5114TIP3   OH215347   2.909   3.588   0.994
 5114TIP3    H115348   2.943   3.634   0.917
 5114TIP3    H215349   2.836   3.535   0.960
 5115TIP3   OH215350   1.770   0.969   4.915
 5115TIP3    H115351   1.767   1.062   4.891
 5115TIP3    H215352   1.685   0.934   4.887
 5116TIP3   OH215353   3.224   1.599   4.986
 5116TIP3    H115354   3.253   1.666   5.048
 5116TIP3    H215355   3.271   1.619   4.905
 5117TIP3   OH215356   5.487   5.465   1.628
 5117TIP3    H115357   5.521   5.511   1.551
 5117TIP3    H215358   5.518   5.517   1.703
 5118TIP3   OH215359   1.284   0.903   1.051
 5118TIP3    H115360   1.196   0.930   1.023
 5118TIP3    H215361   1.302   0.824   1.001
 5119TIP3   OH215362   4.603   2.735   2.633
 5119TIP3    H115363   4.633   2.749   2.543
 5119TIP3    H215364   4.656   2.795   2.686
 5120TIP3   OH215365   1.125   2.436   0.480
 5120TIP3    H115366   1.126   2.433   0.575
 5120TIP3    H215367   1.044   2.482   0.458
 5121TIP3   OH215368   4.746   3.992   2.884
 5121TIP3    H115369   4.730   4.084   2.861
 5121TIP3    H215370   4.841   3.987   2.899
 5122TIP3   OH215371   0.145   3.871   4.648
 5122TIP3    H115372   0.233   3.910   4.644
 5122TIP3    H215373   0.086   3.943   4.627
 5123TIP3   OH215374   2.953   5.205   3.809
 5123TIP3    H115375   2.866   5.211   3.770
 5123TIP3    H215376   2.954   5.273   3.876
 5124TIP3   OH215377   2.885   3.097   1.388
 5124TIP3    H115378   2.883   3.002   1.403
 5124TIP3    H215379   2.868   3.136   1.473
 5125TIP3   OH215380   2.433   0.142   0.948
 5125TIP3    H115381   2.489   0.087   1.002
 5125TIP3    H215382   2.414   0.089   0.871
 5126TIP3   OH215383   2.029   4.515   1.519
 5126TIP3    H115384   1.963   4.571   1.558
 5126TIP3    H215385   2.079   4.481   1.593
 5127TIP3   OH215386   4.342   1.164   4.834
 5127TIP3    H115387   4.324   1.243   4.785
 5127TIP3    H215388   4.276   1.101   4.804
 5128TIP3   OH215389   4.085   1.815   0.213
 5128TIP3    H115390   4.105   1.786   0.302
 5128TIP3    H215391   3.995   1.786   0.198
 5129TIP3   OH215392   2.790   1.501  -0.012
 5129TIP3    H115393   2.837   1.572   0.032
 5129TIP3    H215394   2.817   1.422   0.035
 5130TIP3   OH215395   4.630   4.629   3.337
 5130TIP3    H115396   4.644   4.611   3.244
 5130TIP3    H215397   4.555   4.575   3.362
 5131TIP3   OH215398   2.751   1.883   1.386
 5131TIP3    H115399   2.730   1.872   1.479
 5131TIP3    H215400   2.666   1.882   1.342
 5132TIP3   OH215401   2.869   0.546   3.539
 5132TIP3    H115402   2.914   0.537   3.455
 5132TIP3    H215403   2.868   0.458   3.575
 5133TIP3   OH215404   1.589   1.567   1.411
 5133TIP3    H115405   1.673   1.520   1.411
 5133TIP3    H215406   1.601   1.638   1.474
 5134TIP3   OH215407   0.852   0.909   0.090
 5134TIP3    H115408   0.792   0.916   0.015
 5134TIP3    H215409   0.811   0.964   0.157
 5135TIP3   OH215410   2.659   5.971   2.805
 5135TIP3    H115411   2.594   5.973   2.875
 5135TIP3    H215412   2.651   5.884   2.766
 5136TIP3   OH215413   1.640   1.909   0.413
 5136TIP3    H115414   1.562   1.867   0.375
 5136TIP3    H215415   1.697   1.836   0.436
 5137TIP3   OH215416   0.096   3.577   4.104
 5137TIP3    H115417   0.047   3.496   4.104
 5137TIP3    H215418   0.188   3.550   4.109
 5138TIP3   OH215419   0.531   2.523   0.717
 5138TIP3    H115420   0.586   2.453   0.752
 5138TIP3    H215421   0.538   2.593   0.782
 5139TIP3   OH215422   2.662   0.647   2.603
 5139TIP3    H115423   2.726   0.659   2.532
 5139TIP3    H215424   2.603   0.579   2.571
 5140TIP3   OH215425   3.750   1.717   0.606
 5140TIP3    H115426   3.725   1.809   0.616
 5140TIP3    H215427   3.675   1.675   0.566
 5141TIP3   OH215428   3.196   1.487   0.764
 5141TIP3    H115429   3.278   1.481   0.813
 5141TIP3    H215430   3.185   1.400   0.725
 5142TIP3   OH215431   3.115   3.095   1.251
 5142TIP3    H115432   3.069   3.106   1.168
 5142TIP3    H215433   3.050   3.117   1.318
 5143TIP3   OH215434   0.393   2.430   3.530
 5143TIP3    H115435   0.470   2.485   3.542
 5143TIP3    H215436   0.415   2.347   3.572
 5144TIP3   OH215437   4.357   1.203   1.058
 5144TIP3    H115438   4.432   1.248   1.098
 5144TIP3    H215439   4.281   1.247   1.095
 5145TIP3   OH215440   3.154   3.558   2.095
 5145TIP3    H115441   3.231   3.532   2.144
 5145TIP3    H215442   3.108   3.619   2.152
 5146TIP3   OH215443   5.622   1.138   2.799
 5146TIP3    H115444   5.610   1.044   2.784
 5146TIP3    H215445   5.612   1.178   2.713
 5147TIP3   OH215446   1.287   5.168   1.454
 5147TIP3    H115447   1.260   5.259   1.440
 5147TIP3    H215448   1.303   5.134   1.365
 5148TIP3   OH215449   1.036   4.349   3.108
 5148TIP3    H115450   0.948   4.311   3.108
 5148TIP3    H215451   1.041   4.397   3.025
 5149TIP3   OH215452   5.707   1.725   5.111
 5149TIP3    H115453   5.790   1.770   5.098
 5149TIP3    H215454   5.640   1.789   5.087
 5150TIP3   OH215455   6.160   3.560   1.298
 5150TIP3    H115456   6.086   3.560   1.360
 5150TIP3    H215457   6.131   3.503   1.227
 5151TIP3   OH215458   5.585   5.073   2.278
 5151TIP3    H115459   5.515   5.013   2.302
 5151TIP3    H215460   5.644   5.022   2.223
 5152TIP3   OH215461   4.209   2.831   4.213
 5152TIP3    H115462   4.264   2.778   4.156
 5152TIP3    H215463   4.119   2.806   4.189
 5153TIP3   OH215464   2.680   1.699   4.630
 5153TIP3    H115465   2.753   1.683   4.569
 5153TIP3    H215466   2.608   1.647   4.596
 5154TIP3   OH215467   0.785   1.195   1.677
 5154TIP3    H115468   0.797   1.105   1.645
 5154TIP3    H215469   0.866   1.213   1.726
 5155TIP3   OH215470   3.534   4.304   2.660
 5155TIP3    H115471   3.616   4.256   2.646
 5155TIP3    H215472   3.483   4.285   2.581
 5156TIP3   OH215473   1.634   1.426   1.027
 5156TIP3    H115474   1.659   1.421   0.934
 5156TIP3    H215475   1.717   1.432   1.074
 5157TIP3   OH215476   4.607   1.300   3.387
 5157TIP3    H115477   4.520   1.303   3.427
 5157TIP3    H215478   4.665   1.341   3.451
 5158TIP3   OH215479   3.684   0.863   1.860
 5158TIP3    H115480   3.650   0.873   1.949
 5158TIP3    H215481   3.662   0.773   1.837
 5159TIP3   OH215482   1.422   0.217   2.200
 5159TIP3    H115483   1.431   0.310   2.177
 5159TIP3    H215484   1.374   0.179   2.126
 5160TIP3   OH215485   4.291   5.203   3.084
 5160TIP3    H115486   4.259   5.268   3.147
 5160TIP3    H215487   4.279   5.119   3.128
 5161TIP3   OH215488   5.436   0.741   2.129
 5161TIP3    H115489   5.391   0.814   2.171
 5161TIP3    H215490   5.490   0.782   2.061
 5162TIP3   OH215491   3.323   0.494   2.819
 5162TIP3    H115492   3.306   0.417   2.872
 5162TIP3    H215493   3.341   0.460   2.731
 5163TIP3   OH215494   0.492   4.763   2.951
 5163TIP3    H115495   0.422   4.709   2.916
 5163TIP3    H215496   0.480   4.758   3.046
 5164TIP3   OH215497   2.624   3.686   2.147
 5164TIP3    H115498   2.561   3.752   2.119
 5164TIP3    H215499   2.630   3.625   2.074
 5165TIP3   OH215500   1.103   5.225   3.612
 5165TIP3    H115501   1.153   5.281   3.553
 5165TIP3    H215502   1.089   5.144   3.563
 5166TIP3   OH215503   4.178   1.252   2.493
 5166TIP3    H115504   4.263   1.293   2.482
 5166TIP3    H215505   4.121   1.297   2.430
 5167TIP3   OH215506   3.243   5.394   2.322
 5167TIP3    H115507   3.234   5.306   2.284
 5167TIP3    H215508   3.331   5.422   2.298
 5168TIP3   OH215509   2.017   4.504   3.751
 5168TIP3    H115510   2.064   4.423   3.771
 5168TIP3    H215511   1.984   4.491   3.662
 5169TIP3   OH215512   3.893   5.204   1.913
 5169TIP3    H115513   3.864   5.117   1.939
 5169TIP3    H215514   3.896   5.254   1.995
 5170TIP3   OH215515   6.250   0.209   4.303
 5170TIP3    H115516   6.303   0.217   4.382
 5170TIP3    H215517   6.160   0.224   4.333
 5171TIP3   OH215518   5.100   0.639   4.066
 5171TIP3    H115519   5.134   0.595   3.988
 5171TIP3    H215520   5.063   0.721   4.033
 5172TIP3   OH215521   2.338   1.307   2.456
 5172TIP3    H115522   2.256   1.266   2.428
 5172TIP3    H215523   2.387   1.322   2.375
 5173TIP3   OH215524   0.230   5.766   0.670
 5173TIP3    H115525   0.203   5.700   0.733
 5173TIP3    H215526   0.281   5.829   0.722
 5174TIP3   OH215527   0.790   4.337   1.378
 5174TIP3    H115528   0.698   4.316   1.362
 5174TIP3    H215529   0.823   4.264   1.430
 5175TIP3   OH215530   4.112   0.332   2.687
 5175TIP3    H115531   4.107   0.427   2.674
 5175TIP3    H215532   4.126   0.322   2.782
 5176TIP3   OH215533   2.800   4.875   0.372
 5176TIP3    H115534   2.815   4.781   0.360
 5176TIP3    H215535   2.773   4.883   0.463
 5177TIP3   OH215536   5.383   2.330   1.127
 5177TIP3    H115537   5.405   2.421   1.146
 5177TIP3    H215538   5.355   2.331   1.035
 5178TIP3   OH215539   1.069   3.317   1.301
 5178TIP3    H115540   0.993   3.373   1.320
 5178TIP3    H215541   1.113   3.360   1.228
 5179TIP3   OH215542   2.989   5.626   1.989
 5179TIP3    H115543   3.002   5.613   2.083
 5179TIP3    H215544   2.944   5.546   1.961
 5180TIP3   OH215545   3.317   5.396   3.382
 5180TIP3    H115546   3.364   5.469   3.422
 5180TIP3    H215547   3.257   5.437   3.319
 5181TIP3   OH215548   4.937   1.583   1.085
 5181TIP3    H115549   4.882   1.656   1.057
 5181TIP3    H215550   4.961   1.605   1.175
 5182TIP3   OH215551   2.345   3.638   0.969
 5182TIP3    H115552   2.361   3.553   1.011
 5182TIP3    H215553   2.371   3.702   1.035
 5183TIP3   OH215554   1.208   4.517   0.763
 5183TIP3    H115555   1.299   4.506   0.739
 5183TIP3    H215556   1.209   4.579   0.836
 5184TIP3   OH215557   1.702   2.595   4.849
 5184TIP3    H115558   1.771   2.544   4.809
 5184TIP3    H215559   1.704   2.571   4.942
 5185TIP3   OH215560   0.861   3.926   1.657
 5185TIP3    H115561   0.932   3.873   1.694
 5185TIP3    H215562   0.786   3.909   1.714
 5186TIP3   OH215563   5.437   4.531   5.088
 5186TIP3    H115564   5.387   4.540   5.007
 5186TIP3    H215565   5.470   4.619   5.105
 5187TIP3   OH215566   5.099   3.981   0.732
 5187TIP3    H115567   5.006   4.003   0.725
 5187TIP3    H215568   5.103   3.908   0.793
 5188TIP3   OH215569   2.275   0.494   4.602
 5188TIP3    H115570   2.202   0.557   4.604
 5188TIP3    H215571   2.245   0.425   4.543
 5189TIP3   OH215572   5.903   5.850   2.810
 5189TIP3    H115573   5.886   5.943   2.822
 5189TIP3    H215574   5.894   5.812   2.897
 5190TIP3   OH215575   2.042   1.896   1.796
 5190TIP3    H115576   2.035   1.801   1.788
 5190TIP3    H215577   1.979   1.931   1.732
 5191TIP3   OH215578   1.191   5.866   4.916
 5191TIP3    H115579   1.229   5.832   4.997
 5191TIP3    H215580   1.125   5.929   4.945
 5192TIP3   OH215581   2.693   1.931   3.014
 5192TIP3    H115582   2.724   1.993   3.080
 5192TIP3    H215583   2.675   1.984   2.937
 5193TIP3   OH215584   6.125   1.477   4.394
 5193TIP3    H115585   6.220   1.467   4.390
 5193TIP3    H215586   6.111   1.570   4.414
 5194TIP3   OH215587   5.303   0.422   4.876
 5194TIP3    H115588   5.284   0.512   4.904
 5194TIP3    H215589   5.398   0.416   4.877
 5195TIP3   OH215590   3.344   1.203   3.864
 5195TIP3    H115591   3.372   1.216   3.773
 5195TIP3    H215592   3.304   1.286   3.889
 5196TIP3   OH215593   4.177   2.035   3.784
 5196TIP3    H115594   4.141   2.108   3.734
 5196TIP3    H215595   4.272   2.040   3.770
 5197TIP3   OH215596   4.870   5.476   1.385
 5197TIP3    H115597   4.911   5.391   1.368
 5197TIP3    H215598   4.814   5.460   1.461
 5198TIP3   OH215599   0.797   5.946   0.593
 5198TIP3    H115600   0.825   5.881   0.529
 5198TIP3    H215601   0.779   6.025   0.542
 5199TIP3   OH215602   2.991   4.562   3.159
 5199TIP3    H115603   3.075   4.598   3.132
 5199TIP3    H215604   2.940   4.638   3.189
 5200TIP3   OH215605   5.086   2.207   0.920
 5200TIP3    H115606   5.085   2.115   0.894
 5200TIP3    H215607   5.177   2.234   0.911
 5201TIP3   OH215608   2.622   4.651   2.278
 5201TIP3    H115609   2.613   4.631   2.184
 5201TIP3    H215610   2.560   4.722   2.293
 5202TIP3   OH215611   6.249   5.746   1.303
 5202TIP3    H115612   6.189   5.728   1.230
 5202TIP3    H215613   6.193   5.777   1.374
 5203TIP3   OH215614   2.203   5.975   4.496
 5203TIP3    H115615   2.285   5.926   4.505
 5203TIP3    H215616   2.231   6.060   4.460
 5204TIP3   OH215617   0.230   0.206   4.750
 5204TIP3    H115618   0.284   0.270   4.797
 5204TIP3    H215619   0.257   0.121   4.785
 5205TIP3   OH215620   3.619   1.830   2.108
 5205TIP3    H115621   3.578   1.823   2.022
 5205TIP3    H215622   3.549   1.862   2.165
 5206TIP3   OH215623   4.356   0.249   3.430
 5206TIP3    H115624   4.386   0.279   3.344
 5206TIP3    H215625   4.267   0.282   3.437
 5207TIP3   OH215626   2.504   0.443   0.968
 5207TIP3    H115627   2.434   0.451   1.032
 5207TIP3    H215628   2.462   0.461   0.884
 5208TIP3   OH215629   0.866   0.953   1.566
 5208TIP3    H115630   0.817   0.879   1.530
 5208TIP3    H215631   0.944   0.913   1.605
 5209TIP3   OH215632   2.706   6.014   1.597
 5209TIP3    H115633   2.798   6.036   1.583
 5209TIP3    H215634   2.700   5.921   1.574
 5210TIP3   OH215635   3.376   5.701   2.473
 5210TIP3    H115636   3.318   5.754   2.528
 5210TIP3    H215637   3.344   5.716   2.384
 5211TIP3   OH215638   1.182   0.771   4.953
 5211TIP3    H115639   1.162   0.828   5.028
 5211TIP3    H215640   1.098   0.761   4.909
 5212TIP3   OH215641   4.738   5.493   0.288
 5212TIP3    H115642   4.647   5.521   0.285
 5212TIP3    H215643   4.757   5.461   0.199
 5213TIP3   OH215644   6.228   3.229   1.244
 5213TIP3    H115645   6.206   3.247   1.336
 5213TIP3    H215646   6.318   3.260   1.235
 5214TIP3   OH215647   5.577   2.930   3.689
 5214TIP3    H115648   5.515   2.997   3.661
 5214TIP3    H215649   5.610   2.893   3.607
 5215TIP3   OH215650   4.776   4.346   4.044
 5215TIP3    H115651   4.722   4.308   3.975
 5215TIP3    H215652   4.759   4.292   4.121
 5216TIP3   OH215653   5.697   4.977   2.050
 5216TIP3    H115654   5.658   4.987   1.964
 5216TIP3    H215655   5.689   4.884   2.070
 5217TIP3   OH215656   5.889   3.591   0.835
 5217TIP3    H115657   5.902   3.501   0.863
 5217TIP3    H215658   5.904   3.644   0.913
 5218TIP3   OH215659   3.065   4.335   1.440
 5218TIP3    H115660   3.001   4.365   1.375
 5218TIP3    H215661   3.033   4.370   1.523
 5219TIP3   OH215662   3.389   0.179   3.233
 5219TIP3    H115663   3.453   0.251   3.227
 5219TIP3    H215664   3.386   0.157   3.326
 5220TIP3   OH215665   0.860   4.952   1.814
 5220TIP3    H115666   0.808   4.956   1.895
 5220TIP3    H215667   0.883   4.859   1.806
 5221TIP3   OH215668   3.376   5.927   1.570
 5221TIP3    H115669   3.393   5.977   1.489
 5221TIP3    H215670   3.286   5.897   1.561
 5222TIP3   OH215671   5.322   4.343   2.672
 5222TIP3    H115672   5.251   4.344   2.608
 5222TIP3    H215673   5.316   4.257   2.713
 5223TIP3   OH215674   3.642   2.600   3.632
 5223TIP3    H115675   3.635   2.622   3.539
 5223TIP3    H215676   3.716   2.539   3.636
 5224TIP3   OH215677   5.746   4.542   4.571
 5224TIP3    H115678   5.743   4.628   4.528
 5224TIP3    H215679   5.839   4.517   4.566
 5225TIP3   OH215680   6.093   2.178   0.642
 5225TIP3    H115681   6.108   2.147   0.731
 5225TIP3    H215682   6.114   2.272   0.645
 5226TIP3   OH215683   3.244   2.351   2.325
 5226TIP3    H115684   3.220   2.291   2.394
 5226TIP3    H215685   3.221   2.305   2.244
 5227TIP3   OH215686   0.470   1.341   3.323
 5227TIP3    H115687   0.446   1.329   3.231
 5227TIP3    H215688   0.432   1.426   3.346
 5228TIP3   OH215689   2.184   3.308   3.919
 5228TIP3    H115690   2.237   3.263   3.985
 5228TIP3    H215691   2.159   3.390   3.961
 5229TIP3   OH215692   0.926   5.760   1.883
 5229TIP3    H115693   0.920   5.767   1.979
 5229TIP3    H215694   0.836   5.763   1.853
 5230TIP3   OH215695   4.402   1.065   2.192
 5230TIP3    H115696   4.425   0.982   2.151
 5230TIP3    H215697   4.365   1.040   2.277
 5231TIP3   OH215698   0.113   4.698   0.956
 5231TIP3    H115699   0.023   4.684   0.984
 5231TIP3    H215700   0.154   4.612   0.962
 5232TIP3   OH215701   3.126   2.390   2.991
 5232TIP3    H115702   3.154   2.465   2.938
 5232TIP3    H215703   3.046   2.419   3.034
 5233TIP3   OH215704   4.418   5.133   1.737
 5233TIP3    H115705   4.462   5.114   1.655
 5233TIP3    H215706   4.376   5.050   1.762
 5234TIP3   OH215707   4.945   4.942   3.608
 5234TIP3    H115708   4.994   4.913   3.531
 5234TIP3    H215709   4.929   4.862   3.658
 5235TIP3   OH215710   2.689   3.464   0.902
 5235TIP3    H115711   2.616   3.450   0.963
 5235TIP3    H215712   2.649   3.455   0.815
 5236TIP3   OH215713   3.311   2.456   3.182
 5236TIP3    H115714   3.262   2.487   3.259
 5236TIP3    H215715   3.245   2.417   3.126
 5237TIP3   OH215716   4.973   5.651   0.304
 5237TIP3    H115717   4.943   5.741   0.294
 5237TIP3    H215718   4.897   5.597   0.281
 5238TIP3   OH215719   0.636   0.286   5.049
 5238TIP3    H115720   0.588   0.327   5.122
 5238TIP3    H215721   0.688   0.217   5.090
 5239TIP3   OH215722   3.786   0.024   3.703
 5239TIP3    H115723   3.829   0.030   3.789
 5239TIP3    H215724   3.729   0.101   3.700
 5240TIP3   OH215725   3.476   0.928   2.349
 5240TIP3    H115726   3.472   1.022   2.367
 5240TIP3    H215727   3.469   0.887   2.435
 5241TIP3   OH215728   5.200   1.972   1.089
 5241TIP3    H115729   5.256   2.019   1.152
 5241TIP3    H215730   5.130   1.935   1.142
 5242TIP3   OH215731   3.607   0.337   4.756
 5242TIP3    H115732   3.641   0.426   4.754
 5242TIP3    H215733   3.517   0.345   4.726
 5243TIP3   OH215734   5.737   1.534   1.153
 5243TIP3    H115735   5.699   1.457   1.110
 5243TIP3    H215736   5.812   1.500   1.202
 5244TIP3   OH215737   0.992   2.246   4.084
 5244TIP3    H115738   1.067   2.291   4.123
 5244TIP3    H215739   0.935   2.226   4.158
 5245TIP3   OH215740   3.779   3.568   3.426
 5245TIP3    H115741   3.783   3.476   3.400
 5245TIP3    H215742   3.720   3.569   3.501
 5246TIP3   OH215743   1.303   4.212   3.512
 5246TIP3    H115744   1.296   4.185   3.604
 5246TIP3    H215745   1.214   4.207   3.478
 5247TIP3   OH215746   0.347   5.881   1.250
 5247TIP3    H115747   0.260   5.900   1.214
 5247TIP3    H215748   0.402   5.953   1.219
 5248TIP3   OH215749   1.199   1.705   4.728
 5248TIP3    H115750   1.256   1.666   4.795
 5248TIP3    H215751   1.135   1.637   4.709
 5249TIP3   OH215752   1.905   5.219   3.330
 5249TIP3    H115753   1.958   5.183   3.401
 5249TIP3    H215754   1.852   5.286   3.372
 5250TIP3   OH215755   2.208   4.019   2.553
 5250TIP3    H115756   2.272   3.950   2.566
 5250TIP3    H215757   2.159   4.022   2.635
 5251TIP3   OH215758   4.606   3.417   0.309
 5251TIP3    H115759   4.603   3.488   0.372
 5251TIP3    H215760   4.610   3.337   0.362
 5252TIP3   OH215761   5.295   3.568   3.142
 5252TIP3    H115762   5.327   3.644   3.095
 5252TIP3    H215763   5.244   3.519   3.077
 5253TIP3   OH215764   1.071   0.215   3.406
 5253TIP3    H115765   1.104   0.217   3.316
 5253TIP3    H215766   0.991   0.163   3.401
 5254TIP3   OH215767   2.612   3.387   4.319
 5254TIP3    H115768   2.666   3.429   4.251
 5254TIP3    H215769   2.663   3.311   4.346
 5255TIP3   OH215770   3.040   3.829   1.837
 5255TIP3    H115771   3.033   3.828   1.932
 5255TIP3    H215772   2.965   3.880   1.807
 5256TIP3   OH215773   1.283   2.291   2.109
 5256TIP3    H115774   1.211   2.354   2.104
 5256TIP3    H215775   1.279   2.256   2.198
 5257TIP3   OH215776   3.298   3.946   0.923
 5257TIP3    H115777   3.309   4.034   0.960
 5257TIP3    H215778   3.311   3.958   0.829
 5258TIP3   OH215779   2.106   5.682   2.973
 5258TIP3    H115780   2.100   5.629   3.052
 5258TIP3    H215781   2.195   5.668   2.941
 5259TIP3   OH215782   2.653   4.626   2.008
 5259TIP3    H115783   2.563   4.657   1.999
 5259TIP3    H215784   2.656   4.544   1.958
 5260TIP3   OH215785   0.808   5.567   2.329
 5260TIP3    H115786   0.862   5.491   2.353
 5260TIP3    H215787   0.745   5.575   2.400
 5261TIP3   OH215788   4.767   4.760   2.200
 5261TIP3    H115789   4.777   4.683   2.143
 5261TIP3    H215790   4.683   4.748   2.243
 5262TIP3   OH215791   3.350   5.220   4.772
 5262TIP3    H115792   3.322   5.310   4.754
 5262TIP3    H215793   3.375   5.219   4.864
 5263TIP3   OH215794   2.509   2.952   3.169
 5263TIP3    H115795   2.526   3.045   3.179
 5263TIP3    H215796   2.596   2.912   3.158
 5264TIP3   OH215797   0.966   0.922   2.527
 5264TIP3    H115798   1.034   0.881   2.581
 5264TIP3    H215799   0.994   1.013   2.519
 5265TIP3   OH215800   6.071   1.069   4.166
 5265TIP3    H115801   6.110   1.154   4.146
 5265TIP3    H215802   6.124   1.035   4.238
 5266TIP3   OH215803   0.442   2.133   0.770
 5266TIP3    H115804   0.450   2.121   0.675
 5266TIP3    H215805   0.498   2.207   0.791
 5267TIP3   OH215806   4.672   1.756   4.519
 5267TIP3    H115807   4.680   1.675   4.468
 5267TIP3    H215808   4.744   1.810   4.489
 5268TIP3   OH215809   2.588   3.716   0.311
 5268TIP3    H115810   2.577   3.622   0.301
 5268TIP3    H215811   2.602   3.729   0.405
 5269TIP3   OH215812   1.335   1.301   5.131
 5269TIP3    H115813   1.302   1.214   5.106
 5269TIP3    H215814   1.256   1.349   5.157
 5270TIP3   OH215815   5.006   5.658   1.084
 5270TIP3    H115816   5.072   5.688   1.146
 5270TIP3    H215817   5.022   5.564   1.074
 5271TIP3   OH215818   2.918   0.065   1.459
 5271TIP3    H115819   2.967   0.037   1.537
 5271TIP3    H215820   2.981   0.117   1.409
 5272TIP3   OH215821   1.260   5.601   4.556
 5272TIP3    H115822   1.263   5.691   4.526
 5272TIP3    H215823   1.323   5.554   4.501
 5273TIP3   OH215824   5.498   3.771   4.428
 5273TIP3    H115825   5.414   3.788   4.386
 5273TIP3    H215826   5.500   3.830   4.504
 5274TIP3   OH215827   1.561   0.897   4.772
 5274TIP3    H115828   1.492   0.934   4.717
 5274TIP3    H215829   1.626   0.865   4.710
 5275TIP3   OH215830   5.058   1.784   3.476
 5275TIP3    H115831   5.095   1.825   3.398
 5275TIP3    H215832   5.054   1.691   3.455
 5276TIP3   OH215833   0.149   2.955   1.524
 5276TIP3    H115834   0.222   2.902   1.490
 5276TIP3    H215835   0.167   2.963   1.617
 5277TIP3   OH215836   0.097   1.926   2.925
 5277TIP3    H115837   0.073   1.853   2.982
 5277TIP3    H215838   0.190   1.914   2.909
 5278TIP3   OH215839   0.474   5.802   3.106
 5278TIP3    H115840   0.410   5.808   3.035
 5278TIP3    H215841   0.470   5.887   3.149
 5279TIP3   OH215842   0.444   1.774   0.530
 5279TIP3    H115843   0.363   1.780   0.582
 5279TIP3    H215844   0.492   1.701   0.569
 5280TIP3   OH215845   2.850   2.636   4.792
 5280TIP3    H115846   2.925   2.598   4.745
 5280TIP3    H215847   2.879   2.641   4.883
 5281TIP3   OH215848   2.838   0.646   0.584
 5281TIP3    H115849   2.829   0.736   0.552
 5281TIP3    H215850   2.880   0.599   0.512
 5282TIP3   OH215851   3.419   5.991   0.615
 5282TIP3    H115852   3.380   6.003   0.528
 5282TIP3    H215853   3.456   5.902   0.612
 5283TIP3   OH215854   6.206   0.392   2.602
 5283TIP3    H115855   6.119   0.370   2.567
 5283TIP3    H215856   6.190   0.414   2.694
 5284TIP3   OH215857   2.214   1.174   0.628
 5284TIP3    H115858   2.129   1.166   0.584
 5284TIP3    H215859   2.227   1.091   0.672
 5285TIP3   OH215860   4.541   0.444   2.473
 5285TIP3    H115861   4.607   0.379   2.448
 5285TIP3    H215862   4.489   0.401   2.539
 5286TIP3   OH215863   2.895   0.346   2.644
 5286TIP3    H115864   2.928   0.435   2.637
 5286TIP3    H215865   2.865   0.338   2.735
 5287TIP3   OH215866   2.379   1.674   1.380
 5287TIP3    H115867   2.356   1.581   1.384
 5287TIP3    H215868   2.351   1.710   1.464
 5288TIP3   OH215869   3.461   3.999   0.014
 5288TIP3    H115870   3.383   4.017  -0.038
 5288TIP3    H215871   3.534   4.015  -0.046
 5289TIP3   OH215872   5.049   1.820   3.930
 5289TIP3    H115873   5.002   1.855   3.855
 5289TIP3    H215874   5.063   1.727   3.909
 5290TIP3   OH215875   5.824   2.729   3.841
 5290TIP3    H115876   5.769   2.695   3.771
 5290TIP3    H215877   5.900   2.671   3.842
 5291TIP3   OH215878   3.394   0.817   3.169
 5291TIP3    H115879   3.457   0.887   3.182
 5291TIP3    H215880   3.349   0.840   3.087
 5292TIP3   OH215881   0.036   0.986   1.785
 5292TIP3    H115882   0.028   1.043   1.708
 5292TIP3    H215883   0.093   0.915   1.755
 5293TIP3   OH215884   6.028   4.687   2.988
 5293TIP3    H115885   6.088   4.649   3.051
 5293TIP3    H215886   5.954   4.626   2.985
 5294TIP3   OH215887   5.473   4.637   1.489
 5294TIP3    H115888   5.566   4.626   1.510
 5294TIP3    H215889   5.445   4.551   1.458
 5295TIP3   OH215890   0.246   2.382   0.562
 5295TIP3    H115891   0.241   2.374   0.657
 5295TIP3    H215892   0.245   2.291   0.531
 5296TIP3   OH215893   4.044   2.848   2.429
 5296TIP3    H115894   4.007   2.892   2.505
 5296TIP3    H215895   3.977   2.855   2.362
 5297TIP3   OH215896   0.744   5.937   0.849
 5297TIP3    H115897   0.751   5.932   0.753
 5297TIP3    H215898   0.832   5.912   0.880
 5298TIP3   OH215899   1.747   5.953   1.018
 5298TIP3    H115900   1.749   5.902   1.100
 5298TIP3    H215901   1.802   5.903   0.958
 5299TIP3   OH215902   1.188   1.201   3.552
 5299TIP3    H115903   1.167   1.108   3.546
 5299TIP3    H215904   1.279   1.207   3.523
 5300TIP3   OH215905   2.391   3.856   4.648
 5300TIP3    H115906   2.427   3.770   4.672
 5300TIP3    H215907   2.356   3.843   4.560
 5301TIP3   OH215908   3.902   5.440   3.376
 5301TIP3    H115909   3.825   5.391   3.404
 5301TIP3    H215910   3.876   5.481   3.294
 5302TIP3   OH215911   2.167   0.845   4.846
 5302TIP3    H115912   2.131   0.933   4.857
 5302TIP3    H215913   2.101   0.798   4.794
 5303TIP3   OH215914   0.393   5.785   3.687
 5303TIP3    H115915   0.387   5.769   3.593
 5303TIP3    H215916   0.344   5.866   3.700
 5304TIP3   OH215917   4.959   5.225   3.290
 5304TIP3    H115918   4.871   5.258   3.271
 5304TIP3    H215919   4.964   5.225   3.386
 5305TIP3   OH215920   4.746   3.721   0.848
 5305TIP3    H115921   4.806   3.761   0.911
 5305TIP3    H215922   4.693   3.794   0.816
 5306TIP3   OH215923   0.984   4.062   0.764
 5306TIP3    H115924   1.020   4.111   0.690
 5306TIP3    H215925   0.926   3.997   0.724
 5307TIP3   OH215926   4.654   0.143   4.047
 5307TIP3    H115927   4.724   0.081   4.026
 5307TIP3    H215928   4.687   0.227   4.014
 5308TIP3   OH215929   2.135   2.277   3.729
 5308TIP3    H115930   2.136   2.295   3.635
 5308TIP3    H215931   2.043   2.288   3.755
 5309TIP3   OH215932   0.157   4.198   0.823
 5309TIP3    H115933   0.243   4.162   0.842
 5309TIP3    H215934   0.128   4.153   0.744
 5310TIP3   OH215935   2.539   5.847   2.167
 5310TIP3    H115936   2.612   5.856   2.105
 5310TIP3    H215937   2.461   5.854   2.113
 5311TIP3   OH215938   0.468   2.932   4.234
 5311TIP3    H115939   0.452   2.838   4.232
 5311TIP3    H215940   0.407   2.965   4.300
 5312TIP3   OH215941   4.747   5.353   2.573
 5312TIP3    H115942   4.781   5.272   2.611
 5312TIP3    H215943   4.818   5.386   2.518
 5313TIP3   OH215944   1.410   5.897   4.745
 5313TIP3    H115945   1.429   5.945   4.664
 5313TIP3    H215946   1.329   5.935   4.778
 5314TIP3   OH215947   4.533   4.114   1.202
 5314TIP3    H115948   4.561   4.195   1.245
 5314TIP3    H215949   4.438   4.117   1.205
 5315TIP3   OH215950   0.537   4.046   5.034
 5315TIP3    H115951   0.587   4.086   4.963
 5315TIP3    H215952   0.546   3.952   5.020
 5316TIP3   OH215953   3.439   3.957   4.871
 5316TIP3    H115954   3.478   4.042   4.886
 5316TIP3    H215955   3.369   3.974   4.807
 5317TIP3   OH215956   3.851   5.913   4.593
 5317TIP3    H115957   3.786   5.863   4.543
 5317TIP3    H215958   3.810   5.998   4.608
 5318TIP3   OH215959   2.175   5.484   2.325
 5318TIP3    H115960   2.150   5.421   2.393
 5318TIP3    H215961   2.099   5.489   2.267
 5319TIP3   OH215962   0.129   2.166   3.093
 5319TIP3    H115963   0.112   2.116   3.013
 5319TIP3    H215964   0.219   2.196   3.084
 5320TIP3   OH215965   1.109   1.745   0.215
 5320TIP3    H115966   1.199   1.718   0.197
 5320TIP3    H215967   1.113   1.841   0.216
 5321TIP3   OH215968   2.580   2.319   1.200
 5321TIP3    H115969   2.513   2.375   1.160
 5321TIP3    H215970   2.531   2.258   1.255
 5322TIP3   OH215971   4.299   3.728   3.001
 5322TIP3    H115972   4.256   3.762   3.079
 5322TIP3    H215973   4.238   3.665   2.964
 5323TIP3   OH215974   2.746   2.958   4.188
 5323TIP3    H115975   2.696   3.039   4.179
 5323TIP3    H215976   2.789   2.946   4.103
 5324TIP3   OH215977   4.247   0.766   1.642
 5324TIP3    H115978   4.245   0.856   1.675
 5324TIP3    H215979   4.171   0.760   1.583
 5325TIP3   OH215980   1.701   2.409   2.804
 5325TIP3    H115981   1.701   2.351   2.879
 5325TIP3    H215982   1.680   2.495   2.840
 5326TIP3   OH215983   1.015   4.331   0.855
 5326TIP3    H115984   0.991   4.248   0.812
 5326TIP3    H215985   1.086   4.366   0.802
 5327TIP3   OH215986   0.241   3.679   3.788
 5327TIP3    H115987   0.255   3.588   3.814
 5327TIP3    H215988   0.326   3.721   3.802
 5328TIP3   OH215989   1.843   2.449   2.548
 5328TIP3    H115990   1.773   2.499   2.506
 5328TIP3    H215991   1.803   2.412   2.627
 5329TIP3   OH215992   3.667   0.024   4.481
 5329TIP3    H115993   3.743  -0.027   4.456
 5329TIP3    H215994   3.663   0.094   4.416
 5330TIP3   OH215995   0.799   5.687   1.435
 5330TIP3    H115996   0.849   5.688   1.516
 5330TIP3    H215997   0.728   5.750   1.450
 5331TIP3   OH215998   4.677   4.953   4.449
 5331TIP3    H115999   4.624   4.886   4.493
 5331TIP3    H216000   4.725   4.904   4.382
 5332TIP3   OH216001   1.066   1.248   1.762
 5332TIP3    H116002   1.051   1.318   1.698
 5332TIP3    H216003   1.077   1.294   1.845
 5333TIP3   OH216004   5.256   0.057   4.544
 5333TIP3    H116005   5.251   0.082   4.636
 5333TIP3    H216006   5.176   0.093   4.505
 5334TIP3   OH216007   3.370   2.960   3.676
 5334TIP3    H116008   3.401   3.006   3.754
 5334TIP3    H216009   3.414   3.004   3.603
 5335TIP3   OH216010   2.357   4.639   1.994
 5335TIP3    H116011   2.331   4.588   2.071
 5335TIP3    H216012   2.303   4.603   1.923
 5336TIP3   OH216013   4.613   5.874   3.098
 5336TIP3    H116014   4.649   5.786   3.089
 5336TIP3    H216015   4.684   5.926   3.134
 5337TIP3   OH216016   5.064   4.472   0.569
 5337TIP3    H116017   5.149   4.479   0.526
 5337TIP3    H216018   5.084   4.432   0.654
 5338TIP3   OH216019   5.420   5.079   1.248
 5338TIP3    H116020   5.461   5.033   1.175
 5338TIP3    H216021   5.421   5.016   1.320
 5339TIP3   OH216022   1.291   1.773   3.241
 5339TIP3    H116023   1.210   1.723   3.230
 5339TIP3    H216024   1.270   1.860   3.210
 5340TIP3   OH216025   2.585   1.055   2.222
 5340TIP3    H116026   2.573   1.022   2.311
 5340TIP3    H216027   2.506   1.030   2.176
 5341TIP3   OH216028   3.388   2.963   2.789
 5341TIP3    H116029   3.331   2.886   2.788
 5341TIP3    H216030   3.466   2.935   2.742
 5342TIP3   OH216031   5.890   0.579   0.891
 5342TIP3    H116032   5.910   0.497   0.936
 5342TIP3    H216033   5.970   0.630   0.896
 5343TIP3   OH216034   3.950   4.355   0.509
 5343TIP3    H116035   3.861   4.358   0.544
 5343TIP3    H216036   3.943   4.299   0.431
 5344TIP3   OH216037   4.236   1.638   3.924
 5344TIP3    H116038   4.214   1.725   3.957
 5344TIP3    H216039   4.239   1.650   3.829
 5345TIP3   OH216040   2.339   3.107   1.044
 5345TIP3    H116041   2.329   3.025   1.093
 5345TIP3    H216042   2.364   3.079   0.956
 5346TIP3   OH216043   3.443   1.162   2.477
 5346TIP3    H116044   3.362   1.142   2.524
 5346TIP3    H216045   3.439   1.256   2.462
 5347TIP3   OH216046   2.045   0.656   4.630
 5347TIP3    H116047   2.048   0.714   4.554
 5347TIP3    H216048   1.975   0.691   4.685
 5348TIP3   OH216049   3.984   2.739   3.261
 5348TIP3    H116050   3.972   2.801   3.189
 5348TIP3    H216051   4.059   2.773   3.310
 5349TIP3   OH216052   5.690   1.724   4.429
 5349TIP3    H116053   5.634   1.773   4.369
 5349TIP3    H216054   5.692   1.777   4.509
 5350TIP3   OH216055   1.118   1.812   1.087
 5350TIP3    H116056   1.112   1.906   1.106
 5350TIP3    H216057   1.157   1.808   1.000
 5351TIP3   OH216058   1.885   5.638   2.636
 5351TIP3    H116059   1.969   5.597   2.657
 5351TIP3    H216060   1.876   5.629   2.541
 5352TIP3   OH216061   5.554   1.957   5.030
 5352TIP3    H116062   5.484   1.945   5.094
 5352TIP3    H216063   5.509   1.961   4.946
 5353TIP3   OH216064   4.922   2.915   4.423
 5353TIP3    H116065   4.914   2.828   4.385
 5353TIP3    H216066   5.003   2.950   4.385
 5354TIP3   OH216067   1.165   5.859   3.432
 5354TIP3    H116068   1.145   5.839   3.524
 5354TIP3    H216069   1.261   5.862   3.428
 5355TIP3   OH216070   5.661   2.481   0.900
 5355TIP3    H116071   5.634   2.488   0.991
 5355TIP3    H216072   5.757   2.485   0.903
 5356TIP3   OH216073   2.563   0.184   1.579
 5356TIP3    H116074   2.468   0.177   1.585
 5356TIP3    H216075   2.581   0.172   1.486
 5357TIP3   OH216076   4.448   0.718   3.609
 5357TIP3    H116077   4.535   0.757   3.597
 5357TIP3    H216078   4.465   0.626   3.629
 5358TIP3   OH216079   2.038   0.361   1.143
 5358TIP3    H116080   1.961   0.405   1.108
 5358TIP3    H216081   2.004   0.310   1.217
 5359TIP3   OH216082   5.293   1.889   4.058
 5359TIP3    H116083   5.315   1.980   4.039
 5359TIP3    H216084   5.220   1.869   4.000
 5360TIP3   OH216085   4.757   1.822   1.019
 5360TIP3    H116086   4.762   1.841   1.112
 5360TIP3    H216087   4.674   1.775   1.008
 5361TIP3   OH216088   2.268   3.006   2.947
 5361TIP3    H116089   2.176   2.996   2.971
 5361TIP3    H216090   2.268   3.018   2.852
 5362TIP3   OH216091   3.137   1.146   4.984
 5362TIP3    H116092   3.219   1.193   4.969
 5362TIP3    H216093   3.074   1.187   4.925
 5363TIP3   OH216094   2.235   4.289   4.424
 5363TIP3    H116095   2.268   4.373   4.390
 5363TIP3    H216096   2.180   4.313   4.498
 5364TIP3   OH216097   1.437   3.246   1.131
 5364TIP3    H116098   1.378   3.315   1.162
 5364TIP3    H216099   1.482   3.286   1.056
 5365TIP3   OH216100   4.407   0.937   1.062
 5365TIP3    H116101   4.387   0.907   0.974
 5365TIP3    H216102   4.388   1.031   1.060
 5366TIP3   OH216103   6.232   3.248   0.815
 5366TIP3    H116104   6.142   3.250   0.783
 5366TIP3    H216105   6.235   3.174   0.876
 5367TIP3   OH216106   4.293   3.303   2.391
 5367TIP3    H116107   4.321   3.378   2.339
 5367TIP3    H216108   4.302   3.332   2.481
 5368TIP3   OH216109   2.309   0.934   0.068
 5368TIP3    H116110   2.279   0.857   0.020
 5368TIP3    H216111   2.332   0.901   0.155
 5369TIP3   OH216112   0.722   1.829   4.069
 5369TIP3    H116113   0.781   1.856   4.139
 5369TIP3    H216114   0.712   1.907   4.014
 5370TIP3   OH216115   0.965   5.424   0.670
 5370TIP3    H116116   0.879   5.464   0.671
 5370TIP3    H216117   1.007   5.454   0.751
 5371TIP3   OH216118   3.681   3.776   1.541
 5371TIP3    H116119   3.728   3.813   1.615
 5371TIP3    H216120   3.747   3.728   1.491
 5372TIP3   OH216121   2.201   4.780   0.037
 5372TIP3    H116122   2.235   4.697   0.068
 5372TIP3    H216123   2.269   4.844   0.060
 5373TIP3   OH216124   2.673   1.923   1.650
 5373TIP3    H116125   2.697   2.011   1.619
 5373TIP3    H216126   2.735   1.905   1.721
 5374TIP3   OH216127   0.280   4.781   4.154
 5374TIP3    H116128   0.272   4.861   4.103
 5374TIP3    H216129   0.318   4.809   4.237
 5375TIP3   OH216130   4.694   1.624   4.768
 5375TIP3    H116131   4.713   1.683   4.841
 5375TIP3    H216132   4.693   1.680   4.691
 5376TIP3   OH216133   0.444   4.762   0.115
 5376TIP3    H116134   0.445   4.767   0.210
 5376TIP3    H216135   0.531   4.793   0.088
 5377TIP3   OH216136   4.092   2.253   3.634
 5377TIP3    H116137   4.097   2.239   3.539
 5377TIP3    H216138   4.008   2.297   3.647
 5378TIP3   OH216139   3.893   3.069   4.387
 5378TIP3    H116140   3.928   3.154   4.413
 5378TIP3    H216141   3.907   3.013   4.464
 5379TIP3   OH216142   1.284   0.267   2.510
 5379TIP3    H116143   1.259   0.344   2.459
 5379TIP3    H216144   1.380   0.263   2.502
 5380TIP3   OH216145   1.328   3.040   0.460
 5380TIP3    H116146   1.422   3.061   0.464
 5380TIP3    H216147   1.286   3.108   0.513
 5381TIP3   OH216148   3.681   4.026   2.747
 5381TIP3    H116149   3.682   4.053   2.655
 5381TIP3    H216150   3.591   3.996   2.762
 5382TIP3   OH216151   0.382   2.044   4.652
 5382TIP3    H116152   0.323   2.063   4.725
 5382TIP3    H216153   0.469   2.042   4.692
 5383TIP3   OH216154   4.073   0.411   0.067
 5383TIP3    H116155   4.066   0.446  -0.022
 5383TIP3    H216156   4.135   0.338   0.059
 5384TIP3   OH216157   3.717   2.664   2.872
 5384TIP3    H116158   3.791   2.621   2.829
 5384TIP3    H216159   3.664   2.592   2.906
 5385TIP3   OH216160   2.646   5.314   2.756
 5385TIP3    H116161   2.568   5.263   2.779
 5385TIP3    H216162   2.697   5.318   2.837
 5386TIP3   OH216163   3.588   4.260   0.894
 5386TIP3    H116164   3.594   4.353   0.916
 5386TIP3    H216165   3.494   4.243   0.887
 5387TIP3   OH216166   2.919   1.185   3.920
 5387TIP3    H116167   2.962   1.204   3.836
 5387TIP3    H216168   2.985   1.137   3.970
 5388TIP3   OH216169   6.218   4.571   3.149
 5388TIP3    H116170   6.293   4.608   3.196
 5388TIP3    H216171   6.255   4.499   3.098
 5389TIP3   OH216172   6.116   2.237   4.563
 5389TIP3    H116173   6.154   2.322   4.586
 5389TIP3    H216174   6.067   2.253   4.483
 5390TIP3   OH216175   4.160   4.386   0.653
 5390TIP3    H116176   4.080   4.377   0.601
 5390TIP3    H216177   4.223   4.425   0.592
 5391TIP3   OH216178   4.621   4.852   1.530
 5391TIP3    H116179   4.554   4.790   1.500
 5391TIP3    H216180   4.588   4.937   1.502
 5392TIP3   OH216181   2.461   2.698   4.774
 5392TIP3    H116182   2.407   2.725   4.700
 5392TIP3    H216183   2.550   2.697   4.739
 5393TIP3   OH216184   1.730   1.917   1.755
 5393TIP3    H116185   1.784   1.996   1.754
 5393TIP3    H216186   1.732   1.885   1.665
 5394TIP3   OH216187   3.403   2.006   4.468
 5394TIP3    H116188   3.319   1.984   4.427
 5394TIP3    H216189   3.461   1.934   4.443
 5395TIP3   OH216190   0.568   2.498   1.098
 5395TIP3    H116191   0.622   2.425   1.127
 5395TIP3    H216192   0.558   2.553   1.175
 5396TIP3   OH216193   1.491   5.907   0.892
 5396TIP3    H116194   1.425   5.880   0.956
 5396TIP3    H216195   1.571   5.917   0.944
 5397TIP3   OH216196   2.124   2.281   2.062
 5397TIP3    H116197   2.058   2.256   2.126
 5397TIP3    H216198   2.076   2.332   1.997
 5398TIP3   OH216199   5.226   0.463   2.885
 5398TIP3    H116200   5.229   0.542   2.939
 5398TIP3    H216201   5.163   0.483   2.815
 5399TIP3   OH216202   1.770   0.625   0.692
 5399TIP3    H116203   1.689   0.677   0.692
 5399TIP3    H216204   1.780   0.597   0.783
 5400TIP3   OH216205   4.178   3.203   1.982
 5400TIP3    H116206   4.209   3.287   2.017
 5400TIP3    H216207   4.096   3.225   1.938
 5401TIP3   OH216208   0.751   5.180   3.984
 5401TIP3    H116209   0.667   5.221   3.966
 5401TIP3    H216210   0.805   5.201   3.907
 5402TIP3   OH216211   1.278   2.433   0.777
 5402TIP3    H116212   1.322   2.517   0.767
 5402TIP3    H216213   1.345   2.374   0.811
 5403TIP3   OH216214   5.756   4.968   4.478
 5403TIP3    H116215   5.782   4.878   4.458
 5403TIP3    H216216   5.674   4.981   4.431
 5404TIP3   OH216217   6.048   0.163   0.944
 5404TIP3    H116218   5.962   0.202   0.932
 5404TIP3    H216219   6.108   0.224   0.900
 5405TIP3   OH216220   1.152   3.913   0.940
 5405TIP3    H116221   1.223   3.969   0.972
 5405TIP3    H216222   1.094   3.973   0.893
 5406TIP3   OH216223   5.243   1.651   2.239
 5406TIP3    H116224   5.292   1.615   2.165
 5406TIP3    H216225   5.187   1.579   2.268
 5407TIP3   OH216226   5.356   4.857   2.069
 5407TIP3    H116227   5.441   4.832   2.031
 5407TIP3    H216228   5.341   4.946   2.037
 5408TIP3   OH216229   2.309   2.473   2.272
 5408TIP3    H116230   2.316   2.564   2.244
 5408TIP3    H216231   2.220   2.465   2.305
 5409TIP3   OH216232   4.059   1.484   3.747
 5409TIP3    H116233   4.102   1.423   3.687
 5409TIP3    H216234   4.109   1.566   3.739
 5410TIP3   OH216235   4.104   5.606   2.089
 5410TIP3    H116236   4.011   5.589   2.074
 5410TIP3    H216237   4.105   5.669   2.161
 5411TIP3   OH216238   5.470   0.829   0.469
 5411TIP3    H116239   5.420   0.911   0.471
 5411TIP3    H216240   5.549   0.847   0.518
 5412TIP3   OH216241   3.828   2.156   3.001
 5412TIP3    H116242   3.774   2.100   3.057
 5412TIP3    H216243   3.880   2.208   3.063
 5413TIP3   OH216244   3.152   4.035   2.133
 5413TIP3    H116245   3.137   4.037   2.227
 5413TIP3    H216246   3.068   4.058   2.093
 5414TIP3   OH216247   1.664   3.022   1.162
 5414TIP3    H116248   1.665   3.114   1.136
 5414TIP3    H216249   1.638   3.023   1.254
 5415TIP3   OH216250   3.013   0.253   0.214
 5415TIP3    H116251   2.999   0.159   0.215
 5415TIP3    H216252   3.095   0.265   0.262
 5416TIP3   OH216253   6.306   1.838   4.860
 5416TIP3    H116254   6.219   1.810   4.832
 5416TIP3    H216255   6.366   1.796   4.799
 5417TIP3   OH216256   6.090   5.876   0.858
 5417TIP3    H116257   6.087   5.952   0.800
 5417TIP3    H216258   6.043   5.808   0.811
 5418TIP3   OH216259   3.602   4.198   4.837
 5418TIP3    H116260   3.611   4.287   4.871
 5418TIP3    H216261   3.597   4.209   4.742
 5419TIP3   OH216262   4.966   5.092   2.905
 5419TIP3    H116263   4.917   5.039   2.842
 5419TIP3    H216264   4.908   5.165   2.925
 5420TIP3   OH216265   3.112   0.886   4.859
 5420TIP3    H116266   3.187   0.863   4.805
 5420TIP3    H216267   3.121   0.980   4.874
 5421TIP3   OH216268   1.138   2.354   0.227
 5421TIP3    H116269   1.052   2.382   0.195
 5421TIP3    H216270   1.143   2.387   0.317
 5422TIP3   OH216271   2.581   5.376   3.416
 5422TIP3    H116272   2.633   5.322   3.475
 5422TIP3    H216273   2.604   5.466   3.438
 5423TIP3   OH216274   3.678   4.588   4.660
 5423TIP3    H116275   3.768   4.558   4.673
 5423TIP3    H216276   3.655   4.557   4.573
 5424TIP3   OH216277   1.390   0.597   3.262
 5424TIP3    H116278   1.383   0.568   3.171
 5424TIP3    H216279   1.462   0.661   3.261
 5425TIP3   OH216280   3.873   0.614   1.267
 5425TIP3    H116281   3.819   0.549   1.311
 5425TIP3    H216282   3.809   0.676   1.230
 5426TIP3   OH216283   5.507   5.825   3.064
 5426TIP3    H116284   5.460   5.883   3.123
 5426TIP3    H216285   5.452   5.748   3.054
 5427TIP3   OH216286   0.774   2.744   4.342
 5427TIP3    H116287   0.723   2.683   4.288
 5427TIP3    H216288   0.796   2.694   4.420
 5428TIP3   OH216289   2.235   2.934   1.826
 5428TIP3    H116290   2.329   2.946   1.815
 5428TIP3    H216291   2.201   2.931   1.737
 5429TIP3   OH216292   1.472   3.080   3.537
 5429TIP3    H116293   1.379   3.095   3.520
 5429TIP3    H216294   1.484   2.985   3.525
 5430TIP3   OH216295   0.586   4.059   2.878
 5430TIP3    H116296   0.571   3.967   2.896
 5430TIP3    H216297   0.592   4.065   2.783
 5431TIP3   OH216298   2.908   5.601   0.163
 5431TIP3    H116299   2.934   5.594   0.255
 5431TIP3    H216300   2.986   5.636   0.119
 5432TIP3   OH216301   5.067   2.179   3.720
 5432TIP3    H116302   5.105   2.091   3.716
 5432TIP3    H216303   5.012   2.186   3.642
 5433TIP3   OH216304   0.216   4.459   0.919
 5433TIP3    H116305   0.215   4.375   0.873
 5433TIP3    H216306   0.307   4.489   0.914
 5434TIP3   OH216307   2.762   6.018   3.932
 5434TIP3    H116308   2.845   6.031   3.979
 5434TIP3    H216309   2.772   5.933   3.889
 5435TIP3   OH216310   0.191   5.374   0.262
 5435TIP3    H116311   0.279   5.397   0.291
 5435TIP3    H216312   0.172   5.290   0.304
 5436TIP3   OH216313   0.810   0.726   4.438
 5436TIP3    H116314   0.730   0.717   4.386
 5436TIP3    H216315   0.787   0.689   4.523
 5437TIP3   OH216316   0.178   4.287   2.054
 5437TIP3    H116317   0.190   4.239   1.972
 5437TIP3    H216318   0.194   4.379   2.031
 5438TIP3   OH216319   4.752   0.113   0.024
 5438TIP3    H116320   4.707   0.159   0.095
 5438TIP3    H216321   4.828   0.072   0.067
 5439TIP3   OH216322   4.728   2.176   2.338
 5439TIP3    H116323   4.717   2.094   2.386
 5439TIP3    H216324   4.823   2.191   2.337
 5440TIP3   OH216325   4.916   5.058   0.327
 5440TIP3    H116326   4.865   4.983   0.355
 5440TIP3    H216327   4.976   5.075   0.400
 5441TIP3   OH216328   0.882   3.357   2.372
 5441TIP3    H116329   0.888   3.304   2.293
 5441TIP3    H216330   0.819   3.426   2.350
 5442TIP3   OH216331   5.031   1.979   0.653
 5442TIP3    H116332   5.079   1.972   0.735
 5442TIP3    H216333   4.998   2.069   0.652
 5443TIP3   OH216334   1.925   4.337   0.643
 5443TIP3    H116335   1.899   4.276   0.712
 5443TIP3    H216336   2.015   4.312   0.622
 5444TIP3   OH216337   0.872   1.527   1.770
 5444TIP3    H116338   0.950   1.544   1.717
 5444TIP3    H216339   0.800   1.565   1.718
 5445TIP3   OH216340   2.646   3.555   4.050
 5445TIP3    H116341   2.558   3.530   4.079
 5445TIP3    H216342   2.674   3.622   4.111
 5446TIP3   OH216343   2.471   0.261   0.068
 5446TIP3    H116344   2.497   0.171   0.048
 5446TIP3    H216345   2.432   0.293  -0.014
 5447TIP3   OH216346   1.891   3.143   4.294
 5447TIP3    H116347   1.813   3.191   4.321
 5447TIP3    H216348   1.948   3.145   4.372
 5448TIP3   OH216349   2.625   2.681   0.398
 5448TIP3    H116350   2.534   2.671   0.426
 5448TIP3    H216351   2.624   2.660   0.305
 5449TIP3   OH216352   6.336   5.260   3.740
 5449TIP3    H116353   6.337   5.339   3.685
 5449TIP3    H216354   6.295   5.193   3.686
 5450TIP3   OH216355   4.103   1.769   1.353
 5450TIP3    H116356   4.195   1.761   1.327
 5450TIP3    H216357   4.074   1.679   1.367
 5451TIP3   OH216358   6.116   5.489   2.158
 5451TIP3    H116359   6.144   5.444   2.078
 5451TIP3    H216360   6.079   5.419   2.212
 5452TIP3   OH216361   4.638   4.870   5.012
 5452TIP3    H116362   4.663   4.797   5.069
 5452TIP3    H216363   4.717   4.889   4.961
 5453TIP3   OH216364   3.629   4.814   3.628
 5453TIP3    H116365   3.686   4.807   3.705
 5453TIP3    H216366   3.594   4.726   3.617
 5454TIP3   OH216367   1.928   3.906   2.426
 5454TIP3    H116368   1.980   3.828   2.408
 5454TIP3    H216369   1.992   3.973   2.450
 5455TIP3   OH216370   4.707   2.131   4.912
 5455TIP3    H116371   4.798   2.113   4.888
 5455TIP3    H216372   4.687   2.068   4.981
 5456TIP3   OH216373   4.435   1.393   2.769
 5456TIP3    H116374   4.510   1.369   2.714
 5456TIP3    H216375   4.472   1.448   2.837
 5457TIP3   OH216376   1.764   2.836   2.731
 5457TIP3    H116377   1.682   2.884   2.739
 5457TIP3    H216378   1.758   2.767   2.797
 5458TIP3   OH216379   5.854   1.085   4.345
 5458TIP3    H116380   5.898   1.005   4.373
 5458TIP3    H216381   5.896   1.108   4.263
 5459TIP3   OH216382   5.237   5.732   1.296
 5459TIP3    H116383   5.261   5.687   1.378
 5459TIP3    H216384   5.321   5.746   1.252
 5460TIP3   OH216385   0.237   3.221   1.476
 5460TIP3    H116386   0.249   3.210   1.382
 5460TIP3    H216387   0.222   3.133   1.510
 5461TIP3   OH216388   5.526   1.877   1.427
 5461TIP3    H116389   5.483   1.942   1.374
 5461TIP3    H216390   5.603   1.850   1.376
 5462TIP3   OH216391   3.485   4.238   0.302
 5462TIP3    H116392   3.526   4.163   0.346
 5462TIP3    H216393   3.406   4.202   0.261
 5463TIP3   OH216394   1.551   4.042   5.124
 5463TIP3    H116395   1.461   4.027   5.152
 5463TIP3    H216396   1.551   4.130   5.086
 5464TIP3   OH216397   3.688   4.594   2.208
 5464TIP3    H116398   3.717   4.567   2.121
 5464TIP3    H216399   3.642   4.676   2.194
 5465TIP3   OH216400   6.123   4.149   3.959
 5465TIP3    H116401   6.076   4.206   4.020
 5465TIP3    H216402   6.082   4.166   3.874
 5466TIP3   OH216403   1.671   1.766   4.968
 5466TIP3    H116404   1.673   1.696   5.034
 5466TIP3    H216405   1.759   1.805   4.971
 5467TIP3   OH216406   0.674   4.699   5.136
 5467TIP3    H116407   0.661   4.710   5.230
 5467TIP3    H216408   0.757   4.653   5.129
 5468TIP3   OH216409   3.642   0.285   2.476
 5468TIP3    H116410   3.639   0.217   2.544
 5468TIP3    H216411   3.733   0.288   2.449
 5469TIP3   OH216412   2.338   2.181   0.154
 5469TIP3    H116413   2.405   2.176   0.223
 5469TIP3    H216414   2.290   2.262   0.172
 5470TIP3   OH216415   6.370   4.657   2.234
 5470TIP3    H116416   6.314   4.610   2.172
 5470TIP3    H216417   6.388   4.741   2.192
 5471TIP3   OH216418   0.281   3.450   3.059
 5471TIP3    H116419   0.377   3.447   3.058
 5471TIP3    H216420   0.260   3.522   3.118
 5472TIP3   OH216421   0.044   3.452   1.906
 5472TIP3    H116422  -0.007   3.462   1.986
 5472TIP3    H216423   0.037   3.359   1.885
 5473TIP3   OH216424   3.319   5.944   0.862
 5473TIP3    H116425   3.340   5.977   0.774
 5473TIP3    H216426   3.231   5.907   0.853
 5474TIP3   OH216427   5.312   3.296   4.461
 5474TIP3    H116428   5.239   3.358   4.457
 5474TIP3    H216429   5.350   3.311   4.548
 5475TIP3   OH216430   4.393   5.430   4.468
 5475TIP3    H116431   4.313   5.440   4.417
 5475TIP3    H216432   4.401   5.335   4.482
 5476TIP3   OH216433   5.821   1.443   2.698
 5476TIP3    H116434   5.870   1.520   2.669
 5476TIP3    H216435   5.729   1.464   2.679
 5477TIP3   OH216436   0.352   0.614   3.598
 5477TIP3    H116437   0.321   0.539   3.546
 5477TIP3    H216438   0.447   0.609   3.592
 5478TIP3   OH216439   6.234   1.258   3.984
 5478TIP3    H116440   6.311   1.314   3.993
 5478TIP3    H216441   6.235   1.231   3.893
 5479TIP3   OH216442   2.940   0.927   3.077
 5479TIP3    H116443   2.933   0.978   3.158
 5479TIP3    H216444   2.983   0.846   3.104
 5480TIP3   OH216445   3.203   5.211   3.682
 5480TIP3    H116446   3.173   5.289   3.635
 5480TIP3    H216447   3.148   5.207   3.760
 5481TIP3   OH216448   2.193   0.204   1.355
 5481TIP3    H116449   2.115   0.179   1.405
 5481TIP3    H216450   2.214   0.126   1.303
 5482TIP3   OH216451   2.782   0.586   3.095
 5482TIP3    H116452   2.697   0.612   3.130
 5482TIP3    H216453   2.787   0.627   3.009
 5483TIP3   OH216454   2.997   1.211   4.306
 5483TIP3    H116455   2.999   1.264   4.227
 5483TIP3    H216456   2.904   1.208   4.331
 5484TIP3   OH216457   4.421   4.403   1.024
 5484TIP3    H116458   4.431   4.313   0.991
 5484TIP3    H216459   4.491   4.412   1.088
 5485TIP3   OH216460   0.670   3.345   2.136
 5485TIP3    H116461   0.685   3.440   2.133
 5485TIP3    H216462   0.754   3.307   2.111
 5486TIP3   OH216463   4.665   3.140   2.921
 5486TIP3    H116464   4.618   3.181   2.994
 5486TIP3    H216465   4.626   3.180   2.842
 5487TIP3   OH216466   0.845   2.522   0.949
 5487TIP3    H116467   0.869   2.600   0.999
 5487TIP3    H216468   0.761   2.494   0.987
 5488TIP3   OH216469   6.244   3.967   0.335
 5488TIP3    H116470   6.167   3.948   0.388
 5488TIP3    H216471   6.217   4.040   0.279
 5489TIP3   OH216472   2.986   2.013   1.032
 5489TIP3    H116473   3.008   2.002   1.124
 5489TIP3    H216474   2.900   2.054   1.033
 5490TIP3   OH216475   4.527   0.714   3.035
 5490TIP3    H116476   4.502   0.626   3.062
 5490TIP3    H216477   4.484   0.727   2.951
 5491TIP3   OH216478   1.483   2.378   2.552
 5491TIP3    H116479   1.534   2.385   2.632
 5491TIP3    H216480   1.523   2.305   2.504
 5492TIP3   OH216481   1.314   0.032   4.564
 5492TIP3    H116482   1.281   0.014   4.476
 5492TIP3    H216483   1.239   0.067   4.612
 5493TIP3   OH216484   4.635   4.838   1.795
 5493TIP3    H116485   4.543   4.842   1.819
 5493TIP3    H216486   4.635   4.846   1.699
 5494TIP3   OH216487   2.897   3.194   0.317
 5494TIP3    H116488   2.889   3.144   0.399
 5494TIP3    H216489   2.990   3.191   0.296
 5495TIP3   OH216490   4.935   0.398   3.774
 5495TIP3    H116491   4.922   0.429   3.684
 5495TIP3    H216492   5.027   0.418   3.793
 5496TIP3   OH216493   5.107   2.056   2.078
 5496TIP3    H116494   5.103   1.974   2.128
 5496TIP3    H216495   5.199   2.065   2.054
 5497TIP3   OH216496   1.828   1.675   4.346
 5497TIP3    H116497   1.747   1.725   4.339
 5497TIP3    H216498   1.872   1.710   4.423
 5498TIP3   OH216499   0.041   1.442   2.486
 5498TIP3    H116500   0.003   1.367   2.531
 5498TIP3    H216501   0.133   1.418   2.474
 5499TIP3   OH216502   3.581   0.728   4.908
 5499TIP3    H116503   3.552   0.672   4.980
 5499TIP3    H216504   3.524   0.805   4.913
 5500TIP3   OH216505   0.336   0.380   1.688
 5500TIP3    H116506   0.372   0.398   1.601
 5500TIP3    H216507   0.401   0.325   1.731
 5501TIP3   OH216508   3.352   4.572   3.373
 5501TIP3    H116509   3.286   4.592   3.439
 5501TIP3    H216510   3.326   4.625   3.297
 5502TIP3   OH216511   2.601   4.342   2.709
 5502TIP3    H116512   2.556   4.425   2.722
 5502TIP3    H216513   2.558   4.281   2.769
 5503TIP3   OH216514   5.794   4.650   3.406
 5503TIP3    H116515   5.854   4.586   3.368
 5503TIP3    H216516   5.851   4.713   3.451
 5504TIP3   OH216517   4.193   2.788   4.563
 5504TIP3    H116518   4.193   2.807   4.470
 5504TIP3    H216519   4.211   2.694   4.568
 5505TIP3   OH216520   1.656   2.759   3.270
 5505TIP3    H116521   1.604   2.794   3.342
 5505TIP3    H216522   1.640   2.665   3.273
 5506TIP3   OH216523   4.687   2.645   5.078
 5506TIP3    H116524   4.777   2.669   5.099
 5506TIP3    H216525   4.676   2.558   5.117
 5507TIP3   OH216526   3.028   3.515   1.578
 5507TIP3    H116527   3.099   3.579   1.573
 5507TIP3    H216528   3.029   3.470   1.494
 5508TIP3   OH216529   6.214   2.846   0.388
 5508TIP3    H116530   6.303   2.861   0.421
 5508TIP3    H216531   6.224   2.772   0.327
 5509TIP3   OH216532   4.528   2.036  -0.018
 5509TIP3    H116533   4.581   2.073   0.053
 5509TIP3    H216534   4.441   2.023   0.021
 5510TIP3   OH216535   1.776   4.516   1.952
 5510TIP3    H116536   1.685   4.510   1.922
 5510TIP3    H216537   1.770   4.527   2.047
 5511TIP3   OH216538   1.175  -0.013   1.107
 5511TIP3    H116539   1.098   0.030   1.145
 5511TIP3    H216540   1.228   0.059   1.074
 5512TIP3   OH216541   0.891   4.073   5.032
 5512TIP3    H116542   0.862   4.094   5.120
 5512TIP3    H216543   0.845   4.137   4.976
 5513TIP3   OH216544   2.608   2.732   2.839
 5513TIP3    H116545   2.538   2.791   2.869
 5513TIP3    H216546   2.664   2.788   2.784
 5514TIP3   OH216547   4.253   4.104   0.261
 5514TIP3    H116548   4.276   4.160   0.335
 5514TIP3    H216549   4.233   4.165   0.190
 5515TIP3   OH216550   6.324   1.234   1.873
 5515TIP3    H116551   6.381   1.157   1.877
 5515TIP3    H216552   6.244   1.203   1.830
 5516TIP3   OH216553   4.657   5.971   0.645
 5516TIP3    H116554   4.671   5.892   0.593
 5516TIP3    H216555   4.605   6.028   0.588
 5517TIP3   OH216556   4.193   0.981   0.437
 5517TIP3    H116557   4.250   0.904   0.429
 5517TIP3    H216558   4.188   0.999   0.531
 5518TIP3   OH216559   4.904   4.112   0.324
 5518TIP3    H116560   4.968   4.111   0.396
 5518TIP3    H216561   4.904   4.022   0.292
 5519TIP3   OH216562   5.349   2.176   4.417
 5519TIP3    H116563   5.317   2.102   4.469
 5519TIP3    H216564   5.322   2.253   4.466
 5520TIP3   OH216565   5.637   2.114   3.686
 5520TIP3    H116566   5.730   2.119   3.664
 5520TIP3    H216567   5.593   2.101   3.602
 5521TIP3   OH216568   3.124   1.361   2.656
 5521TIP3    H116569   3.070   1.372   2.735
 5521TIP3    H216570   3.164   1.274   2.667
 5522TIP3   OH216571   1.865   3.920   2.115
 5522TIP3    H116572   1.848   3.875   2.198
 5522TIP3    H216573   1.778   3.936   2.078
 5523TIP3   OH216574   0.667   5.690   3.504
 5523TIP3    H116575   0.609   5.646   3.441
 5523TIP3    H216576   0.690   5.772   3.461
 5524TIP3   OH216577   2.100   3.732   1.434
 5524TIP3    H116578   2.192   3.708   1.435
 5524TIP3    H216579   2.098   3.815   1.385
 5525TIP3   OH216580   0.784   0.396   3.512
 5525TIP3    H116581   0.692   0.379   3.531
 5525TIP3    H216582   0.821   0.310   3.493
 5526TIP3   OH216583   5.469   2.904   0.838
 5526TIP3    H116584   5.418   2.875   0.762
 5526TIP3    H216585   5.551   2.856   0.831
 5527TIP3   OH216586   0.599   5.910   5.102
 5527TIP3    H116587   0.652   5.833   5.081
 5527TIP3    H216588   0.584   5.953   5.018
 5528TIP3   OH216589   2.677   4.697   0.132
 5528TIP3    H116590   2.770   4.685   0.152
 5528TIP3    H216591   2.655   4.623   0.076
 5529TIP3   OH216592   5.447   1.191   1.962
 5529TIP3    H116593   5.354   1.173   1.974
 5529TIP3    H216594   5.450   1.272   1.911
 5530TIP3   OH216595   1.310   5.553   2.806
 5530TIP3    H116596   1.222   5.560   2.842
 5530TIP3    H216597   1.363   5.613   2.859
 5531TIP3   OH216598   2.271   0.208   0.547
 5531TIP3    H116599   2.304   0.239   0.631
 5531TIP3    H216600   2.226   0.284   0.510
 5532TIP3   OH216601   2.212   5.558   4.641
 5532TIP3    H116602   2.185   5.611   4.717
 5532TIP3    H216603   2.161   5.593   4.568
 5533TIP3   OH216604   6.361   1.463   4.731
 5533TIP3    H116605   6.272   1.499   4.732
 5533TIP3    H216606   6.418   1.539   4.744
 5534TIP3   OH216607   4.247   3.913   2.530
 5534TIP3    H116608   4.231   3.987   2.589
 5534TIP3    H216609   4.161   3.893   2.494
 5535TIP3   OH216610   4.121   0.144   1.251
 5535TIP3    H116611   4.213   0.121   1.234
 5535TIP3    H216612   4.076   0.125   1.169
 5536TIP3   OH216613   3.609   3.051   1.119
 5536TIP3    H116614   3.518   3.021   1.114
 5536TIP3    H216615   3.647   3.000   1.190
 5537TIP3   OH216616   0.212   3.312   4.376
 5537TIP3    H116617   0.308   3.309   4.375
 5537TIP3    H216618   0.188   3.249   4.444
 5538TIP3   OH216619   4.833   2.457   2.535
 5538TIP3    H116620   4.777   2.379   2.543
 5538TIP3    H216621   4.791   2.509   2.467
 5539TIP3   OH216622   1.588   0.089   4.845
 5539TIP3    H116623   1.583   0.062   4.753
 5539TIP3    H216624   1.677   0.066   4.872
 5540TIP3   OH216625   3.701   2.055   0.097
 5540TIP3    H116626   3.741   1.968   0.099
 5540TIP3    H216627   3.717   2.087   0.008
 5541TIP3   OH216628   0.915   0.252   1.898
 5541TIP3    H116629   0.915   0.313   1.972
 5541TIP3    H216630   0.905   0.307   1.821
 5542TIP3   OH216631   4.742   2.647   1.185
 5542TIP3    H116632   4.809   2.590   1.223
 5542TIP3    H216633   4.712   2.600   1.107
 5543TIP3   OH216634   5.709   4.104   0.904
 5543TIP3    H116635   5.635   4.107   0.965
 5543TIP3    H216636   5.737   4.195   0.897
 5544TIP3   OH216637   3.548   0.630   2.307
 5544TIP3    H116638   3.469   0.642   2.255
 5544TIP3    H216639   3.578   0.542   2.286
 5545TIP3   OH216640   0.616   4.374   4.940
 5545TIP3    H116641   0.571   4.402   5.020
 5545TIP3    H216642   0.699   4.337   4.970
 5546TIP3   OH216643   6.018   1.379   4.647
 5546TIP3    H116644   5.925   1.388   4.626
 5546TIP3    H216645   6.059   1.457   4.609
 5547TIP3   OH216646   5.596   2.742   5.048
 5547TIP3    H116647   5.531   2.672   5.049
 5547TIP3    H216648   5.545   2.822   5.060
 5548TIP3   OH216649   0.674   3.146   1.694
 5548TIP3    H116650   0.603   3.202   1.662
 5548TIP3    H216651   0.697   3.182   1.779
 5549TIP3   OH216652   1.042   0.541   4.716
 5549TIP3    H116653   0.947   0.539   4.710
 5549TIP3    H216654   1.067   0.626   4.678
 5550TIP3   OH216655   1.618   2.591   1.457
 5550TIP3    H116656   1.559   2.602   1.532
 5550TIP3    H216657   1.704   2.616   1.491
 5551TIP3   OH216658   1.068   3.485   3.395
 5551TIP3    H116659   1.050   3.563   3.448
 5551TIP3    H216660   0.994   3.426   3.413
 5552TIP3   OH216661   4.995   2.344   4.818
 5552TIP3    H116662   4.986   2.251   4.796
 5552TIP3    H216663   5.024   2.385   4.736
 5553TIP3   OH216664   5.625   4.886   1.792
 5553TIP3    H116665   5.647   4.929   1.710
 5553TIP3    H216666   5.539   4.847   1.776
 5554TIP3   OH216667   5.564   5.330   3.765
 5554TIP3    H116668   5.489   5.288   3.724
 5554TIP3    H216669   5.605   5.381   3.695
 5555TIP3   OH216670   2.716   4.834   1.058
 5555TIP3    H116671   2.622   4.836   1.039
 5555TIP3    H216672   2.725   4.767   1.126
 5556TIP3   OH216673   5.457   3.431   3.672
 5556TIP3    H116674   5.377   3.463   3.714
 5556TIP3    H216675   5.460   3.478   3.588
 5557TIP3   OH216676   2.425   1.641   2.769
 5557TIP3    H116677   2.346   1.596   2.797
 5557TIP3    H216678   2.473   1.577   2.717
 5558TIP3   OH216679   4.763   4.517   2.058
 5558TIP3    H116680   4.688   4.497   2.003
 5558TIP3    H216681   4.744   4.472   2.141
 5559TIP3   OH216682   4.522   3.197   0.490
 5559TIP3    H116683   4.464   3.136   0.443
 5559TIP3    H216684   4.469   3.229   0.563
 5560TIP3   OH216685   5.242   1.370   1.019
 5560TIP3    H116686   5.320   1.414   0.984
 5560TIP3    H216687   5.246   1.386   1.113
 5561TIP3   OH216688   3.214   0.150   1.044
 5561TIP3    H116689   3.219   0.243   1.024
 5561TIP3    H216690   3.242   0.107   0.964
 5562TIP3   OH216691   3.574   5.086   4.668
 5562TIP3    H116692   3.488   5.126   4.682
 5562TIP3    H216693   3.609   5.074   4.756
 5563TIP3   OH216694   3.349   2.885   4.472
 5563TIP3    H116695   3.270   2.912   4.426
 5563TIP3    H216696   3.415   2.950   4.448
 5564TIP3   OH216697   2.822   4.287   1.305
 5564TIP3    H116698   2.737   4.328   1.317
 5564TIP3    H216699   2.802   4.198   1.276
 5565TIP3   OH216700   0.538   0.598   3.086
 5565TIP3    H116701   0.567   0.689   3.094
 5565TIP3    H216702   0.619   0.547   3.081
 5566TIP3   OH216703   5.797   0.282   4.626
 5566TIP3    H116704   5.798   0.211   4.690
 5566TIP3    H216705   5.760   0.356   4.674
 5567TIP3   OH216706   2.993   0.220   4.135
 5567TIP3    H116707   2.907   0.253   4.106
 5567TIP3    H216708   3.053   0.247   4.066
 5568TIP3   OH216709   5.410   5.847   3.581
 5568TIP3    H116710   5.401   5.760   3.542
 5568TIP3    H216711   5.489   5.884   3.541
 5569TIP3   OH216712   5.556   2.973   0.322
 5569TIP3    H116713   5.626   2.945   0.263
 5569TIP3    H216714   5.586   3.057   0.356
 5570TIP3   OH216715   4.591   3.448   2.501
 5570TIP3    H116716   4.574   3.542   2.509
 5570TIP3    H216717   4.678   3.436   2.540
 5571TIP3   OH216718   2.132   1.889   3.878
 5571TIP3    H116719   2.204   1.923   3.930
 5571TIP3    H216720   2.089   1.825   3.934
 5572TIP3   OH216721   0.748   2.282   1.066
 5572TIP3    H116722   0.825   2.267   1.011
 5572TIP3    H216723   0.767   2.236   1.147
 5573TIP3   OH216724   6.309   2.156   1.076
 5573TIP3    H116725   6.306   2.061   1.086
 5573TIP3    H216726   6.335   2.189   1.162
 5574TIP3   OH216727   2.157   3.550   2.472
 5574TIP3    H116728   2.087   3.591   2.422
 5574TIP3    H216729   2.237   3.574   2.426
 5575TIP3   OH216730   3.039   4.274   0.107
 5575TIP3    H116731   3.059   4.180   0.111
 5575TIP3    H216732   3.083   4.304   0.027
 5576TIP3   OH216733   1.196   2.589   3.766
 5576TIP3    H116734   1.126   2.610   3.828
 5576TIP3    H216735   1.277   2.598   3.818
 5577TIP3   OH216736   6.025   1.087   3.890
 5577TIP3    H116737   5.965   1.161   3.880
 5577TIP3    H216738   6.038   1.079   3.984
 5578TIP3   OH216739   3.485   4.678   0.577
 5578TIP3    H116740   3.394   4.649   0.585
 5578TIP3    H216741   3.496   4.698   0.484
 5579TIP3   OH216742   5.126   1.900   4.272
 5579TIP3    H116743   5.085   1.976   4.229
 5579TIP3    H216744   5.171   1.854   4.201
 5580TIP3   OH216745   1.007   3.201   2.645
 5580TIP3    H116746   1.010   3.118   2.598
 5580TIP3    H216747   1.028   3.267   2.579
 5581TIP3   OH216748   0.380   2.149   2.770
 5581TIP3    H116749   0.353   2.197   2.848
 5581TIP3    H216750   0.347   2.060   2.783
 5582TIP3   OH216751   2.766   0.864   2.343
 5582TIP3    H116752   2.741   0.772   2.345
 5582TIP3    H216753   2.731   0.897   2.260
 5583TIP3   OH216754   6.281   3.931   4.020
 5583TIP3    H116755   6.204   3.983   3.995
 5583TIP3    H216756   6.341   3.942   3.946
 5584TIP3   OH216757   2.588   0.415   1.834
 5584TIP3    H116758   2.624   0.329   1.856
 5584TIP3    H216759   2.620   0.433   1.746
 5585TIP3   OH216760   2.300   3.290   3.675
 5585TIP3    H116761   2.297   3.194   3.674
 5585TIP3    H216762   2.262   3.314   3.759
 5586TIP3   OH216763   2.509   4.139   4.637
 5586TIP3    H116764   2.569   4.111   4.707
 5586TIP3    H216765   2.435   4.078   4.644
 5587TIP3   OH216766   6.356   3.183   1.897
 5587TIP3    H116767   6.415   3.112   1.870
 5587TIP3    H216768   6.274   3.163   1.851
 5588TIP3   OH216769   6.376   1.246   3.052
 5588TIP3    H116770   6.416   1.238   3.139
 5588TIP3    H216771   6.316   1.319   3.060
 5589TIP3   OH216772   3.424   3.605   3.601
 5589TIP3    H116773   3.369   3.548   3.654
 5589TIP3    H216774   3.376   3.615   3.518
 5590TIP3   OH216775   0.280   5.954   4.819
 5590TIP3    H116776   0.228   6.029   4.791
 5590TIP3    H216777   0.220   5.903   4.873
 5591TIP3   OH216778   6.276   4.899   4.615
 5591TIP3    H116779   6.300   4.813   4.582
 5591TIP3    H216780   6.235   4.882   4.700
 5592TIP3   OH216781   2.164   4.351   3.535
 5592TIP3    H116782   2.179   4.259   3.558
 5592TIP3    H216783   2.098   4.348   3.466
 5593TIP3   OH216784   5.100   0.923   3.829
 5593TIP3    H116785   5.130   1.013   3.840
 5593TIP3    H216786   5.044   0.908   3.906
 5594TIP3   OH216787   5.836   1.659   0.217
 5594TIP3    H116788   5.881   1.577   0.236
 5594TIP3    H216789   5.753   1.633   0.176
 5595TIP3   OH216790   5.308   5.057   3.363
 5595TIP3    H116791   5.215   5.073   3.381
 5595TIP3    H216792   5.348   5.144   3.364
 5596TIP3   OH216793   4.441   2.054   3.716
 5596TIP3    H116794   4.526   2.093   3.738
 5596TIP3    H216795   4.462   1.985   3.653
 5597TIP3   OH216796   3.860   2.017   1.038
 5597TIP3    H116797   3.807   2.096   1.031
 5597TIP3    H216798   3.800   1.946   1.017
 5598TIP3   OH216799   3.533   4.565   3.580
 5598TIP3    H116800   3.451   4.569   3.629
 5598TIP3    H216801   3.505   4.558   3.488
 5599TIP3   OH216802   3.860   4.234   3.991
 5599TIP3    H116803   3.951   4.255   3.970
 5599TIP3    H216804   3.820   4.214   3.907
 5600TIP3   OH216805   1.438   2.142   0.257
 5600TIP3    H116806   1.406   2.185   0.336
 5600TIP3    H216807   1.463   2.054   0.286
 5601TIP3   OH216808   4.107   3.277   0.972
 5601TIP3    H116809   4.015   3.303   0.967
 5601TIP3    H216810   4.155   3.349   0.931
 5602TIP3   OH216811   4.176   3.463   3.711
 5602TIP3    H116812   4.095   3.420   3.738
 5602TIP3    H216813   4.157   3.498   3.624
 5603TIP3   OH216814   3.265   5.135   3.973
 5603TIP3    H116815   3.327   5.130   3.900
 5603TIP3    H216816   3.285   5.058   4.026
 5604TIP3   OH216817   2.091   5.754   3.260
 5604TIP3    H116818   1.998   5.747   3.239
 5604TIP3    H216819   2.127   5.813   3.195
 5605TIP3   OH216820   3.339   4.955   1.430
 5605TIP3    H116821   3.363   5.025   1.369
 5605TIP3    H216822   3.373   4.985   1.514
 5606TIP3   OH216823   5.522   0.416   3.692
 5606TIP3    H116824   5.434   0.379   3.686
 5606TIP3    H216825   5.574   0.346   3.730
 5607TIP3   OH216826   5.396   3.251   4.180
 5607TIP3    H116827   5.378   3.277   4.270
 5607TIP3    H216828   5.489   3.271   4.167
 5608TIP3   OH216829   5.029   3.636   3.210
 5608TIP3    H116830   5.116   3.601   3.193
 5608TIP3    H216831   4.981   3.564   3.251
 5609TIP3   OH216832   0.257   4.590   4.652
 5609TIP3    H116833   0.259   4.510   4.705
 5609TIP3    H216834   0.170   4.626   4.666
 5610TIP3   OH216835   3.883   5.850   2.793
 5610TIP3    H116836   3.890   5.903   2.872
 5610TIP3    H216837   3.837   5.906   2.730
 5611TIP3   OH216838   3.583   2.575   0.056
 5611TIP3    H116839   3.492   2.595   0.076
 5611TIP3    H216840   3.609   2.642  -0.008
 5612TIP3   OH216841   1.503   5.341   1.224
 5612TIP3    H116842   1.570   5.364   1.160
 5612TIP3    H216843   1.522   5.396   1.300
 5613TIP3   OH216844   5.626   2.874   0.578
 5613TIP3    H116845   5.713   2.913   0.585
 5613TIP3    H216846   5.604   2.881   0.485
 5614TIP3   OH216847   2.603   4.526   3.106
 5614TIP3    H116848   2.672   4.512   3.042
 5614TIP3    H216849   2.637   4.489   3.187
 5615TIP3   OH216850   2.314   3.581   4.560
 5615TIP3    H116851   2.339   3.561   4.470
 5615TIP3    H216852   2.222   3.555   4.565
 5616TIP3   OH216853   4.265   0.008   4.888
 5616TIP3    H116854   4.274   0.027   4.981
 5616TIP3    H216855   4.185   0.053   4.862
 5617TIP3   OH216856   5.830   1.689   2.067
 5617TIP3    H116857   5.882   1.728   2.137
 5617TIP3    H216858   5.849   1.743   1.990
 5618TIP3   OH216859   5.478   0.921   1.930
 5618TIP3    H116860   5.529   0.889   1.855
 5618TIP3    H216861   5.498   1.014   1.935
 5619TIP3   OH216862   0.067   2.873   0.790
 5619TIP3    H116863  -0.006   2.892   0.849
 5619TIP3    H216864   0.087   2.781   0.805
 5620TIP3   OH216865   4.443   6.016   1.468
 5620TIP3    H116866   4.416   6.024   1.559
 5620TIP3    H216867   4.374   5.964   1.427
 5621TIP3   OH216868   5.657   2.981   2.199
 5621TIP3    H116869   5.653   3.024   2.284
 5621TIP3    H216870   5.618   3.045   2.139
 5622TIP3   OH216871   6.106   2.415   3.987
 5622TIP3    H116872   6.133   2.341   3.933
 5622TIP3    H216873   6.012   2.424   3.969
 5623TIP3   OH216874   0.032   5.876   4.579
 5623TIP3    H116875   0.070   5.962   4.558
 5623TIP3    H216876  -0.037   5.895   4.641
 5624TIP3   OH216877   2.842   4.820   4.735
 5624TIP3    H116878   2.875   4.898   4.692
 5624TIP3    H216879   2.823   4.848   4.825
 5625TIP3   OH216880   4.719   2.392   1.798
 5625TIP3    H116881   4.713   2.446   1.720
 5625TIP3    H216882   4.631   2.393   1.835
 5626TIP3   OH216883   6.069   1.474   5.105
 5626TIP3    H116884   6.133   1.541   5.084
 5626TIP3    H216885   6.060   1.479   5.200
 5627TIP3   OH216886   5.168   5.510   2.038
 5627TIP3    H116887   5.134   5.524   1.950
 5627TIP3    H216888   5.148   5.419   2.058
 5628TIP3   OH216889   2.751   2.203   1.612
 5628TIP3    H116890   2.733   2.248   1.530
 5628TIP3    H216891   2.846   2.208   1.622
 5629TIP3   OH216892   4.367   2.975   0.607
 5629TIP3    H116893   4.296   2.974   0.671
 5629TIP3    H216894   4.361   2.889   0.565
 5630TIP3   OH216895   4.961   2.192   1.482
 5630TIP3    H116896   5.013   2.179   1.561
 5630TIP3    H216897   4.956   2.105   1.441
 5631TIP3   OH216898   3.491   1.705   3.915
 5631TIP3    H116899   3.572   1.699   3.967
 5631TIP3    H216900   3.481   1.619   3.876
 5632TIP3   OH216901   4.857   2.370   3.267
 5632TIP3    H116902   4.820   2.448   3.307
 5632TIP3    H216903   4.801   2.353   3.191
 5633TIP3   OH216904   6.090   0.432   1.389
 5633TIP3    H116905   6.040   0.385   1.456
 5633TIP3    H216906   6.126   0.364   1.333
 5634TIP3   OH216907   4.171   0.015   1.889
 5634TIP3    H116908   4.161   0.034   1.796
 5634TIP3    H216909   4.134  -0.072   1.899
 5635TIP3   OH216910   4.903   5.798   2.461
 5635TIP3    H116911   4.980   5.821   2.512
 5635TIP3    H216912   4.872   5.881   2.425
 5636TIP3   OH216913   0.823   5.039   1.092
 5636TIP3    H116914   0.771   5.019   1.170
 5636TIP3    H216915   0.863   5.124   1.111
 5637TIP3   OH216916   5.639   4.045   5.027
 5637TIP3    H116917   5.713   4.084   5.074
 5637TIP3    H216918   5.584   4.119   5.003
 5638TIP3   OH216919   1.988   0.063   1.482
 5638TIP3    H116920   1.924   0.110   1.535
 5638TIP3    H216921   1.999  -0.021   1.526
 5639TIP3   OH216922   5.106   5.741   2.208
 5639TIP3    H116923   5.132   5.662   2.160
 5639TIP3    H216924   5.047   5.709   2.276
 5640TIP3   OH216925   4.813   3.716   2.450
 5640TIP3    H116926   4.754   3.790   2.461
 5640TIP3    H216927   4.812   3.672   2.535
 5641TIP3   OH216928   4.561   0.231   4.744
 5641TIP3    H116929   4.554   0.312   4.796
 5641TIP3    H216930   4.577   0.262   4.655
 5642TIP3   OH216931   4.537   3.226   4.190
 5642TIP3    H116932   4.613   3.234   4.248
 5642TIP3    H216933   4.488   3.152   4.226
 5643TIP3   OH216934   3.423   0.315   2.061
 5643TIP3    H116935   3.336   0.306   2.099
 5643TIP3    H216936   3.438   0.410   2.058
 5644TIP3   OH216937   5.820   5.159   2.923
 5644TIP3    H116938   5.798   5.070   2.952
 5644TIP3    H216939   5.746   5.186   2.870
 5645TIP3   OH216940   1.176   2.690   2.240
 5645TIP3    H116941   1.155   2.618   2.180
 5645TIP3    H216942   1.124   2.672   2.318
 5646TIP3   OH216943   2.614   5.506   2.458
 5646TIP3    H116944   2.551   5.568   2.494
 5646TIP3    H216945   2.625   5.533   2.367
 5647TIP3   OH216946   4.113   5.979   0.473
 5647TIP3    H116947   4.205   6.006   0.478
 5647TIP3    H216948   4.104   5.940   0.386
 5648TIP3   OH216949   6.140   1.974   1.821
 5648TIP3    H116950   6.115   1.984   1.913
 5648TIP3    H216951   6.229   1.941   1.824
 5649TIP3   OH216952   6.323   4.211   1.336
 5649TIP3    H116953   6.317   4.118   1.316
 5649TIP3    H216954   6.381   4.246   1.269
 5650TIP3   OH216955   1.480   1.154   4.380
 5650TIP3    H116956   1.514   1.121   4.297
 5650TIP3    H216957   1.389   1.123   4.383
 5651TIP3   OH216958   1.720   1.503   0.147
 5651TIP3    H116959   1.757   1.583   0.109
 5651TIP3    H216960   1.636   1.492   0.103
 5652TIP3   OH216961   4.273   4.466   0.406
 5652TIP3    H116962   4.336   4.535   0.427
 5652TIP3    H216963   4.318   4.385   0.431
 5653TIP3   OH216964   5.939   5.295   3.680
 5653TIP3    H116965   6.031   5.323   3.686
 5653TIP3    H216966   5.894   5.346   3.748
 5654TIP3   OH216967   2.787   2.342   1.362
 5654TIP3    H116968   2.712   2.350   1.303
 5654TIP3    H216969   2.854   2.299   1.309
 5655TIP3   OH216970   1.897   5.024   4.038
 5655TIP3    H116971   1.969   4.962   4.022
 5655TIP3    H216972   1.909   5.092   3.972
 5656TIP3   OH216973   0.952   3.673   4.386
 5656TIP3    H116974   0.917   3.709   4.468
 5656TIP3    H216975   0.882   3.618   4.352
 5657TIP3   OH216976   5.445   2.487   5.041
 5657TIP3    H116977   5.398   2.442   4.971
 5657TIP3    H216978   5.534   2.452   5.036
 5658TIP3   OH216979   2.323   5.068   3.755
 5658TIP3    H116980   2.343   5.070   3.662
 5658TIP3    H216981   2.241   5.018   3.761
 5659TIP3   OH216982   2.813   3.589   5.072
 5659TIP3    H116983   2.817   3.562   4.980
 5659TIP3    H216984   2.893   3.552   5.110
 5660TIP3   OH216985   0.707   2.212   1.563
 5660TIP3    H116986   0.684   2.142   1.624
 5660TIP3    H216987   0.732   2.286   1.620
 5661TIP3   OH216988   1.561   0.840   1.421
 5661TIP3    H116989   1.516   0.862   1.503
 5661TIP3    H216990   1.653   0.832   1.446
 5662TIP3   OH216991   1.895   4.196   3.068
 5662TIP3    H116992   1.817   4.141   3.068
 5662TIP3    H216993   1.968   4.134   3.060
 5663TIP3   OH216994   1.267   5.400   5.125
 5663TIP3    H116995   1.228   5.331   5.180
 5663TIP3    H216996   1.192   5.445   5.087
 5664TIP3   OH216997   3.628   4.158   1.519
 5664TIP3    H116998   3.652   4.123   1.433
 5664TIP3    H216999   3.539   4.190   1.507
 5665TIP3   OH217000   5.265   2.845   3.076
 5665TIP3    H117001   5.310   2.767   3.108
 5665TIP3    H217002   5.207   2.813   3.007
 5666TIP3   OH217003   3.190   2.341   3.420
 5666TIP3    H117004   3.137   2.300   3.489
 5666TIP3    H217005   3.272   2.365   3.464
 5667TIP3   OH217006   3.945   5.310   2.164
 5667TIP3    H117007   4.035   5.330   2.189
 5667TIP3    H217008   3.906   5.273   2.243
 5668TIP3   OH217009   1.208   4.018   0.160
 5668TIP3    H117010   1.250   4.104   0.155
 5668TIP3    H217011   1.115   4.037   0.170
 5669TIP3   OH217012   4.313   3.404   3.060
 5669TIP3    H117013   4.281   3.394   3.149
 5669TIP3    H217014   4.408   3.409   3.069
 5670TIP3   OH217015   5.011   0.404   2.259
 5670TIP3    H117016   4.965   0.390   2.177
 5670TIP3    H217017   4.990   0.495   2.283
 5671TIP3   OH217018   3.654   4.859   1.555
 5671TIP3    H117019   3.651   4.764   1.568
 5671TIP3    H217020   3.578   4.892   1.602
 5672TIP3   OH217021   0.250   0.438   2.184
 5672TIP3    H117022   0.226   0.531   2.186
 5672TIP3    H217023   0.210   0.401   2.263
 5673TIP3   OH217024   2.789   1.314   3.638
 5673TIP3    H117025   2.824   1.355   3.559
 5673TIP3    H217026   2.853   1.247   3.661
 5674TIP3   OH217027   1.661   3.812   1.586
 5674TIP3    H117028   1.613   3.828   1.668
 5674TIP3    H217029   1.700   3.726   1.597
 5675TIP3   OH217030   4.716   2.522   0.942
 5675TIP3    H117031   4.671   2.503   0.860
 5675TIP3    H217032   4.750   2.437   0.971
 5676TIP3   OH217033   3.187   1.151   1.841
 5676TIP3    H117034   3.241   1.081   1.805
 5676TIP3    H217035   3.148   1.114   1.920
 5677TIP3   OH217036   3.561   5.368   0.523
 5677TIP3    H117037   3.500   5.413   0.465
 5677TIP3    H217038   3.645   5.373   0.477
 5678TIP3   OH217039   3.740   0.598   4.721
 5678TIP3    H117040   3.705   0.588   4.632
 5678TIP3    H217041   3.670   0.643   4.769
 5679TIP3   OH217042   5.419   2.557   2.577
 5679TIP3    H117043   5.416   2.600   2.662
 5679TIP3    H217044   5.408   2.464   2.596
 5680TIP3   OH217045   5.130   2.091   1.663
 5680TIP3    H117046   5.120   2.162   1.727
 5680TIP3    H217047   5.220   2.099   1.631
 5681TIP3   OH217048   2.549   4.784   3.803
 5681TIP3    H117049   2.557   4.711   3.864
 5681TIP3    H217050   2.482   4.757   3.741
 5682TIP3   OH217051   1.873   3.649   1.970
 5682TIP3    H117052   1.812   3.608   1.909
 5682TIP3    H217053   1.824   3.655   2.052
 5683TIP3   OH217054   4.761   0.539   0.504
 5683TIP3    H117055   4.802   0.589   0.576
 5683TIP3    H217056   4.669   0.563   0.508
 5684TIP3   OH217057   6.369   2.262   4.131
 5684TIP3    H117058   6.357   2.291   4.040
 5684TIP3    H217059   6.281   2.239   4.160
 5685TIP3   OH217060   5.184   2.286   3.092
 5685TIP3    H117061   5.202   2.282   3.186
 5685TIP3    H217062   5.134   2.207   3.074
 5686TIP3   OH217063   0.793   0.132   1.652
 5686TIP3    H117064   0.860   0.171   1.707
 5686TIP3    H217065   0.822   0.042   1.639
 5687TIP3   OH217066   2.455   5.945   2.970
 5687TIP3    H117067   2.438   6.032   3.005
 5687TIP3    H217068   2.377   5.926   2.917
 5688TIP3   OH217069   4.362   5.074   4.678
 5688TIP3    H117070   4.428   5.141   4.693
 5688TIP3    H217071   4.394   4.997   4.725
 5689TIP3   OH217072   2.644   0.103   4.900
 5689TIP3    H117073   2.559   0.085   4.860
 5689TIP3    H217074   2.627   0.176   4.960
 5690TIP3   OH217075   1.954   0.731   0.504
 5690TIP3    H117076   1.928   0.823   0.496
 5690TIP3    H217077   1.884   0.690   0.555
 5691TIP3   OH217078   1.653   5.287   3.732
 5691TIP3    H117079   1.744   5.311   3.715
 5691TIP3    H217080   1.655   5.193   3.750
 5692TIP3   OH217081   2.846   1.105   0.019
 5692TIP3    H117082   2.927   1.151   0.042
 5692TIP3    H217083   2.777   1.155   0.062
 5693TIP3   OH217084   3.011   1.689   3.990
 5693TIP3    H117085   2.964   1.696   3.907
 5693TIP3    H217086   2.943   1.695   4.057
 5694TIP3   OH217087   2.127   1.123   2.372
 5694TIP3    H117088   2.061   1.135   2.303
 5694TIP3    H217089   2.132   1.028   2.384
 5695TIP3   OH217090   0.166   0.329   0.809
 5695TIP3    H117091   0.168   0.346   0.714
 5695TIP3    H217092   0.141   0.237   0.817
 5696TIP3   OH217093   3.225   1.555   3.418
 5696TIP3    H117094   3.264   1.642   3.409
 5696TIP3    H217095   3.280   1.498   3.365
 5697TIP3   OH217096   4.413   0.138   3.789
 5697TIP3    H117097   4.507   0.127   3.778
 5697TIP3    H217098   4.374   0.062   3.746
 5698TIP3   OH217099   5.449   4.059   2.540
 5698TIP3    H117100   5.404   3.999   2.481
 5698TIP3    H217101   5.414   4.039   2.626
 5699TIP3   OH217102   2.000   0.589   3.292
 5699TIP3    H117103   1.981   0.682   3.292
 5699TIP3    H217104   1.934   0.551   3.234
 5700TIP3   OH217105   3.592   4.983   4.012
 5700TIP3    H117106   3.636   4.903   3.981
 5700TIP3    H217107   3.521   4.951   4.067
 5701TIP3   OH217108   3.416   4.471   4.070
 5701TIP3    H117109   3.440   4.381   4.094
 5701TIP3    H217110   3.322   4.475   4.084
 5702TIP3   OH217111   0.602   4.975   3.774
 5702TIP3    H117112   0.628   4.941   3.860
 5702TIP3    H217113   0.680   5.018   3.740
 5703TIP3   OH217114   4.050   4.770   0.453
 5703TIP3    H117115   4.101   4.782   0.534
 5703TIP3    H217116   4.114   4.784   0.383
 5704TIP3   OH217117   1.382   4.085   1.332
 5704TIP3    H117118   1.390   4.002   1.380
 5704TIP3    H217119   1.356   4.059   1.244
 5705TIP3   OH217120   0.705   3.541   4.317
 5705TIP3    H117121   0.631   3.541   4.377
 5705TIP3    H217122   0.675   3.592   4.242
 5706TIP3   OH217123   5.931   4.503   1.240
 5706TIP3    H117124   6.019   4.496   1.278
 5706TIP3    H217125   5.911   4.416   1.208
 5707TIP3   OH217126   4.437   2.339   2.412
 5707TIP3    H117127   4.497   2.350   2.338
 5707TIP3    H217128   4.388   2.421   2.416
 5708TIP3   OH217129   4.911   4.804   0.825
 5708TIP3    H117130   4.884   4.896   0.820
 5708TIP3    H217131   4.967   4.791   0.749
 5709TIP3   OH217132   2.212   4.980   4.103
 5709TIP3    H117133   2.287   5.035   4.082
 5709TIP3    H217134   2.245   4.890   4.090
 5710TIP3   OH217135   1.743   5.656   4.376
 5710TIP3    H117136   1.693   5.609   4.443
 5710TIP3    H217137   1.758   5.742   4.414
 5711TIP3   OH217138   3.815   1.356   3.760
 5711TIP3    H117139   3.838   1.307   3.839
 5711TIP3    H217140   3.880   1.426   3.756
 5712TIP3   OH217141   2.276   2.776   2.291
 5712TIP3    H117142   2.312   2.849   2.342
 5712TIP3    H217143   2.328   2.775   2.211
 5713TIP3   OH217144   2.266   1.833   4.811
 5713TIP3    H117145   2.317   1.797   4.884
 5713TIP3    H217146   2.332   1.869   4.752
 5714TIP3   OH217147   2.824   3.986   1.315
 5714TIP3    H117148   2.822   3.891   1.327
 5714TIP3    H217149   2.732   4.013   1.319
 5715TIP3   OH217150   0.889   2.265   3.826
 5715TIP3    H117151   0.932   2.183   3.801
 5715TIP3    H217152   0.924   2.285   3.913
 5716TIP3   OH217153   2.480   1.972   3.640
 5716TIP3    H117154   2.390   1.980   3.609
 5716TIP3    H217155   2.496   1.878   3.644
 5717TIP3   OH217156   2.052   3.775   0.027
 5717TIP3    H117157   2.135   3.770  -0.021
 5717TIP3    H217158   2.056   3.859   0.073
 5718TIP3   OH217159   1.147   2.157   0.743
 5718TIP3    H117160   1.204   2.227   0.711
 5718TIP3    H217161   1.074   2.154   0.681
 5719TIP3   OH217162   3.874   1.493   2.277
 5719TIP3    H117163   3.879   1.577   2.232
 5719TIP3    H217164   3.964   1.461   2.278
 5720TIP3   OH217165   3.243   3.506   4.629
 5720TIP3    H117166   3.259   3.412   4.623
 5720TIP3    H217167   3.320   3.541   4.674
 5721TIP3   OH217168   0.985   4.131   2.794
 5721TIP3    H117169   1.061   4.180   2.827
 5721TIP3    H217170   0.948   4.188   2.726
 5722TIP3   OH217171   0.467   4.905   0.827
 5722TIP3    H117172   0.390   4.852   0.803
 5722TIP3    H217173   0.480   4.964   0.753
 5723TIP3   OH217174   0.547   1.861   0.262
 5723TIP3    H117175   0.502   1.778   0.276
 5723TIP3    H217176   0.620   1.860   0.323
 5724TIP3   OH217177   1.500   0.328   3.184
 5724TIP3    H117178   1.587   0.352   3.152
 5724TIP3    H217179   1.443   0.336   3.107
 5725TIP3   OH217180   4.494   3.690   2.252
 5725TIP3    H117181   4.454   3.662   2.334
 5725TIP3    H217182   4.490   3.785   2.254
 5726TIP3   OH217183   0.486   2.872   5.011
 5726TIP3    H117184   0.445   2.802   5.061
 5726TIP3    H217185   0.525   2.929   5.078
 5727TIP3   OH217186   2.906   2.506   3.105
 5727TIP3    H117187   2.961   2.575   3.143
 5727TIP3    H217188   2.820   2.518   3.146
 5728TIP3   OH217189   2.459   3.367   1.054
 5728TIP3    H117190   2.411   3.284   1.060
 5728TIP3    H217191   2.428   3.418   1.129
 5729TIP3   OH217192   6.215   3.338   1.534
 5729TIP3    H117193   6.269   3.414   1.513
 5729TIP3    H217194   6.207   3.340   1.630
 5730TIP3   OH217195   4.291   3.998   1.465
 5730TIP3    H117196   4.260   4.027   1.379
 5730TIP3    H217197   4.214   4.005   1.522
 5731TIP3   OH217198   0.487   2.486   0.425
 5731TIP3    H117199   0.527   2.537   0.495
 5731TIP3    H217200   0.417   2.436   0.468
 5732TIP3   OH217201   4.312   0.233   4.412
 5732TIP3    H117202   4.394   0.282   4.401
 5732TIP3    H217203   4.246   0.300   4.429
 5733TIP3   OH217204   5.020   3.438   4.151
 5733TIP3    H117205   5.096   3.407   4.101
 5733TIP3    H217206   4.962   3.476   4.085
 5734TIP3   OH217207   2.977   2.265   4.893
 5734TIP3    H117208   2.991   2.232   4.805
 5734TIP3    H217209   3.055   2.318   4.911
 5735TIP3   OH217210   5.651   0.578   4.074
 5735TIP3    H117211   5.704   0.501   4.054
 5735TIP3    H217212   5.641   0.623   3.990
 5736TIP3   OH217213   0.349   4.949   1.078
 5736TIP3    H117214   0.361   4.870   1.130
 5736TIP3    H217215   0.416   4.943   1.009
 5737TIP3   OH217216   1.297   3.646   4.283
 5737TIP3    H117217   1.383   3.608   4.263
 5737TIP3    H217218   1.293   3.725   4.230
 5738TIP3   OH217219   5.166   3.477   4.714
 5738TIP3    H117220   5.120   3.547   4.667
 5738TIP3    H217221   5.097   3.414   4.733
 5739TIP3   OH217222   5.416   5.309   4.472
 5739TIP3    H117223   5.436   5.277   4.560
 5739TIP3    H217224   5.441   5.401   4.473
 5740TIP3   OH217225   1.113   0.502   3.461
 5740TIP3    H117226   1.020   0.493   3.484
 5740TIP3    H217227   1.144   0.412   3.452
 5741TIP3   OH217228   4.706   3.874   3.306
 5741TIP3    H117229   4.623   3.919   3.320
 5741TIP3    H217230   4.772   3.934   3.343
 5742TIP3   OH217231   0.247   5.369   2.452
 5742TIP3    H117232   0.324   5.421   2.476
 5742TIP3    H217233   0.187   5.431   2.412
 5743TIP3   OH217234   4.238   3.861   4.375
 5743TIP3    H117235   4.204   3.837   4.288
 5743TIP3    H217236   4.194   3.801   4.435
 5744TIP3   OH217237   1.568   0.059   0.292
 5744TIP3    H117238   1.495   0.065   0.230
 5744TIP3    H217239   1.615  -0.021   0.266
 5745TIP3   OH217240   6.294   5.822   1.660
 5745TIP3    H117241   6.219   5.782   1.703
 5745TIP3    H217242   6.369   5.768   1.687
 5746TIP3   OH217243   5.596   4.598   4.223
 5746TIP3    H117244   5.658   4.601   4.150
 5746TIP3    H217245   5.600   4.507   4.254
 5747TIP3   OH217246   5.524   0.498   1.595
 5747TIP3    H117247   5.562   0.458   1.517
 5747TIP3    H217248   5.578   0.466   1.667
 5748TIP3   OH217249   1.152   4.217   0.595
 5748TIP3    H117250   1.149   4.137   0.543
 5748TIP3    H217251   1.161   4.287   0.531
 5749TIP3   OH217252   0.755   2.188   3.138
 5749TIP3    H117253   0.665   2.220   3.140
 5749TIP3    H217254   0.780   2.192   3.046
 5750TIP3   OH217255   5.410   3.946   3.757
 5750TIP3    H117256   5.317   3.933   3.778
 5750TIP3    H217257   5.410   4.022   3.698
 5751TIP3   OH217258   2.167   3.164   0.273
 5751TIP3    H117259   2.254   3.205   0.277
 5751TIP3    H217260   2.137   3.182   0.184
 5752TIP3   OH217261   0.788   4.222   3.073
 5752TIP3    H117262   0.728   4.266   3.133
 5752TIP3    H217263   0.766   4.257   2.987
 5753TIP3   OH217264   0.248   0.795   0.614
 5753TIP3    H117265   0.274   0.716   0.565
 5753TIP3    H217266   0.313   0.860   0.588
 5754TIP3   OH217267   3.689   5.443   2.730
 5754TIP3    H117268   3.776   5.480   2.712
 5754TIP3    H217269   3.631   5.518   2.734
 5755TIP3   OH217270   4.714   2.568   0.301
 5755TIP3    H117271   4.756   2.627   0.364
 5755TIP3    H217272   4.785   2.542   0.242
 5756TIP3   OH217273   1.886   2.651   3.134
 5756TIP3    H117274   1.827   2.701   3.191
 5756TIP3    H217275   1.963   2.634   3.188
 5757TIP3   OH217276   5.899   0.911   3.736
 5757TIP3    H117277   5.948   0.974   3.788
 5757TIP3    H217278   5.937   0.917   3.649
 5758TIP3   OH217279   2.791   5.405   3.000
 5758TIP3    H117280   2.826   5.493   2.987
 5758TIP3    H217281   2.859   5.360   3.050
 5759TIP3   OH217282   2.314   4.197   1.907
 5759TIP3    H117283   2.272   4.267   1.858
 5759TIP3    H217284   2.321   4.231   1.996
 5760TIP3   OH217285   3.621   2.262   2.037
 5760TIP3    H117286   3.670   2.310   1.970
 5760TIP3    H217287   3.585   2.330   2.094
 5761TIP3   OH217288   0.201   4.581   3.174
 5761TIP3    H117289   0.285   4.626   3.172
 5761TIP3    H217290   0.142   4.643   3.217
 5762TIP3   OH217291   1.379   4.666   1.821
 5762TIP3    H117292   1.315   4.696   1.756
 5762TIP3    H217293   1.350   4.578   1.845
 5763TIP3   OH217294   0.647   4.075   0.528
 5763TIP3    H117295   0.657   3.983   0.551
 5763TIP3    H217296   0.651   4.077   0.432
 5764TIP3   OH217297   3.631   5.415   1.045
 5764TIP3    H117298   3.726   5.415   1.056
 5764TIP3    H217299   3.618   5.406   0.950
 5765TIP3   OH217300   0.887   5.673   0.145
 5765TIP3    H117301   0.955   5.624   0.099
 5765TIP3    H217302   0.819   5.687   0.079
 5766TIP3   OH217303   5.017   3.795   3.664
 5766TIP3    H117304   5.061   3.839   3.737
 5766TIP3    H217305   4.924   3.800   3.685
 5767TIP3   OH217306   5.123   3.216   2.400
 5767TIP3    H117307   5.210   3.179   2.416
 5767TIP3    H217308   5.102   3.264   2.480
 5768TIP3   OH217309   0.740   5.903   1.695
 5768TIP3    H117310   0.698   5.939   1.772
 5768TIP3    H217311   0.827   5.943   1.695
 5769TIP3   OH217312   4.707   1.050   3.302
 5769TIP3    H117313   4.727   1.055   3.209
 5769TIP3    H217314   4.678   1.138   3.326
 5770TIP3   OH217315   5.901   2.664   2.450
 5770TIP3    H117316   5.991   2.634   2.435
 5770TIP3    H217317   5.878   2.714   2.372
 5771TIP3   OH217318   3.629   5.349   3.287
 5771TIP3    H117319   3.534   5.351   3.273
 5771TIP3    H217320   3.665   5.314   3.205
 5772TIP3   OH217321   5.089   5.118   4.204
 5772TIP3    H117322   5.054   5.037   4.169
 5772TIP3    H217323   5.022   5.149   4.265
 5773TIP3   OH217324   0.655   5.082   5.159
 5773TIP3    H117325   0.696   5.020   5.219
 5773TIP3    H217326   0.723   5.148   5.143
 5774TIP3   OH217327   1.798   2.617   0.485
 5774TIP3    H117328   1.811   2.546   0.548
 5774TIP3    H217329   1.819   2.696   0.534
 5775TIP3   OH217330   4.779   3.809   3.056
 5775TIP3    H117331   4.729   3.849   2.985
 5775TIP3    H217332   4.732   3.833   3.136
 5776TIP3   OH217333   2.363   4.432   3.876
 5776TIP3    H117334   2.282   4.382   3.885
 5776TIP3    H217335   2.340   4.503   3.815
 5777TIP3   OH217336   2.504   5.248   0.839
 5777TIP3    H117337   2.567   5.298   0.787
 5777TIP3    H217338   2.537   5.255   0.929
 5778TIP3   OH217339   3.078   4.784   2.649
 5778TIP3    H117340   3.165   4.748   2.668
 5778TIP3    H217341   3.080   4.873   2.685
 5779TIP3   OH217342   3.985   5.838   2.532
 5779TIP3    H117343   4.031   5.922   2.524
 5779TIP3    H217344   3.984   5.820   2.626
 5780TIP3   OH217345   6.262   4.997   4.225
 5780TIP3    H117346   6.266   5.056   4.149
 5780TIP3    H217347   6.171   4.966   4.226
 5781TIP3   OH217348   2.758   3.880   5.096
 5781TIP3    H117349   2.780   3.787   5.089
 5781TIP3    H217350   2.665   3.885   5.077
 5782TIP3   OH217351   6.367   2.281   3.840
 5782TIP3    H117352   6.350   2.309   3.750
 5782TIP3    H217353   6.329   2.193   3.845
 5783TIP3   OH217354   2.303   5.928   2.056
 5783TIP3    H117355   2.234   5.870   2.089
 5783TIP3    H217356   2.286   5.934   1.962
 5784TIP3   OH217357   3.769   4.360   2.355
 5784TIP3    H117358   3.780   4.404   2.439
 5784TIP3    H217359   3.746   4.429   2.293
 5785TIP3   OH217360   3.026   0.679   3.716
 5785TIP3    H117361   2.980   0.628   3.649
 5785TIP3    H217362   3.097   0.622   3.746
 5786TIP3   OH217363   5.356   1.112   0.494
 5786TIP3    H117364   5.320   1.092   0.581
 5786TIP3    H217365   5.376   1.206   0.498
 5787TIP3   OH217366   1.619   2.760   3.826
 5787TIP3    H117367   1.687   2.825   3.841
 5787TIP3    H217368   1.613   2.754   3.730
 5788TIP3   OH217369   1.117   4.156   1.590
 5788TIP3    H117370   1.167   4.236   1.576
 5788TIP3    H217371   1.043   4.163   1.530
 5789TIP3   OH217372   5.574   1.438   3.801
 5789TIP3    H117373   5.616   1.509   3.849
 5789TIP3    H217374   5.602   1.359   3.846
 5790TIP3   OH217375   1.079   5.054   0.000
 5790TIP3    H117376   1.057   5.147   0.010
 5790TIP3    H217377   1.054   5.015   0.084
 5791TIP3   OH217378   1.703   5.009   3.586
 5791TIP3    H117379   1.609   5.024   3.570
 5791TIP3    H217380   1.712   4.914   3.587
 5792TIP3   OH217381   3.834   2.406   3.704
 5792TIP3    H117382   3.862   2.404   3.795
 5792TIP3    H217383   3.779   2.328   3.694
 5793TIP3   OH217384   4.358   4.852   1.880
 5793TIP3    H117385   4.307   4.900   1.945
 5793TIP3    H217386   4.292   4.813   1.822
 5794TIP3   OH217387   6.037   5.774   1.490
 5794TIP3    H117388   6.010   5.760   1.580
 5794TIP3    H217389   6.041   5.686   1.452
 5795TIP3   OH217390   3.101   1.638   0.533
 5795TIP3    H117391   3.144   1.584   0.599
 5795TIP3    H217392   3.160   1.713   0.523
 5796TIP3   OH217393   4.050   5.419   2.458
 5796TIP3    H117394   4.107   5.348   2.428
 5796TIP3    H217395   4.088   5.446   2.542
 5797TIP3   OH217396   3.399   1.436   3.176
 5797TIP3    H117397   3.422   1.344   3.190
 5797TIP3    H217398   3.481   1.478   3.150
 5798TIP3   OH217399   0.130   4.852   2.955
 5798TIP3    H117400   0.066   4.923   2.961
 5798TIP3    H217401   0.183   4.860   3.034
 5799TIP3   OH217402   4.928   4.676   4.473
 5799TIP3    H117403   4.926   4.772   4.479
 5799TIP3    H217404   4.871   4.647   4.544
 5800TIP3   OH217405   3.155   0.325   3.344
 5800TIP3    H117406   3.103   0.401   3.316
 5800TIP3    H217407   3.229   0.323   3.283
 5801TIP3   OH217408   3.553   3.049   2.427
 5801TIP3    H117409   3.624   3.008   2.476
 5801TIP3    H217410   3.587   3.058   2.338
 5802TIP3   OH217411   3.965   2.024   3.217
 5802TIP3    H117412   3.894   1.962   3.204
 5802TIP3    H217413   3.937   2.077   3.292
 5803TIP3   OH217414   2.897   2.224   4.388
 5803TIP3    H117415   2.830   2.215   4.320
 5803TIP3    H217416   2.977   2.248   4.340
 5804TIP3   OH217417   2.194   3.485   4.993
 5804TIP3    H117418   2.207   3.404   5.041
 5804TIP3    H217419   2.230   3.468   4.906
 5805TIP3   OH217420   0.258   5.534   1.931
 5805TIP3    H117421   0.221   5.571   1.851
 5805TIP3    H217422   0.242   5.600   1.998
 5806TIP3   OH217423   4.708   3.872   1.640
 5806TIP3    H117424   4.788   3.861   1.692
 5806TIP3    H217425   4.664   3.947   1.680
 5807TIP3   OH217426   5.150   5.194   4.892
 5807TIP3    H117427   5.167   5.245   4.971
 5807TIP3    H217428   5.054   5.190   4.887
 5808TIP3   OH217429   5.025   0.530   2.678
 5808TIP3    H117430   4.990   0.619   2.686
 5808TIP3    H217431   4.990   0.497   2.595
 5809TIP3   OH217432   3.379   3.874   5.131
 5809TIP3    H117433   3.393   3.898   5.040
 5809TIP3    H217434   3.325   3.944   5.167
 5810TIP3   OH217435   5.250   4.569   1.077
 5810TIP3    H117436   5.269   4.630   1.006
 5810TIP3    H217437   5.162   4.538   1.059
 5811TIP3   OH217438   1.691   1.563   2.118
 5811TIP3    H117439   1.729   1.637   2.071
 5811TIP3    H217440   1.764   1.503   2.133
 5812TIP3   OH217441   4.578   1.127   0.141
 5812TIP3    H117442   4.489   1.154   0.166
 5812TIP3    H217443   4.565   1.046   0.093
 5813TIP3   OH217444   2.506   1.582   0.087
 5813TIP3    H117445   2.572   1.545   0.145
 5813TIP3    H217446   2.498   1.517   0.017
 5814TIP3   OH217447   0.593   0.168   2.715
 5814TIP3    H117448   0.675   0.117   2.714
 5814TIP3    H217449   0.605   0.231   2.786
 5815TIP3   OH217450   1.432   4.972   2.767
 5815TIP3    H117451   1.486   4.923   2.830
 5815TIP3    H217452   1.461   5.062   2.777
 5816TIP3   OH217453   5.648   0.069   0.136
 5816TIP3    H117454   5.630   0.129   0.064
 5816TIP3    H217455   5.637   0.122   0.215
 5817TIP3   OH217456   4.493   4.724   4.293
 5817TIP3    H117457   4.553   4.679   4.233
 5817TIP3    H217458   4.531   4.709   4.380
 5818TIP3   OH217459   0.426   0.013   1.120
 5818TIP3    H117460   0.482   0.019   1.043
 5818TIP3    H217461   0.340   0.041   1.089
 5819TIP3   OH217462   2.147   5.403   0.150
 5819TIP3    H117463   2.224   5.384   0.203
 5819TIP3    H217464   2.077   5.351   0.190
 5820TIP3   OH217465   3.353   0.670   3.826
 5820TIP3    H117466   3.297   0.739   3.862
 5820TIP3    H217467   3.398   0.712   3.753
 5821TIP3   OH217468   0.578   5.011   2.275
 5821TIP3    H117469   0.494   4.968   2.285
 5821TIP3    H217470   0.576   5.084   2.336
 5822TIP3   OH217471   2.039   5.105   1.570
 5822TIP3    H117472   1.953   5.143   1.548
 5822TIP3    H217473   2.024   5.061   1.654
 5823TIP3   OH217474   4.753   2.798   3.698
 5823TIP3    H117475   4.753   2.821   3.605
 5823TIP3    H217476   4.734   2.705   3.701
 5824TIP3   OH217477   4.739   1.986   1.898
 5824TIP3    H117478   4.815   1.996   1.841
 5824TIP3    H217479   4.680   1.928   1.849
 5825TIP3   OH217480   5.938   0.129   1.351
 5825TIP3    H117481   5.910   0.069   1.283
 5825TIP3    H217482   5.988   0.074   1.412
 5826TIP3   OH217483   3.101   5.820   3.135
 5826TIP3    H117484   3.161   5.891   3.112
 5826TIP3    H217485   3.090   5.828   3.230
 5827TIP3   OH217486   4.492   2.740   1.679
 5827TIP3    H117487   4.467   2.680   1.749
 5827TIP3    H217488   4.547   2.805   1.723
 5828TIP3   OH217489   1.722   3.487   4.664
 5828TIP3    H117490   1.659   3.521   4.728
 5828TIP3    H217491   1.796   3.458   4.717
 5829TIP3   OH217492   3.457   5.200   0.165
 5829TIP3    H117493   3.463   5.167   0.075
 5829TIP3    H217494   3.495   5.131   0.219
 5830TIP3   OH217495   0.165   5.367   3.279
 5830TIP3    H117496   0.173   5.429   3.206
 5830TIP3    H217497   0.073   5.342   3.278
 5831TIP3   OH217498   1.992   1.196   4.293
 5831TIP3    H117499   1.939   1.274   4.305
 5831TIP3    H217500   1.929   1.124   4.291
 5832TIP3   OH217501   3.447   0.729   2.869
 5832TIP3    H117502   3.375   0.784   2.901
 5832TIP3    H217503   3.405   0.646   2.849
 5833TIP3   OH217504   0.515   0.659   5.089
 5833TIP3    H117505   0.477   0.586   5.139
 5833TIP3    H217506   0.487   0.737   5.136
 5834TIP3   OH217507   1.772   0.861   4.560
 5834TIP3    H117508   1.838   0.843   4.493
 5834TIP3    H217509   1.769   0.956   4.567
 5835TIP3   OH217510   4.774   0.075   4.838
 5835TIP3    H117511   4.827   0.119   4.904
 5835TIP3    H217512   4.719   0.144   4.801
 5836TIP3   OH217513   1.066   4.655   4.274
 5836TIP3    H117514   1.064   4.618   4.186
 5836TIP3    H217515   1.130   4.600   4.321
 5837TIP3   OH217516   1.974   1.994   1.286
 5837TIP3    H117517   1.937   1.911   1.258
 5837TIP3    H217518   2.066   1.974   1.304
 5838TIP3   OH217519   6.292   2.301   2.893
 5838TIP3    H117520   6.239   2.380   2.880
 5838TIP3    H217521   6.380   2.328   2.869
 5839TIP3   OH217522   2.210   2.190   0.472
 5839TIP3    H117523   2.214   2.098   0.498
 5839TIP3    H217524   2.301   2.212   0.450
 5840TIP3   OH217525   3.994   3.311   1.363
 5840TIP3    H117526   3.901   3.301   1.344
 5840TIP3    H217527   4.022   3.384   1.308
 5841TIP3   OH217528   2.330   2.473   1.037
 5841TIP3    H117529   2.352   2.566   1.029
 5841TIP3    H217530   2.245   2.472   1.082
 5842TIP3   OH217531   4.969   5.766   4.662
 5842TIP3    H117532   4.993   5.674   4.653
 5842TIP3    H217533   4.874   5.766   4.668
 5843TIP3   OH217534   4.752   5.116   3.907
 5843TIP3    H117535   4.836   5.070   3.913
 5843TIP3    H217536   4.741   5.132   3.813
 5844TIP3   OH217537   0.655   3.181   3.787
 5844TIP3    H117538   0.568   3.145   3.773
 5844TIP3    H217539   0.683   3.209   3.699
 5845TIP3   OH217540   6.264   5.406   1.663
 5845TIP3    H117541   6.341   5.402   1.720
 5845TIP3    H217542   6.206   5.338   1.697
 5846TIP3   OH217543   2.648   1.526   2.022
 5846TIP3    H117544   2.710   1.490   1.959
 5846TIP3    H217545   2.692   1.604   2.057
 5847TIP3   OH217546   5.421   5.810   0.847
 5847TIP3    H117547   5.353   5.746   0.869
 5847TIP3    H217548   5.440   5.854   0.930
 5848TIP3   OH217549   1.615   0.159   5.130
 5848TIP3    H117550   1.588   0.110   5.052
 5848TIP3    H217551   1.561   0.238   5.129
 5849TIP3   OH217552   2.325   5.830   4.089
 5849TIP3    H117553   2.379   5.853   4.013
 5849TIP3    H217554   2.327   5.908   4.145
 5850TIP3   OH217555   1.724   2.706   4.535
 5850TIP3    H117556   1.704   2.765   4.608
 5850TIP3    H217557   1.638   2.673   4.508
 5851TIP3   OH217558   0.249   3.424   4.730
 5851TIP3    H117559   0.317   3.469   4.780
 5851TIP3    H217560   0.296   3.375   4.663
 5852TIP3   OH217561   1.525   0.692   2.611
 5852TIP3    H117562   1.451   0.710   2.552
 5852TIP3    H217563   1.505   0.743   2.690
 5853TIP3   OH217564   5.908   5.865   3.599
 5853TIP3    H117565   5.842   5.924   3.563
 5853TIP3    H217566   5.922   5.800   3.530
 5854TIP3   OH217567   4.605   1.579   2.256
 5854TIP3    H117568   4.659   1.525   2.199
 5854TIP3    H217569   4.563   1.517   2.316
 5855TIP3   OH217570   3.889   3.354   3.231
 5855TIP3    H117571   3.933   3.290   3.175
 5855TIP3    H217572   3.928   3.341   3.318
 5856TIP3   OH217573   3.124   2.579   0.490
 5856TIP3    H117574   3.096   2.671   0.483
 5856TIP3    H217575   3.219   2.582   0.488
 5857TIP3   OH217576   0.040   2.677   1.280
 5857TIP3    H117577   0.006   2.615   1.345
 5857TIP3    H217578   0.135   2.664   1.282
 5858TIP3   OH217579   1.255   2.764   1.834
 5858TIP3    H117580   1.238   2.847   1.790
 5858TIP3    H217581   1.300   2.789   1.915
 5859TIP3   OH217582   4.451   3.589   4.775
 5859TIP3    H117583   4.471   3.614   4.866
 5859TIP3    H217584   4.364   3.549   4.780
 5860TIP3   OH217585   2.701   2.222   3.910
 5860TIP3    H117586   2.643   2.147   3.897
 5860TIP3    H217587   2.668   2.266   3.989
 5861TIP3   OH217588   4.680   0.933   4.709
 5861TIP3    H117589   4.637   0.955   4.792
 5861TIP3    H217590   4.754   0.994   4.704
 5862TIP3   OH217591   0.102   0.495   0.200
 5862TIP3    H117592   0.137   0.431   0.138
 5862TIP3    H217593   0.170   0.503   0.267
 5863TIP3   OH217594   4.765   1.868   1.280
 5863TIP3    H117595   4.736   1.958   1.272
 5863TIP3    H217596   4.815   1.865   1.361
 5864TIP3   OH217597   4.698   5.703   4.731
 5864TIP3    H117598   4.637   5.678   4.662
 5864TIP3    H217599   4.651   5.769   4.782
 5865TIP3   OH217600   5.397   3.946   0.765
 5865TIP3    H117601   5.441   4.008   0.707
 5865TIP3    H217602   5.406   3.984   0.852
 5866TIP3   OH217603   4.413   2.332   3.797
 5866TIP3    H117604   4.434   2.260   3.737
 5866TIP3    H217605   4.458   2.408   3.760
 5867TIP3   OH217606   4.491   5.561   1.337
 5867TIP3    H117607   4.459   5.490   1.394
 5867TIP3    H217608   4.570   5.593   1.381
 5868TIP3   OH217609   4.740   5.437   2.135
 5868TIP3    H117610   4.824   5.405   2.169
 5868TIP3    H217611   4.721   5.381   2.061
 5869TIP3   OH217612   3.243   1.995   3.010
 5869TIP3    H117613   3.196   2.020   2.930
 5869TIP3    H217614   3.192   2.033   3.081
 5870TIP3   OH217615   2.180   2.098   4.214
 5870TIP3    H117616   2.149   2.183   4.183
 5870TIP3    H217617   2.249   2.074   4.152
 5871TIP3   OH217618   1.077   1.417   3.449
 5871TIP3    H117619   1.118   1.343   3.493
 5871TIP3    H217620   1.113   1.416   3.360
 5872TIP3   OH217621   5.586   4.670   0.743
 5872TIP3    H117622   5.492   4.672   0.757
 5872TIP3    H217623   5.624   4.682   0.830
 5873TIP3   OH217624   4.391   4.888   4.881
 5873TIP3    H117625   4.472   4.844   4.905
 5873TIP3    H217626   4.353   4.916   4.964
 5874TIP3   OH217627   4.638   3.241   3.263
 5874TIP3    H117628   4.717   3.187   3.258
 5874TIP3    H217629   4.605   3.226   3.352
 5875TIP3   OH217630   1.667   5.542   1.807
 5875TIP3    H117631   1.582   5.569   1.842
 5875TIP3    H217632   1.657   5.550   1.712
 5876TIP3   OH217633   4.487   0.477   0.603
 5876TIP3    H117634   4.415   0.526   0.564
 5876TIP3    H217635   4.475   0.489   0.698
 5877TIP3   OH217636   5.222   3.565   2.396
 5877TIP3    H117637   5.274   3.587   2.473
 5877TIP3    H217638   5.193   3.475   2.412
 5878TIP3   OH217639   1.135   2.763   0.406
 5878TIP3    H117640   1.053   2.743   0.360
 5878TIP3    H217641   1.108   2.791   0.493
 5879TIP3   OH217642   0.093   5.193   0.431
 5879TIP3    H117643   0.020   5.143   0.467
 5879TIP3    H217644   0.146   5.215   0.507
 5880TIP3   OH217645   4.663   5.324   4.550
 5880TIP3    H117646   4.604   5.306   4.477
 5880TIP3    H217647   4.608   5.316   4.628
 5881TIP3   OH217648   5.148   4.867   1.336
 5881TIP3    H117649   5.102   4.948   1.314
 5881TIP3    H217650   5.084   4.798   1.319
 5882TIP3   OH217651   3.232   0.259   0.409
 5882TIP3    H117652   3.259   0.263   0.501
 5882TIP3    H217653   3.289   0.193   0.370
 5883TIP3   OH217654   1.381   2.265   4.222
 5883TIP3    H117655   1.433   2.345   4.235
 5883TIP3    H217656   1.296   2.286   4.261
 5884TIP3   OH217657   2.834   2.130   4.642
 5884TIP3    H117658   2.848   2.162   4.552
 5884TIP3    H217659   2.816   2.209   4.692
 5885TIP3   OH217660   3.538   2.785   5.073
 5885TIP3    H117661   3.608   2.763   5.135
 5885TIP3    H217662   3.576   2.770   4.987
 5886TIP3   OH217663   4.217   4.546   1.967
 5886TIP3    H117664   4.217   4.603   1.890
 5886TIP3    H217665   4.139   4.572   2.016
 5887TIP3   OH217666   6.086   3.776   4.807
 5887TIP3    H117667   6.168   3.752   4.763
 5887TIP3    H217668   6.068   3.865   4.776
 5888TIP3   OH217669   1.288   5.828   4.425
 5888TIP3    H117670   1.367   5.883   4.427
 5888TIP3    H217671   1.297   5.778   4.344
 5889TIP3   OH217672   2.994   4.444   2.276
 5889TIP3    H117673   2.924   4.391   2.314
 5889TIP3    H217674   2.964   4.534   2.287
 5890TIP3   OH217675   6.276   0.936   3.046
 5890TIP3    H117676   6.205   0.997   3.022
 5890TIP3    H217677   6.247   0.852   3.011
 5891TIP3   OH217678   4.096   5.651   3.169
 5891TIP3    H117679   4.042   5.585   3.127
 5891TIP3    H217680   4.161   5.601   3.219
 5892TIP3   OH217681   0.134   2.021   2.138
 5892TIP3    H117682   0.083   2.077   2.080
 5892TIP3    H217683   0.207   1.991   2.084
 5893TIP3   OH217684   1.084   0.395   4.926
 5893TIP3    H117685   1.087   0.465   4.860
 5893TIP3    H217686   1.051   0.319   4.878
 5894TIP3   OH217687   5.150   2.884   1.937
 5894TIP3    H117688   5.226   2.942   1.927
 5894TIP3    H217689   5.188   2.796   1.944
 5895TIP3   OH217690   4.212   5.957   2.111
 5895TIP3    H117691   4.288   5.906   2.082
 5895TIP3    H217692   4.241   6.000   2.191
 5896TIP3   OH217693   2.565   5.191   4.335
 5896TIP3    H117694   2.529   5.180   4.247
 5896TIP3    H217695   2.496   5.238   4.383
 5897TIP3   OH217696   2.812   0.613   0.136
 5897TIP3    H117697   2.802   0.532   0.086
 5897TIP3    H217698   2.793   0.683   0.072
 5898TIP3   OH217699   4.259   3.498   0.484
 5898TIP3    H117700   4.189   3.463   0.428
 5898TIP3    H217701   4.298   3.421   0.525
 5899TIP3   OH217702   6.278   3.640   1.693
 5899TIP3    H117703   6.273   3.719   1.640
 5899TIP3    H217704   6.187   3.614   1.709
 5900TIP3   OH217705   4.800   2.765   1.597
 5900TIP3    H117706   4.761   2.678   1.601
 5900TIP3    H217707   4.765   2.803   1.517
 5901TIP3   OH217708   1.555   0.867   0.397
 5901TIP3    H117709   1.571   0.773   0.393
 5901TIP3    H217710   1.527   0.884   0.487
 5902TIP3   OH217711   0.047   1.467   4.412
 5902TIP3    H117712   0.066   1.486   4.503
 5902TIP3    H217713   0.126   1.491   4.365
 5903TIP3   OH217714   1.473   1.438   4.388
 5903TIP3    H117715   1.398   1.470   4.337
 5903TIP3    H217716   1.454   1.345   4.403
 5904TIP3   OH217717   2.996   4.613   4.686
 5904TIP3    H117718   2.931   4.682   4.703
 5904TIP3    H217719   3.076   4.660   4.664
 5905TIP3   OH217720   3.343   5.926   2.660
 5905TIP3    H117721   3.404   5.936   2.733
 5905TIP3    H217722   3.390   5.965   2.585
 5906TIP3   OH217723   4.822   5.679   4.356
 5906TIP3    H117724   4.861   5.755   4.311
 5906TIP3    H217725   4.894   5.618   4.366
 5907TIP3   OH217726   2.377   4.225   2.856
 5907TIP3    H117727   2.351   4.163   2.924
 5907TIP3    H217728   2.295   4.267   2.829
 5908TIP3   OH217729   3.295   0.326   4.115
 5908TIP3    H117730   3.338   0.383   4.179
 5908TIP3    H217731   3.352   0.330   4.038
 5909TIP3   OH217732   4.151   5.372   0.239
 5909TIP3    H117733   4.085   5.423   0.193
 5909TIP3    H217734   4.125   5.281   0.227
 5910TIP3   OH217735   2.403   5.667   4.852
 5910TIP3    H117736   2.400   5.760   4.829
 5910TIP3    H217737   2.332   5.656   4.915
 5911TIP3   OH217738   5.063   0.971   5.152
 5911TIP3    H117739   5.012   0.965   5.071
 5911TIP3    H217740   5.144   1.015   5.126
 5912TIP3   OH217741   5.839   1.397   1.815
 5912TIP3    H117742   5.780   1.343   1.763
 5912TIP3    H217743   5.788   1.421   1.892
 5913TIP3   OH217744   0.421   0.524   4.661
 5913TIP3    H117745   0.499   0.530   4.605
 5913TIP3    H217746   0.426   0.436   4.700
 5914TIP3   OH217747   1.766   2.610   0.931
 5914TIP3    H117748   1.811   2.660   0.863
 5914TIP3    H217749   1.699   2.670   0.965
 5915TIP3   OH217750   1.450   1.913   4.885
 5915TIP3    H117751   1.482   2.003   4.893
 5915TIP3    H217752   1.518   1.859   4.926
 5916TIP3   OH217753   4.799   0.667   0.751
 5916TIP3    H117754   4.812   0.762   0.757
 5916TIP3    H217755   4.869   0.630   0.804
 5917TIP3   OH217756   1.725   4.515   4.004
 5917TIP3    H117757   1.747   4.595   3.956
 5917TIP3    H217758   1.709   4.450   3.936
 5918TIP3   OH217759   3.115   1.400   4.092
 5918TIP3    H117760   3.207   1.417   4.108
 5918TIP3    H217761   3.108   1.387   3.997
 5919TIP3   OH217762   5.171   1.170   1.983
 5919TIP3    H117763   5.098   1.206   1.933
 5919TIP3    H217764   5.132   1.141   2.065
 5920TIP3   OH217765   0.083   3.616   5.007
 5920TIP3    H117766   0.155   3.678   5.014
 5920TIP3    H217767   0.072   3.603   4.913
 5921TIP3   OH217768   2.370   3.161   0.050
 5921TIP3    H117769   2.429   3.237   0.047
 5921TIP3    H217770   2.425   3.088   0.023
 5922TIP3   OH217771   6.143   1.609   1.449
 5922TIP3    H117772   6.102   1.598   1.534
 5922TIP3    H217773   6.237   1.608   1.467
 5923TIP3   OH217774   5.995   0.997   4.780
 5923TIP3    H117775   6.017   1.073   4.834
 5923TIP3    H217776   5.937   1.031   4.713
 5924TIP3   OH217777   1.257   1.172   0.169
 5924TIP3    H117778   1.289   1.254   0.133
 5924TIP3    H217779   1.163   1.187   0.185
 5925TIP3   OH217780   1.513   3.205   1.390
 5925TIP3    H117781   1.547   3.286   1.428
 5925TIP3    H217782   1.489   3.228   1.301
 5926TIP3   OH217783   6.357   2.671   3.237
 5926TIP3    H117784   6.338   2.738   3.302
 5926TIP3    H217785   6.443   2.637   3.261
 5927TIP3   OH217786   1.061   2.394   1.249
 5927TIP3    H117787   1.141   2.351   1.282
 5927TIP3    H217788   1.068   2.386   1.154
 5928TIP3   OH217789   4.111   1.169   4.419
 5928TIP3    H117790   4.172   1.136   4.484
 5928TIP3    H217791   4.049   1.098   4.405
 5929TIP3   OH217792   5.894   4.569   2.130
 5929TIP3    H117793   5.978   4.593   2.091
 5929TIP3    H217794   5.906   4.479   2.160
 5930TIP3   OH217795   5.990   4.078   1.477
 5930TIP3    H117796   5.979   4.024   1.555
 5930TIP3    H217797   6.062   4.137   1.498
 5931TIP3   OH217798   4.480   3.498   1.516
 5931TIP3    H117799   4.509   3.502   1.607
 5931TIP3    H217800   4.442   3.410   1.506
 5932TIP3   OH217801   4.960   3.285   5.186
 5932TIP3    H117802   4.953   3.330   5.102
 5932TIP3    H217803   5.049   3.303   5.216
 5933TIP3   OH217804   3.963   0.128   2.802
 5933TIP3    H117805   4.005   0.042   2.807
 5933TIP3    H217806   4.028   0.184   2.760
 5934TIP3   OH217807   4.508   1.165   1.422
 5934TIP3    H117808   4.520   1.075   1.393
 5934TIP3    H217809   4.413   1.173   1.434
 5935TIP3   OH217810   0.774   1.853   4.738
 5935TIP3    H117811   0.706   1.788   4.722
 5935TIP3    H217812   0.726   1.935   4.749
 5936TIP3   OH217813   1.125   2.309   4.582
 5936TIP3    H117814   1.116   2.381   4.644
 5936TIP3    H217815   1.116   2.230   4.635
 5937TIP3   OH217816   2.391   5.305   1.326
 5937TIP3    H117817   2.316   5.341   1.374
 5937TIP3    H217818   2.457   5.374   1.329
 5938TIP3   OH217819   6.004   2.628   4.371
 5938TIP3    H117820   6.077   2.615   4.311
 5938TIP3    H217821   5.938   2.565   4.342
 5939TIP3   OH217822   3.545   3.701   0.740
 5939TIP3    H117823   3.572   3.746   0.660
 5939TIP3    H217824   3.459   3.666   0.720
 5940TIP3   OH217825   0.382   4.017   4.633
 5940TIP3    H117826   0.374   4.110   4.654
 5940TIP3    H217827   0.395   4.015   4.538
 5941TIP3   OH217828   0.179   3.437   1.628
 5941TIP3    H117829   0.129   3.480   1.560
 5941TIP3    H217830   0.180   3.344   1.603
 5942TIP3   OH217831   2.247   2.937   4.398
 5942TIP3    H117832   2.267   2.853   4.440
 5942TIP3    H217833   2.182   2.915   4.331
 5943TIP3   OH217834   5.875   4.377   1.604
 5943TIP3    H117835   5.880   4.337   1.690
 5943TIP3    H217836   5.966   4.403   1.584
 5944TIP3   OH217837   1.508   4.820   2.508
 5944TIP3    H117838   1.463   4.786   2.585
 5944TIP3    H217839   1.541   4.905   2.535
 5945TIP3   OH217840   0.787   2.701   2.258
 5945TIP3    H117841   0.732   2.624   2.249
 5945TIP3    H217842   0.872   2.667   2.287
 5946TIP3   OH217843   2.355   1.397   1.369
 5946TIP3    H117844   2.434   1.391   1.314
 5946TIP3    H217845   2.384   1.368   1.455
 5947TIP3   OH217846   4.053   5.437   1.460
 5947TIP3    H117847   4.054   5.391   1.376
 5947TIP3    H217848   4.061   5.529   1.437
 5948TIP3   OH217849   4.088   1.893   1.815
 5948TIP3    H117850   4.018   1.907   1.750
 5948TIP3    H217851   4.069   1.956   1.884
 5949TIP3   OH217852   3.479   1.151   0.563
 5949TIP3    H117853   3.516   1.224   0.613
 5949TIP3    H217854   3.525   1.074   0.597
 5950TIP3   OH217855   5.429   4.563   2.159
 5950TIP3    H117856   5.473   4.637   2.118
 5950TIP3    H217857   5.370   4.602   2.224
 5951TIP3   OH217858   1.106   5.777   3.696
 5951TIP3    H117859   1.077   5.827   3.773
 5951TIP3    H217860   1.155   5.703   3.733
 5952TIP3   OH217861   0.963   5.550   3.872
 5952TIP3    H117862   0.920   5.469   3.846
 5952TIP3    H217863   0.910   5.619   3.832
 5953TIP3   OH217864   0.267   2.765   3.368
 5953TIP3    H117865   0.312   2.730   3.445
 5953TIP3    H217866   0.203   2.826   3.404
 5954TIP3   OH217867   5.119   4.733   4.764
 5954TIP3    H117868   5.115   4.651   4.716
 5954TIP3    H217869   5.158   4.710   4.849
 5955TIP3   OH217870   1.791   1.275   1.883
 5955TIP3    H117871   1.734   1.267   1.807
 5955TIP3    H217872   1.748   1.223   1.951
 5956TIP3   OH217873   4.820   3.114   0.913
 5956TIP3    H117874   4.831   3.030   0.957
 5956TIP3    H217875   4.801   3.176   0.983
 5957TIP3   OH217876   2.835   3.937   3.460
 5957TIP3    H117877   2.877   3.998   3.521
 5957TIP3    H217878   2.750   3.917   3.501
 5958TIP3   OH217879   3.334   4.882   0.072
 5958TIP3    H117880   3.356   4.894  -0.021
 5958TIP3    H217881   3.243   4.913   0.078
 5959TIP3   OH217882   3.076   5.034   1.207
 5959TIP3    H117883   3.106   5.009   1.294
 5959TIP3    H217884   3.031   4.957   1.173
 5960TIP3   OH217885   0.302   1.365   2.457
 5960TIP3    H117886   0.360   1.296   2.487
 5960TIP3    H217887   0.331   1.383   2.367
 5961TIP3   OH217888   1.513   3.425   2.377
 5961TIP3    H117889   1.559   3.399   2.457
 5961TIP3    H217890   1.579   3.473   2.326
 5962TIP3   OH217891   4.936   2.915   4.097
 5962TIP3    H117892   4.960   2.839   4.151
 5962TIP3    H217893   5.013   2.972   4.099
 5963TIP3   OH217894   0.144   3.548   0.722
 5963TIP3    H117895   0.139   3.625   0.778
 5963TIP3    H217896   0.221   3.500   0.753
 5964TIP3   OH217897   5.697   2.639   1.752
 5964TIP3    H117898   5.752   2.705   1.710
 5964TIP3    H217899   5.611   2.680   1.758
 5965TIP3   OH217900   4.241   2.540   2.370
 5965TIP3    H117901   4.259   2.626   2.332
 5965TIP3    H217902   4.146   2.538   2.378
 5966TIP3   OH217903   3.691   1.829   0.967
 5966TIP3    H117904   3.652   1.815   0.881
 5966TIP3    H217905   3.647   1.765   1.024
 5967TIP3   OH217906   0.143   4.720   3.682
 5967TIP3    H117907   0.117   4.741   3.772
 5967TIP3    H217908   0.061   4.694   3.639
 5968TIP3   OH217909   6.237   3.057   4.738
 5968TIP3    H117910   6.223   3.101   4.822
 5968TIP3    H217911   6.168   3.090   4.681
 5969TIP3   OH217912   5.931   3.338   3.966
 5969TIP3    H117913   5.863   3.358   3.902
 5969TIP3    H217914   5.926   3.408   4.031
 5970TIP3   OH217915   4.663   5.722   2.556
 5970TIP3    H117916   4.637   5.792   2.616
 5970TIP3    H217917   4.743   5.754   2.515
 5971TIP3   OH217918   1.234   4.064   5.160
 5971TIP3    H117919   1.187   4.137   5.201
 5971TIP3    H217920   1.165   4.011   5.119
 5972TIP3   OH217921   0.103   4.599   2.849
 5972TIP3    H117922   0.036   4.558   2.903
 5972TIP3    H217923   0.093   4.693   2.865
 5973TIP3   OH217924   0.310   4.292   3.851
 5973TIP3    H117925   0.274   4.212   3.888
 5973TIP3    H217926   0.359   4.332   3.923
 5974TIP3   OH217927   3.932   2.754   4.695
 5974TIP3    H117928   3.946   2.677   4.749
 5974TIP3    H217929   4.016   2.769   4.651
 5975TIP3   OH217930   0.979   2.695   3.941
 5975TIP3    H117931   0.993   2.789   3.951
 5975TIP3    H217932   1.002   2.658   4.026
 5976TIP3   OH217933   4.259   0.569   1.238
 5976TIP3    H117934   4.322   0.600   1.304
 5976TIP3    H217935   4.184   0.539   1.289
 5977TIP3   OH217936   0.711   2.086   4.028
 5977TIP3    H117937   0.774   2.156   4.048
 5977TIP3    H217938   0.625   2.127   4.038
 5978TIP3   OH217939   0.190   0.303   0.011
 5978TIP3    H117940   0.282   0.330   0.013
 5978TIP3    H217941   0.187   0.224   0.066
 5979TIP3   OH217942   2.966   4.217   4.973
 5979TIP3    H117943   2.992   4.309   4.966
 5979TIP3    H217944   2.876   4.219   5.005
 5980TIP3   OH217945   1.014   4.724   1.997
 5980TIP3    H117946   0.936   4.778   2.012
 5980TIP3    H217947   1.087   4.785   2.007
 5981TIP3   OH217948   0.375   4.585   3.614
 5981TIP3    H117949   0.292   4.589   3.661
 5981TIP3    H217950   0.434   4.642   3.664
 5982TIP3   OH217951   5.889   0.040   3.401
 5982TIP3    H117952   5.982   0.062   3.389
 5982TIP3    H217953   5.883  -0.052   3.373
 5983TIP3   OH217954   5.571   2.191   4.693
 5983TIP3    H117955   5.623   2.233   4.624
 5983TIP3    H217956   5.635   2.169   4.761
 5984TIP3   OH217957   5.182   2.961   4.313
 5984TIP3    H117958   5.180   3.002   4.226
 5984TIP3    H217959   5.274   2.942   4.329
 5985TIP3   OH217960   0.655   3.455   3.913
 5985TIP3    H117961   0.731   3.430   3.965
 5985TIP3    H217962   0.645   3.384   3.849
 5986TIP3   OH217963   4.191   4.816   5.110
 5986TIP3    H117964   4.268   4.765   5.134
 5986TIP3    H217965   4.218   4.907   5.122
 5987TIP3   OH217966   2.141   5.271   2.690
 5987TIP3    H117967   2.141   5.177   2.710
 5987TIP3    H217968   2.143   5.276   2.595
 5988TIP3   OH217969   1.001   4.654   5.077
 5988TIP3    H117970   0.977   4.691   4.991
 5988TIP3    H217971   1.085   4.611   5.062
 5989TIP3   OH217972   4.844   4.985   1.414
 5989TIP3    H117973   4.910   4.957   1.478
 5989TIP3    H217974   4.794   4.906   1.394
 5990TIP3   OH217975   2.093   4.486   4.884
 5990TIP3    H117976   2.039   4.475   4.962
 5990TIP3    H217977   2.139   4.569   4.897
 5991TIP3   OH217978   1.871   1.743   1.181
 5991TIP3    H117979   1.860   1.755   1.086
 5991TIP3    H217980   1.875   1.648   1.192
 5992TIP3   OH217981   5.070   2.726   0.249
 5992TIP3    H117982   4.994   2.783   0.256
 5992TIP3    H217983   5.132   2.761   0.314
 5993TIP3   OH217984   0.679   5.457   1.315
 5993TIP3    H117985   0.743   5.495   1.374
 5993TIP3    H217986   0.650   5.530   1.260
 5994TIP3   OH217987   0.844   4.689   1.807
 5994TIP3    H117988   0.797   4.669   1.889
 5994TIP3    H217989   0.933   4.660   1.824
 5995TIP3   OH217990   1.231   0.485   2.024
 5995TIP3    H117991   1.234   0.561   1.967
 5995TIP3    H217992   1.317   0.481   2.065
 5996TIP3   OH217993   0.609   4.204   2.076
 5996TIP3    H117994   0.690   4.250   2.052
 5996TIP3    H217995   0.546   4.274   2.091
 5997TIP3   OH217996   2.560   0.538   3.695
 5997TIP3    H117997   2.472   0.510   3.670
 5997TIP3    H217998   2.605   0.458   3.720
 5998TIP3   OH217999   2.056   3.499   4.576
 5998TIP3    H118000   2.048   3.416   4.623
 5998TIP3    H218001   1.976   3.546   4.597
 5999TIP3   OH218002   5.879   1.055   0.528
 5999TIP3    H118003   5.879   1.124   0.462
 5999TIP3    H218004   5.971   1.045   0.552
 6000TIP3   OH218005  -0.036   5.512   0.442
 6000TIP3    H118006   0.040   5.558   0.478
 6000TIP3    H218007  -0.005   5.423   0.425
 6001TIP3   OH218008   2.253   1.654   2.081
 6001TIP3    H118009   2.310   1.591   2.037
 6001TIP3    H218010   2.165   1.632   2.051
 6002TIP3   OH218011   2.741   4.568   3.436
 6002TIP3    H118012   2.648   4.552   3.452
 6002TIP3    H218013   2.786   4.494   3.476
 6003TIP3   OH218014   1.259   3.361   3.278
 6003TIP3    H118015   1.178   3.405   3.304
 6003TIP3    H218016   1.260   3.280   3.329
 6004TIP3   OH218017   1.009   1.212   4.470
 6004TIP3    H118018   0.916   1.215   4.490
 6004TIP3    H218019   1.017   1.256   4.385
 6005TIP3   OH218020   0.249   0.980   4.851
 6005TIP3    H118021   0.197   1.029   4.788
 6005TIP3    H218022   0.212   0.891   4.848
 6006TIP3   OH218023   0.643   5.309   0.906
 6006TIP3    H118024   0.607   5.277   0.989
 6006TIP3    H218025   0.598   5.258   0.839
 6007TIP3   OH218026   5.161   1.021   3.499
 6007TIP3    H118027   5.172   1.006   3.405
 6007TIP3    H218028   5.249   1.037   3.531
 6008TIP3   OH218029   5.441   2.748   1.763
 6008TIP3    H118030   5.351   2.752   1.794
 6008TIP3    H218031   5.485   2.823   1.803
 6009TIP3   OH218032   1.786   3.219   4.020
 6009TIP3    H118033   1.842   3.192   4.093
 6009TIP3    H218034   1.724   3.147   4.009
 6010TIP3   OH218035   3.263   2.983   1.728
 6010TIP3    H118036   3.303   2.963   1.644
 6010TIP3    H218037   3.277   3.077   1.740
 6011TIP3   OH218038   1.475   3.495   0.068
 6011TIP3    H118039   1.402   3.523   0.123
 6011TIP3    H218040   1.539   3.565   0.075
 6012TIP3   OH218041   4.173   3.526   4.810
 6012TIP3    H118042   4.088   3.523   4.766
 6012TIP3    H218043   4.180   3.441   4.854
 6013TIP3   OH218044   5.782   5.937   0.979
 6013TIP3    H118045   5.877   5.944   0.986
 6013TIP3    H218046   5.754   5.889   1.056
 6014TIP3   OH218047   3.006   3.028   3.327
 6014TIP3    H118048   3.073   3.072   3.274
 6014TIP3    H218049   3.034   3.044   3.418
 6015TIP3   OH218050   4.552   4.719   4.581
 6015TIP3    H118051   4.637   4.692   4.616
 6015TIP3    H218052   4.491   4.652   4.612
 6016TIP3   OH218053   4.280   5.697   1.852
 6016TIP3    H118054   4.212   5.651   1.902
 6016TIP3    H218055   4.234   5.729   1.774
 6017TIP3   OH218056   0.154   2.526   3.613
 6017TIP3    H118057   0.078   2.490   3.566
 6017TIP3    H218058   0.229   2.478   3.577
 6018TIP3   OH218059   5.183   3.815   4.971
 6018TIP3    H118060   5.236   3.759   4.915
 6018TIP3    H218061   5.183   3.900   4.927
 6019TIP3   OH218062   1.093   4.572   3.276
 6019TIP3    H118063   1.170   4.549   3.328
 6019TIP3    H218064   1.083   4.500   3.214
 6020TIP3   OH218065   3.009   2.720   4.012
 6020TIP3    H118066   3.043   2.705   4.100
 6020TIP3    H218067   3.048   2.651   3.959
 6021TIP3   OH218068   4.622   4.635   0.835
 6021TIP3    H118069   4.604   4.594   0.919
 6021TIP3    H218070   4.645   4.725   0.856
 6022TIP3   OH218071   0.027   2.751   3.784
 6022TIP3    H118072   0.072   2.694   3.721
 6022TIP3    H218073   0.093   2.773   3.849
 6023TIP3   OH218074   4.868   1.392   4.885
 6023TIP3    H118075   4.817   1.360   4.960
 6023TIP3    H218076   4.817   1.467   4.852
 6024TIP3   OH218077   3.113   0.239   3.813
 6024TIP3    H118078   3.054   0.184   3.761
 6024TIP3    H218079   3.129   0.316   3.759
 6025TIP3   OH218080   5.090   4.559   3.305
 6025TIP3    H118081   5.064   4.651   3.311
 6025TIP3    H218082   5.007   4.511   3.303
 6026TIP3   OH218083   4.714   4.208   5.008
 6026TIP3    H118084   4.738   4.225   5.099
 6026TIP3    H218085   4.789   4.236   4.957
 6027TIP3   OH218086   2.934   5.382   3.998
 6027TIP3    H118087   2.874   5.447   3.961
 6027TIP3    H218088   2.923   5.391   4.093
 6028TIP3   OH218089   2.480   2.223   4.772
 6028TIP3    H118090   2.568   2.261   4.777
 6028TIP3    H218091   2.494   2.129   4.760
 6029TIP3   OH218092   5.019   5.509   3.051
 6029TIP3    H118093   4.960   5.434   3.040
 6029TIP3    H218094   5.032   5.543   2.963
 6030TIP3   OH218095   5.009   2.537   0.758
 6030TIP3    H118096   5.031   2.540   0.851
 6030TIP3    H218097   4.926   2.582   0.751
 6031TIP3   OH218098   4.709   2.039   0.180
 6031TIP3    H118099   4.728   2.027   0.087
 6031TIP3    H218100   4.775   1.986   0.225
 6032TIP3   OH218101   2.446   1.298   3.800
 6032TIP3    H118102   2.512   1.243   3.842
 6032TIP3    H218103   2.460   1.286   3.707
 6033TIP3   OH218104   6.037   1.039   2.302
 6033TIP3    H118105   6.123   1.036   2.345
 6033TIP3    H218106   5.979   1.080   2.366
 6034TIP3   OH218107   2.900   3.069   0.555
 6034TIP3    H118108   2.908   2.977   0.583
 6034TIP3    H218109   2.855   3.112   0.628
 6035TIP3   OH218110   0.209   2.499   2.033
 6035TIP3    H118111   0.130   2.550   2.052
 6035TIP3    H218112   0.220   2.443   2.110
 6036TIP3   OH218113   4.498   1.862   1.760
 6036TIP3    H118114   4.491   1.842   1.667
 6036TIP3    H218115   4.486   1.778   1.804
 6037TIP3   OH218116   2.819   2.551   2.828
 6037TIP3    H118117   2.836   2.531   2.920
 6037TIP3    H218118   2.735   2.597   2.829
 6038TIP3   OH218119   5.975   2.034   2.034
 6038TIP3    H118120   5.960   2.118   2.077
 6038TIP3    H218121   5.901   1.980   2.062
 6039TIP3   OH218122   2.535   4.408   1.765
 6039TIP3    H118123   2.540   4.500   1.740
 6039TIP3    H218124   2.441   4.390   1.770
 6040TIP3   OH218125   3.828   1.735   0.129
 6040TIP3    H118126   3.747   1.755   0.176
 6040TIP3    H218127   3.832   1.800   0.058
 6041TIP3   OH218128   3.158   4.007   4.178
 6041TIP3    H118129   3.197   3.963   4.253
 6041TIP3    H218130   3.157   3.941   4.108
 6042TIP3   OH218131   3.648   0.615   4.471
 6042TIP3    H118132   3.587   0.687   4.486
 6042TIP3    H218133   3.605   0.559   4.408
 6043TIP3   OH218134   0.666   2.294   0.807
 6043TIP3    H118135   0.678   2.304   0.901
 6043TIP3    H218136   0.683   2.201   0.791
 6044TIP3   OH218137   0.575   5.065   3.241
 6044TIP3    H118138   0.486   5.097   3.227
 6044TIP3    H218139   0.572   5.022   3.326
 6045TIP3   OH218140   1.238   5.456   1.196
 6045TIP3    H118141   1.306   5.422   1.137
 6045TIP3    H218142   1.279   5.453   1.283
 6046TIP3   OH218143   3.224   0.821   5.194
 6046TIP3    H118144   3.205   0.735   5.231
 6046TIP3    H218145   3.139   0.855   5.167
 6047TIP3   OH218146   2.837   2.907   2.012
 6047TIP3    H118147   2.913   2.953   2.048
 6047TIP3    H218148   2.797   2.969   1.951
 6048TIP3   OH218149   3.518   2.592   2.437
 6048TIP3    H118150   3.500   2.553   2.351
 6048TIP3    H218151   3.541   2.518   2.492
 6049TIP3   OH218152   0.591   2.636   3.489
 6049TIP3    H118153   0.544   2.719   3.495
 6049TIP3    H218154   0.633   2.626   3.574
 6050TIP3   OH218155   6.149   1.098   0.130
 6050TIP3    H118156   6.176   1.161   0.197
 6050TIP3    H218157   6.169   1.013   0.168
 6051TIP3   OH218158   4.243   2.376   0.380
 6051TIP3    H118159   4.258   2.282   0.368
 6051TIP3    H218160   4.330   2.414   0.393
 6052TIP3   OH218161   2.213   0.729   4.211
 6052TIP3    H118162   2.213   0.706   4.118
 6052TIP3    H218163   2.259   0.813   4.215
 6053TIP3   OH218164   3.780   3.042   4.141
 6053TIP3    H118165   3.831   3.056   4.220
 6053TIP3    H218166   3.704   3.100   4.150
 6054TIP3   OH218167   1.495   3.994   2.032
 6054TIP3    H118168   1.425   4.050   2.066
 6054TIP3    H218169   1.507   3.927   2.100
 6055TIP3   OH218170   0.768   2.702   4.912
 6055TIP3    H118171   0.833   2.752   4.862
 6055TIP3    H218172   0.795   2.711   5.003
 6056TIP3   OH218173   2.715   4.915   4.115
 6056TIP3    H118174   2.699   4.830   4.072
 6056TIP3    H218175   2.794   4.948   4.074
 6057TIP3   OH218176   0.401   2.406   4.385
 6057TIP3    H118177   0.417   2.424   4.477
 6057TIP3    H218178   0.308   2.428   4.372
 6058TIP3   OH218179   3.187   1.082   2.590
 6058TIP3    H118180   3.101   1.081   2.547
 6058TIP3    H218181   3.180   1.014   2.658
 6059TIP3   OH218182   5.080   5.015   1.757
 6059TIP3    H118183   5.100   5.082   1.691
 6059TIP3    H218184   5.054   4.938   1.706
 6060TIP3   OH218185   4.807   4.097   3.413
 6060TIP3    H118186   4.836   4.093   3.504
 6060TIP3    H218187   4.711   4.098   3.418
 6061TIP3   OH218188   2.126   4.698   0.363
 6061TIP3    H118189   2.061   4.727   0.299
 6061TIP3    H218190   2.194   4.765   0.360
 6062TIP3   OH218191   1.291   0.977   2.623
 6062TIP3    H118192   1.383   1.000   2.615
 6062TIP3    H218193   1.280   0.901   2.567
 6063TIP3   OH218194   3.942   2.629   2.048
 6063TIP3    H118195   3.948   2.688   2.123
 6063TIP3    H218196   4.032   2.620   2.017
 6064TIP3   OH218197   4.972   4.568   3.884
 6064TIP3    H118198   4.899   4.628   3.901
 6064TIP3    H218199   4.941   4.511   3.813
 6065TIP3   OH218200   1.935   2.448   0.109
 6065TIP3    H118201   1.867   2.415   0.167
 6065TIP3    H218202   2.016   2.442   0.160
 6066TIP3   OH218203   5.411   1.737   3.307
 6066TIP3    H118204   5.339   1.690   3.265
 6066TIP3    H218205   5.435   1.682   3.382
 6067TIP3   OH218206   0.505   5.430   0.093
 6067TIP3    H118207   0.483   5.485   0.169
 6067TIP3    H218208   0.496   5.340   0.125
 6068TIP3   OH218209   0.399   1.910   4.003
 6068TIP3    H118210   0.475   1.935   4.055
 6068TIP3    H218211   0.329   1.968   4.034
 6069TIP3   OH218212   6.032   3.015   1.516
 6069TIP3    H118213   6.116   3.002   1.471
 6069TIP3    H218214   5.966   2.982   1.455
 6070TIP3   OH218215   3.280   4.644   3.114
 6070TIP3    H118216   3.231   4.703   3.056
 6070TIP3    H218217   3.355   4.697   3.144
 6071TIP3   OH218218   1.896   2.943   4.026
 6071TIP3    H118219   1.860   2.939   3.937
 6071TIP3    H218220   1.986   2.975   4.013
 6072TIP3   OH218221   2.503   2.231   5.108
 6072TIP3    H118222   2.458   2.167   5.164
 6072TIP3    H218223   2.509   2.188   5.023
 6073TIP3   OH218224   6.253   3.744   5.170
 6073TIP3    H118225   6.312   3.706   5.105
 6073TIP3    H218226   6.165   3.730   5.134
 6074TIP3   OH218227   4.609   3.480   1.016
 6074TIP3    H118228   4.674   3.543   0.987
 6074TIP3    H218229   4.555   3.528   1.079
 6075TIP3   OH218230   2.732   3.170   4.397
 6075TIP3    H118231   2.670   3.099   4.386
 6075TIP3    H218232   2.781   3.147   4.477
 6076TIP3   OH218233   5.475   1.014   3.143
 6076TIP3    H118234   5.498   0.954   3.072
 6076TIP3    H218235   5.558   1.032   3.187
 6077TIP3   OH218236   3.360   3.214   1.436
 6077TIP3    H118237   3.422   3.142   1.430
 6077TIP3    H218238   3.317   3.201   1.521
 6078TIP3   OH218239   4.972   3.191   0.371
 6078TIP3    H118240   5.059   3.170   0.337
 6078TIP3    H218241   4.917   3.193   0.293
 6079TIP3   OH218242   3.384   1.438   0.957
 6079TIP3    H118243   3.376   1.348   0.989
 6079TIP3    H218244   3.439   1.482   1.022
 6080TIP3   OH218245   4.779   1.740   0.263
 6080TIP3    H118246   4.860   1.785   0.239
 6080TIP3    H218247   4.787   1.724   0.357
 6081TIP3   OH218248   0.716   3.802   3.262
 6081TIP3    H118249   0.667   3.721   3.273
 6081TIP3    H218250   0.667   3.867   3.313
 6082TIP3   OH218251   4.759   1.851   1.588
 6082TIP3    H118252   4.680   1.801   1.569
 6082TIP3    H218253   4.727   1.939   1.610
 6083TIP3   OH218254   0.948   3.598   0.361
 6083TIP3    H118255   0.963   3.570   0.451
 6083TIP3    H218256   0.884   3.668   0.368
 6084TIP3   OH218257   5.698   5.845   0.466
 6084TIP3    H118258   5.721   5.928   0.426
 6084TIP3    H218259   5.715   5.858   0.560
 6085TIP3   OH218260   1.326   0.641   4.600
 6085TIP3    H118261   1.255   0.671   4.543
 6085TIP3    H218262   1.296   0.662   4.689
 6086TIP3   OH218263   4.148   5.769   2.814
 6086TIP3    H118264   4.177   5.745   2.902
 6086TIP3    H218265   4.067   5.818   2.828
 6087TIP3   OH218266   2.229   3.382   1.476
 6087TIP3    H118267   2.281   3.309   1.509
 6087TIP3    H218268   2.208   3.434   1.553
 6088TIP3   OH218269   3.711   3.820   0.939
 6088TIP3    H118270   3.647   3.780   0.880
 6088TIP3    H218271   3.681   3.796   1.026
 6089TIP3   OH218272   3.831   5.215   5.021
 6089TIP3    H118273   3.757   5.228   5.080
 6089TIP3    H218274   3.811   5.270   4.945
 6090TIP3   OH218275   3.560   2.188   0.288
 6090TIP3    H118276   3.597   2.276   0.278
 6090TIP3    H218277   3.597   2.139   0.215
 6091TIP3   OH218278   4.011   3.989   4.112
 6091TIP3    H118279   4.056   4.032   4.185
 6091TIP3    H218280   3.969   4.060   4.065
 6092TIP3   OH218281   1.436   5.724   3.001
 6092TIP3    H118282   1.406   5.796   3.056
 6092TIP3    H218283   1.431   5.647   3.058
 6093TIP3   OH218284   3.747   1.438   3.163
 6093TIP3    H118285   3.832   1.438   3.119
 6093TIP3    H218286   3.715   1.349   3.153
 6094TIP3   OH218287   6.021   2.842   3.195
 6094TIP3    H118288   5.978   2.921   3.229
 6094TIP3    H218289   6.007   2.847   3.100
 6095TIP3   OH218290   4.381   0.019   3.224
 6095TIP3    H118291   4.348   0.095   3.274
 6095TIP3    H218292   4.337   0.025   3.139
 6096TIP3   OH218293   4.944   1.499   1.596
 6096TIP3    H118294   4.965   1.550   1.673
 6096TIP3    H218295   4.849   1.488   1.600
 6097TIP3   OH218296   1.568   3.664   4.776
 6097TIP3    H118297   1.564   3.708   4.690
 6097TIP3    H218298   1.579   3.735   4.838
 6098TIP3   OH218299   2.505   0.408   2.540
 6098TIP3    H118300   2.552   0.338   2.494
 6098TIP3    H218301   2.418   0.407   2.499
 6099TIP3   OH218302   5.506   2.955   3.069
 6099TIP3    H118303   5.413   2.943   3.090
 6099TIP3    H218304   5.520   3.050   3.077
 6100TIP3   OH218305   1.962   1.395   2.134
 6100TIP3    H118306   1.917   1.315   2.106
 6100TIP3    H218307   2.054   1.372   2.136
 6101TIP3   OH218308   2.739   5.764   2.996
 6101TIP3    H118309   2.821   5.718   2.979
 6101TIP3    H218310   2.743   5.841   2.938
 6102TIP3   OH218311   0.814   1.987   2.281
 6102TIP3    H118312   0.815   2.061   2.342
 6102TIP3    H218313   0.906   1.966   2.266
 6103TIP3   OH218314   3.437   1.247   4.561
 6103TIP3    H118315   3.363   1.295   4.523
 6103TIP3    H218316   3.509   1.262   4.499
 6104TIP3   OH218317   2.971   0.243   2.390
 6104TIP3    H118318   2.892   0.276   2.433
 6104TIP3    H218319   3.043   0.276   2.443
 6105TIP3   OH218320   3.059   1.612   2.523
 6105TIP3    H118321   2.963   1.619   2.526
 6105TIP3    H218322   3.080   1.537   2.579
 6106TIP3   OH218323   0.652   4.230   1.140
 6106TIP3    H118324   0.723   4.220   1.203
 6106TIP3    H218325   0.609   4.144   1.138
 6107TIP3   OH218326   5.114   3.097   3.347
 6107TIP3    H118327   5.154   3.033   3.406
 6107TIP3    H218328   5.177   3.104   3.274
 6108TIP3   OH218329   1.260   1.386   3.231
 6108TIP3    H118330   1.317   1.409   3.158
 6108TIP3    H218331   1.318   1.346   3.295
 6109TIP3   OH218332   5.757   5.254   0.910
 6109TIP3    H118333   5.788   5.201   0.836
 6109TIP3    H218334   5.812   5.331   0.909
 6110TIP3   OH218335   3.321   4.234   3.424
 6110TIP3    H118336   3.368   4.209   3.344
 6110TIP3    H218337   3.241   4.275   3.392
 6111TIP3   OH218338   4.508   0.458   3.599
 6111TIP3    H118339   4.572   0.478   3.530
 6111TIP3    H218340   4.452   0.391   3.562
 6112TIP3   OH218341   2.631   0.531   0.710
 6112TIP3    H118342   2.707   0.576   0.671
 6112TIP3    H218343   2.566   0.529   0.640
 6113TIP3   OH218344   3.618   3.955   4.649
 6113TIP3    H118345   3.574   3.965   4.733
 6113TIP3    H218346   3.658   4.040   4.631
 6114TIP3   OH218347   0.641   1.855   2.100
 6114TIP3    H118348   0.711   1.822   2.044
 6114TIP3    H218349   0.687   1.895   2.174
 6115TIP3   OH218350   2.385   0.924   0.345
 6115TIP3    H118351   2.434   0.999   0.379
 6115TIP3    H218352   2.326   0.900   0.416
 6116TIP3   OH218353   3.874   4.671   0.883
 6116TIP3    H118354   3.820   4.686   0.805
 6116TIP3    H218355   3.957   4.638   0.849
 6117TIP3   OH218356   5.632   1.566   4.748
 6117TIP3    H118357   5.672   1.504   4.688
 6117TIP3    H218358   5.608   1.514   4.824
 6118TIP3   OH218359   2.988   5.440   0.692
 6118TIP3    H118360   3.047   5.457   0.765
 6118TIP3    H218361   2.917   5.503   0.703
 6119TIP3   OH218362   1.731   3.662   4.375
 6119TIP3    H118363   1.789   3.724   4.419
 6119TIP3    H218364   1.728   3.587   4.435
 6120TIP3   OH218365   5.118   3.902   2.491
 6120TIP3    H118366   5.119   3.826   2.549
 6120TIP3    H218367   5.045   3.955   2.522
 6121TIP3   OH218368   2.264   4.083   3.338
 6121TIP3    H118369   2.258   4.097   3.244
 6121TIP3    H218370   2.288   3.990   3.347
 6122TIP3   OH218371   5.713   0.244   3.412
 6122TIP3    H118372   5.763   0.168   3.382
 6122TIP3    H218373   5.727   0.310   3.345
 6123TIP3   OH218374   3.761   4.576   1.529
 6123TIP3    H118375   3.786   4.525   1.452
 6123TIP3    H218376   3.666   4.567   1.534
 6124TIP3   OH218377   5.807   3.000   4.189
 6124TIP3    H118378   5.838   3.089   4.176
 6124TIP3    H218379   5.835   2.977   4.277
 6125TIP3   OH218380   2.671   1.227   4.011
 6125TIP3    H118381   2.689   1.225   4.105
 6125TIP3    H218382   2.756   1.208   3.970
 6126TIP3   OH218383   5.290   4.848   2.422
 6126TIP3    H118384   5.282   4.765   2.375
 6126TIP3    H218385   5.246   4.833   2.506
 6127TIP3   OH218386   4.755   1.036   0.351
 6127TIP3    H118387   4.689   1.048   0.283
 6127TIP3    H218388   4.724   1.090   0.424
 6128TIP3   OH218389   5.645   2.223   0.740
 6128TIP3    H118390   5.663   2.295   0.800
 6128TIP3    H218391   5.600   2.264   0.666
 6129TIP3   OH218392   3.204   4.768   4.589
 6129TIP3    H118393   3.164   4.759   4.503
 6129TIP3    H218394   3.291   4.804   4.571
 6130TIP3   OH218395   4.593   4.350   1.905
 6130TIP3    H118396   4.649   4.273   1.895
 6130TIP3    H218397   4.506   4.318   1.882
 6131TIP3   OH218398   0.712   3.387   3.618
 6131TIP3    H118399   0.719   3.421   3.529
 6131TIP3    H218400   0.776   3.437   3.668
 6132TIP3   OH218401   1.873   5.567   1.047
 6132TIP3    H118402   1.869   5.622   0.968
 6132TIP3    H218403   1.877   5.629   1.119
 6133TIP3   OH218404   2.122   0.907   1.950
 6133TIP3    H118405   2.141   0.815   1.935
 6133TIP3    H218406   2.030   0.909   1.978
 6134TIP3   OH218407   0.167   2.308   2.209
 6134TIP3    H118408   0.197   2.232   2.159
 6134TIP3    H218409   0.093   2.276   2.260
 6135TIP3   OH218410   0.497   2.496   1.514
 6135TIP3    H118411   0.580   2.496   1.560
 6135TIP3    H218412   0.439   2.548   1.569
 6136TIP3   OH218413   4.052   5.792   4.230
 6136TIP3    H118414   4.092   5.725   4.175
 6136TIP3    H218415   4.124   5.830   4.280
 6137TIP3   OH218416   2.148   1.540   1.262
 6137TIP3    H118417   2.172   1.626   1.299
 6137TIP3    H218418   2.216   1.481   1.294
 6138TIP3   OH218419   5.981   2.960   5.089
 6138TIP3    H118420   6.041   3.030   5.062
 6138TIP3    H218421   5.944   2.927   5.007
 6139TIP3   OH218422   3.909   2.216   4.311
 6139TIP3    H118423   3.895   2.308   4.330
 6139TIP3    H218424   3.836   2.171   4.354
 6140TIP3   OH218425   2.214   0.195   2.673
 6140TIP3    H118426   2.265   0.232   2.601
 6140TIP3    H218427   2.280   0.162   2.734
 6141TIP3   OH218428   2.080   3.589   3.858
 6141TIP3    H118429   2.164   3.607   3.902
 6141TIP3    H218430   2.020   3.654   3.895
 6142TIP3   OH218431   4.161   0.155   0.977
 6142TIP3    H118432   4.112   0.128   0.899
 6142TIP3    H218433   4.187   0.073   1.019
 6143TIP3   OH218434   3.272   3.755   2.333
 6143TIP3    H118435   3.354   3.754   2.383
 6143TIP3    H218436   3.241   3.845   2.341
 6144TIP3   OH218437   5.051   0.349   0.906
 6144TIP3    H118438   4.956   0.347   0.894
 6144TIP3    H218439   5.085   0.286   0.843
 6145TIP3   OH218440   4.357   1.132   2.838
 6145TIP3    H118441   4.385   1.223   2.824
 6145TIP3    H218442   4.297   1.114   2.766
 6146TIP3   OH218443   5.335   4.324   1.167
 6146TIP3    H118444   5.306   4.411   1.141
 6146TIP3    H218445   5.254   4.278   1.191
 6147TIP3   OH218446   3.464   3.878   2.693
 6147TIP3    H118447   3.373   3.902   2.680
 6147TIP3    H218448   3.480   3.807   2.631
 6148TIP3   OH218449   4.217   1.615   0.018
 6148TIP3    H118450   4.185   1.656   0.099
 6148TIP3    H218451   4.296   1.568   0.045
 6149TIP3   OH218452   1.888   5.449   3.685
 6149TIP3    H118453   1.867   5.481   3.597
 6149TIP3    H218454   1.921   5.526   3.732
 6150TIP3   OH218455   5.802   1.471   5.010
 6150TIP3    H118456   5.766   1.543   5.061
 6150TIP3    H218457   5.894   1.466   5.037
 6151TIP3   OH218458   5.303   0.357   1.917
 6151TIP3    H118459   5.243   0.423   1.951
 6151TIP3    H218460   5.319   0.299   1.992
 6152TIP3   OH218461   4.157   4.207   0.015
 6152TIP3    H118462   4.160   4.293   0.057
 6152TIP3    H218463   4.076   4.168   0.046
 6153TIP3   OH218464   1.389   1.791   2.370
 6153TIP3    H118465   1.375   1.875   2.413
 6153TIP3    H218466   1.418   1.733   2.440
 6154TIP3   OH218467   6.168   2.441   1.290
 6154TIP3    H118468   6.082   2.402   1.305
 6154TIP3    H218469   6.227   2.366   1.282
 6155TIP3   OH218470   3.569   2.120   1.662
 6155TIP3    H118471   3.481   2.119   1.625
 6155TIP3    H218472   3.599   2.210   1.652
 6156TIP3   OH218473   4.922   2.773   1.018
 6156TIP3    H118474   4.843   2.769   1.071
 6156TIP3    H218475   4.946   2.682   1.003
 6157TIP3   OH218476   4.510   1.622   1.891
 6157TIP3    H118477   4.580   1.566   1.926
 6157TIP3    H218478   4.454   1.562   1.842
 6158TIP3   OH218479   3.708   0.852   0.111
 6158TIP3    H118480   3.756   0.915   0.165
 6158TIP3    H218481   3.774   0.813   0.054
 6159TIP3   OH218482   0.566   3.995   1.562
 6159TIP3    H118483   0.574   4.085   1.531
 6159TIP3    H218484   0.491   3.959   1.515
 6160TIP3   OH218485   2.195   2.784   0.775
 6160TIP3    H118486   2.249   2.863   0.762
 6160TIP3    H218487   2.245   2.732   0.837
 6161TIP3   OH218488   4.178   5.944   3.844
 6161TIP3    H118489   4.101   5.953   3.788
 6161TIP3    H218490   4.166   6.011   3.912
 6162TIP3   OH218491   0.864   0.038   2.330
 6162TIP3    H118492   0.773   0.035   2.360
 6162TIP3    H218493   0.887   0.131   2.331
 6163TIP3   OH218494   4.226   1.304   4.634
 6163TIP3    H118495   4.277   1.363   4.578
 6163TIP3    H218496   4.154   1.275   4.578
 6164TIP3   OH218497   1.015   5.874   3.939
 6164TIP3    H118498   1.060   5.930   4.003
 6164TIP3    H218499   0.943   5.834   3.989
 6165TIP3   OH218500   0.061   2.535   2.300
 6165TIP3    H118501   0.146   2.528   2.343
 6165TIP3    H218502   0.062   2.467   2.233
 6166TIP3   OH218503   3.337   5.661   1.777
 6166TIP3    H118504   3.407   5.664   1.713
 6166TIP3    H218505   3.265   5.618   1.731
 6167TIP3   OH218506   4.694   4.555   3.079
 6167TIP3    H118507   4.769   4.611   3.060
 6167TIP3    H218508   4.652   4.542   2.993
 6168TIP3   OH218509   2.840   3.240   1.639
 6168TIP3    H118510   2.805   3.181   1.706
 6168TIP3    H218511   2.789   3.320   1.648
 6169TIP3   OH218512   1.716   0.384   3.899
 6169TIP3    H118513   1.695   0.377   3.993
 6169TIP3    H218514   1.636   0.419   3.860
 6170TIP3   OH218515   3.591   5.576   2.306
 6170TIP3    H118516   3.676   5.611   2.334
 6170TIP3    H218517   3.527   5.620   2.362
 6171TIP3   OH218518   5.095   5.795   3.308
 6171TIP3    H118519   5.051   5.861   3.256
 6171TIP3    H218520   5.155   5.752   3.247
 6172TIP3   OH218521   2.826   5.777   2.648
 6172TIP3    H118522   2.842   5.764   2.554
 6172TIP3    H218523   2.908   5.813   2.681
 6173TIP3   OH218524   4.858   2.471   2.019
 6173TIP3    H118525   4.808   2.453   1.940
 6173TIP3    H218526   4.800   2.446   2.091
 6174TIP3   OH218527   0.923   4.993   3.861
 6174TIP3    H118528   0.853   4.976   3.923
 6174TIP3    H218529   0.974   5.064   3.900
 6175TIP3   OH218530   1.700   3.759   2.502
 6175TIP3    H118531   1.777   3.807   2.471
 6175TIP3    H218532   1.626   3.816   2.480
 6176TIP3   OH218533   3.910   0.039   2.388
 6176TIP3    H118534   3.908   0.135   2.381
 6176TIP3    H218535   3.838   0.019   2.449
 6177TIP3   OH218536   2.471   1.215   4.843
 6177TIP3    H118537   2.424   1.193   4.763
 6177TIP3    H218538   2.406   1.203   4.913
 6178TIP3   OH218539   5.702   1.166   3.247
 6178TIP3    H118540   5.674   1.212   3.167
 6178TIP3    H218541   5.731   1.236   3.305
 6179TIP3   OH218542   0.408   1.249   3.055
 6179TIP3    H118543   0.346   1.266   2.984
 6179TIP3    H218544   0.466   1.181   3.021
 6180TIP3   OH218545   5.467   3.925   4.652
 6180TIP3    H118546   5.375   3.948   4.666
 6180TIP3    H218547   5.515   4.006   4.666
 6181TIP3   OH218548   1.993   2.859   2.955
 6181TIP3    H118549   1.918   2.919   2.965
 6181TIP3    H218550   1.993   2.808   3.036
 6182TIP3   OH218551   0.779   2.915   1.404
 6182TIP3    H118552   0.844   2.879   1.465
 6182TIP3    H218553   0.817   2.999   1.375
 6183TIP3   OH218554   2.673   4.027   4.840
 6183TIP3    H118555   2.696   4.084   4.914
 6183TIP3    H218556   2.624   3.955   4.880
 6184TIP3   OH218557   2.527   1.926   4.700
 6184TIP3    H118558   2.523   1.944   4.606
 6184TIP3    H218559   2.599   1.863   4.709
 6185TIP3   OH218560   3.715   1.473   0.983
 6185TIP3    H118561   3.657   1.472   1.059
 6185TIP3    H218562   3.725   1.381   0.959
 6186TIP3   OH218563   3.205   0.271   2.181
 6186TIP3    H118564   3.132   0.280   2.119
 6186TIP3    H218565   3.168   0.293   2.266
 6187TIP3   OH218566   6.307   1.136   1.559
 6187TIP3    H118567   6.322   1.056   1.509
 6187TIP3    H218568   6.219   1.126   1.594
 6188TIP3   OH218569   1.113   5.593   4.116
 6188TIP3    H118570   1.076   5.660   4.172
 6188TIP3    H218571   1.052   5.587   4.042
 6189TIP3   OH218572   2.694   0.569   2.314
 6189TIP3    H118573   2.689   0.565   2.219
 6189TIP3    H218574   2.690   0.477   2.343
 6190TIP3   OH218575   3.319   0.974   4.314
 6190TIP3    H118576   3.233   0.979   4.355
 6190TIP3    H218577   3.348   1.065   4.308
 6191TIP3   OH218578   0.649   0.630   3.639
 6191TIP3    H118579   0.710   0.595   3.574
 6191TIP3    H218580   0.685   0.716   3.661
 6192TIP3   OH218581   3.853   0.711   5.030
 6192TIP3    H118582   3.766   0.715   4.989
 6192TIP3    H218583   3.842   0.757   5.113
 6193TIP3   OH218584   6.036   2.292   4.823
 6193TIP3    H118585   5.999   2.379   4.838
 6193TIP3    H218586   6.027   2.279   4.728
 6194TIP3   OH218587   4.247   5.555   4.655
 6194TIP3    H118588   4.193   5.623   4.613
 6194TIP3    H218589   4.307   5.526   4.586
 6195TIP3   OH218590   1.829   4.547   0.171
 6195TIP3    H118591   1.798   4.517   0.257
 6195TIP3    H218592   1.815   4.641   0.173
 6196TIP3   OH218593   1.547   0.148   2.654
 6196TIP3    H118594   1.540   0.243   2.654
 6196TIP3    H218595   1.560   0.124   2.562
 6197TIP3   OH218596   5.908   5.540   4.938
 6197TIP3    H118597   5.849   5.471   4.907
 6197TIP3    H218598   5.850   5.611   4.967
 6198TIP3   OH218599   5.496   1.478   2.360
 6198TIP3    H118600   5.425   1.424   2.328
 6198TIP3    H218601   5.555   1.489   2.285
 6199TIP3   OH218602   3.635   4.150   3.516
 6199TIP3    H118603   3.669   4.074   3.470
 6199TIP3    H218604   3.597   4.206   3.448
 6200TIP3   OH218605   3.674   5.606   5.026
 6200TIP3    H118606   3.674   5.696   4.993
 6200TIP3    H218607   3.753   5.599   5.078
 6201TIP3   OH218608   2.077   5.394   5.158
 6201TIP3    H118609   2.114   5.483   5.164
 6201TIP3    H218610   2.153   5.336   5.160
 6202TIP3   OH218611   5.238   4.206   0.828
 6202TIP3    H118612   5.320   4.240   0.793
 6202TIP3    H218613   5.232   4.117   0.794
 6203TIP3   OH218614   1.222   1.328   0.674
 6203TIP3    H118615   1.199   1.237   0.695
 6203TIP3    H218616   1.188   1.341   0.585
 6204TIP3   OH218617   0.511   0.942   0.207
 6204TIP3    H118618   0.555   0.899   0.134
 6204TIP3    H218619   0.510   0.876   0.276
 6205TIP3   OH218620   4.114   0.246   4.645
 6205TIP3    H118621   4.168   0.173   4.614
 6205TIP3    H218622   4.164   0.324   4.623
 6206TIP3   OH218623   1.467   2.076   1.027
 6206TIP3    H118624   1.393   2.025   0.994
 6206TIP3    H218625   1.518   2.014   1.079
 6207TIP3   OH218626   4.654   4.253   2.754
 6207TIP3    H118627   4.658   4.347   2.737
 6207TIP3    H218628   4.566   4.238   2.787
 6208TIP3   OH218629   6.223   2.460   0.660
 6208TIP3    H118630   6.294   2.515   0.629
 6208TIP3    H218631   6.243   2.445   0.753
 6209TIP3   OH218632   3.124   1.728   1.464
 6209TIP3    H118633   3.164   1.688   1.386
 6209TIP3    H218634   3.127   1.659   1.530
 6210TIP3   OH218635   2.350   5.073   0.708
 6210TIP3    H118636   2.413   5.142   0.732
 6210TIP3    H218637   2.383   4.995   0.753
 6211TIP3   OH218638   2.312   0.392   1.829
 6211TIP3    H118639   2.305   0.357   1.741
 6211TIP3    H218640   2.404   0.417   1.838
 6212TIP3   OH218641   3.223   3.232   0.506
 6212TIP3    H118642   3.308   3.189   0.494
 6212TIP3    H218643   3.200   3.266   0.420
 6213TIP3   OH218644   2.680   3.798   1.058
 6213TIP3    H118645   2.728   3.715   1.049
 6213TIP3    H218646   2.736   3.862   1.014
 6214TIP3   OH218647   3.678   3.968   3.982
 6214TIP3    H118648   3.605   3.910   4.002
 6214TIP3    H218649   3.681   4.029   4.055
 6215TIP3   OH218650   3.527   1.471   2.857
 6215TIP3    H118651   3.467   1.535   2.893
 6215TIP3    H218652   3.575   1.518   2.789
 6216TIP3   OH218653  -0.049   5.514   3.587
 6216TIP3    H118654   0.042   5.528   3.611
 6216TIP3    H218655  -0.090   5.600   3.596
 6217TIP3   OH218656   1.282   2.774   1.189
 6217TIP3    H118657   1.198   2.729   1.197
 6217TIP3    H218658   1.302   2.805   1.277
 6218TIP3   OH218659   1.125   5.549   0.104
 6218TIP3    H118660   1.160   5.541   0.015
 6218TIP3    H218661   1.178   5.617   0.144
 6219TIP3   OH218662   4.436   2.925   3.931
 6219TIP3    H118663   4.466   2.941   3.841
 6219TIP3    H218664   4.517   2.906   3.980
 6220TIP3   OH218665   0.432   4.778   2.031
 6220TIP3    H118666   0.380   4.800   2.108
 6220TIP3    H218667   0.479   4.859   2.010
 6221TIP3   OH218668   0.378   2.272   3.017
 6221TIP3    H118669   0.430   2.350   2.996
 6221TIP3    H218670   0.425   2.232   3.090
 6222TIP3   OH218671   1.158   5.442   3.435
 6222TIP3    H118672   1.102   5.517   3.455
 6222TIP3    H218673   1.234   5.480   3.391
 6223TIP3   OH218674   3.745   4.719   0.636
 6223TIP3    H118675   3.790   4.684   0.559
 6223TIP3    H218676   3.653   4.718   0.613
 6224TIP3   OH218677   3.178   4.381   4.616
 6224TIP3    H118678   3.083   4.383   4.611
 6224TIP3    H218679   3.207   4.415   4.531
 6225TIP3   OH218680   2.211   2.802   5.212
 6225TIP3    H118681   2.178   2.819   5.123
 6225TIP3    H218682   2.290   2.751   5.200
 6226TIP3   OH218683   5.873   0.527   4.280
 6226TIP3    H118684   5.964   0.506   4.263
 6226TIP3    H218685   5.832   0.527   4.193
 6227TIP3   OH218686   3.100   5.498   3.793
 6227TIP3    H118687   3.045   5.454   3.858
 6227TIP3    H218688   3.063   5.471   3.709
 6228TIP3   OH218689   3.997   5.046   2.858
 6228TIP3    H118690   4.044   5.056   2.775
 6228TIP3    H218691   4.023   5.123   2.909
 6229TIP3   OH218692   4.474   1.825   1.491
 6229TIP3    H118693   4.441   1.739   1.464
 6229TIP3    H218694   4.464   1.880   1.414
 6230TIP3   OH218695   5.815   3.617   2.698
 6230TIP3    H118696   5.891   3.624   2.756
 6230TIP3    H218697   5.852   3.588   2.614
 6231TIP3   OH218698   0.646   1.867   0.685
 6231TIP3    H118699   0.561   1.893   0.649
 6231TIP3    H218700   0.695   1.834   0.610
 6232TIP3   OH218701   3.209   4.006   2.407
 6232TIP3    H118702   3.154   4.001   2.485
 6232TIP3    H218703   3.275   4.072   2.429
 6233TIP3   OH218704   6.299   0.909   1.002
 6233TIP3    H118705   6.307   0.982   1.063
 6233TIP3    H218706   6.208   0.879   1.012
 6234TIP3   OH218707   0.411   3.100   3.255
 6234TIP3    H118708   0.372   3.040   3.191
 6234TIP3    H218709   0.336   3.142   3.297
 6235TIP3   OH218710   5.953   5.077   3.187
 6235TIP3    H118711   6.033   5.024   3.186
 6235TIP3    H218712   5.952   5.121   3.102
 6236TIP3   OH218713   1.814   4.191   0.111
 6236TIP3    H118714   1.792   4.125   0.176
 6236TIP3    H218715   1.769   4.271   0.140
 6237TIP3   OH218716   3.965   3.044   0.165
 6237TIP3    H118717   4.045   3.072   0.120
 6237TIP3    H218718   3.969   3.088   0.250
 6238TIP3   OH218719   5.685   5.736   0.196
 6238TIP3    H118720   5.632   5.810   0.170
 6238TIP3    H218721   5.710   5.755   0.286
 6239TIP3   OH218722   2.153   3.730   2.740
 6239TIP3    H118723   2.152   3.702   2.649
 6239TIP3    H218724   2.063   3.760   2.757
 6240TIP3   OH218725   4.287   3.593   0.227
 6240TIP3    H118726   4.323   3.546   0.302
 6240TIP3    H218727   4.332   3.678   0.228
 6241TIP3   OH218728   4.720   0.132   4.466
 6241TIP3    H118729   4.712   0.037   4.452
 6241TIP3    H218730   4.636   0.168   4.438
 6242TIP3   OH218731   6.126   1.785   4.491
 6242TIP3    H118732   6.109   1.866   4.539
 6242TIP3    H218733   6.218   1.793   4.463
 6243TIP3   OH218734   3.439   0.531   1.813
 6243TIP3    H118735   3.424   0.445   1.774
 6243TIP3    H218736   3.494   0.578   1.750
 6244TIP3   OH218737   6.224   0.053   1.509
 6244TIP3    H118738   6.234   0.126   1.448
 6244TIP3    H218739   6.179   0.091   1.584
 6245TIP3   OH218740   4.963   0.031   0.235
 6245TIP3    H118741   4.962   0.116   0.189
 6245TIP3    H218742   4.967   0.054   0.328
 6246TIP3   OH218743   1.619   4.008   4.052
 6246TIP3    H118744   1.625   4.006   4.147
 6246TIP3    H218745   1.679   3.939   4.023
 6247TIP3   OH218746   3.793   3.429   0.734
 6247TIP3    H118747   3.707   3.393   0.714
 6247TIP3    H218748   3.815   3.483   0.657
 6248TIP3   OH218749   2.963   1.432   1.484
 6248TIP3    H118750   2.940   1.454   1.394
 6248TIP3    H218751   2.953   1.513   1.532
 6249TIP3   OH218752   2.084   2.355   2.951
 6249TIP3    H118753   2.144   2.282   2.941
 6249TIP3    H218754   2.100   2.410   2.874
 6250TIP3   OH218755   1.500   3.021   5.016
 6250TIP3    H118756   1.411   3.036   4.985
 6250TIP3    H218757   1.531   3.107   5.043
 6251TIP3   OH218758   0.204   0.378   2.635
 6251TIP3    H118759   0.207   0.458   2.583
 6251TIP3    H218760   0.156   0.403   2.715
 6252TIP3   OH218761   5.954   0.554   2.196
 6252TIP3    H118762   5.943   0.525   2.106
 6252TIP3    H218763   5.872   0.599   2.217
 6253TIP3   OH218764   4.678   0.446  -0.031
 6253TIP3    H118765   4.769   0.442  -0.061
 6253TIP3    H218766   4.685   0.458   0.064
 6254TIP3   OH218767   4.080   5.571   3.833
 6254TIP3    H118768   4.052   5.662   3.826
 6254TIP3    H218769   4.071   5.537   3.744
 6255TIP3   OH218770   6.309   5.169   4.007
 6255TIP3    H118771   6.287   5.165   3.914
 6255TIP3    H218772   6.306   5.263   4.028
 6256TIP3   OH218773   4.222   0.734   3.787
 6256TIP3    H118774   4.284   0.704   3.720
 6256TIP3    H218775   4.196   0.821   3.757
 6257TIP3   OH218776   4.906   0.789   2.706
 6257TIP3    H118777   4.943   0.874   2.728
 6257TIP3    H218778   4.900   0.743   2.790
 6258TIP3   OH218779   0.441   2.042   3.632
 6258TIP3    H118780   0.507   1.976   3.611
 6258TIP3    H218781   0.485   2.102   3.692
 6259TIP3   OH218782   2.977   3.941   4.457
 6259TIP3    H118783   2.981   3.852   4.422
 6259TIP3    H218784   2.889   3.947   4.495
 6260TIP3   OH218785   1.586   0.252   1.183
 6260TIP3    H118786   1.620   0.326   1.234
 6260TIP3    H218787   1.630   0.175   1.219
 6261TIP3   OH218788   4.928   4.707   2.485
 6261TIP3    H118789   4.841   4.742   2.505
 6261TIP3    H218790   4.986   4.750   2.547
 6262TIP3   OH218791   1.159   2.043   1.428
 6262TIP3    H118792   1.079   2.066   1.476
 6262TIP3    H218793   1.136   2.055   1.336
 6263TIP3   OH218794   1.478   2.481   5.024
 6263TIP3    H118795   1.439   2.499   4.939
 6263TIP3    H218796   1.456   2.557   5.078
 6264TIP3   OH218797   4.513   3.678   5.024
 6264TIP3    H118798   4.508   3.657   5.117
 6264TIP3    H218799   4.553   3.765   5.021
 6265TIP3   OH218800   2.915   2.857   1.534
 6265TIP3    H118801   2.838   2.896   1.575
 6265TIP3    H218802   2.957   2.807   1.605
 6266TIP3   OH218803   2.803   3.459   1.256
 6266TIP3    H118804   2.818   3.531   1.194
 6266TIP3    H218805   2.890   3.421   1.269
 6267TIP3   OH218806   0.375   3.958   1.354
 6267TIP3    H118807   0.457   3.930   1.314
 6267TIP3    H218808   0.314   3.964   1.281
 6268TIP3   OH218809   4.742   5.722   3.501
 6268TIP3    H118810   4.801   5.654   3.532
 6268TIP3    H218811   4.700   5.756   3.580
 6269TIP3   OH218812   2.305   3.418   0.309
 6269TIP3    H118813   2.284   3.511   0.295
 6269TIP3    H218814   2.390   3.407   0.267
 6270TIP3   OH218815   5.155   1.509   4.842
 6270TIP3    H118816   5.104   1.489   4.920
 6270TIP3    H218817   5.161   1.427   4.794
 6271TIP3   OH218818   3.080   4.662   3.883
 6271TIP3    H118819   3.005   4.660   3.942
 6271TIP3    H218820   3.099   4.755   3.873
 6272TIP3   OH218821   4.502   2.509   1.339
 6272TIP3    H118822   4.494   2.572   1.267
 6272TIP3    H218823   4.553   2.437   1.302
 6273TIP3   OH218824   1.511   4.312   1.139
 6273TIP3    H118825   1.576   4.380   1.123
 6273TIP3    H218826   1.513   4.298   1.234
 6274TIP3   OH218827   0.776   3.285   2.765
 6274TIP3    H118828   0.738   3.275   2.677
 6274TIP3    H218829   0.870   3.284   2.751
 6275TIP3   OH218830   5.511   5.589   1.154
 6275TIP3    H118831   5.595   5.614   1.116
 6275TIP3    H218832   5.530   5.576   1.247
 6276TIP3   OH218833   5.437   4.852   4.641
 6276TIP3    H118834   5.412   4.808   4.560
 6276TIP3    H218835   5.362   4.908   4.663
 6277TIP3   OH218836   0.616   5.097   4.356
 6277TIP3    H118837   0.536   5.142   4.330
 6277TIP3    H218838   0.684   5.137   4.302
 6278TIP3   OH218839   4.492   5.454   2.235
 6278TIP3    H118840   4.582   5.443   2.203
 6278TIP3    H218841   4.477   5.377   2.290
 6279TIP3   OH218842   5.991   4.685   0.600
 6279TIP3    H118843   6.073   4.650   0.564
 6279TIP3    H218844   6.009   4.778   0.615
 6280TIP3   OH218845   4.245   5.524   2.685
 6280TIP3    H118846   4.254   5.610   2.727
 6280TIP3    H218847   4.306   5.528   2.611
 6281TIP3   OH218848   2.165   0.630   0.298
 6281TIP3    H118849   2.173   0.722   0.326
 6281TIP3    H218850   2.077   0.624   0.261
 6282TIP3   OH218851   2.543   0.710   1.254
 6282TIP3    H118852   2.622   0.671   1.216
 6282TIP3    H218853   2.513   0.773   1.189
 6283TIP3   OH218854   5.239   0.591   0.026
 6283TIP3    H118855   5.308   0.589   0.093
 6283TIP3    H218856   5.171   0.647   0.063
 6284TIP3   OH218857   2.184   2.256   5.063
 6284TIP3    H118858   2.226   2.261   5.148
 6284TIP3    H218859   2.236   2.315   5.007
 6285TIP3   OH218860   3.398   2.962   0.920
 6285TIP3    H118861   3.376   2.923   0.836
 6285TIP3    H218862   3.327   3.024   0.938
 6286TIP3   OH218863   4.237   2.791   1.229
 6286TIP3    H118864   4.161   2.849   1.230
 6286TIP3    H218865   4.296   2.827   1.295
 6287TIP3   OH218866   0.335   5.425   1.461
 6287TIP3    H118867   0.297   5.486   1.398
 6287TIP3    H218868   0.388   5.480   1.519
 6288TIP3   OH218869   5.044   1.527   2.841
 6288TIP3    H118870   5.132   1.550   2.871
 6288TIP3    H218871   5.041   1.559   2.750
 6289TIP3   OH218872   4.483   1.762   3.041
 6289TIP3    H118873   4.540   1.792   3.112
 6289TIP3    H218874   4.394   1.786   3.070
 6290TIP3   OH218875   2.223   4.181   0.926
 6290TIP3    H118876   2.136   4.221   0.932
 6290TIP3    H218877   2.283   4.254   0.941
 6291TIP3   OH218878   5.079   2.478   2.401
 6291TIP3    H118879   5.081   2.564   2.444
 6291TIP3    H218880   5.006   2.433   2.443
 6292TIP3   OH218881   5.045   1.562   5.128
 6292TIP3    H118882   5.111   1.499   5.157
 6292TIP3    H218883   5.030   1.617   5.206
 6293TIP3   OH218884   4.506   4.879   3.097
 6293TIP3    H118885   4.445   4.930   3.150
 6293TIP3    H218886   4.484   4.788   3.116
 6294TIP3   OH218887   2.476   5.879   2.466
 6294TIP3    H118888   2.477   5.905   2.374
 6294TIP3    H218889   2.393   5.832   2.476
 6295TIP3   OH218890   6.254   1.714   0.214
 6295TIP3    H118891   6.326   1.669   0.258
 6295TIP3    H218892   6.270   1.807   0.231
 6296TIP3   OH218893   4.693   2.126   4.467
 6296TIP3    H118894   4.609   2.095   4.433
 6296TIP3    H218895   4.701   2.216   4.435
 6297TIP3   OH218896   5.859   2.648   1.435
 6297TIP3    H118897   5.797   2.575   1.437
 6297TIP3    H218898   5.932   2.619   1.490
 6298TIP3   OH218899   1.923   2.117   1.632
 6298TIP3    H118900   2.006   2.143   1.592
 6298TIP3    H218901   1.865   2.192   1.618
 6299TIP3   OH218902   3.265   1.132   1.548
 6299TIP3    H118903   3.353   1.121   1.586
 6299TIP3    H218904   3.210   1.156   1.622
 6300TIP3   OH218905   2.126   0.387   4.033
 6300TIP3    H118906   2.060   0.380   4.102
 6300TIP3    H218907   2.164   0.299   4.028
 6301TIP3   OH218908   1.992   2.054   2.359
 6301TIP3    H118909   2.075   2.065   2.405
 6301TIP3    H218910   1.997   1.967   2.320
 6302TIP3   OH218911   3.800   3.529   0.469
 6302TIP3    H118912   3.812   3.614   0.426
 6302TIP3    H218913   3.707   3.510   0.459
 6303TIP3   OH218914   1.786   1.392   4.294
 6303TIP3    H118915   1.700   1.355   4.310
 6303TIP3    H218916   1.785   1.477   4.338
 6304TIP3   OH218917   3.601   2.453   0.298
 6304TIP3    H118918   3.622   2.498   0.217
 6304TIP3    H218919   3.676   2.471   0.355
 6305TIP3   OH218920   5.802   5.917   1.780
 6305TIP3    H118921   5.748   5.944   1.705
 6305TIP3    H218922   5.826   5.999   1.823
 6306TIP3   OH218923   4.001   5.069   0.412
 6306TIP3    H118924   3.998   5.094   0.320
 6306TIP3    H218925   4.012   4.974   0.411
 6307TIP3   OH218926   1.681   4.108   1.489
 6307TIP3    H118927   1.727   4.146   1.564
 6307TIP3    H218928   1.694   4.013   1.498
 6308TIP3   OH218929   0.786   1.502   4.154
 6308TIP3    H118930   0.813   1.455   4.075
 6308TIP3    H218931   0.696   1.530   4.135
 6309TIP3   OH218932   4.613   5.969   2.177
 6309TIP3    H118933   4.574   5.881   2.173
 6309TIP3    H218934   4.553   6.019   2.233
 6310TIP3   OH218935   2.919   3.473   0.673
 6310TIP3    H118936   2.850   3.449   0.612
 6310TIP3    H218937   2.924   3.400   0.734
 6311TIP3   OH218938   2.793   0.942   0.924
 6311TIP3    H118939   2.792   0.994   0.844
 6311TIP3    H218940   2.800   0.851   0.893
 6312TIP3   OH218941   3.698   5.549   1.902
 6312TIP3    H118942   3.734   5.564   1.989
 6312TIP3    H218943   3.775   5.535   1.846
 6313TIP3   OH218944   3.471   6.010   4.142
 6313TIP3    H118945   3.495   6.051   4.059
 6313TIP3    H218946   3.444   5.922   4.119
 6314TIP3   OH218947   4.475   0.887   1.527
 6314TIP3    H118948   4.510   0.854   1.444
 6314TIP3    H218949   4.408   0.824   1.551
 6315TIP3   OH218950   3.313   3.434   3.847
 6315TIP3    H118951   3.247   3.390   3.900
 6315TIP3    H218952   3.395   3.420   3.893
 6316TIP3   OH218953   2.132   5.658   5.168
 6316TIP3    H118954   2.080   5.734   5.142
 6316TIP3    H218955   2.219   5.693   5.188
 6317TIP3   OH218956   4.482   5.352   3.836
 6317TIP3    H118957   4.393   5.325   3.859
 6317TIP3    H218958   4.470   5.419   3.769
 6318TIP3   OH218959   0.320   5.164   3.162
 6318TIP3    H118960   0.352   5.216   3.089
 6318TIP3    H218961   0.271   5.226   3.216
 6319TIP3   OH218962   2.052   5.702   3.798
 6319TIP3    H118963   2.028   5.735   3.712
 6319TIP3    H218964   2.120   5.637   3.780
 6320TIP3   OH218965   0.422   3.195   1.863
 6320TIP3    H118966   0.433   3.272   1.806
 6320TIP3    H218967   0.400   3.232   1.948
 6321TIP3   OH218968   4.982   0.447   3.508
 6321TIP3    H118969   4.922   0.373   3.503
 6321TIP3    H218970   4.926   0.524   3.501
 6322TIP3   OH218971   4.399   5.614   2.452
 6322TIP3    H118972   4.422   5.566   2.372
 6322TIP3    H218973   4.482   5.622   2.500
 6323TIP3   OH218974   1.546   4.444   2.523
 6323TIP3    H118975   1.606   4.495   2.578
 6323TIP3    H218976   1.469   4.431   2.579
 6324TIP3   OH218977   5.432   2.520   4.560
 6324TIP3    H118978   5.436   2.502   4.654
 6324TIP3    H218979   5.363   2.586   4.552
 6325TIP3   OH218980   4.769   0.391   3.992
 6325TIP3    H118981   4.835   0.403   3.924
 6325TIP3    H218982   4.685   0.399   3.945
 6326TIP3   OH218983   0.357   1.746   3.663
 6326TIP3    H118984   0.338   1.763   3.755
 6326TIP3    H218985   0.320   1.821   3.616
 6327TIP3   OH218986   2.148   1.442   2.823
 6327TIP3    H118987   2.142   1.480   2.911
 6327TIP3    H218988   2.149   1.347   2.837
 6328TIP3   OH218989   5.081   3.009   0.648
 6328TIP3    H118990   5.022   3.055   0.588
 6328TIP3    H218991   5.155   3.068   0.658
 6329TIP3   OH218992   0.617   0.339   2.929
 6329TIP3    H118993   0.574   0.298   3.005
 6329TIP3    H218994   0.701   0.370   2.964
 6330TIP3   OH218995   1.779   0.926   1.814
 6330TIP3    H118996   1.815   0.998   1.762
 6330TIP3    H218997   1.742   0.969   1.891
 6331TIP3   OH218998   2.644   4.478   1.063
 6331TIP3    H118999   2.597   4.422   1.000
 6331TIP3    H219000   2.574   4.526   1.108
 6332TIP3   OH219001   3.700   4.124   4.234
 6332TIP3    H119002   3.728   4.077   4.313
 6332TIP3    H219003   3.751   4.205   4.235
 6333TIP3   OH219004   0.603   3.845   1.205
 6333TIP3    H119005   0.664   3.880   1.140
 6333TIP3    H219006   0.654   3.780   1.253
 6334TIP3   OH219007   1.320   1.976   2.578
 6334TIP3    H119008   1.285   1.927   2.652
 6334TIP3    H219009   1.412   1.992   2.600
 6335TIP3   OH219010   0.572   3.101   1.428
 6335TIP3    H119011   0.585   3.163   1.500
 6335TIP3    H219012   0.643   3.038   1.437
 6336TIP3   OH219013   0.557   3.818   4.716
 6336TIP3    H119014   0.537   3.812   4.810
 6336TIP3    H219015   0.490   3.876   4.681
 6337TIP3   OH219016   1.485   2.419   2.246
 6337TIP3    H119017   1.467   2.381   2.160
 6337TIP3    H219018   1.460   2.351   2.308
 6338TIP3   OH219019   5.484   0.358   1.003
 6338TIP3    H119020   5.456   0.270   1.026
 6338TIP3    H219021   5.441   0.376   0.919
 6339TIP3   OH219022   0.218   2.046   4.146
 6339TIP3    H119023   0.187   2.132   4.174
 6339TIP3    H219024   0.212   1.991   4.224
 6340TIP3   OH219025   5.725   5.657   1.882
 6340TIP3    H119026   5.790   5.603   1.927
 6340TIP3    H219027   5.776   5.726   1.840
 6341TIP3   OH219028   1.062   1.500   4.590
 6341TIP3    H119029   0.970   1.496   4.561
 6341TIP3    H219030   1.096   1.413   4.572
 6342TIP3   OH219031   1.254   2.990   2.791
 6342TIP3    H119032   1.252   2.895   2.778
 6342TIP3    H219033   1.344   3.009   2.817
 6343TIP3   OH219034   4.321   2.377   4.051
 6343TIP3    H119035   4.357   2.304   4.102
 6343TIP3    H219036   4.367   2.373   3.967
 6344TIP3   OH219037   1.438   4.653   3.461
 6344TIP3    H119038   1.453   4.701   3.379
 6344TIP3    H219039   1.420   4.563   3.433
 6345TIP3   OH219040   4.809   5.654   1.744
 6345TIP3    H119041   4.876   5.588   1.762
 6345TIP3    H219042   4.811   5.711   1.820
 6346TIP3   OH219043   5.814   5.456   1.285
 6346TIP3    H119044   5.805   5.552   1.282
 6346TIP3    H219045   5.909   5.442   1.291
 6347TIP3   OH219046   2.484   3.282   0.787
 6347TIP3    H119047   2.393   3.262   0.764
 6347TIP3    H219048   2.479   3.325   0.872
 6348TIP3   OH219049   0.297   5.628   1.123
 6348TIP3    H119050   0.300   5.692   1.052
 6348TIP3    H219051   0.358   5.662   1.189
 6349TIP3   OH219052   6.121   3.150   4.035
 6349TIP3    H119053   6.117   3.067   3.989
 6349TIP3    H219054   6.043   3.198   4.006
 6350TIP3   OH219055   0.435   0.957   3.799
 6350TIP3    H119056   0.419   1.048   3.775
 6350TIP3    H219057   0.440   0.911   3.716
 6351TIP3   OH219058   4.897   5.136   5.076
 6351TIP3    H119059   4.921   5.045   5.057
 6351TIP3    H219060   4.808   5.130   5.110
 6352TIP3   OH219061   0.080   0.713   0.815
 6352TIP3    H119062   0.135   0.743   0.742
 6352TIP3    H219063   0.026   0.789   0.836
 6353TIP3   OH219064   1.342   3.679   2.222
 6353TIP3    H119065   1.382   3.601   2.261
 6353TIP3    H219066   1.277   3.707   2.286
 6354TIP3   OH219067   3.299   0.555   4.339
 6354TIP3    H119068   3.308   0.608   4.418
 6354TIP3    H219069   3.334   0.611   4.269
 6355TIP3   OH219070   5.049   2.876   1.302
 6355TIP3    H119071   5.098   2.891   1.221
 6355TIP3    H219072   4.959   2.895   1.279
 6356TIP3   OH219073   0.883   0.330   0.313
 6356TIP3    H119074   0.901   0.351   0.405
 6356TIP3    H219075   0.866   0.415   0.272
 6357TIP3   OH219076   6.259   4.979   4.874
 6357TIP3    H119077   6.258   5.075   4.869
 6357TIP3    H219078   6.344   4.958   4.911
 6358TIP3   OH219079   0.924   2.407   3.291
 6358TIP3    H119080   0.828   2.415   3.294
 6358TIP3    H219081   0.956   2.497   3.289
 6359TIP3   OH219082   0.186   0.745   5.132
 6359TIP3    H119083   0.213   0.713   5.046
 6359TIP3    H219084   0.266   0.776   5.173
 6360TIP3   OH219085   5.640   5.531   2.567
 6360TIP3    H119086   5.580   5.589   2.613
 6360TIP3    H219087   5.593   5.506   2.487
 6361TIP3   OH219088   4.147   5.653   1.346
 6361TIP3    H119089   4.237   5.623   1.333
 6361TIP3    H219090   4.150   5.747   1.331
 6362TIP3   OH219091   5.170   0.238   0.505
 6362TIP3    H119092   5.082   0.275   0.503
 6362TIP3    H219093   5.174   0.190   0.588
 6363TIP3   OH219094   5.245   4.718   2.938
 6363TIP3    H119095   5.207   4.630   2.931
 6363TIP3    H219096   5.278   4.722   3.027
 6364TIP3   OH219097   5.516   0.977   1.589
 6364TIP3    H119098   5.575   0.902   1.593
 6364TIP3    H219099   5.431   0.944   1.615
 6365TIP3   OH219100   4.355   4.283   1.811
 6365TIP3    H119101   4.364   4.316   1.722
 6365TIP3    H219102   4.276   4.324   1.844
 6366TIP3   OH219103   0.849   4.298   0.309
 6366TIP3    H119104   0.793   4.314   0.384
 6366TIP3    H219105   0.795   4.321   0.233
 6367TIP3   OH219106   3.889   2.096   2.216
 6367TIP3    H119107   3.858   2.091   2.125
 6367TIP3    H219108   3.973   2.049   2.214
 6368TIP3   OH219109   4.749   4.107   4.179
 6368TIP3    H119110   4.715   4.038   4.236
 6368TIP3    H219111   4.814   4.064   4.125
 6369TIP3   OH219112   2.137   3.964   1.269
 6369TIP3    H119113   2.211   3.947   1.212
 6369TIP3    H219114   2.148   4.054   1.298
 6370TIP3   OH219115   4.137   4.721   1.749
 6370TIP3    H119116   4.072   4.653   1.734
 6370TIP3    H219117   4.089   4.803   1.737
 6371TIP3   OH219118   4.341   2.691   0.741
 6371TIP3    H119119   4.326   2.705   0.648
 6371TIP3    H219120   4.254   2.672   0.777
 6372TIP3   OH219121   0.184   1.250   2.083
 6372TIP3    H119122   0.234   1.317   2.129
 6372TIP3    H219123   0.145   1.295   2.009
 6373TIP3   OH219124   3.902   1.199   0.110
 6373TIP3    H119125   3.980   1.145   0.110
 6373TIP3    H219126   3.935   1.289   0.105
 6374TIP3   OH219127   5.463   0.268   0.406
 6374TIP3    H119128   5.380   0.226   0.430
 6374TIP3    H219129   5.522   0.248   0.478
 6375TIP3   OH219130   4.561   0.290   0.919
 6375TIP3    H119131   4.630   0.290   0.985
 6375TIP3    H219132   4.496   0.351   0.952
 6376TIP3   OH219133   2.118   3.128   0.527
 6376TIP3    H119134   2.023   3.124   0.539
 6376TIP3    H219135   2.130   3.173   0.444
 6377TIP3   OH219136   3.348   1.171   1.023
 6377TIP3    H119137   3.313   1.148   1.109
 6377TIP3    H219138   3.306   1.108   0.963
 6378TIP3   OH219139   3.797   5.580   4.105
 6378TIP3    H119140   3.718   5.622   4.072
 6378TIP3    H219141   3.850   5.562   4.028
 6379TIP3   OH219142   2.299   3.386   4.762
 6379TIP3    H119143   2.300   3.462   4.703
 6379TIP3    H219144   2.339   3.316   4.711
 6380TIP3   OH219145   2.055   0.145   4.175
 6380TIP3    H119146   2.008   0.081   4.120
 6380TIP3    H219147   1.986   0.186   4.227
 6381TIP3   OH219148   5.812   3.861   3.387
 6381TIP3    H119149   5.904   3.846   3.365
 6381TIP3    H219150   5.783   3.779   3.427
 6382TIP3   OH219151   3.852   2.881  -0.032
 6382TIP3    H119152   3.929   2.825  -0.033
 6382TIP3    H219153   3.875   2.952   0.028
 6383TIP3   OH219154   1.622   3.359   0.329
 6383TIP3    H119155   1.636   3.321   0.242
 6383TIP3    H219156   1.588   3.447   0.312
 6384TIP3   OH219157   4.242   5.898   3.197
 6384TIP3    H119158   4.332   5.868   3.183
 6384TIP3    H219159   4.192   5.817   3.208
 6385TIP3   OH219160   3.341   1.681   2.887
 6385TIP3    H119161   3.269   1.692   2.950
 6385TIP3    H219162   3.369   1.770   2.866
 6386TIP3   OH219163   4.799   5.278   3.026
 6386TIP3    H119164   4.723   5.332   3.005
 6386TIP3    H219165   4.774   5.231   3.106
 6387TIP3   OH219166   3.684   2.974   1.802
 6387TIP3    H119167   3.668   2.880   1.807
 6387TIP3    H219168   3.647   3.001   1.718
 6388TIP3   OH219169   4.795   3.605   2.741
 6388TIP3    H119170   4.866   3.618   2.804
 6388TIP3    H219171   4.719   3.647   2.782
 6389TIP3   OH219172   4.480   4.880   0.932
 6389TIP3    H119173   4.417   4.820   0.973
 6389TIP3    H219174   4.428   4.929   0.868
 6390TIP3   OH219175   2.696   3.108   2.224
 6390TIP3    H119176   2.651   3.185   2.259
 6390TIP3    H219177   2.786   3.137   2.210
 6391TIP3   OH219178   3.279   2.242   0.599
 6391TIP3    H119179   3.230   2.198   0.668
 6391TIP3    H219180   3.212   2.277   0.540
 6392TIP3   OH219181   2.809   0.953   1.809
 6392TIP3    H119182   2.865   0.989   1.878
 6392TIP3    H219183   2.734   1.013   1.805
 6393TIP3   OH219184   5.209   0.909   1.946
 6393TIP3    H119185   5.295   0.884   1.912
 6393TIP3    H219186   5.208   1.004   1.938
 6394TIP3   OH219187   3.253   3.199   2.762
 6394TIP3    H119188   3.297   3.116   2.778
 6394TIP3    H219189   3.227   3.196   2.670
 6395TIP3   OH219190   3.398   0.617   2.064
 6395TIP3    H119191   3.411   0.582   1.976
 6395TIP3    H219192   3.306   0.641   2.067
 6396TIP3   OH219193   4.871   0.676   3.411
 6396TIP3    H119194   4.900   0.724   3.334
 6396TIP3    H219195   4.893   0.733   3.485
 6397TIP3   OH219196   5.740   5.303   0.009
 6397TIP3    H119197   5.690   5.307  -0.072
 6397TIP3    H219198   5.823   5.346  -0.012
 6398TIP3   OH219199   4.813   5.589   4.959
 6398TIP3    H119200   4.764   5.633   4.890
 6398TIP3    H219201   4.805   5.496   4.940
 6399TIP3   OH219202   2.187   5.810   1.599
 6399TIP3    H119203   2.099   5.843   1.617
 6399TIP3    H219204   2.208   5.841   1.511
 6400TIP3   OH219205   0.690   5.144   3.001
 6400TIP3    H119206   0.663   5.098   3.080
 6400TIP3    H219207   0.616   5.134   2.941
 6401TIP3   OH219208   2.893   2.893   0.150
 6401TIP3    H119209   2.823   2.920   0.208
 6401TIP3    H219210   2.895   2.959   0.081
 6402TIP3   OH219211   1.745   4.749   3.497
 6402TIP3    H119212   1.756   4.662   3.537
 6402TIP3    H219213   1.781   4.740   3.409
 6403TIP3   OH219214   1.382   3.320   2.588
 6403TIP3    H119215   1.391   3.361   2.502
 6403TIP3    H219216   1.318   3.375   2.634
 6404TIP3   OH219217   4.029   4.009   1.602
 6404TIP3    H119218   4.000   3.922   1.574
 6404TIP3    H219219   4.000   4.067   1.532
 6405TIP3   OH219220   3.312   3.124   2.476
 6405TIP3    H119221   3.263   3.042   2.477
 6405TIP3    H219222   3.403   3.098   2.488
 6406TIP3   OH219223   0.973   2.632   1.864
 6406TIP3    H119224   1.032   2.658   1.793
 6406TIP3    H219225   0.892   2.679   1.847
 6407TIP3   OH219226   3.953   3.423   4.086
 6407TIP3    H119227   4.044   3.436   4.113
 6407TIP3    H219228   3.942   3.328   4.082
 6408TIP3   OH219229   3.006   3.327   0.926
 6408TIP3    H119230   2.984   3.246   0.973
 6408TIP3    H219231   3.088   3.307   0.881
 6409TIP3   OH219232   5.366   5.340   4.747
 6409TIP3    H119233   5.292   5.282   4.736
 6409TIP3    H219234   5.410   5.310   4.826
 6410TIP3   OH219235   4.981   5.236   1.357
 6410TIP3    H119236   4.914   5.172   1.381
 6410TIP3    H219237   5.027   5.196   1.283
 6411TIP3   OH219238   1.808   1.004   3.977
 6411TIP3    H119239   1.822   1.085   3.928
 6411TIP3    H219240   1.825   0.934   3.914
 6412TIP3   OH219241   5.032   4.683   0.117
 6412TIP3    H119242   5.075   4.757   0.159
 6412TIP3    H219243   5.075   4.675   0.032
 6413TIP3   OH219244   0.898   4.260   4.547
 6413TIP3    H119245   0.840   4.334   4.565
 6413TIP3    H219246   0.890   4.246   4.452
 6414TIP3   OH219247   0.720   1.511   1.033
 6414TIP3    H119248   0.655   1.580   1.017
 6414TIP3    H219249   0.802   1.547   0.997
 6415TIP3   OH219250   0.787   3.058   4.700
 6415TIP3    H119251   0.838   3.132   4.666
 6415TIP3    H219252   0.735   3.029   4.625
 6416TIP3   OH219253   3.181   2.703   1.010
 6416TIP3    H119254   3.169   2.615   1.047
 6416TIP3    H219255   3.251   2.692   0.946
 6417TIP3   OH219256   6.170   5.848   3.097
 6417TIP3    H119257   6.216   5.932   3.089
 6417TIP3    H219258   6.091   5.869   3.147
 6418TIP3   OH219259   5.729   4.616   2.689
 6418TIP3    H119260   5.680   4.607   2.771
 6418TIP3    H219261   5.820   4.603   2.714
 6419TIP3   OH219262   1.398   5.340   0.957
 6419TIP3    H119263   1.406   5.249   0.929
 6419TIP3    H219264   1.488   5.369   0.971
 6420TIP3   OH219265   3.491   0.228   2.864
 6420TIP3    H119266   3.539   0.179   2.931
 6420TIP3    H219267   3.548   0.301   2.842
 6421TIP3   OH219268   1.122   3.097   3.710
 6421TIP3    H119269   1.091   3.009   3.688
 6421TIP3    H219270   1.073   3.121   3.789
 6422TIP3   OH219271   2.912   3.263   3.115
 6422TIP3    H119272   2.895   3.279   3.208
 6422TIP3    H219273   3.006   3.276   3.104
 6423TIP3   OH219274   4.626   0.796   2.649
 6423TIP3    H119275   4.718   0.790   2.676
 6423TIP3    H219276   4.585   0.717   2.683
 6424TIP3   OH219277   5.770   1.542   2.976
 6424TIP3    H119278   5.726   1.625   2.961
 6424TIP3    H219279   5.856   1.552   2.935
 6425TIP3   OH219280   3.598   3.050   5.021
 6425TIP3    H119281   3.541   2.979   5.050
 6425TIP3    H219282   3.581   3.057   4.927
 6426TIP3   OH219283   0.778   5.215   2.048
 6426TIP3    H119284   0.774   5.219   2.144
 6426TIP3    H219285   0.850   5.155   2.029
 6427TIP3   OH219286   4.011   3.171   0.394
 6427TIP3    H119287   4.010   3.165   0.490
 6427TIP3    H219288   4.041   3.260   0.376
 6428TIP3   OH219289  -0.041   3.633   3.855
 6428TIP3    H119290   0.025   3.668   3.795
 6428TIP3    H219291   0.005   3.628   3.940
 6429TIP3   OH219292   3.209   1.579   1.235
 6429TIP3    H119293   3.149   1.542   1.170
 6429TIP3    H219294   3.267   1.506   1.258
 6430TIP3   OH219295   1.847   3.198   0.504
 6430TIP3    H119296   1.886   3.245   0.431
 6430TIP3    H219297   1.795   3.264   0.550
 6431TIP3   OH219298   5.612   3.157   2.425
 6431TIP3    H119299   5.707   3.153   2.436
 6431TIP3    H219300   5.579   3.191   2.508
 6432TIP3   OH219301   1.809   1.234   4.892
 6432TIP3    H119302   1.751   1.293   4.941
 6432TIP3    H219303   1.819   1.276   4.807
 6433TIP3   OH219304   3.661   1.013   4.383
 6433TIP3    H119305   3.643   1.106   4.366
 6433TIP3    H219306   3.615   0.995   4.465
 6434TIP3   OH219307   4.385   4.252   2.790
 6434TIP3    H119308   4.305   4.245   2.841
 6434TIP3    H219309   4.363   4.214   2.705
 6435TIP3   OH219310   2.352   5.995   0.013
 6435TIP3    H119311   2.403   5.917   0.032
 6435TIP3    H219312   2.384   6.061   0.076
 6436TIP3   OH219313   5.753   5.351   4.396
 6436TIP3    H119314   5.659   5.333   4.395
 6436TIP3    H219315   5.775   5.361   4.488
 6437TIP3   OH219316   5.383   5.334   2.749
 6437TIP3    H119317   5.337   5.367   2.672
 6437TIP3    H219318   5.381   5.407   2.811
 6438TIP3   OH219319   1.619   0.609   0.393
 6438TIP3    H119320   1.564   0.539   0.359
 6438TIP3    H219321   1.654   0.574   0.475
 6439TIP3   OH219322   5.013   4.567   2.783
 6439TIP3    H119323   5.051   4.512   2.852
 6439TIP3    H219324   4.926   4.531   2.768
 6440TIP3   OH219325   4.184   1.022   1.718
 6440TIP3    H119326   4.113   1.078   1.688
 6440TIP3    H219327   4.192   1.040   1.811
 6441TIP3   OH219328   4.277   2.948   4.772
 6441TIP3    H119329   4.265   2.883   4.703
 6441TIP3    H219330   4.189   2.981   4.790
 6442TIP3   OH219331   1.955   5.814   0.441
 6442TIP3    H119332   1.880   5.871   0.426
 6442TIP3    H219333   1.924   5.748   0.504
 6443TIP3   OH219334   2.405   3.054   2.201
 6443TIP3    H119335   2.371   3.006   2.125
 6443TIP3    H219336   2.491   3.085   2.173
 6444TIP3   OH219337   3.689   4.135   3.100
 6444TIP3    H119338   3.723   4.166   3.016
 6444TIP3    H219339   3.645   4.210   3.138
 6445TIP3   OH219340   3.977   5.192   3.890
 6445TIP3    H119341   3.989   5.218   3.982
 6445TIP3    H219342   4.065   5.173   3.859
 6446TIP3   OH219343   2.126   4.847   2.045
 6446TIP3    H119344   2.200   4.879   1.994
 6446TIP3    H219345   2.072   4.799   1.982
 6447TIP3   OH219346   1.486   0.719   2.888
 6447TIP3    H119347   1.531   0.787   2.939
 6447TIP3    H219348   1.414   0.691   2.945
 6448TIP3   OH219349   4.343   0.492   0.344
 6448TIP3    H119350   4.315   0.439   0.269
 6448TIP3    H219351   4.302   0.450   0.420
 6449TIP3   OH219352   0.772   2.106   1.275
 6449TIP3    H119353   0.751   2.132   1.365
 6449TIP3    H219354   0.691   2.066   1.242
 6450TIP3   OH219355   2.744   1.791   2.025
 6450TIP3    H119356   2.752   1.782   2.120
 6450TIP3    H219357   2.653   1.818   2.011
 6451TIP3   OH219358   2.819   3.825   2.551
 6451TIP3    H119359   2.877   3.769   2.602
 6451TIP3    H219360   2.803   3.901   2.607
 6452TIP3   OH219361   2.917   4.304   3.434
 6452TIP3    H119362   2.989   4.332   3.378
 6452TIP3    H219363   2.957   4.244   3.497
 6453TIP3   OH219364   5.650   4.529   4.830
 6453TIP3    H119365   5.676   4.539   4.738
 6453TIP3    H219366   5.557   4.552   4.831
 6454TIP3   OH219367   5.112   1.122   3.054
 6454TIP3    H119368   5.178   1.079   3.109
 6454TIP3    H219369   5.163   1.178   2.996
 6455TIP3   OH219370   0.847   4.384   2.019
 6455TIP3    H119371   0.773   4.442   2.000
 6455TIP3    H219372   0.896   4.380   1.937
 6456TIP3   OH219373   3.993   3.034   4.762
 6456TIP3    H119374   3.947   2.951   4.755
 6456TIP3    H219375   3.937   3.088   4.818
 6457TIP3   OH219376   5.933   1.385   3.140
 6457TIP3    H119377   5.876   1.462   3.140
 6457TIP3    H219378   5.930   1.353   3.050
 6458TIP3   OH219379   3.103   0.775   2.314
 6458TIP3    H119380   3.114   0.870   2.308
 6458TIP3    H219381   3.111   0.744   2.224
 6459TIP3   OH219382   2.176   1.534   4.265
 6459TIP3    H119383   2.103   1.511   4.208
 6459TIP3    H219384   2.209   1.449   4.296
 6460TIP3   OH219385   2.382   5.324   2.230
 6460TIP3    H119386   2.399   5.332   2.136
 6460TIP3    H219387   2.325   5.399   2.251
 6461TIP3   OH219388   3.455   3.765   3.315
 6461TIP3    H119389   3.500   3.764   3.230
 6461TIP3    H219390   3.406   3.683   3.317
 6462TIP3   OH219391   0.848   0.708   2.862
 6462TIP3    H119392   0.872   0.616   2.879
 6462TIP3    H219393   0.862   0.752   2.945
 6463TIP3   OH219394   4.731   4.928   2.928
 6463TIP3    H119395   4.794   4.871   2.973
 6463TIP3    H219396   4.662   4.942   2.991
 6464TIP3   OH219397   2.604   0.766   4.588
 6464TIP3    H119398   2.539   0.729   4.648
 6464TIP3    H219399   2.556   0.832   4.537
 6465TIP3   OH219400   3.099   0.149   2.798
 6465TIP3    H119401   3.008   0.177   2.787
 6465TIP3    H219402   3.133   0.205   2.868
 6466TIP3   OH219403   0.121   3.930   3.773
 6466TIP3    H119404   0.177   3.983   3.830
 6466TIP3    H219405   0.163   3.844   3.772
 6467TIP3   OH219406   0.373   4.755   1.724
 6467TIP3    H119407   0.337   4.833   1.682
 6467TIP3    H219408   0.414   4.788   1.805
 6468TIP3   OH219409   4.098   0.647   0.618
 6468TIP3    H119410   4.165   0.607   0.673
 6468TIP3    H219411   4.020   0.593   0.632
 6469TIP3   OH219412   2.795   2.515   2.207
 6469TIP3    H119413   2.883   2.527   2.243
 6469TIP3    H219414   2.752   2.600   2.220
 6470TIP3   OH219415   1.839   3.543   3.106
 6470TIP3    H119416   1.929   3.539   3.137
 6470TIP3    H219417   1.789   3.574   3.182
 6471TIP3   OH219418   4.657   4.413   0.326
 6471TIP3    H119419   4.666   4.407   0.421
 6471TIP3    H219420   4.628   4.503   0.310
 6472TIP3   OH219421   5.191   0.837   0.151
 6472TIP3    H119422   5.277   0.808   0.184
 6472TIP3    H219423   5.149   0.878   0.226
 6473TIP3   OH219424   5.659   4.323   4.234
 6473TIP3    H119425   5.675   4.254   4.299
 6473TIP3    H219426   5.678   4.281   4.150
 6474TIP3   OH219427   4.123   5.064   3.625
 6474TIP3    H119428   4.215   5.044   3.612
 6474TIP3    H219429   4.107   5.142   3.571
 6475TIP3   OH219430   0.317   1.215   3.750
 6475TIP3    H119431   0.385   1.281   3.743
 6475TIP3    H219432   0.251   1.254   3.807
 6476TIP3   OH219433   6.033   1.559   1.704
 6476TIP3    H119434   6.080   1.598   1.778
 6476TIP3    H219435   5.963   1.508   1.745
 6477TIP3   OH219436   1.893   0.666   3.006
 6477TIP3    H119437   1.845   0.746   2.984
 6477TIP3    H219438   1.985   0.694   3.009
 6478TIP3   OH219439   1.318   3.459   1.246
 6478TIP3    H119440   1.313   3.519   1.320
 6478TIP3    H219441   1.281   3.508   1.172
 6479TIP3   OH219442   1.504   4.913   2.013
 6479TIP3    H119443   1.576   4.879   1.960
 6479TIP3    H219444   1.497   5.005   1.989
 6480TIP3   OH219445   4.535   3.787   4.349
 6480TIP3    H119446   4.530   3.711   4.292
 6480TIP3    H219447   4.452   3.833   4.335
 6481TIP3   OH219448   1.218   4.745   4.852
 6481TIP3    H119449   1.168   4.827   4.850
 6481TIP3    H219450   1.309   4.773   4.838
 6482TIP3   OH219451   1.347   4.031   4.871
 6482TIP3    H119452   1.351   3.976   4.950
 6482TIP3    H219453   1.426   4.007   4.821
 6483TIP3   OH219454   3.480   5.958   1.827
 6483TIP3    H119455   3.443   5.951   1.739
 6483TIP3    H219456   3.458   6.047   1.855
 6484TIP3   OH219457   5.930   0.113   0.226
 6484TIP3    H119458   5.883   0.192   0.252
 6484TIP3    H219459   6.020   0.142   0.210
 6485TIP3   OH219460   3.500   0.602   5.136
 6485TIP3    H119461   3.547   0.569   5.213
 6485TIP3    H219462   3.418   0.551   5.135
 6486TIP3   OH219463   1.442   5.757   0.659
 6486TIP3    H119464   1.446   5.826   0.725
 6486TIP3    H219465   1.532   5.727   0.649
 6487TIP3   OH219466   4.791   3.097   2.555
 6487TIP3    H119467   4.866   3.096   2.614
 6487TIP3    H219468   4.715   3.110   2.613
 6488TIP3   OH219469   0.623   0.208   0.481
 6488TIP3    H119470   0.664   0.146   0.542
 6488TIP3    H219471   0.535   0.173   0.466
 6489TIP3   OH219472   3.983   3.123   3.099
 6489TIP3    H119473   4.014   3.104   3.187
 6489TIP3    H219474   3.950   3.039   3.067
 6490TIP3   OH219475   3.244   4.490   2.209
 6490TIP3    H119476   3.280   4.524   2.291
 6490TIP3    H219477   3.152   4.470   2.229
 6491TIP3   OH219478   4.902   1.577   3.941
 6491TIP3    H119479   4.932   1.593   4.030
 6491TIP3    H219480   4.963   1.512   3.906
 6492TIP3   OH219481   2.644   3.501   4.608
 6492TIP3    H119482   2.707   3.544   4.550
 6492TIP3    H219483   2.590   3.448   4.550
 6493TIP3   OH219484   2.265   4.132   2.304
 6493TIP3    H119485   2.242   4.108   2.393
 6493TIP3    H219486   2.189   4.109   2.251
 6494TIP3   OH219487   3.540   5.798   2.054
 6494TIP3    H119488   3.521   5.847   1.974
 6494TIP3    H219489   3.604   5.732   2.026
 6495TIP3   OH219490   5.908   1.941   0.589
 6495TIP3    H119491   5.955   2.024   0.600
 6495TIP3    H219492   5.913   1.924   0.495
 6496TIP3   OH219493   3.007   0.554   5.063
 6496TIP3    H119494   2.974   0.620   5.125
 6496TIP3    H219495   3.045   0.486   5.118
 6497TIP3   OH219496   0.397   2.239   2.523
 6497TIP3    H119497   0.382   2.206   2.611
 6497TIP3    H219498   0.326   2.302   2.509
 6498TIP3   OH219499   4.986   5.862   3.536
 6498TIP3    H119500   5.025   5.836   3.453
 6498TIP3    H219501   4.904   5.813   3.540
 6499TIP3   OH219502   0.228   3.676   0.482
 6499TIP3    H119503   0.210   3.604   0.543
 6499TIP3    H219504   0.312   3.653   0.443
 6500TIP3   OH219505   4.986   3.941   3.198
 6500TIP3    H119506   4.897   3.906   3.202
 6500TIP3    H219507   5.042   3.866   3.218
 6501TIP3   OH219508   4.018   5.345   2.934
 6501TIP3    H119509   3.964   5.349   2.855
 6501TIP3    H219510   4.107   5.332   2.901
 6502TIP3   OH219511   0.461   4.053   3.644
 6502TIP3    H119512   0.478   3.970   3.600
 6502TIP3    H219513   0.392   4.095   3.592
 6503TIP3   OH219514   1.766   2.364   0.677
 6503TIP3    H119515   1.857   2.339   0.662
 6503TIP3    H219516   1.716   2.287   0.650
 6504TIP3   OH219517   0.468   4.539   0.597
 6504TIP3    H119518   0.443   4.533   0.689
 6504TIP3    H219519   0.484   4.448   0.571
 6505TIP3   OH219520   5.677   1.176   0.367
 6505TIP3    H119521   5.589   1.173   0.329
 6505TIP3    H219522   5.734   1.141   0.298
 6506TIP3   OH219523   4.618   2.932   0.167
 6506TIP3    H119524   4.628   2.973   0.253
 6506TIP3    H219525   4.705   2.937   0.128
 6507TIP3   OH219526   5.425   4.660   4.424
 6507TIP3    H119527   5.467   4.597   4.483
 6507TIP3    H219528   5.482   4.660   4.346
 6508TIP3   OH219529   3.123   1.629   4.542
 6508TIP3    H119530   3.087   1.589   4.621
 6508TIP3    H219531   3.047   1.666   4.498
 6509TIP3   OH219532   0.777   1.457   4.569
 6509TIP3    H119533   0.720   1.383   4.548
 6509TIP3    H219534   0.723   1.512   4.626
 6510TIP3   OH219535   6.202   0.569   0.139
 6510TIP3    H119536   6.222   0.619   0.060
 6510TIP3    H219537   6.288   0.544   0.173
 6511TIP3   OH219538   2.412   1.983   1.714
 6511TIP3    H119539   2.505   1.968   1.694
 6511TIP3    H219540   2.406   1.971   1.808
 6512TIP3   OH219541   2.026   3.362   0.851
 6512TIP3    H119542   2.031   3.396   0.761
 6512TIP3    H219543   1.933   3.342   0.864
 6513TIP3   OH219544   2.700   4.949   2.651
 6513TIP3    H119545   2.722   4.859   2.626
 6513TIP3    H219546   2.667   4.941   2.741
 6514TIP3   OH219547   1.834   5.687   1.507
 6514TIP3    H119548   1.906   5.624   1.509
 6514TIP3    H219549   1.869   5.766   1.549
 6515TIP3   OH219550   3.637   5.110   2.087
 6515TIP3    H119551   3.552   5.151   2.099
 6515TIP3    H219552   3.691   5.146   2.159
 6516TIP3   OH219553   2.935   5.028   4.015
 6516TIP3    H119554   3.026   5.046   4.040
 6516TIP3    H219555   2.915   5.096   3.950
 6517TIP3   OH219556   3.523   4.027   1.816
 6517TIP3    H119557   3.464   4.089   1.860
 6517TIP3    H219558   3.494   4.027   1.725
 6518TIP3   OH219559   4.753   5.191   1.666
 6518TIP3    H119560   4.842   5.156   1.677
 6518TIP3    H219561   4.727   5.161   1.579
 6519TIP3   OH219562   6.107   2.152   1.342
 6519TIP3    H119563   6.169   2.080   1.352
 6519TIP3    H219564   6.040   2.135   1.408
 6520TIP3   OH219565   3.122   2.168   4.631
 6520TIP3    H119566   3.200   2.153   4.577
 6520TIP3    H219567   3.048   2.145   4.574
 6521TIP3   OH219568   4.417   1.432   0.092
 6521TIP3    H119569   4.475   1.501   0.122
 6521TIP3    H219570   4.410   1.372   0.166
 6522TIP3   OH219571   4.221   2.644   0.254
 6522TIP3    H119572   4.219   2.550   0.270
 6522TIP3    H219573   4.304   2.659   0.209
 6523TIP3   OH219574   5.096   0.066   4.099
 6523TIP3    H119575   5.172   0.105   4.142
 6523TIP3    H219576   5.052   0.017   4.168
 6524TIP3   OH219577   2.745   1.279   1.435
 6524TIP3    H119578   2.794   1.343   1.486
 6524TIP3    H219579   2.775   1.293   1.345
 6525TIP3   OH219580   1.528   4.713   1.283
 6525TIP3    H119581   1.504   4.733   1.192
 6525TIP3    H219582   1.604   4.654   1.275
 6526TIP3   OH219583   3.855   0.805   3.012
 6526TIP3    H119584   3.854   0.832   2.920
 6526TIP3    H219585   3.781   0.745   3.021
 6527TIP3   OH219586   2.103   3.459   4.180
 6527TIP3    H119587   2.019   3.414   4.177
 6527TIP3    H219588   2.083   3.547   4.211
 6528TIP3   OH219589   0.980   3.509   0.605
 6528TIP3    H119590   1.017   3.421   0.603
 6528TIP3    H219591   0.984   3.535   0.697
 6529TIP3   OH219592   5.362   2.570   0.509
 6529TIP3    H119593   5.424   2.562   0.437
 6529TIP3    H219594   5.417   2.573   0.588
 6530TIP3   OH219595   5.565   3.063   4.531
 6530TIP3    H119596   5.660   3.053   4.519
 6530TIP3    H219597   5.553   3.062   4.626
 6531TIP3   OH219598   2.905   1.456   3.417
 6531TIP3    H119599   2.908   1.387   3.351
 6531TIP3    H219600   2.866   1.531   3.372
 6532TIP3   OH219601   3.855   0.224   4.784
 6532TIP3    H119602   3.774   0.257   4.745
 6532TIP3    H219603   3.922   0.239   4.717
 6533TIP3   OH219604   1.057   4.628   0.283
 6533TIP3    H119605   1.130   4.690   0.281
 6533TIP3    H219606   1.057   4.595   0.372
 6534TIP3   OH219607   0.639   1.854   2.563
 6534TIP3    H119608   0.654   1.948   2.554
 6534TIP3    H219609   0.726   1.817   2.580
 6535TIP3   OH219610   5.441   5.024   3.642
 6535TIP3    H119611   5.444   5.065   3.557
 6535TIP3    H219612   5.512   4.959   3.641
 6536TIP3   OH219613   6.291   4.029   4.551
 6536TIP3    H119614   6.280   4.106   4.496
 6536TIP3    H219615   6.211   4.024   4.603
 6537TIP3   OH219616   0.818   2.668   2.953
 6537TIP3    H119617   0.846   2.579   2.971
 6537TIP3    H219618   0.831   2.714   3.036
 6538TIP3   OH219619   5.198   1.040   1.534
 6538TIP3    H119620   5.124   1.095   1.506
 6538TIP3    H219621   5.275   1.082   1.495
 6539TIP3   OH219622   2.546   3.244   2.005
 6539TIP3    H119623   2.579   3.328   1.973
 6539TIP3    H219624   2.451   3.257   2.013
 6540TIP3   OH219625   6.052   0.680   2.423
 6540TIP3    H119626   6.025   0.619   2.354
 6540TIP3    H219627   6.135   0.716   2.393
 6541TIP3   OH219628   3.260   2.568   2.830
 6541TIP3    H119629   3.328   2.595   2.768
 6541TIP3    H219630   3.220   2.650   2.859
 6542TIP3   OH219631   5.854   5.017   3.635
 6542TIP3    H119632   5.885   5.107   3.648
 6542TIP3    H219633   5.779   5.027   3.576
 6543TIP3   OH219634   6.156   1.341   2.189
 6543TIP3    H119635   6.184   1.258   2.227
 6543TIP3    H219636   6.224   1.403   2.216
 6544TIP3   OH219637   2.050   0.806   2.591
 6544TIP3    H119638   1.959   0.777   2.598
 6544TIP3    H219639   2.101   0.726   2.605
 6545TIP3   OH219640   4.931   4.408   3.631
 6545TIP3    H119641   4.857   4.373   3.679
 6545TIP3    H219642   4.911   4.391   3.539
 6546TIP3   OH219643   5.088   4.457   3.024
 6546TIP3    H119644   5.130   4.371   3.033
 6546TIP3    H219645   5.077   4.488   3.113
 6547TIP3   OH219646   0.138   2.099   0.543
 6547TIP3    H119647   0.191   2.049   0.481
 6547TIP3    H219648   0.101   2.033   0.602
 6548TIP3   OH219649   1.256   3.037   0.190
 6548TIP3    H119650   1.261   3.127   0.157
 6548TIP3    H219651   1.300   3.041   0.275
 6549TIP3   OH219652   3.841   5.636   2.401
 6549TIP3    H119653   3.891   5.574   2.454
 6549TIP3    H219654   3.868   5.722   2.433
 6550TIP3   OH219655   0.798   3.980   2.233
 6550TIP3    H119656   0.845   3.916   2.179
 6550TIP3    H219657   0.734   4.020   2.174
 6551TIP3   OH219658   0.305   3.057   0.749
 6551TIP3    H119659   0.333   3.026   0.663
 6551TIP3    H219660   0.232   2.999   0.773
 6552TIP3   OH219661   2.954   5.222   1.048
 6552TIP3    H119662   2.974   5.168   1.124
 6552TIP3    H219663   2.955   5.312   1.080
 6553TIP3   OH219664   5.755   0.957   2.136
 6553TIP3    H119665   5.827   1.014   2.161
 6553TIP3    H219666   5.758   0.885   2.199
 6554TIP3   OH219667   5.605   5.468   0.194
 6554TIP3    H119668   5.649   5.552   0.204
 6554TIP3    H219669   5.672   5.411   0.156
 6555TIP3   OH219670   1.107   3.749   2.454
 6555TIP3    H119671   1.016   3.734   2.480
 6555TIP3    H219672   1.155   3.676   2.493
 6556TIP3   OH219673   4.605   2.902   1.844
 6556TIP3    H119674   4.581   2.953   1.921
 6556TIP3    H219675   4.696   2.924   1.827
 6557TIP3   OH219676   6.102   2.193   2.273
 6557TIP3    H119677   6.067   2.270   2.227
 6557TIP3    H219678   6.024   2.148   2.306
 6558TIP3   OH219679   5.031   5.481   4.359
 6558TIP3    H119680   5.071   5.394   4.356
 6558TIP3    H219681   5.105   5.542   4.356
 6559TIP3   OH219682   5.915   0.106   2.229
 6559TIP3    H119683   5.832   0.104   2.181
 6559TIP3    H219684   5.905   0.039   2.296
 6560TIP3   OH219685   4.741   2.040   2.771
 6560TIP3    H119686   4.709   2.074   2.855
 6560TIP3    H219687   4.721   2.109   2.708
 6561TIP3   OH219688   5.359   2.577   0.865
 6561TIP3    H119689   5.434   2.594   0.807
 6561TIP3    H219690   5.396   2.578   0.953
 6562TIP3   OH219691   3.132   2.519   3.897
 6562TIP3    H119692   3.127   2.429   3.930
 6562TIP3    H219693   3.187   2.513   3.820
 6563TIP3   OH219694   2.168   0.060   3.439
 6563TIP3    H119695   2.085   0.058   3.486
 6563TIP3    H219696   2.153   0.120   3.366
 6564TIP3   OH219697   0.632   4.834   4.010
 6564TIP3    H119698   0.722   4.837   4.041
 6564TIP3    H219699   0.616   4.742   3.990
 6565TIP3   OH219700   5.818   0.797   3.380
 6565TIP3    H119701   5.902   0.838   3.400
 6565TIP3    H219702   5.816   0.719   3.435
 6566TIP3   OH219703   5.938   4.407   3.907
 6566TIP3    H119704   5.953   4.411   4.001
 6566TIP3    H219705   6.015   4.449   3.869
 6567TIP3   OH219706   2.789   1.516   2.626
 6567TIP3    H119707   2.695   1.505   2.635
 6567TIP3    H219708   2.820   1.435   2.587
 6568TIP3   OH219709   0.991   0.619   1.434
 6568TIP3    H119710   1.040   0.674   1.495
 6568TIP3    H219711   1.053   0.553   1.404
 6569TIP3   OH219712   0.091   2.422   0.257
 6569TIP3    H119713   0.178   2.436   0.219
 6569TIP3    H219714   0.107   2.366   0.333
 6570TIP3   OH219715   3.090   0.060   3.419
 6570TIP3    H119716   3.145  -0.017   3.413
 6570TIP3    H219717   3.147   0.133   3.393
 6571TIP3   OH219718   4.053   4.641   1.126
 6571TIP3    H119719   3.999   4.649   1.048
 6571TIP3    H219720   4.006   4.691   1.193
 6572TIP3   OH219721   0.777   1.841   3.005
 6572TIP3    H119722   0.727   1.805   3.079
 6572TIP3    H219723   0.734   1.925   2.987
 6573TIP3   OH219724   5.363   0.678   2.984
 6573TIP3    H119725   5.327   0.680   3.073
 6573TIP3    H219726   5.442   0.732   2.990
 6574TIP3   OH219727   2.056   2.506   2.727
 6574TIP3    H119728   2.077   2.598   2.711
 6574TIP3    H219729   1.974   2.492   2.680
 6575TIP3   OH219730   1.622   2.016   4.513
 6575TIP3    H119731   1.643   2.002   4.605
 6575TIP3    H219732   1.694   1.975   4.465
 6576TIP3   OH219733   3.745   0.855   1.223
 6576TIP3    H119734   3.694   0.906   1.286
 6576TIP3    H219735   3.821   0.910   1.203
 6577TIP3   OH219736   1.422   4.260   0.758
 6577TIP3    H119737   1.343   4.268   0.705
 6577TIP3    H219738   1.395   4.208   0.834
 6578TIP3   OH219739   1.770   4.872   1.490
 6578TIP3    H119740   1.723   4.946   1.452
 6578TIP3    H219741   1.861   4.885   1.464
 6579TIP3   OH219742   4.967   0.966   0.702
 6579TIP3    H119743   4.970   1.052   0.660
 6579TIP3    H219744   4.881   0.964   0.744
 6580TIP3   OH219745   2.299   0.402   2.374
 6580TIP3    H119746   2.345   0.456   2.310
 6580TIP3    H219747   2.223   0.369   2.327
 6581TIP3   OH219748   4.796   4.839   0.403
 6581TIP3    H119749   4.844   4.758   0.386
 6581TIP3    H219750   4.705   4.811   0.412
 6582TIP3   OH219751   1.324   3.812   5.035
 6582TIP3    H119752   1.230   3.810   5.047
 6582TIP3    H219753   1.357   3.735   5.081
 6583TIP3   OH219754   0.729   0.635   4.691
 6583TIP3    H119755   0.645   0.666   4.727
 6583TIP3    H219756   0.731   0.542   4.714
 6584TIP3   OH219757   5.899   2.451   2.823
 6584TIP3    H119758   5.906   2.449   2.727
 6584TIP3    H219759   5.930   2.364   2.851
 6585TIP3   OH219760   4.551   5.003   4.151
 6585TIP3    H119761   4.596   4.927   4.188
 6585TIP3    H219762   4.606   5.078   4.176
 6586TIP3   OH219763   3.780   3.939   4.429
 6586TIP3    H119764   3.718   3.927   4.500
 6586TIP3    H219765   3.857   3.978   4.471
 6587TIP3   OH219766   3.001   4.100   3.087
 6587TIP3    H119767   2.915   4.085   3.049
 6587TIP3    H219768   3.019   4.020   3.137
 6588TIP3   OH219769   1.873   3.991   0.302
 6588TIP3    H119770   1.807   3.967   0.366
 6588TIP3    H219771   1.956   3.959   0.339
 6589TIP3   OH219772   1.168   4.006   2.446
 6589TIP3    H119773   1.144   3.914   2.457
 6589TIP3    H219774   1.087   4.055   2.461
 6590TIP3   OH219775   0.595   2.431   2.894
 6590TIP3    H119776   0.652   2.368   2.851
 6590TIP3    H219777   0.583   2.500   2.829
 6591TIP3   OH219778   0.948   3.004   4.445
 6591TIP3    H119779   0.988   2.935   4.498
 6591TIP3    H219780   1.019   3.065   4.427
 6592TIP3   OH219781   3.697   0.433   4.030
 6592TIP3    H119782   3.772   0.407   3.976
 6592TIP3    H219783   3.737   0.459   4.114
 6593TIP3   OH219784   2.801   5.218   3.527
 6593TIP3    H119785   2.857   5.174   3.462
 6593TIP3    H219786   2.786   5.152   3.595
 6594TIP3   OH219787   3.780   0.486   1.950
 6594TIP3    H119788   3.770   0.392   1.937
 6594TIP3    H219789   3.834   0.515   1.877
 6595TIP3   OH219790   2.943   1.271   3.211
 6595TIP3    H119791   2.893   1.242   3.136
 6595TIP3    H219792   3.018   1.317   3.174
 6596TIP3   OH219793   2.740   3.452   0.350
 6596TIP3    H119794   2.791   3.371   0.344
 6596TIP3    H219795   2.690   3.454   0.269
 6597TIP3   OH219796   0.625   2.469   4.934
 6597TIP3    H119797   0.667   2.553   4.912
 6597TIP3    H219798   0.637   2.415   4.857
 6598TIP3   OH219799   0.953   1.544   3.756
 6598TIP3    H119800   0.913   1.609   3.699
 6598TIP3    H219801   1.047   1.558   3.746
 6599TIP3   OH219802   2.685   4.267   3.283
 6599TIP3    H119803   2.635   4.220   3.350
 6599TIP3    H219804   2.773   4.274   3.320
 6600TIP3   OH219805   5.878   4.329   3.525
 6600TIP3    H119806   5.928   4.270   3.582
 6600TIP3    H219807   5.938   4.402   3.507
 6601TIP3   OH219808   2.417   5.214   2.834
 6601TIP3    H119809   2.341   5.251   2.878
 6601TIP3    H219810   2.421   5.124   2.867
 6602TIP3   OH219811   4.451   2.563   4.529
 6602TIP3    H119812   4.363   2.525   4.526
 6602TIP3    H219813   4.477   2.554   4.620
 6603TIP3   OH219814   0.545   4.250   1.467
 6603TIP3    H119815   0.555   4.311   1.540
 6603TIP3    H219816   0.453   4.255   1.443
 6604TIP3   OH219817   3.591   3.793   1.248
 6604TIP3    H119818   3.500   3.795   1.220
 6604TIP3    H219819   3.589   3.759   1.337
 6605TIP3   OH219820   0.317   5.865   1.810
 6605TIP3    H119821   0.302   5.857   1.716
 6605TIP3    H219822   0.383   5.799   1.830
 6606TIP3   OH219823   0.139   0.054   0.752
 6606TIP3    H119824   0.218   0.003   0.734
 6606TIP3    H219825   0.073  -0.011   0.774
 6607TIP3   OH219826   2.153   0.225   0.944
 6607TIP3    H119827   2.103   0.276   1.008
 6607TIP3    H219828   2.240   0.263   0.945
 6608TIP3   OH219829   5.323   4.639   3.423
 6608TIP3    H119830   5.381   4.573   3.461
 6608TIP3    H219831   5.253   4.588   3.383
 6609TIP3   OH219832   5.650   5.510   3.543
 6609TIP3    H119833   5.657   5.597   3.584
 6609TIP3    H219834   5.737   5.492   3.509
 6610TIP3   OH219835   4.986   3.780   4.038
 6610TIP3    H119836   4.912   3.721   4.025
 6610TIP3    H219837   4.982   3.805   4.130
 6611TIP3   OH219838   1.590   0.999   3.104
 6611TIP3    H119839   1.637   0.974   3.024
 6611TIP3    H219840   1.638   1.075   3.137
 6612TIP3   OH219841   4.467   0.085   2.287
 6612TIP3    H119842   4.385   0.051   2.323
 6612TIP3    H219843   4.464   0.062   2.194
 6613TIP3   OH219844   4.487   2.225   0.811
 6613TIP3    H119845   4.505   2.237   0.904
 6613TIP3    H219846   4.395   2.200   0.808
 6614TIP3   OH219847   3.583   4.844   2.110
 6614TIP3    H119848   3.529   4.855   2.032
 6614TIP3    H219849   3.624   4.930   2.122
 6615TIP3   OH219850   5.269   5.675   3.144
 6615TIP3    H119851   5.181   5.646   3.122
 6615TIP3    H219852   5.326   5.621   3.090
 6616TIP3   OH219853   1.346   5.698   3.817
 6616TIP3    H119854   1.313   5.742   3.896
 6616TIP3    H219855   1.440   5.710   3.820
 6617TIP3   OH219856   4.958   4.170   3.917
 6617TIP3    H119857   5.053   4.177   3.911
 6617TIP3    H219858   4.932   4.246   3.969
 6618TIP3   OH219859   0.375   0.326   3.584
 6618TIP3    H119860   0.421   0.357   3.506
 6618TIP3    H219861   0.381   0.231   3.579
 6619TIP3   OH219862   0.831   5.701   4.724
 6619TIP3    H119863   0.889   5.778   4.728
 6619TIP3    H219864   0.872   5.638   4.782
 6620TIP3   OH219865   0.115   5.194   2.632
 6620TIP3    H119866   0.036   5.156   2.591
 6620TIP3    H219867   0.144   5.261   2.570
 6621TIP3   OH219868   5.194   1.621   3.202
 6621TIP3    H119869   5.178   1.545   3.258
 6621TIP3    H219870   5.107   1.654   3.180
 6622TIP3   OH219871   3.344   0.436   4.695
 6622TIP3    H119872   3.335   0.491   4.773
 6622TIP3    H219873   3.259   0.443   4.651
 6623TIP3   OH219874   3.734   3.033   3.841
 6623TIP3    H119875   3.796   3.009   3.910
 6623TIP3    H219876   3.734   2.956   3.783
 6624TIP3   OH219877   3.846   0.312   4.298
 6624TIP3    H119878   3.847   0.404   4.274
 6624TIP3    H219879   3.938   0.287   4.304
 6625TIP3   OH219880   0.092   2.624   0.878
 6625TIP3    H119881   0.146   2.555   0.838
 6625TIP3    H219882   0.017   2.577   0.915
 6626TIP3   OH219883   1.474   3.059   1.603
 6626TIP3    H119884   1.504   3.101   1.522
 6626TIP3    H219885   1.536   3.089   1.669
 6627TIP3   OH219886   1.579   5.034   3.869
 6627TIP3    H119887   1.539   5.045   3.955
 6627TIP3    H219888   1.507   5.007   3.812
 6628TIP3   OH219889   5.716   1.297   0.610
 6628TIP3    H119890   5.717   1.252   0.526
 6628TIP3    H219891   5.721   1.227   0.675
 6629TIP3   OH219892   3.962   5.884   4.845
 6629TIP3    H119893   3.896   5.893   4.776
 6629TIP3    H219894   3.990   5.793   4.839
 6630TIP3   OH219895   0.729   0.062   2.031
 6630TIP3    H119896   0.746   0.098   2.119
 6630TIP3    H219897   0.788   0.111   1.974
 6631TIP3   OH219898   6.129   3.419   4.330
 6631TIP3    H119899   6.116   3.324   4.324
 6631TIP3    H219900   6.183   3.430   4.408
 6632TIP3   OH219901   5.552   2.135   2.285
 6632TIP3    H119902   5.474   2.190   2.279
 6632TIP3    H219903   5.596   2.163   2.365
 6633TIP3   OH219904   2.440   2.466   0.660
 6633TIP3    H119905   2.525   2.498   0.689
 6633TIP3    H219906   2.424   2.388   0.712
 6634TIP3   OH219907   5.880   5.542   4.019
 6634TIP3    H119908   5.792   5.503   4.016
 6634TIP3    H219909   5.865   5.634   4.038
 6635TIP3   OH219910   5.318   3.652   2.138
 6635TIP3    H119911   5.295   3.629   2.228
 6635TIP3    H219912   5.259   3.724   2.115
 6636TIP3   OH219913   3.541   0.195   5.002
 6636TIP3    H119914   3.458   0.242   5.012
 6636TIP3    H219915   3.572   0.221   4.915
 6637TIP3   OH219916   2.570   4.092   0.069
 6637TIP3    H119917   2.653   4.140   0.074
 6637TIP3    H219918   2.504   4.160   0.058
 6638TIP3   OH219919   3.260   0.328   4.995
 6638TIP3    H119920   3.218   0.401   4.951
 6638TIP3    H219921   3.259   0.351   5.088
 6639TIP3   OH219922   5.906   1.193   2.488
 6639TIP3    H119923   5.909   1.280   2.448
 6639TIP3    H219924   5.828   1.194   2.544
 6640TIP3   OH219925   4.750   4.026   1.042
 6640TIP3    H119926   4.728   3.936   1.067
 6640TIP3    H219927   4.673   4.077   1.067
 6641TIP3   OH219928   1.913   0.402   4.236
 6641TIP3    H119929   1.842   0.429   4.178
 6641TIP3    H219930   1.886   0.433   4.322
 6642TIP3   OH219931   0.208   5.674   2.175
 6642TIP3    H119932   0.272   5.681   2.246
 6642TIP3    H219933   0.163   5.759   2.175
 6643TIP3   OH219934   4.243   0.756   2.884
 6643TIP3    H119935   4.231   0.807   2.804
 6643TIP3    H219936   4.269   0.821   2.949
 6644TIP3   OH219937   2.671   3.378   3.831
 6644TIP3    H119938   2.725   3.422   3.764
 6644TIP3    H219939   2.692   3.424   3.912
 6645TIP3   OH219940   0.945   5.823   1.244
 6645TIP3    H119941   0.903   5.785   1.322
 6645TIP3    H219942   0.954   5.749   1.184
   6.35602   5.99251   5.18967   0.00000   0.00000  -2.11868   0.00000  -2.11868  -2.99625
